Title
82305
    1SAPS     N    1   4.556   5.442  10.858 -0.0169 -0.6264 -0.3020
    1SAPS   HN1    2   4.541   5.357  10.799  0.3748 -0.3411 -0.8277
    1SAPS   HN2    3   4.578   5.524  10.798 -0.4796 -0.9899 -0.9862
    1SAPS   HN3    4   4.632   5.433  10.928  0.1080  3.2530  0.2472
    1SAPS   C12    5   4.420   5.474  10.911 -0.2572 -0.0671 -0.1420
    1SAPS  H12A    6   4.354   5.461  10.827 -2.4001  1.2461  1.2412
    1SAPS   C13    7   4.358   5.383  11.023 -0.5310  0.4702 -0.7738
    1SAPS  O13A    8   4.412   5.272  11.060  0.4413 -0.8677  0.1951
    1SAPS  O13B    9   4.272   5.437  11.099 -0.3006 -0.2102  0.5003
    1SAPS   C11   10   4.422   5.624  10.963  0.1711 -0.3339  0.4067
    1SAPS  H11A   11   4.470   5.627  11.063 -0.9916  3.5592  0.9851
    1SAPS  H11B   12   4.315   5.651  10.972 -0.9066 -2.4203 -3.5482
    1SAPS     P   13   4.531   5.851  10.903  0.0470  0.0519 -0.3371
    1SAPS   O13   14   4.427   5.916  10.989  0.0192 -0.8136 -0.7716
    1SAPS   O14   15   4.669   5.840  10.953  0.0933  0.0224 -0.3959
    1SAPS   O12   16   4.488   5.709  10.866  0.3963  0.0894  0.2543
    1SAPS   O11   17   4.529   5.921  10.763  0.2846  0.0110  0.0738
    1SAPS    C1   18   4.397   5.933  10.700  0.2359 -0.0434 -0.0933
    1SAPS    HA   19   4.313   5.942  10.772 -0.0527  2.3418 -0.6537
    1SAPS    HB   20   4.391   6.027  10.642 -0.6490  0.2079  0.3881
    1SAPS    C2   21   4.368   5.822  10.599 -0.4717  1.2823 -0.3685
    1SAPS    HS   22   4.376   5.732  10.663  0.8685  0.6363 -1.4017
    1SAPS   O21   23   4.479   5.817  10.505 -0.3858 -0.3283 -0.3788
    1SAPS   C21   24   4.569   5.717  10.529 -0.0825 -0.5237 -1.2735
    1SAPS   O22   25   4.557   5.630  10.614  0.1126 -0.2062 -0.0146
    1SAPS   C22   26   4.690   5.726  10.433  0.1678 -0.4914 -0.1880
    1SAPS   H2R   27   4.660   5.769  10.335  0.2728  1.7935  0.7007
    1SAPS   H2S   28   4.755   5.809  10.469 -2.6516  2.5048 -1.4667
    1SAPS    C3   29   4.230   5.827  10.524 -0.1217  0.0799 -0.3102
    1SAPS    HX   30   4.241   5.915  10.457  2.4265 -0.3707 -0.5984
    1SAPS    HY   31   4.143   5.822  10.592 -0.2624 -1.3328 -0.5609
    1SAPS   O31   32   4.213   5.707  10.438  0.5282  0.0466 -0.4716
    1SAPS   C31   33   4.201   5.583  10.488  0.6373  0.8549  0.3412
    1SAPS   O32   34   4.171   5.551  10.604  0.5477 -0.1199  0.3306
    1SAPS   C32   35   4.263   5.488  10.375  0.0744 -0.7787  0.3993
    1SAPS   H2X   36   4.217   5.389  10.399  1.1916 -1.2334  0.7462
    1SAPS   H2Y   37   4.373   5.472  10.385 -0.3272 -3.4751  1.3066
    1SAPS   C23   38   4.766   5.598  10.415  0.7663 -0.6682  0.2043
    1SAPS   H3R   39   4.803   5.551  10.509 -0.0388 -1.3368  0.2006
    1SAPS   H3S   40   4.853   5.625  10.351 -0.5386  2.8152 -0.3456
    1SAPS   C24   41   4.678   5.499  10.338 -0.0816 -0.8767 -0.0059
    1SAPS   H4R   42   4.581   5.491  10.391 -0.6907 -0.2603 -0.9947
    1SAPS   H4S   43   4.725   5.399  10.347  3.1073  0.4144 -0.9664
    1SAPS   C25   44   4.629   5.537  10.196  0.8100  0.1900 -0.6441
    1SAPS   H5R   45   4.571   5.630  10.207  2.3179  1.1534 -0.6557
    1SAPS   C26   46   4.656   5.493  10.076  0.0262 -0.7004 -0.8356
    1SAPS   H6R   47   4.611   5.552   9.994  2.3973  0.6954 -1.2308
    1SAPS   C27   48   4.759   5.386  10.045 -0.5139  0.2805  0.6015
    1SAPS   H7R   49   4.707   5.297  10.002 -1.0194 -0.4263  2.5779
    1SAPS   H7S   50   4.791   5.343  10.142 -3.3836  1.3663  2.1493
    1SAPS   C28   51   4.893   5.419   9.981 -0.3678  0.8581 -0.0394
    1SAPS   H8R   52   4.964   5.450  10.059  0.4544 -1.2797  0.1214
    1SAPS   C29   53   4.925   5.415   9.848  0.6658 -0.2164  0.3291
    1SAPS   H9R   54   5.021   5.451   9.809 -0.3417  1.0619 -1.0824
    1SAPS  C210   55   4.822   5.378   9.750 -0.5845 -0.3350  0.2615
    1SAPS  H10R   56   4.758   5.298   9.794  0.2046 -0.7736  0.6324
    1SAPS  H10S   57   4.879   5.342   9.662  0.2211  1.4783 -0.0057
    1SAPS  C211   58   4.728   5.482   9.700  0.3072 -1.0284 -0.6858
    1SAPS  H11R   59   4.721   5.568   9.769 -1.3853 -0.6388 -1.2967
    1SAPS  C212   60   4.672   5.508   9.579  0.4719  0.4822  0.2701
    1SAPS  H12R   61   4.604   5.593   9.561 -1.1766 -0.5766  1.1975
    1SAPS  C213   62   4.677   5.415   9.461 -0.1028  0.3143 -0.0131
    1SAPS  H13R   63   4.571   5.394   9.436  0.1319 -2.9564  1.2825
    1SAPS  H13S   64   4.726   5.318   9.488 -1.2250 -0.3409 -0.2765
    1SAPS  C214   65   4.752   5.463   9.339 -0.3716  0.0088  0.5004
    1SAPS  H14R   66   4.825   5.542   9.359 -1.8653  1.8530 -0.9726
    1SAPS  C215   67   4.725   5.440   9.205  0.4051 -0.8840 -1.0779
    1SAPS  H15R   68   4.789   5.487   9.129 -1.2978  0.2098 -1.9019
    1SAPS  C216   69   4.621   5.343   9.144 -0.0957  0.2333 -0.1344
    1SAPS  H16R   70   4.549   5.406   9.088  0.7352  0.6771 -0.7285
    1SAPS  H16S   71   4.578   5.276   9.221 -0.5325 -0.2998 -0.8265
    1SAPS  C217   72   4.675   5.261   9.026 -0.2365  0.1923 -0.5081
    1SAPS  H17R   73   4.597   5.188   8.994  0.0253 -0.6351  0.6661
    1SAPS  H17S   74   4.763   5.204   9.062 -2.0663 -1.8766  0.9198
    1SAPS  C218   75   4.726   5.343   8.896  0.3542 -0.2213  0.5614
    1SAPS  H18R   76   4.819   5.400   8.918 -0.8486  1.6176  1.2153
    1SAPS  H18S   77   4.640   5.406   8.864 -0.0742  0.1191  2.2511
    1SAPS  C219   78   4.763   5.246   8.780  0.1602  0.8402  0.2375
    1SAPS  H19R   79   4.849   5.184   8.811 -0.7069 -1.3244 -1.3840
    1SAPS  H19S   80   4.787   5.299   8.685 -0.1413  0.8202  0.1465
    1SAPS  C220   81   4.659   5.147   8.733  0.1051  0.5943 -0.5283
    1SAPS  H20R   82   4.626   5.087   8.820  0.4462 -0.4154 -1.0841
    1SAPS  H20S   83   4.692   5.066   8.665 -1.2101  0.0407 -0.5298
    1SAPS  H20T   84   4.569   5.202   8.696  0.0327  0.1032 -1.1018
    1SAPS   C33   85   4.211   5.538  10.236 -0.1749  0.3816  0.7392
    1SAPS   H3X   86   4.241   5.643  10.213  1.2098 -0.1904 -0.1831
    1SAPS   H3Y   87   4.100   5.535  10.232 -0.4914  0.0461  5.0739
    1SAPS   C34   88   4.266   5.438  10.135 -0.1134  0.0423  0.1525
    1SAPS   H4X   89   4.218   5.340  10.155 -0.7846  0.3552  0.0961
    1SAPS   H4Y   90   4.377   5.433  10.140 -0.1613  0.2504  1.6764
    1SAPS   C35   91   4.229   5.473   9.985 -0.7753  0.0811 -0.8056
    1SAPS   H5X   92   4.247   5.581   9.966  1.3984  0.0173  0.5465
    1SAPS   H5Y   93   4.122   5.444   9.979 -0.5281 -1.9302  2.2345
    1SAPS   C36   94   4.317   5.387   9.890  0.1784 -0.3324 -0.0994
    1SAPS   H6X   95   4.315   5.281   9.924 -1.3709 -0.0362  0.7939
    1SAPS   H6Y   96   4.425   5.414   9.895  0.2439 -0.5693 -0.1767
    1SAPS   C37   97   4.255   5.396   9.744  0.4897  0.6547  1.1954
    1SAPS   H7X   98   4.275   5.502   9.716  0.7114 -0.1155 -1.9311
    1SAPS   H7Y   99   4.146   5.389   9.763  0.2300  1.2741  0.0455
    1SAPS   C38  100   4.308   5.302   9.634 -0.1312  0.2398  0.4414
    1SAPS   H8X  101   4.283   5.196   9.657  2.1615 -0.8341 -1.4554
    1SAPS   H8Y  102   4.418   5.319   9.624 -0.4211  2.0156 -0.1298
    1SAPS   C39  103   4.232   5.328   9.501  0.2136 -0.4049 -0.2210
    1SAPS   H9X  104   4.302   5.376   9.430 -0.5666  0.3502 -0.5094
    1SAPS   H9Y  105   4.145   5.395   9.519  0.9474  0.3248  0.7314
    1SAPS  C310  106   4.186   5.203   9.426 -0.0646 -0.2265 -0.1106
    1SAPS  H10X  107   4.103   5.147   9.474 -1.4064  2.1205  0.4414
    1SAPS  H10Y  108   4.282   5.146   9.424 -0.5187 -1.1301  1.7243
    1SAPS  C311  109   4.135   5.240   9.287 -0.4521  0.2471 -0.3645
    1SAPS  H11X  110   4.192   5.328   9.251 -2.2594  1.7308  0.2788
    1SAPS  H11Y  111   4.026   5.261   9.283 -0.7562 -0.8917  0.9592
    1SAPS  C312  112   4.151   5.131   9.180 -0.0550 -0.2431  0.1763
    1SAPS  H12X  113   4.110   5.164   9.082 -1.8850 -1.6477  0.4081
    1SAPS  H12Y  114   4.094   5.042   9.216 -1.8302  0.6140 -0.3914
    1SAPS  C313  115   4.295   5.087   9.148  0.7004 -0.0087 -0.1932
    1SAPS  H13X  116   4.348   5.043   9.235 -0.4315  2.2203  1.7219
    1SAPS  H13Y  117   4.334   5.190   9.137 -1.2731  0.7109 -0.7378
    1SAPS  C314  118   4.313   5.016   9.012 -0.3831  0.3663  0.6006
    1SAPS  H14X  119   4.416   5.014   8.969 -0.5152 -3.6746  0.0790
    1SAPS  H14Y  120   4.259   5.073   8.934 -0.1289 -0.1760  0.0192
    1SAPS  C315  121   4.262   4.876   9.022  0.9113  0.3244  0.1349
    1SAPS  H15X  122   4.151   4.877   9.035  0.6091  1.7376 -1.9764
    1SAPS  H15Y  123   4.316   4.819   9.101 -0.5198 -0.8891  0.3042
    1SAPS  C316  124   4.292   4.800   8.892 -0.4358 -0.0723 -0.6460
    1SAPS  H16X  125   4.402   4.787   8.890 -0.3941  0.3222 -1.3409
    1SAPS  H16Y  126   4.255   4.862   8.807 -3.2308  0.1711  0.6559
    1SAPS  C317  127   4.227   4.666   8.876 -0.7074  0.5068 -0.4378
    1SAPS  H17X  128   4.239   4.627   8.773 -2.0595 -1.4927  0.1053
    1SAPS  H17Y  129   4.119   4.670   8.902 -0.7072 -0.4594 -0.2310
    1SAPS  C318  130   4.294   4.572   8.977 -0.0744 -0.2578 -0.6855
    1SAPS  H18X  131   4.401   4.554   8.952 -0.2667 -2.0024 -0.3559
    1SAPS  H18Y  132   4.251   4.470   8.974  0.3484 -0.4859  0.5066
    1SAPS  H18Z  133   4.264   4.608   9.078 -1.1215 -3.0646  0.0942
    2SAPS     N  134   3.612   1.074  10.831  0.2600  0.1642  0.7754
    2SAPS   HN1  135   3.525   1.098  10.780 -0.9972 -2.8497  1.3026
    2SAPS   HN2  136   3.633   1.150  10.899 -1.2712  0.8287  0.5433
    2SAPS   HN3  137   3.688   1.070  10.760  0.3505  1.0631  0.8107
    2SAPS   C12  138   3.584   0.939  10.898 -0.7470  0.0097 -1.0777
    2SAPS  H12A  139   3.682   0.911  10.932 -0.7477  0.8484 -0.3509
    2SAPS   C13  140   3.502   0.944  11.035 -0.2344  0.0890  0.7523
    2SAPS  O13A  141   3.450   1.050  11.070 -0.1331  0.3953  0.6170
    2SAPS  O13B  142   3.463   0.832  11.078 -0.6200 -0.5322 -0.2345
    2SAPS   C11  143   3.508   0.843  10.800  0.1969 -0.0828  1.0978
    2SAPS  H11A  144   3.407   0.888  10.786  1.2985  1.7792 -1.9460
    2SAPS  H11B  145   3.484   0.745  10.845 -0.8999  0.4763  1.7624
    2SAPS     P  146   3.697   0.730  10.652 -0.3407 -0.3601  0.1297
    2SAPS   O13  147   3.797   0.786  10.555 -0.4829 -0.0782  0.6003
    2SAPS   O14  148   3.755   0.680  10.784  0.1410 -0.0700  0.3961
    2SAPS   O12  149   3.575   0.830  10.677 -0.5835  0.5503  0.0653
    2SAPS   O11  150   3.633   0.601  10.585 -0.4418  0.1764  0.3933
    2SAPS    C1  151   3.515   0.622  10.500  0.0684 -0.0631 -0.4238
    2SAPS    HA  152   3.423   0.635  10.559  0.0490  0.8012 -0.6302
    2SAPS    HB  153   3.531   0.711  10.435  1.3627  0.3693  0.4594
    2SAPS    C2  154   3.498   0.492  10.412 -0.0148  0.7513  0.1308
    2SAPS    HS  155   3.478   0.406  10.480 -1.2338  2.9619  2.7480
    2SAPS   O21  156   3.607   0.471  10.322  0.2545 -0.1541 -0.1166
    2SAPS   C21  157   3.714   0.407  10.364 -0.7975 -0.1531  0.2932
    2SAPS   O22  158   3.720   0.343  10.464 -0.8550  0.4640  0.0761
    2SAPS   C22  159   3.816   0.415  10.250  0.0660 -0.3820  0.0971
    2SAPS   H2R  160   3.763   0.393  10.155  0.4840 -0.9309 -0.0158
    2SAPS   H2S  161   3.852   0.519  10.259 -0.0233 -0.4106  0.9064
    2SAPS    C3  162   3.375   0.519  10.327  0.4899  0.3175 -0.5638
    2SAPS    HX  163   3.378   0.623  10.286 -3.5209  0.3522 -1.1647
    2SAPS    HY  164   3.280   0.524  10.384 -0.1535  0.5431 -1.6231
    2SAPS   O31  165   3.356   0.430  10.217  0.9237  0.4500  0.2668
    2SAPS   C31  166   3.274   0.328  10.231 -0.4565 -0.5492 -0.3065
    2SAPS   O32  167   3.226   0.288  10.333  0.2269 -0.2082  0.0275
    2SAPS   C32  168   3.228   0.265  10.097 -0.4092 -0.0780  0.8765
    2SAPS   H2X  169   3.320   0.212  10.064 -0.2417  0.4346  0.5068
    2SAPS   H2Y  170   3.205   0.334  10.013  1.8241 -1.3527 -0.8937
    2SAPS   C23  171   3.923   0.304  10.268  0.5836 -1.0947 -0.9820
    2SAPS   H3R  172   3.879   0.206  10.240  0.2171 -1.0937 -0.4308
    2SAPS   H3S  173   3.960   0.280  10.370 -1.0525 -1.3654 -0.4169
    2SAPS   C24  174   4.038   0.323  10.158 -0.3219  1.1059  0.2566
    2SAPS   H4R  175   4.000   0.341  10.055  0.3141  0.6163 -0.0681
    2SAPS   H4S  176   4.091   0.228  10.135 -0.0301  1.5009 -0.7333
    2SAPS   C25  177   4.143   0.422  10.206 -0.5301 -0.0729  0.2571
    2SAPS   H5R  178   4.186   0.405  10.305 -0.0399  1.6882  0.3771
    2SAPS   C26  179   4.194   0.524  10.136 -0.5933  0.0768  0.3862
    2SAPS   H6R  180   4.266   0.588  10.189 -0.7357 -1.6910  2.8975
    2SAPS   C27  181   4.157   0.553   9.994 -0.5539  0.0942  0.3830
    2SAPS   H7R  182   4.163   0.466   9.925  0.9905 -0.1109  0.7439
    2SAPS   H7S  183   4.240   0.614   9.952  0.6673 -0.6366  1.6545
    2SAPS   C28  184   4.026   0.629   9.994  0.3299 -0.3426 -0.2868
    2SAPS   H8R  185   3.989   0.681  10.083 -0.9772 -0.1724 -0.9003
    2SAPS   C29  186   3.948   0.642   9.884 -0.1291 -0.9204 -0.3192
    2SAPS   H9R  187   3.861   0.709   9.890  2.0482  1.9883  1.1320
    2SAPS  C210  188   3.970   0.584   9.748  0.7171  1.3456 -0.7917
    2SAPS  H10R  189   4.070   0.537   9.735  0.0165 -0.8520  0.8890
    2SAPS  H10S  190   3.963   0.673   9.683  1.6642  1.2975 -0.9818
    2SAPS  C211  191   3.874   0.476   9.712 -0.5043  0.1104 -0.0762
    2SAPS  H11R  192   3.835   0.419   9.797  0.6660  0.7522  0.9374
    2SAPS  C212  193   3.837   0.436   9.582 -0.4042  0.3163 -0.5395
    2SAPS  H12R  194   3.770   0.352   9.559 -1.0847  1.2205 -2.0716
    2SAPS  C213  195   3.899   0.497   9.452 -0.0741  1.1212 -0.7134
    2SAPS  H13R  196   4.009   0.490   9.457 -0.1727  0.2874  0.9922
    2SAPS  H13S  197   3.884   0.607   9.447  2.0367  1.6036  1.6400
    2SAPS  C214  198   3.846   0.429   9.327  0.4690 -0.0730  0.3492
    2SAPS  H14R  199   3.770   0.487   9.271  0.8537 -0.0514 -0.1616
    2SAPS  C215  200   3.879   0.300   9.285  0.2370  0.1551 -0.1899
    2SAPS  H15R  201   3.817   0.259   9.204 -1.4714  1.8857  0.1878
    2SAPS  C216  202   3.973   0.206   9.358  0.1499 -0.2093  0.3017
    2SAPS  H16R  203   3.908   0.137   9.416 -0.6180  0.3624  0.1459
    2SAPS  H16S  204   4.035   0.252   9.438  0.2919 -1.2709  0.8172
    2SAPS  C217  205   4.069   0.124   9.271 -0.6044 -0.2677  0.3260
    2SAPS  H17R  206   4.133   0.202   9.224  0.6807 -1.3045  0.3149
    2SAPS  H17S  207   4.011   0.069   9.194 -1.2901  0.4186  0.3333
    2SAPS  C218  208   4.163   0.027   9.355  0.3571 -0.3983  0.1655
    2SAPS  H18R  209   4.118  -0.040   9.432 -0.4807  0.3347  0.3292
    2SAPS  H18S  210   4.216   0.095   9.424 -1.4232  2.5945 -1.1995
    2SAPS  C219  211   4.254  -0.056   9.270  0.5425 -0.2161  0.1452
    2SAPS  H19R  212   4.306   0.012   9.198 -2.6300  1.5092 -0.7063
    2SAPS  H19S  213   4.187  -0.120   9.209  0.5575  0.4655 -0.6059
    2SAPS  C220  214   4.351  -0.140   9.343  0.3275  0.0268 -0.0885
    2SAPS  H20R  215   4.302  -0.202   9.421 -1.5101  0.1562 -1.0809
    2SAPS  H20S  216   4.414  -0.064   9.393 -0.4800  0.1414  0.7793
    2SAPS  H20T  217   4.415  -0.194   9.269  2.3965  1.2743  0.7138
    2SAPS   C33  218   3.125   0.155  10.118  0.4843  0.3195  0.0655
    2SAPS   H3X  219   3.040   0.172  10.188 -0.0901  0.6918 -0.7080
    2SAPS   H3Y  220   3.182   0.069  10.158  0.8763  0.5864  0.0825
    2SAPS   C34  221   3.062   0.094   9.982  0.0797  1.0829 -0.2481
    2SAPS   H4X  222   2.964   0.145   9.970 -1.1433 -1.1283 -0.2135
    2SAPS   H4Y  223   3.042  -0.015   9.993  2.6156  0.2367 -2.7523
    2SAPS   C35  224   3.151   0.109   9.854 -0.3407 -0.4206  0.5605
    2SAPS   H5X  225   3.255   0.081   9.877 -0.0784  0.2745  0.2522
    2SAPS   H5Y  226   3.153   0.216   9.823 -1.6359 -1.2787 -2.9239
    2SAPS   C36  227   3.103   0.030   9.735  0.3872  0.2903 -0.4891
    2SAPS   H6X  228   3.008   0.059   9.685 -0.6952 -2.9307 -0.5502
    2SAPS   H6Y  229   3.103  -0.073   9.775 -0.8301  0.9638  1.3738
    2SAPS   C37  230   3.200   0.019   9.617  0.8231  0.1764  0.4442
    2SAPS   H7X  231   3.296  -0.028   9.649  2.1471  1.5959 -1.2569
    2SAPS   H7Y  232   3.225   0.122   9.584  2.4273 -0.2132  0.3724
    2SAPS   C38  233   3.125  -0.045   9.502  0.0256 -0.3225 -0.0997
    2SAPS   H8X  234   3.066  -0.134   9.531 -0.4384  0.0753  0.1756
    2SAPS   H8Y  235   3.214  -0.071   9.441  0.1796  2.0637 -1.0087
    2SAPS   C39  236   3.035   0.048   9.420 -0.1950  0.1159 -0.0617
    2SAPS   H9X  237   3.087   0.144   9.398  1.5272 -0.9290 -0.6954
    2SAPS   H9Y  238   2.946   0.071   9.483 -0.1591 -0.2420  0.1215
    2SAPS  C310  239   3.002  -0.009   9.284  0.2725 -1.0426  0.5048
    2SAPS  H10X  240   2.984  -0.118   9.280  1.5216 -1.2764  0.8614
    2SAPS  H10Y  241   3.096  -0.013   9.226 -1.7146 -1.1370 -2.9818
    2SAPS  C311  242   2.900   0.071   9.208 -0.0728 -0.0417  0.2442
    2SAPS  H11X  243   2.934   0.177   9.203  0.0651 -0.1529 -2.0782
    2SAPS  H11Y  244   2.806   0.070   9.267  0.4615  0.8767  1.1387
    2SAPS  C312  245   2.892   0.023   9.065 -0.6270 -1.6483 -0.7684
    2SAPS  H12X  246   2.871  -0.085   9.052 -1.8763 -1.6895  1.1211
    2SAPS  H12Y  247   2.996   0.039   9.028 -1.1308 -0.3866 -1.6886
    2SAPS  C313  248   2.812   0.121   8.986  0.9380  0.3394  0.3695
    2SAPS  H13X  249   2.849   0.226   8.997 -2.4973  1.5011  2.3948
    2SAPS  H13Y  250   2.707   0.114   9.021  0.8294  0.3014  0.0335
    2SAPS  C314  251   2.827   0.098   8.825 -0.1000  0.4752  0.1701
    2SAPS  H14X  252   2.738   0.150   8.784 -0.1571  1.0468  1.0006
    2SAPS  H14Y  253   2.831  -0.011   8.809 -1.7649  0.6129 -1.5125
    2SAPS  C315  254   2.954   0.162   8.763  0.0163  0.3273  0.1172
    2SAPS  H15X  255   3.052   0.133   8.807  0.3316  0.2111 -0.6399
    2SAPS  H15Y  256   2.935   0.270   8.780 -0.8140  0.4100 -1.1775
    2SAPS  C316  257   2.968   0.124   8.616 -0.3319  0.4999  0.9407
    2SAPS  H16X  258   2.882   0.156   8.555 -0.7002 -1.5539  0.2844
    2SAPS  H16Y  259   2.984   0.015   8.601 -0.7397  0.4143  1.1271
    2SAPS  C317  260   3.085   0.196   8.554 -0.7751  0.8163 -0.3649
    2SAPS  H17X  261   3.069   0.306   8.557 -0.6745  0.8176  0.9647
    2SAPS  H17Y  262   3.091   0.176   8.445 -0.6391  2.0021 -0.5898
    2SAPS  C318  263   3.221   0.167   8.613  0.5537  0.4816 -0.0884
    2SAPS  H18X  264   3.250   0.060   8.608  1.5089  0.5240  2.7471
    2SAPS  H18Y  265   3.227   0.182   8.723  0.4641 -1.2858  0.1848
    2SAPS  H18Z  266   3.303   0.224   8.564  0.1274  0.9893 -0.2218
    3SAPS     N  267   4.669   4.539  10.967 -0.1095 -0.3404  0.1555
    3SAPS   HN1  268   4.646   4.525  10.867  0.3099 -1.4136  0.1976
    3SAPS   HN2  269   4.601   4.480  11.019 -0.9559 -0.7629 -1.3687
    3SAPS   HN3  270   4.665   4.641  10.989  0.4440 -0.0617 -0.9785
    3SAPS   C12  271   4.813   4.487  10.977  0.6700 -0.6722 -0.6240
    3SAPS  H12A  272   4.865   4.505  10.884  1.6162  1.6307  0.2780
    3SAPS   C13  273   4.892   4.580  11.072 -0.5193  0.0293 -0.6199
    3SAPS  O13A  274   4.849   4.678  11.123  0.1306 -0.6163  0.0120
    3SAPS  O13B  275   5.011   4.541  11.094  0.0039  0.0670 -0.1888
    3SAPS   C11  276   4.798   4.338  11.025 -0.4992 -0.5428 -0.2529
    3SAPS  H11A  277   4.772   4.338  11.132 -2.3179 -0.0093 -0.6687
    3SAPS  H11B  278   4.900   4.294  11.028 -0.2671 -0.0055  2.8306
    3SAPS     P  279   4.743   4.198  10.813 -0.3043 -0.0783  0.0393
    3SAPS   O13  280   4.863   4.119  10.841  0.3267 -0.2178  0.5621
    3SAPS   O14  281   4.632   4.120  10.761  0.8973  0.0154  0.4960
    3SAPS   O12  282   4.692   4.272  10.956 -0.6212  1.1583  0.4023
    3SAPS   O11  283   4.778   4.324  10.730 -0.0272  0.5402 -0.0491
    3SAPS    C1  284   4.676   4.370  10.640 -0.0139 -0.4401 -0.7201
    3SAPS    HA  285   4.577   4.376  10.689  1.6170  1.1762  2.7355
    3SAPS    HB  286   4.687   4.475  10.606  0.6809 -1.0315 -2.4509
    3SAPS    C2  287   4.669   4.293  10.511  0.1019 -0.1706  0.0603
    3SAPS    HS  288   4.669   4.182  10.524  0.7959 -0.0008  1.7784
    3SAPS   O21  289   4.787   4.318  10.433  0.3727 -0.6892 -0.2654
    3SAPS   C21  290   4.814   4.236  10.336 -0.3689  1.0993  0.4207
    3SAPS   O22  291   4.760   4.134  10.304  0.3167  0.7771  0.0404
    3SAPS   C22  292   4.929   4.289  10.265  0.1267  0.6995 -0.0801
    3SAPS   H2R  293   4.950   4.393  10.295  3.3205  0.2759 -0.5157
    3SAPS   H2S  294   5.018   4.229  10.293 -2.4292 -3.5753 -0.1621
    3SAPS    C3  295   4.546   4.348  10.431 -0.1881 -0.0114 -0.6130
    3SAPS    HX  296   4.566   4.452  10.398  2.1532 -0.5196 -0.9833
    3SAPS    HY  297   4.455   4.359  10.493 -1.2532 -2.3795 -1.6102
    3SAPS   O31  298   4.514   4.272  10.312  0.0108 -0.2558  0.2807
    3SAPS   C31  299   4.419   4.176  10.332 -0.1911 -0.0097  0.6222
    3SAPS   O32  300   4.373   4.140  10.441  0.2746 -0.3876  0.1836
    3SAPS   C32  301   4.368   4.139  10.196  0.3073 -0.0233 -0.1542
    3SAPS   H2X  302   4.326   4.232  10.153 -1.3339 -0.6330  0.0484
    3SAPS   H2Y  303   4.288   4.062  10.199  1.2999 -1.1088 -0.5542
    3SAPS   C23  304   4.918   4.274  10.116  0.5648 -0.1537  0.5118
    3SAPS   H3R  305   4.883   4.174  10.084 -0.8140  0.5771 -0.2978
    3SAPS   H3S  306   5.013   4.280  10.057 -0.3400 -1.6248 -1.1648
    3SAPS   C24  307   4.817   4.372  10.060  0.0053  0.9399  0.0488
    3SAPS   H4R  308   4.723   4.366  10.119  1.4301  2.3064  2.6238
    3SAPS   H4S  309   4.785   4.339   9.958 -0.5729  0.3931  0.4015
    3SAPS   C25  310   4.859   4.520  10.062 -0.3379  0.0881  0.5211
    3SAPS   H5R  311   4.837   4.575  10.155 -0.6321  0.9029 -0.0221
    3SAPS   C26  312   4.921   4.572   9.958  0.6565  0.6996  0.3106
    3SAPS   H6R  313   4.952   4.677   9.958  0.9396  0.6862 -2.5021
    3SAPS   C27  314   4.958   4.503   9.824  0.5643  0.3431  0.1249
    3SAPS   H7R  315   4.972   4.394   9.836  1.4512  0.5696  1.3563
    3SAPS   H7S  316   5.061   4.521   9.787 -0.6094 -1.4881 -4.7945
    3SAPS   C28  317   4.861   4.543   9.710  0.4937 -0.0595 -0.3769
    3SAPS   H8R  318   4.754   4.539   9.734  0.8772 -3.1881  1.3345
    3SAPS   C29  319   4.899   4.564   9.585  0.1256 -0.2480 -1.0348
    3SAPS   H9R  320   4.828   4.596   9.506 -0.8079  2.8753  0.9074
    3SAPS  C210  321   5.041   4.533   9.539 -0.2211 -0.8303  0.1999
    3SAPS  H10R  322   5.095   4.462   9.606  0.6769 -0.0556  0.3149
    3SAPS  H10S  323   5.111   4.619   9.549  1.7224 -2.1665 -1.0685
    3SAPS  C211  324   5.042   4.491   9.395  0.8458  1.0589  0.0815
    3SAPS  H11R  325   5.050   4.382   9.381 -0.4027  0.5751  2.5261
    3SAPS  C212  326   5.048   4.570   9.288  0.4104  0.1121  0.8371
    3SAPS  H12R  327   5.050   4.518   9.191 -2.8128  1.1842  0.0650
    3SAPS  C213  328   5.046   4.720   9.289 -0.0157 -0.0155  0.1894
    3SAPS  H13R  329   5.138   4.768   9.326 -0.3129  0.5429  0.2149
    3SAPS  H13S  330   4.962   4.746   9.358 -0.7324 -2.4433  0.3245
    3SAPS  C214  331   5.019   4.783   9.148  0.0994 -0.1603 -0.6417
    3SAPS  H14R  332   5.108   4.830   9.105  1.8098  0.2461  2.9583
    3SAPS  C215  333   4.903   4.799   9.087 -0.2697  0.2762 -0.9656
    3SAPS  H15R  334   4.894   4.844   8.986 -2.0076 -0.0352 -0.9725
    3SAPS  C216  335   4.774   4.755   9.146 -0.2221 -0.6173 -0.0243
    3SAPS  H16R  336   4.790   4.719   9.250  1.7249  0.1455 -0.0205
    3SAPS  H16S  337   4.720   4.683   9.081  1.1342 -0.6622 -1.1511
    3SAPS  C217  338   4.688   4.882   9.151 -0.2058 -0.3565 -0.7156
    3SAPS  H17R  339   4.582   4.851   9.158 -0.0584 -1.3301 -2.2443
    3SAPS  H17S  340   4.700   4.945   9.060 -0.7982 -1.0885 -1.3098
    3SAPS  C218  341   4.732   4.970   9.270  0.0664 -0.5750 -0.1371
    3SAPS  H18R  342   4.684   5.070   9.265  0.6867 -0.1240  1.8769
    3SAPS  H18S  343   4.842   4.986   9.279 -0.3158  2.0523  1.0041
    3SAPS  C219  344   4.674   4.929   9.408 -0.0818  0.2240 -0.5025
    3SAPS  H19R  345   4.732   4.847   9.456  0.9047  1.8808  1.2354
    3SAPS  H19S  346   4.568   4.897   9.395 -0.3006  0.8595 -0.3072
    3SAPS  C220  347   4.676   5.047   9.499  0.3667  0.5982  0.3919
    3SAPS  H20R  348   4.768   5.109   9.490  0.2471  0.4937 -2.2086
    3SAPS  H20S  349   4.655   4.997   9.596 -1.1670 -0.6563 -0.5293
    3SAPS  H20T  350   4.592   5.117   9.477  0.8615  1.0593 -0.0619
    3SAPS   C33  351   4.478   4.089  10.111 -0.2585  0.3155  0.7182
    3SAPS   H3X  352   4.499   3.982  10.129  0.7933  0.5155  0.7453
    3SAPS   H3Y  353   4.574   4.139  10.137 -0.0643  0.4439 -0.1928
    3SAPS   C34  354   4.450   4.106   9.960  0.3993 -0.3545  0.0115
    3SAPS   H4X  355   4.431   4.214   9.941  1.8548  0.3960  2.3869
    3SAPS   H4Y  356   4.357   4.050   9.935 -0.2685 -0.1412  1.8617
    3SAPS   C35  357   4.569   4.058   9.875  0.1959  0.0865  0.9229
    3SAPS   H5X  358   4.570   3.947   9.876 -1.1715  0.0383  3.2115
    3SAPS   H5Y  359   4.653   4.097   9.938 -0.6793  2.1369  0.9048
    3SAPS   C36  360   4.572   4.109   9.726 -0.4111  0.5238  0.4427
    3SAPS   H6X  361   4.509   4.200   9.722 -1.5556 -0.1809  1.6330
    3SAPS   H6Y  362   4.532   4.028   9.662 -1.0236  1.6120 -0.5894
    3SAPS   C37  363   4.718   4.139   9.685  0.4045  0.5998 -0.4533
    3SAPS   H7X  364   4.778   4.074   9.752 -1.4149 -1.0746 -0.3523
    3SAPS   H7Y  365   4.733   4.244   9.719  0.7556  0.1212  0.9320
    3SAPS   C38  366   4.754   4.134   9.535  0.5573 -0.4850  0.2934
    3SAPS   H8X  367   4.850   4.185   9.516 -0.1917  0.5218 -0.9373
    3SAPS   H8Y  368   4.678   4.193   9.480  1.0829  1.5144  1.6121
    3SAPS   C39  369   4.779   3.995   9.478  0.5372 -0.1568 -0.5460
    3SAPS   H9X  370   4.688   3.933   9.489 -0.5632  1.3049 -1.1469
    3SAPS   H9Y  371   4.864   3.947   9.532 -0.9127 -1.4174  0.7178
    3SAPS  C310  372   4.814   3.984   9.328  0.3480  0.1475  0.1041
    3SAPS  H10X  373   4.739   4.012   9.250 -0.7629  1.1694  1.4987
    3SAPS  H10Y  374   4.828   3.875   9.309  0.0781 -0.2456  1.9829
    3SAPS  C311  375   4.945   4.050   9.281 -0.0935  0.4850 -0.3964
    3SAPS  H11X  376   5.023   3.984   9.325  0.2347  0.5175 -0.9166
    3SAPS  H11Y  377   4.960   4.147   9.334 -1.1679  0.1114  0.6427
    3SAPS  C312  378   4.967   4.061   9.135 -0.3983 -0.5369 -0.6804
    3SAPS  H12X  379   4.872   4.108   9.100  0.0784  1.1134  0.1100
    3SAPS  H12Y  380   4.974   3.959   9.091  1.3106 -1.0013  0.5964
    3SAPS  C313  381   5.085   4.152   9.091 -0.3396 -0.4734  0.4421
    3SAPS  H13X  382   5.184   4.103   9.110 -0.5262 -0.8286  0.5170
    3SAPS  H13Y  383   5.082   4.247   9.149  0.5514 -1.0232  1.4465
    3SAPS  C314  384   5.089   4.192   8.941  0.9591  0.6098  0.2854
    3SAPS  H14X  385   4.985   4.224   8.916 -0.7487 -3.0297  1.9174
    3SAPS  H14Y  386   5.111   4.102   8.880 -1.2384 -1.3118  2.1259
    3SAPS  C315  387   5.177   4.309   8.924  0.1051  0.5164 -0.4219
    3SAPS  H15X  388   5.273   4.260   8.898 -1.8399 -3.4693 -0.9398
    3SAPS  H15Y  389   5.177   4.371   9.017 -0.6408  0.6249 -0.4887
    3SAPS  C316  390   5.136   4.403   8.819 -0.3604 -0.1329  0.2001
    3SAPS  H16X  391   5.094   4.351   8.730  1.5505  0.8620 -1.3544
    3SAPS  H16Y  392   5.223   4.467   8.794 -0.2687 -1.0161 -1.9242
    3SAPS  C317  393   5.032   4.505   8.865 -0.0363  0.3861 -0.1056
    3SAPS  H17X  394   5.071   4.562   8.953  1.0594 -1.0419  0.3722
    3SAPS  H17Y  395   4.951   4.445   8.911  0.5083 -0.4175 -0.1746
    3SAPS  C318  396   4.983   4.585   8.751 -0.4492 -0.1803  0.3915
    3SAPS  H18X  397   5.069   4.643   8.711  1.6287 -1.6501  2.5446
    3SAPS  H18Y  398   4.909   4.661   8.786  2.1526  3.2849 -1.0385
    3SAPS  H18Z  399   4.935   4.533   8.665 -1.0019  1.1673 -0.1529
    4SAPS     N  400   5.130   4.119  10.753 -0.7514  0.1347 -0.4316
    4SAPS   HN1  401   5.184   4.198  10.793 -0.5292  0.1343 -0.7252
    4SAPS   HN2  402   5.037   4.116  10.800 -0.2987  0.3848  0.5096
    4SAPS   HN3  403   5.173   4.027  10.777 -0.8977  0.6061  1.8729
    4SAPS   C12  404   5.126   4.135  10.605 -0.4720 -0.2918 -0.2588
    4SAPS  H12A  405   5.077   4.229  10.584 -0.4864 -0.1475  0.3910
    4SAPS   C13  406   5.269   4.131  10.540  0.6010  0.5311 -0.1964
    4SAPS  O13A  407   5.372   4.127  10.613  0.5022  0.1432 -0.1522
    4SAPS  O13B  408   5.277   4.187  10.428 -0.4677 -0.6613 -0.3539
    4SAPS   C11  409   5.028   4.024  10.543  0.3358 -0.3432  0.1250
    4SAPS  H11A  410   5.042   4.039  10.434 -0.1690 -0.4508  0.0434
    4SAPS  H11B  411   4.923   4.043  10.573  0.6114 -1.0088  1.5575
    4SAPS     P  412   5.010   3.766  10.501 -0.2371  0.5225 -0.2930
    4SAPS   O13  413   5.083   3.654  10.558  0.0773  0.1880  0.1514
    4SAPS   O14  414   4.860   3.752  10.514  0.1869 -0.2039  0.0336
    4SAPS   O12  415   5.064   3.895  10.584  0.2637 -0.0142 -0.0893
    4SAPS   O11  416   5.049   3.803  10.349 -0.5404  0.0092 -0.2910
    4SAPS    C1  417   5.177   3.790  10.300 -0.2073  0.2225  0.2869
    4SAPS    HA  418   5.249   3.852  10.357 -0.9011  0.9455  0.3944
    4SAPS    HB  419   5.214   3.685  10.300 -0.0025  0.2679 -1.5719
    4SAPS    C2  420   5.162   3.826  10.149 -0.1921 -0.3892 -0.0214
    4SAPS    HS  421   5.082   3.766  10.099 -2.6271  0.9877  2.0239
    4SAPS   O21  422   5.289   3.800  10.085  0.3460 -0.1024 -0.1568
    4SAPS   C21  423   5.314   3.671  10.052  0.0290  0.2062 -0.0221
    4SAPS   O22  424   5.239   3.582  10.081 -0.1628  0.3168 -0.1425
    4SAPS   C22  425   5.438   3.654   9.960  0.4374 -0.0140 -0.1447
    4SAPS   H2R  426   5.499   3.743   9.987 -1.3783  0.4472  2.9524
    4SAPS   H2S  427   5.493   3.562   9.990  2.2320  0.5736 -1.4226
    4SAPS    C3  428   5.108   3.968  10.129  0.0772 -0.1712  0.3388
    4SAPS    HX  429   5.153   4.040  10.201 -0.5776 -0.1250  0.7148
    4SAPS    HY  430   4.999   3.963  10.151 -0.0522  0.4525 -0.1187
    4SAPS   O31  431   5.123   4.013   9.993  0.3671  0.2063 -0.6065
    4SAPS   C31  432   5.239   4.064   9.962  0.1096  0.1722  0.5344
    4SAPS   O32  433   5.322   4.107  10.042 -0.1259  0.9604  0.2662
    4SAPS   C32  434   5.260   4.078   9.810 -0.8056  0.0701 -0.4232
    4SAPS   H2X  435   5.218   3.985   9.765 -3.2637  1.9034 -2.1761
    4SAPS   H2Y  436   5.370   4.067   9.795 -1.1784 -3.0987 -1.6774
    4SAPS   C23  437   5.389   3.648   9.811 -0.5152  0.4825  0.0448
    4SAPS   H3R  438   5.301   3.714   9.795 -1.3309 -1.1989 -3.5240
    4SAPS   H3S  439   5.359   3.542   9.796  4.0050 -0.9401 -0.6076
    4SAPS   C24  440   5.498   3.686   9.718 -0.1001  0.1039  0.1837
    4SAPS   H4R  441   5.463   3.676   9.613  1.4617 -0.0335 -0.3499
    4SAPS   H4S  442   5.590   3.625   9.733  1.7564  2.8873  1.0457
    4SAPS   C25  443   5.549   3.829   9.735  0.5073 -0.9924 -0.3654
    4SAPS   H5R  444   5.477   3.912   9.739  2.2146  0.5337  0.1131
    4SAPS   C26  445   5.675   3.882   9.744 -0.2103  0.1989 -0.3130
    4SAPS   H6R  446   5.677   3.987   9.777  0.8417 -0.1878  0.9297
    4SAPS   C27  447   5.813   3.813   9.739  0.4471 -0.3113  0.0153
    4SAPS   H7R  448   5.875   3.864   9.662  1.9773  1.5218  2.3145
    4SAPS   H7S  449   5.787   3.720   9.684 -2.0677  1.1062 -1.3398
    4SAPS   C28  450   5.889   3.789   9.862 -0.2490  1.1392  0.8388
    4SAPS   H8R  451   5.867   3.699   9.921  0.4712  0.4605  0.0921
    4SAPS   C29  452   5.982   3.873   9.905 -0.5645 -0.1445 -0.4058
    4SAPS   H9R  453   6.028   3.845  10.001 -0.0575  0.0986 -0.5727
    4SAPS  C210  454   6.038   4.000   9.847 -0.1028 -0.7636  0.8057
    4SAPS  H10R  455   6.096   4.056   9.924 -1.9881  2.3873  0.1055
    4SAPS  H10S  456   5.955   4.067   9.819  1.0353  0.6577  0.7349
    4SAPS  C211  457   6.137   3.977   9.736 -0.4729  0.1934 -0.5032
    4SAPS  H11R  458   6.229   3.926   9.769  0.7343  1.1486 -2.1873
    4SAPS  C212  459   6.129   4.020   9.609 -0.1507  0.4490 -0.6715
    4SAPS  H12R  460   6.210   3.997   9.538 -1.4120 -1.5580 -1.5459
    4SAPS  C213  461   6.020   4.098   9.545 -0.4396  0.2623 -0.3059
    4SAPS  H13R  462   5.932   4.112   9.612 -0.2852  0.8960 -0.2236
    4SAPS  H13S  463   5.984   4.039   9.458  1.7981 -1.5810 -0.0584
    4SAPS  C214  464   6.065   4.239   9.525  0.4951  0.0709 -0.3841
    4SAPS  H14R  465   6.052   4.312   9.606  0.0083  0.1706 -0.5504
    4SAPS  C215  466   6.095   4.285   9.405  0.2927  0.5184 -0.7342
    4SAPS  H15R  467   6.123   4.391   9.397 -1.2253  0.9086 -1.0763
    4SAPS  C216  468   6.090   4.211   9.273 -0.3590  0.2739  0.3560
    4SAPS  H16R  469   6.001   4.145   9.271 -0.1100 -0.0873  0.8279
    4SAPS  H16S  470   6.181   4.147   9.274  0.7873  1.7399 -1.5391
    4SAPS  C217  471   6.082   4.302   9.146  0.8211 -0.4690  0.3428
    4SAPS  H17R  472   6.134   4.396   9.174 -0.7568 -0.7500  4.9943
    4SAPS  H17S  473   5.978   4.341   9.143  1.0942  0.3144  0.8374
    4SAPS  C218  474   6.118   4.240   9.012  0.0803 -0.1441  0.3570
    4SAPS  H18R  475   6.058   4.150   8.989  0.4601  0.2779 -2.6525
    4SAPS  H18S  476   6.220   4.196   9.012  0.4013  0.5233 -1.3015
    4SAPS  C219  477   6.103   4.325   8.884 -0.0124 -0.1770  0.1002
    4SAPS  H19R  478   6.196   4.386   8.874  0.8835 -1.8696 -3.9991
    4SAPS  H19S  479   6.013   4.388   8.898  0.6755  0.8771 -0.1460
    4SAPS  C220  480   6.078   4.232   8.755 -0.0032  0.5294  0.0209
    4SAPS  H20R  481   6.047   4.304   8.675 -0.5706  0.4529  0.1689
    4SAPS  H20S  482   6.005   4.151   8.776 -0.8599  0.7902 -1.7314
    4SAPS  H20T  483   6.171   4.183   8.718  0.2323  0.6287  0.4803
    4SAPS   C33  484   5.185   4.196   9.739  0.2250 -0.3002 -0.6014
    4SAPS   H3X  485   5.213   4.298   9.772 -1.4023  0.0007 -0.0960
    4SAPS   H3Y  486   5.077   4.183   9.758 -0.3538  2.6629 -1.3604
    4SAPS   C34  487   5.197   4.190   9.581 -0.4034 -0.0653 -0.4735
    4SAPS   H4X  488   5.107   4.243   9.546  0.8782  0.7953 -2.6313
    4SAPS   H4Y  489   5.202   4.084   9.549  0.4149 -0.2323  0.1464
    4SAPS   C35  490   5.332   4.244   9.535 -0.1047  0.1388 -1.1713
    4SAPS   H5X  491   5.421   4.202   9.586  0.1293  0.1125 -1.5943
    4SAPS   H5Y  492   5.342   4.349   9.568 -1.8891 -0.2338  0.7658
    4SAPS   C36  493   5.368   4.243   9.390  0.4728 -0.0118 -0.2690
    4SAPS   H6X  494   5.294   4.308   9.339  0.8233  0.1486 -0.5662
    4SAPS   H6Y  495   5.359   4.139   9.352  0.1857 -0.5947  1.3122
    4SAPS   C37  496   5.508   4.300   9.373  0.0853 -0.0211  0.6356
    4SAPS   H7X  497   5.528   4.391   9.434  0.7137  0.0678  0.2983
    4SAPS   H7Y  498   5.510   4.331   9.267 -0.0299 -1.5050  0.1743
    4SAPS   C38  499   5.624   4.201   9.396 -0.2992  0.3685 -0.6829
    4SAPS   H8X  500   5.642   4.171   9.502  0.5337 -0.0018 -0.9195
    4SAPS   H8Y  501   5.721   4.248   9.370  1.4663 -0.5686  3.3701
    4SAPS   C39  502   5.615   4.067   9.317 -0.4046 -0.1823  0.2494
    4SAPS   H9X  503   5.633   4.099   9.212  0.6668  2.1888  1.0731
    4SAPS   H9Y  504   5.517   4.017   9.324 -0.9219  0.5000 -1.6229
    4SAPS  C310  505   5.714   3.967   9.361 -0.0544  0.0498  0.0855
    4SAPS  H10X  506   5.695   3.946   9.469  0.6210  2.4092  0.7158
    4SAPS  H10Y  507   5.820   3.989   9.339 -0.1085 -0.7712 -1.1054
    4SAPS  C311  508   5.688   3.836   9.283 -0.0457  0.6901 -0.3177
    4SAPS  H11X  509   5.582   3.806   9.300  1.1114 -2.9496  1.7383
    4SAPS  H11Y  510   5.760   3.765   9.329  1.3035  3.2669  1.8415
    4SAPS  C312  511   5.726   3.846   9.132  0.4836  0.3958  0.4462
    4SAPS  H12X  512   5.812   3.912   9.111 -0.5323  1.8725  0.7722
    4SAPS  H12Y  513   5.641   3.891   9.078  1.4934 -1.1119 -2.6328
    4SAPS  C313  514   5.758   3.718   9.048  0.5708 -0.3593  0.0463
    4SAPS  H13X  515   5.665   3.657   9.041 -0.8410  1.6052  0.7777
    4SAPS  H13Y  516   5.839   3.658   9.093  1.3215  0.1316 -0.6180
    4SAPS  C314  517   5.816   3.754   8.908 -0.5348  0.5224  0.0439
    4SAPS  H14X  518   5.836   3.657   8.856 -0.2535  0.7786 -0.3267
    4SAPS  H14Y  519   5.913   3.806   8.922 -2.5796  4.4470  0.9190
    4SAPS  C315  520   5.718   3.824   8.826 -0.0169 -0.2748 -0.1075
    4SAPS  H15X  521   5.691   3.923   8.870 -0.9667  0.2811 -1.8565
    4SAPS  H15Y  522   5.620   3.775   8.810 -1.4487  1.6760  2.0246
    4SAPS  C316  523   5.776   3.826   8.683  0.1533 -0.9388  0.1813
    4SAPS  H16X  524   5.753   3.732   8.629 -2.7964 -0.6315  0.7306
    4SAPS  H16Y  525   5.887   3.827   8.685  0.2350  2.4576  1.8381
    4SAPS  C317  526   5.717   3.938   8.591  0.4590 -0.5016  0.3193
    4SAPS  H17X  527   5.680   4.022   8.654 -4.0092 -0.3611 -2.0391
    4SAPS  H17Y  528   5.626   3.893   8.546  0.5178 -0.2255 -0.0813
    4SAPS  C318  529   5.814   3.976   8.477 -0.0143  0.7809 -0.5210
    4SAPS  H18X  530   5.907   4.022   8.517  0.3772 -2.0373  2.1870
    4SAPS  H18Y  531   5.758   4.046   8.411 -0.8825  0.9197  0.3312
    4SAPS  H18Z  532   5.841   3.881   8.428 -2.2994 -0.7589  1.0150
    5SAPS     N  533   4.363   4.094  10.724  0.1256 -0.4627 -0.7098
    5SAPS   HN1  534   4.464   4.098  10.748 -0.5990  0.5725  2.7265
    5SAPS   HN2  535   4.334   3.994  10.726  0.4219 -0.5403  0.0331
    5SAPS   HN3  536   4.352   4.138  10.631  0.5251  1.5632  0.1526
    5SAPS   C12  537   4.286   4.163  10.836  0.0768  0.3089 -0.1360
    5SAPS  H12A  538   4.180   4.152  10.820  0.3134 -1.5040 -0.6963
    5SAPS   C13  539   4.309   4.097  10.975  0.4923 -0.1289  1.6317
    5SAPS  O13A  540   4.360   3.982  10.987 -0.5277  0.2854  0.5754
    5SAPS  O13B  541   4.272   4.161  11.081  0.1534  0.0062  0.4072
    5SAPS   C11  542   4.330   4.314  10.858  0.7347 -0.0771  0.2648
    5SAPS  H11A  543   4.433   4.310  10.901  0.6889 -0.3243  0.3529
    5SAPS  H11B  544   4.269   4.367  10.934  0.5563  0.0432  0.0383
    5SAPS     P  545   4.352   4.543  10.726 -0.0909  0.1345  0.1809
    5SAPS   O13  546   4.242   4.620  10.788 -0.5784 -0.7265 -0.1172
    5SAPS   O14  547   4.489   4.588  10.755 -0.0390  0.1239 -0.4148
    5SAPS   O12  548   4.341   4.389  10.739  0.2579  0.3086 -0.4158
    5SAPS   O11  549   4.338   4.557  10.572  0.1592  0.3563 -0.1402
    5SAPS    C1  550   4.229   4.512  10.494  0.0372  0.3323  0.0548
    5SAPS    HA  551   4.252   4.429  10.425  1.2401  0.3724  0.3898
    5SAPS    HB  552   4.142   4.476  10.554 -2.1797 -1.3208 -3.8017
    5SAPS    C2  553   4.171   4.629  10.415 -0.1046  0.0425  0.7880
    5SAPS    HS  554   4.074   4.593  10.375  0.4647 -0.3220 -0.2753
    5SAPS   O21  555   4.270   4.667  10.315 -0.3621 -0.6198 -0.5240
    5SAPS   C21  556   4.271   4.591  10.215 -0.1296 -0.1335  0.0599
    5SAPS   O22  557   4.188   4.504  10.188  0.2014 -0.3924 -0.2652
    5SAPS   C22  558   4.395   4.605  10.133  0.5786  0.0853 -0.2438
    5SAPS   H2R  559   4.413   4.714  10.121  1.5451  0.0712  0.9319
    5SAPS   H2S  560   4.488   4.572  10.185  0.8097  0.3454 -0.4876
    5SAPS    C3  561   4.142   4.755  10.488 -0.6839  0.7910 -0.5704
    5SAPS    HX  562   4.239   4.804  10.511  0.1168 -0.6222 -0.8074
    5SAPS    HY  563   4.094   4.720  10.582  4.3782 -2.2767  1.3065
    5SAPS   O31  564   4.055   4.834  10.415  0.3305  0.1290  0.1963
    5SAPS   C31  565   4.068   4.965  10.430  0.2021 -0.3179 -0.9432
    5SAPS   O32  566   4.145   5.017  10.509 -0.4656  0.1791  0.3524
    5SAPS   C32  567   3.962   5.053  10.354  0.0979 -0.3258 -0.3096
    5SAPS   H2X  568   3.876   5.053  10.425 -0.3433  0.8128 -0.8285
    5SAPS   H2Y  569   3.933   5.007  10.257 -0.6775 -1.7910  0.5710
    5SAPS   C23  570   4.389   4.531   9.997  0.7746 -0.0672 -0.0038
    5SAPS   H3R  571   4.302   4.561   9.935  0.6468  0.8428  0.5951
    5SAPS   H3S  572   4.369   4.424  10.021  1.8565 -0.1931  0.3904
    5SAPS   C24  573   4.517   4.542   9.913 -0.4524 -0.1529  0.2043
    5SAPS   H4R  574   4.526   4.464   9.835 -2.7770 -0.6598  0.3670
    5SAPS   H4S  575   4.595   4.511   9.985 -1.5785  1.4015  2.2108
    5SAPS   C25  576   4.548   4.676   9.854 -0.7064 -0.6007  0.0752
    5SAPS   H5R  577   4.607   4.742   9.919 -1.1665 -1.0268  0.9446
    5SAPS   C26  578   4.507   4.724   9.737  0.2860  0.2985  0.6284
    5SAPS   H6R  579   4.512   4.830   9.706 -0.7996 -0.3509 -2.1516
    5SAPS   C27  580   4.421   4.640   9.638  0.7598  0.0511  0.0452
    5SAPS   H7R  581   4.321   4.611   9.677  0.9145 -1.7959 -0.8583
    5SAPS   H7S  582   4.477   4.548   9.615  0.9231 -0.1825  1.2926
    5SAPS   C28  583   4.385   4.708   9.505  0.4490 -0.0199  0.6907
    5SAPS   H8R  584   4.350   4.812   9.513  0.7923  0.1170  0.4487
    5SAPS   C29  585   4.385   4.641   9.389 -0.1430 -0.2366 -0.7499
    5SAPS   H9R  586   4.380   4.695   9.294  0.0256 -1.0984 -1.2651
    5SAPS  C210  587   4.436   4.500   9.375 -0.0990  0.3464  0.5420
    5SAPS  H10R  588   4.376   4.450   9.296 -0.3009 -0.4831  1.2029
    5SAPS  H10S  589   4.413   4.441   9.466 -2.1287 -2.1967 -1.4767
    5SAPS  C211  590   4.588   4.488   9.346  1.0216  0.3554 -0.2151
    5SAPS  H11R  591   4.654   4.544   9.414  1.4438 -0.9208  0.4523
    5SAPS  C212  592   4.649   4.421   9.247 -0.2839 -0.9398  0.6660
    5SAPS  H12R  593   4.759   4.426   9.247 -0.3140  0.3961 -0.0281
    5SAPS  C213  594   4.590   4.349   9.126 -0.1186 -0.4955 -0.3342
    5SAPS  H13R  595   4.479   4.357   9.128 -0.1790 -0.2810 -2.2121
    5SAPS  H13S  596   4.617   4.242   9.137  1.0462 -0.4863 -2.5133
    5SAPS  C214  597   4.637   4.388   8.995 -0.1082 -0.4214 -0.3261
    5SAPS  H14R  598   4.704   4.475   8.997  0.3519 -0.7823  0.2752
    5SAPS  C215  599   4.599   4.343   8.873  0.1785 -0.2357  0.3949
    5SAPS  H15R  600   4.646   4.383   8.782  1.0731 -1.1151  0.4539
    5SAPS  C216  601   4.502   4.230   8.838  0.2683 -0.3771 -0.4817
    5SAPS  H16R  602   4.437   4.220   8.927 -0.9744  2.7635 -0.9052
    5SAPS  H16S  603   4.570   4.143   8.828 -0.7000 -1.0643 -1.1633
    5SAPS  C217  604   4.425   4.246   8.706 -0.0316 -0.3483  0.0084
    5SAPS  H17R  605   4.383   4.145   8.684 -0.7337  0.2290 -1.4847
    5SAPS  H17S  606   4.498   4.262   8.624 -0.4697  2.2952  0.0592
    5SAPS  C218  607   4.313   4.353   8.716 -0.0267 -0.5804  0.6358
    5SAPS  H18R  608   4.243   4.317   8.795  1.3053 -1.5447  1.4090
    5SAPS  H18S  609   4.375   4.439   8.749  1.7751 -1.3607 -0.5620
    5SAPS  C219  610   4.246   4.385   8.576  0.3180  0.0654 -0.4776
    5SAPS  H19R  611   4.323   4.410   8.500 -0.9316  1.2932 -1.3958
    5SAPS  H19S  612   4.174   4.467   8.596  1.4087  1.0779 -0.5948
    5SAPS  C220  613   4.161   4.269   8.526  0.4790  0.5103 -0.2522
    5SAPS  H20R  614   4.115   4.292   8.427  0.5348  2.2344  0.0856
    5SAPS  H20S  615   4.081   4.259   8.603  1.9962  1.5024  1.5412
    5SAPS  H20T  616   4.229   4.182   8.511  1.3791  0.9971  0.9106
    5SAPS   C33  617   4.029   5.180  10.313  0.1144 -0.1703 -0.4124
    5SAPS   H3X  618   4.107   5.156  10.238  0.5038  0.6742 -0.2940
    5SAPS   H3Y  619   4.070   5.228  10.405  0.7447 -1.0741 -0.2156
    5SAPS   C34  620   3.934   5.273  10.244 -0.3213  0.1413  0.3148
    5SAPS   H4X  621   3.963   5.380  10.247 -2.4950  0.7772  0.4174
    5SAPS   H4Y  622   3.840   5.266  10.304  0.4861 -0.0921  1.5944
    5SAPS   C35  623   3.912   5.233  10.099 -0.1359 -0.2929 -0.6863
    5SAPS   H5X  624   3.851   5.141  10.100  0.2712 -0.5892 -1.7333
    5SAPS   H5Y  625   4.010   5.219  10.049 -0.1889  0.0780 -0.8996
    5SAPS   C36  626   3.830   5.344  10.032  0.4636  0.2724 -0.5781
    5SAPS   H6X  627   3.888   5.438  10.043  0.6621 -0.0065  0.9807
    5SAPS   H6Y  628   3.739   5.357  10.094  0.5264 -0.9795 -0.2049
    5SAPS   C37  629   3.802   5.313   9.885 -0.2472 -1.1655  0.5794
    5SAPS   H7X  630   3.728   5.230   9.883 -0.8305 -0.7126  2.4000
    5SAPS   H7Y  631   3.895   5.277   9.836 -0.5039 -1.2035  0.1052
    5SAPS   C38  632   3.742   5.436   9.803 -0.5895  0.0705 -0.2286
    5SAPS   H8X  633   3.669   5.497   9.861  1.1114  1.6541  0.3116
    5SAPS   H8Y  634   3.684   5.400   9.716  1.5260  1.4133 -2.2963
    5SAPS   C39  635   3.854   5.530   9.755 -0.7177 -0.1242 -0.0281
    5SAPS   H9X  636   3.943   5.464   9.750  0.1023  0.8042  1.5671
    5SAPS   H9Y  637   3.869   5.609   9.832  0.4740 -0.5673  0.2115
    5SAPS  C310  638   3.838   5.602   9.616  0.4591 -0.2633 -0.5494
    5SAPS  H10X  639   3.913   5.683   9.626  0.5035 -0.5186  1.6057
    5SAPS  H10Y  640   3.742   5.657   9.619  0.8914  0.5222  2.4415
    5SAPS  C311  641   3.854   5.521   9.494 -0.0409  0.1029 -0.4294
    5SAPS  H11X  642   3.755   5.473   9.505 -0.4379  1.4113  2.9489
    5SAPS  H11Y  643   3.934   5.448   9.521 -1.2019 -1.6764 -1.5814
    5SAPS  C312  644   3.873   5.594   9.365 -0.2941 -0.0587  0.5240
    5SAPS  H12X  645   3.902   5.526   9.283  2.2266  0.4288  0.9404
    5SAPS  H12Y  646   3.970   5.647   9.374  0.0288 -0.0102 -2.4558
    5SAPS  C313  647   3.748   5.672   9.318 -0.4118  0.3743 -0.4414
    5SAPS  H13X  648   3.708   5.740   9.397  0.6539  0.9949 -0.4182
    5SAPS  H13Y  649   3.663   5.605   9.295 -0.2538  0.4884 -1.4149
    5SAPS  C314  650   3.776   5.762   9.197  0.3539 -0.1132  0.9466
    5SAPS  H14X  651   3.822   5.716   9.107 -1.3563  2.0558 -1.1550
    5SAPS  H14Y  652   3.854   5.829   9.240 -0.3206  0.4760  1.2525
    5SAPS  C315  653   3.653   5.837   9.148 -1.1021  0.1587 -0.1811
    5SAPS  H15X  654   3.686   5.921   9.084  1.9116 -1.7646 -1.4118
    5SAPS  H15Y  655   3.594   5.882   9.231 -1.1038  0.6650 -0.4543
    5SAPS  C316  656   3.565   5.751   9.060  0.7210  0.0975  0.2798
    5SAPS  H16X  657   3.474   5.810   9.038  0.3962  0.9415  3.4323
    5SAPS  H16Y  658   3.509   5.667   9.108 -0.8531  0.2232 -1.2310
    5SAPS  C317  659   3.630   5.698   8.929 -0.1795  0.6659  0.2634
    5SAPS  H17X  660   3.559   5.638   8.869  0.3995 -0.7961  0.9756
    5SAPS  H17Y  661   3.703   5.617   8.953  2.7810  1.7168 -3.9645
    5SAPS  C318  662   3.698   5.797   8.846  0.4392 -0.8010  0.1005
    5SAPS  H18X  663   3.755   5.758   8.759  2.2982  1.7472  0.0574
    5SAPS  H18Y  664   3.759   5.870   8.903 -0.8737  1.7219 -1.5715
    5SAPS  H18Z  665   3.620   5.857   8.796 -0.0823 -1.9389 -0.4880
    6SAPS     N  666   1.484   3.411  11.170 -0.2925 -0.2127  0.0630
    6SAPS   HN1  667   1.441   3.326  11.213 -0.8493  0.0114 -0.0434
    6SAPS   HN2  668   1.533   3.383  11.083  0.6300 -1.7362  1.0210
    6SAPS   HN3  669   1.553   3.461  11.230  1.2544 -0.5427 -1.3721
    6SAPS   C12  670   1.369   3.499  11.120 -0.6038  1.0780  0.4858
    6SAPS  H12A  671   1.308   3.437  11.056 -1.8353  1.2525  1.4792
    6SAPS   C13  672   1.283   3.541  11.243  0.3895 -0.4705  0.3710
    6SAPS  O13A  673   1.303   3.500  11.356  0.3614 -0.0261 -1.2438
    6SAPS  O13B  674   1.191   3.621  11.213  0.1871 -0.5110  0.0609
    6SAPS   C11  675   1.436   3.624  11.048 -0.2349  0.7112  0.5005
    6SAPS  H11A  676   1.495   3.684  11.121  2.0981  0.8020 -1.3526
    6SAPS  H11B  677   1.365   3.686  10.991 -1.4475  2.6200  3.8056
    6SAPS     P  678   1.497   3.476  10.821  0.1712 -0.5516  0.1093
    6SAPS   O13  679   1.618   3.476  10.740  0.0057 -0.2671 -0.1932
    6SAPS   O14  680   1.448   3.347  10.883 -0.0671 -0.1056  0.0331
    6SAPS   O12  681   1.526   3.574  10.949 -0.0644  0.0530 -0.5011
    6SAPS   O11  682   1.387   3.548  10.742  0.3302 -0.0196  0.1725
    6SAPS    C1  683   1.299   3.480  10.648  0.0845 -1.1100  0.1044
    6SAPS    HA  684   1.281   3.374  10.676 -0.0726 -0.7564  1.3806
    6SAPS    HB  685   1.198   3.526  10.659  0.7497  0.4917 -0.2466
    6SAPS    C2  686   1.352   3.484  10.498  0.7876  0.1620 -0.9025
    6SAPS    HS  687   1.438   3.414  10.506 -0.6954 -1.4853  3.0312
    6SAPS   O21  688   1.395   3.617  10.465  0.3885  0.2800 -0.1571
    6SAPS   C21  689   1.504   3.630  10.398 -0.2654  0.5077  0.4353
    6SAPS   O22  690   1.571   3.540  10.344 -0.3587 -0.4663  0.3526
    6SAPS   C22  691   1.546   3.775  10.398 -0.1121  0.0227  0.6734
    6SAPS   H2R  692   1.529   3.818  10.500 -3.1983 -1.6130  0.9775
    6SAPS   H2S  693   1.655   3.788  10.384 -0.3277  0.8449 -0.3390
    6SAPS    C3  694   1.245   3.431  10.393 -0.4670  0.0539  0.2722
    6SAPS    HX  695   1.163   3.506  10.394 -0.8829 -0.2859 -2.0946
    6SAPS    HY  696   1.206   3.330  10.419  0.1346 -0.1589  0.3708
    6SAPS   O31  697   1.292   3.427  10.254 -0.2801  0.1541  0.4334
    6SAPS   C31  698   1.359   3.310  10.221  0.3173 -0.6151 -0.1338
    6SAPS   O32  699   1.382   3.222  10.305  0.6438 -0.3288 -0.5079
    6SAPS   C32  700   1.435   3.326  10.097  0.8652 -0.2512  0.5797
    6SAPS   H2X  701   1.528   3.386  10.108  0.4248  0.2937  1.4319
    6SAPS   H2Y  702   1.367   3.379  10.027  1.0626 -1.4263 -0.5302
    6SAPS   C23  703   1.476   3.846  10.284  0.1563  0.1098  0.0212
    6SAPS   H3R  704   1.482   3.954  10.310 -0.3539 -0.1076  1.1140
    6SAPS   H3S  705   1.366   3.830  10.286 -0.2077  2.3588  0.6618
    6SAPS   C24  706   1.519   3.811  10.139 -0.4018 -0.2772 -0.9615
    6SAPS   H4R  707   1.627   3.785  10.139 -0.2575  0.1742  0.7765
    6SAPS   H4S  708   1.515   3.908  10.085 -0.8588  1.2088  1.5417
    6SAPS   C25  709   1.433   3.703  10.083 -0.0380  0.0454  0.1657
    6SAPS   H5R  710   1.395   3.619  10.143 -0.0902  0.2068  0.3606
    6SAPS   C26  711   1.380   3.693   9.961 -0.5050 -0.5895  0.3243
    6SAPS   H6R  712   1.316   3.606   9.940 -0.6792 -1.3546  3.4908
    6SAPS   C27  713   1.396   3.791   9.848 -0.0337 -0.0087  0.2761
    6SAPS   H7R  714   1.388   3.892   9.893 -0.1391  0.2954 -0.4077
    6SAPS   H7S  715   1.304   3.785   9.785  0.6594 -0.2358 -0.7379
    6SAPS   C28  716   1.529   3.776   9.775 -0.2375  0.1708  0.5197
    6SAPS   H8R  717   1.619   3.790   9.836 -0.2444 -0.7653  0.7636
    6SAPS   C29  718   1.551   3.734   9.651 -0.4109 -0.6018  0.7051
    6SAPS   H9R  719   1.649   3.726   9.602 -0.7504  1.4499 -0.4117
    6SAPS  C210  720   1.447   3.702   9.546  0.3684 -0.4982  0.6055
    6SAPS  H10R  721   1.351   3.703   9.603  0.3100  2.3478  0.6162
    6SAPS  H10S  722   1.476   3.602   9.507 -0.7413 -0.7269  0.3424
    6SAPS  C211  723   1.446   3.804   9.431 -0.0647 -0.0264 -0.4382
    6SAPS  H11R  724   1.427   3.911   9.452 -1.4556 -0.0020 -1.6400
    6SAPS  C212  725   1.472   3.769   9.301 -0.0026 -0.0050 -0.8306
    6SAPS  H12R  726   1.465   3.846   9.222 -1.0578 -0.6555 -1.3973
    6SAPS  C213  727   1.502   3.638   9.246 -0.4053  1.0091 -0.3629
    6SAPS  H13R  728   1.416   3.614   9.179 -0.9873  1.8836  0.0615
    6SAPS  H13S  729   1.506   3.555   9.319  0.5560 -0.6315 -2.1862
    6SAPS  C214  730   1.626   3.626   9.165  0.4913 -0.4008 -0.5317
    6SAPS  H14R  731   1.691   3.714   9.179  0.5660  0.0585 -3.2753
    6SAPS  C215  732   1.668   3.530   9.080  0.4183 -0.4902 -0.0518
    6SAPS  H15R  733   1.770   3.540   9.042  0.6593 -1.7398  0.2425
    6SAPS  C216  734   1.597   3.414   9.025  0.2422 -0.0625 -0.0586
    6SAPS  H16R  735   1.500   3.400   9.078  1.5827 -0.0621  2.5301
    6SAPS  H16S  736   1.648   3.316   9.036  0.5417  0.1851  0.7905
    6SAPS  C217  737   1.579   3.430   8.870  0.5281  0.4815  0.2218
    6SAPS  H17R  738   1.671   3.475   8.826  0.1147  1.5598  0.4358
    6SAPS  H17S  739   1.497   3.502   8.853  0.8563  0.6188 -0.8874
    6SAPS  C218  740   1.546   3.297   8.793  0.0410 -0.4366  0.7942
    6SAPS  H18R  741   1.471   3.250   8.861  0.1722 -1.2504  0.3968
    6SAPS  H18S  742   1.633   3.229   8.780  0.0526 -0.4761  1.0617
    6SAPS  C219  743   1.472   3.316   8.660 -0.4051 -0.3188 -0.1154
    6SAPS  H19R  744   1.367   3.343   8.683 -0.7710 -1.6456 -0.1540
    6SAPS  H19S  745   1.469   3.208   8.634  0.0813 -0.6119  0.9870
    6SAPS  C220  746   1.540   3.407   8.557 -0.2692  0.7978  0.0583
    6SAPS  H20R  747   1.640   3.364   8.537 -0.5009 -0.3794  1.2802
    6SAPS  H20S  748   1.557   3.510   8.596  1.0041  0.4428  0.4837
    6SAPS  H20T  749   1.476   3.411   8.467  2.1794  0.0182 -1.8422
    6SAPS   C33  750   1.489   3.197  10.031 -0.5150 -0.1481 -0.5904
    6SAPS   H3X  751   1.418   3.114  10.011 -0.2991 -0.9224  1.5964
    6SAPS   H3Y  752   1.544   3.142  10.111 -0.5005  0.4974 -0.1469
    6SAPS   C34  753   1.562   3.227   9.900  0.6059 -0.0857  0.6114
    6SAPS   H4X  754   1.663   3.268   9.924  0.9185  0.2736 -1.1981
    6SAPS   H4Y  755   1.514   3.307   9.840 -2.3991 -1.8507  0.4951
    6SAPS   C35  756   1.586   3.098   9.815  1.0666 -0.1511 -0.0722
    6SAPS   H5X  757   1.489   3.062   9.774  0.9453  0.7031 -0.5757
    6SAPS   H5Y  758   1.629   3.018   9.877 -0.4402 -1.1817 -0.3031
    6SAPS   C36  759   1.678   3.122   9.690 -0.0586 -0.6082  0.1384
    6SAPS   H6X  760   1.676   3.035   9.621 -1.5854 -0.7991  0.3930
    6SAPS   H6Y  761   1.786   3.132   9.715  0.4987 -0.5202 -2.0990
    6SAPS   C37  762   1.640   3.240   9.598 -0.7173  0.0169 -0.1772
    6SAPS   H7X  763   1.646   3.337   9.652  0.6158  0.7078 -1.4835
    6SAPS   H7Y  764   1.533   3.227   9.570 -0.5401 -0.2263 -0.7438
    6SAPS   C38  765   1.731   3.246   9.472 -0.0893  0.1729 -0.4250
    6SAPS   H8X  766   1.683   3.304   9.390 -1.1001  0.2834  0.2251
    6SAPS   H8Y  767   1.727   3.144   9.427  1.4981  1.1332 -2.9970
    6SAPS   C39  768   1.877   3.284   9.495  0.0100  0.1389 -0.6791
    6SAPS   H9X  769   1.912   3.219   9.578 -1.1070  0.8252  0.3755
    6SAPS   H9Y  770   1.871   3.387   9.537  0.2216 -0.4487  0.8649
    6SAPS  C310  771   1.970   3.275   9.377 -0.5876 -0.0612  0.3058
    6SAPS  H10X  772   1.965   3.174   9.332 -0.9713  0.5266 -1.0038
    6SAPS  H10Y  773   2.071   3.284   9.423  0.4292 -1.5731 -1.4984
    6SAPS  C311  774   1.949   3.383   9.266 -0.2441 -0.3990 -0.3473
    6SAPS  H11X  775   1.980   3.486   9.294  1.3606 -0.2502 -2.5040
    6SAPS  H11Y  776   1.838   3.384   9.256 -0.2154 -1.6975 -1.0504
    6SAPS  C312  777   1.994   3.343   9.124  0.3665  0.3222  0.1380
    6SAPS  H12X  778   1.918   3.365   9.046  2.5103 -2.1164 -2.8900
    6SAPS  H12Y  779   1.993   3.232   9.118 -0.6189  0.3310  0.0384
    6SAPS  C313  780   2.127   3.395   9.074 -0.2171  0.6245  0.0393
    6SAPS  H13X  781   2.130   3.504   9.092  4.7315  1.2531 -2.9611
    6SAPS  H13Y  782   2.152   3.388   8.966  2.7848  2.2271  0.5491
    6SAPS  C314  783   2.251   3.330   9.149 -0.5371 -0.1763  0.0468
    6SAPS  H14X  784   2.238   3.338   9.259 -0.2129 -0.6628  0.1240
    6SAPS  H14Y  785   2.342   3.388   9.124  1.5714 -3.0522  0.6365
    6SAPS  C315  786   2.279   3.188   9.094  0.4792  0.0410 -0.5276
    6SAPS  H15X  787   2.194   3.118   9.102  2.0766 -1.8781  0.7673
    6SAPS  H15Y  788   2.350   3.144   9.168 -0.1537  1.4489  0.9995
    6SAPS  C316  789   2.348   3.180   8.959 -0.0307  0.9293 -0.1567
    6SAPS  H16X  790   2.395   3.277   8.930  0.4685  0.4076 -1.1188
    6SAPS  H16Y  791   2.273   3.152   8.882  1.8278 -1.9623 -1.0928
    6SAPS  C317  792   2.471   3.076   8.954 -0.3208 -0.1783  0.2817
    6SAPS  H17X  793   2.451   2.992   9.023  0.9651 -0.9467 -0.2592
    6SAPS  H17Y  794   2.558   3.131   8.997 -0.4867  0.0915  0.2758
    6SAPS  C318  795   2.492   3.027   8.810  0.0638 -0.3327  0.2486
    6SAPS  H18X  796   2.598   2.994   8.803 -0.4363 -2.2739  1.2893
    6SAPS  H18Y  797   2.483   3.110   8.736  2.8778  0.5473  0.7694
    6SAPS  H18Z  798   2.427   2.940   8.788 -1.0788  0.5162  0.1985
    7SAPS     N  799   6.122   3.265  10.767 -0.3073  0.7320 -0.5047
    7SAPS   HN1  800   6.122   3.366  10.742 -0.5884  0.7421 -0.4655
    7SAPS   HN2  801   6.170   3.275  10.859  1.8691  1.2540 -1.6262
    7SAPS   HN3  802   6.181   3.215  10.698 -2.4643 -1.2984 -0.9903
    7SAPS   C12  803   5.987   3.207  10.780  0.5058  0.0628 -0.3098
    7SAPS  H12A  804   5.955   3.186  10.679  0.3246  1.2974 -0.5246
    7SAPS   C13  805   5.964   3.091  10.879  0.0190  0.2294  0.5812
    7SAPS  O13A  806   6.068   3.047  10.940  0.1429  0.3137 -0.0374
    7SAPS  O13B  807   5.851   3.060  10.921 -1.1787  0.2875  0.3587
    7SAPS   C11  808   5.891   3.320  10.836  0.2280 -0.0311 -0.6855
    7SAPS  H11A  809   5.940   3.359  10.927  0.8684 -2.9766  0.3478
    7SAPS  H11B  810   5.790   3.285  10.866 -0.3034 -0.2003 -2.5010
    7SAPS     P  811   5.747   3.494  10.710 -0.2634 -0.0562 -0.4400
    7SAPS   O13  812   5.649   3.394  10.666  0.0135  0.0480 -0.2218
    7SAPS   O14  813   5.711   3.576  10.831 -0.0333  0.2807  0.3039
    7SAPS   O12  814   5.880   3.415  10.730  0.1531  0.4593  0.2004
    7SAPS   O11  815   5.785   3.596  10.593 -0.3311  0.0590  0.8153
    7SAPS    C1  816   5.922   3.599  10.539  0.9313 -0.3207 -0.6670
    7SAPS    HA  817   5.984   3.662  10.607  1.1926 -2.1913  0.9217
    7SAPS    HB  818   5.965   3.497  10.538  1.2793 -0.1754 -0.6730
    7SAPS    C2  819   5.917   3.627  10.384 -0.5508  0.6818 -0.2276
    7SAPS    HS  820   6.016   3.592  10.348 -0.6947 -2.0370  1.6725
    7SAPS   O21  821   5.888   3.762  10.354  0.0492  0.7251  0.1898
    7SAPS   C21  822   5.972   3.850  10.384 -0.0915  0.4193  0.0563
    7SAPS   O22  823   6.087   3.837  10.427  0.1033  0.2941  0.5658
    7SAPS   C22  824   5.920   3.987  10.335  0.0454 -0.4479  0.3778
    7SAPS   H2R  825   5.862   3.977  10.242 -1.6800  5.0833  0.4737
    7SAPS   H2S  826   5.842   4.023  10.406 -2.7874 -2.3611 -1.5681
    7SAPS    C3  827   5.810   3.533  10.318 -0.2426 -0.3704 -0.3600
    7SAPS    HX  828   5.708   3.569  10.342  0.3818  1.5270 -0.3170
    7SAPS    HY  829   5.831   3.429  10.349  1.1342 -0.4231 -1.3658
    7SAPS   O31  830   5.837   3.540  10.174  0.6855 -0.3854 -0.4420
    7SAPS   C31  831   5.745   3.465  10.112  0.6611  0.3854 -0.3418
    7SAPS   O32  832   5.662   3.402  10.169  0.0874 -0.0131 -0.6204
    7SAPS   C32  833   5.772   3.459   9.958 -0.6890  0.8951  0.1310
    7SAPS   H2X  834   5.880   3.475   9.940  0.0137 -2.1395  1.0548
    7SAPS   H2Y  835   5.710   3.540   9.915 -0.8492  1.4167  1.2933
    7SAPS   C23  836   6.027   4.093  10.322 -0.0808 -0.3885  0.0022
    7SAPS   H3R  837   6.101   4.102  10.405  1.4847  0.8232 -1.4615
    7SAPS   H3S  838   5.973   4.190  10.330  0.5923 -0.1735  3.2161
    7SAPS   C24  839   6.090   4.093  10.187  0.4687 -0.0894  0.4261
    7SAPS   H4R  840   6.016   4.079  10.106 -0.5582 -2.6644  1.6959
    7SAPS   H4S  841   6.143   3.996  10.193 -1.3286 -1.0517  1.3548
    7SAPS   C25  842   6.184   4.218  10.185  0.4064 -0.6003 -0.0740
    7SAPS   H5R  843   6.232   4.243  10.280  2.0915 -1.8967 -0.5287
    7SAPS   C26  844   6.203   4.300  10.072  0.8832 -0.0601 -0.0956
    7SAPS   H6R  845   6.282   4.374  10.092  0.0292  0.5268  1.2799
    7SAPS   C27  846   6.143   4.298   9.937  0.1331  0.5947  0.4200
    7SAPS   H7R  847   6.043   4.250   9.932  0.3294  0.3341 -2.9159
    7SAPS   H7S  848   6.199   4.224   9.876  1.2166  0.4001  1.5868
    7SAPS   C28  849   6.137   4.438   9.887  0.2769 -0.1724  0.0678
    7SAPS   H8R  850   6.043   4.489   9.912  1.3824  1.9770  0.0885
    7SAPS   C29  851   6.216   4.503   9.809 -0.0798  0.5037  0.2240
    7SAPS   H9R  852   6.193   4.605   9.776  0.5900  1.1243  1.6043
    7SAPS  C210  853   6.353   4.458   9.773 -0.4278 -0.5751  0.4888
    7SAPS  H10R  854   6.403   4.400   9.853 -0.1272  0.7321  1.2900
    7SAPS  H10S  855   6.411   4.553   9.781  2.0890 -2.1027  1.7669
    7SAPS  C211  856   6.361   4.387   9.639 -0.4026  0.1718 -0.9380
    7SAPS  H11R  857   6.338   4.280   9.641 -0.7870  0.2473 -1.0705
    7SAPS  C212  858   6.382   4.453   9.528 -0.7220  0.4395  0.0038
    7SAPS  H12R  859   6.395   4.376   9.451 -0.0442 -0.8524  1.3704
    7SAPS  C213  860   6.411   4.596   9.497  0.0120 -0.5521  0.8371
    7SAPS  H13R  861   6.442   4.657   9.585 -1.2235  0.9227  0.2922
    7SAPS  H13S  862   6.314   4.637   9.463  0.1530 -0.6201  0.3565
    7SAPS  C214  863   6.525   4.628   9.399  0.1714  0.2035  1.0769
    7SAPS  H14R  864   6.617   4.665   9.449  0.7010  2.5205 -1.3731
    7SAPS  C215  865   6.533   4.592   9.269  0.2969 -0.4388 -0.1134
    7SAPS  H15R  866   6.623   4.615   9.211 -0.2545 -0.1251 -0.8663
    7SAPS  C216  867   6.420   4.525   9.189 -0.7086 -0.3280 -0.3959
    7SAPS  H16R  868   6.319   4.517   9.235 -1.2959 -0.2472 -1.6539
    7SAPS  H16S  869   6.444   4.417   9.188  0.5109 -0.0675 -0.6009
    7SAPS  C217  870   6.408   4.569   9.043  1.2793  0.1047 -0.0243
    7SAPS  H17R  871   6.423   4.679   9.034  3.5484 -0.2249 -1.0920
    7SAPS  H17S  872   6.309   4.530   9.011  1.1152  2.3157 -2.5618
    7SAPS  C218  873   6.521   4.511   8.949  0.0207  0.4948 -0.5689
    7SAPS  H18R  874   6.618   4.544   8.992 -1.5451  2.8105  1.5071
    7SAPS  H18S  875   6.518   4.575   8.859 -1.1349 -0.4228 -1.2100
    7SAPS  C219  876   6.492   4.367   8.907  0.2783  0.0837 -0.3536
    7SAPS  H19R  877   6.391   4.361   8.862 -1.0561 -1.1878  2.5585
    7SAPS  H19S  878   6.490   4.305   8.999  0.7384 -0.0074 -0.4018
    7SAPS  C220  879   6.597   4.310   8.814 -0.2384 -0.0985 -0.2453
    7SAPS  H20R  880   6.698   4.317   8.861 -0.3478 -1.2571  0.1864
    7SAPS  H20S  881   6.603   4.368   8.720 -0.2469 -0.6509 -0.5887
    7SAPS  H20T  882   6.580   4.202   8.798  1.9921 -0.2400 -2.4147
    7SAPS   C33  883   5.725   3.328   9.888 -0.1773  0.0694 -0.0511
    7SAPS   H3X  884   5.667   3.260   9.953 -0.6049  1.2735  0.8627
    7SAPS   H3Y  885   5.810   3.263   9.857 -0.0086  1.1782 -2.0974
    7SAPS   C34  886   5.641   3.360   9.765  0.3259  0.1196 -0.1988
    7SAPS   H4X  887   5.694   3.450   9.728  0.9383 -0.4948 -0.8585
    7SAPS   H4Y  888   5.544   3.389   9.809  0.2319 -0.8396  0.2729
    7SAPS   C35  889   5.627   3.247   9.670  0.2265 -0.6916  0.1885
    7SAPS   H5X  890   5.563   3.170   9.719 -2.2108  1.8815  1.3323
    7SAPS   H5Y  891   5.729   3.211   9.645  0.8568 -0.5719  2.3716
    7SAPS   C36  892   5.560   3.277   9.535  0.7463 -0.2949 -0.5283
    7SAPS   H6X  893   5.454   3.304   9.551  1.4363  2.4995 -0.1431
    7SAPS   H6Y  894   5.548   3.183   9.477 -0.5599 -1.1451  1.0156
    7SAPS   C37  895   5.616   3.397   9.459 -0.8277 -0.4593  0.8528
    7SAPS   H7X  896   5.725   3.382   9.441 -0.5145  2.7310 -0.7431
    7SAPS   H7Y  897   5.588   3.492   9.510  0.8035 -0.4528  1.8136
    7SAPS   C38  898   5.554   3.405   9.322 -0.1599 -0.1074 -0.1081
    7SAPS   H8X  899   5.578   3.501   9.271 -0.8743  0.7564  1.1489
    7SAPS   H8Y  900   5.443   3.410   9.329 -0.2010  0.2485 -0.8618
    7SAPS   C39  901   5.603   3.294   9.225 -0.0955  0.0744  0.3409
    7SAPS   H9X  902   5.526   3.268   9.150  0.3753 -1.3561  0.3209
    7SAPS   H9Y  903   5.620   3.189   9.257 -2.1011 -0.9402 -1.7135
    7SAPS  C310  904   5.738   3.323   9.160  0.2870  0.1110  0.1609
    7SAPS  H10X  905   5.813   3.298   9.237  1.9288  1.8837 -0.7812
    7SAPS  H10Y  906   5.756   3.431   9.139  1.0670  0.0362  0.4192
    7SAPS  C311  907   5.765   3.245   9.028 -0.4291  0.1074 -0.0222
    7SAPS  H11X  908   5.698   3.276   8.945  2.3534 -0.7519 -2.7488
    7SAPS  H11Y  909   5.746   3.137   9.044 -1.6335  0.2602 -0.3247
    7SAPS  C312  910   5.911   3.251   8.979 -0.0724 -0.1630 -0.4089
    7SAPS  H12X  911   5.965   3.197   9.059 -0.6484  0.2796  0.2922
    7SAPS  H12Y  912   5.946   3.356   8.997 -0.7951  0.0594 -0.2834
    7SAPS  C313  913   5.945   3.187   8.849  0.3898 -0.2093  0.3714
    7SAPS  H13X  914   5.906   3.083   8.856 -1.8645  0.5932  0.4652
    7SAPS  H13Y  915   6.055   3.186   8.837  0.3803  1.1415 -0.0575
    7SAPS  C314  916   5.886   3.267   8.726  0.4589  0.0158 -0.1887
    7SAPS  H14X  917   5.777   3.285   8.739  0.5236 -0.7395  1.7738
    7SAPS  H14Y  918   5.885   3.197   8.640  0.8927 -0.5034  0.2196
    7SAPS  C315  919   5.955   3.392   8.695  0.3358  0.0063  0.5060
    7SAPS  H15X  920   6.061   3.366   8.715 -0.1634 -3.5804 -0.7839
    7SAPS  H15Y  921   5.925   3.482   8.753 -0.6481  1.2606 -1.8216
    7SAPS  C316  922   5.926   3.433   8.546 -0.2305 -0.5463 -0.0268
    7SAPS  H16X  923   5.816   3.447   8.544 -0.0850  1.3688  1.4882
    7SAPS  H16Y  924   5.944   3.353   8.472 -0.0141 -0.2936 -0.2515
    7SAPS  C317  925   6.000   3.557   8.494 -0.1249  0.7475 -0.4350
    7SAPS  H17X  926   6.109   3.537   8.483 -0.2512  0.3165 -1.0212
    7SAPS  H17Y  927   5.993   3.636   8.571 -0.3826 -1.1413  1.5619
    7SAPS  C318  928   5.960   3.618   8.361  0.0619  0.8296  0.0506
    7SAPS  H18X  929   5.983   3.543   8.282  1.1216  0.1563  0.9725
    7SAPS  H18Y  930   6.016   3.711   8.336 -0.1926  0.5705 -1.5953
    7SAPS  H18Z  931   5.850   3.631   8.365 -0.0796 -0.2352 -0.1322
    8SAPS     N  932   3.076   3.712  10.856 -0.5819  0.3000 -0.3499
    8SAPS   HN1  933   3.102   3.811  10.838 -1.1148  0.9012  1.8409
    8SAPS   HN2  934   3.165   3.659  10.847 -1.1384 -0.8156  0.5602
    8SAPS   HN3  935   3.000   3.683  10.791  0.8957 -2.8036 -0.8790
    8SAPS   C12  936   3.027   3.710  10.994  0.2386 -0.0284 -0.3909
    8SAPS  H12A  937   2.997   3.611  11.025  0.0077 -0.1182 -0.8951
    8SAPS   C13  938   3.121   3.768  11.099  0.2505 -0.5372 -0.0330
    8SAPS  O13A  939   3.239   3.795  11.058  0.1168  0.0928 -0.0363
    8SAPS  O13B  940   3.093   3.747  11.219 -0.0433 -0.2608  0.7048
    8SAPS   C11  941   2.893   3.795  10.997 -0.2309 -0.2886 -0.7228
    8SAPS  H11A  942   2.918   3.903  10.996 -2.0009  0.1588 -1.4684
    8SAPS  H11B  943   2.845   3.771  11.094 -1.6960  0.2379 -1.2801
    8SAPS     P  944   2.709   3.647  10.881  0.2542 -0.2244  0.1969
    8SAPS   O13  945   2.780   3.530  10.934 -0.0223 -0.3229  0.0710
    8SAPS   O14  946   2.577   3.676  10.933  0.0812  0.1628 -0.4018
    8SAPS   O12  947   2.802   3.771  10.892 -0.4057  0.0900 -0.3488
    8SAPS   O11  948   2.693   3.634  10.726 -0.1925 -0.1797  0.7785
    8SAPS    C1  949   2.649   3.745  10.644  0.0402 -0.2228  0.4484
    8SAPS    HA  950   2.580   3.814  10.698 -3.0855 -0.4188 -2.8786
    8SAPS    HB  951   2.739   3.806  10.620 -1.0751  1.4117  0.2137
    8SAPS    C2  952   2.581   3.709  10.512 -0.1762  0.6209 -0.4656
    8SAPS    HS  953   2.486   3.657  10.534  0.1008  0.8309  1.3928
    8SAPS   O21  954   2.678   3.629  10.437 -0.1868  0.3854  0.2506
    8SAPS   C21  955   2.644   3.495  10.426 -1.1359  0.2752 -0.0683
    8SAPS   O22  956   2.548   3.447  10.486  0.5033  0.0260 -0.8206
    8SAPS   C22  957   2.752   3.421  10.349 -0.6317  0.0456  0.0233
    8SAPS   H2R  958   2.798   3.484  10.270  0.2929 -0.2454  0.3127
    8SAPS   H2S  959   2.830   3.393  10.423  0.0399  1.9471  0.0799
    8SAPS    C3  960   2.551   3.838  10.433  0.4752  0.1138 -0.5389
    8SAPS    HX  961   2.635   3.910  10.429  1.8236 -1.4132 -1.0343
    8SAPS    HY  962   2.479   3.893  10.497 -2.0474 -0.1501 -2.9822
    8SAPS   O31  963   2.501   3.817  10.302 -0.1313  0.0803  0.6735
    8SAPS   C31  964   2.376   3.769  10.293  0.5983  0.3504  0.2930
    8SAPS   O32  965   2.306   3.737  10.387  0.2747 -0.2730 -0.5324
    8SAPS   C32  966   2.314   3.770  10.149  0.6260  0.6487 -0.0789
    8SAPS   H2X  967   2.243   3.856  10.139  2.0726  1.6851 -2.3457
    8SAPS   H2Y  968   2.263   3.671  10.142  0.8009  0.6218 -1.2194
    8SAPS   C23  969   2.701   3.294  10.282  0.1369  0.8732  0.8584
    8SAPS   H3R  970   2.629   3.247  10.352 -0.1158  1.2435  0.8517
    8SAPS   H3S  971   2.788   3.232  10.250  2.2496  4.2836 -0.6407
    8SAPS   C24  972   2.628   3.337  10.152  0.5712  0.2832 -0.1340
    8SAPS   H4R  973   2.703   3.382  10.084  1.6833 -0.2616  0.7166
    8SAPS   H4S  974   2.552   3.418  10.166 -0.0385 -0.0294 -1.4670
    8SAPS   C25  975   2.569   3.211  10.082 -0.6324 -0.6754  0.2056
    8SAPS   H5R  976   2.526   3.146  10.160 -0.2074 -1.2121  0.0023
    8SAPS   C26  977   2.571   3.182   9.953 -0.3338  0.3958 -0.7456
    8SAPS   H6R  978   2.536   3.080   9.932  1.6327 -0.7522  1.1638
    8SAPS   C27  979   2.629   3.260   9.841 -0.8053  0.2355  0.6872
    8SAPS   H7R  980   2.692   3.195   9.777 -1.7909 -0.5228  0.4572
    8SAPS   H7S  981   2.688   3.348   9.874  0.1052 -0.0827 -0.0651
    8SAPS   C28  982   2.525   3.319   9.752  0.0505  0.1395 -0.1171
    8SAPS   H8R  983   2.431   3.339   9.805  0.3324  0.6218  0.2084
    8SAPS   C29  984   2.533   3.347   9.622 -0.0736 -0.2684  0.2008
    8SAPS   H9R  985   2.445   3.391   9.574  0.0344 -0.4793 -0.1917
    8SAPS  C210  986   2.651   3.333   9.533  0.1452  0.4261 -0.4514
    8SAPS  H10R  987   2.734   3.303   9.601 -0.3805 -0.5529 -0.2188
    8SAPS  H10S  988   2.675   3.433   9.491  1.6279  0.0141 -0.6514
    8SAPS  C211  989   2.637   3.226   9.422 -0.1713 -0.6165  0.1695
    8SAPS  H11R  990   2.618   3.120   9.447 -1.3113 -0.6802 -0.8504
    8SAPS  C212  991   2.652   3.252   9.292 -0.7484 -0.1458 -0.7048
    8SAPS  H12R  992   2.640   3.169   9.221  0.3706  0.2687 -1.4199
    8SAPS  C213  993   2.674   3.378   9.215  0.1154 -0.3283  0.4394
    8SAPS  H13R  994   2.677   3.462   9.288  0.5311 -0.9154  1.1073
    8SAPS  H13S  995   2.587   3.392   9.147 -2.3329 -1.6939  3.0671
    8SAPS  C214  996   2.804   3.365   9.142 -0.2896 -0.0370  0.2556
    8SAPS  H14R  997   2.894   3.323   9.189 -1.3480 -0.0912  2.3288
    8SAPS  C215  998   2.822   3.389   9.011  0.4251 -0.6621  0.2413
    8SAPS  H15R  999   2.921   3.381   8.963  0.2756 -1.9723  0.1106
    8SAPS  C216 1000   2.713   3.437   8.912  0.2584  0.0738 -0.0005
    8SAPS  H16R 1001   2.625   3.371   8.925  0.0371  0.1723 -0.9157
    8SAPS  H16S 1002   2.744   3.408   8.809 -1.6505  0.1466 -0.6252
    8SAPS  C217 1003   2.672   3.591   8.920 -0.2790  0.0943  0.1915
    8SAPS  H17R 1004   2.755   3.651   8.876  0.8825 -1.1890  0.5652
    8SAPS  H17S 1005   2.660   3.627   9.024  1.0008  0.4932  0.2095
    8SAPS  C218 1006   2.543   3.617   8.849  0.2933 -0.2560  0.4802
    8SAPS  H18R 1007   2.450   3.573   8.892 -0.8688 -0.5139 -2.1019
    8SAPS  H18S 1008   2.535   3.574   8.747 -1.8427  1.6134 -0.2204
    8SAPS  C219 1009   2.518   3.771   8.837 -0.3860 -0.6717  0.2060
    8SAPS  H19R 1010   2.587   3.808   8.759  1.1362  0.3466  1.9610
    8SAPS  H19S 1011   2.534   3.815   8.938 -0.5818 -1.3317  0.5305
    8SAPS  C220 1012   2.380   3.820   8.803  0.5044  0.5362  0.4965
    8SAPS  H20R 1013   2.361   3.783   8.701  1.8815  1.4163 -0.1162
    8SAPS  H20S 1014   2.377   3.931   8.801  4.3076  0.8296  2.3791
    8SAPS  H20T 1015   2.315   3.785   8.886  0.5795  1.4315  0.9483
    8SAPS   C33 1016   2.420   3.773  10.041  0.4129 -0.1251 -0.2070
    8SAPS   H3X 1017   2.505   3.703  10.054 -0.8637 -1.9321 -1.1415
    8SAPS   H3Y 1018   2.467   3.874  10.047 -0.2101  0.1932 -0.5349
    8SAPS   C34 1019   2.360   3.771   9.896  0.0733 -0.0631 -0.0778
    8SAPS   H4X 1020   2.307   3.869   9.893 -2.3055 -1.0235  3.4532
    8SAPS   H4Y 1021   2.297   3.681   9.884  0.9646 -0.8041  0.6685
    8SAPS   C35 1022   2.465   3.766   9.784  0.1846  0.3973  0.1438
    8SAPS   H5X 1023   2.543   3.691   9.809 -0.2319 -0.5283 -1.1772
    8SAPS   H5Y 1024   2.507   3.868   9.771 -1.3606  1.5064  2.9480
    8SAPS   C36 1025   2.397   3.727   9.654 -0.5505  0.4103  0.3583
    8SAPS   H6X 1026   2.333   3.816   9.633 -1.4138 -0.3299 -0.2344
    8SAPS   H6Y 1027   2.345   3.629   9.661 -0.2976 -0.0268 -2.6805
    8SAPS   C37 1028   2.492   3.722   9.532 -0.2273  0.2515  0.2127
    8SAPS   H7X 1029   2.555   3.634   9.555 -2.9550 -1.9939 -0.2666
    8SAPS   H7Y 1030   2.549   3.817   9.526 -2.8237  1.9748  0.8590
    8SAPS   C38 1031   2.417   3.706   9.392 -0.3448 -0.6870 -0.0065
    8SAPS   H8X 1032   2.340   3.785   9.381 -0.2332 -0.6364 -0.4616
    8SAPS   H8Y 1033   2.382   3.601   9.389 -0.1966 -0.8615  2.3444
    8SAPS   C39 1034   2.513   3.721   9.274  0.4817 -0.4240 -0.3293
    8SAPS   H9X 1035   2.448   3.685   9.191 -0.9369  0.1554  0.4774
    8SAPS   H9Y 1036   2.603   3.659   9.291  0.2896 -0.5428  0.2810
    8SAPS  C310 1037   2.549   3.866   9.242 -0.1732 -0.5309  0.0436
    8SAPS  H10X 1038   2.623   3.872   9.159  0.9147  1.8227  1.0943
    8SAPS  H10Y 1039   2.603   3.912   9.327 -2.0499  1.3481  0.2802
    8SAPS  C311 1040   2.420   3.940   9.200 -0.3851  0.4478 -0.2898
    8SAPS  H11X 1041   2.370   3.975   9.292  2.3554  1.1504  1.0586
    8SAPS  H11Y 1042   2.353   3.876   9.138  1.0896 -0.3304 -1.1600
    8SAPS  C312 1043   2.450   4.069   9.123 -0.5643  0.3917 -0.6566
    8SAPS  H12X 1044   2.510   4.054   9.031  1.6373  0.9118  0.6340
    8SAPS  H12Y 1045   2.513   4.134   9.188  0.1491 -0.3905 -0.5434
    8SAPS  C313 1046   2.321   4.146   9.089 -0.2084 -0.4267  0.1776
    8SAPS  H13X 1047   2.299   4.194   9.187  0.4834 -0.7060  0.4730
    8SAPS  H13Y 1048   2.233   4.083   9.062 -2.1248  2.3803 -0.6054
    8SAPS  C314 1049   2.334   4.265   8.986 -0.2122  0.4568 -0.2749
    8SAPS  H14X 1050   2.324   4.226   8.882 -0.6756 -2.7886  0.8633
    8SAPS  H14Y 1051   2.439   4.299   9.000 -0.0940 -0.7431  2.3291
    8SAPS  C315 1052   2.236   4.376   9.009  0.4725  0.2555  0.3187
    8SAPS  H15X 1053   2.267   4.415   9.108 -0.5313  0.2174  0.6601
    8SAPS  H15Y 1054   2.135   4.334   9.026  1.0069 -0.5528  1.6605
    8SAPS  C316 1055   2.235   4.478   8.896  1.1270  0.1895 -0.0481
    8SAPS  H16X 1056   2.157   4.553   8.919 -0.9064 -1.7589 -0.2199
    8SAPS  H16Y 1057   2.212   4.428   8.799  0.5940  0.7857 -0.2325
    8SAPS  C317 1058   2.370   4.540   8.897  0.2325 -0.0170  0.2763
    8SAPS  H17X 1059   2.438   4.468   8.846 -0.4465 -1.2670  1.0811
    8SAPS  H17Y 1060   2.417   4.545   8.998  1.4759 -1.5128 -0.1889
    8SAPS  C318 1061   2.371   4.676   8.821  0.2508 -0.3129  0.0453
    8SAPS  H18X 1062   2.475   4.714   8.821  0.0630  0.2181  0.5169
    8SAPS  H18Y 1063   2.321   4.762   8.871 -1.3234 -0.7046 -0.7982
    8SAPS  H18Z 1064   2.332   4.657   8.719 -0.2780 -1.1944  0.4039
    9SAPS     N 1065   0.788   1.237   5.986 -0.5380 -0.5904 -0.1264
    9SAPS   HN1 1066   0.734   1.313   6.032  1.3012 -0.3047  1.6908
    9SAPS   HN2 1067   0.724   1.158   5.961 -0.1952 -1.5123  1.7666
    9SAPS   HN3 1068   0.856   1.203   6.057  0.2117 -0.0826 -0.5853
    9SAPS   C12 1069   0.859   1.289   5.866 -0.3201  0.2347  0.3501
    9SAPS  H12A 1070   0.933   1.216   5.838 -0.0675  0.4209  0.5328
    9SAPS   C13 1071   0.766   1.305   5.741  0.1997 -0.0325  0.5195
    9SAPS  O13A 1072   0.650   1.256   5.746 -0.4466  0.3642  0.0457
    9SAPS  O13B 1073   0.826   1.335   5.629  0.3820  0.1412  0.3454
    9SAPS   C11 1074   0.934   1.418   5.899  0.2192  0.4616 -0.5291
    9SAPS  H11A 1075   0.859   1.494   5.931  0.9743  0.1083  2.3887
    9SAPS  H11B 1076   1.000   1.452   5.817  1.7346  0.1395  0.5302
    9SAPS     P 1077   1.115   1.498   6.078  0.1282  0.1991 -0.3190
    9SAPS   O13 1078   1.247   1.428   6.092 -0.2377  0.0854 -0.1763
    9SAPS   O14 1079   1.107   1.630   6.006  0.8198  0.4624 -0.2674
    9SAPS   O12 1080   1.018   1.391   6.009 -0.2102  0.4849  0.4177
    9SAPS   O11 1081   1.044   1.518   6.214  0.4734  0.4043  0.2952
    9SAPS    C1 1082   0.904   1.499   6.236  1.1301 -0.2950 -0.7287
    9SAPS    HA 1083   0.843   1.583   6.199 -1.5095 -1.0273  1.5624
    9SAPS    HB 1084   0.864   1.409   6.184 -1.3849 -0.2020  0.8671
    9SAPS    C2 1085   0.888   1.483   6.396  0.7603  0.7938 -0.2185
    9SAPS    HS 1086   0.787   1.442   6.416  1.4714 -2.5835 -2.6934
    9SAPS   O21 1087   0.901   1.607   6.453 -0.3155 -0.4542 -0.5913
    9SAPS   C21 1088   0.796   1.682   6.441  0.5266 -0.7729  0.1263
    9SAPS   O22 1089   0.690   1.655   6.383 -0.5245 -0.2471  0.0070
    9SAPS   C22 1090   0.819   1.805   6.528 -0.0588  0.0445  0.2363
    9SAPS   H2R 1091   0.836   1.776   6.633  2.7119 -0.7229 -0.3537
    9SAPS   H2S 1092   0.914   1.856   6.501  0.2190 -0.4607  0.2550
    9SAPS    C3 1093   0.987   1.395   6.468  0.1873 -0.3269 -0.0904
    9SAPS    HX 1094   1.090   1.419   6.434  0.1685 -0.4756 -0.2576
    9SAPS    HY 1095   0.961   1.296   6.425 -1.7495  0.0435  0.1461
    9SAPS   O31 1096   0.985   1.391   6.613 -0.3785 -0.2682  0.1069
    9SAPS   C31 1097   0.876   1.337   6.670 -0.2280  0.6026 -0.6143
    9SAPS   O32 1098   0.777   1.301   6.618 -0.5693  0.2101  0.3834
    9SAPS   C32 1099   0.885   1.345   6.822 -0.0893  0.7473 -0.3175
    9SAPS   H2X 1100   0.787   1.298   6.847  0.1931  0.3901  0.1412
    9SAPS   H2Y 1101   0.883   1.451   6.855 -0.4009  0.6658 -0.0633
    9SAPS   C23 1102   0.701   1.913   6.523  0.1043 -0.0891  0.4503
    9SAPS   H3R 1103   0.616   1.867   6.578 -0.5598  0.0792 -0.4002
    9SAPS   H3S 1104   0.676   1.924   6.415  1.9531 -1.5418 -0.1797
    9SAPS   C24 1105   0.741   2.047   6.591  0.0954 -0.2363  0.1975
    9SAPS   H4R 1106   0.827   2.100   6.546 -0.6147  0.4025 -0.4319
    9SAPS   H4S 1107   0.763   2.016   6.696 -2.0355 -2.1568  0.1656
    9SAPS   C25 1108   0.617   2.137   6.601 -0.0137 -0.2245 -0.3387
    9SAPS   H5R 1109   0.616   2.222   6.531  0.5403 -0.1107 -0.2168
    9SAPS   C26 1110   0.527   2.139   6.700 -0.3390 -0.8306 -0.2448
    9SAPS   H6R 1111   0.448   2.215   6.705 -0.3505 -0.7241 -1.7057
    9SAPS   C27 1112   0.520   2.053   6.820 -0.4768 -0.5160 -0.1059
    9SAPS   H7R 1113   0.507   2.114   6.912  0.0426 -2.1989  1.1360
    9SAPS   H7S 1114   0.614   1.995   6.839 -1.1364 -1.1856  1.2771
    9SAPS   C28 1115   0.410   1.954   6.826 -0.2615 -0.4125 -0.0886
    9SAPS   H8R 1116   0.366   1.933   6.727  0.4494  2.5419 -1.1423
    9SAPS   C29 1117   0.365   1.895   6.935 -0.0962 -0.0674  0.6805
    9SAPS   H9R 1118   0.289   1.816   6.925  0.5090 -0.4248 -1.9943
    9SAPS  C210 1119   0.433   1.916   7.069 -0.1264 -0.0130 -0.5574
    9SAPS  H10R 1120   0.367   1.871   7.147  0.1045  1.2544  0.4009
    9SAPS  H10S 1121   0.444   2.023   7.095 -0.3537 -0.1479  0.1139
    9SAPS  C211 1122   0.554   1.831   7.072 -0.0076  0.7264 -0.0817
    9SAPS  H11R 1123   0.545   1.728   7.034 -0.7952  0.5528  0.5717
    9SAPS  C212 1124   0.676   1.867   7.116 -0.3484 -0.0296  0.0075
    9SAPS  H12R 1125   0.760   1.796   7.121 -0.5802 -0.4417 -1.3487
    9SAPS  C213 1126   0.702   2.005   7.181  0.1998  0.6822  0.9253
    9SAPS  H13R 1127   0.700   1.989   7.291  3.0088 -0.0661  0.9589
    9SAPS  H13S 1128   0.624   2.082   7.162 -1.2587 -0.7250  0.9685
    9SAPS  C214 1129   0.832   2.067   7.135 -0.0889  0.2970 -0.1093
    9SAPS  H14R 1130   0.820   2.128   7.044  0.2242 -0.1102 -0.4302
    9SAPS  C215 1131   0.963   2.052   7.180 -0.6434 -0.8013  0.0304
    9SAPS  H15R 1132   1.044   2.098   7.122 -0.6563 -0.3016  0.4048
    9SAPS  C216 1133   1.009   1.967   7.298  0.1265  0.2332  0.7620
    9SAPS  H16R 1134   1.108   1.921   7.281  0.1301  0.8487 -1.1377
    9SAPS  H16S 1135   0.943   1.878   7.301 -0.5180  0.4336 -2.7751
    9SAPS  C217 1136   1.004   2.028   7.439 -0.0596  0.8080  0.1463
    9SAPS  H17R 1137   1.020   1.944   7.511 -2.2983  0.8900  0.7957
    9SAPS  H17S 1138   0.902   2.068   7.452 -0.0329  0.5977  1.0434
    9SAPS  C218 1139   1.116   2.136   7.461  0.0176  0.1033 -0.0011
    9SAPS  H18R 1140   1.095   2.214   7.385 -1.0828 -0.3307 -0.1509
    9SAPS  H18S 1141   1.219   2.102   7.437  0.3121  1.2184 -0.3766
    9SAPS  C219 1142   1.123   2.186   7.604  1.8077 -0.8135 -0.9685
    9SAPS  H19R 1143   1.164   2.108   7.672  0.7371  0.8300  1.7106
    9SAPS  H19S 1144   1.021   2.207   7.642  1.7973 -2.2075 -0.1474
    9SAPS  C220 1145   1.205   2.315   7.611  0.1035  0.4807 -0.6588
    9SAPS  H20R 1146   1.222   2.353   7.714  2.2221 -1.3624 -0.2641
    9SAPS  H20S 1147   1.158   2.399   7.555 -1.1967  0.9541  1.0620
    9SAPS  H20T 1148   1.298   2.283   7.561 -0.9961 -1.1745 -1.7518
    9SAPS   C33 1149   1.012   1.270   6.859 -0.9298  0.3926 -0.3259
    9SAPS   H3X 1150   1.097   1.341   6.856  0.5404 -1.2748  0.4161
    9SAPS   H3Y 1151   1.042   1.184   6.796 -1.1892  0.5404 -0.6609
    9SAPS   C34 1152   1.009   1.225   7.009  1.0430  0.1112 -0.6270
    9SAPS   H4X 1153   1.090   1.160   7.049 -1.0336 -0.6649  2.6961
    9SAPS   H4Y 1154   0.916   1.164   7.016  0.6962  0.6388 -0.5823
    9SAPS   C35 1155   1.001   1.351   7.100  0.4631  0.4847 -0.2435
    9SAPS   H5X 1156   0.900   1.397   7.090  1.9757  4.2419  0.0406
    9SAPS   H5Y 1157   1.077   1.423   7.063  0.7006 -0.9936 -2.8236
    9SAPS   C36 1158   1.033   1.327   7.246  0.1010 -0.2762  0.3005
    9SAPS   H6X 1159   1.032   1.417   7.312 -1.0559 -1.1197  1.4914
    9SAPS   H6Y 1160   1.130   1.274   7.259  1.6439  2.1570 -0.6149
    9SAPS   C37 1161   0.939   1.223   7.307 -0.7907  0.0198  0.7941
    9SAPS   H7X 1162   0.951   1.125   7.257 -3.2672 -0.5413  1.1764
    9SAPS   H7Y 1163   0.836   1.261   7.287 -1.4023 -1.2820  1.3305
    9SAPS   C38 1164   0.967   1.196   7.456 -0.7670  0.1620  0.0577
    9SAPS   H8X 1165   1.074   1.177   7.477 -0.7160 -0.5868 -0.8079
    9SAPS   H8Y 1166   0.919   1.098   7.479  4.2151 -2.8560 -0.9407
    9SAPS   C39 1167   0.923   1.311   7.556 -0.6794  0.1074  0.1953
    9SAPS   H9X 1168   0.818   1.344   7.545 -0.8092 -0.0029  1.0967
    9SAPS   H9Y 1169   0.983   1.403   7.539 -1.0000  0.6399  1.8214
    9SAPS  C310 1170   0.952   1.285   7.705 -0.6008  0.8823  0.3537
    9SAPS  H10X 1171   1.047   1.228   7.715 -0.3158  1.4311  0.8484
    9SAPS  H10Y 1172   0.880   1.217   7.756  1.9004 -0.1630  2.7559
    9SAPS  C311 1173   0.964   1.409   7.795 -0.8150  0.4857 -0.1086
    9SAPS  H11X 1174   0.880   1.481   7.787  1.4884  3.4070  0.2018
    9SAPS  H11Y 1175   1.051   1.472   7.767 -1.3797  0.9383 -0.8781
    9SAPS  C312 1176   0.994   1.375   7.947  0.1467 -0.9935  0.1631
    9SAPS  H12X 1177   0.917   1.312   7.996  0.2945 -1.1714  0.1702
    9SAPS  H12Y 1178   0.993   1.475   7.994 -1.7928 -1.1886  0.6142
    9SAPS  C313 1179   1.139   1.327   7.964 -0.4600 -0.1552  0.1032
    9SAPS  H13X 1180   1.206   1.410   7.933  1.2524 -0.3293  2.9843
    9SAPS  H13Y 1181   1.142   1.232   7.907 -0.6649 -1.6732  2.4737
    9SAPS  C314 1182   1.178   1.298   8.110  0.3320  0.2048 -0.1239
    9SAPS  H14X 1183   1.279   1.250   8.115  0.9962  1.6318  0.8212
    9SAPS  H14Y 1184   1.119   1.218   8.160  1.4514 -0.7586 -0.2897
    9SAPS  C315 1185   1.187   1.424   8.204 -0.9862 -0.8641 -0.3294
    9SAPS  H15X 1186   1.095   1.485   8.189 -1.5149 -1.2385  1.2174
    9SAPS  H15Y 1187   1.267   1.491   8.166 -0.9081 -0.0756  1.1701
    9SAPS  C316 1188   1.203   1.395   8.352 -0.1424  0.2316  0.2284
    9SAPS  H16X 1189   1.193   1.490   8.408  4.1726  2.5946 -2.4694
    9SAPS  H16Y 1190   1.305   1.353   8.364  0.2793  0.5712 -1.8330
    9SAPS  C317 1191   1.096   1.294   8.408 -0.0629  0.2237 -0.2740
    9SAPS  H17X 1192   1.104   1.290   8.519  0.2510 -2.0041 -0.3344
    9SAPS  H17Y 1193   1.125   1.194   8.369 -0.5107  0.3078 -0.8347
    9SAPS  C318 1194   0.955   1.311   8.370  0.1572 -0.2901  0.3938
    9SAPS  H18X 1195   0.930   1.280   8.266  2.2105  2.4550 -1.0444
    9SAPS  H18Y 1196   0.920   1.416   8.380 -0.4564 -0.5773  1.3634
    9SAPS  H18Z 1197   0.888   1.243   8.426  0.3763 -1.8424 -1.1436
   10SAPS     N 1198   6.571   6.194   5.968  0.6955 -0.0397  0.8245
   10SAPS   HN1 1199   6.558   6.282   6.022 -1.4655 -0.2327  0.6877
   10SAPS   HN2 1200   6.632   6.127   6.019  0.7963 -1.0413 -0.5345
   10SAPS   HN3 1201   6.620   6.209   5.877  0.1388 -0.0162  0.5256
   10SAPS   C12 1202   6.440   6.122   5.947  1.4196 -0.2148  0.4018
   10SAPS  H12A 1203   6.367   6.191   5.906  1.9087  0.7623  1.1348
   10SAPS   C13 1204   6.448   5.976   5.872 -0.6531 -0.8903  0.7556
   10SAPS  O13A 1205   6.566   5.936   5.860  0.2105  0.2602  0.9556
   10SAPS  O13B 1206   6.350   5.903   5.892 -0.4332 -0.5241 -0.2154
   10SAPS   C11 1207   6.389   6.096   6.096 -0.1702 -0.4070 -0.8632
   10SAPS  H11A 1208   6.473   6.037   6.138  2.1585  2.2383 -1.4646
   10SAPS  H11B 1209   6.301   6.029   6.089 -0.1149 -0.7290  1.1385
   10SAPS     P 1210   6.239   6.260   6.228  0.7948  0.2077  0.1381
   10SAPS   O13 1211   6.192   6.386   6.167  0.2000  0.0507 -0.5758
   10SAPS   O14 1212   6.148   6.144   6.234 -0.3765 -0.1980  0.1863
   10SAPS   O12 1213   6.377   6.226   6.157  0.0100  0.1462 -0.4139
   10SAPS   O11 1214   6.286   6.309   6.374 -0.0166  0.0065 -0.7149
   10SAPS    C1 1215   6.384   6.221   6.436 -0.9020 -0.0061 -0.6459
   10SAPS    HA 1216   6.339   6.121   6.455 -1.0135  0.0414 -0.6557
   10SAPS    HB 1217   6.474   6.213   6.371 -0.3138  1.2468 -0.0347
   10SAPS    C2 1218   6.433   6.271   6.576 -0.3197  0.8618  0.3141
   10SAPS    HS 1219   6.488   6.183   6.614  1.5324  1.2974 -1.2046
   10SAPS   O21 1220   6.335   6.299   6.662  0.4664 -0.4799 -0.4969
   10SAPS   C21 1221   6.256   6.201   6.702  0.0496  0.3408 -0.3671
   10SAPS   O22 1222   6.266   6.083   6.673  0.3975  0.0700  0.2649
   10SAPS   C22 1223   6.153   6.259   6.803 -0.1360  0.2082  0.6504
   10SAPS   H2R 1224   6.134   6.363   6.769 -0.2459 -0.4737 -1.5406
   10SAPS   H2S 1225   6.056   6.204   6.810  0.3341 -0.7938 -0.4101
   10SAPS    C3 1226   6.528   6.394   6.569 -0.4534 -0.0319  0.2510
   10SAPS    HX 1227   6.483   6.478   6.513 -0.5824 -0.2497  0.0237
   10SAPS    HY 1228   6.621   6.359   6.520 -0.4851  0.0141  0.1580
   10SAPS   O31 1229   6.554   6.435   6.704  0.1896 -0.0473 -0.8305
   10SAPS   C31 1230   6.472   6.532   6.750  0.2549 -0.1908 -0.1117
   10SAPS   O32 1231   6.387   6.590   6.691  0.1703  0.3283  0.0328
   10SAPS   C32 1232   6.503   6.546   6.903 -0.2157 -0.5972  0.1643
   10SAPS   H2X 1233   6.591   6.613   6.916  0.0633 -1.1027  1.0030
   10SAPS   H2Y 1234   6.543   6.449   6.941  0.6352  1.0092  3.7802
   10SAPS   C23 1235   6.200   6.264   6.949 -0.3579 -0.0213 -0.1975
   10SAPS   H3R 1236   6.285   6.335   6.952 -0.3051 -0.0869 -0.1234
   10SAPS   H3S 1237   6.233   6.169   6.997 -2.0252 -0.6059 -0.1503
   10SAPS   C24 1238   6.100   6.318   7.048 -0.0090  0.8871  0.2307
   10SAPS   H4R 1239   6.006   6.262   7.028  0.4029  0.3296 -0.1888
   10SAPS   H4S 1240   6.063   6.422   7.035  0.5396  1.2627  1.5409
   10SAPS   C25 1241   6.139   6.314   7.196 -0.8288  0.0425 -0.0406
   10SAPS   H5R 1242   6.245   6.337   7.217 -0.8355 -1.4602  1.8224
   10SAPS   C26 1243   6.070   6.284   7.306  0.1557  0.4098 -0.8015
   10SAPS   H6R 1244   6.129   6.289   7.399  0.3949  0.3020 -0.9473
   10SAPS   C27 1245   5.924   6.244   7.316  0.6266  0.2720  0.3740
   10SAPS   H7R 1246   5.923   6.139   7.351 -0.0537  0.2478  0.3037
   10SAPS   H7S 1247   5.877   6.254   7.216 -1.0828  3.0250  1.3356
   10SAPS   C28 1248   5.850   6.327   7.413 -0.4833 -0.3267 -0.0263
   10SAPS   H8R 1249   5.810   6.423   7.376  1.6393  0.0427 -1.5471
   10SAPS   C29 1250   5.836   6.305   7.544 -0.2443  0.0367  0.1748
   10SAPS   H9R 1251   5.769   6.368   7.605 -1.6551  0.4438 -1.6941
   10SAPS  C210 1252   5.905   6.186   7.610 -0.6153  0.0507 -0.5478
   10SAPS  H10R 1253   6.014   6.209   7.608 -0.0404 -2.0341  2.0194
   10SAPS  H10S 1254   5.894   6.094   7.550 -1.8926 -0.4277  0.3801
   10SAPS  C211 1255   5.865   6.141   7.747  0.4191  0.1446 -0.2226
   10SAPS  H11R 1256   5.760   6.152   7.781  0.5459 -0.1544  0.2742
   10SAPS  C212 1257   5.950   6.081   7.833  0.3011 -0.2913  0.7404
   10SAPS  H12R 1258   5.899   6.043   7.923 -0.3064  1.0592  0.9940
   10SAPS  C213 1259   6.103   6.062   7.837  1.4943 -0.5659  0.2732
   10SAPS  H13R 1260   6.135   6.046   7.942  0.8001 -1.7414  0.3216
   10SAPS  H13S 1261   6.154   6.149   7.792  0.5306 -0.1521 -0.0452
   10SAPS  C214 1262   6.142   5.934   7.764  0.4347 -0.3144 -0.5780
   10SAPS  H14R 1263   6.061   5.861   7.748 -1.2630  1.7606 -2.1010
   10SAPS  C215 1264   6.269   5.898   7.730  0.2216 -1.4503  0.3998
   10SAPS  H15R 1265   6.289   5.803   7.679  2.9475 -0.3488 -0.7971
   10SAPS  C216 1266   6.399   5.977   7.751  0.4288 -0.1114  0.5442
   10SAPS  H16R 1267   6.488   5.920   7.785  1.5134 -0.2156 -2.1576
   10SAPS  H16S 1268   6.384   6.063   7.819  0.6437  1.5709 -1.4541
   10SAPS  C217 1269   6.443   6.024   7.613 -0.3523 -0.3542  0.1679
   10SAPS  H17R 1270   6.461   5.940   7.543  3.6917  1.5539 -1.3831
   10SAPS  H17S 1271   6.543   6.067   7.634 -0.2340 -0.1938 -0.6827
   10SAPS  C218 1272   6.362   6.136   7.541 -0.1190  0.0520 -0.2302
   10SAPS  H18R 1273   6.371   6.218   7.616  0.6898 -0.7663  0.5980
   10SAPS  H18S 1274   6.254   6.112   7.533 -0.1614 -0.0276  0.5168
   10SAPS  C219 1275   6.423   6.181   7.404 -0.4073  0.5282 -0.5215
   10SAPS  H19R 1276   6.380   6.282   7.385 -2.7891  0.0215  1.6637
   10SAPS  H19S 1277   6.388   6.110   7.326 -0.5541  0.2114 -0.1700
   10SAPS  C220 1278   6.571   6.184   7.398 -0.2525 -0.0032  0.5099
   10SAPS  H20R 1279   6.604   6.246   7.484  1.4238  1.0731 -0.8392
   10SAPS  H20S 1280   6.606   6.235   7.306  0.1112  1.9445  1.6852
   10SAPS  H20T 1281   6.624   6.086   7.394 -1.2181 -0.4915 -1.1739
   10SAPS   C33 1282   6.389   6.600   6.991 -0.2855 -0.0871  0.5454
   10SAPS   H3X 1283   6.298   6.541   6.965 -0.9824  0.6467  1.2539
   10SAPS   H3Y 1284   6.392   6.706   6.958 -0.8714 -0.2392 -0.0432
   10SAPS   C34 1285   6.404   6.568   7.137  0.0131  0.1343 -0.1061
   10SAPS   H4X 1286   6.451   6.469   7.158  2.8237  1.4848  0.4700
   10SAPS   H4Y 1287   6.302   6.559   7.181  0.5056 -2.5518  0.6946
   10SAPS   C35 1288   6.492   6.660   7.222 -0.3725 -0.4154 -0.0672
   10SAPS   H5X 1289   6.448   6.760   7.203  3.9080  1.6779 -0.1766
   10SAPS   H5Y 1290   6.596   6.660   7.184 -0.3739 -1.1451 -0.0861
   10SAPS   C36 1291   6.495   6.637   7.379 -0.4429  0.5531  1.2085
   10SAPS   H6X 1292   6.499   6.527   7.395  2.0783  0.0272 -1.8748
   10SAPS   H6Y 1293   6.392   6.665   7.408 -1.1094 -0.7197  0.1699
   10SAPS   C37 1294   6.610   6.712   7.453  0.8991 -0.4717  0.0991
   10SAPS   H7X 1295   6.598   6.818   7.421 -2.0911 -0.4723  0.9500
   10SAPS   H7Y 1296   6.705   6.666   7.417  2.1101  1.2812  0.8970
   10SAPS   C38 1297   6.614   6.690   7.608  0.6649  0.0369  0.1323
   10SAPS   H8X 1298   6.528   6.752   7.639  0.4777 -1.6375  3.3587
   10SAPS   H8Y 1299   6.713   6.731   7.637  0.7090 -0.5605  0.8346
   10SAPS   C39 1300   6.594   6.544   7.640 -0.2150  0.4026  0.1498
   10SAPS   H9X 1301   6.674   6.486   7.589 -1.4518  0.3961 -1.8820
   10SAPS   H9Y 1302   6.496   6.504   7.607 -0.2769  0.4665  0.2589
   10SAPS  C310 1303   6.611   6.520   7.790  0.2533  0.4733 -0.0764
   10SAPS  H10X 1304   6.542   6.579   7.854 -1.1826 -2.5787  1.3666
   10SAPS  H10Y 1305   6.708   6.572   7.810  1.0410 -1.1987  0.6944
   10SAPS  C311 1306   6.595   6.371   7.829  0.1614  0.2095  0.3825
   10SAPS  H11X 1307   6.659   6.306   7.766 -2.0632 -1.1242 -0.5993
   10SAPS  H11Y 1308   6.494   6.334   7.802 -0.0255 -1.0314  2.5414
   10SAPS  C312 1309   6.615   6.355   7.980  0.0794 -0.4132  0.1970
   10SAPS  H12X 1310   6.569   6.437   8.040  1.4562 -0.3886  1.2732
   10SAPS  H12Y 1311   6.723   6.381   7.976 -0.1051  0.3388 -0.1233
   10SAPS  C313 1312   6.589   6.212   8.034 -0.4454 -0.0574  0.2485
   10SAPS  H13X 1313   6.641   6.201   8.131 -0.2878  0.6029  0.2434
   10SAPS  H13Y 1314   6.630   6.134   7.967 -0.2825 -0.5724  0.9425
   10SAPS  C314 1315   6.437   6.180   8.066 -0.5275 -0.2525  0.4753
   10SAPS  H14X 1316   6.364   6.197   7.983 -0.3033 -1.5619 -0.0133
   10SAPS  H14Y 1317   6.406   6.251   8.145  0.7266  0.0948  0.6781
   10SAPS  C315 1318   6.428   6.044   8.145 -0.8570 -1.1345  0.1750
   10SAPS  H15X 1319   6.501   6.049   8.229 -0.3656 -0.3565 -0.2774
   10SAPS  H15Y 1320   6.450   5.968   8.067  1.5621 -0.0884 -0.2725
   10SAPS  C316 1321   6.289   6.010   8.200  0.0490 -0.5209  0.7291
   10SAPS  H16X 1322   6.218   6.002   8.115  0.2777  3.4100 -0.0223
   10SAPS  H16Y 1323   6.256   6.088   8.272  0.0877  0.8201 -0.6723
   10SAPS  C317 1324   6.275   5.880   8.267 -0.4791 -0.4408  0.2700
   10SAPS  H17X 1325   6.325   5.877   8.366  0.7976  2.0145 -0.2245
   10SAPS  H17Y 1326   6.320   5.801   8.204  0.6785  0.9014 -0.6645
   10SAPS  C318 1327   6.136   5.840   8.288 -0.5682  0.0667  0.2348
   10SAPS  H18X 1328   6.090   5.909   8.362  1.8800  2.7022 -0.5346
   10SAPS  H18Y 1329   6.138   5.732   8.316  0.5127 -0.0048 -0.0771
   10SAPS  H18Z 1330   6.073   5.849   8.197 -0.4154  2.0164  0.2948
   11SAPS     N 1331   3.664   1.140   6.038  0.0346  0.0866  0.4317
   11SAPS   HN1 1332   3.667   1.216   6.109 -0.3529 -0.4554  1.0379
   11SAPS   HN2 1333   3.568   1.106   6.014  0.7206 -2.1354  0.6901
   11SAPS   HN3 1334   3.713   1.059   6.080  1.2872  0.3085 -0.5331
   11SAPS   C12 1335   3.739   1.177   5.913 -0.5995  0.2464 -0.1617
   11SAPS  H12A 1336   3.700   1.273   5.880  0.7756  1.2532  0.9761
   11SAPS   C13 1337   3.893   1.194   5.925  0.0452 -0.0047 -0.2580
   11SAPS  O13A 1338   3.962   1.155   6.027 -0.4037  0.6821 -0.2816
   11SAPS  O13B 1339   3.952   1.240   5.825 -0.3791  0.2110 -0.7372
   11SAPS   C11 1340   3.706   1.072   5.809 -0.1855 -0.2660 -0.1317
   11SAPS  H11A 1341   3.751   0.975   5.838  1.8321  1.2627  2.2858
   11SAPS  H11B 1342   3.755   1.090   5.711 -0.2484  1.0020  0.0520
   11SAPS     P 1343   3.480   1.126   5.684  0.0403  0.1104  0.1446
   11SAPS   O13 1344   3.541   1.264   5.661  0.1681  0.2114 -0.3778
   11SAPS   O14 1345   3.467   1.040   5.563 -0.2688 -0.0621 -0.5785
   11SAPS   O12 1346   3.566   1.051   5.793  0.0828  0.1121  0.2895
   11SAPS   O11 1347   3.341   1.140   5.758 -0.1084  0.0098 -0.3423
   11SAPS    C1 1348   3.290   1.034   5.852  0.0311 -0.0528 -0.3807
   11SAPS    HA 1349   3.182   1.011   5.841  0.3820 -1.3162 -1.4256
   11SAPS    HB 1350   3.320   0.932   5.819 -1.0197 -0.8798  1.0457
   11SAPS    C2 1351   3.328   1.048   6.007  1.0314  0.4287  0.1855
   11SAPS    HS 1352   3.233   1.038   6.063  0.1428  2.2526 -0.8977
   11SAPS   O21 1353   3.388   1.176   6.032  0.7040 -0.2266  0.2228
   11SAPS   C21 1354   3.302   1.280   6.033 -0.1083  0.4181  0.3468
   11SAPS   O22 1355   3.179   1.272   6.023 -0.2521  0.1395  0.1685
   11SAPS   C22 1356   3.377   1.415   6.054 -0.0667 -0.0591  0.0922
   11SAPS   H2R 1357   3.485   1.394   6.037 -0.3434 -1.6888  0.2255
   11SAPS   H2S 1358   3.337   1.487   5.979 -0.5149  0.6516  1.0065
   11SAPS    C3 1359   3.422   0.930   6.054 -0.3761  0.2823 -0.1726
   11SAPS    HX 1360   3.499   0.921   5.974  1.5694  0.8569  1.5564
   11SAPS    HY 1361   3.356   0.841   6.063 -0.1244  0.1836  0.7832
   11SAPS   O31 1362   3.508   0.959   6.178  0.1951 -0.8646 -1.1273
   11SAPS   C31 1363   3.433   0.968   6.284 -0.1509  0.1964 -0.3412
   11SAPS   O32 1364   3.314   0.941   6.293 -0.5129  0.0249  0.0640
   11SAPS   C32 1365   3.516   1.028   6.394 -0.4246 -0.3584 -0.1454
   11SAPS   H2X 1366   3.532   1.135   6.367  0.9024  0.3708  3.0553
   11SAPS   H2Y 1367   3.618   0.983   6.396 -0.9662 -1.6002  0.5218
   11SAPS   C23 1368   3.341   1.485   6.192  0.3575  0.1145 -0.4543
   11SAPS   H3R 1369   3.238   1.527   6.192  1.2608  2.5242  0.9682
   11SAPS   H3S 1370   3.409   1.573   6.202  0.9324 -0.4013  0.2085
   11SAPS   C24 1371   3.376   1.394   6.312 -0.6102  0.4708 -0.5986
   11SAPS   H4R 1372   3.428   1.460   6.385  0.1002  0.6965 -1.3043
   11SAPS   H4S 1373   3.458   1.322   6.291 -0.0840  0.2313  1.9644
   11SAPS   C25 1374   3.263   1.306   6.365 -0.1420  0.3068  0.2923
   11SAPS   H5R 1375   3.227   1.228   6.297 -0.4218 -0.7784  1.6452
   11SAPS   C26 1376   3.199   1.324   6.480 -0.5474 -0.2085 -0.2958
   11SAPS   H6R 1377   3.122   1.251   6.509  2.4216 -2.8148  1.6655
   11SAPS   C27 1378   3.233   1.432   6.583  0.2207  1.0414  0.3992
   11SAPS   H7R 1379   3.289   1.516   6.536  1.7565  0.2613  0.7876
   11SAPS   H7S 1380   3.319   1.394   6.641 -0.1607 -0.4054  0.0638
   11SAPS   C28 1381   3.133   1.468   6.689 -0.0074  0.1082  0.5253
   11SAPS   H8R 1382   3.076   1.562   6.680  0.2968  0.2313 -0.2446
   11SAPS   C29 1383   3.099   1.385   6.785  0.7947 -0.3424  0.4317
   11SAPS   H9R 1384   3.025   1.421   6.858  0.1997  1.2719 -0.9092
   11SAPS  C210 1385   3.156   1.245   6.810 -0.0137  0.4821  0.4541
   11SAPS  H10R 1386   3.267   1.247   6.810  0.0605 -0.2014  3.0651
   11SAPS  H10S 1387   3.120   1.175   6.732 -1.2508  0.7244  0.7794
   11SAPS  C211 1388   3.117   1.186   6.945  1.0213  0.2370  0.4328
   11SAPS  H11R 1389   3.065   1.249   7.019  0.3585  0.9661 -0.6275
   11SAPS  C212 1390   3.134   1.056   6.973 -0.2861  0.8957 -0.4391
   11SAPS  H12R 1391   3.103   1.017   7.072  1.1890 -3.5716 -1.4902
   11SAPS  C213 1392   3.200   0.956   6.883  0.6354  0.3794  0.0845
   11SAPS  H13R 1393   3.307   0.983   6.875  0.5418  1.3983  1.7934
   11SAPS  H13S 1394   3.162   0.968   6.780 -1.3730 -1.2831  0.5676
   11SAPS  C214 1395   3.168   0.812   6.936 -0.2479  0.0618 -0.1121
   11SAPS  H14R 1396   3.064   0.782   6.916  0.0239 -0.0808 -1.4077
   11SAPS  C215 1397   3.246   0.733   7.006  0.1370 -0.0747  0.0940
   11SAPS  H15R 1398   3.210   0.636   7.043  0.0157 -0.0836 -0.0477
   11SAPS  C216 1399   3.386   0.759   7.049 -0.3846  0.1258 -0.8049
   11SAPS  H16R 1400   3.408   0.868   7.059  1.7667 -0.4302  1.4878
   11SAPS  H16S 1401   3.466   0.716   6.985 -0.6764 -1.1157 -0.3577
   11SAPS  C217 1402   3.413   0.690   7.190 -0.2890 -0.4178 -0.7509
   11SAPS  H17R 1403   3.449   0.585   7.183  2.0808  0.0982  1.8442
   11SAPS  H17S 1404   3.318   0.681   7.246  0.8569  1.3798  1.6600
   11SAPS  C218 1405   3.497   0.769   7.290  0.4933 -0.3554  0.3842
   11SAPS  H18R 1406   3.482   0.878   7.274  1.8720  0.0598  1.7463
   11SAPS  H18S 1407   3.605   0.754   7.271  0.6439  1.4770 -0.4511
   11SAPS  C219 1408   3.481   0.724   7.437 -0.2896  0.6722 -0.3480
   11SAPS  H19R 1409   3.528   0.625   7.457  0.9652  2.0087  4.6399
   11SAPS  H19S 1410   3.373   0.711   7.458 -0.2643 -2.2466 -1.5383
   11SAPS  C220 1411   3.540   0.823   7.542 -0.1767  0.0529 -0.1973
   11SAPS  H20R 1412   3.495   0.810   7.642  1.4171 -0.3208  0.4957
   11SAPS  H20S 1413   3.528   0.931   7.520 -2.4880  0.1327  1.1764
   11SAPS  H20T 1414   3.651   0.817   7.549 -0.1930  0.6294  0.6065
   11SAPS   C33 1415   3.437   1.020   6.530  0.3919 -0.1918  0.2120
   11SAPS   H3X 1416   3.430   0.913   6.560 -3.0544 -0.0997  0.1190
   11SAPS   H3Y 1417   3.335   1.062   6.520  0.7870  0.7699  0.1383
   11SAPS   C34 1418   3.505   1.102   6.643 -0.3247  0.3714 -0.0734
   11SAPS   H4X 1419   3.448   1.100   6.738 -0.1279  0.2902  0.0426
   11SAPS   H4Y 1420   3.512   1.208   6.609 -0.7022  1.1615  2.1566
   11SAPS   C35 1421   3.636   1.045   6.689 -0.4118  0.1619  0.7412
   11SAPS   H5X 1422   3.701   1.037   6.599 -2.1612 -2.9454 -0.4296
   11SAPS   H5Y 1423   3.610   0.943   6.725  0.8289 -0.8632 -1.0986
   11SAPS   C36 1424   3.706   1.110   6.810  0.4120 -0.4404 -0.1223
   11SAPS   H6X 1425   3.624   1.136   6.881  0.1941  0.8786 -0.8272
   11SAPS   H6Y 1426   3.754   1.200   6.765  1.5575 -0.5114  0.9082
   11SAPS   C37 1427   3.806   1.014   6.881 -0.7133  0.5053  0.0179
   11SAPS   H7X 1428   3.911   1.048   6.869  0.6941 -2.9365  1.2023
   11SAPS   H7Y 1429   3.799   0.916   6.828 -1.6189  0.8155 -0.4484
   11SAPS   C38 1430   3.779   0.992   7.026 -0.6595  0.1622 -0.0018
   11SAPS   H8X 1431   3.831   0.901   7.062 -0.8204  0.1461  0.1878
   11SAPS   H8Y 1432   3.669   0.980   7.039 -0.4735 -2.3931 -0.3617
   11SAPS   C39 1433   3.809   1.111   7.113 -0.1168  0.0879 -0.2077
   11SAPS   H9X 1434   3.755   1.193   7.060  0.4918 -0.0057 -0.9940
   11SAPS   H9Y 1435   3.919   1.130   7.117  0.1018 -1.2482  0.9844
   11SAPS  C310 1436   3.746   1.106   7.257  0.0077  0.1396  0.1926
   11SAPS  H10X 1437   3.636   1.090   7.252  0.1640 -0.6452 -1.7561
   11SAPS  H10Y 1438   3.760   1.205   7.305 -0.8890  1.2049 -1.6716
   11SAPS  C311 1439   3.817   1.004   7.355 -0.8143 -0.4449  0.3001
   11SAPS  H11X 1440   3.925   1.009   7.328 -0.9209 -1.2522 -0.3051
   11SAPS  H11Y 1441   3.790   0.897   7.343  0.8356 -0.7025 -1.5730
   11SAPS  C312 1442   3.812   1.067   7.497 -0.5452  0.1552  0.8910
   11SAPS  H12X 1443   3.706   1.062   7.530 -0.4895  2.6645  1.6361
   11SAPS  H12Y 1444   3.844   1.174   7.499 -0.9914  0.4400 -1.9252
   11SAPS  C313 1445   3.897   0.987   7.596  0.0094  0.9403  0.0111
   11SAPS  H13X 1446   3.999   1.020   7.567  0.4979  2.6914  3.2449
   11SAPS  H13Y 1447   3.882   0.878   7.586  0.0007  1.0995 -1.9684
   11SAPS  C314 1448   3.880   1.033   7.744  0.0915  0.1445  0.4771
   11SAPS  H14X 1449   3.778   0.996   7.767 -0.3226 -0.0720 -1.5102
   11SAPS  H14Y 1450   3.887   1.144   7.752  2.1859  0.1150 -0.2666
   11SAPS  C315 1451   3.994   0.973   7.825 -0.7465  0.4218 -0.2926
   11SAPS  H15X 1452   4.090   1.015   7.787 -0.9608 -0.2075 -1.5873
   11SAPS  H15Y 1453   3.984   0.864   7.806 -0.2654  0.3869 -0.3705
   11SAPS  C316 1454   3.982   1.003   7.974 -0.0269  0.0169 -0.5173
   11SAPS  H16X 1455   3.884   0.977   8.019  1.2632 -0.6312  2.1223
   11SAPS  H16Y 1456   3.995   1.112   7.989 -1.7970  0.5331 -2.2799
   11SAPS  C317 1457   4.093   0.924   8.051 -0.2860  0.2551 -0.6279
   11SAPS  H17X 1458   4.186   0.921   7.989  0.4786 -1.8577  0.5314
   11SAPS  H17Y 1459   4.056   0.824   8.080 -0.6551  0.2265 -1.1852
   11SAPS  C318 1460   4.120   1.013   8.180 -0.6216 -0.3590 -0.4052
   11SAPS  H18X 1461   4.034   1.018   8.251  0.1550 -0.0204  0.5389
   11SAPS  H18Y 1462   4.149   1.116   8.149  0.6678 -1.0891 -1.7507
   11SAPS  H18Z 1463   4.207   0.972   8.234  0.6185  2.0387 -0.4481
   12SAPS     N 1464   6.672   3.188   5.689 -0.3292  0.2727 -0.5013
   12SAPS   HN1 1465   6.741   3.117   5.723 -0.1878  0.3630 -0.5981
   12SAPS   HN2 1466   6.715   3.255   5.623  3.3821 -2.4360 -1.1849
   12SAPS   HN3 1467   6.643   3.239   5.775 -0.1139  0.5489 -0.5897
   12SAPS   C12 1468   6.557   3.112   5.633  0.5036 -0.2043 -0.7339
   12SAPS  H12A 1469   6.467   3.172   5.621 -0.7800 -1.4900  1.6797
   12SAPS   C13 1470   6.574   3.050   5.492 -0.1035  0.2514  1.0687
   12SAPS  O13A 1471   6.693   3.023   5.451 -0.3282  0.4735 -0.0535
   12SAPS  O13B 1472   6.474   2.990   5.447  0.7197 -0.4025  0.3891
   12SAPS   C11 1473   6.505   3.007   5.743 -0.2880 -0.2290  0.2694
   12SAPS  H11A 1474   6.588   2.935   5.760  0.5108  0.9369  1.5232
   12SAPS  H11B 1475   6.425   2.945   5.698 -0.4493  1.1970 -1.4984
   12SAPS     P 1476   6.395   3.028   5.986 -0.3602  0.4025  0.2891
   12SAPS   O13 1477   6.261   3.092   5.987 -0.5095  0.0753  0.0746
   12SAPS   O14 1478   6.403   2.880   5.988 -0.5627  0.0610 -0.5469
   12SAPS   O12 1479   6.476   3.085   5.867  0.0409  0.0899  0.0480
   12SAPS   O11 1480   6.481   3.078   6.110 -0.1913 -0.3920  0.4777
   12SAPS    C1 1481   6.617   3.024   6.124  0.7590  0.6170  0.3240
   12SAPS    HA 1482   6.621   2.917   6.099 -2.3465  0.0949  1.5441
   12SAPS    HB 1483   6.686   3.074   6.052  0.4152  1.1241  0.3362
   12SAPS    C2 1484   6.669   3.042   6.272 -0.3736 -0.1830  0.4645
   12SAPS    HS 1485   6.761   2.981   6.285 -0.5535 -1.1831 -2.1842
   12SAPS   O21 1486   6.579   2.999   6.371 -0.0856  0.3433  0.0495
   12SAPS   C21 1487   6.553   2.868   6.367  0.1243 -0.4844 -0.2482
   12SAPS   O22 1488   6.620   2.790   6.303 -0.1068  0.3304 -1.2085
   12SAPS   C22 1489   6.421   2.833   6.444  0.0444 -0.1715  0.0099
   12SAPS   H2R 1490   6.374   2.928   6.476  2.2193  1.1425 -0.4871
   12SAPS   H2S 1491   6.352   2.782   6.374 -0.3420 -0.5752  0.6732
   12SAPS    C3 1492   6.703   3.197   6.287 -0.4360  0.4279  0.0195
   12SAPS    HX 1493   6.602   3.240   6.267 -0.1200  0.8941 -0.6356
   12SAPS    HY 1494   6.776   3.228   6.209  1.0333 -0.4377  1.0233
   12SAPS   O31 1495   6.739   3.239   6.418 -0.5290 -0.7803 -0.1093
   12SAPS   C31 1496   6.840   3.191   6.478 -0.3092  0.9980  0.1338
   12SAPS   O32 1497   6.930   3.133   6.413  0.3852 -0.0061 -0.3037
   12SAPS   C32 1498   6.842   3.209   6.629  0.3547  0.2878  0.1457
   12SAPS   H2X 1499   6.774   3.127   6.662  0.9501 -0.9691 -1.6450
   12SAPS   H2Y 1500   6.809   3.315   6.644 -0.2894  0.1832 -0.4751
   12SAPS   C23 1501   6.444   2.749   6.566  0.4403 -0.0639 -0.1316
   12SAPS   H3R 1502   6.513   2.662   6.569 -1.2532 -1.5021 -1.0665
   12SAPS   H3S 1503   6.345   2.710   6.596  0.8415 -0.1626  1.1400
   12SAPS   C24 1504   6.477   2.842   6.690  0.7740  0.2042  0.6564
   12SAPS   H4R 1505   6.433   2.795   6.780 -0.1142 -0.2852 -0.0150
   12SAPS   H4S 1506   6.426   2.940   6.684  1.2009  0.4298  0.6926
   12SAPS   C25 1507   6.623   2.872   6.703 -0.0413 -0.1429 -0.0398
   12SAPS   H5R 1508   6.656   2.929   6.615  0.3486  0.7805  0.6800
   12SAPS   C26 1509   6.703   2.823   6.799 -0.2267  0.0887  0.8219
   12SAPS   H6R 1510   6.806   2.861   6.795 -1.0587  2.3640 -1.9845
   12SAPS   C27 1511   6.682   2.735   6.918 -0.4529  0.1580 -0.2165
   12SAPS   H7R 1512   6.624   2.783   7.000  0.5560 -1.1439  1.3259
   12SAPS   H7S 1513   6.782   2.707   6.959 -1.1368 -1.7267  0.2840
   12SAPS   C28 1514   6.619   2.597   6.889 -0.2858  0.2090 -0.0109
   12SAPS   H8R 1515   6.568   2.590   6.792  1.7324 -1.1967 -1.0591
   12SAPS   C29 1516   6.627   2.494   6.982 -0.1709  0.3653  0.2772
   12SAPS   H9R 1517   6.586   2.398   6.947 -0.1359  0.7535 -0.8360
   12SAPS  C210 1518   6.694   2.499   7.122  0.3512 -0.3639  0.1166
   12SAPS  H10R 1519   6.652   2.587   7.176 -0.7718 -0.8555  0.0731
   12SAPS  H10S 1520   6.801   2.526   7.118  0.3955 -0.0695  2.2289
   12SAPS  C211 1521   6.680   2.370   7.205  0.3134  0.1776  1.1000
   12SAPS  H11R 1522   6.700   2.279   7.148 -1.4131 -0.4588  1.4588
   12SAPS  C212 1523   6.656   2.363   7.338 -0.3937  0.1407  0.1825
   12SAPS  H12R 1524   6.650   2.266   7.389  1.4352 -0.9917 -1.6104
   12SAPS  C213 1525   6.627   2.476   7.424 -0.0046  0.6654 -0.0519
   12SAPS  H13R 1526   6.574   2.430   7.511 -0.5775 -0.0489 -0.7662
   12SAPS  H13S 1527   6.553   2.542   7.375  1.4287  2.0802 -0.3870
   12SAPS  C214 1528   6.748   2.562   7.455 -0.2568  0.5477  0.2009
   12SAPS  H14R 1529   6.818   2.581   7.372  1.8896 -2.1962  1.2136
   12SAPS  C215 1530   6.784   2.612   7.577  0.1075 -0.0080 -0.3609
   12SAPS  H15R 1531   6.881   2.663   7.588  0.2680 -0.3930  0.0307
   12SAPS  C216 1532   6.704   2.606   7.703  0.8560  0.3336 -0.3548
   12SAPS  H16R 1533   6.601   2.566   7.691  0.5000 -0.7313  4.2960
   12SAPS  H16S 1534   6.704   2.708   7.748  3.2935  0.3346 -0.2531
   12SAPS  C217 1535   6.776   2.524   7.811 -0.3898  0.4721 -0.1863
   12SAPS  H17R 1536   6.795   2.422   7.770  1.1020  0.2483  1.0033
   12SAPS  H17S 1537   6.711   2.527   7.901  0.9877  0.8736  0.8176
   12SAPS  C218 1538   6.907   2.581   7.879 -0.3343  0.0198 -0.5190
   12SAPS  H18R 1539   6.899   2.677   7.935  1.1817  0.2092 -0.5867
   12SAPS  H18S 1540   6.981   2.609   7.800 -1.3724 -0.4241 -1.6832
   12SAPS  C219 1541   6.974   2.479   7.980 -0.0933  0.2306 -0.4930
   12SAPS  H19R 1542   7.059   2.531   8.029  0.9975 -2.1885  0.3114
   12SAPS  H19S 1543   7.015   2.392   7.925 -0.7018 -0.2262 -0.2342
   12SAPS  C220 1544   6.875   2.429   8.084  0.1967  0.0164 -0.0354
   12SAPS  H20R 1545   6.921   2.357   8.156  0.1553 -0.4881 -0.5110
   12SAPS  H20S 1546   6.793   2.368   8.041 -0.6469  0.5044  0.8394
   12SAPS  H20T 1547   6.826   2.518   8.130 -0.1594  0.5193 -1.3562
   12SAPS   C33 1548   6.975   3.182   6.695 -0.2022  0.1899  0.8783
   12SAPS   H3X 1549   7.062   3.213   6.633 -1.5555 -0.6516 -1.5613
   12SAPS   H3Y 1550   6.986   3.072   6.707  0.4381  0.3009  1.3796
   12SAPS   C34 1551   6.988   3.249   6.835 -0.0737  0.6849  0.4131
   12SAPS   H4X 1552   6.927   3.189   6.906 -1.1458 -0.7247 -1.5956
   12SAPS   H4Y 1553   6.944   3.349   6.818 -0.8501  0.4802  1.1471
   12SAPS   C35 1554   7.126   3.236   6.897 -0.6106 -0.1571 -0.0227
   12SAPS   H5X 1555   7.194   3.301   6.837  0.8509  1.2654  2.9824
   12SAPS   H5Y 1556   7.158   3.130   6.892  0.5509  0.1899 -0.5735
   12SAPS   C36 1557   7.138   3.294   7.041  0.2712  0.2037 -0.7375
   12SAPS   H6X 1558   7.061   3.241   7.102  0.1547  0.4736 -0.6507
   12SAPS   H6Y 1559   7.096   3.396   7.052 -1.7429 -0.6948  0.3169
   12SAPS   C37 1560   7.279   3.277   7.105 -0.1346 -0.1094  0.2367
   12SAPS   H7X 1561   7.345   3.345   7.047 -0.1149  0.0259  0.4200
   12SAPS   H7Y 1562   7.301   3.170   7.087 -0.5020  0.2142 -2.6636
   12SAPS   C38 1563   7.292   3.326   7.245  0.5000  0.6107  0.3043
   12SAPS   H8X 1564   7.275   3.436   7.252  0.7981  0.6752  0.0411
   12SAPS   H8Y 1565   7.398   3.309   7.273 -0.2288 -2.7072  1.5344
   12SAPS   C39 1566   7.201   3.256   7.339  0.1419 -0.5708 -0.4159
   12SAPS   H9X 1567   7.236   3.151   7.349  0.1518 -0.4682  0.7356
   12SAPS   H9Y 1568   7.093   3.251   7.313 -0.4257 -1.3352  1.8172
   12SAPS  C310 1569   7.208   3.322   7.480 -0.1771  0.1396  0.7132
   12SAPS  H10X 1570   7.192   3.431   7.467 -0.2772 -0.1150 -1.7761
   12SAPS  H10Y 1571   7.306   3.295   7.524  0.8082 -0.2334 -1.5240
   12SAPS  C311 1572   7.095   3.272   7.567  0.2130  0.5550 -0.1512
   12SAPS  H11X 1573   7.105   3.161   7.565 -3.9904 -0.0059 -0.5372
   12SAPS  H11Y 1574   6.991   3.300   7.538 -0.1533  0.3916  0.9590
   12SAPS  C312 1575   7.115   3.310   7.716  0.6055  0.5824 -0.7418
   12SAPS  H12X 1576   7.159   3.412   7.717 -0.9106  1.2556 -0.0884
   12SAPS  H12Y 1577   7.190   3.244   7.765  0.0831  1.3566  1.1738
   12SAPS  C313 1578   6.986   3.303   7.801  0.5842  0.6052 -0.0279
   12SAPS  H13X 1579   6.947   3.199   7.808  1.9389  0.0998  0.2842
   12SAPS  H13Y 1580   6.907   3.366   7.755 -2.1144 -2.9244 -0.6329
   12SAPS  C314 1581   7.013   3.350   7.948  0.6251  0.3986 -0.3148
   12SAPS  H14X 1582   7.035   3.459   7.954  0.6994  0.3579  0.2040
   12SAPS  H14Y 1583   7.106   3.301   7.985  0.3573  0.4381  0.4297
   12SAPS  C315 1584   6.903   3.321   8.054 -0.0078  0.4846  0.1602
   12SAPS  H15X 1585   6.886   3.212   8.057 -0.2789  0.5427  1.3974
   12SAPS  H15Y 1586   6.824   3.379   8.002 -0.4597  0.3904  0.7313
   12SAPS  C316 1587   6.929   3.378   8.197 -0.0536  0.6153  0.5988
   12SAPS  H16X 1588   6.933   3.489   8.184  2.7941  0.5718  0.5134
   12SAPS  H16Y 1589   7.027   3.335   8.225  0.5445  1.1345 -0.5886
   12SAPS  C317 1590   6.827   3.336   8.305  1.1082  0.2269  0.8178
   12SAPS  H17X 1591   6.732   3.394   8.292  0.7103 -0.7056 -0.7185
   12SAPS  H17Y 1592   6.867   3.363   8.405  0.0187  0.2332  1.2755
   12SAPS  C318 1593   6.777   3.193   8.309  0.2322  0.5234 -0.6277
   12SAPS  H18X 1594   6.715   3.172   8.220  0.4099 -1.5230 -0.3185
   12SAPS  H18Y 1595   6.714   3.183   8.400 -0.2075 -0.5053 -1.0371
   12SAPS  H18Z 1596   6.862   3.123   8.326 -0.0814  0.0537 -0.9985
   13SAPS     N 1597   1.357   0.243   6.073 -0.3433  0.3111 -1.0096
   13SAPS   HN1 1598   1.427   0.249   6.149 -4.1370  1.8102  2.7845
   13SAPS   HN2 1599   1.263   0.243   6.117 -1.0292  0.6065 -2.4157
   13SAPS   HN3 1600   1.377   0.155   6.021 -0.6492 -0.7867  0.6703
   13SAPS   C12 1601   1.346   0.375   5.999 -0.2821 -0.5243 -0.2693
   13SAPS  H12A 1602   1.450   0.387   5.973  0.2010  0.1180  1.7248
   13SAPS   C13 1603   1.247   0.371   5.877 -1.3316 -0.2744  0.3501
   13SAPS  O13A 1604   1.217   0.259   5.827 -0.2253 -0.0643  0.5758
   13SAPS  O13B 1605   1.247   0.478   5.805  0.0797  0.2415  0.0300
   13SAPS   C11 1606   1.302   0.491   6.095  0.3431  0.1783 -0.1517
   13SAPS  H11A 1607   1.191   0.485   6.109  0.3115  2.4355  1.1278
   13SAPS  H11B 1608   1.312   0.586   6.039  0.0885 -0.4554 -1.2859
   13SAPS     P 1609   1.477   0.588   6.277  0.4581  0.1649  0.5839
   13SAPS   O13 1610   1.587   0.559   6.179  0.0366 -0.1344 -0.2924
   13SAPS   O14 1611   1.430   0.725   6.289 -0.2157 -0.8285  0.4451
   13SAPS   O12 1612   1.360   0.495   6.226 -0.1841  0.1315 -0.0781
   13SAPS   O11 1613   1.508   0.533   6.422  0.4747 -0.0762  0.5594
   13SAPS    C1 1614   1.402   0.491   6.512 -0.4957  0.2837 -0.7658
   13SAPS    HA 1615   1.307   0.460   6.465 -0.9042 -1.2090  0.9329
   13SAPS    HB 1616   1.450   0.403   6.560  0.9394  1.7191  0.5753
   13SAPS    C2 1617   1.382   0.601   6.616 -0.0151 -0.1780  0.0223
   13SAPS    HS 1618   1.356   0.693   6.560  0.0718 -0.7910 -1.0476
   13SAPS   O21 1619   1.501   0.626   6.696  0.0674  0.6086  0.1362
   13SAPS   C21 1620   1.532   0.757   6.722  0.1262 -0.3395  1.0120
   13SAPS   O22 1621   1.468   0.853   6.674  0.0422 -0.4487 -0.4424
   13SAPS   C22 1622   1.656   0.769   6.813 -0.3804 -0.1907  0.1914
   13SAPS   H2R 1623   1.672   0.667   6.854 -0.5238  0.3712  1.7095
   13SAPS   H2S 1624   1.746   0.804   6.759 -0.8457  0.0689 -0.4283
   13SAPS    C3 1625   1.267   0.561   6.711  0.6876  0.2111  0.2025
   13SAPS    HX 1626   1.302   0.476   6.775 -1.4475  0.7996  2.2894
   13SAPS    HY 1627   1.177   0.533   6.652  0.0323  1.9222  0.3417
   13SAPS   O31 1628   1.229   0.659   6.809 -0.1218 -0.1414  0.1191
   13SAPS   C31 1629   1.135   0.740   6.770  0.5189 -0.0835  0.3450
   13SAPS   O32 1630   1.076   0.738   6.662 -0.1321  0.0177 -0.3302
   13SAPS   C32 1631   1.113   0.841   6.882 -0.3574 -0.2955 -0.4495
   13SAPS   H2X 1632   1.017   0.890   6.855 -2.3383 -1.8537  3.0405
   13SAPS   H2Y 1633   1.203   0.906   6.885  1.2402 -2.1182 -3.6835
   13SAPS   C23 1634   1.636   0.873   6.925 -0.1715 -0.2106 -0.1895
   13SAPS   H3R 1635   1.643   0.968   6.867  0.1736 -1.4864 -2.3631
   13SAPS   H3S 1636   1.731   0.860   6.982  0.3110 -0.7468 -1.0742
   13SAPS   C24 1637   1.511   0.857   7.004  0.2376  0.5106 -0.2753
   13SAPS   H4R 1638   1.419   0.873   6.945 -0.5094  1.2066  1.0383
   13SAPS   H4S 1639   1.512   0.932   7.085  2.0924 -2.2439  2.4917
   13SAPS   C25 1640   1.493   0.714   7.055  0.1355  0.1426 -0.1803
   13SAPS   H5R 1641   1.505   0.623   6.994  1.6755 -0.2533  0.6684
   13SAPS   C26 1642   1.450   0.681   7.182 -0.1932  0.2099  0.8333
   13SAPS   H6R 1643   1.439   0.574   7.209 -0.4986  0.1805  0.5971
   13SAPS   C27 1644   1.416   0.769   7.296 -0.2023 -0.3141 -0.3988
   13SAPS   H7R 1645   1.323   0.723   7.336 -0.7757  1.0669 -0.0863
   13SAPS   H7S 1646   1.386   0.869   7.260 -1.9744 -1.4406 -2.2486
   13SAPS   C28 1647   1.523   0.766   7.400  0.0234 -0.6943 -0.5138
   13SAPS   H8R 1648   1.627   0.753   7.366  0.0954 -0.2652 -0.4619
   13SAPS   C29 1649   1.504   0.768   7.533  0.1028  0.0002  0.1859
   13SAPS   H9R 1650   1.586   0.771   7.607 -0.5987 -2.1327  1.1170
   13SAPS  C210 1651   1.371   0.778   7.607 -0.3363  0.2961 -0.7055
   13SAPS  H10R 1652   1.301   0.846   7.553  0.1823  0.5535 -1.0695
   13SAPS  H10S 1653   1.396   0.835   7.699  0.4463 -0.5853 -0.3585
   13SAPS  C211 1654   1.311   0.641   7.647  0.3001  0.5193  0.0319
   13SAPS  H11R 1655   1.257   0.594   7.564  0.4289  0.2551  0.0945
   13SAPS  C212 1656   1.331   0.572   7.762  0.2808 -0.0337 -0.3328
   13SAPS  H12R 1657   1.302   0.466   7.762 -0.2219 -0.0049 -3.4169
   13SAPS  C213 1658   1.423   0.620   7.874  0.8830 -0.2666 -0.8327
   13SAPS  H13R 1659   1.393   0.563   7.964 -0.0329  0.4067 -0.6993
   13SAPS  H13S 1660   1.397   0.725   7.901  0.3070 -0.6120 -0.0172
   13SAPS  C214 1661   1.568   0.605   7.858 -0.2507  0.0472  0.3384
   13SAPS  H14R 1662   1.604   0.538   7.779 -1.1183 -0.8291  0.6543
   13SAPS  C215 1663   1.668   0.667   7.930 -0.1951 -0.0451  1.3410
   13SAPS  H15R 1664   1.771   0.649   7.895 -0.7116 -2.7966  1.0458
   13SAPS  C216 1665   1.646   0.770   8.046  0.4177 -0.8440  0.4720
   13SAPS  H16R 1666   1.537   0.766   8.066 -0.3745 -3.6020 -3.2922
   13SAPS  H16S 1667   1.692   0.870   8.025 -1.2307 -0.5417 -2.0403
   13SAPS  C217 1668   1.726   0.708   8.162  0.1353 -0.1319 -0.2384
   13SAPS  H17R 1669   1.833   0.684   8.143  0.0985  0.5079 -1.3549
   13SAPS  H17S 1670   1.683   0.609   8.184 -4.1886  1.6878  0.4601
   13SAPS  C218 1671   1.718   0.780   8.293 -0.0230 -0.7153  0.2846
   13SAPS  H18R 1672   1.769   0.722   8.373  0.5992  1.0165  1.2027
   13SAPS  H18S 1673   1.610   0.796   8.317  0.0203  1.8953 -0.9055
   13SAPS  C219 1674   1.772   0.924   8.299  0.1480 -0.5277  0.0251
   13SAPS  H19R 1675   1.766   0.962   8.404  0.2788 -1.9913  0.5807
   13SAPS  H19S 1676   1.691   0.977   8.244 -0.5087  3.1266  3.9258
   13SAPS  C220 1677   1.903   0.948   8.231 -0.4476  0.3348  0.3929
   13SAPS  H20R 1678   1.941   1.046   8.267 -0.7074  0.9653 -0.9979
   13SAPS  H20S 1679   1.905   0.953   8.120  2.2862  0.2090  0.3647
   13SAPS  H20T 1680   1.971   0.864   8.258  1.9304  2.0387  0.0142
   13SAPS   C33 1681   1.087   0.758   7.012 -0.3448 -0.9070 -0.2306
   13SAPS   H3X 1682   1.171   0.691   7.040 -1.1726 -2.1400 -0.5861
   13SAPS   H3Y 1683   1.002   0.688   6.996 -0.6766 -0.8355  1.0981
   13SAPS   C34 1684   1.067   0.840   7.138 -0.4563  0.4424 -0.2937
   13SAPS   H4X 1685   1.011   0.934   7.117  0.3293  0.8320 -0.6844
   13SAPS   H4Y 1686   1.165   0.867   7.184 -0.2092 -1.4688  0.3904
   13SAPS   C35 1687   0.993   0.761   7.247 -0.3453  0.4898 -0.1220
   13SAPS   H5X 1688   1.044   0.665   7.272 -1.7363  0.5289  3.4571
   13SAPS   H5Y 1689   0.901   0.726   7.197  1.2654 -0.9317 -2.2866
   13SAPS   C36 1690   0.963   0.836   7.379 -0.5480 -0.8362 -0.1346
   13SAPS   H6X 1691   0.883   0.912   7.365 -1.8721 -2.2506 -0.4733
   13SAPS   H6Y 1692   1.052   0.892   7.416 -0.8255 -0.0872 -0.5776
   13SAPS   C37 1693   0.922   0.735   7.483  0.2344  0.3743 -0.5027
   13SAPS   H7X 1694   1.007   0.664   7.483 -0.6001 -0.6820  0.9430
   13SAPS   H7Y 1695   0.834   0.681   7.443 -0.3656  0.0251  1.2060
   13SAPS   C38 1696   0.885   0.801   7.626 -0.5731  0.6098  0.8811
   13SAPS   H8X 1697   0.800   0.872   7.612  1.5459  3.2227  0.5966
   13SAPS   H8Y 1698   0.972   0.855   7.667 -0.1938 -0.6217  1.7661
   13SAPS   C39 1699   0.869   0.690   7.735  0.1923 -0.2558  0.1428
   13SAPS   H9X 1700   0.965   0.636   7.748  0.1853 -0.9790 -2.2423
   13SAPS   H9Y 1701   0.791   0.617   7.703 -1.0981  0.7472  0.9135
   13SAPS  C310 1702   0.826   0.756   7.877 -0.1482  0.1492  0.1882
   13SAPS  H10X 1703   0.818   0.678   7.956 -1.7582 -1.5302 -1.5109
   13SAPS  H10Y 1704   0.721   0.787   7.859 -0.5556 -1.5840 -0.6117
   13SAPS  C311 1705   0.906   0.879   7.921  0.1686  0.0572 -0.6482
   13SAPS  H11X 1706   0.851   0.931   8.003  3.2113 -1.1681  2.4204
   13SAPS  H11Y 1707   0.919   0.957   7.842  0.8592  2.3226  1.5635
   13SAPS  C312 1708   1.045   0.847   7.980  0.2577 -0.0225 -0.7475
   13SAPS  H12X 1709   1.102   0.771   7.922  0.8249  0.7058 -1.1717
   13SAPS  H12Y 1710   1.017   0.795   8.073 -2.0719  1.7008 -0.3889
   13SAPS  C313 1711   1.113   0.978   8.006  0.3521  0.6297  0.0913
   13SAPS  H13X 1712   1.050   1.051   8.061  0.1030 -0.3936  1.1899
   13SAPS  H13Y 1713   1.137   1.025   7.908  1.5372 -0.0224  0.0550
   13SAPS  C314 1714   1.238   0.954   8.094 -0.4016 -0.4446 -0.4583
   13SAPS  H14X 1715   1.292   1.050   8.104  0.9761 -1.0323 -1.8162
   13SAPS  H14Y 1716   1.308   0.880   8.049  0.2244  0.0793 -0.3514
   13SAPS  C315 1717   1.207   0.925   8.242 -0.3544 -0.1722  0.2638
   13SAPS  H15X 1718   1.152   0.829   8.251  1.4415 -1.1267  1.8141
   13SAPS  H15Y 1719   1.140   1.005   8.279 -0.4479 -1.0960  2.2126
   13SAPS  C316 1720   1.337   0.922   8.322 -0.3952 -0.1243 -0.6439
   13SAPS  H16X 1721   1.363   1.027   8.350 -0.9237 -0.6566  2.1589
   13SAPS  H16Y 1722   1.402   0.855   8.263 -0.7031 -1.0908  0.0925
   13SAPS  C317 1723   1.322   0.848   8.457 -0.2331  0.2266 -1.5413
   13SAPS  H17X 1724   1.311   0.741   8.430  0.9468  0.0605 -1.4045
   13SAPS  H17Y 1725   1.225   0.890   8.493  1.1354  1.0764  1.5633
   13SAPS  C318 1726   1.426   0.863   8.570  0.2801 -0.4870 -0.6341
   13SAPS  H18X 1727   1.403   0.778   8.638 -1.7252 -1.5060 -2.4734
   13SAPS  H18Y 1728   1.414   0.953   8.635  2.1456 -2.0911  2.1336
   13SAPS  H18Z 1729   1.531   0.854   8.536  0.1415  1.3355 -1.7353
   14SAPS     N 1730   2.243   5.045   5.834  0.2111  0.1209  0.0205
   14SAPS   HN1 1731   2.181   5.083   5.909  1.0100 -1.0757  1.3364
   14SAPS   HN2 1732   2.347   5.046   5.843  0.3518  1.0051 -1.4705
   14SAPS   HN3 1733   2.220   5.085   5.741 -0.5198 -0.4755 -0.0644
   14SAPS   C12 1734   2.186   4.904   5.808  0.1086 -0.4371 -1.7516
   14SAPS  H12A 1735   2.079   4.899   5.821  0.3296  0.6680  1.2864
   14SAPS   C13 1736   2.232   4.853   5.668  0.1744  0.0673  0.0468
   14SAPS  O13A 1737   2.322   4.909   5.602  0.5490  0.1218  0.7426
   14SAPS  O13B 1738   2.199   4.736   5.631  0.2544 -1.2330 -0.0279
   14SAPS   C11 1739   2.235   4.806   5.930  0.0254  0.0577  0.4690
   14SAPS  H11A 1740   2.174   4.713   5.929 -1.6872  1.1219  0.0536
   14SAPS  H11B 1741   2.223   4.864   6.025 -1.1565  2.3079 -0.9497
   14SAPS     P 1742   2.491   4.839   5.968 -0.0852 -0.1992 -0.3090
   14SAPS   O13 1743   2.620   4.774   5.925 -0.1843  0.3626 -0.4791
   14SAPS   O14 1744   2.480   4.980   5.942 -0.1756 -0.5413  0.4852
   14SAPS   O12 1745   2.370   4.762   5.905  0.0692  0.1600  0.3923
   14SAPS   O11 1746   2.463   4.820   6.128 -0.4095  0.2495  0.5168
   14SAPS    C1 1747   2.509   4.694   6.177  0.0027  0.1556 -0.8649
   14SAPS    HA 1748   2.451   4.613   6.126 -1.2582  0.2869  0.2906
   14SAPS    HB 1749   2.618   4.683   6.158  0.3029  1.1868  0.1750
   14SAPS    C2 1750   2.490   4.680   6.329  0.4911  0.3715  0.0818
   14SAPS    HS 1751   2.497   4.781   6.375 -3.2040  0.7686  0.0270
   14SAPS   O21 1752   2.577   4.578   6.374  0.4838 -0.3323 -0.2736
   14SAPS   C21 1753   2.700   4.623   6.406 -0.2480 -0.1991 -0.1138
   14SAPS   O22 1754   2.731   4.741   6.405  0.0040  0.1327 -0.2494
   14SAPS   C22 1755   2.783   4.509   6.462 -0.0430 -0.3752  0.0592
   14SAPS   H2R 1756   2.738   4.416   6.422  0.3791 -1.1681  1.3410
   14SAPS   H2S 1757   2.889   4.505   6.429 -0.1118 -1.0289 -0.0916
   14SAPS    C3 1758   2.347   4.638   6.372  0.0219 -1.1832  0.0741
   14SAPS    HX 1759   2.332   4.536   6.330  1.6963 -2.1090  1.5970
   14SAPS    HY 1760   2.292   4.713   6.310  1.2558 -1.0403 -0.8939
   14SAPS   O31 1761   2.317   4.636   6.515 -0.3598  0.2684  0.5694
   14SAPS   C31 1762   2.266   4.523   6.561 -0.6681 -0.1273 -0.6839
   14SAPS   O32 1763   2.252   4.421   6.498 -0.6430 -0.3368 -0.7735
   14SAPS   C32 1764   2.212   4.543   6.703 -0.0779 -0.1856  0.1547
   14SAPS   H2X 1765   2.112   4.497   6.692  0.1987 -0.5195 -1.1332
   14SAPS   H2Y 1766   2.213   4.652   6.727  0.3597 -0.7323  2.8973
   14SAPS   C23 1767   2.777   4.500   6.612  0.6848  0.8172 -0.2733
   14SAPS   H3R 1768   2.812   4.598   6.652 -0.4415  1.0296  0.2290
   14SAPS   H3S 1769   2.847   4.419   6.639 -0.3737 -0.0544 -0.1048
   14SAPS   C24 1770   2.640   4.463   6.665  0.8930 -0.2619  0.3798
   14SAPS   H4R 1771   2.570   4.542   6.629  1.4428 -0.0588 -0.2643
   14SAPS   H4S 1772   2.653   4.468   6.775  0.0906  1.6970  0.4270
   14SAPS   C25 1773   2.597   4.324   6.632 -0.1403  0.6729  0.2777
   14SAPS   H5R 1774   2.563   4.291   6.533  0.6706 -0.0708  0.2371
   14SAPS   C26 1775   2.607   4.220   6.718  0.0591  0.0151  0.2243
   14SAPS   H6R 1776   2.565   4.124   6.685  0.9242 -0.3227  0.0735
   14SAPS   C27 1777   2.649   4.230   6.864 -0.0965 -0.3579  0.1072
   14SAPS   H7R 1778   2.567   4.295   6.902 -1.2311 -1.6179 -0.0971
   14SAPS   H7S 1779   2.746   4.283   6.868  0.0454 -0.3522 -2.2954
   14SAPS   C28 1780   2.676   4.102   6.935 -0.4045  0.2023  0.5916
   14SAPS   H8R 1781   2.686   4.015   6.868  1.1085  1.5672 -1.0299
   14SAPS   C29 1782   2.721   4.090   7.064  0.6141  0.0719  0.9954
   14SAPS   H9R 1783   2.737   3.987   7.099 -0.9902  0.3934  2.8389
   14SAPS  C210 1784   2.729   4.198   7.168 -0.3591  0.4758 -0.2186
   14SAPS  H10R 1785   2.642   4.266   7.163  0.0911  1.0614 -0.1015
   14SAPS  H10S 1786   2.818   4.260   7.147  0.0063  0.0963  0.1849
   14SAPS  C211 1787   2.732   4.142   7.307 -0.3777 -0.2177 -0.0577
   14SAPS  H11R 1788   2.830   4.116   7.348 -0.3796  1.0298  0.8228
   14SAPS  C212 1789   2.625   4.105   7.383 -0.0991 -0.4104  0.5235
   14SAPS  H12R 1790   2.646   4.081   7.488  0.0119  0.5825  0.7358
   14SAPS  C213 1791   2.482   4.099   7.328 -0.2161 -0.7322 -0.1243
   14SAPS  H13R 1792   2.484   4.112   7.218 -3.2074 -1.8791 -0.4092
   14SAPS  H13S 1793   2.428   4.188   7.368  1.3714 -0.3415  1.3076
   14SAPS  C214 1794   2.406   3.968   7.350 -0.2322  0.4902  0.3112
   14SAPS  H14R 1795   2.428   3.892   7.273 -2.5136  0.7830 -0.7071
   14SAPS  C215 1796   2.345   3.930   7.466  0.0631 -0.8202 -0.2500
   14SAPS  H15R 1797   2.283   3.839   7.466 -2.1855  0.6413  0.0031
   14SAPS  C216 1798   2.330   4.005   7.599 -0.2436 -0.2005 -0.7882
   14SAPS  H16R 1799   2.232   4.008   7.651 -0.4786 -0.8084 -1.1848
   14SAPS  H16S 1800   2.341   4.112   7.572 -0.0201 -0.0966 -0.2990
   14SAPS  C217 1801   2.441   3.968   7.703 -0.8313 -0.2482 -0.0340
   14SAPS  H17R 1802   2.541   3.994   7.662 -0.6943  0.3118  0.6436
   14SAPS  H17S 1803   2.442   3.860   7.728  4.0436  0.1399  2.6944
   14SAPS  C218 1804   2.439   4.051   7.827 -0.3936  0.4760 -0.4773
   14SAPS  H18R 1805   2.344   4.029   7.881  1.6226 -0.7916  2.8276
   14SAPS  H18S 1806   2.436   4.160   7.807  1.5513  0.1913 -2.7463
   14SAPS  C219 1807   2.543   4.024   7.938  0.2847 -0.5617  0.0701
   14SAPS  H19R 1808   2.644   4.023   7.890 -0.0731  2.1571 -0.9435
   14SAPS  H19S 1809   2.532   3.919   7.972 -1.9074 -0.1410  0.8330
   14SAPS  C220 1810   2.544   4.129   8.049 -0.5035  0.1614 -0.0448
   14SAPS  H20R 1811   2.586   4.230   8.027  1.6325 -0.2591  1.7985
   14SAPS  H20S 1812   2.596   4.093   8.140  0.2983  0.5091 -0.3544
   14SAPS  H20T 1813   2.440   4.149   8.083 -0.8772 -1.9566  0.1882
   14SAPS   C33 1814   2.294   4.481   6.817  0.9401 -0.1591  0.2684
   14SAPS   H3X 1815   2.383   4.543   6.845  0.3567  0.1800  1.4341
   14SAPS   H3Y 1816   2.323   4.378   6.788  2.2687  0.0789  0.6568
   14SAPS   C34 1817   2.218   4.471   6.958  0.2705  0.4337 -0.1174
   14SAPS   H4X 1818   2.134   4.399   6.947  0.3068 -0.0040  2.0086
   14SAPS   H4Y 1819   2.165   4.567   6.976 -0.7715 -0.1565  0.0108
   14SAPS   C35 1820   2.312   4.422   7.072  0.3677  0.1732  0.3411
   14SAPS   H5X 1821   2.393   4.495   7.088  0.0681  0.2764  1.4405
   14SAPS   H5Y 1822   2.371   4.328   7.062  1.5413  0.7444  1.6499
   14SAPS   C36 1823   2.232   4.407   7.200 -0.0404  0.1480  0.5217
   14SAPS   H6X 1824   2.163   4.494   7.197 -0.0994  0.1027 -2.4087
   14SAPS   H6Y 1825   2.303   4.412   7.285 -0.7928  1.1454  1.1151
   14SAPS   C37 1826   2.144   4.285   7.205 -0.4252 -0.5467 -0.1939
   14SAPS   H7X 1827   2.203   4.192   7.215 -1.2773 -1.0539  0.2761
   14SAPS   H7Y 1828   2.087   4.271   7.110  0.7640  1.1775 -1.2225
   14SAPS   C38 1829   2.041   4.300   7.313  0.6107 -0.1907 -0.3460
   14SAPS   H8X 1830   1.983   4.206   7.321  0.9456 -0.2249  2.6293
   14SAPS   H8Y 1831   1.975   4.386   7.286  0.7834  0.1262  0.2183
   14SAPS   C39 1832   2.102   4.330   7.448 -0.2469 -0.1590  0.0193
   14SAPS   H9X 1833   2.150   4.430   7.453 -0.1156 -0.1725 -0.7328
   14SAPS   H9Y 1834   2.175   4.247   7.461 -0.2187 -0.0267  0.7238
   14SAPS  C310 1835   2.007   4.329   7.563 -0.3295 -0.3052  0.5004
   14SAPS  H10X 1836   1.972   4.224   7.574  0.5963 -0.6818 -0.0023
   14SAPS  H10Y 1837   1.917   4.394   7.558 -0.5794 -0.7299 -0.9276
   14SAPS  C311 1838   2.076   4.353   7.699  0.1342 -0.0147  0.8734
   14SAPS  H11X 1839   2.107   4.459   7.696 -2.5725  0.8448  0.0900
   14SAPS  H11Y 1840   2.159   4.280   7.715 -0.0361 -0.5961 -0.7346
   14SAPS  C312 1841   1.982   4.334   7.817 -0.4751  0.7295 -0.2586
   14SAPS  H12X 1842   1.954   4.228   7.831  1.0626  0.6825  3.4992
   14SAPS  H12Y 1843   1.892   4.393   7.790  0.3920  1.8124 -0.9196
   14SAPS  C313 1844   2.037   4.384   7.950  0.2901  0.1542 -1.0322
   14SAPS  H13X 1845   2.079   4.487   7.956  0.5670 -0.0106  0.2399
   14SAPS  H13Y 1846   2.117   4.310   7.975 -0.1961 -0.2200 -0.5523
   14SAPS  C314 1847   1.929   4.393   8.057  0.2305  0.0734  0.7037
   14SAPS  H14X 1848   1.902   4.285   8.065 -0.2450  0.0909 -0.3895
   14SAPS  H14Y 1849   1.840   4.452   8.024  0.7571 -0.6505 -2.3124
   14SAPS  C315 1850   1.975   4.480   8.171  0.4112  0.2128 -0.2193
   14SAPS  H15X 1851   1.895   4.495   8.247 -0.4608 -1.4200 -0.7623
   14SAPS  H15Y 1852   1.991   4.581   8.129 -0.7121  0.0044 -1.1966
   14SAPS  C316 1853   2.104   4.430   8.240  0.2572 -0.3087  0.8247
   14SAPS  H16X 1854   2.190   4.445   8.172  0.4919  0.3630  1.2583
   14SAPS  H16Y 1855   2.095   4.321   8.258  2.0876 -0.6015  0.1481
   14SAPS  C317 1856   2.143   4.510   8.364  0.6125 -0.2627  0.2753
   14SAPS  H17X 1857   2.241   4.482   8.408  0.9047  1.5705  0.8541
   14SAPS  H17Y 1858   2.066   4.485   8.440  0.8835 -1.4431  0.1915
   14SAPS  C318 1859   2.145   4.664   8.334 -0.1863  0.8370  0.1164
   14SAPS  H18X 1860   2.224   4.698   8.263 -0.3703 -0.3912 -0.7187
   14SAPS  H18Y 1861   2.160   4.718   8.430  1.2703 -0.6535  0.7699
   14SAPS  H18Z 1862   2.044   4.697   8.302  0.4199  0.9661 -1.8373
   15SAPS     N 1863   1.494   2.804   5.963  0.1198  0.3590 -0.8983
   15SAPS   HN1 1864   1.547   2.799   5.873 -0.2480 -0.9133 -1.0739
   15SAPS   HN2 1865   1.413   2.869   5.955  0.7996  1.2995 -0.3027
   15SAPS   HN3 1866   1.560   2.845   6.032 -3.3300  1.5307  1.9810
   15SAPS   C12 1867   1.442   2.673   6.014 -0.6079  0.6912 -0.4972
   15SAPS  H12A 1868   1.391   2.620   5.934 -0.2390  1.3231 -1.1674
   15SAPS   C13 1869   1.549   2.577   6.072 -0.8318 -0.2791 -0.0601
   15SAPS  O13A 1870   1.668   2.613   6.090  0.3844  0.4730 -0.5336
   15SAPS  O13B 1871   1.515   2.480   6.140 -0.1667 -0.4890  0.6745
   15SAPS   C11 1872   1.336   2.698   6.129 -0.9130  0.2485 -0.7866
   15SAPS  H11A 1873   1.392   2.744   6.213  1.3624 -1.2570 -1.3896
   15SAPS  H11B 1874   1.301   2.596   6.154 -0.6043 -0.0075 -1.3676
   15SAPS     P 1875   1.102   2.735   6.015 -0.4087 -0.1703  0.2797
   15SAPS   O13 1876   1.016   2.852   6.008  0.7357 -0.3706  0.0435
   15SAPS   O14 1877   1.139   2.677   5.883 -0.0497 -0.3655  0.4849
   15SAPS   O12 1878   1.234   2.782   6.079 -0.0358 -0.1156  0.6196
   15SAPS   O11 1879   1.057   2.625   6.116  0.8985  0.4596  0.2767
   15SAPS    C1 1880   0.984   2.648   6.239  0.0212  0.0567  0.9204
   15SAPS    HA 1881   0.904   2.726   6.236 -3.0412 -2.8900  0.4093
   15SAPS    HB 1882   0.929   2.554   6.263  2.4749 -2.1341 -1.4327
   15SAPS    C2 1883   1.086   2.670   6.343 -0.2143  0.4623  0.5771
   15SAPS    HS 1884   1.146   2.756   6.308  0.0348 -0.6985 -2.0698
   15SAPS   O21 1885   1.175   2.562   6.350  0.3187 -0.3950 -0.2149
   15SAPS   C21 1886   1.277   2.559   6.430  0.7812 -0.7262  0.5388
   15SAPS   O22 1887   1.325   2.653   6.492  0.4105 -0.1637  0.0606
   15SAPS   C22 1888   1.321   2.422   6.447  0.1770  1.1354 -0.1214
   15SAPS   H2R 1889   1.356   2.385   6.348 -0.0957  0.1353  0.1442
   15SAPS   H2S 1890   1.408   2.427   6.514  0.7136  2.4555 -0.8737
   15SAPS    C3 1891   1.011   2.693   6.478 -0.2333  0.7375  0.1327
   15SAPS    HX 1892   0.957   2.789   6.464  2.2606  2.3266  0.6253
   15SAPS    HY 1893   1.100   2.696   6.546  1.6904 -0.7308 -2.1629
   15SAPS   O31 1894   0.917   2.593   6.510  0.4307  0.2420 -0.0561
   15SAPS   C31 1895   0.883   2.595   6.642 -0.5857 -0.5804  0.2169
   15SAPS   O32 1896   0.943   2.668   6.725  0.1323 -0.4734  0.4921
   15SAPS   C32 1897   0.759   2.511   6.671 -0.4570  0.2390  0.7543
   15SAPS   H2X 1898   0.751   2.446   6.581  2.3938  0.1878  0.4374
   15SAPS   H2Y 1899   0.672   2.579   6.676 -0.1695  0.6150  0.6895
   15SAPS   C23 1900   1.206   2.316   6.485  0.1775 -0.0021 -0.4622
   15SAPS   H3R 1901   1.267   2.223   6.492  2.7498  1.5738 -0.6751
   15SAPS   H3S 1902   1.135   2.314   6.399  1.1663  2.8402 -1.4494
   15SAPS   C24 1903   1.131   2.339   6.619 -0.7662 -0.8436 -0.9836
   15SAPS   H4R 1904   1.044   2.271   6.619 -2.0212  0.7126 -1.1507
   15SAPS   H4S 1905   1.082   2.437   6.608  1.6506  0.4827 -0.7608
   15SAPS   C25 1906   1.221   2.326   6.741  0.5791  0.7629  0.9739
   15SAPS   H5R 1907   1.267   2.228   6.758  0.0445  0.3893  0.2931
   15SAPS   C26 1908   1.257   2.411   6.839  0.3113 -0.3823  0.2174
   15SAPS   H6R 1909   1.324   2.372   6.916 -1.7707 -0.7952  1.9271
   15SAPS   C27 1910   1.219   2.554   6.830 -0.0469 -0.0948  0.5614
   15SAPS   H7R 1911   1.112   2.545   6.860 -0.4837 -0.8860 -1.1642
   15SAPS   H7S 1912   1.214   2.589   6.725  1.8488 -4.3655 -1.1529
   15SAPS   C28 1913   1.313   2.646   6.911  0.4778  0.7351  0.0652
   15SAPS   H8R 1914   1.419   2.653   6.881  0.4608 -0.1094 -0.2242
   15SAPS   C29 1915   1.277   2.717   7.019 -0.7785  0.2343  0.8571
   15SAPS   H9R 1916   1.354   2.782   7.064 -0.5918  1.3816 -1.0193
   15SAPS  C210 1917   1.139   2.713   7.077 -0.0943  0.4355  0.0606
   15SAPS  H10R 1918   1.112   2.606   7.081 -0.5932  0.5543 -0.1365
   15SAPS  H10S 1919   1.076   2.764   7.002 -2.1592 -1.8699  0.1226
   15SAPS  C211 1920   1.123   2.784   7.210  0.1736 -0.5153  0.4548
   15SAPS  H11R 1921   1.085   2.886   7.193 -0.5703 -0.6733  1.1462
   15SAPS  C212 1922   1.148   2.738   7.333  0.6803  0.1423  0.2434
   15SAPS  H12R 1923   1.132   2.804   7.420  2.3389 -0.1200  0.7794
   15SAPS  C213 1924   1.197   2.602   7.381  0.4657  0.2284  0.0981
   15SAPS  H13R 1925   1.230   2.538   7.296  0.4559  0.2435  0.0833
   15SAPS  H13S 1926   1.111   2.545   7.424  0.5276 -1.7714 -2.1832
   15SAPS  C214 1927   1.307   2.608   7.482 -0.1265 -0.4064 -0.3047
   15SAPS  H14R 1928   1.291   2.679   7.565  0.2706  0.8435 -1.2606
   15SAPS  C215 1929   1.431   2.550   7.474 -0.0014 -0.5186 -0.3133
   15SAPS  H15R 1930   1.502   2.572   7.556 -1.0275  0.9443  0.2240
   15SAPS  C216 1931   1.479   2.476   7.354 -0.5599  0.3191 -0.2989
   15SAPS  H16R 1932   1.590   2.473   7.357 -0.5961 -1.0363  0.7875
   15SAPS  H16S 1933   1.453   2.536   7.264  1.5610  0.2878 -0.9933
   15SAPS  C217 1934   1.446   2.327   7.322  0.5757  0.4232  0.3451
   15SAPS  H17R 1935   1.338   2.307   7.337  1.2490 -3.3432  0.9240
   15SAPS  H17S 1936   1.497   2.263   7.396  0.0470 -3.4324 -2.3252
   15SAPS  C218 1937   1.472   2.281   7.170  0.3938  0.1079 -0.1040
   15SAPS  H18R 1938   1.580   2.296   7.148  0.2963 -0.0709 -0.7282
   15SAPS  H18S 1939   1.417   2.351   7.103 -2.0230  0.3814  2.0011
   15SAPS  C219 1940   1.422   2.137   7.153 -0.4338 -0.2756 -0.5633
   15SAPS  H19R 1941   1.314   2.146   7.176  0.2975  1.8016  2.7520
   15SAPS  H19S 1942   1.458   2.073   7.236  0.8716 -0.7817 -1.4821
   15SAPS  C220 1943   1.438   2.066   7.022 -0.8553 -0.5446 -0.4174
   15SAPS  H20R 1944   1.400   1.961   7.020  0.2639 -0.9584 -0.7148
   15SAPS  H20S 1945   1.545   2.062   6.990 -1.0179 -3.0302 -0.8607
   15SAPS  H20T 1946   1.373   2.120   6.950 -0.8444 -0.5771 -0.4511
   15SAPS   C33 1947   0.774   2.412   6.791 -0.5104  0.2500  0.0313
   15SAPS   H3X 1948   0.864   2.347   6.793 -2.0450 -1.9951  1.1698
   15SAPS   H3Y 1949   0.694   2.335   6.794  0.8778 -1.2945 -0.7400
   15SAPS   C34 1950   0.775   2.498   6.920 -0.8153  0.0335  0.5834
   15SAPS   H4X 1951   0.683   2.560   6.915 -0.4990  0.7003  2.3045
   15SAPS   H4Y 1952   0.865   2.563   6.921  0.0684 -1.1344  2.9406
   15SAPS   C35 1953   0.774   2.412   7.053 -0.2706 -0.4504  0.7163
   15SAPS   H5X 1954   0.864   2.349   7.038  0.3315  0.4849  0.3183
   15SAPS   H5Y 1955   0.686   2.344   7.050 -0.9786  0.4103  1.5782
   15SAPS   C36 1956   0.769   2.507   7.174 -0.1244  0.8361  0.3509
   15SAPS   H6X 1957   0.672   2.560   7.160  0.6273  1.8436 -1.3014
   15SAPS   H6Y 1958   0.845   2.588   7.171 -0.2252  0.9246  0.1949
   15SAPS   C37 1959   0.787   2.443   7.309 -0.1227  0.0689 -0.2682
   15SAPS   H7X 1960   0.893   2.410   7.308 -0.1281  0.0516 -0.2629
   15SAPS   H7Y 1961   0.721   2.355   7.323 -0.1220 -0.0221 -0.8412
   15SAPS   C38 1962   0.784   2.539   7.426  0.5439 -0.0476  0.4127
   15SAPS   H8X 1963   0.679   2.574   7.441  0.1249 -0.6134 -1.0295
   15SAPS   H8Y 1964   0.847   2.628   7.403 -0.0660 -0.0502 -1.3983
   15SAPS   C39 1965   0.839   2.479   7.553  0.2236 -0.2321 -0.0824
   15SAPS   H9X 1966   0.843   2.560   7.629 -1.0856 -0.7614  0.5676
   15SAPS   H9Y 1967   0.938   2.437   7.525 -0.1174 -1.0408 -0.0832
   15SAPS  C310 1968   0.755   2.372   7.621 -0.6550 -0.3839 -0.4902
   15SAPS  H10X 1969   0.759   2.268   7.584  0.4661 -0.5379  0.0344
   15SAPS  H10Y 1970   0.649   2.401   7.604 -0.4269 -0.7236 -2.9935
   15SAPS  C311 1971   0.782   2.373   7.772 -0.0728  1.0435  0.7229
   15SAPS  H11X 1972   0.735   2.466   7.812 -1.1984  0.4772  0.7710
   15SAPS  H11Y 1973   0.890   2.364   7.793  0.0434 -1.4806 -0.5608
   15SAPS  C312 1974   0.722   2.248   7.840  0.4482 -0.2249  0.2800
   15SAPS  H12X 1975   0.773   2.157   7.801 -1.4679 -1.2728  0.0514
   15SAPS  H12Y 1976   0.614   2.233   7.816  0.4111 -1.1321  0.9151
   15SAPS  C313 1977   0.731   2.255   7.996 -0.2778 -0.2493  0.4423
   15SAPS  H13X 1978   0.694   2.350   8.040 -0.2471  0.3011 -0.7029
   15SAPS  H13Y 1979   0.836   2.245   8.033 -0.1421  0.0435  0.1309
   15SAPS  C314 1980   0.656   2.147   8.064  0.4149 -0.1010 -0.3510
   15SAPS  H14X 1981   0.681   2.151   8.172  1.4055  0.7372 -0.5958
   15SAPS  H14Y 1982   0.698   2.050   8.031  3.2403 -0.2039  3.0060
   15SAPS  C315 1983   0.507   2.150   8.035 -0.0252  0.3131 -0.0090
   15SAPS  H15X 1984   0.480   2.121   7.931  0.8823  1.3220 -0.5482
   15SAPS  H15Y 1985   0.461   2.250   8.049 -0.1713  0.3594 -0.7502
   15SAPS  C316 1986   0.424   2.040   8.116  0.2336  0.7048  0.3332
   15SAPS  H16X 1987   0.433   2.036   8.226 -0.7820 -0.6173  0.3960
   15SAPS  H16Y 1988   0.458   1.942   8.078 -0.3356  0.3516  0.7218
   15SAPS  C317 1989   0.278   2.060   8.068  0.1756  0.1739 -0.0456
   15SAPS  H17X 1990   0.254   2.160   8.025  1.1112  0.5967  0.3861
   15SAPS  H17Y 1991   0.206   2.059   8.152  0.4863 -1.4054  0.2335
   15SAPS  C318 1992   0.255   1.950   7.957  0.8398  0.0849  0.3428
   15SAPS  H18X 1993   0.175   1.986   7.889  1.5800  1.2407  0.0469
   15SAPS  H18Y 1994   0.231   1.848   7.994  3.0546 -0.2183  1.0704
   15SAPS  H18Z 1995   0.348   1.945   7.898  1.3174  0.4404  1.0539
   16SAPS     N 1996   2.109   2.438   6.235 -0.1778  0.1244 -0.1471
   16SAPS   HN1 1997   2.039   2.461   6.162  0.5624  3.1463 -0.0302
   16SAPS   HN2 1998   2.146   2.341   6.242 -0.2810  0.1346  0.5543
   16SAPS   HN3 1999   2.058   2.444   6.325 -0.1753 -1.3331 -0.0272
   16SAPS   C12 2000   2.217   2.542   6.248 -0.1923  0.6026 -0.1136
   16SAPS  H12A 2001   2.303   2.510   6.191 -0.0357  1.1186 -0.1718
   16SAPS   C13 2002   2.191   2.688   6.199  0.5869 -0.6930 -0.8602
   16SAPS  O13A 2003   2.077   2.721   6.158  0.1351  0.4608  0.5716
   16SAPS  O13B 2004   2.287   2.768   6.218  0.5009  0.0047 -0.3111
   16SAPS   C11 2005   2.254   2.534   6.400  0.3242 -0.4192 -0.1135
   16SAPS  H11A 2006   2.162   2.562   6.455  1.2655  1.9805  0.3624
   16SAPS  H11B 2007   2.316   2.622   6.425 -0.8087 -0.0958  1.7279
   16SAPS     P 2008   2.434   2.388   6.527 -0.3209  0.1818  0.1405
   16SAPS   O13 2009   2.416   2.254   6.591  0.3991 -0.0549 -0.2082
   16SAPS   O14 2010   2.554   2.410   6.445  0.6167 -0.1926 -0.3764
   16SAPS   O12 2011   2.315   2.408   6.435  0.2099 -0.7684 -0.2349
   16SAPS   O11 2012   2.428   2.498   6.639 -0.0710  0.6321 -0.5449
   16SAPS    C1 2013   2.433   2.470   6.781 -0.1213  0.4774 -0.0828
   16SAPS    HA 2014   2.436   2.365   6.819 -1.0028  0.8596  1.1003
   16SAPS    HB 2015   2.530   2.506   6.821  0.7392 -2.5971  0.8917
   16SAPS    C2 2016   2.325   2.557   6.870  0.4070  0.1689 -0.1798
   16SAPS    HS 2017   2.351   2.665   6.864 -2.2210  0.8396 -0.8934
   16SAPS   O21 2018   2.329   2.507   7.010  0.1266  0.4299  0.5741
   16SAPS   C21 2019   2.444   2.527   7.073  0.6781  0.0005 -0.4672
   16SAPS   O22 2020   2.541   2.591   7.043  0.4313  0.1743  0.0639
   16SAPS   C22 2021   2.422   2.463   7.208 -0.1788 -0.1569 -0.4757
   16SAPS   H2R 2022   2.446   2.543   7.281  0.1924 -1.9594  1.4845
   16SAPS   H2S 2023   2.314   2.442   7.225  0.0069  0.6720  2.0254
   16SAPS    C3 2024   2.179   2.551   6.812 -0.3872 -0.7406 -0.2459
   16SAPS    HX 2025   2.161   2.441   6.804  3.0907 -1.4532  0.0332
   16SAPS    HY 2026   2.193   2.583   6.706  2.5600  0.5376  0.4081
   16SAPS   O31 2027   2.080   2.621   6.886 -0.4408 -0.1891 -0.1731
   16SAPS   C31 2028   2.055   2.748   6.841 -0.1094 -0.4024  0.0642
   16SAPS   O32 2029   2.115   2.802   6.750  0.4498  0.0323  0.3972
   16SAPS   C32 2030   1.953   2.818   6.924 -0.5199  0.3631  0.5594
   16SAPS   H2X 2031   1.937   2.915   6.872 -0.2431  1.2191  2.0159
   16SAPS   H2Y 2032   1.998   2.838   7.023  3.5479  0.1095 -1.0294
   16SAPS   C23 2033   2.502   2.332   7.234  0.0925 -0.2061  0.0661
   16SAPS   H3R 2034   2.491   2.294   7.338  1.8021  1.9047  1.0703
   16SAPS   H3S 2035   2.606   2.366   7.218  0.6211 -0.3634  2.7953
   16SAPS   C24 2036   2.466   2.219   7.138  0.1274  0.1702 -0.7183
   16SAPS   H4R 2037   2.538   2.136   7.154  0.3292  0.5627  0.4991
   16SAPS   H4S 2038   2.486   2.254   7.034  0.3449 -0.4285 -0.8818
   16SAPS   C25 2039   2.319   2.164   7.150 -0.4683  0.2980 -0.0749
   16SAPS   H5R 2040   2.245   2.231   7.105 -0.5863 -0.1816 -0.5990
   16SAPS   C26 2041   2.286   2.042   7.209 -0.1734 -0.0473  0.4496
   16SAPS   H6R 2042   2.179   2.018   7.211 -0.4271  0.9220 -0.3738
   16SAPS   C27 2043   2.394   1.943   7.259  0.3477  0.6938 -0.1546
   16SAPS   H7R 2044   2.427   1.978   7.359 -1.8084  2.0530  0.1388
   16SAPS   H7S 2045   2.490   1.945   7.201  0.5978  2.8521  0.2465
   16SAPS   C28 2046   2.345   1.799   7.267  0.5500 -0.1145  0.6477
   16SAPS   H8R 2047   2.278   1.769   7.185 -0.2747  0.6054  1.0464
   16SAPS   C29 2048   2.381   1.712   7.357  0.0039  0.2703 -0.1889
   16SAPS   H9R 2049   2.328   1.615   7.355 -1.8400  1.2228 -1.8689
   16SAPS  C210 2050   2.473   1.735   7.476  0.1246  1.6996  0.0821
   16SAPS  H10R 2051   2.419   1.771   7.566 -0.7923 -0.6391  0.5231
   16SAPS  H10S 2052   2.551   1.805   7.438  1.5731  0.8421  1.3568
   16SAPS  C211 2053   2.554   1.608   7.518 -0.3956  0.1118  0.2025
   16SAPS  H11R 2054   2.596   1.549   7.436  1.5259 -1.6558  2.2983
   16SAPS  C212 2055   2.574   1.560   7.642  0.0233  0.3300  0.0526
   16SAPS  H12R 2056   2.646   1.478   7.655  3.2481  2.5653 -2.2166
   16SAPS  C213 2057   2.525   1.624   7.769 -0.2831 -0.7742 -0.2221
   16SAPS  H13R 2058   2.470   1.720   7.764  2.5134  1.0246  0.8850
   16SAPS  H13S 2059   2.621   1.662   7.811  0.5143  2.2487 -4.1715
   16SAPS  C214 2060   2.459   1.525   7.860 -0.1239  0.0949  0.0753
   16SAPS  H14R 2061   2.378   1.469   7.813  3.2653 -2.5940 -3.1696
   16SAPS  C215 2062   2.470   1.526   7.990 -0.3347  0.9306 -0.4941
   16SAPS  H15R 2063   2.408   1.450   8.041 -1.9556  3.5710  1.7161
   16SAPS  C216 2064   2.561   1.611   8.072 -0.1910 -0.1407  0.2578
   16SAPS  H16R 2065   2.664   1.612   8.031 -0.7153 -0.7751 -1.1514
   16SAPS  H16S 2066   2.569   1.566   8.173  0.6199  1.2619  0.8599
   16SAPS  C217 2067   2.517   1.749   8.087  0.0666 -0.6549 -0.3697
   16SAPS  H17R 2068   2.413   1.754   8.128  0.4508  0.5797  0.4995
   16SAPS  H17S 2069   2.497   1.806   7.994 -4.9118 -2.1444 -0.5042
   16SAPS  C218 2070   2.604   1.820   8.187  0.0524 -0.5522  0.1215
   16SAPS  H18R 2071   2.708   1.832   8.151 -0.1318 -0.3326 -0.3383
   16SAPS  H18S 2072   2.604   1.762   8.282 -2.8720 -1.6876 -0.4601
   16SAPS  C219 2073   2.550   1.952   8.223 -0.4251  0.2344 -0.3971
   16SAPS  H19R 2074   2.454   1.940   8.278 -1.8355  0.7404 -2.6134
   16SAPS  H19S 2075   2.521   2.012   8.134 -0.3337  2.9741  1.3343
   16SAPS  C220 2076   2.650   2.037   8.306  0.1827  0.0672  0.4726
   16SAPS  H20R 2077   2.606   2.138   8.318  1.4900  0.4781  2.0405
   16SAPS  H20S 2078   2.747   2.049   8.255  0.5468  2.3868  1.6113
   16SAPS  H20T 2079   2.676   1.990   8.403  1.3410  0.0559  0.1730
   16SAPS   C33 2080   1.813   2.753   6.929  0.2171 -0.4229  0.3315
   16SAPS   H3X 2081   1.816   2.648   6.966 -0.7082  0.3557  2.7835
   16SAPS   H3Y 2082   1.767   2.753   6.827  1.0665  3.3754 -0.1895
   16SAPS   C34 2083   1.720   2.829   7.020 -0.4110 -0.7712  0.0741
   16SAPS   H4X 2084   1.618   2.784   7.018 -0.2441 -1.1557  0.1459
   16SAPS   H4Y 2085   1.717   2.932   6.978  0.8430 -0.2076  1.3057
   16SAPS   C35 2086   1.762   2.818   7.165 -0.5482 -0.3607 -0.2076
   16SAPS   H5X 2087   1.836   2.899   7.181 -3.0667  2.0819 -0.0401
   16SAPS   H5Y 2088   1.792   2.714   7.190 -3.0658 -0.7184  1.6718
   16SAPS   C36 2089   1.643   2.862   7.254 -0.1837 -0.2420  1.1848
   16SAPS   H6X 2090   1.552   2.799   7.241  0.0717 -0.3592 -0.0857
   16SAPS   H6Y 2091   1.626   2.964   7.214  1.7845 -1.3364 -2.9303
   16SAPS   C37 2092   1.667   2.869   7.403 -0.6943 -0.3788  0.5560
   16SAPS   H7X 2093   1.773   2.901   7.419 -0.4861 -1.1889  0.8645
   16SAPS   H7Y 2094   1.643   2.773   7.453 -2.4141  1.1695  2.9500
   16SAPS   C38 2095   1.573   2.975   7.471  0.3604  0.5285  0.0964
   16SAPS   H8X 2096   1.474   2.931   7.446  0.2283  0.2793  1.0381
   16SAPS   H8Y 2097   1.581   3.075   7.422  1.7299 -0.0592 -0.9231
   16SAPS   C39 2098   1.579   2.975   7.620  0.5412 -0.0706 -0.1683
   16SAPS   H9X 2099   1.670   3.024   7.662  1.1176 -0.4751 -0.9311
   16SAPS   H9Y 2100   1.576   2.871   7.658  1.3362 -1.0241 -2.5432
   16SAPS  C310 2101   1.460   3.050   7.679  0.0162 -0.5373 -0.2583
   16SAPS  H10X 2102   1.366   3.001   7.647 -1.5381  1.3838  1.0969
   16SAPS  H10Y 2103   1.433   3.141   7.622 -3.1483 -1.3528 -0.2556
   16SAPS  C311 2104   1.469   3.079   7.825 -0.4154 -0.2138 -0.1656
   16SAPS  H11X 2105   1.539   3.164   7.844 -0.0312 -0.3806 -0.7864
   16SAPS  H11Y 2106   1.512   2.989   7.873  0.7529  0.2244 -0.3588
   16SAPS  C312 2107   1.329   3.116   7.889 -0.2317  0.4700  0.4449
   16SAPS  H12X 2108   1.253   3.041   7.857  0.1413 -0.1502  0.9818
   16SAPS  H12Y 2109   1.303   3.218   7.853 -1.1397 -0.3501 -1.3662
   16SAPS  C313 2110   1.330   3.122   8.048 -0.7299  0.0032 -0.4385
   16SAPS  H13X 2111   1.258   3.196   8.090  0.1275  0.4130  0.3642
   16SAPS  H13Y 2112   1.425   3.171   8.080 -1.6051  1.7367 -0.3966
   16SAPS  C314 2113   1.310   2.993   8.132 -0.1452 -0.5764 -0.4641
   16SAPS  H14X 2114   1.392   2.922   8.109  0.0956  0.3962 -2.9605
   16SAPS  H14Y 2115   1.219   2.947   8.088 -0.2891  0.4456 -1.2987
   16SAPS  C315 2116   1.296   3.014   8.288  0.6139 -0.1264  0.1004
   16SAPS  H15X 2117   1.199   3.062   8.310  1.0212  0.4356  0.7042
   16SAPS  H15Y 2118   1.387   3.072   8.315  0.0043  0.2517  1.4029
   16SAPS  C316 2119   1.304   2.872   8.350 -1.1014 -0.2420 -0.1627
   16SAPS  H16X 2120   1.257   2.807   8.274  1.0760 -0.2275 -1.6431
   16SAPS  H16Y 2121   1.250   2.858   8.446 -0.2347 -0.5583  0.2905
   16SAPS  C317 2122   1.455   2.829   8.367 -0.3241 -0.6682 -0.1191
   16SAPS  H17X 2123   1.498   2.854   8.268  0.7499 -1.3462  0.1688
   16SAPS  H17Y 2124   1.454   2.720   8.385  0.8187 -0.6084  0.3740
   16SAPS  C318 2125   1.531   2.894   8.483  0.5712 -0.2591  0.2514
   16SAPS  H18X 2126   1.490   2.872   8.583  0.7186 -0.2369  0.3169
   16SAPS  H18Y 2127   1.523   3.004   8.466  1.2966 -0.3369 -0.6828
   16SAPS  H18Z 2128   1.639   2.869   8.488  0.3978 -0.8732  1.0830
   17SAPC     N 2129   6.511   1.836  10.874 -0.0482  0.0987 -0.0547
   17SAPC   C12 2130   6.445   1.819  10.742 -0.5336  0.4148  0.5832
   17SAPC  H12A 2131   6.338   1.827  10.756 -0.4159  1.5608  0.9972
   17SAPC  H12B 2132   6.468   1.720  10.707 -1.1075  0.5304 -0.1263
   17SAPC   C13 2133   6.456   1.735  10.965 -0.3200  0.0994 -0.3995
   17SAPC  H13A 2134   6.502   1.640  10.943  0.6248  0.2090  0.9697
   17SAPC  H13B 2135   6.489   1.755  11.066 -0.3337 -1.2713 -0.1007
   17SAPC  H13C 2136   6.349   1.721  10.965 -0.5563  1.7003 -0.6729
   17SAPC   C14 2137   6.660   1.810  10.864  0.1176  0.1016 -0.0321
   17SAPC  H14A 2138   6.709   1.879  10.797 -1.1655  1.7008  0.5811
   17SAPC  H14B 2139   6.706   1.827  10.961 -0.4491  0.7967  0.1264
   17SAPC  H14C 2140   6.685   1.714  10.824  3.6135  0.9825 -0.2669
   17SAPC   C15 2141   6.498   1.979  10.924  0.1003 -0.2393 -0.3399
   17SAPC  H15A 2142   6.559   1.999  11.010 -0.9669 -0.1349  0.4158
   17SAPC  H15B 2143   6.520   2.044  10.840 -2.4770  1.3790  0.1191
   17SAPC  H15C 2144   6.395   2.008  10.945  0.1236 -0.7481  0.5075
   17SAPC   C11 2145   6.501   1.912  10.632  1.0739 -0.9567  0.7728
   17SAPC  H11A 2146   6.463   1.873  10.535  2.0718  0.2035 -0.1254
   17SAPC  H11B 2147   6.612   1.915  10.632  1.0810 -0.0509  2.4562
   17SAPC     P 2148   6.312   2.099  10.622  0.0705 -0.1366 -0.1944
   17SAPC   O13 2149   6.224   1.984  10.602  0.0610 -0.0730 -0.2870
   17SAPC   O14 2150   6.269   2.191  10.729  0.3856 -0.1069 -0.0162
   17SAPC   O12 2151   6.456   2.050  10.654 -0.4645  0.3576 -0.0332
   17SAPC   O11 2152   6.315   2.169  10.480  0.5553 -0.4027 -0.1842
   17SAPC    C1 2153   6.419   2.137  10.388  0.1368  0.2990  0.2232
   17SAPC    HA 2154   6.521   2.129  10.431  0.3165 -0.5074 -0.3273
   17SAPC    HB 2155   6.398   2.034  10.350  0.1578 -0.2515  1.6287
   17SAPC    C2 2156   6.415   2.227  10.268  0.0115 -0.2005  0.6470
   17SAPC    HS 2157   6.426   2.330  10.308 -0.1898  1.3189 -2.8450
   17SAPC   O21 2158   6.287   2.207  10.203  0.2882 -0.4777  0.3381
   17SAPC   C21 2159   6.232   2.313  10.142  0.7684 -0.2372  0.5934
   17SAPC   O22 2160   6.281   2.422  10.119  0.0058 -0.1546  0.0018
   17SAPC   C22 2161   6.088   2.276  10.090 -0.3437  0.0273 -0.2540
   17SAPC   H2R 2162   6.111   2.196  10.015  1.9291 -0.1718  0.5989
   17SAPC   H2S 2163   6.020   2.240  10.169  0.2750  0.1436  0.3369
   17SAPC    C3 2164   6.541   2.209  10.175  0.3100 -0.7599 -0.3001
   17SAPC    HX 2165   6.536   2.110  10.125 -1.0480 -1.2695  0.7814
   17SAPC    HY 2166   6.634   2.202  10.236  0.0201  0.6462  0.3448
   17SAPC   O31 2167   6.553   2.319  10.087 -0.0041  0.2401  0.0710
   17SAPC   C31 2168   6.506   2.298   9.959  0.0944 -0.2190 -0.2210
   17SAPC   O32 2169   6.467   2.195   9.916  0.2931  0.3699  0.8301
   17SAPC   C32 2170   6.517   2.432   9.885  0.2118  0.7845  0.0814
   17SAPC   H2X 2171   6.569   2.511   9.942  0.1999 -1.2759  3.1950
   17SAPC   H2Y 2172   6.409   2.457   9.875 -0.0296 -0.6919 -1.5129
   17SAPC   C23 2173   6.026   2.398  10.014  0.0105 -0.6844  0.4476
   17SAPC   H3R 2174   6.037   2.487  10.079  4.6932  0.3431 -1.3880
   17SAPC   H3S 2175   5.919   2.376   9.993 -0.6053  2.5734 -0.3114
   17SAPC   C24 2176   6.097   2.427   9.877 -0.8436 -0.7568  0.2099
   17SAPC   H4R 2177   6.195   2.474   9.899 -0.6162 -1.0573 -0.1383
   17SAPC   H4S 2178   6.042   2.516   9.840  0.3285  0.6833  1.7662
   17SAPC   C25 2179   6.104   2.309   9.778 -0.5629  0.5359  1.0510
   17SAPC   H5R 2180   6.152   2.212   9.799  0.8887  0.4432 -2.1285
   17SAPC   C26 2181   6.089   2.322   9.645  0.5534  1.0719  0.2517
   17SAPC   H6R 2182   6.100   2.234   9.581 -0.0707  0.1100  1.4265
   17SAPC   C27 2183   6.055   2.447   9.572  0.4766  0.1270  0.1503
   17SAPC   H7R 2184   6.151   2.492   9.539  0.3742 -0.0540 -0.3884
   17SAPC   H7S 2185   6.009   2.529   9.631 -1.4262 -0.6570 -0.1891
   17SAPC   C28 2186   5.956   2.426   9.458  0.2923 -0.0496  0.9135
   17SAPC   H8R 2187   5.848   2.435   9.475 -0.3047 -0.7794 -1.9739
   17SAPC   C29 2188   5.995   2.365   9.340 -0.0050 -0.2595 -0.3125
   17SAPC   H9R 2189   5.928   2.368   9.253 -0.8106  2.6637  0.3120
   17SAPC  C210 2190   6.136   2.324   9.308 -0.0103 -0.1331  0.6477
   17SAPC  H10R 2191   6.138   2.233   9.245 -1.6645 -0.2465  0.7090
   17SAPC  H10S 2192   6.207   2.316   9.392  0.8942  1.7106  0.1165
   17SAPC  C211 2193   6.203   2.436   9.232  0.3655 -0.7071  0.2867
   17SAPC  H11R 2194   6.242   2.516   9.296 -1.0349 -0.5652  1.0034
   17SAPC  C212 2195   6.214   2.441   9.093 -0.7902 -0.6168  0.3122
   17SAPC  H12R 2196   6.271   2.527   9.054 -0.2594  0.0721  2.4470
   17SAPC  C213 2197   6.161   2.356   8.980 -0.5710 -0.5974 -0.2254
   17SAPC  H13R 2198   6.105   2.285   9.045  1.9008 -3.4944 -1.0151
   17SAPC  H13S 2199   6.238   2.292   8.932 -0.5399 -1.9144  1.4548
   17SAPC  C214 2200   6.067   2.423   8.879  0.0061  0.4232  0.6472
   17SAPC  H14R 2201   5.967   2.455   8.912 -1.0324  0.8878 -2.6328
   17SAPC  C215 2202   6.090   2.438   8.749  0.0258  0.1408  0.2852
   17SAPC  H15R 2203   6.012   2.478   8.683 -1.2418 -1.4690  0.7494
   17SAPC  C216 2204   6.212   2.390   8.682  0.4358  0.4917  0.3276
   17SAPC  H16R 2205   6.172   2.293   8.643  0.0587  0.4658  0.7691
   17SAPC  H16S 2206   6.301   2.376   8.746  0.9569  0.1681 -0.4551
   17SAPC  C217 2207   6.263   2.480   8.567  0.3564  0.3040  0.3842
   17SAPC  H17R 2208   6.281   2.584   8.601  3.0887 -0.3822  1.2769
   17SAPC  H17S 2209   6.174   2.497   8.503 -0.3949 -1.0934  0.9975
   17SAPC  C218 2210   6.383   2.423   8.494  0.0101 -0.4822  0.3906
   17SAPC  H18R 2211   6.463   2.418   8.570  0.4243  0.9040  0.0696
   17SAPC  H18S 2212   6.404   2.495   8.413 -1.2876 -3.3959 -2.8142
   17SAPC  C219 2213   6.362   2.282   8.429  0.2862 -0.0990 -0.3394
   17SAPC  H19R 2214   6.290   2.301   8.347  1.5091  1.5279 -1.1013
   17SAPC  H19S 2215   6.308   2.213   8.497  0.4090 -1.4295 -1.5538
   17SAPC  C220 2216   6.491   2.219   8.382  0.2609 -0.1425 -0.3183
   17SAPC  H20R 2217   6.472   2.111   8.366 -0.9617  0.0666 -0.3232
   17SAPC  H20S 2218   6.564   2.220   8.466 -2.6848  0.5852  2.4198
   17SAPC  H20T 2219   6.533   2.265   8.290 -1.9024  0.8214 -0.8860
   17SAPC   C33 2220   6.595   2.406   9.755 -0.5525  0.2710 -0.4749
   17SAPC   H3X 2221   6.691   2.354   9.775 -0.1076  1.1479 -0.2951
   17SAPC   H3Y 2222   6.636   2.505   9.729 -1.3849  1.0157  0.9370
   17SAPC   C34 2223   6.509   2.350   9.638 -0.0093 -0.2682 -0.4539
   17SAPC   H4X 2224   6.399   2.362   9.652 -0.0910 -0.0241 -1.2424
   17SAPC   H4Y 2225   6.525   2.240   9.636  0.5749 -0.2108  0.6631
   17SAPC   C35 2226   6.541   2.415   9.502 -1.0032  0.2625  0.0864
   17SAPC   H5X 2227   6.515   2.523   9.510 -1.0639  0.3248 -0.8183
   17SAPC   H5Y 2228   6.485   2.362   9.421  0.8923 -1.4905 -0.1516
   17SAPC   C36 2229   6.696   2.411   9.476 -0.3739  0.9061 -0.5565
   17SAPC   H6X 2230   6.717   2.303   9.482 -0.0863  1.0393  1.5315
   17SAPC   H6Y 2231   6.764   2.461   9.549 -0.7960  1.5613 -0.5990
   17SAPC   C37 2232   6.742   2.465   9.341 -0.1147  0.6193 -0.6855
   17SAPC   H7X 2233   6.764   2.573   9.353 -1.7529  0.9378 -0.2526
   17SAPC   H7Y 2234   6.663   2.461   9.262  0.1217 -0.3802 -0.8923
   17SAPC   C38 2235   6.869   2.395   9.288  0.0146 -0.9483  0.5090
   17SAPC   H8X 2236   6.854   2.285   9.283  1.6723 -1.1560 -0.7049
   17SAPC   H8Y 2237   6.952   2.414   9.359  0.2713  0.5969 -0.1498
   17SAPC   C39 2238   6.899   2.448   9.151 -0.4860 -0.0236  0.8437
   17SAPC   H9X 2239   6.999   2.404   9.133 -0.0977  0.1031  2.5777
   17SAPC   H9Y 2240   6.906   2.559   9.142 -1.6646  0.0951  1.2642
   17SAPC  C310 2241   6.800   2.408   9.042  0.2893  0.1994 -0.9527
   17SAPC  H10X 2242   6.699   2.453   9.051 -0.6459 -1.6248 -1.7563
   17SAPC  H10Y 2243   6.792   2.297   9.051  0.8342  0.3269  1.7312
   17SAPC  C311 2244   6.856   2.442   8.899 -0.4577  0.5554 -0.1302
   17SAPC  H11X 2245   6.958   2.400   8.910 -0.9479 -0.3659  1.1904
   17SAPC  H11Y 2246   6.866   2.553   8.891  0.7648  0.5845  1.3304
   17SAPC  C312 2247   6.793   2.378   8.776  0.4583  0.4067 -0.0098
   17SAPC  H12X 2248   6.688   2.411   8.759  0.1994 -0.5931 -0.4307
   17SAPC  H12Y 2249   6.788   2.267   8.774 -0.0808  0.4217 -2.2386
   17SAPC  C313 2250   6.882   2.422   8.655 -0.0566  0.3807 -0.0538
   17SAPC  H13X 2251   6.884   2.344   8.575 -1.4577  1.2017 -0.9206
   17SAPC  H13Y 2252   6.987   2.419   8.691 -0.2968 -2.2977  0.6511
   17SAPC  C314 2253   6.834   2.555   8.603 -0.0509  0.8799 -0.1861
   17SAPC  H14X 2254   6.919   2.611   8.558  1.9895 -1.9389 -0.1665
   17SAPC  H14Y 2255   6.802   2.618   8.689 -0.5546 -0.9951  1.0744
   17SAPC  C315 2256   6.729   2.537   8.488  1.0070 -0.2227  0.1960
   17SAPC  H15X 2257   6.660   2.452   8.510  0.7868 -0.0478  0.1890
   17SAPC  H15Y 2258   6.787   2.521   8.395  2.9519  1.9272  0.9453
   17SAPC  C316 2259   6.625   2.655   8.477  0.0540 -0.2033 -0.0315
   17SAPC  H16X 2260   6.570   2.656   8.573 -0.1933  2.0659 -0.1310
   17SAPC  H16Y 2261   6.560   2.630   8.390 -0.1638 -0.6940  0.2701
   17SAPC  C317 2262   6.678   2.791   8.451 -1.3223 -0.9070 -0.0311
   17SAPC  H17X 2263   6.705   2.796   8.344  0.5546 -0.1141  0.4362
   17SAPC  H17Y 2264   6.763   2.799   8.523 -1.8952  0.9379  0.5091
   17SAPC  C318 2265   6.569   2.890   8.489  0.1246  0.2006  0.0041
   17SAPC  H18X 2266   6.482   2.881   8.421  1.5047  2.2227 -2.2071
   17SAPC  H18Y 2267   6.524   2.861   8.586 -0.2883 -1.5521 -0.6634
   17SAPC  H18Z 2268   6.609   2.994   8.490  1.1516 -0.1814  0.4972
   18SAPC     N 2269   3.110   3.047  10.788 -0.2096 -0.9596 -0.7434
   18SAPC   C12 2270   2.961   3.004  10.774  0.0802  0.2971  0.3602
   18SAPC  H12A 2271   2.900   3.094  10.775  0.2433  0.4058  1.2569
   18SAPC  H12B 2272   2.932   2.942  10.858 -1.7473 -0.1572 -0.5418
   18SAPC   C13 2273   3.130   3.126  10.913  0.0380 -0.0220 -0.3986
   18SAPC  H13A 2274   3.125   3.066  11.002 -0.1238  1.4701  0.6298
   18SAPC  H13B 2275   3.230   3.167  10.913  1.0122 -2.2161  1.8185
   18SAPC  H13C 2276   3.058   3.207  10.922  2.6409  2.4183 -0.2166
   18SAPC   C14 2277   3.202   2.929  10.811  0.5254 -0.1222 -0.5025
   18SAPC  H14A 2278   3.208   2.875  10.717 -0.1404 -0.7699 -0.1896
   18SAPC  H14B 2279   3.297   2.970  10.840  0.9006 -1.0319 -0.3862
   18SAPC  H14C 2280   3.172   2.865  10.894 -1.1371  1.8792  0.5249
   18SAPC   C15 2281   3.153   3.136  10.674 -0.2465 -0.1531  0.0233
   18SAPC  H15A 2282   3.085   3.220  10.669 -1.1638 -0.6946  2.3083
   18SAPC  H15B 2283   3.258   3.163  10.686 -0.7271  1.7859  0.2874
   18SAPC  H15C 2284   3.145   3.080  10.582 -0.2314 -0.6827  0.3472
   18SAPC   C11 2285   2.924   2.923  10.649 -0.5942  0.0569 -0.3620
   18SAPC  H11A 2286   3.005   2.850  10.624 -1.2843 -0.8099 -0.1404
   18SAPC  H11B 2287   2.922   2.980  10.553  3.3953  0.0956 -0.5700
   18SAPC     P 2288   2.794   2.700  10.678 -0.2959 -0.3533  0.1593
   18SAPC   O13 2289   2.928   2.638  10.705 -0.2924  0.2383  0.1252
   18SAPC   O14 2290   2.680   2.671  10.768 -0.6834  0.4300 -1.2401
   18SAPC   O12 2291   2.802   2.861  10.681  0.1451 -0.5179  0.0823
   18SAPC   O11 2292   2.750   2.665  10.530 -0.1632 -0.1161 -0.0577
   18SAPC    C1 2293   2.797   2.735  10.410  0.8307 -0.0825 -0.3317
   18SAPC    HA 2294   2.890   2.788  10.438  0.4396 -0.4026  1.7664
   18SAPC    HB 2295   2.812   2.659  10.330  1.1660  0.1223 -0.4644
   18SAPC    C2 2296   2.692   2.841  10.355  0.0686 -0.2306 -0.2149
   18SAPC    HS 2297   2.642   2.885  10.444 -0.0990 -0.3721 -0.2386
   18SAPC   O21 2298   2.593   2.771  10.281  0.3970 -0.1777  0.6520
   18SAPC   C21 2299   2.484   2.845  10.262  0.8029  0.5693  0.6306
   18SAPC   O22 2300   2.464   2.959  10.297  0.1878 -0.3805  0.3227
   18SAPC   C22 2301   2.381   2.761  10.179 -0.1278  0.3637 -0.1840
   18SAPC   H2R 2302   2.379   2.658  10.221 -2.1899  0.6138  0.4478
   18SAPC   H2S 2303   2.279   2.801  10.194 -0.3076 -0.5735  1.2976
   18SAPC    C3 2304   2.763   2.951  10.274 -0.4847  0.2265 -0.0862
   18SAPC    HX 2305   2.814   3.002  10.359  0.1111 -1.2339  0.4791
   18SAPC    HY 2306   2.684   3.019  10.235 -0.0937 -0.6735 -2.6546
   18SAPC   O31 2307   2.851   2.898  10.175  0.0854 -0.3010 -0.1987
   18SAPC   C31 2308   2.810   2.874  10.052  0.2003  0.7225  0.7462
   18SAPC   O32 2309   2.697   2.881  10.016  0.0697  0.8770 -0.0143
   18SAPC   C32 2310   2.931   2.835   9.966 -1.1647 -0.0769 -0.0951
   18SAPC   H2X 2311   2.966   2.736  10.001 -0.3828 -0.4323 -1.7984
   18SAPC   H2Y 2312   3.015   2.907   9.984 -0.7309 -1.0954  2.3357
   18SAPC   C23 2313   2.406   2.742  10.028 -0.1327  0.4674  0.1986
   18SAPC   H3R 2314   2.507   2.707   9.996 -0.1801  2.1892 -2.0833
   18SAPC   H3S 2315   2.404   2.844   9.984  0.0460  1.0455  1.4956
   18SAPC   C24 2316   2.279   2.674   9.973  0.4296 -0.2756  0.1303
   18SAPC   H4R 2317   2.190   2.739   9.981 -0.4370 -1.5510  1.4178
   18SAPC   H4S 2318   2.247   2.582  10.027 -2.4508  0.7080  0.2633
   18SAPC   C25 2319   2.295   2.641   9.827  0.2086 -0.1993  0.1880
   18SAPC   H5R 2320   2.399   2.635   9.792  0.2568 -0.8215  0.4256
   18SAPC   C26 2321   2.202   2.600   9.736  0.2665 -0.1274  0.3527
   18SAPC   H6R 2322   2.229   2.564   9.636 -1.5092 -2.0484  0.4972
   18SAPC   C27 2323   2.058   2.564   9.769 -0.4083 -0.4688  0.0706
   18SAPC   H7R 2324   2.052   2.506   9.864  0.5392  0.0360  0.4554
   18SAPC   H7S 2325   2.006   2.498   9.696 -3.2329  3.2595 -1.6279
   18SAPC   C28 2326   1.969   2.683   9.773  0.2535 -0.2030  0.3476
   18SAPC   H8R 2327   1.973   2.728   9.873  1.0712 -0.0490  0.2534
   18SAPC   C29 2328   1.873   2.729   9.683 -0.1370 -0.0431 -0.1883
   18SAPC   H9R 2329   1.816   2.819   9.708 -0.8464  0.2189 -2.5559
   18SAPC  C210 2330   1.850   2.677   9.544 -0.2728 -0.5123 -0.0814
   18SAPC  H10R 2331   1.743   2.683   9.514 -1.4186 -1.3952  3.3085
   18SAPC  H10S 2332   1.867   2.569   9.563  3.2004 -0.1753 -0.6049
   18SAPC  C211 2333   1.949   2.716   9.442 -0.4689 -0.4709 -0.3958
   18SAPC  H11R 2334   2.058   2.705   9.458 -0.6511 -2.1323 -0.1208
   18SAPC  C212 2335   1.911   2.785   9.333 -0.4447 -0.4498 -0.3990
   18SAPC  H12R 2336   1.983   2.824   9.259  0.2310  2.0056  1.4042
   18SAPC  C213 2337   1.771   2.824   9.297  0.6561 -0.0090 -0.2580
   18SAPC  H13R 2338   1.712   2.853   9.387  2.2269  2.0369  0.1918
   18SAPC  H13S 2339   1.726   2.750   9.228 -0.4807  1.6849 -1.4388
   18SAPC  C214 2340   1.782   2.954   9.221  0.4054 -0.2953 -0.1081
   18SAPC  H14R 2341   1.785   3.047   9.279  1.8064  1.3007 -2.5396
   18SAPC  C215 2342   1.799   2.962   9.088 -0.4643 -0.3933  0.3852
   18SAPC  H15R 2343   1.803   3.065   9.052  0.7504  0.2286  2.1691
   18SAPC  C216 2344   1.800   2.852   8.989  0.9004  1.0929  0.0445
   18SAPC  H16R 2345   1.842   2.758   9.030 -3.4585 -1.2471 -0.2136
   18SAPC  H16S 2346   1.869   2.870   8.904  2.7753 -0.4888  1.1638
   18SAPC  C217 2347   1.654   2.823   8.938 -0.4012  0.2696 -0.0135
   18SAPC  H17R 2348   1.625   2.915   8.883  0.3752  0.8565  0.5430
   18SAPC  H17S 2349   1.589   2.806   9.027  0.3031 -0.6029  0.3523
   18SAPC  C218 2350   1.658   2.704   8.842 -0.3095  0.4552  0.6769
   18SAPC  H18R 2351   1.716   2.618   8.882  2.6483  1.7753 -0.5127
   18SAPC  H18S 2352   1.709   2.727   8.746  0.6501  1.1636  1.3483
   18SAPC  C219 2353   1.513   2.671   8.808 -0.2223 -0.1576 -1.4149
   18SAPC  H19R 2354   1.514   2.622   8.708  2.8073 -0.7450 -1.2001
   18SAPC  H19S 2355   1.456   2.765   8.797 -0.5859  0.0570  1.4651
   18SAPC  C220 2356   1.438   2.594   8.916  0.3847 -0.2249 -0.5054
   18SAPC  H20R 2357   1.466   2.626   9.018 -0.0894 -0.8808 -0.1610
   18SAPC  H20S 2358   1.465   2.486   8.910 -0.2993 -0.4453  0.2178
   18SAPC  H20T 2359   1.331   2.614   8.893  1.0014  2.9120 -1.1038
   18SAPC   C33 2360   2.900   2.828   9.818 -0.2454  0.2258 -0.7973
   18SAPC   H3X 2361   2.802   2.782   9.796 -0.1471 -1.1254  1.2879
   18SAPC   H3Y 2362   2.977   2.763   9.770  0.4083  0.8765 -0.6461
   18SAPC   C34 2363   2.906   2.968   9.754  0.0494 -0.3058  0.6404
   18SAPC   H4X 2364   3.002   3.019   9.777  0.3883 -0.4529 -0.4126
   18SAPC   H4Y 2365   2.834   3.031   9.812  1.0535 -0.4065  2.0345
   18SAPC   C35 2366   2.857   2.968   9.606 -0.0299  0.3616  0.1147
   18SAPC   H5X 2367   2.839   3.075   9.581 -1.2033 -0.0198 -0.7931
   18SAPC   H5Y 2368   2.756   2.921   9.611  0.0882 -0.0258 -0.8458
   18SAPC   C36 2369   2.952   2.908   9.495 -0.2200  0.7074 -0.5179
   18SAPC   H6X 2370   2.972   2.799   9.504 -0.5885  0.6070 -0.9004
   18SAPC   H6Y 2371   3.055   2.946   9.509  1.0698 -2.9344  1.1566
   18SAPC   C37 2372   2.911   2.944   9.356 -0.0869 -0.1102 -0.7028
   18SAPC   H7X 2373   3.012   2.968   9.315  0.2940 -0.9326 -0.2738
   18SAPC   H7Y 2374   2.840   3.028   9.366  0.2569 -0.0361  1.6029
   18SAPC   C38 2375   2.848   2.828   9.286 -0.2585  0.1078 -0.3165
   18SAPC   H8X 2376   2.759   2.818   9.352  0.3084  3.3856  1.1393
   18SAPC   H8Y 2377   2.914   2.741   9.305 -0.0846  0.4052  0.4631
   18SAPC   C39 2378   2.816   2.860   9.141 -0.3946 -0.6269 -0.0466
   18SAPC   H9X 2379   2.778   2.964   9.134  0.3057 -0.1862  1.9627
   18SAPC   H9Y 2380   2.743   2.786   9.101 -1.9583 -0.3242  2.1205
   18SAPC  C310 2381   2.948   2.845   9.052 -0.3441  0.6480  0.5559
   18SAPC  H10X 2382   2.975   2.741   9.082  1.1177  0.6021 -0.8210
   18SAPC  H10Y 2383   3.032   2.912   9.078  3.6168 -3.9622  1.0583
   18SAPC  C311 2384   2.922   2.839   8.902 -0.3735 -0.5446 -0.0402
   18SAPC  H11X 2385   2.878   2.934   8.866  0.7788 -1.2978 -3.9169
   18SAPC  H11Y 2386   2.843   2.764   8.879  0.2884 -0.4272 -3.1160
   18SAPC  C312 2387   3.040   2.798   8.808 -0.2133  0.3771 -0.6553
   18SAPC  H12X 2388   3.072   2.693   8.829  1.1971  0.9824  0.4232
   18SAPC  H12Y 2389   3.124   2.868   8.827  0.7198 -0.0266 -2.9353
   18SAPC  C313 2390   2.997   2.801   8.666  0.3178  0.6779  0.0053
   18SAPC  H13X 2391   3.082   2.845   8.610  1.8762 -0.9297  1.0043
   18SAPC  H13Y 2392   2.905   2.863   8.667  0.5103  0.9951 -1.1408
   18SAPC  C314 2393   2.962   2.665   8.603  0.0198  0.2105 -0.1112
   18SAPC  H14X 2394   2.869   2.622   8.646  0.3452 -0.0190  0.3763
   18SAPC  H14Y 2395   3.036   2.583   8.610  1.6384  1.4990 -1.3634
   18SAPC  C315 2396   2.932   2.691   8.457 -0.3698 -0.0362  1.0734
   18SAPC  H15X 2397   3.011   2.743   8.398 -1.0642  0.6438  0.7183
   18SAPC  H15Y 2398   2.853   2.769   8.454 -1.4225 -1.1032 -0.2348
   18SAPC  C316 2399   2.874   2.572   8.374 -0.2130  0.2469 -0.3963
   18SAPC  H16X 2400   2.779   2.534   8.418  0.9837 -0.7680  1.4348
   18SAPC  H16Y 2401   2.948   2.489   8.372  2.1007  2.1541  1.0593
   18SAPC  C317 2402   2.844   2.608   8.225 -0.4935  1.0219  0.0998
   18SAPC  H17X 2403   2.942   2.631   8.180  2.2848 -3.1894  3.2468
   18SAPC  H17Y 2404   2.776   2.695   8.236 -0.5925  0.9833 -0.2005
   18SAPC  C318 2405   2.775   2.504   8.133 -0.6419 -0.1004 -0.2439
   18SAPC  H18X 2406   2.839   2.416   8.109 -0.5478 -0.2800  0.6443
   18SAPC  H18Y 2407   2.755   2.552   8.035 -0.8123 -0.3852 -0.3485
   18SAPC  H18Z 2408   2.685   2.468   8.186  0.2182 -0.9375  0.7097
   19SAPC     N 2409   5.305   5.078  10.849  0.3837  0.1323  0.1248
   19SAPC   C12 2410   5.274   5.221  10.900  0.5586  0.0488 -0.1521
   19SAPC  H12A 2411   5.354   5.279  10.857 -1.8950  3.2110 -0.8346
   19SAPC  H12B 2412   5.285   5.215  11.007  2.1427 -0.8512 -0.3342
   19SAPC   C13 2413   5.293   5.074  10.701 -0.1501 -0.0308 -0.9103
   19SAPC  H13A 2414   5.289   4.968  10.680  2.9163 -0.5968  0.7576
   19SAPC  H13B 2415   5.208   5.129  10.666  0.1640  0.0955 -1.4852
   19SAPC  H13C 2416   5.379   5.117  10.652  1.4969 -1.3365  0.6397
   19SAPC   C14 2417   5.444   5.019  10.892  0.0710 -0.2861  0.2886
   19SAPC  H14A 2418   5.432   5.001  10.998 -1.9062 -2.1810 -0.1715
   19SAPC  H14B 2419   5.464   4.922  10.849  1.7137 -0.4975  1.4368
   19SAPC  H14C 2420   5.527   5.086  10.879  1.2315 -1.4393  1.4386
   19SAPC   C15 2421   5.201   4.990  10.909  0.2257 -0.4347  0.7134
   19SAPC  H15A 2422   5.101   5.029  10.902  0.0298 -1.1166 -0.6255
   19SAPC  H15B 2423   5.210   4.885  10.884 -1.3716 -0.1625 -1.3281
   19SAPC  H15C 2424   5.211   4.992  11.016 -0.0230  2.1790  0.7482
   19SAPC   C11 2425   5.141   5.292  10.861 -0.3239  0.4571 -0.2386
   19SAPC  H11A 2426   5.131   5.391  10.910 -1.0126  0.2639  0.0204
   19SAPC  H11B 2427   5.048   5.238  10.891 -0.9039  1.0104 -1.0258
   19SAPC     P 2428   5.026   5.399  10.662  0.2914  0.1101 -0.0692
   19SAPC   O13 2429   4.924   5.428  10.763  0.3671 -0.0202 -0.4274
   19SAPC   O14 2430   5.082   5.513  10.583  0.4947 -0.8086  0.4013
   19SAPC   O12 2431   5.144   5.304  10.718 -0.4276  0.7222 -0.0019
   19SAPC   O11 2432   4.965   5.294  10.554  0.1026 -0.0724  0.2714
   19SAPC    C1 2433   4.989   5.155  10.557 -0.3263  0.4166  0.5024
   19SAPC    HA 2434   5.092   5.139  10.518 -0.4280  3.8573 -1.5908
   19SAPC    HB 2435   4.996   5.118  10.662  0.7670 -0.5051  0.1277
   19SAPC    C2 2436   4.898   5.063  10.473  0.1958  0.7276 -0.1576
   19SAPC    HS 2437   4.923   4.958  10.498  1.7457  0.2842 -3.1160
   19SAPC   O21 2438   4.916   5.085  10.333  0.1271  0.4017  0.4435
   19SAPC   C21 2439   4.921   4.977  10.254 -0.1148  0.1419  0.4142
   19SAPC   O22 2440   4.922   4.859  10.289  0.5846 -0.2162  0.7372
   19SAPC   C22 2441   4.930   5.024  10.106 -0.5865  0.1866 -0.2649
   19SAPC   H2R 2442   4.900   5.131  10.099  2.3711  1.3716  2.4938
   19SAPC   H2S 2443   5.033   5.011  10.067  0.5093 -2.5526  3.0609
   19SAPC    C3 2444   4.746   5.089  10.502  0.2408 -0.2852 -0.4208
   19SAPC    HX 2445   4.735   5.199  10.491 -0.8092 -0.4378 -1.0286
   19SAPC    HY 2446   4.732   5.042  10.602  2.8845 -1.1702 -0.3740
   19SAPC   O31 2447   4.662   5.016  10.408 -0.2661 -0.2096  0.5634
   19SAPC   C31 2448   4.541   5.070  10.388 -0.4035 -0.6498  0.7418
   19SAPC   O32 2449   4.497   5.170  10.445  0.1763 -0.5969 -0.0745
   19SAPC   C32 2450   4.473   4.991  10.286 -0.5561  0.5234 -0.1514
   19SAPC   H2X 2451   4.374   4.950  10.311 -0.4591 -1.0301 -2.0216
   19SAPC   H2Y 2452   4.546   4.909  10.263  2.4721  2.3457  2.1475
   19SAPC   C23 2453   4.833   4.938  10.012 -0.3629  0.5636  0.1424
   19SAPC   H3R 2454   4.729   4.944  10.050 -0.4007  3.7647 -0.1664
   19SAPC   H3S 2455   4.869   4.834  10.020 -0.2104  0.7583  3.1529
   19SAPC   C24 2456   4.826   4.989   9.873  0.5963  0.4232 -0.4100
   19SAPC   H4R 2457   4.856   5.097   9.875  0.3032  0.5041 -0.4026
   19SAPC   H4S 2458   4.720   4.990   9.841  0.6123 -0.4274 -0.4973
   19SAPC   C25 2459   4.906   4.909   9.775  0.5690  0.1115  0.1190
   19SAPC   H5R 2460   4.849   4.821   9.740 -1.6024  1.3004  0.4748
   19SAPC   C26 2461   5.015   4.952   9.703  0.3554  0.1128  0.0182
   19SAPC   H6R 2462   5.056   4.887   9.624 -1.0541 -0.5201 -0.2299
   19SAPC   C27 2463   5.087   5.090   9.715  0.5063 -0.3283  0.2602
   19SAPC   H7R 2464   5.052   5.140   9.808  0.9509  0.5725 -0.0495
   19SAPC   H7S 2465   5.059   5.156   9.631  1.8778  0.7633  0.6316
   19SAPC   C28 2466   5.236   5.091   9.741  0.4874 -0.4554 -0.4760
   19SAPC   H8R 2467   5.255   5.097   9.849 -0.4775  2.3669 -0.3810
   19SAPC   C29 2468   5.336   5.085   9.654  0.1741  0.4058 -0.0251
   19SAPC   H9R 2469   5.437   5.096   9.696  0.5755  0.5150 -0.9868
   19SAPC  C210 2470   5.332   5.068   9.502  0.2968 -0.0272 -0.6390
   19SAPC  H10R 2471   5.246   5.003   9.476  1.7036 -1.8076 -0.9991
   19SAPC  H10S 2472   5.426   5.024   9.463  2.3887  4.0241 -0.7293
   19SAPC  C211 2473   5.313   5.203   9.436 -0.1535  0.4401 -0.7960
   19SAPC  H11R 2474   5.316   5.285   9.510  3.1312 -0.7420  0.5548
   19SAPC  C212 2475   5.288   5.232   9.308  0.2179 -0.1525 -0.4990
   19SAPC  H12R 2476   5.271   5.336   9.275 -5.6771 -0.8338 -0.7302
   19SAPC  C213 2477   5.287   5.122   9.206 -0.5090  0.2717 -0.4416
   19SAPC  H13R 2478   5.287   5.024   9.257 -2.3828 -0.1677 -1.1778
   19SAPC  H13S 2479   5.369   5.128   9.132  0.2566 -1.5610  0.2226
   19SAPC  C214 2480   5.163   5.132   9.130  0.5805 -0.0693  0.4270
   19SAPC  H14R 2481   5.086   5.056   9.151  1.1207 -0.3750  1.3654
   19SAPC  C215 2482   5.146   5.213   9.024  0.2377 -0.2280  0.1752
   19SAPC  H15R 2483   5.045   5.222   8.982  0.6968  0.6601 -0.8214
   19SAPC  C216 2484   5.240   5.323   8.965  0.4772  0.8242 -0.1676
   19SAPC  H16R 2485   5.329   5.335   9.032 -0.2735  1.3762  0.7511
   19SAPC  H16S 2486   5.203   5.427   8.971 -0.4782  0.5690 -1.3906
   19SAPC  C217 2487   5.285   5.274   8.827 -0.6211  0.2588  0.4824
   19SAPC  H17R 2488   5.198   5.285   8.759  0.7395 -0.0707 -1.4068
   19SAPC  H17S 2489   5.324   5.169   8.823 -2.4146 -0.4363  0.4584
   19SAPC  C218 2490   5.390   5.373   8.784  0.6254  0.5026 -0.3790
   19SAPC  H18R 2491   5.474   5.369   8.856 -0.4324 -1.3022  0.8432
   19SAPC  H18S 2492   5.349   5.474   8.803 -1.1376 -0.3269  0.4790
   19SAPC  C219 2493   5.423   5.359   8.638 -0.2884  0.0548 -0.1047
   19SAPC  H19R 2494   5.515   5.419   8.621 -0.6764  0.3042 -1.4089
   19SAPC  H19S 2495   5.337   5.394   8.577 -0.7273  0.8200  0.9277
   19SAPC  C220 2496   5.463   5.216   8.590 -0.4573 -0.5120  0.3687
   19SAPC  H20R 2497   5.383   5.141   8.605 -1.3657  0.5166  0.7494
   19SAPC  H20S 2498   5.561   5.178   8.626 -0.1566 -0.0249  0.0900
   19SAPC  H20T 2499   5.469   5.229   8.480 -1.2479 -2.3779  0.0682
   19SAPC   C33 2500   4.440   5.076  10.164 -0.0872  0.0015  0.2257
   19SAPC   H3X 2501   4.532   5.133  10.137  0.1111 -0.7178 -0.6240
   19SAPC   H3Y 2502   4.363   5.149  10.198  0.4695  0.5061  0.4286
   19SAPC   C34 2503   4.391   5.006  10.044 -0.1412 -0.4184 -0.2027
   19SAPC   H4X 2504   4.456   4.917  10.030  3.6737  1.7926  1.8134
   19SAPC   H4Y 2505   4.398   5.074   9.956 -3.3638  0.4052  0.0671
   19SAPC   C35 2506   4.242   4.961  10.050 -0.3030  0.5876 -0.2007
   19SAPC   H5X 2507   4.168   5.043  10.064 -1.1008 -0.0839 -0.3966
   19SAPC   H5Y 2508   4.228   4.895  10.138  1.7143 -1.0401 -1.0277
   19SAPC   C36 2509   4.198   4.881   9.927  0.4146 -0.2868  0.3061
   19SAPC   H6X 2510   4.114   4.810   9.949  0.0514 -0.1742 -0.6597
   19SAPC   H6Y 2511   4.269   4.810   9.881  0.2434 -1.9271  2.4025
   19SAPC   C37 2512   4.156   4.972   9.804 -0.4560 -0.2609  0.0780
   19SAPC   H7X 2513   4.236   5.043   9.774 -1.5494  0.4317 -1.3138
   19SAPC   H7Y 2514   4.069   5.021   9.853  2.1039  2.0110  2.6961
   19SAPC   C38 2515   4.087   4.898   9.691  0.2434  0.3940  0.5878
   19SAPC   H8X 2516   4.138   4.804   9.663  2.1769  1.0579  1.7178
   19SAPC   H8Y 2517   4.097   4.975   9.612 -2.0863  0.4543  0.2763
   19SAPC   C39 2518   3.940   4.862   9.717  0.3963  0.1747 -0.8176
   19SAPC   H9X 2519   3.882   4.953   9.742  0.8502  0.1834  0.2748
   19SAPC   H9Y 2520   3.927   4.793   9.804 -0.7666 -0.4416 -1.4524
   19SAPC  C310 2521   3.874   4.788   9.606  0.4295 -0.4952 -0.1443
   19SAPC  H10X 2522   3.766   4.795   9.633  1.1982  2.3686  2.7398
   19SAPC  H10Y 2523   3.897   4.679   9.606  1.3855 -0.3148 -1.2584
   19SAPC  C311 2524   3.894   4.853   9.464 -0.1501  0.8389 -0.4122
   19SAPC  H11X 2525   3.995   4.827   9.426 -0.8930 -1.3562 -1.0184
   19SAPC  H11Y 2526   3.891   4.964   9.474  0.0393  0.7728  0.4808
   19SAPC  C312 2527   3.789   4.805   9.370 -0.0797 -0.2516  0.5729
   19SAPC  H12X 2528   3.687   4.849   9.383  1.0805  2.3743  1.3635
   19SAPC  H12Y 2529   3.787   4.696   9.393  3.7051 -0.4487  0.6052
   19SAPC  C313 2530   3.844   4.835   9.231 -0.1450  0.2365 -0.0654
   19SAPC  H13X 2531   3.954   4.843   9.217 -0.2717  1.7944 -0.3515
   19SAPC  H13Y 2532   3.812   4.941   9.215  2.5741  0.7828 -2.9044
   19SAPC  C314 2533   3.775   4.753   9.115 -0.6802 -1.2352 -0.5201
   19SAPC  H14X 2534   3.666   4.744   9.132 -0.6254 -0.7185  0.1616
   19SAPC  H14Y 2535   3.818   4.652   9.134  0.4281 -0.4302  1.4967
   19SAPC  C315 2536   3.811   4.810   8.981  0.3219 -0.2790 -0.1424
   19SAPC  H15X 2537   3.786   4.723   8.917  0.7889  0.7402 -1.7727
   19SAPC  H15Y 2538   3.921   4.821   8.970  0.4203 -0.4232  0.5986
   19SAPC  C316 2539   3.737   4.929   8.933 -0.3749  0.3070 -0.0224
   19SAPC  H16X 2540   3.781   4.957   8.836  1.1170  0.8999  0.7942
   19SAPC  H16Y 2541   3.765   5.011   9.003  2.3810 -0.3087 -0.3085
   19SAPC  C317 2542   3.587   4.929   8.933 -0.4159 -0.4609  0.1080
   19SAPC  H17X 2543   3.548   4.945   9.036 -0.1792 -2.4136  0.5495
   19SAPC  H17Y 2544   3.552   4.833   8.888 -0.1012  0.4626 -2.2644
   19SAPC  C318 2545   3.530   5.038   8.841 -0.1049 -0.2390  0.0634
   19SAPC  H18X 2546   3.533   4.995   8.739 -0.1522  0.7997 -0.3934
   19SAPC  H18Y 2547   3.578   5.137   8.860 -1.9178  0.5703  0.7683
   19SAPC  H18Z 2548   3.421   5.058   8.853 -0.7104 -2.9646 -0.2355
   20SAPC     N 2549   4.816   6.291  10.923  1.3639 -0.2219 -0.3276
   20SAPC   C12 2550   4.764   6.412  10.843 -0.3162  0.3488 -0.4902
   20SAPC  H12A 2551   4.843   6.486  10.834 -2.0361  2.0825 -2.5190
   20SAPC  H12B 2552   4.686   6.462  10.898 -1.9024  0.9195 -3.0469
   20SAPC   C13 2553   4.691   6.212  10.970  0.1746  0.5125  0.4820
   20SAPC  H13A 2554   4.611   6.280  10.997 -0.7916 -1.5873  3.3590
   20SAPC  H13B 2555   4.654   6.147  10.892 -1.2138  0.9457  0.7611
   20SAPC  H13C 2556   4.723   6.159  11.059  1.9717  2.1890  0.9072
   20SAPC   C14 2557   4.917   6.209  10.855  0.6118  0.2718  0.3484
   20SAPC  H14A 2558   4.978   6.258  10.780 -0.3309 -0.8643 -1.2176
   20SAPC  H14B 2559   4.991   6.163  10.919  0.3026  0.4512  0.8392
   20SAPC  H14C 2560   4.868   6.135  10.794 -1.5736  1.6543  0.3098
   20SAPC   C15 2561   4.876   6.355  11.051  0.2737  0.0519  0.2860
   20SAPC  H15A 2562   4.959   6.419  11.025  0.3223  0.5037  1.5037
   20SAPC  H15B 2563   4.793   6.413  11.090 -1.7946  1.3977 -5.1596
   20SAPC  H15C 2564   4.911   6.284  11.124  0.9390  0.7708  0.6799
   20SAPC   C11 2565   4.696   6.387  10.706 -0.6110 -0.6144  0.1639
   20SAPC  H11A 2566   4.770   6.327  10.650  0.8328 -0.1527  1.5203
   20SAPC  H11B 2567   4.683   6.476  10.640 -1.0719 -0.7954  0.0032
   20SAPC     P 2568   4.440   6.387  10.761 -0.3776  0.1416  0.3248
   20SAPC   O13 2569   4.344   6.283  10.807 -0.2117  0.0867 -0.1747
   20SAPC   O14 2570   4.475   6.484  10.870 -0.2436  0.1929  0.4024
   20SAPC   O12 2571   4.573   6.322  10.713  0.2688  0.4341  0.1265
   20SAPC   O11 2572   4.387   6.470  10.634 -0.3137  0.2046 -0.6601
   20SAPC    C1 2573   4.315   6.422  10.524 -0.4314  0.8687  0.5748
   20SAPC    HA 2574   4.365   6.455  10.431 -0.8916  1.6108  0.5808
   20SAPC    HB 2575   4.306   6.312  10.526 -1.7080  0.8327 -2.3557
   20SAPC    C2 2576   4.174   6.481  10.521 -0.0607  0.2341  0.3155
   20SAPC    HS 2577   4.111   6.426  10.595  0.8186 -0.9134  0.2345
   20SAPC   O21 2578   4.132   6.465  10.387 -0.0308 -0.5244  0.1110
   20SAPC   C21 2579   4.085   6.350  10.353 -0.0260  0.0222  0.0925
   20SAPC   O22 2580   4.068   6.251  10.429 -0.2496 -0.1438 -0.6919
   20SAPC   C22 2581   4.035   6.350  10.212 -0.5299  0.1662 -0.9264
   20SAPC   H2R 2582   3.938   6.297  10.224 -0.1678 -0.2405  0.2833
   20SAPC   H2S 2583   4.019   6.454  10.176  1.1233  0.6993 -0.2081
   20SAPC    C3 2584   4.179   6.635  10.559 -0.2292 -0.9840 -0.4713
   20SAPC    HX 2585   4.217   6.647  10.663 -0.6379  1.2880 -0.5229
   20SAPC    HY 2586   4.075   6.671  10.564 -0.3987 -1.3935 -0.9903
   20SAPC   O31 2587   4.260   6.713  10.459  0.3630 -0.1119  0.1171
   20SAPC   C31 2588   4.191   6.784  10.367  0.3644 -0.0152  0.2719
   20SAPC   O32 2589   4.072   6.816  10.376  0.1024  0.1804  0.3853
   20SAPC   C32 2590   4.271   6.819  10.243  0.4343 -0.2978 -0.4529
   20SAPC   H2X 2591   4.326   6.913  10.264  2.9859 -1.5533 -1.0368
   20SAPC   H2Y 2592   4.199   6.845  10.163  1.6634 -1.2703 -1.9293
   20SAPC   C23 2593   4.122   6.271  10.114  0.0968  0.0296 -0.0098
   20SAPC   H3R 2594   4.053   6.279  10.027 -0.1611  0.3610  0.2209
   20SAPC   H3S 2595   4.150   6.168  10.144 -1.5077 -0.4856 -0.1967
   20SAPC   C24 2596   4.239   6.357  10.072 -0.3993 -0.1128  0.2245
   20SAPC   H4R 2597   4.301   6.391  10.158 -1.5545  0.8649  0.7053
   20SAPC   H4S 2598   4.193   6.449  10.031 -0.5211 -0.2816 -0.0132
   20SAPC   C25 2599   4.332   6.293   9.968  0.4841  0.4732  0.1236
   20SAPC   H5R 2600   4.392   6.206  10.000 -0.7386 -2.0064 -3.6398
   20SAPC   C26 2601   4.337   6.322   9.834 -0.1465  0.0499 -0.0263
   20SAPC   H6R 2602   4.419   6.274   9.778 -0.0286 -0.5247  0.6271
   20SAPC   C27 2603   4.263   6.421   9.751 -0.1865  0.0601  0.0780
   20SAPC   H7R 2604   4.326   6.473   9.676 -1.0814  0.4858 -0.3984
   20SAPC   H7S 2605   4.239   6.507   9.817  0.9568  0.9797 -0.6867
   20SAPC   C28 2606   4.142   6.357   9.687 -0.1773  0.0855 -0.1742
   20SAPC   H8R 2607   4.045   6.367   9.738 -0.9429 -0.1943 -1.5088
   20SAPC   C29 2608   4.140   6.287   9.574 -0.4216  0.5466 -0.3317
   20SAPC   H9R 2609   4.047   6.241   9.536 -0.7509 -1.5671  2.6615
   20SAPC  C210 2610   4.258   6.259   9.487  0.2313  0.0295  0.2504
   20SAPC  H10R 2611   4.334   6.199   9.542  0.5979  1.8122  1.8077
   20SAPC  H10S 2612   4.304   6.359   9.471 -0.5957  0.8201  2.3837
   20SAPC  C211 2613   4.237   6.191   9.356 -0.3460 -0.7872 -0.0106
   20SAPC  H11R 2614   4.261   6.084   9.361  0.0090 -0.7023  0.2321
   20SAPC  C212 2615   4.210   6.230   9.235 -0.6595 -0.0819  0.3731
   20SAPC  H12R 2616   4.185   6.151   9.163  3.6466  0.1396 -1.6871
   20SAPC  C213 2617   4.179   6.368   9.184  0.5383 -0.6346 -0.1925
   20SAPC  H13R 2618   4.236   6.384   9.089 -0.5947  2.2365 -0.5019
   20SAPC  H13S 2619   4.207   6.450   9.254 -3.0675  0.3576  0.3031
   20SAPC  C214 2620   4.023   6.382   9.159  0.4795 -0.0406 -0.1628
   20SAPC  H14R 2621   3.960   6.297   9.191  2.5212 -1.3661  0.5308
   20SAPC  C215 2622   3.967   6.472   9.076 -0.4915  0.0321  0.0149
   20SAPC  H15R 2623   3.861   6.461   9.047 -0.5681  0.5081  0.1183
   20SAPC  C216 2624   4.037   6.584   9.008  0.0689 -0.4342 -0.4397
   20SAPC  H16R 2625   4.140   6.589   9.049 -1.3759  1.0113  3.4927
   20SAPC  H16S 2626   4.001   6.685   9.039  0.4027  0.2575 -2.1804
   20SAPC  C217 2627   4.056   6.575   8.859  0.2184  0.4012 -0.3470
   20SAPC  H17R 2628   4.119   6.489   8.829  1.0635  0.8216  0.2079
   20SAPC  H17S 2629   4.103   6.663   8.811  0.2155  0.1892 -0.7476
   20SAPC  C218 2630   3.921   6.583   8.786 -0.0864 -0.3743  0.1967
   20SAPC  H18R 2631   3.859   6.492   8.773 -1.0036  0.3098 -0.4055
   20SAPC  H18S 2632   3.951   6.607   8.681 -2.2067 -0.4142 -0.4777
   20SAPC  C219 2633   3.811   6.692   8.824 -0.1422  0.0674 -0.0227
   20SAPC  H19R 2634   3.854   6.794   8.820 -0.2072  0.0888 -0.1777
   20SAPC  H19S 2635   3.786   6.686   8.932 -0.8747  0.7923 -0.1398
   20SAPC  C220 2636   3.683   6.683   8.741  0.0013  0.5740  1.3796
   20SAPC  H20R 2637   3.624   6.776   8.755 -0.7080  0.3592 -0.0575
   20SAPC  H20S 2638   3.624   6.602   8.789  0.2774 -0.5298 -0.0906
   20SAPC  H20T 2639   3.701   6.652   8.636 -0.7959  0.0476  1.3864
   20SAPC   C33 2640   4.386   6.728  10.201  0.0655 -0.3497 -0.6151
   20SAPC   H3X 2641   4.348   6.632  10.161 -0.6027 -0.1786 -0.4106
   20SAPC   H3Y 2642   4.441   6.705  10.295 -1.1332  2.0900  0.7839
   20SAPC   C34 2643   4.483   6.784  10.102  0.5241  0.1684 -0.8662
   20SAPC   H4X 2644   4.552   6.700  10.078 -0.3744 -0.6285 -0.7294
   20SAPC   H4Y 2645   4.538   6.860  10.160  1.3340 -1.9328  1.2666
   20SAPC   C35 2646   4.414   6.846   9.980 -0.3070 -0.2052  0.3195
   20SAPC   H5X 2647   4.420   6.954  10.003  0.1900 -0.5312  1.8267
   20SAPC   H5Y 2648   4.308   6.815   9.967 -0.3700  0.6806 -1.7298
   20SAPC   C36 2649   4.494   6.805   9.858 -0.1961  0.1993 -0.5318
   20SAPC   H6X 2650   4.515   6.696   9.852  0.2940  0.2081  0.6458
   20SAPC   H6Y 2651   4.597   6.846   9.871 -0.4562  0.4667  0.7805
   20SAPC   C37 2652   4.429   6.858   9.734  0.3096 -0.8898  0.1604
   20SAPC   H7X 2653   4.318   6.858   9.746  0.5402 -1.4647  2.7821
   20SAPC   H7Y 2654   4.464   6.807   9.642  1.1640  1.2399 -0.7605
   20SAPC   C38 2655   4.473   7.005   9.721  0.3316  0.1223 -0.2496
   20SAPC   H8X 2656   4.583   6.993   9.728  0.0649 -2.4597  0.7327
   20SAPC   H8Y 2657   4.439   7.055   9.814  0.7277 -0.8743  0.4456
   20SAPC   C39 2658   4.413   7.084   9.605  0.5433  0.1549  0.2084
   20SAPC   H9X 2659   4.305   7.079   9.633  1.1400  0.5570  2.8408
   20SAPC   H9Y 2660   4.426   7.032   9.507  0.5073  0.3283  0.1114
   20SAPC  C310 2661   4.459   7.234   9.600 -0.7712 -0.7206  0.0123
   20SAPC  H10X 2662   4.566   7.241   9.571 -1.3390  0.9591 -1.9058
   20SAPC  H10Y 2663   4.440   7.281   9.699  2.1647  0.6851  0.0203
   20SAPC  C311 2664   4.375   7.313   9.505  0.4137  0.4984 -0.0846
   20SAPC  H11X 2665   4.416   7.416   9.501  2.0957 -0.1193  0.5070
   20SAPC  H11Y 2666   4.270   7.311   9.542 -0.0429  0.3852 -1.3549
   20SAPC  C312 2667   4.385   7.272   9.360 -0.1602  0.1959  0.2317
   20SAPC  H12X 2668   4.362   7.164   9.354 -2.1815  0.6160 -0.2001
   20SAPC  H12Y 2669   4.487   7.299   9.324  1.1773 -0.8882  2.9339
   20SAPC  C313 2670   4.280   7.355   9.287 -0.0074 -0.7168  0.8604
   20SAPC  H13X 2671   4.276   7.460   9.321 -0.4329 -0.7657  0.9637
   20SAPC  H13Y 2672   4.177   7.320   9.310 -0.3173 -1.3183 -1.1981
   20SAPC  C314 2673   4.303   7.352   9.135  0.6029 -0.2926  0.0394
   20SAPC  H14X 2674   4.411   7.355   9.109  0.9005 -1.1107  1.1340
   20SAPC  H14Y 2675   4.257   7.447   9.102  1.2500 -0.2623 -0.8195
   20SAPC  C315 2676   4.221   7.228   9.078 -0.4143  0.1129  1.1070
   20SAPC  H15X 2677   4.116   7.234   9.114 -1.6872  1.5240 -2.3521
   20SAPC  H15Y 2678   4.273   7.136   9.114 -0.1750  0.1821  0.9432
   20SAPC  C316 2679   4.209   7.213   8.920  0.0894 -0.6020  0.4821
   20SAPC  H16X 2680   4.307   7.179   8.881  0.6745  0.0056  1.3751
   20SAPC  H16Y 2681   4.177   7.312   8.881  1.2123 -0.6952 -0.7159
   20SAPC  C317 2682   4.096   7.111   8.878 -0.1506 -0.0316  0.0257
   20SAPC  H17X 2683   4.084   7.144   8.773  2.1844  0.7611 -0.0664
   20SAPC  H17Y 2684   4.008   7.132   8.942  0.2457  0.3783  0.4541
   20SAPC  C318 2685   4.145   6.968   8.871 -0.1090 -0.2880 -0.8416
   20SAPC  H18X 2686   4.177   6.931   8.971 -1.6781 -1.6481 -0.8022
   20SAPC  H18Y 2687   4.228   6.952   8.799 -1.7687 -1.4079 -2.5693
   20SAPC  H18Z 2688   4.060   6.901   8.849  0.1581 -1.7507  2.0859
   21SAPC     N 2689   5.590   4.564  11.118 -0.2314 -0.4331  0.3408
   21SAPC   C12 2690   5.576   4.512  10.980 -0.0103  0.1259 -0.3372
   21SAPC  H12A 2691   5.606   4.408  10.981  0.5549  0.2859 -0.0962
   21SAPC  H12B 2692   5.639   4.567  10.913  2.5436 -1.2108  0.8190
   21SAPC   C13 2693   5.534   4.464  11.215  0.1184  0.1164 -0.0895
   21SAPC  H13A 2694   5.596   4.376  11.224 -1.2208 -0.7788  0.7255
   21SAPC  H13B 2695   5.518   4.505  11.314 -2.3307  1.8232 -1.1139
   21SAPC  H13C 2696   5.435   4.434  11.186 -0.9364  2.9038  0.3404
   21SAPC   C14 2697   5.736   4.587  11.161  0.0556 -0.4635 -0.3129
   21SAPC  H14A 2698   5.771   4.683  11.124  0.8720  0.7709  3.2332
   21SAPC  H14B 2699   5.748   4.596  11.268 -0.9401  0.1881 -0.2446
   21SAPC  H14C 2700   5.802   4.505  11.139  0.7845  0.3446 -1.2451
   21SAPC   C15 2701   5.514   4.699  11.133 -0.3101 -0.9175 -0.1365
   21SAPC  H15A 2702   5.518   4.734  11.235  0.8041 -0.9066 -0.1681
   21SAPC  H15B 2703   5.560   4.770  11.066 -0.6378  0.0469  0.6369
   21SAPC  H15C 2704   5.413   4.696  11.095  0.5322  1.2360 -2.8172
   21SAPC   C11 2705   5.430   4.506  10.920  0.7472  0.7211 -0.0338
   21SAPC  H11A 2706   5.352   4.463  10.988  1.9639 -0.4850  0.6540
   21SAPC  H11B 2707   5.438   4.429  10.840 -1.4528 -0.5451  0.8627
   21SAPC     P 2708   5.454   4.686  10.730 -0.2213  0.3206 -0.0230
   21SAPC   O13 2709   5.557   4.788  10.761  0.3561  0.4301 -0.1656
   21SAPC   O14 2710   5.489   4.575  10.639  0.1295 -0.5444 -0.3308
   21SAPC   O12 2711   5.395   4.630  10.865 -0.0615 -0.1922 -0.0819
   21SAPC   O11 2712   5.335   4.764  10.676  0.3051  0.0412 -0.2113
   21SAPC    C1 2713   5.236   4.707  10.592 -0.8457  0.5446 -0.3930
   21SAPC    HA 2714   5.206   4.606  10.630  0.5739 -0.6952 -2.3713
   21SAPC    HB 2715   5.143   4.766  10.582 -0.5231  1.4199  1.3160
   21SAPC    C2 2716   5.279   4.686  10.444  0.7845  0.0358  0.0681
   21SAPC    HS 2717   5.387   4.658  10.446  1.0575  1.0938  0.9818
   21SAPC   O21 2718   5.258   4.810  10.372  0.2458 -0.5944  0.4754
   21SAPC   C21 2719   5.353   4.903  10.368 -0.0938 -0.2856 -0.3440
   21SAPC   O22 2720   5.460   4.893  10.426  0.3040  0.3123  0.3980
   21SAPC   C22 2721   5.303   5.021  10.285  0.6176 -0.0342  0.4369
   21SAPC   H2R 2722   5.275   4.991  10.182 -1.3326  1.4726  0.4822
   21SAPC   H2S 2723   5.207   5.048  10.334  0.5254 -0.6576  0.6115
   21SAPC    C3 2724   5.194   4.570  10.385 -0.1634  0.3222  0.5077
   21SAPC    HX 2725   5.086   4.594  10.389 -0.4056 -0.6419  0.0284
   21SAPC    HY 2726   5.216   4.478  10.443 -1.1283 -1.5444 -1.8983
   21SAPC   O31 2727   5.214   4.539  10.243  0.1813 -0.3469  0.5258
   21SAPC   C31 2728   5.336   4.495  10.219  0.1597  0.5149 -0.3694
   21SAPC   O32 2729   5.424   4.469  10.297  0.1360  0.7732 -0.0821
   21SAPC   C32 2730   5.330   4.453  10.076 -0.8207  0.0993  0.1729
   21SAPC   H2X 2731   5.277   4.356  10.069  0.4945 -0.5757 -0.8293
   21SAPC   H2Y 2732   5.433   4.426  10.042 -1.0177 -0.7279  0.2087
   21SAPC   C23 2733   5.402   5.138  10.276 -0.4965 -0.4277 -0.7800
   21SAPC   H3R 2734   5.473   5.120  10.193  0.6292  3.2214 -0.7780
   21SAPC   H3S 2735   5.450   5.142  10.376 -0.8519 -1.0803 -0.5718
   21SAPC   C24 2736   5.345   5.273  10.241  0.9384 -0.6608 -0.0130
   21SAPC   H4R 2737   5.425   5.350  10.235 -2.3025  3.0787  0.6687
   21SAPC   H4S 2738   5.278   5.303  10.324  0.3766 -0.4541 -0.5401
   21SAPC   C25 2739   5.262   5.279  10.112 -0.6965  0.8524 -0.5858
   21SAPC   H5R 2740   5.152   5.274  10.120 -0.7623  1.7286 -0.8628
   21SAPC   C26 2741   5.295   5.329   9.993  0.5397 -0.0498 -0.5106
   21SAPC   H6R 2742   5.217   5.309   9.917 -2.4012 -0.6297  2.4356
   21SAPC   C27 2743   5.435   5.365   9.960  0.3535 -0.6564 -0.6443
   21SAPC   H7R 2744   5.465   5.320   9.863 -0.7129  0.4207 -1.5133
   21SAPC   H7S 2745   5.503   5.322  10.036  0.5796 -1.8352 -1.4814
   21SAPC   C28 2746   5.459   5.513   9.952 -0.2289  0.1378  0.3009
   21SAPC   H8R 2747   5.530   5.552  10.026 -0.2635 -1.7323  1.3592
   21SAPC   C29 2748   5.422   5.595   9.855 -0.0629 -0.4296 -0.4186
   21SAPC   H9R 2749   5.432   5.704   9.870  0.7824 -0.0618 -3.0481
   21SAPC  C210 2750   5.347   5.568   9.725 -0.8348 -0.5309  0.4413
   21SAPC  H10R 2751   5.260   5.636   9.713 -1.2813 -0.9723  1.1029
   21SAPC  H10S 2752   5.314   5.462   9.729  0.7103 -1.1351 -1.3132
   21SAPC  C211 2753   5.439   5.575   9.604  0.4331 -0.6844 -0.1120
   21SAPC  H11R 2754   5.549   5.574   9.617  0.4776  1.2550 -0.0910
   21SAPC  C212 2755   5.387   5.582   9.478  0.0428 -0.2872 -0.0734
   21SAPC  H12R 2756   5.461   5.615   9.404  0.9474 -0.3525  0.7781
   21SAPC  C213 2757   5.244   5.603   9.435 -0.9385  0.7179 -0.1127
   21SAPC  H13R 2758   5.177   5.571   9.518 -0.3112  2.4997  1.1556
   21SAPC  H13S 2759   5.228   5.541   9.345 -1.6092 -1.4449  1.4305
   21SAPC  C214 2760   5.201   5.746   9.405 -0.0733 -0.2785 -0.2965
   21SAPC  H14R 2761   5.245   5.815   9.478  0.4675  1.2180 -1.9600
   21SAPC  C215 2762   5.112   5.787   9.314 -0.0497  0.3654 -0.4130
   21SAPC  H15R 2763   5.086   5.894   9.316  0.5267  0.5025  0.2010
   21SAPC  C216 2764   5.048   5.691   9.217 -0.6329 -0.2602  0.0240
   21SAPC  H16R 2765   4.951   5.665   9.265 -1.8214  2.8950 -0.4286
   21SAPC  H16S 2766   5.108   5.604   9.184 -2.4470 -1.0516 -1.3728
   21SAPC  C217 2767   5.025   5.763   9.085 -0.2612  0.6431 -0.3445
   21SAPC  H17R 2768   5.115   5.779   9.022  0.6120  0.5155  0.8501
   21SAPC  H17S 2769   4.980   5.863   9.105  0.5855  1.1102 -0.7266
   21SAPC  C218 2770   4.930   5.683   8.992 -0.2650 -0.0549  0.1823
   21SAPC  H18R 2771   4.835   5.660   9.044 -1.8274  0.8174 -2.0966
   21SAPC  H18S 2772   4.987   5.589   8.977  0.3084  0.3643 -0.3556
   21SAPC  C219 2773   4.910   5.755   8.859 -0.0074 -0.1786 -0.6252
   21SAPC  H19R 2774   5.008   5.793   8.824 -0.1983 -0.8594 -1.9450
   21SAPC  H19S 2775   4.838   5.839   8.866 -2.4404 -2.0262 -1.8554
   21SAPC  C220 2776   4.837   5.659   8.762  0.0983 -0.0512  0.0566
   21SAPC  H20R 2777   4.889   5.563   8.741  0.5957  0.4431 -1.0688
   21SAPC  H20S 2778   4.823   5.703   8.661 -0.9055 -1.5788 -0.4925
   21SAPC  H20T 2779   4.740   5.634   8.809  0.7063 -0.8999  0.8918
   21SAPC   C33 2780   5.270   4.560   9.972  0.5515  1.3263 -0.3230
   21SAPC   H3X 2781   5.183   4.609  10.020  0.4280  0.5357  0.2798
   21SAPC   H3Y 2782   5.236   4.502   9.884  0.9562 -1.8666  1.4943
   21SAPC   C34 2783   5.360   4.679   9.943 -0.1258 -0.2924  0.3979
   21SAPC   H4X 2784   5.405   4.707  10.041 -0.5588 -1.9639  1.1271
   21SAPC   H4Y 2785   5.300   4.766   9.909  1.2576  0.4526 -0.1938
   21SAPC   C35 2786   5.462   4.654   9.830 -0.2890 -0.3013 -0.2419
   21SAPC   H5X 2787   5.497   4.548   9.834  1.6415  0.2884 -0.5991
   21SAPC   H5Y 2788   5.546   4.725   9.843  0.9281 -1.4363 -1.4975
   21SAPC   C36 2789   5.378   4.664   9.701 -0.2792  0.3622  0.0896
   21SAPC   H6X 2790   5.297   4.740   9.701 -0.1439  0.5525  1.9350
   21SAPC   H6Y 2791   5.327   4.568   9.679  0.4279  0.3824 -1.8090
   21SAPC   C37 2792   5.472   4.691   9.587 -0.3196 -0.1919  1.0224
   21SAPC   H7X 2793   5.548   4.613   9.566 -0.0896  0.7691 -2.3331
   21SAPC   H7Y 2794   5.521   4.785   9.618 -1.1040  0.3221  0.7520
   21SAPC   C38 2795   5.388   4.704   9.457 -0.2745  0.5419  0.5885
   21SAPC   H8X 2796   5.314   4.786   9.472 -0.9676 -0.5639  4.5203
   21SAPC   H8Y 2797   5.338   4.605   9.448 -1.2038  0.7772  2.5501
   21SAPC   C39 2798   5.480   4.727   9.334  1.0286  0.7894 -0.0781
   21SAPC   H9X 2799   5.539   4.637   9.306 -0.0834 -0.0177  0.0823
   21SAPC   H9Y 2800   5.556   4.807   9.344 -0.1413  2.1341 -1.3672
   21SAPC  C310 2801   5.400   4.742   9.204 -0.0142  0.4748 -0.1044
   21SAPC  H10X 2802   5.331   4.829   9.211  1.4884  1.6376  0.9349
   21SAPC  H10Y 2803   5.338   4.650   9.198 -0.2957  0.6165  0.5667
   21SAPC  C311 2804   5.477   4.750   9.072  0.1071  0.2586  0.4233
   21SAPC  H11X 2805   5.573   4.693   9.075 -0.3277 -0.4242  2.0268
   21SAPC  H11Y 2806   5.512   4.855   9.058 -0.9870  0.6983  0.9416
   21SAPC  C312 2807   5.391   4.703   8.951  0.2879 -0.2894 -0.0758
   21SAPC  H12X 2808   5.285   4.729   8.970  0.3937 -0.6446  1.0563
   21SAPC  H12Y 2809   5.380   4.593   8.962 -3.4194 -0.1200 -0.6482
   21SAPC  C313 2810   5.436   4.740   8.808 -0.2104  0.4214  0.7415
   21SAPC  H13X 2811   5.401   4.656   8.745 -2.0504  2.4082 -1.0651
   21SAPC  H13Y 2812   5.546   4.750   8.803 -0.3682  1.5745 -2.2557
   21SAPC  C314 2813   5.371   4.873   8.762 -0.5916  0.7272  0.0718
   21SAPC  H14X 2814   5.434   4.917   8.682  1.6907  1.2211  2.0010
   21SAPC  H14Y 2815   5.370   4.937   8.852 -1.0481  0.0021  0.5960
   21SAPC  C315 2816   5.222   4.856   8.719 -0.1776  0.6781  0.6122
   21SAPC  H15X 2817   5.162   4.848   8.812 -1.2146 -1.0661 -0.1668
   21SAPC  H15Y 2818   5.222   4.763   8.659  1.5189 -0.7717  2.7003
   21SAPC  C316 2819   5.175   4.981   8.637 -0.0021  0.0797 -0.3782
   21SAPC  H16X 2820   5.240   4.994   8.549  2.0498  0.7586  1.1505
   21SAPC  H16Y 2821   5.190   5.068   8.705 -2.0773 -1.0511  1.7030
   21SAPC  C317 2822   5.022   4.976   8.611 -0.5049 -0.3580  0.5261
   21SAPC  H17X 2823   4.966   4.984   8.707 -0.6926 -0.8286  0.4589
   21SAPC  H17Y 2824   5.000   4.877   8.566  1.0012  0.4053 -2.0767
   21SAPC  C318 2825   4.994   5.084   8.509  0.2109 -0.1887 -0.5321
   21SAPC  H18X 2826   4.886   5.107   8.528  0.4324 -1.0312  2.0134
   21SAPC  H18Y 2827   5.007   5.048   8.405  0.2673 -0.7988 -0.3158
   21SAPC  H18Z 2828   5.055   5.175   8.528 -0.7124  0.6498 -1.4330
   22SAPC     N 2829   6.523   3.266  10.906  0.1033  0.3277 -0.3856
   22SAPC   C12 2830   6.638   3.230  10.816 -0.3646  0.1831 -0.3513
   22SAPC  H12A 2831   6.689   3.147  10.863 -0.6383  0.7855  1.0755
   22SAPC  H12B 2832   6.708   3.311  10.831 -1.9723  1.5198  0.1887
   22SAPC   C13 2833   6.572   3.292  11.044 -0.0956  0.3447 -0.0597
   22SAPC  H13A 2834   6.626   3.206  11.082  1.3054  0.4642 -1.6755
   22SAPC  H13B 2835   6.645   3.371  11.048  0.4872 -0.0287 -2.1657
   22SAPC  H13C 2836   6.491   3.316  11.112 -0.9986 -0.8881 -0.6502
   22SAPC   C14 2837   6.463   3.392  10.863  0.1329 -0.0574  0.3614
   22SAPC  H14A 2838   6.538   3.470  10.862  0.2848 -0.2042  0.0703
   22SAPC  H14B 2839   6.431   3.386  10.760  0.2925  0.0453  0.3046
   22SAPC  H14C 2840   6.382   3.422  10.927 -0.4664  0.4402 -0.5976
   22SAPC   C15 2841   6.426   3.152  10.902  0.8055  0.6111  0.3628
   22SAPC  H15A 2842   6.397   3.128  10.801 -2.7636  0.5398  1.2749
   22SAPC  H15B 2843   6.468   3.060  10.941 -0.3068 -1.1572 -2.3204
   22SAPC  H15C 2844   6.336   3.175  10.958 -0.1368  0.2352 -0.9711
   22SAPC   C11 2845   6.618   3.200  10.665  0.1755  0.1755  0.4557
   22SAPC  H11A 2846   6.720   3.201  10.620  0.1900  3.8280  0.2789
   22SAPC  H11B 2847   6.558   3.288  10.633 -0.5698 -0.2323  0.7115
   22SAPC     P 2848   6.611   2.946  10.662  0.3729 -0.2122  0.1967
   22SAPC   O13 2849   6.717   2.946  10.763 -0.8608  0.1578  0.5191
   22SAPC   O14 2850   6.508   2.841  10.672 -0.0587  0.3309  0.7054
   22SAPC   O12 2851   6.547   3.083  10.650  0.6052  0.4568  0.1190
   22SAPC   O11 2852   6.682   2.940  10.518  0.1225 -0.1884  0.0143
   22SAPC    C1 2853   6.612   2.919  10.395 -0.0889 -0.0927  0.2141
   22SAPC    HA 2854   6.646   2.827  10.343  1.9694  1.5802 -1.5904
   22SAPC    HB 2855   6.501   2.909  10.402 -0.3354  0.1924 -2.4871
   22SAPC    C2 2856   6.642   3.054  10.314  0.1764  1.3730  0.1366
   22SAPC    HS 2857   6.744   3.092  10.339 -0.3877  1.8705  1.8970
   22SAPC   O21 2858   6.535   3.153  10.355 -0.2441 -0.2823  0.4428
   22SAPC   C21 2859   6.572   3.279  10.339 -0.2263  0.1340 -0.0758
   22SAPC   O22 2860   6.686   3.313  10.320  0.2680 -0.5913  0.4578
   22SAPC   C22 2861   6.457   3.377  10.365  0.7009 -0.1898  0.2711
   22SAPC   H2R 2862   6.373   3.306  10.344  0.6909 -0.2204  0.4184
   22SAPC   H2S 2863   6.433   3.419  10.464 -3.3043  0.4410 -0.7806
   22SAPC    C3 2864   6.631   3.013  10.162 -0.0405  0.2638  0.2701
   22SAPC    HX 2865   6.642   3.104  10.099  0.2279  0.2693  0.3255
   22SAPC    HY 2866   6.527   2.974  10.159  0.3278 -0.8026  0.9689
   22SAPC   O31 2867   6.732   2.920  10.121  0.3782 -0.1068  0.3081
   22SAPC   C31 2868   6.693   2.814  10.053 -0.1879  0.9504 -0.7766
   22SAPC   O32 2869   6.581   2.764  10.040 -0.1626 -0.4958 -0.1459
   22SAPC   C32 2870   6.813   2.751   9.990  0.2247 -0.0518 -0.0328
   22SAPC   H2X 2871   6.782   2.669   9.921 -1.2650 -0.8362  1.5141
   22SAPC   H2Y 2872   6.872   2.713  10.076 -0.3943 -2.2834 -0.5291
   22SAPC   C23 2873   6.451   3.495  10.268  0.2307 -0.1571  0.9529
   22SAPC   H3R 2874   6.496   3.468  10.170 -3.0064 -0.0442 -0.6912
   22SAPC   H3S 2875   6.496   3.589  10.307 -0.3525  1.2970 -1.6593
   22SAPC   C24 2876   6.300   3.520  10.239  0.6643 -0.5095 -0.6106
   22SAPC   H4R 2877   6.266   3.558  10.338  0.2667 -1.9522 -0.1755
   22SAPC   H4S 2878   6.229   3.442  10.205 -1.9584  0.9863  1.0788
   22SAPC   C25 2879   6.298   3.636  10.145  0.1312 -0.0464 -0.1543
   22SAPC   H5R 2880   6.347   3.719  10.198 -0.9314  1.5910 -1.6190
   22SAPC   C26 2881   6.247   3.649  10.022 -0.8884  0.4958  0.0971
   22SAPC   H6R 2882   6.238   3.749   9.975 -0.2275  0.5403  0.0552
   22SAPC   C27 2883   6.171   3.541   9.938  0.2786 -0.0705 -0.6242
   22SAPC   H7R 2884   6.093   3.580   9.869 -2.0101 -3.5820 -0.2798
   22SAPC   H7S 2885   6.118   3.470  10.004 -3.0432  1.9209 -0.9119
   22SAPC   C28 2886   6.283   3.471   9.856 -0.2167  0.2434  0.0857
   22SAPC   H8R 2887   6.342   3.392   9.904 -0.6596 -1.5005 -2.0849
   22SAPC   C29 2888   6.315   3.492   9.729  0.2871  0.7339  0.1252
   22SAPC   H9R 2889   6.396   3.428   9.692  1.9644  2.9580 -0.2583
   22SAPC  C210 2890   6.243   3.583   9.630  0.3506  0.1571 -0.2045
   22SAPC  H10R 2891   6.308   3.593   9.540  1.8813 -3.3021  0.3645
   22SAPC  H10S 2892   6.214   3.678   9.680  0.8166 -0.6333  1.6351
   22SAPC  C211 2893   6.114   3.511   9.593 -0.0486  0.0726  0.5732
   22SAPC  H11R 2894   6.053   3.497   9.684 -0.0933  1.4120  0.7740
   22SAPC  C212 2895   6.058   3.484   9.466 -0.0132 -0.3943 -0.7764
   22SAPC  H12R 2896   5.957   3.441   9.459 -0.6565  0.4988  1.8559
   22SAPC  C213 2897   6.129   3.512   9.336 -0.6496 -0.6572 -0.9502
   22SAPC  H13R 2898   6.068   3.452   9.265  0.2556 -1.0296 -1.4283
   22SAPC  H13S 2899   6.228   3.463   9.340 -0.5040 -0.2738  1.6968
   22SAPC  C214 2900   6.130   3.652   9.285  0.3541  0.2040 -0.3128
   22SAPC  H14R 2901   6.108   3.722   9.367  0.6628  0.4523 -0.4427
   22SAPC  C215 2902   6.169   3.684   9.154  0.2049 -0.1965  0.6686
   22SAPC  H15R 2903   6.165   3.788   9.119  1.5800  0.1284  1.4313
   22SAPC  C216 2904   6.193   3.588   9.043  0.1021  0.6640 -0.1279
   22SAPC  H16R 2905   6.148   3.622   8.948 -0.0869  0.1132 -0.2427
   22SAPC  H16S 2906   6.145   3.490   9.064 -0.1895  0.6509 -0.8291
   22SAPC  C217 2907   6.340   3.553   9.018  0.6565  0.6585 -0.2867
   22SAPC  H17R 2908   6.374   3.474   9.089  1.4232 -0.7317 -2.1229
   22SAPC  H17S 2909   6.405   3.640   9.039  1.5077 -0.5369  2.5848
   22SAPC  C218 2910   6.377   3.494   8.872 -0.1790 -0.0029 -0.7587
   22SAPC  H18R 2911   6.488   3.501   8.872 -0.1363 -0.4461 -1.8873
   22SAPC  H18S 2912   6.338   3.563   8.795  0.6157  0.7493 -0.5045
   22SAPC  C219 2913   6.334   3.361   8.836 -0.2665 -0.4821 -0.4107
   22SAPC  H19R 2914   6.225   3.347   8.853 -0.0607 -1.3765  0.2445
   22SAPC  H19S 2915   6.375   3.291   8.912 -0.0930 -0.7315 -0.7272
   22SAPC  C220 2916   6.377   3.326   8.692  0.5342  0.6223  0.2311
   22SAPC  H20R 2917   6.487   3.310   8.697  0.6081  0.4473 -1.4117
   22SAPC  H20S 2918   6.367   3.416   8.627 -0.2661  1.8814  2.0253
   22SAPC  H20T 2919   6.317   3.241   8.654 -0.9461  0.8530  1.9301
   22SAPC   C33 2920   6.902   2.856   9.916  0.3516  0.8404  0.4076
   22SAPC   H3X 2921   7.002   2.810   9.901  0.0725  0.3833 -0.0751
   22SAPC   H3Y 2922   6.912   2.953   9.970 -0.4443  1.9417 -1.3068
   22SAPC   C34 2923   6.837   2.898   9.777 -0.1745  0.0962 -0.0618
   22SAPC   H4X 2924   6.915   2.957   9.724  1.2805 -1.2403  0.4934
   22SAPC   H4Y 2925   6.749   2.964   9.790  0.5144  1.5912 -2.4186
   22SAPC   C35 2926   6.776   2.780   9.694 -0.7966 -0.1829  0.2547
   22SAPC   H5X 2927   6.693   2.733   9.750  0.5170 -0.3099  2.2079
   22SAPC   H5Y 2928   6.852   2.704   9.668 -0.2979  0.0377  1.0239
   22SAPC   C36 2929   6.723   2.821   9.556 -0.1556 -0.4717  0.0500
   22SAPC   H6X 2930   6.649   2.902   9.579 -0.7762 -1.4005  1.4829
   22SAPC   H6Y 2931   6.671   2.747   9.493  1.1928 -0.6114 -0.9316
   22SAPC   C37 2932   6.844   2.871   9.458  0.7880  0.5796 -1.0797
   22SAPC   H7X 2933   6.913   2.785   9.465 -0.0949 -0.0049  1.3762
   22SAPC   H7Y 2934   6.886   2.962   9.507 -0.3210  0.6158 -0.1601
   22SAPC   C38 2935   6.791   2.883   9.316  0.3928 -0.0774  0.2940
   22SAPC   H8X 2936   6.708   2.956   9.327  0.3034 -0.4110  2.0408
   22SAPC   H8Y 2937   6.744   2.788   9.285  0.3037  0.2543 -0.6200
   22SAPC   C39 2938   6.906   2.928   9.218  0.0032 -0.7350  0.2447
   22SAPC   H9X 2939   6.994   2.870   9.253  0.7547  0.2344 -0.0065
   22SAPC   H9Y 2940   6.933   3.032   9.244 -0.2895 -0.3760 -0.8460
   22SAPC  C310 2941   6.877   2.895   9.075 -0.3560 -0.5522  0.4910
   22SAPC  H10X 2942   6.799   2.948   9.016 -0.9363 -1.8829  0.0181
   22SAPC  H10Y 2943   6.843   2.789   9.073  0.7388 -0.9185 -1.8164
   22SAPC  C311 2944   7.011   2.893   8.999  0.3287 -0.0659  0.3887
   22SAPC  H11X 2945   7.088   2.852   9.068  0.6741  3.4426  2.3172
   22SAPC  H11Y 2946   7.035   3.001   8.987 -2.1108  0.2944 -2.3506
   22SAPC  C312 2947   6.997   2.830   8.861 -0.1508  0.0685  0.2851
   22SAPC  H12X 2948   6.905   2.854   8.803  0.2439  0.7853 -0.0576
   22SAPC  H12Y 2949   6.995   2.720   8.880  0.9839 -0.1981 -0.9262
   22SAPC  C313 2950   7.124   2.845   8.772  0.5191 -0.1036 -0.1403
   22SAPC  H13X 2951   7.212   2.805   8.826 -0.9223 -1.6923  1.1566
   22SAPC  H13Y 2952   7.156   2.950   8.755 -0.0039  0.4435  1.9443
   22SAPC  C314 2953   7.109   2.770   8.641  0.8329 -0.2315 -0.6149
   22SAPC  H14X 2954   7.008   2.788   8.598 -0.0017 -2.1804  0.4017
   22SAPC  H14Y 2955   7.131   2.663   8.659 -1.2275 -0.2236  2.6653
   22SAPC  C315 2956   7.214   2.814   8.535 -0.0493 -0.3870  0.8721
   22SAPC  H15X 2957   7.315   2.809   8.582 -0.2129 -0.2675  1.2329
   22SAPC  H15Y 2958   7.190   2.918   8.507  0.5523 -0.3033  0.6425
   22SAPC  C316 2959   7.210   2.726   8.415 -0.0973  0.3416  0.1070
   22SAPC  H16X 2960   7.125   2.742   8.346  0.5638 -1.4317 -1.1914
   22SAPC  H16Y 2961   7.191   2.620   8.443 -1.9975 -0.0667 -2.4504
   22SAPC  C317 2962   7.332   2.744   8.326  0.3404  0.0269 -0.0416
   22SAPC  H17X 2963   7.428   2.733   8.382  0.9954  2.0935 -0.6542
   22SAPC  H17Y 2964   7.331   2.848   8.287 -0.3259 -0.3194 -0.9552
   22SAPC  C318 2965   7.331   2.656   8.201  0.0732  0.0329  0.3852
   22SAPC  H18X 2966   7.318   2.550   8.231  0.7265 -0.4462 -0.9622
   22SAPC  H18Y 2967   7.423   2.673   8.141 -0.7238 -0.7912 -1.1227
   22SAPC  H18Z 2968   7.241   2.689   8.144 -0.2740  0.5403  1.2090
   23SAPC     N 2969   0.257   3.214  10.609  0.4762  0.6875 -0.5415
   23SAPC   C12 2970   0.226   3.329  10.508 -0.2385  0.3293 -0.0291
   23SAPC  H12A 2971   0.153   3.286  10.441  1.4586 -0.5201 -1.3894
   23SAPC  H12B 2972   0.311   3.339  10.443  0.0383 -0.6606  0.1593
   23SAPC   C13 2973   0.361   3.266  10.712 -0.3775 -0.2232 -0.1780
   23SAPC  H13A 2974   0.454   3.292  10.664 -0.3050 -0.3910 -0.1278
   23SAPC  H13B 2975   0.324   3.345  10.775  0.6938  0.3180 -0.2041
   23SAPC  H13C 2976   0.382   3.181  10.776 -2.7007  0.8451  2.1830
   23SAPC   C14 2977   0.139   3.168  10.679 -0.7515 -0.2464 -0.1245
   23SAPC  H14A 2978   0.156   3.097  10.758 -0.4736  1.1830  1.1355
   23SAPC  H14B 2979   0.085   3.250  10.724  0.1507  1.0269 -1.2652
   23SAPC  H14C 2980   0.075   3.125  10.603 -1.6728  0.3451  0.2884
   23SAPC   C15 2981   0.322   3.103  10.527  0.2519 -0.1954 -0.5223
   23SAPC  H15A 2982   0.371   3.037  10.597  1.8914  1.4557 -0.0246
   23SAPC  H15B 2983   0.246   3.043  10.480 -0.0747 -0.5536  0.4261
   23SAPC  H15C 2984   0.397   3.138  10.458 -1.1557  1.4446 -1.2895
   23SAPC   C11 2985   0.189   3.468  10.560  0.2991 -0.2202  0.4787
   23SAPC  H11A 2986   0.109   3.452  10.636  1.5525 -0.5348  1.7657
   23SAPC  H11B 2987   0.137   3.514  10.473  2.1224 -1.8630 -1.6039
   23SAPC     P 2988   0.259   3.645  10.735  0.3779  0.4370  0.1544
   23SAPC   O13 2989   0.118   3.624  10.788 -0.7610 -0.0483  0.0855
   23SAPC   O14 2990   0.369   3.634  10.832  0.2257  0.1734 -0.4361
   23SAPC   O12 2991   0.288   3.543  10.620 -0.6444 -0.4487  0.4797
   23SAPC   O11 2992   0.266   3.788  10.662  0.9270 -0.5745  0.0434
   23SAPC    C1 2993   0.157   3.838  10.586 -0.3825  0.5558 -0.3879
   23SAPC    HA 2994   0.095   3.754  10.548 -0.9564  0.0117  1.6391
   23SAPC    HB 2995   0.084   3.890  10.652 -0.6407  0.6714 -0.7592
   23SAPC    C2 2996   0.201   3.924  10.458 -0.0196 -0.1782 -0.0938
   23SAPC    HS 2997   0.109   3.949  10.401  0.2110 -1.1048 -0.8963
   23SAPC   O21 2998   0.289   3.852  10.370  0.7082  0.3085 -0.7001
   23SAPC   C21 2999   0.236   3.765  10.290  0.1566 -0.1939  0.5553
   23SAPC   O22 3000   0.117   3.739  10.268 -0.1957 -0.3864  0.0614
   23SAPC   C22 3001   0.355   3.708  10.209 -0.2819 -0.2235 -0.4069
   23SAPC   H2R 3002   0.433   3.665  10.276 -0.1526 -1.4023 -1.2802
   23SAPC   H2S 3003   0.314   3.622  10.151 -1.2574 -0.9558  1.3003
   23SAPC    C3 3004   0.266   4.049  10.512 -0.5871 -0.8380 -0.1350
   23SAPC    HX 3005   0.370   4.025  10.544 -0.1985  1.6807  0.7353
   23SAPC    HY 3006   0.218   4.082  10.607 -0.8111  3.7182 -1.6096
   23SAPC   O31 3007   0.276   4.151  10.409  0.2777  0.3923  0.5150
   23SAPC   C31 3008   0.205   4.260  10.410  0.2403  0.0862 -0.0509
   23SAPC   O32 3009   0.129   4.300  10.495 -0.2717 -0.4066  0.0021
   23SAPC   C32 3010   0.240   4.348  10.289  0.9568  0.7436 -0.2137
   23SAPC   H2X 3011   0.348   4.362  10.271  1.2778 -0.0396  0.9907
   23SAPC   H2Y 3012   0.185   4.442  10.311 -1.2591 -0.5500  0.1488
   23SAPC   C23 3013   0.427   3.814  10.113 -0.0386 -0.2420 -0.8274
   23SAPC   H3R 3014   0.525   3.770  10.087  0.0952  0.1418 -0.9674
   23SAPC   H3S 3015   0.432   3.915  10.159 -0.4583  1.4965 -4.2790
   23SAPC   C24 3016   0.369   3.829   9.978 -0.4718  0.5400 -0.5375
   23SAPC   H4R 3017   0.326   3.728   9.958  2.0030 -0.5809 -0.5169
   23SAPC   H4S 3018   0.445   3.851   9.901  0.6006  0.3713  0.4440
   23SAPC   C25 3019   0.255   3.923   9.970 -0.8073 -0.6500  0.2990
   23SAPC   H5R 3020   0.192   3.930  10.060 -1.2660 -0.5913 -0.0232
   23SAPC   C26 3021   0.230   4.013   9.866  0.3461 -0.6857 -0.4707
   23SAPC   H6R 3022   0.142   4.073   9.893  0.7504  0.3064 -1.3143
   23SAPC   C27 3023   0.316   4.040   9.745  0.7010  0.2121  0.0434
   23SAPC   H7R 3024   0.425   4.051   9.761  0.6897  0.8122 -0.2947
   23SAPC   H7S 3025   0.292   4.143   9.713  0.0996  0.1794  0.3672
   23SAPC   C28 3026   0.297   3.949   9.630  0.2613  0.8221  0.5115
   23SAPC   H8R 3027   0.279   3.843   9.654  0.2811  0.0369 -2.5617
   23SAPC   C29 3028   0.296   3.976   9.502  0.1099 -0.2883 -0.0736
   23SAPC   H9R 3029   0.270   3.892   9.435  0.5584 -0.4539 -0.0438
   23SAPC  C210 3030   0.314   4.110   9.438  0.5969 -0.2864  0.2305
   23SAPC  H10R 3031   0.421   4.112   9.407  1.6739 -0.3818  3.5464
   23SAPC  H10S 3032   0.294   4.192   9.510 -0.2336  0.5448 -0.9217
   23SAPC  C211 3033   0.226   4.126   9.320 -0.0454  0.1971  0.3010
   23SAPC  H11R 3034   0.119   4.132   9.344 -0.0550  0.9040  0.1094
   23SAPC  C212 3035   0.264   4.119   9.187  0.5391  0.6868  0.1702
   23SAPC  H12R 3036   0.179   4.142   9.120 -1.8508 -1.2681  2.3395
   23SAPC  C213 3037   0.401   4.091   9.132  0.6643  0.5472 -0.4579
   23SAPC  H13R 3038   0.401   4.014   9.052  1.0785 -0.6046  0.6134
   23SAPC  H13S 3039   0.460   4.038   9.210  0.1984  0.0317 -0.4435
   23SAPC  C214 3040   0.468   4.218   9.093  0.2164 -0.2921  0.0654
   23SAPC  H14R 3041   0.508   4.281   9.174  3.6490 -2.3645  0.1662
   23SAPC  C215 3042   0.486   4.266   8.972  1.0474 -1.0706  0.3202
   23SAPC  H15R 3043   0.540   4.360   8.957  0.7857 -1.2685 -2.1801
   23SAPC  C216 3044   0.445   4.190   8.849  0.4413  0.0022 -0.5993
   23SAPC  H16R 3045   0.335   4.204   8.841  0.2412  0.1099  1.6261
   23SAPC  H16S 3046   0.458   4.080   8.849 -0.8339 -0.1709 -1.5185
   23SAPC  C217 3047   0.505   4.259   8.727  0.4074  0.3507  0.2439
   23SAPC  H17R 3048   0.613   4.273   8.748  0.1080  1.3895  1.2003
   23SAPC  H17S 3049   0.460   4.361   8.734 -0.8795 -0.1881  0.1483
   23SAPC  C218 3050   0.465   4.194   8.595 -0.3180  0.3993 -0.0307
   23SAPC  H18R 3051   0.459   4.274   8.518  3.7487  0.5501 -0.3826
   23SAPC  H18S 3052   0.364   4.149   8.605  0.2901 -0.5487  2.9053
   23SAPC  C219 3053   0.558   4.086   8.544  0.3708  0.0408 -0.1700
   23SAPC  H19R 3054   0.656   4.138   8.540  0.3662  0.3054  1.9520
   23SAPC  H19S 3055   0.541   4.054   8.439  3.0211 -1.3052 -0.2667
   23SAPC  C220 3056   0.576   3.960   8.632 -0.4186  0.2119 -1.0057
   23SAPC  H20R 3057   0.619   3.980   8.733 -1.3571  0.5261 -0.6538
   23SAPC  H20S 3058   0.641   3.897   8.568  1.9713  3.3922 -1.9622
   23SAPC  H20T 3059   0.476   3.919   8.658  0.0640  0.6140  1.9178
   23SAPC   C33 3060   0.175   4.292  10.164  0.3997  0.1091  0.7040
   23SAPC   H3X 3061   0.073   4.334  10.154  1.0979  1.3170 -2.3422
   23SAPC   H3Y 3062   0.173   4.182  10.148 -2.9397  0.1258  0.4025
   23SAPC   C34 3063   0.242   4.358  10.034 -0.5048 -0.1613  0.5284
   23SAPC   H4X 3064   0.207   4.314   9.939  0.3823  1.5139 -0.6375
   23SAPC   H4Y 3065   0.353   4.348  10.036 -0.4190  0.7464  1.7352
   23SAPC   C35 3066   0.222   4.508  10.026  0.2965  0.6236  0.5874
   23SAPC   H5X 3067   0.257   4.552  10.122 -1.8094 -0.4528  1.9136
   23SAPC   H5Y 3068   0.114   4.535  10.027 -0.2146 -1.1947 -0.5843
   23SAPC   C36 3069   0.296   4.595   9.919 -0.9562 -0.5612  0.3727
   23SAPC   H6X 3070   0.406   4.580   9.930 -0.5938  0.1001 -1.8569
   23SAPC   H6Y 3071   0.277   4.702   9.944 -0.9186  0.0787 -2.1191
   23SAPC   C37 3072   0.269   4.586   9.774 -0.0582  0.3166  0.5465
   23SAPC   H7X 3073   0.336   4.505   9.738  2.4994  2.5375 -0.0141
   23SAPC   H7Y 3074   0.305   4.676   9.720 -0.2119 -0.3490 -0.7110
   23SAPC   C38 3075   0.130   4.558   9.723 -0.2751 -0.9663  0.7377
   23SAPC   H8X 3076   0.061   4.644   9.735  0.1787 -0.4192 -0.4289
   23SAPC   H8Y 3077   0.085   4.474   9.780 -0.3678 -1.8227 -0.5511
   23SAPC   C39 3078   0.130   4.515   9.577 -0.1783  0.4859 -0.2825
   23SAPC   H9X 3079   0.024   4.509   9.543  0.0815  0.4003 -1.0760
   23SAPC   H9Y 3080   0.179   4.415   9.576 -1.4504 -0.1625 -1.5448
   23SAPC  C310 3081   0.208   4.607   9.484 -0.2874  0.0948 -0.2986
   23SAPC  H10X 3082   0.312   4.635   9.511 -0.6107  1.0516  0.0211
   23SAPC  H10Y 3083   0.154   4.702   9.462 -1.5312 -0.7631 -1.0843
   23SAPC  C311 3084   0.216   4.544   9.347  0.2676  0.3897 -0.3132
   23SAPC  H11X 3085   0.262   4.445   9.369  1.1322  1.1519  1.5950
   23SAPC  H11Y 3086   0.285   4.608   9.288  1.4847 -0.3967  0.2147
   23SAPC  C312 3087   0.076   4.545   9.275 -0.5694  0.2828 -0.2282
   23SAPC  H12X 3088   0.032   4.647   9.277 -1.6522 -0.1790  0.1183
   23SAPC  H12Y 3089   0.013   4.474   9.332 -0.4663 -1.0806 -1.7488
   23SAPC  C313 3090   0.077   4.500   9.129  0.9935 -0.2425  0.8414
   23SAPC  H13X 3091  -0.025   4.490   9.086  0.8488 -0.3107  1.1940
   23SAPC  H13Y 3092   0.119   4.399   9.108 -1.7602 -1.5910  1.3074
   23SAPC  C314 3093   0.142   4.602   9.033  0.1518 -0.2931  0.9249
   23SAPC  H14X 3094   0.253   4.593   9.034  0.5058  2.7593  0.5341
   23SAPC  H14Y 3095   0.111   4.703   9.067 -1.9457  0.4922 -2.6750
   23SAPC  C315 3096   0.090   4.575   8.887 -0.3407 -0.5480 -0.3967
   23SAPC  H15X 3097  -0.019   4.588   8.873 -0.4615 -1.4972 -0.4412
   23SAPC  H15Y 3098   0.114   4.469   8.862  0.3848 -0.1847 -1.3244
   23SAPC  C316 3099   0.168   4.662   8.780 -0.0661 -0.0751  0.7618
   23SAPC  H16X 3100   0.271   4.620   8.781 -0.3050 -0.6659  1.3983
   23SAPC  H16Y 3101   0.178   4.767   8.815 -0.5342  0.4659 -0.6723
   23SAPC  C317 3102   0.108   4.663   8.642  0.1698 -0.4730  0.1551
   23SAPC  H17X 3103   0.184   4.693   8.566 -2.2678 -1.8071 -3.0497
   23SAPC  H17Y 3104   0.030   4.740   8.623 -1.4179 -2.2898 -1.0211
   23SAPC  C318 3105   0.065   4.525   8.594  0.3930 -0.3096  0.1306
   23SAPC  H18X 3106   0.007   4.526   8.499  0.3416  2.5560  0.0945
   23SAPC  H18Y 3107  -0.010   4.486   8.666  1.6136 -2.2272  0.4397
   23SAPC  H18Z 3108   0.154   4.458   8.586  1.9117  1.2212  2.6808
   24SAPC     N 3109   0.244   4.913  11.229 -0.5169 -0.1752 -0.1043
   24SAPC   C12 3110   0.143   5.026  11.250  0.0062  0.6185 -0.5271
   24SAPC  H12A 3111   0.167   5.116  11.195  1.3399  2.2403  2.4712
   24SAPC  H12B 3112   0.137   5.053  11.354  1.0085 -1.9985  0.2801
   24SAPC   C13 3113   0.182   4.790  11.290 -0.4563 -0.5516 -0.3123
   24SAPC  H13A 3114   0.085   4.769  11.248 -0.3498 -1.0423 -0.3217
   24SAPC  H13B 3115   0.248   4.705  11.288  2.4439  1.5593 -0.7229
   24SAPC  H13C 3116   0.155   4.815  11.392 -0.9354  0.5117 -0.6917
   24SAPC   C14 3117   0.260   4.890  11.077  0.1604  0.7050 -0.5428
   24SAPC  H14A 3118   0.347   4.937  11.034  0.6113  0.8227  0.4790
   24SAPC  H14B 3119   0.265   4.785  11.053 -2.5480  0.0870  1.1758
   24SAPC  H14C 3120   0.168   4.918  11.028 -0.8983 -4.3084 -2.0553
   24SAPC   C15 3121   0.371   4.949  11.297 -0.3373  0.0329  0.0622
   24SAPC  H15A 3122   0.444   4.869  11.302  1.3786  1.5125 -0.2357
   24SAPC  H15B 3123   0.420   5.021  11.233  1.7827  0.9422  2.5571
   24SAPC  H15C 3124   0.368   4.999  11.392  0.4432 -0.9023  0.5999
   24SAPC   C11 3125  -0.008   5.010  11.207 -0.1299 -0.1836  0.0011
   24SAPC  H11A 3126  -0.078   5.085  11.248  0.6473 -0.4559  1.9366
   24SAPC  H11B 3127  -0.035   4.920  11.268  1.0867  1.7194  3.6369
   24SAPC     P 3128  -0.048   5.084  10.961 -0.2850 -0.0259 -0.0244
   24SAPC   O13 3129  -0.196   5.105  10.939  0.2147 -0.5328 -0.2198
   24SAPC   O14 3130   0.043   5.199  10.994 -0.2929  0.5725  0.7533
   24SAPC   O12 3131  -0.025   4.976  11.071 -0.4972  0.1908  0.2945
   24SAPC   O11 3132   0.010   4.989  10.841 -0.5831  0.0496 -0.2223
   24SAPC    C1 3133   0.129   5.040  10.769 -0.3788 -0.2067 -0.1741
   24SAPC    HA 3134   0.204   5.094  10.830 -1.7784  1.1961  0.4001
   24SAPC    HB 3135   0.176   4.949  10.725 -0.2065  0.0579 -0.5378
   24SAPC    C2 3136   0.100   5.144  10.659  0.4671  0.8404  0.1308
   24SAPC    HS 3137   0.057   5.232  10.712  3.6886  3.3714 -1.1010
   24SAPC   O21 3138   0.021   5.073  10.556 -0.1564  0.5631  0.2133
   24SAPC   C21 3139  -0.077   5.157  10.509  1.5363  0.4376  0.3800
   24SAPC   O22 3140  -0.097   5.268  10.558  0.3097 -0.2310  0.3117
   24SAPC   C22 3141  -0.147   5.091  10.394 -0.1517 -0.2617 -0.4150
   24SAPC   H2R 3142  -0.127   4.982  10.403  3.0051  0.2813  0.2503
   24SAPC   H2S 3143  -0.256   5.105  10.412  0.2627  0.6905  1.6711
   24SAPC    C3 3144   0.232   5.185  10.588  0.7066 -0.2990 -0.4825
   24SAPC    HX 3145   0.279   5.098  10.537  0.4513 -0.2971 -0.7229
   24SAPC    HY 3146   0.298   5.223  10.668 -1.7229  0.2224  1.4076
   24SAPC   O31 3147   0.202   5.282  10.479 -0.1505 -0.2458 -0.4557
   24SAPC   C31 3148   0.304   5.348  10.430 -0.0532  0.2591 -0.0154
   24SAPC   O32 3149   0.414   5.342  10.478  0.0471  0.1083  0.0574
   24SAPC   C32 3150   0.252   5.435  10.310 -0.0782 -0.0036 -0.7500
   24SAPC   H2X 3151   0.309   5.530  10.321 -1.5172  0.8720 -0.6785
   24SAPC   H2Y 3152   0.145   5.464  10.323 -0.1974 -0.1504 -1.3800
   24SAPC   C23 3153  -0.113   5.154  10.251  0.7554 -0.2307  0.1864
   24SAPC   H3R 3154  -0.148   5.260  10.258 -0.1462 -0.3930 -1.2763
   24SAPC   H3S 3155  -0.179   5.104  10.177  0.3974  0.4263  0.0460
   24SAPC   C24 3156   0.025   5.134  10.201 -0.3613 -0.3636  0.1820
   24SAPC   H4R 3157   0.090   5.169  10.284 -0.0739 -1.1875  0.3163
   24SAPC   H4S 3158   0.040   5.195  10.109 -0.5400 -1.5618 -0.6659
   24SAPC   C25 3159   0.050   4.987  10.181  0.0700  0.4795 -0.3674
   24SAPC   H5R 3160  -0.002   4.912  10.243  0.8602  0.6979  0.6105
   24SAPC   C26 3161   0.127   4.930  10.085  0.4802 -0.7352 -0.1677
   24SAPC   H6R 3162   0.127   4.822  10.064 -0.9507 -0.6808 -0.5579
   24SAPC   C27 3163   0.219   5.000   9.988  0.9729 -0.2605 -0.2726
   24SAPC   H7R 3164   0.186   5.105   9.978 -1.6166 -1.1854 -3.0437
   24SAPC   H7S 3165   0.196   4.964   9.885 -0.0873  3.1021 -1.3526
   24SAPC   C28 3166   0.361   4.976  10.040  0.2955  0.6788 -0.1420
   24SAPC   H8R 3167   0.370   4.988  10.149 -4.3171  1.0978  0.4228
   24SAPC   C29 3168   0.468   4.951   9.965  0.1380 -0.3864 -0.1139
   24SAPC   H9R 3169   0.566   4.914   9.999  0.8416  0.5578 -1.0764
   24SAPC  C210 3170   0.467   4.949   9.811  0.5885  0.0099  0.3037
   24SAPC  H10R 3171   0.366   4.920   9.775  1.0551 -1.3986  0.0766
   24SAPC  H10S 3172   0.542   4.875   9.776  0.5583  0.2171 -0.2107
   24SAPC  C211 3173   0.503   5.084   9.758 -0.1064  0.5614  0.7021
   24SAPC  H11R 3174   0.479   5.168   9.825 -0.6405  0.7408  0.2887
   24SAPC  C212 3175   0.541   5.105   9.623 -0.4062  0.0147 -0.0887
   24SAPC  H12R 3176   0.543   5.208   9.584  0.9514  0.8464  2.0112
   24SAPC  C213 3177   0.574   4.999   9.526  0.0953 -0.4425  0.0528
   24SAPC  H13R 3178   0.577   4.898   9.572 -0.7578 -0.6486 -0.3165
   24SAPC  H13S 3179   0.674   5.006   9.478 -1.7802  0.3479 -4.2110
   24SAPC  C214 3180   0.464   4.995   9.419  0.8241  0.3042  1.3439
   24SAPC  H14R 3181   0.389   4.926   9.460 -0.5723  1.2203  0.4044
   24SAPC  C215 3182   0.454   5.040   9.290 -0.0681 -0.1064 -0.1028
   24SAPC  H15R 3183   0.364   5.018   9.231 -1.3697  0.7923  1.4517
   24SAPC  C216 3184   0.553   5.123   9.214 -0.3151 -0.1893 -0.2470
   24SAPC  H16R 3185   0.651   5.127   9.267 -0.9748 -0.7774  1.0298
   24SAPC  H16S 3186   0.505   5.223   9.203 -0.7071 -0.4032 -0.4927
   24SAPC  C217 3187   0.583   5.070   9.077  0.4224 -0.3424  0.3466
   24SAPC  H17R 3188   0.641   4.975   9.080  0.2994 -0.4011  1.0694
   24SAPC  H17S 3189   0.660   5.135   9.030  0.4731 -1.0783 -0.6164
   24SAPC  C218 3190   0.465   5.053   8.979  0.2329 -0.0844 -0.0421
   24SAPC  H18R 3191   0.406   5.144   8.953 -2.0780 -1.1482  1.2173
   24SAPC  H18S 3192   0.386   4.998   9.034 -0.8166 -0.1533 -1.5891
   24SAPC  C219 3193   0.491   4.979   8.849 -0.0041  0.2385  0.3061
   24SAPC  H19R 3194   0.394   4.937   8.815 -0.1535 -0.5613  1.6777
   24SAPC  H19S 3195   0.549   4.885   8.862 -1.6462 -0.7596  0.5907
   24SAPC  C220 3196   0.564   5.048   8.735 -0.0246 -0.2009 -0.4515
   24SAPC  H20R 3197   0.556   4.983   8.645  0.8057  1.3212 -1.6878
   24SAPC  H20S 3198   0.674   5.063   8.746 -0.0777 -0.4937  0.4855
   24SAPC  H20T 3199   0.531   5.152   8.713  0.2523 -0.0157  0.0010
   24SAPC   C33 3200   0.274   5.371  10.169  0.3300  0.0867 -0.2490
   24SAPC   H3X 3201   0.241   5.268  10.197  1.0476  0.4469  2.1071
   24SAPC   H3Y 3202   0.379   5.383  10.136  0.4777  2.2074  0.8341
   24SAPC   C34 3203   0.190   5.442  10.062  0.5427 -0.7464 -0.5929
   24SAPC   H4X 3204   0.208   5.550  10.080 -1.3764 -0.3674 -0.7714
   24SAPC   H4Y 3205   0.080   5.427  10.064  0.6629 -1.6022  0.5541
   24SAPC   C35 3206   0.229   5.414   9.918 -0.0586 -0.4870  0.5524
   24SAPC   H5X 3207   0.243   5.308   9.890 -0.1866 -0.1057 -1.0340
   24SAPC   H5Y 3208   0.331   5.458   9.917 -0.3215  0.2209 -1.8738
   24SAPC   C36 3209   0.132   5.490   9.815  0.9358  0.4751  0.1163
   24SAPC   H6X 3210   0.126   5.599   9.832 -0.2845  0.5282 -0.5093
   24SAPC   H6Y 3211   0.028   5.452   9.829  0.9148  0.6794  0.5275
   24SAPC   C37 3212   0.175   5.474   9.672  0.2902 -0.6070 -1.0533
   24SAPC   H7X 3213   0.174   5.367   9.644 -0.3690 -1.8926  3.2095
   24SAPC   H7Y 3214   0.279   5.512   9.656  0.3274 -0.3182 -0.1853
   24SAPC   C38 3215   0.081   5.545   9.575  0.0510  0.2109 -0.5947
   24SAPC   H8X 3216   0.068   5.649   9.614  0.6964  0.0771  0.0097
   24SAPC   H8Y 3217  -0.010   5.485   9.594  0.0818  0.5672  0.8107
   24SAPC   C39 3218   0.116   5.538   9.427 -0.5158  0.4703 -0.5703
   24SAPC   H9X 3219   0.184   5.622   9.403  0.7008 -0.5551 -0.7910
   24SAPC   H9Y 3220   0.029   5.565   9.363 -1.5700 -0.0402  0.5944
   24SAPC  C310 3221   0.185   5.413   9.374  0.2796  0.5010 -0.2807
   24SAPC  H10X 3222   0.102   5.341   9.355 -1.8797  2.9502 -0.7208
   24SAPC  H10Y 3223   0.249   5.369   9.454 -2.5238  0.8663  2.3672
   24SAPC  C311 3224   0.276   5.434   9.249 -0.5213 -0.1168 -0.0849
   24SAPC  H11X 3225   0.308   5.335   9.212  0.1270  0.5844 -1.4937
   24SAPC  H11Y 3226   0.363   5.499   9.273 -1.5616  1.6286 -0.7804
   24SAPC  C312 3227   0.188   5.494   9.132  0.1688 -0.4769  0.0399
   24SAPC  H12X 3228   0.160   5.597   9.162  1.8330  0.2353 -0.7212
   24SAPC  H12Y 3229   0.101   5.427   9.116 -0.6656  0.6117 -0.0573
   24SAPC  C313 3230   0.269   5.498   9.006 -0.2531  0.3668  0.2326
   24SAPC  H13X 3231   0.305   5.393   8.998  0.9176  0.8013 -0.2568
   24SAPC  H13Y 3232   0.360   5.559   9.025 -0.6392  0.8652  0.5208
   24SAPC  C314 3233   0.193   5.544   8.885  0.1320 -0.0858 -0.1747
   24SAPC  H14X 3234   0.184   5.655   8.884  0.3562 -0.0690 -0.2058
   24SAPC  H14Y 3235   0.088   5.511   8.900 -0.6470  2.6808  1.2602
   24SAPC  C315 3236   0.250   5.490   8.751 -0.0407  0.0810 -0.0055
   24SAPC  H15X 3237   0.240   5.380   8.739 -1.1143  0.2772 -1.0923
   24SAPC  H15Y 3238   0.356   5.519   8.767 -0.8837  2.4115  1.8585
   24SAPC  C316 3239   0.190   5.577   8.642  0.1225 -0.6846  0.1101
   24SAPC  H16X 3240   0.211   5.684   8.660 -2.1817 -0.1296 -0.0717
   24SAPC  H16Y 3241   0.080   5.559   8.636 -0.2467  1.2530  0.5324
   24SAPC  C317 3242   0.257   5.535   8.512 -0.3864 -0.2353 -0.2838
   24SAPC  H17X 3243   0.366   5.540   8.529 -0.4698 -2.2099  1.2079
   24SAPC  H17Y 3244   0.234   5.596   8.422  2.0993  1.2195 -0.0172
   24SAPC  C318 3245   0.234   5.394   8.466 -0.0855  0.4468 -0.0425
   24SAPC  H18X 3246   0.290   5.372   8.373 -0.1455 -0.0841  0.0451
   24SAPC  H18Y 3247   0.125   5.389   8.444 -0.4208 -2.2250  1.7604
   24SAPC  H18Z 3248   0.260   5.316   8.541 -2.2911 -0.5505 -0.2212
   25SAPC     N 3249   6.322   1.474   5.596 -0.4585 -0.4669  0.6988
   25SAPC   C12 3250   6.171   1.460   5.631  0.9145 -0.4775  0.4054
   25SAPC  H12A 3251   6.155   1.375   5.695 -0.6279 -0.1321  0.5078
   25SAPC  H12B 3252   6.121   1.432   5.540 -0.2604 -1.0095  1.2021
   25SAPC   C13 3253   6.374   1.582   5.501  0.3916  0.0992 -0.4806
   25SAPC  H13A 3254   6.311   1.576   5.414 -1.4084  0.3587  0.7633
   25SAPC  H13B 3255   6.355   1.673   5.556  1.5471 -0.5493  1.0721
   25SAPC  H13C 3256   6.479   1.571   5.478  0.1282  2.1966 -3.2565
   25SAPC   C14 3257   6.404   1.484   5.733 -0.4999  0.3540  0.3554
   25SAPC  H14A 3258   6.499   1.535   5.727  0.1862 -0.6855  1.7901
   25SAPC  H14B 3259   6.340   1.544   5.795 -2.4268 -0.7064 -0.4890
   25SAPC  H14C 3260   6.424   1.392   5.785 -0.1406  0.6727  0.7890
   25SAPC   C15 3261   6.368   1.342   5.528  0.5358  0.4034  0.1102
   25SAPC  H15A 3262   6.317   1.336   5.433 -1.5054  3.0893  0.9145
   25SAPC  H15B 3263   6.474   1.324   5.523  0.2278 -1.5133 -0.0168
   25SAPC  H15C 3264   6.330   1.259   5.585  1.5236 -1.2541 -1.5414
   25SAPC   C11 3265   6.096   1.573   5.704  0.1263 -0.5204  0.5218
   25SAPC  H11A 3266   5.988   1.551   5.707 -0.0960  0.3624 -0.4506
   25SAPC  H11B 3267   6.110   1.668   5.648 -0.6686  0.3676  1.8026
   25SAPC     P 3268   6.141   1.485   5.949  0.7457  0.0471 -0.2750
   25SAPC   O13 3269   6.117   1.353   5.901  0.0661  0.0589 -0.1773
   25SAPC   O14 3270   6.245   1.503   6.047 -0.2778 -0.5800  0.1183
   25SAPC   O12 3271   6.156   1.592   5.831 -0.2547  0.5411  0.3155
   25SAPC   O11 3272   6.007   1.516   6.018 -0.1252 -0.2764  0.2276
   25SAPC    C1 3273   5.972   1.660   6.048  0.5269  1.1106  0.8017
   25SAPC    HA 3274   6.006   1.726   5.965  0.4108  1.2579  0.8723
   25SAPC    HB 3275   5.862   1.670   6.040  0.7473  3.7499  0.0641
   25SAPC    C2 3276   6.018   1.711   6.180 -0.2909 -0.0499 -0.1933
   25SAPC    HS 3277   6.128   1.699   6.177 -0.3696 -1.1276  0.6969
   25SAPC   O21 3278   5.954   1.650   6.292  0.1743 -0.1955 -0.0749
   25SAPC   C21 3279   6.030   1.620   6.396  0.2681 -0.6327  0.3637
   25SAPC   O22 3280   6.152   1.645   6.404  0.5550  0.4259 -0.1290
   25SAPC   C22 3281   5.948   1.546   6.500  0.3031  0.0539 -0.3747
   25SAPC   H2R 3282   5.841   1.548   6.472 -0.2876 -1.1577  1.5588
   25SAPC   H2S 3283   5.989   1.444   6.482  1.4565  0.7948 -2.3170
   25SAPC    C3 3284   6.004   1.866   6.186  0.2790  0.8048 -0.5360
   25SAPC    HX 3285   5.897   1.894   6.189 -0.1153 -0.5933 -0.6328
   25SAPC    HY 3286   6.052   1.900   6.092  1.0179  0.0246 -0.4539
   25SAPC   O31 3287   6.059   1.924   6.306  0.2481 -0.0067 -0.1363
   25SAPC   C31 3288   6.192   1.952   6.301 -0.4267  0.2403  0.1417
   25SAPC   O32 3289   6.271   1.922   6.209  0.5022 -0.1266 -0.2259
   25SAPC   C32 3290   6.234   2.015   6.432  0.1994 -0.0832 -0.5742
   25SAPC   H2X 3291   6.144   2.046   6.488  0.5981 -0.9075  0.5498
   25SAPC   H2Y 3292   6.302   2.101   6.411  2.4844 -1.7732 -0.4562
   25SAPC   C23 3293   5.967   1.612   6.642 -0.2738  0.8269 -0.5986
   25SAPC   H3R 3294   5.983   1.721   6.636  0.1366  0.7510 -0.9494
   25SAPC   H3S 3295   6.058   1.567   6.686 -1.2664 -1.5877 -0.8447
   25SAPC   C24 3296   5.856   1.569   6.733 -0.1813 -0.8266  0.0725
   25SAPC   H4R 3297   5.768   1.587   6.669 -0.3673  0.5048  0.6609
   25SAPC   H4S 3298   5.847   1.631   6.825  0.4943  0.3612 -0.6465
   25SAPC   C25 3299   5.861   1.421   6.768 -0.0523 -0.5851  0.1685
   25SAPC   H5R 3300   5.832   1.358   6.682  1.0877 -1.0698  0.1227
   25SAPC   C26 3301   5.908   1.368   6.884 -0.5610  0.0236 -0.2603
   25SAPC   H6R 3302   5.924   1.259   6.895  1.1094  0.4018  1.6047
   25SAPC   C27 3303   5.943   1.433   7.010 -0.1424 -0.7776  0.4775
   25SAPC   H7R 3304   5.945   1.541   6.983 -0.3231 -1.5542 -3.1917
   25SAPC   H7S 3305   6.048   1.406   7.037  0.6135  1.9661  0.6006
   25SAPC   C28 3306   5.833   1.400   7.108 -0.4596 -0.0607 -0.5726
   25SAPC   H8R 3307   5.731   1.414   7.068  0.0143  0.9484 -1.4716
   25SAPC   C29 3308   5.840   1.362   7.241 -0.0698 -0.7554  0.5244
   25SAPC   H9R 3309   5.747   1.351   7.299 -0.8426 -0.5700 -0.6446
   25SAPC  C210 3310   5.972   1.333   7.314  0.0047  0.0861 -0.4881
   25SAPC  H10R 3311   6.009   1.416   7.378  2.1026 -0.7940 -0.4790
   25SAPC  H10S 3312   6.047   1.316   7.233 -0.9409 -1.2520 -1.1218
   25SAPC  C211 3313   5.952   1.210   7.398 -0.2875  0.4245 -0.0069
   25SAPC  H11R 3314   5.960   1.117   7.340 -1.1723 -0.3246  1.0176
   25SAPC  C212 3315   5.931   1.199   7.529  0.0623 -0.3905  0.0289
   25SAPC  H12R 3316   5.917   1.097   7.567 -1.0222 -0.5064 -0.6283
   25SAPC  C213 3317   5.928   1.313   7.627  0.1823 -0.4800  0.2215
   25SAPC  H13R 3318   5.824   1.353   7.636  0.4829  0.5858 -0.9093
   25SAPC  H13S 3319   5.973   1.405   7.587  0.7087 -0.2043  1.3955
   25SAPC  C214 3320   6.002   1.289   7.755  0.4844 -0.1803 -0.3482
   25SAPC  H14R 3321   6.107   1.322   7.748 -0.5906  3.5002 -1.9012
   25SAPC  C215 3322   5.955   1.253   7.872  0.7547  0.2429 -0.5850
   25SAPC  H15R 3323   6.021   1.227   7.955 -2.1435 -0.7085  1.5689
   25SAPC  C216 3324   5.817   1.213   7.913 -0.1640 -0.2639  0.2249
   25SAPC  H16R 3325   5.808   1.103   7.920 -0.7246 -0.1890  0.8277
   25SAPC  H16S 3326   5.743   1.242   7.836  0.2217 -0.2890 -0.1540
   25SAPC  C217 3327   5.764   1.270   8.045  0.2113  0.2200 -0.3620
   25SAPC  H17R 3328   5.666   1.224   8.070 -0.3118  1.5709  0.1580
   25SAPC  H17S 3329   5.753   1.379   8.028  0.6566 -0.0385 -2.5847
   25SAPC  C218 3330   5.866   1.251   8.163  0.2421 -0.3027 -0.7119
   25SAPC  H18R 3331   5.818   1.290   8.256  1.4716  1.0757 -0.6188
   25SAPC  H18S 3332   5.958   1.310   8.145  1.7338 -2.3942 -0.3011
   25SAPC  C219 3333   5.911   1.103   8.187  0.0904  0.0804  0.3661
   25SAPC  H19R 3334   5.966   1.059   8.101 -0.5201 -1.1075  0.5608
   25SAPC  H19S 3335   5.813   1.051   8.194 -0.8662  1.5465 -1.2591
   25SAPC  C220 3336   5.993   1.079   8.310  0.3536  0.1270  0.6467
   25SAPC  H20R 3337   6.064   0.994   8.301  1.0675  0.6143  1.5191
   25SAPC  H20S 3338   5.931   1.058   8.399  1.5730 -0.7408  1.3267
   25SAPC  H20T 3339   6.062   1.163   8.333 -0.1617  0.8486 -0.3798
   25SAPC   C33 3340   6.323   1.926   6.526  0.3662  0.3352  0.1887
   25SAPC   H3X 3341   6.431   1.942   6.505  1.0474 -2.1925  1.3981
   25SAPC   H3Y 3342   6.299   1.819   6.507 -0.7238  0.5267  0.4297
   25SAPC   C34 3343   6.296   1.944   6.678 -0.1009 -0.6847 -0.1519
   25SAPC   H4X 3344   6.193   1.909   6.698 -0.8595  0.3725 -1.9998
   25SAPC   H4Y 3345   6.300   2.054   6.696 -0.6363 -0.9648  1.8586
   25SAPC   C35 3346   6.393   1.885   6.776 -0.0058  0.2692 -0.5651
   25SAPC   H5X 3347   6.490   1.940   6.774  0.5338 -0.6655 -3.0065
   25SAPC   H5Y 3348   6.406   1.782   6.738 -1.2514 -0.1293  0.0276
   25SAPC   C36 3349   6.332   1.857   6.911 -0.4585 -0.1372 -0.2494
   25SAPC   H6X 3350   6.272   1.764   6.905 -1.8886  0.7348  0.2152
   25SAPC   H6Y 3351   6.258   1.934   6.940 -1.0710 -0.7739 -0.1136
   25SAPC   C37 3352   6.429   1.839   7.031 -0.2408 -0.4731  0.5384
   25SAPC   H7X 3353   6.503   1.922   7.035 -1.1626  0.3305  2.3536
   25SAPC   H7Y 3354   6.484   1.744   7.016 -1.3378 -1.1668  0.8061
   25SAPC   C38 3355   6.362   1.830   7.172  0.1783 -0.4437 -0.4377
   25SAPC   H8X 3356   6.287   1.748   7.163 -0.6457  0.3078 -0.5980
   25SAPC   H8Y 3357   6.306   1.923   7.197 -0.0711 -1.0952  1.6123
   25SAPC   C39 3358   6.451   1.803   7.287  0.0433 -0.3716 -0.4512
   25SAPC   H9X 3359   6.531   1.880   7.289 -0.8793  0.5903  0.8281
   25SAPC   H9Y 3360   6.503   1.705   7.275  2.2798  0.8018 -0.9128
   25SAPC  C310 3361   6.399   1.799   7.431  0.3783 -0.4732  0.1195
   25SAPC  H10X 3362   6.312   1.732   7.444  0.6885 -1.1617 -1.2037
   25SAPC  H10Y 3363   6.351   1.895   7.459 -0.8219 -0.2914 -2.3160
   25SAPC  C311 3364   6.517   1.775   7.531 -0.2924  0.7288  0.5925
   25SAPC  H11X 3365   6.612   1.823   7.500  0.0816  0.1532  0.8357
   25SAPC  H11Y 3366   6.538   1.666   7.525  0.9017  0.9262  0.8856
   25SAPC  C312 3367   6.495   1.815   7.674 -0.0506 -0.1533 -0.2638
   25SAPC  H12X 3368   6.417   1.755   7.725 -0.9189  1.0470 -0.1456
   25SAPC  H12Y 3369   6.459   1.920   7.670 -2.4652 -0.8137  1.8929
   25SAPC  C313 3370   6.624   1.807   7.760 -0.8929 -0.0480  0.0057
   25SAPC  H13X 3371   6.706   1.862   7.708  0.5468 -0.8827  1.2973
   25SAPC  H13Y 3372   6.652   1.700   7.762 -0.5305  0.0183 -0.8817
   25SAPC  C314 3373   6.595   1.875   7.898  0.3384 -0.4163  0.5097
   25SAPC  H14X 3374   6.505   1.830   7.946 -0.9386  2.5858  1.1129
   25SAPC  H14Y 3375   6.559   1.975   7.867 -2.3055 -0.9051  1.7329
   25SAPC  C315 3376   6.719   1.890   7.988 -0.3881  0.0762  0.0537
   25SAPC  H15X 3377   6.803   1.930   7.928  0.5605 -2.3130 -0.3143
   25SAPC  H15Y 3378   6.749   1.791   8.027 -1.3270  0.6767  2.4751
   25SAPC  C316 3379   6.683   1.969   8.113  0.4084  0.5644  0.2155
   25SAPC  H16X 3380   6.577   1.967   8.148  0.9002  0.1866  1.7634
   25SAPC  H16Y 3381   6.726   2.072   8.111  0.3070  0.6267  0.8679
   25SAPC  C317 3382   6.745   1.905   8.244  0.5392  0.4787 -0.6178
   25SAPC  H17X 3383   6.703   1.962   8.330  0.3537 -2.5033  1.3770
   25SAPC  H17Y 3384   6.852   1.931   8.232  0.2949  2.6837  1.2401
   25SAPC  C318 3385   6.704   1.755   8.275  0.9571  0.6469  0.5815
   25SAPC  H18X 3386   6.594   1.746   8.268  0.8332  2.6845 -0.6346
   25SAPC  H18Y 3387   6.739   1.718   8.374 -0.3651 -0.9582  0.4981
   25SAPC  H18Z 3388   6.738   1.680   8.201 -0.0838  0.5489  0.1821
   26SAPC     N 3389   0.783   2.748   5.653 -0.3549 -0.2275  0.5578
   26SAPC   C12 3390   0.815   2.750   5.806 -0.9718  0.1075 -0.3460
   26SAPC  H12A 3391   0.787   2.846   5.847  0.6200  0.1277  0.8154
   26SAPC  H12B 3392   0.921   2.751   5.828 -0.5472  1.2241 -2.2290
   26SAPC   C13 3393   0.827   2.622   5.590 -0.0236  0.0758 -0.7909
   26SAPC  H13A 3394   0.817   2.538   5.658 -0.1272 -0.0860 -1.0025
   26SAPC  H13B 3395   0.785   2.589   5.496 -0.2000  0.9358 -1.0159
   26SAPC  H13C 3396   0.934   2.626   5.577  0.0672  0.5349  0.0340
   26SAPC   C14 3397   0.636   2.763   5.624 -0.5430  0.0223  0.4414
   26SAPC  H14A 3398   0.597   2.684   5.687 -0.0762  1.1012  2.1666
   26SAPC  H14B 3399   0.592   2.853   5.665 -0.1814  0.2715  0.2862
   26SAPC  H14C 3400   0.606   2.758   5.521  1.3795  0.0249 -0.1594
   26SAPC   C15 3401   0.858   2.861   5.591  0.1813 -0.6537  1.0536
   26SAPC  H15A 3402   0.793   2.945   5.573 -0.6861 -1.3586  0.8026
   26SAPC  H15B 3403   0.944   2.901   5.643 -0.6034  3.0440 -0.2190
   26SAPC  H15C 3404   0.901   2.835   5.495 -2.0414  1.1650 -0.5390
   26SAPC   C11 3405   0.742   2.650   5.898 -0.4121 -0.3422 -0.2155
   26SAPC  H11A 3406   0.782   2.679   5.998 -0.1364  0.6889 -0.6041
   26SAPC  H11B 3407   0.784   2.549   5.877  0.0117 -1.2207  4.0169
   26SAPC     P 3408   0.522   2.738   6.005  0.7799 -0.0396  0.6413
   26SAPC   O13 3409   0.533   2.884   5.993 -0.0785  0.4400  0.2124
   26SAPC   O14 3410   0.387   2.687   5.989  0.6067 -0.4279 -0.0551
   26SAPC   O12 3411   0.604   2.665   5.895  0.2149  0.0648 -0.2767
   26SAPC   O11 3412   0.578   2.685   6.140 -0.3351  0.2815 -0.3459
   26SAPC    C1 3413   0.604   2.548   6.178  1.0690  0.7428 -0.0380
   26SAPC    HA 3414   0.642   2.489   6.091 -2.1211 -2.8880  0.7608
   26SAPC    HB 3415   0.691   2.547   6.246  0.6287  1.5934  0.5664
   26SAPC    C2 3416   0.477   2.469   6.230 -0.3443 -0.5710  0.3013
   26SAPC    HS 3417   0.398   2.500   6.157  2.5048  1.5291 -2.1728
   26SAPC   O21 3418   0.442   2.521   6.363  0.7027  0.5630  0.2327
   26SAPC   C21 3419   0.370   2.626   6.376  0.4120 -0.0375 -0.2320
   26SAPC   O22 3420   0.319   2.690   6.287  0.1156 -0.6243  0.2652
   26SAPC   C22 3421   0.368   2.660   6.525  0.2320 -0.9520 -0.0118
   26SAPC   H2R 3422   0.365   2.565   6.582  0.2231 -2.3107 -2.1747
   26SAPC   H2S 3423   0.463   2.713   6.549 -0.4526  0.7612 -0.8978
   26SAPC    C3 3424   0.485   2.318   6.222  0.2463  0.3470 -0.0152
   26SAPC    HX 3425   0.582   2.288   6.267 -0.1192  1.8173  1.8622
   26SAPC    HY 3426   0.484   2.288   6.115  1.4051  0.3700 -0.0442
   26SAPC   O31 3427   0.372   2.256   6.282  0.0629 -0.0302  0.2897
   26SAPC   C31 3428   0.388   2.134   6.330 -0.1730  0.1351  0.4442
   26SAPC   O32 3429   0.480   2.060   6.304 -0.3667 -0.6466  0.9122
   26SAPC   C32 3430   0.266   2.097   6.416  0.6336 -0.2086  0.4613
   26SAPC   H2X 3431   0.168   2.120   6.369  0.0423 -0.9996  1.2742
   26SAPC   H2Y 3432   0.266   2.156   6.510  1.2282 -1.3808  1.2135
   26SAPC   C23 3433   0.247   2.741   6.585  0.0413 -0.5318 -0.2598
   26SAPC   H3R 3434   0.153   2.699   6.543 -0.3978  0.4909 -0.3253
   26SAPC   H3S 3435   0.239   2.851   6.573 -0.7701 -0.7152 -1.6164
   26SAPC   C24 3436   0.216   2.707   6.736  0.0080 -0.6212 -0.7494
   26SAPC   H4R 3437   0.156   2.795   6.770 -1.6549 -0.6946 -3.2313
   26SAPC   H4S 3438   0.307   2.700   6.799 -1.8924 -2.5711  2.0341
   26SAPC   C25 3439   0.138   2.583   6.761 -0.1172  0.0816  0.4791
   26SAPC   H5R 3440   0.040   2.582   6.711  0.2645  3.2019 -0.4884
   26SAPC   C26 3441   0.167   2.486   6.846  0.1768 -0.3508  0.4913
   26SAPC   H6R 3442   0.106   2.394   6.848 -0.5031  0.1078  1.9467
   26SAPC   C27 3443   0.296   2.495   6.935  0.1141 -0.1882  0.5023
   26SAPC   H7R 3444   0.279   2.573   7.013 -3.9299  1.0040 -1.2610
   26SAPC   H7S 3445   0.383   2.522   6.871 -0.7168 -0.7806 -0.9376
   26SAPC   C28 3446   0.324   2.359   6.997  0.1037 -0.2593 -0.2385
   26SAPC   H8R 3447   0.322   2.272   6.931 -2.2239  0.1165 -0.7265
   26SAPC   C29 3448   0.354   2.339   7.127 -0.3668  0.1912  0.1025
   26SAPC   H9R 3449   0.382   2.238   7.161  1.3010 -0.3155 -2.5223
   26SAPC  C210 3450   0.380   2.446   7.233 -0.5856  0.4568  0.7907
   26SAPC  H10R 3451   0.293   2.515   7.233 -0.8105  0.1918 -0.4597
   26SAPC  H10S 3452   0.458   2.518   7.198 -1.1554  0.9375  0.4997
   26SAPC  C211 3453   0.419   2.394   7.369 -0.1568  0.4474  0.2375
   26SAPC  H11R 3454   0.497   2.317   7.367  0.7189  1.2980 -2.3946
   26SAPC  C212 3455   0.391   2.448   7.486  0.0960  0.0418 -0.2216
   26SAPC  H12R 3456   0.429   2.392   7.573  1.6801 -0.9354 -1.5045
   26SAPC  C213 3457   0.303   2.564   7.504  0.2362 -0.4407 -0.3183
   26SAPC  H13R 3458   0.268   2.575   7.609 -2.7483 -0.0126 -1.2578
   26SAPC  H13S 3459   0.203   2.539   7.462 -1.4667  0.7296  2.7241
   26SAPC  C214 3460   0.357   2.698   7.454  0.2889 -0.6280 -0.5030
   26SAPC  H14R 3461   0.341   2.722   7.348 -0.8897  0.1356 -0.1802
   26SAPC  C215 3462   0.410   2.800   7.523  0.4910 -0.4433  0.8854
   26SAPC  H15R 3463   0.444   2.885   7.462  2.2770 -0.9020  1.1662
   26SAPC  C216 3464   0.427   2.805   7.674  0.1417 -0.3523 -0.1482
   26SAPC  H16R 3465   0.513   2.870   7.702 -0.8199  1.6062 -1.5606
   26SAPC  H16S 3466   0.434   2.703   7.717  1.2717  0.0090  0.5778
   26SAPC  C217 3467   0.297   2.877   7.729 -0.0813 -0.0670 -0.3739
   26SAPC  H17R 3468   0.208   2.822   7.690 -0.4901 -0.2286  0.7566
   26SAPC  H17S 3469   0.297   2.986   7.710 -0.5629 -0.0927 -0.5366
   26SAPC  C218 3470   0.299   2.863   7.883  0.1945  0.1906 -0.5871
   26SAPC  H18R 3471   0.397   2.893   7.925  1.3912 -4.1720  0.2458
   26SAPC  H18S 3472   0.279   2.755   7.901  0.1557  0.4041  0.7566
   26SAPC  C219 3473   0.181   2.944   7.938 -0.1542 -0.3605  0.7203
   26SAPC  H19R 3474   0.087   2.909   7.891 -1.3072  0.1292  2.5311
   26SAPC  H19S 3475   0.197   3.049   7.905 -2.1947 -0.1159  0.3257
   26SAPC  C220 3476   0.189   2.942   8.090 -0.0609 -0.0255 -0.7462
   26SAPC  H20R 3477   0.290   2.984   8.112 -0.2409  1.4404 -2.4575
   26SAPC  H20S 3478   0.193   2.833   8.110 -1.2217 -0.3084 -1.9171
   26SAPC  H20T 3479   0.102   2.994   8.134  0.5491  0.3701  0.0242
   26SAPC   C33 3480   0.269   1.947   6.439  0.8550  0.3151  0.3520
   26SAPC   H3X 3481   0.356   1.920   6.503  1.0758 -1.2676 -0.5585
   26SAPC   H3Y 3482   0.277   1.888   6.345  3.0959 -3.4932  2.6457
   26SAPC   C34 3483   0.143   1.900   6.508  0.3180 -0.0426 -0.0532
   26SAPC   H4X 3484   0.049   1.922   6.453  0.9291 -0.6292 -1.3661
   26SAPC   H4Y 3485   0.138   1.957   6.604  1.9217  1.1726 -0.6481
   26SAPC   C35 3486   0.140   1.744   6.527  0.2869  0.0851  0.6110
   26SAPC   H5X 3487   0.233   1.704   6.573  0.2760 -0.7684 -0.0773
   26SAPC   H5Y 3488   0.140   1.706   6.422 -2.2179  0.6169  0.3584
   26SAPC   C36 3489   0.015   1.688   6.605  0.2090  0.8334  0.3441
   26SAPC   H6X 3490  -0.006   1.581   6.582  2.7298 -0.4151  3.2291
   26SAPC   H6Y 3491  -0.072   1.753   6.580  1.0460  2.4165  1.3873
   26SAPC   C37 3492   0.036   1.682   6.758  0.5875 -0.3261  0.0048
   26SAPC   H7X 3493   0.060   1.788   6.783 -0.0721 -0.4430  1.1996
   26SAPC   H7Y 3494   0.131   1.630   6.778  1.7506  1.2944 -0.9904
   26SAPC   C38 3495  -0.089   1.643   6.832 -0.4696  0.3936  0.3517
   26SAPC   H8X 3496  -0.141   1.568   6.769 -0.4695 -0.7117  1.6176
   26SAPC   H8Y 3497  -0.167   1.720   6.849 -1.1646 -0.0537 -0.7311
   26SAPC   C39 3498  -0.055   1.567   6.965 -0.5443  0.2089 -0.0531
   26SAPC   H9X 3499   0.027   1.499   6.935 -0.1991 -0.0620  1.4352
   26SAPC   H9Y 3500  -0.141   1.506   6.999 -0.0115  0.1928  1.3266
   26SAPC  C310 3501  -0.019   1.651   7.092  1.1168 -0.8980 -0.1560
   26SAPC  H10X 3502  -0.104   1.718   7.120  1.8946 -0.3212  0.8755
   26SAPC  H10Y 3503   0.065   1.716   7.061  0.3261  0.1469 -0.1750
   26SAPC  C311 3504   0.015   1.556   7.208 -0.2391  0.5586 -0.4756
   26SAPC  H11X 3505   0.108   1.498   7.190 -0.7513 -0.6318  0.5617
   26SAPC  H11Y 3506  -0.071   1.487   7.218 -0.3769  0.6181 -1.1927
   26SAPC  C312 3507   0.041   1.627   7.343 -0.0030  0.0191  0.7132
   26SAPC  H12X 3508  -0.044   1.699   7.351 -1.0802 -0.7299 -2.4969
   26SAPC  H12Y 3509   0.131   1.691   7.335 -0.6365  0.8259 -0.2469
   26SAPC  C313 3510   0.076   1.543   7.464 -0.2532  0.4704  0.0909
   26SAPC  H13X 3511   0.172   1.492   7.441 -1.1003  0.2092 -3.4620
   26SAPC  H13Y 3512   0.001   1.462   7.476 -3.1225  2.7860 -0.9068
   26SAPC  C314 3513   0.078   1.626   7.592 -0.3212 -0.9043 -0.0189
   26SAPC  H14X 3514  -0.028   1.654   7.610 -0.5099 -1.1909 -0.6527
   26SAPC  H14Y 3515   0.136   1.720   7.575  1.3768 -2.4138 -3.7353
   26SAPC  C315 3516   0.122   1.528   7.700 -0.9593  0.6370 -0.0333
   26SAPC  H15X 3517   0.215   1.480   7.662 -1.8893  0.7019 -2.5748
   26SAPC  H15Y 3518   0.036   1.459   7.710 -1.8008  1.2338 -2.4315
   26SAPC  C316 3519   0.153   1.588   7.835 -0.3735  0.1195 -0.5792
   26SAPC  H16X 3520   0.101   1.686   7.849  1.3453  1.0584 -0.5238
   26SAPC  H16Y 3521   0.255   1.631   7.832  0.1118 -0.6437  2.2503
   26SAPC  C317 3522   0.147   1.490   7.951  0.2358 -0.4196  0.2528
   26SAPC  H17X 3523   0.204   1.539   8.032 -1.1911  1.5470  0.1392
   26SAPC  H17Y 3524   0.185   1.390   7.921 -1.7211 -0.2518 -3.5040
   26SAPC  C318 3525   0.008   1.469   8.008  0.1408 -1.1012 -0.3218
   26SAPC  H18X 3526   0.008   1.432   8.112 -1.7391 -0.8573 -0.1967
   26SAPC  H18Y 3527  -0.059   1.427   7.930  0.5050  0.3408 -1.4577
   26SAPC  H18Z 3528  -0.029   1.571   8.032  1.1008 -1.3917  2.7428
   27SAPC     N 3529   2.952   3.820   6.369 -0.0543 -0.9503 -0.2090
   27SAPC   C12 3530   2.849   3.759   6.461 -0.9198 -0.6861  0.4700
   27SAPC  H12A 3531   2.880   3.682   6.531 -1.7040  0.5359  2.2513
   27SAPC  H12B 3532   2.780   3.717   6.390  1.3513 -0.6096 -1.9060
   27SAPC   C13 3533   3.037   3.913   6.443  0.2440 -0.1596 -0.0317
   27SAPC  H13A 3534   2.985   3.998   6.485 -1.9315 -0.4528 -1.9519
   27SAPC  H13B 3535   3.084   3.869   6.529  1.1306  1.1529  0.1915
   27SAPC  H13C 3536   3.127   3.951   6.397  1.2919 -0.4991  1.6339
   27SAPC   C14 3537   3.040   3.711   6.314  0.6372 -0.2109 -0.2935
   27SAPC  H14A 3538   2.976   3.647   6.254 -1.8842  0.2467  1.7032
   27SAPC  H14B 3539   3.124   3.748   6.258  0.8370  1.5152  1.0486
   27SAPC  H14C 3540   3.094   3.672   6.399  1.9116 -0.1316 -1.0434
   27SAPC   C15 3541   2.889   3.887   6.251  0.5029  0.6674 -0.5546
   27SAPC  H15A 3542   2.963   3.955   6.212  2.1540 -0.4730  0.4345
   27SAPC  H15B 3543   2.868   3.812   6.176  1.8046  0.1260 -0.3989
   27SAPC  H15C 3544   2.797   3.933   6.284  0.6875  0.0812  0.8566
   27SAPC   C11 3545   2.773   3.861   6.552  0.0242  0.5382 -0.2239
   27SAPC  H11A 3546   2.849   3.924   6.603 -0.1972  0.8765 -0.3127
   27SAPC  H11B 3547   2.728   3.812   6.640  0.8189 -3.0383 -1.6278
   27SAPC     P 3548   2.550   3.870   6.416 -0.0854 -0.3196 -0.3403
   27SAPC   O13 3549   2.438   3.968   6.418  0.4246  0.1105 -0.2962
   27SAPC   O14 3550   2.589   3.823   6.281 -0.2323 -0.5545 -0.2384
   27SAPC   O12 3551   2.675   3.944   6.488 -0.2646  0.7808 -0.1574
   27SAPC   O11 3552   2.514   3.742   6.500 -0.4342  0.4399  0.3106
   27SAPC    C1 3553   2.389   3.719   6.555  0.4747 -0.0114  0.1870
   27SAPC    HA 3554   2.300   3.735   6.490 -0.2416  0.6602  1.2946
   27SAPC    HB 3555   2.385   3.608   6.567  0.1617  0.1516  1.7221
   27SAPC    C2 3556   2.355   3.798   6.682  0.1754  0.2074 -0.0125
   27SAPC    HS 3557   2.355   3.906   6.654 -1.6753  0.1032 -0.5365
   27SAPC   O21 3558   2.447   3.783   6.793  0.1849  0.3805 -0.1729
   27SAPC   C21 3559   2.499   3.665   6.822 -0.0263 -0.2771 -0.9136
   27SAPC   O22 3560   2.454   3.561   6.778 -0.0535 -0.0738 -0.1622
   27SAPC   C22 3561   2.599   3.674   6.937  0.0734  0.5716 -0.4188
   27SAPC   H2R 3562   2.697   3.691   6.888  0.0756  0.9812 -0.2763
   27SAPC   H2S 3563   2.571   3.756   7.006  2.2003 -0.2211  1.5243
   27SAPC    C3 3564   2.206   3.775   6.731  0.3120  0.0162 -0.1955
   27SAPC    HX 3565   2.171   3.673   6.759  1.8886 -0.0372  1.7840
   27SAPC    HY 3566   2.134   3.798   6.649 -0.4250 -1.1389  0.0953
   27SAPC   O31 3567   2.188   3.867   6.844  0.1367  0.0239  0.0193
   27SAPC   C31 3568   2.193   3.810   6.961  0.9902  0.5726 -0.2255
   27SAPC   O32 3569   2.232   3.697   6.988  0.3798 -0.0829  0.0726
   27SAPC   C32 3570   2.147   3.917   7.061  0.0757 -0.2485  0.1423
   27SAPC   H2X 3571   2.064   3.972   7.011  2.3993  2.9637 -0.4778
   27SAPC   H2Y 3572   2.227   3.994   7.058 -0.2836  0.0861 -1.7424
   27SAPC   C23 3573   2.606   3.533   7.011 -0.1966 -0.5227  0.6874
   27SAPC   H3R 3574   2.635   3.452   6.941  1.0651 -1.4287  2.1918
   27SAPC   H3S 3575   2.509   3.507   7.058 -1.2816  1.4663 -0.3336
   27SAPC   C24 3576   2.702   3.538   7.133 -0.7325 -0.0198  0.1807
   27SAPC   H4R 3577   2.801   3.548   7.083 -0.9860  0.2620 -0.2638
   27SAPC   H4S 3578   2.696   3.438   7.183  0.2898 -1.0038 -1.5680
   27SAPC   C25 3579   2.693   3.653   7.225  0.1704  0.5546  0.2288
   27SAPC   H5R 3580   2.734   3.747   7.185 -0.6212  0.9421  0.3094
   27SAPC   C26 3581   2.641   3.662   7.351 -0.9739 -0.0347  0.1467
   27SAPC   H6R 3582   2.649   3.759   7.402  0.7021 -0.7567  1.3501
   27SAPC   C27 3583   2.579   3.554   7.429 -0.7604 -0.8634  0.8024
   27SAPC   H7R 3584   2.652   3.541   7.512  0.7255  1.5599 -0.0158
   27SAPC   H7S 3585   2.577   3.465   7.363 -1.9381 -2.1846  2.5064
   27SAPC   C28 3586   2.436   3.583   7.467 -0.1744  0.3740 -0.7369
   27SAPC   H8R 3587   2.366   3.631   7.398 -1.3908 -1.5267 -0.9189
   27SAPC   C29 3588   2.379   3.537   7.588  0.1202  0.3904  0.6934
   27SAPC   H9R 3589   2.269   3.528   7.591  0.1399 -0.2721 -0.0666
   27SAPC  C210 3590   2.445   3.450   7.690  0.0069 -0.2578 -0.1992
   27SAPC  H10R 3591   2.528   3.400   7.636 -0.4639 -2.3806  0.9415
   27SAPC  H10S 3592   2.392   3.352   7.698  0.4245 -0.7578 -2.6839
   27SAPC  C211 3593   2.474   3.499   7.826  0.4301 -0.3781  0.5170
   27SAPC  H11R 3594   2.457   3.607   7.837  1.6580 -0.0317 -0.6855
   27SAPC  C212 3595   2.531   3.450   7.938 -0.4446  0.1525  0.8285
   27SAPC  H12R 3596   2.555   3.525   8.014  2.3198 -0.6429  0.8331
   27SAPC  C213 3597   2.586   3.305   7.942 -0.3299 -0.7748  0.0127
   27SAPC  H13R 3598   2.689   3.304   7.984  0.4087  0.1741 -1.6513
   27SAPC  H13S 3599   2.605   3.276   7.836 -0.5331  1.3430 -0.6590
   27SAPC  C214 3600   2.498   3.205   8.011  0.8508 -0.0387 -0.6121
   27SAPC  H14R 3601   2.408   3.172   7.958 -0.1256  0.4025  0.7188
   27SAPC  C215 3602   2.528   3.136   8.121 -0.2649  0.2516 -0.0982
   27SAPC  H15R 3603   2.454   3.071   8.170  1.3607  0.9690  3.6011
   27SAPC  C216 3604   2.656   3.152   8.198 -0.2892  0.2450  0.1091
   27SAPC  H16R 3605   2.650   3.255   8.239 -2.3246  0.0058  0.5235
   27SAPC  H16S 3606   2.742   3.124   8.133 -0.4594  1.2167 -0.5554
   27SAPC  C217 3607   2.666   3.057   8.320  0.2685 -0.1137 -0.4465
   27SAPC  H17R 3608   2.619   2.961   8.287  0.8545 -0.2598 -0.8861
   27SAPC  H17S 3609   2.594   3.098   8.392  2.1285  2.1413  0.2378
   27SAPC  C218 3610   2.808   3.036   8.380  0.2694  0.1474 -0.6853
   27SAPC  H18R 3611   2.861   2.980   8.299 -1.0232  0.2551 -1.6373
   27SAPC  H18S 3612   2.795   2.973   8.471 -1.0016  1.8899  0.3975
   27SAPC  C219 3613   2.874   3.161   8.434 -0.2161  0.5684  0.4644
   27SAPC  H19R 3614   2.841   3.250   8.376  0.5563  0.2549 -0.4937
   27SAPC  H19S 3615   2.983   3.153   8.412 -0.4740 -1.5398 -0.3406
   27SAPC  C220 3616   2.848   3.188   8.586 -0.3050 -0.2150 -0.4183
   27SAPC  H20R 3617   2.864   3.096   8.647  1.6245 -1.0038 -1.9885
   27SAPC  H20S 3618   2.746   3.222   8.614 -0.2749 -0.3154 -0.1848
   27SAPC  H20T 3619   2.920   3.270   8.606  0.4762 -0.3507 -2.4160
   27SAPC   C33 3620   2.101   3.858   7.198  0.1238 -0.3769  0.2766
   27SAPC   H3X 3621   2.098   3.948   7.263  0.7905 -0.1408 -0.0043
   27SAPC   H3Y 3622   2.177   3.791   7.243  0.1280  0.8414  2.1828
   27SAPC   C34 3623   1.966   3.786   7.195 -0.1928 -0.4407  0.3325
   27SAPC   H4X 3624   1.968   3.706   7.118 -1.6088  1.4562 -1.8254
   27SAPC   H4Y 3625   1.881   3.844   7.154  0.4370 -0.0950 -0.5258
   27SAPC   C35 3626   1.910   3.734   7.331 -0.5492  0.0665 -0.1058
   27SAPC   H5X 3627   1.974   3.654   7.375  1.1007  1.3720 -0.0302
   27SAPC   H5Y 3628   1.809   3.691   7.313 -1.2894  2.0744 -1.0635
   27SAPC   C36 3629   1.914   3.840   7.440 -0.0495 -0.5270 -0.2207
   27SAPC   H6X 3630   1.849   3.928   7.420  2.8280  2.3386  1.8089
   27SAPC   H6Y 3631   2.019   3.877   7.448  0.6956 -2.4294 -0.8350
   27SAPC   C37 3632   1.873   3.791   7.586  0.2184  0.5006  0.6597
   27SAPC   H7X 3633   1.925   3.696   7.610 -0.8789 -0.4692 -0.6329
   27SAPC   H7Y 3634   1.766   3.762   7.583  0.6614 -1.2104 -1.4874
   27SAPC   C38 3635   1.885   3.891   7.700  0.1923 -0.6971  0.3629
   27SAPC   H8X 3636   1.834   3.985   7.670  0.2628 -0.6178  0.4874
   27SAPC   H8Y 3637   1.994   3.909   7.717  0.2632  1.0342 -1.5937
   27SAPC   C39 3638   1.849   3.829   7.841 -0.0639 -0.4494  0.6197
   27SAPC   H9X 3639   1.881   3.722   7.844 -0.0485 -0.4537  0.3007
   27SAPC   H9Y 3640   1.738   3.830   7.847 -0.0378 -1.5164  1.9710
   27SAPC  C310 3641   1.901   3.909   7.963 -0.0510  1.1786  0.2236
   27SAPC  H10X 3642   1.847   4.005   7.952 -3.5043 -0.9093 -3.6131
   27SAPC  H10Y 3643   2.012   3.918   7.957  0.1504  0.2540  1.9444
   27SAPC  C311 3644   1.854   3.845   8.090 -0.0514  0.1445 -0.8065
   27SAPC  H11X 3645   1.882   3.739   8.105  0.5458  0.4783  0.5927
   27SAPC  H11Y 3646   1.744   3.861   8.089  0.0860  1.2937  0.2221
   27SAPC  C312 3647   1.905   3.910   8.220  0.3713 -0.6571  0.4631
   27SAPC  H12X 3648   1.835   3.885   8.302 -2.1011  1.8454 -0.7268
   27SAPC  H12Y 3649   1.875   4.015   8.199  1.3943 -0.4220  0.0794
   27SAPC  C313 3650   2.057   3.920   8.237 -0.3133 -0.9856 -1.0305
   27SAPC  H13X 3651   2.081   3.984   8.325 -1.6070  2.4078 -2.9661
   27SAPC  H13Y 3652   2.106   3.959   8.145 -0.4436  0.7628 -0.3947
   27SAPC  C314 3653   2.123   3.789   8.255 -0.3283  0.3379  0.1160
   27SAPC  H14X 3654   2.090   3.719   8.175  2.4946 -0.0430 -0.8585
   27SAPC  H14Y 3655   2.095   3.749   8.355 -0.8668  0.2984 -0.0494
   27SAPC  C315 3656   2.279   3.796   8.248  0.2421  0.0250  0.5470
   27SAPC  H15X 3657   2.326   3.836   8.341  2.2334 -1.1619  0.1072
   27SAPC  H15Y 3658   2.315   3.866   8.170 -0.2958  0.7992  0.9747
   27SAPC  C316 3659   2.350   3.668   8.216 -0.1716  0.4465  0.0056
   27SAPC  H16X 3660   2.460   3.686   8.218  0.0746 -0.9790  1.3308
   27SAPC  H16Y 3661   2.330   3.633   8.112 -1.6045 -1.8473  0.9830
   27SAPC  C317 3662   2.289   3.560   8.300  0.2976  0.2892 -0.2723
   27SAPC  H17X 3663   2.185   3.534   8.273  0.6680 -1.4352 -0.1931
   27SAPC  H17Y 3664   2.283   3.588   8.407 -1.1318 -0.6473 -0.0769
   27SAPC  C318 3665   2.370   3.428   8.291  0.0145  0.1101  0.2079
   27SAPC  H18X 3666   2.380   3.392   8.187  0.1797 -1.1840  0.6595
   27SAPC  H18Y 3667   2.328   3.348   8.356  1.6856 -0.8650  0.1472
   27SAPC  H18Z 3668   2.477   3.441   8.319 -0.4223  0.2756  1.9389
   28SAPC     N 3669   2.478   0.742   5.876 -0.2963  0.0314  0.3115
   28SAPC   C12 3670   2.366   0.834   5.942  0.4300  0.9121  0.2318
   28SAPC  H12A 3671   2.299   0.873   5.868 -3.1030  0.4600  2.9082
   28SAPC  H12B 3672   2.409   0.913   6.001  0.9066  0.3865  0.5987
   28SAPC   C13 3673   2.556   0.677   5.989  0.1832  0.2471  0.2659
   28SAPC  H13A 3674   2.634   0.607   5.964  1.1960  0.5845  2.2916
   28SAPC  H13B 3675   2.601   0.738   6.065  1.5531 -0.1971 -0.1504
   28SAPC  H13C 3676   2.481   0.622   6.044  0.0944  1.7473  1.7408
   28SAPC   C14 3677   2.409   0.629   5.801  0.4490  0.2508 -0.3207
   28SAPC  H14A 3678   2.476   0.546   5.779  2.1515  1.7506 -1.0601
   28SAPC  H14B 3679   2.331   0.593   5.866  0.6312 -2.0365 -1.2658
   28SAPC  H14C 3680   2.354   0.658   5.713  0.6931  0.5897 -0.3614
   28SAPC   C15 3681   2.559   0.826   5.779  0.0189  0.0088 -0.3777
   28SAPC  H15A 3682   2.629   0.878   5.842  1.1593 -0.8501 -0.8952
   28SAPC  H15B 3683   2.603   0.754   5.711 -0.1743 -0.2294 -0.2477
   28SAPC  H15C 3684   2.490   0.891   5.727 -1.7006  0.1710  1.9497
   28SAPC   C11 3685   2.273   0.767   6.056 -0.2349 -0.1595 -0.9032
   28SAPC  H11A 3686   2.206   0.842   6.103  0.5893 -0.3822  0.6789
   28SAPC  H11B 3687   2.338   0.731   6.138 -0.1077  1.3415 -0.3237
   28SAPC     P 3688   2.139   0.537   6.077  0.1792  0.1309  0.1809
   28SAPC   O13 3689   1.995   0.525   6.048  0.3028  0.8238 -0.2021
   28SAPC   O14 3690   2.232   0.422   6.051  0.1789 -0.6239  0.6894
   28SAPC   O12 3691   2.186   0.665   6.002 -0.0676 -0.0047 -0.3909
   28SAPC   O11 3692   2.165   0.579   6.234 -0.7343 -0.1175 -0.5300
   28SAPC    C1 3693   2.266   0.529   6.318 -0.4692  0.3273 -0.0566
   28SAPC    HA 3694   2.298   0.424   6.296 -1.2286 -0.1118  0.8872
   28SAPC    HB 3695   2.356   0.594   6.315 -0.2328  0.0182  0.1806
   28SAPC    C2 3696   2.234   0.542   6.469  1.0190 -0.0640  0.7254
   28SAPC    HS 3697   2.208   0.649   6.487 -0.8355 -0.4782  0.6209
   28SAPC   O21 3698   2.356   0.503   6.541  0.6168  0.6108 -0.2675
   28SAPC   C21 3699   2.375   0.579   6.647  0.0260  0.1283 -0.1805
   28SAPC   O22 3700   2.295   0.652   6.705 -0.1294  0.0826 -0.0306
   28SAPC   C22 3701   2.517   0.565   6.704 -0.5101 -0.2777  0.9589
   28SAPC   H2R 3702   2.518   0.566   6.816 -0.1441  1.0649  0.9616
   28SAPC   H2S 3703   2.559   0.465   6.681  1.2067  0.2923  1.4608
   28SAPC    C3 3704   2.107   0.454   6.499  0.6895  0.3271 -0.2815
   28SAPC    HX 3705   2.148   0.356   6.467  0.0724  0.1814 -0.6465
   28SAPC    HY 3706   2.019   0.483   6.438  1.6394 -0.1203 -1.9188
   28SAPC   O31 3707   2.079   0.444   6.642 -0.2655 -0.0595 -0.3268
   28SAPC   C31 3708   1.994   0.539   6.680 -0.2504 -0.5422  0.0928
   28SAPC   O32 3709   1.941   0.625   6.608 -0.1599  0.3594  0.7739
   28SAPC   C32 3710   1.970   0.536   6.833 -0.4341  0.2440  1.0007
   28SAPC   H2X 3711   1.937   0.635   6.871 -1.0676  1.3193 -2.0954
   28SAPC   H2Y 3712   2.067   0.520   6.885 -0.8733 -1.4978  1.3466
   28SAPC   C23 3713   2.620   0.663   6.653 -0.4297  0.2145  1.0211
   28SAPC   H3R 3714   2.576   0.764   6.666 -0.4341  0.3210  0.2309
   28SAPC   H3S 3715   2.636   0.658   6.543  1.0365  1.2861  1.1619
   28SAPC   C24 3716   2.747   0.663   6.738 -0.3853 -0.6295 -0.1420
   28SAPC   H4R 3717   2.791   0.765   6.731  0.6197 -1.0415  0.0605
   28SAPC   H4S 3718   2.717   0.651   6.845 -1.1323  2.9306  0.1977
   28SAPC   C25 3719   2.842   0.561   6.685  0.5680  0.5065  0.6218
   28SAPC   H5R 3720   2.867   0.571   6.579 -0.8096 -1.3174  0.0756
   28SAPC   C26 3721   2.891   0.457   6.756  0.4219  0.1569 -1.3057
   28SAPC   H6R 3722   2.958   0.386   6.706  4.1978  2.2400  0.3329
   28SAPC   C27 3723   2.867   0.428   6.902  0.1015 -0.0962 -0.5710
   28SAPC   H7R 3724   2.861   0.521   6.963 -0.0751 -0.1211 -0.5497
   28SAPC   H7S 3725   2.958   0.376   6.940  0.8607  0.2107 -1.9272
   28SAPC   C28 3726   2.754   0.330   6.922 -0.6416 -0.1193 -0.0108
   28SAPC   H8R 3727   2.694   0.325   6.830  1.7928 -1.1174 -1.6560
   28SAPC   C29 3728   2.719   0.266   7.037 -0.2192 -0.4034 -0.2524
   28SAPC   H9R 3729   2.628   0.205   7.031 -2.4698  2.6250  0.7548
   28SAPC  C210 3730   2.790   0.289   7.167 -0.2744  0.3307 -0.4193
   28SAPC  H10R 3731   2.892   0.328   7.147 -0.1512 -0.0696 -0.5756
   28SAPC  H10S 3732   2.797   0.185   7.207 -0.7706 -0.0473 -1.2950
   28SAPC  C211 3733   2.723   0.375   7.267 -0.2847 -0.2866  0.0501
   28SAPC  H11R 3734   2.664   0.448   7.210  0.2207 -1.2907 -1.8420
   28SAPC  C212 3735   2.725   0.370   7.402 -0.0463 -0.5216  0.0186
   28SAPC  H12R 3736   2.682   0.453   7.460 -1.5140 -1.6665  0.6261
   28SAPC  C213 3737   2.801   0.271   7.484 -0.3000  0.0345 -0.5527
   28SAPC  H13R 3738   2.853   0.200   7.416  3.1779  2.4852 -0.7243
   28SAPC  H13S 3739   2.727   0.208   7.538  1.9334 -0.8883  1.6238
   28SAPC  C214 3740   2.899   0.337   7.577 -0.6610  1.4692 -0.1549
   28SAPC  H14R 3741   2.977   0.407   7.541 -0.1517  3.1869  3.7382
   28SAPC  C215 3742   2.900   0.326   7.715 -1.3495  0.3993  0.7216
   28SAPC  H15R 3743   2.975   0.368   7.784  2.9520  0.8151 -3.7123
   28SAPC  C216 3744   2.796   0.247   7.792  0.5910  0.6031  0.1858
   28SAPC  H16R 3745   2.779   0.139   7.773 -2.3558  0.4369  2.9074
   28SAPC  H16S 3746   2.698   0.298   7.784 -0.0938 -0.4455  1.5378
   28SAPC  C217 3747   2.807   0.261   7.941  0.3864 -0.2543  0.2556
   28SAPC  H17R 3748   2.705   0.270   7.984 -0.4748  2.0810 -2.0070
   28SAPC  H17S 3749   2.853   0.361   7.961  1.7805 -0.5401 -1.3142
   28SAPC  C218 3750   2.906   0.169   8.010 -0.9046 -0.0618  0.3772
   28SAPC  H18R 3751   3.000   0.169   7.950 -0.0703  0.3406  1.6370
   28SAPC  H18S 3752   2.870   0.067   7.987  3.6541 -1.5403 -1.4206
   28SAPC  C219 3753   2.945   0.190   8.156  0.6045 -0.2536 -0.4769
   28SAPC  H19R 3754   2.967   0.295   8.182 -1.1325 -0.1772  0.8322
   28SAPC  H19S 3755   3.031   0.124   8.178  0.8083  0.2484  0.2709
   28SAPC  C220 3756   2.816   0.151   8.232  0.3092  0.6846 -0.4323
   28SAPC  H20R 3757   2.783   0.050   8.197  0.7973  0.3553  0.0360
   28SAPC  H20S 3758   2.736   0.227   8.220  0.3628  0.7495 -0.3700
   28SAPC  H20T 3759   2.841   0.131   8.338 -1.3259 -0.0681 -0.1625
   28SAPC   C33 3760   1.859   0.437   6.873  0.0365 -0.1674 -0.8806
   28SAPC   H3X 3761   1.899   0.333   6.870 -0.5671 -0.4678  0.6652
   28SAPC   H3Y 3762   1.767   0.442   6.812 -0.6515  1.4216  0.2252
   28SAPC   C34 3763   1.801   0.463   7.018 -0.3157 -0.0017  0.6397
   28SAPC   H4X 3764   1.722   0.387   7.037 -1.6007  0.7369 -1.4484
   28SAPC   H4Y 3765   1.747   0.560   7.019  0.0978  0.2272  0.6458
   28SAPC   C35 3766   1.906   0.467   7.125  0.1102 -0.0475  0.1591
   28SAPC   H5X 3767   1.979   0.550   7.116  0.9704 -0.3923  2.8821
   28SAPC   H5Y 3768   1.971   0.379   7.143 -1.3605 -1.1847  0.1090
   28SAPC   C36 3769   1.835   0.488   7.260  0.1314  0.0291 -0.0634
   28SAPC   H6X 3770   1.785   0.390   7.276 -0.9744  0.7807  1.4319
   28SAPC   H6Y 3771   1.758   0.565   7.238 -0.9793 -1.0452 -0.0183
   28SAPC   C37 3772   1.931   0.525   7.371  0.1009  0.0133  0.4606
   28SAPC   H7X 3773   1.987   0.619   7.353  0.6203 -0.6990 -2.0102
   28SAPC   H7Y 3774   2.002   0.440   7.371 -1.8998 -1.7481 -0.4243
   28SAPC   C38 3775   1.850   0.548   7.500 -0.4783 -0.6281  0.0989
   28SAPC   H8X 3776   1.766   0.476   7.507  1.7855 -3.3698  1.4259
   28SAPC   H8Y 3777   1.802   0.648   7.507  0.1350 -0.4419  3.9268
   28SAPC   C39 3778   1.947   0.519   7.617  0.5959 -0.2103 -0.2668
   28SAPC   H9X 3779   1.911   0.570   7.708 -1.8281  1.5570 -2.0750
   28SAPC   H9Y 3780   2.045   0.559   7.585  0.7797  0.0276  0.5903
   28SAPC  C310 3781   1.965   0.368   7.647 -0.0826 -0.0659 -0.3244
   28SAPC  H10X 3782   2.001   0.308   7.560 -0.0964  0.9558 -1.0536
   28SAPC  H10Y 3783   1.865   0.325   7.667  0.5008 -1.5004 -0.3900
   28SAPC  C311 3784   2.044   0.343   7.778 -0.0776 -0.5680 -0.1910
   28SAPC  H11X 3785   2.133   0.410   7.773  0.1634 -0.6089  2.1587
   28SAPC  H11Y 3786   2.078   0.242   7.809 -0.6024  0.0576  2.7169
   28SAPC  C312 3787   1.977   0.401   7.906  0.2038  0.1327 -0.4168
   28SAPC  H12X 3788   1.881   0.348   7.924 -2.0175  3.7416 -0.6968
   28SAPC  H12Y 3789   1.957   0.510   7.898 -0.6375 -0.1277 -2.2179
   28SAPC  C313 3790   2.069   0.385   8.023 -0.8077 -0.0612 -0.2140
   28SAPC  H13X 3791   2.166   0.426   7.989 -0.0516 -1.6678 -0.0893
   28SAPC  H13Y 3792   2.093   0.280   8.051  0.3963  0.6867  1.7750
   28SAPC  C314 3793   2.017   0.435   8.158 -0.4540 -0.4143 -0.3641
   28SAPC  H14X 3794   1.929   0.389   8.208  0.1529  0.6299  1.7912
   28SAPC  H14Y 3795   1.995   0.542   8.136 -0.1581 -0.2962 -0.0889
   28SAPC  C315 3796   2.123   0.429   8.273  0.1366  1.0776  0.4730
   28SAPC  H15X 3797   2.218   0.462   8.225  1.2099 -2.0427  0.2152
   28SAPC  H15Y 3798   2.140   0.321   8.293 -1.3742  0.8476  0.6292
   28SAPC  C316 3799   2.092   0.509   8.396  0.4279  0.0033 -0.1183
   28SAPC  H16X 3800   2.002   0.472   8.448  0.0972 -1.8903 -1.9077
   28SAPC  H16Y 3801   2.067   0.615   8.373  0.5913 -0.4182 -2.5142
   28SAPC  C317 3802   2.208   0.509   8.495 -0.2509 -0.3780  0.3012
   28SAPC  H17X 3803   2.201   0.603   8.554  0.2030  0.0788 -0.3565
   28SAPC  H17Y 3804   2.307   0.517   8.443 -0.6749 -0.9813 -0.6335
   28SAPC  C318 3805   2.217   0.377   8.576 -0.2440  0.3707 -0.1418
   28SAPC  H18X 3806   2.248   0.288   8.518  0.5721  1.6556 -1.7805
   28SAPC  H18Y 3807   2.124   0.354   8.632 -0.8957  1.3892 -0.7724
   28SAPC  H18Z 3808   2.278   0.394   8.667 -0.1322 -1.4216  0.1510
   29SAPC     N 3809   6.388   5.009   6.154 -0.0098 -0.0736 -0.2393
   29SAPC   C12 3810   6.261   4.930   6.147  0.4398 -0.6947 -0.6494
   29SAPC  H12A 3811   6.286   4.837   6.196  2.4314  0.8914  1.6392
   29SAPC  H12B 3812   6.234   4.919   6.043 -2.4731  1.6767 -0.2871
   29SAPC   C13 3813   6.362   5.132   6.071 -0.6766  0.0631  0.4685
   29SAPC  H13A 3814   6.455   5.186   6.065 -0.0790 -1.0343 -0.6753
   29SAPC  H13B 3815   6.325   5.103   5.973  2.1499 -0.9028 -0.4270
   29SAPC  H13C 3816   6.291   5.195   6.122 -1.7179 -0.4926 -0.2490
   29SAPC   C14 3817   6.425   5.048   6.292  0.1357 -0.4291 -0.0890
   29SAPC  H14A 3818   6.418   4.962   6.358  2.4254 -1.4866 -1.1004
   29SAPC  H14B 3819   6.521   5.098   6.294  0.0287 -0.2243 -0.1103
   29SAPC  H14C 3820   6.358   5.127   6.320 -0.6901 -0.8885 -0.7165
   29SAPC   C15 3821   6.498   4.915   6.098 -0.0831 -1.1508  0.3359
   29SAPC  H15A 3822   6.486   4.900   5.992 -0.6092 -0.7528  0.3385
   29SAPC  H15B 3823   6.598   4.951   6.119 -0.8586  0.6834  1.0189
   29SAPC  H15C 3824   6.495   4.823   6.156  1.7519 -0.8124  1.0537
   29SAPC   C11 3825   6.139   4.991   6.223 -0.0671 -0.7407  0.0670
   29SAPC  H11A 3826   6.138   5.101   6.210 -1.2172 -0.6585  0.7074
   29SAPC  H11B 3827   6.144   4.970   6.332  2.5712 -3.4933 -0.4563
   29SAPC     P 3828   5.972   4.784   6.213 -0.1161 -0.4967 -0.0938
   29SAPC   O13 3829   5.829   4.790   6.191 -0.0048  0.7674 -0.2213
   29SAPC   O14 3830   6.063   4.688   6.138 -0.0854  0.1809  0.2712
   29SAPC   O12 3831   6.022   4.932   6.178  0.6706 -0.0880 -0.1573
   29SAPC   O11 3832   6.018   4.785   6.368  0.4626  0.2052  0.0564
   29SAPC    C1 3833   5.936   4.726   6.468  0.5664  0.0532 -0.2965
   29SAPC    HA 3834   5.833   4.704   6.435 -0.3923  2.5499  0.7737
   29SAPC    HB 3835   5.994   4.637   6.501  0.7982  0.3340  0.0544
   29SAPC    C2 3836   5.898   4.826   6.581  0.0144 -0.2383 -0.4250
   29SAPC    HS 3837   5.804   4.876   6.550  0.1249  0.3210  0.1270
   29SAPC   O21 3838   6.007   4.918   6.606  0.5998  0.1108  0.2561
   29SAPC   C21 3839   5.991   5.041   6.565  0.3708  0.3323 -0.4984
   29SAPC   O22 3840   5.888   5.101   6.540  0.0118  0.1634 -0.5472
   29SAPC   C22 3841   6.125   5.114   6.573 -0.8309  0.0274 -0.1232
   29SAPC   H2R 3842   6.200   5.047   6.525 -0.8105  0.7855 -1.1733
   29SAPC   H2S 3843   6.105   5.209   6.520  1.0176  0.1719 -0.6358
   29SAPC    C3 3844   5.849   4.744   6.699 -0.3613  0.5954 -0.3349
   29SAPC    HX 3845   5.925   4.672   6.736 -0.1637  1.7310  1.6562
   29SAPC    HY 3846   5.758   4.686   6.671  0.5964 -1.0351 -0.1773
   29SAPC   O31 3847   5.835   4.834   6.809  0.1741 -0.1447  0.0182
   29SAPC   C31 3848   5.720   4.897   6.827  0.0747  0.2621 -0.2133
   29SAPC   O32 3849   5.624   4.889   6.754  0.6376 -0.0635 -0.1877
   29SAPC   C32 3850   5.728   4.975   6.958 -0.4403  0.1690 -0.3977
   29SAPC   H2X 3851   5.625   4.998   6.993  0.2502 -2.2555  3.8664
   29SAPC   H2Y 3852   5.782   5.066   6.924  1.1448  1.1212  4.0687
   29SAPC   C23 3853   6.178   5.118   6.714 -0.1479 -0.1379  0.8406
   29SAPC   H3R 3854   6.270   5.180   6.707  1.1404 -2.0548 -0.1480
   29SAPC   H3S 3855   6.214   5.018   6.749 -0.2832 -1.5506 -2.6622
   29SAPC   C24 3856   6.097   5.179   6.823 -0.2687 -0.3252 -0.1104
   29SAPC   H4R 3857   6.013   5.109   6.841  0.3367 -0.7010  1.4445
   29SAPC   H4S 3858   6.054   5.275   6.786  0.4910  0.2255  0.3948
   29SAPC   C25 3859   6.168   5.183   6.956  0.1941 -0.0797  0.2042
   29SAPC   H5R 3860   6.278   5.171   6.955  0.2098 -0.0083  0.7838
   29SAPC   C26 3861   6.120   5.233   7.078  0.0734  0.6519  0.0958
   29SAPC   H6R 3862   6.187   5.246   7.164 -0.5597 -1.0877  0.8984
   29SAPC   C27 3863   5.980   5.275   7.111 -0.2974  0.0186  0.3785
   29SAPC   H7R 3864   5.959   5.260   7.219  0.6809 -0.4926  0.5078
   29SAPC   H7S 3865   5.909   5.208   7.059  0.7776  0.9156 -2.4743
   29SAPC   C28 3866   5.949   5.412   7.067 -0.4693  0.4061  0.2357
   29SAPC   H8R 3867   6.026   5.451   6.998  0.6207  0.4436  1.4365
   29SAPC   C29 3868   5.847   5.491   7.107  0.0903  0.2030  0.3962
   29SAPC   H9R 3869   5.852   5.593   7.067  0.6823 -0.4278 -1.2471
   29SAPC  C210 3870   5.737   5.452   7.204 -0.2872  0.2677 -0.2362
   29SAPC  H10R 3871   5.721   5.530   7.282 -0.1519  0.4357 -0.3780
   29SAPC  H10S 3872   5.775   5.366   7.264 -0.1891  0.2299 -0.3533
   29SAPC  C211 3873   5.602   5.405   7.160  0.4818  0.1962  0.3179
   29SAPC  H11R 3874   5.589   5.382   7.053 -1.4520 -1.2877  0.8288
   29SAPC  C212 3875   5.503   5.388   7.245 -0.9083  0.0081  0.0396
   29SAPC  H12R 3876   5.405   5.355   7.206 -1.5646 -1.6913  2.7995
   29SAPC  C213 3877   5.490   5.405   7.397  0.2187 -0.3488 -0.2878
   29SAPC  H13R 3878   5.392   5.447   7.426  0.9553  1.2157 -0.0026
   29SAPC  H13S 3879   5.559   5.483   7.434 -1.4282  0.1091  2.0205
   29SAPC  C214 3880   5.531   5.285   7.481  0.1640  0.5658 -0.2318
   29SAPC  H14R 3881   5.588   5.207   7.429  0.6343  0.1851  0.8175
   29SAPC  C215 3882   5.490   5.261   7.612  0.0144 -0.1898  0.3342
   29SAPC  H15R 3883   5.539   5.181   7.669  0.6247  0.4668  0.7456
   29SAPC  C216 3884   5.412   5.351   7.706 -0.1532  0.2213  0.7707
   29SAPC  H16R 3885   5.310   5.374   7.668 -0.2362 -1.8458 -0.4372
   29SAPC  H16S 3886   5.474   5.441   7.726  0.5559 -0.8361  3.9876
   29SAPC  C217 3887   5.378   5.270   7.837 -0.6201 -0.2973 -0.0067
   29SAPC  H17R 3888   5.471   5.212   7.855 -1.3447 -1.6431 -0.4507
   29SAPC  H17S 3889   5.294   5.201   7.817  0.4521 -2.9734  3.6383
   29SAPC  C218 3890   5.355   5.361   7.957  0.5130 -0.2112  0.1399
   29SAPC  H18R 3891   5.446   5.421   7.978 -1.3225  2.2366  1.5079
   29SAPC  H18S 3892   5.343   5.296   8.046 -0.2084  1.5009  1.3367
   29SAPC  C219 3893   5.232   5.432   7.933 -0.1979 -0.4773  0.6328
   29SAPC  H19R 3894   5.139   5.371   7.932  0.0449 -0.9457  2.6828
   29SAPC  H19S 3895   5.237   5.502   7.846  0.0703  0.3321  1.2921
   29SAPC  C220 3896   5.204   5.528   8.047 -0.3400 -0.5558 -0.5842
   29SAPC  H20R 3897   5.104   5.577   8.043 -0.1895  0.1769  2.4084
   29SAPC  H20S 3898   5.283   5.606   8.055  0.4680 -1.4346  0.1331
   29SAPC  H20T 3899   5.194   5.472   8.142 -1.6503  0.1517 -0.2807
   29SAPC   C33 3900   5.802   4.904   7.067  0.0857  0.3618 -0.1818
   29SAPC   H3X 3901   5.824   4.989   7.135 -2.3998 -0.2892  1.5813
   29SAPC   H3Y 3902   5.893   4.847   7.039 -0.2446  0.7289 -2.1228
   29SAPC   C34 3903   5.711   4.808   7.138  0.1809  0.2995  0.4382
   29SAPC   H4X 3904   5.701   4.710   7.087 -0.8928  1.8760 -2.6262
   29SAPC   H4Y 3905   5.608   4.851   7.137  0.4356  0.8949 -0.2686
   29SAPC   C35 3906   5.742   4.800   7.284 -0.2596 -0.3230 -0.3143
   29SAPC   H5X 3907   5.721   4.897   7.334 -2.1996 -0.9627  0.1978
   29SAPC   H5Y 3908   5.851   4.779   7.295 -0.0741  0.9520  0.4079
   29SAPC   C36 3909   5.686   4.682   7.359  0.3339  0.6668 -0.4647
   29SAPC   H6X 3910   5.707   4.588   7.304 -0.3236  1.4596 -2.1715
   29SAPC   H6Y 3911   5.577   4.684   7.379  0.4833 -0.8716  0.5892
   29SAPC   C37 3912   5.740   4.684   7.499 -0.1676  0.4076 -0.1033
   29SAPC   H7X 3913   5.749   4.789   7.534 -0.6819  0.4622 -0.1321
   29SAPC   H7Y 3914   5.846   4.649   7.497  0.3559  1.9321  0.0274
   29SAPC   C38 3915   5.669   4.595   7.598 -0.1906 -0.2318  0.5415
   29SAPC   H8X 3916   5.675   4.492   7.557 -0.8900  0.2864 -0.9508
   29SAPC   H8Y 3917   5.567   4.634   7.578 -0.0977 -0.2605 -0.0205
   29SAPC   C39 3918   5.713   4.607   7.741  0.6239  0.5804  0.7055
   29SAPC   H9X 3919   5.659   4.694   7.784  1.4365  0.1848  2.6192
   29SAPC   H9Y 3920   5.819   4.636   7.754  1.4069 -1.1590 -1.1858
   29SAPC  C310 3921   5.671   4.491   7.829  0.5774  0.5498  0.0801
   29SAPC  H10X 3922   5.682   4.394   7.775  0.9908  0.1244  0.9061
   29SAPC  H10Y 3923   5.562   4.491   7.854  0.6999 -2.9391  1.2166
   29SAPC  C311 3924   5.754   4.477   7.961 -0.0149  0.2607 -0.1899
   29SAPC  H11X 3925   5.797   4.575   7.992  1.1876 -0.6683  1.2254
   29SAPC  H11Y 3926   5.836   4.403   7.949 -0.3788 -0.4260  1.3200
   29SAPC  C312 3927   5.660   4.430   8.076 -0.2448 -0.2795  0.3014
   29SAPC  H12X 3928   5.620   4.328   8.062  1.2636 -0.8312 -0.2556
   29SAPC  H12Y 3929   5.581   4.506   8.094 -0.2431  0.2763 -1.8092
   29SAPC  C313 3930   5.736   4.414   8.211  0.0287  0.1632  0.3768
   29SAPC  H13X 3931   5.805   4.498   8.235 -0.7846  0.2941  2.4824
   29SAPC  H13Y 3932   5.793   4.321   8.187 -1.6828 -0.4913 -1.3665
   29SAPC  C314 3933   5.659   4.394   8.346 -0.7576 -0.6924 -0.1894
   29SAPC  H14X 3934   5.715   4.320   8.407  0.1292  1.7258  2.1653
   29SAPC  H14Y 3935   5.561   4.360   8.306  0.6021 -2.0961 -2.5733
   29SAPC  C315 3936   5.663   4.519   8.432 -0.6074 -0.8309  1.1203
   29SAPC  H15X 3937   5.607   4.595   8.373 -2.2038 -2.1206  0.8897
   29SAPC  H15Y 3938   5.770   4.548   8.440 -0.2015 -2.3913  1.7059
   29SAPC  C316 3939   5.589   4.499   8.564  0.6412  0.0542 -0.6141
   29SAPC  H16X 3940   5.490   4.450   8.559 -0.3221  1.9757 -1.3791
   29SAPC  H16Y 3941   5.565   4.595   8.615 -1.9184  0.0241 -1.6291
   29SAPC  C317 3942   5.666   4.405   8.657  0.5422 -0.2156 -0.1814
   29SAPC  H17X 3943   5.776   4.418   8.657  0.4818  0.3489 -0.5636
   29SAPC  H17Y 3944   5.650   4.297   8.640  0.7616  0.0128 -2.0357
   29SAPC  C318 3945   5.618   4.425   8.799 -0.6203  0.4986 -0.8800
   29SAPC  H18X 3946   5.618   4.532   8.829  1.2354  0.7987 -1.8364
   29SAPC  H18Y 3947   5.691   4.393   8.876  0.2685  1.6467 -1.2247
   29SAPC  H18Z 3948   5.520   4.379   8.824  0.1107 -0.7404 -0.1657
   30SAPC     N 3949   0.370   3.339   5.930  0.1422  0.3964  0.3679
   30SAPC   C12 3950   0.363   3.419   6.061 -0.3603  0.0925  0.3929
   30SAPC  H12A 3951   0.374   3.343   6.136  0.3912 -0.1838  0.0162
   30SAPC  H12B 3952   0.265   3.459   6.083 -1.6638 -1.9610 -1.2884
   30SAPC   C13 3953   0.404   3.425   5.817  0.2554 -0.4358 -0.4841
   30SAPC  H13A 3954   0.509   3.445   5.807  0.8972 -2.1012  1.9300
   30SAPC  H13B 3955   0.369   3.387   5.722  0.9956 -0.1368 -0.8771
   30SAPC  H13C 3956   0.360   3.523   5.820 -0.2919 -0.6761 -0.4019
   30SAPC   C14 3957   0.471   3.230   5.932 -0.3735 -0.4676  0.6574
   30SAPC  H14A 3958   0.572   3.264   5.947 -0.1325 -1.0590  0.4124
   30SAPC  H14B 3959   0.446   3.161   6.011 -1.2681  0.2795  1.0550
   30SAPC  H14C 3960   0.470   3.176   5.839 -0.1563  0.0419  0.3577
   30SAPC   C15 3961   0.232   3.274   5.897  0.0977 -0.2801 -0.5537
   30SAPC  H15A 3962   0.155   3.343   5.927  0.5181  0.9077 -2.1225
   30SAPC  H15B 3963   0.231   3.237   5.796 -1.3343  0.0519 -0.6695
   30SAPC  H15C 3964   0.215   3.193   5.967  1.1683 -1.2977 -1.4222
   30SAPC   C11 3965   0.468   3.527   6.081  0.3347  0.1130  0.7004
   30SAPC  H11A 3966   0.567   3.476   6.089 -0.1538 -0.7380  1.4435
   30SAPC  H11B 3967   0.453   3.560   6.186  1.0625 -3.6093  2.1277
   30SAPC     P 3968   0.335   3.738   6.030  0.0403  0.1102  0.2474
   30SAPC   O13 3969   0.316   3.847   5.925 -0.3102  0.6670 -0.7657
   30SAPC   O14 3970   0.214   3.657   6.058  0.2380  0.1313  0.1211
   30SAPC   O12 3971   0.457   3.647   5.992  0.7342  0.1614  0.3416
   30SAPC   O11 3972   0.390   3.805   6.165 -0.1737 -0.3212  0.4490
   30SAPC    C1 3973   0.310   3.893   6.237  0.0153 -0.0386  0.1655
   30SAPC    HA 3974   0.304   3.993   6.188  0.3578 -0.3739 -0.5709
   30SAPC    HB 3975   0.206   3.856   6.240  0.0345 -0.5244 -2.6785
   30SAPC    C2 3976   0.373   3.916   6.373 -0.2886  0.3333  0.6669
   30SAPC    HS 3977   0.470   3.969   6.361  0.6024 -1.8087 -3.6030
   30SAPC   O21 3978   0.403   3.790   6.440 -0.0896 -0.4125  0.1362
   30SAPC   C21 3979   0.520   3.729   6.409 -0.0332  0.0802  0.2460
   30SAPC   O22 3980   0.605   3.779   6.332  0.5073 -0.2545 -0.4151
   30SAPC   C22 3981   0.531   3.601   6.487 -0.8367 -0.0799 -0.4616
   30SAPC   H2R 3982   0.535   3.630   6.594  2.2160 -1.3895 -0.1394
   30SAPC   H2S 3983   0.444   3.535   6.464  0.7825 -1.1566 -4.4211
   30SAPC    C3 3984   0.273   3.998   6.457 -0.2287 -0.8911  0.9300
   30SAPC    HX 3985   0.182   3.935   6.470 -1.9115  1.1980 -0.0458
   30SAPC    HY 3986   0.238   4.084   6.397 -1.6145 -2.7179 -1.0091
   30SAPC   O31 3987   0.336   4.042   6.582  0.9098 -0.2526 -0.2300
   30SAPC   C31 3988   0.405   4.158   6.567  0.2790 -0.2391 -0.0348
   30SAPC   O32 3989   0.438   4.208   6.462 -1.0289 -0.7511 -0.4165
   30SAPC   C32 3990   0.444   4.213   6.710  0.0775 -0.1521  0.0550
   30SAPC   H2X 3991   0.475   4.126   6.771 -2.3261 -2.0292 -1.2073
   30SAPC   H2Y 3992   0.350   4.249   6.758 -0.0992 -1.4742  0.7416
   30SAPC   C23 3993   0.670   3.539   6.458 -0.1489  0.4349  0.5347
   30SAPC   H3R 3994   0.752   3.604   6.496  0.0597 -0.7783  2.2965
   30SAPC   H3S 3995   0.683   3.540   6.348 -1.9560  1.4453  0.2888
   30SAPC   C24 3996   0.686   3.400   6.515  0.3643 -0.2055 -0.2050
   30SAPC   H4R 3997   0.647   3.408   6.619  2.1392  3.0900  0.3738
   30SAPC   H4S 3998   0.793   3.372   6.515  0.5027  0.1563  2.1275
   30SAPC   C25 3999   0.608   3.300   6.439  1.4872 -0.6800 -0.2543
   30SAPC   H5R 4000   0.597   3.315   6.331  0.6443 -2.6070 -0.4917
   30SAPC   C26 4001   0.554   3.184   6.500  0.0996 -0.5910  0.0751
   30SAPC   H6R 4002   0.484   3.124   6.440  0.6234 -2.6741  1.4518
   30SAPC   C27 4003   0.556   3.149   6.644  0.1787  0.6266 -0.5942
   30SAPC   H7R 4004   0.452   3.143   6.681  0.7362 -0.9242  0.8634
   30SAPC   H7S 4005   0.618   3.222   6.702  1.6317 -0.6732 -0.4416
   30SAPC   C28 4006   0.614   3.010   6.672 -0.2040 -0.4437  0.5743
   30SAPC   H8R 4007   0.693   2.986   6.599  1.2355  1.6417  1.3514
   30SAPC   C29 4008   0.589   2.923   6.763  0.0211  0.6062  0.0291
   30SAPC   H9R 4009   0.636   2.826   6.742 -1.0057  0.2889 -0.9016
   30SAPC  C210 4010   0.492   2.935   6.875  0.3325 -0.1993  0.3423
   30SAPC  H10R 4011   0.395   2.924   6.822  0.6143  2.4403 -0.8997
   30SAPC  H10S 4012   0.498   3.041   6.910  2.0871  0.7316 -2.4865
   30SAPC  C211 4013   0.502   2.837   6.986  0.7091  0.5696 -0.6001
   30SAPC  H11R 4014   0.596   2.780   6.978  1.0891  1.2302 -0.9044
   30SAPC  C212 4015   0.418   2.818   7.090 -1.0858  0.0943  0.6711
   30SAPC  H12R 4016   0.442   2.735   7.159  0.4745 -1.3251 -1.4662
   30SAPC  C213 4017   0.290   2.895   7.110  0.1117 -0.3871 -0.1155
   30SAPC  H13R 4018   0.258   2.951   7.020  1.9422  1.1854  0.1313
   30SAPC  H13S 4019   0.309   2.974   7.186  2.0358 -0.6252 -0.2897
   30SAPC  C214 4020   0.180   2.802   7.153 -0.1125  0.1694  0.4998
   30SAPC  H14R 4021   0.196   2.698   7.121  2.9650  1.1588 -1.7397
   30SAPC  C215 4022   0.072   2.828   7.225 -0.0916 -0.2546 -0.5231
   30SAPC  H15R 4023   0.010   2.744   7.260  0.3075 -0.1945  0.3313
   30SAPC  C216 4024   0.029   2.955   7.292 -0.0288  0.0956  0.2106
   30SAPC  H16R 4025  -0.042   3.011   7.228 -0.0855 -0.3490 -0.1199
   30SAPC  H16S 4026   0.104   3.036   7.311  1.0737 -0.7163 -0.5472
   30SAPC  C217 4027  -0.022   2.916   7.436  0.2944 -0.2076  0.0318
   30SAPC  H17R 4028   0.056   2.871   7.500  0.8993  0.0378 -0.5279
   30SAPC  H17S 4029  -0.116   2.857   7.422  0.3264 -0.5552  1.1931
   30SAPC  C218 4030  -0.064   3.047   7.508  0.3910  0.4951  0.4256
   30SAPC  H18R 4031  -0.163   3.088   7.478 -0.2965 -0.3827  1.3822
   30SAPC  H18S 4032   0.006   3.131   7.491 -2.7247  3.4252  1.0319
   30SAPC  C219 4033  -0.090   3.021   7.655 -0.1175 -0.1459  0.0355
   30SAPC  H19R 4034   0.015   3.019   7.693  0.8590 -1.1036 -2.4672
   30SAPC  H19S 4035  -0.133   2.923   7.687 -0.1314 -0.3919 -0.7250
   30SAPC  C220 4036  -0.176   3.127   7.719  0.7994  0.7130 -0.1009
   30SAPC  H20R 4037  -0.285   3.105   7.714  0.3466  1.5375  3.4430
   30SAPC  H20S 4038  -0.150   3.231   7.687  3.9060  0.0424  0.0281
   30SAPC  H20T 4039  -0.146   3.115   7.825  1.8577  0.0410 -0.4646
   30SAPC   C33 4040   0.553   4.319   6.721 -0.2459  0.2780  0.9742
   30SAPC   H3X 4041   0.528   4.395   6.643  0.0573 -1.6727 -1.1278
   30SAPC   H3Y 4042   0.653   4.278   6.695  0.1904  1.4551  0.7286
   30SAPC   C34 4043   0.554   4.372   6.867  0.5635  0.1785  0.1092
   30SAPC   H4X 4044   0.582   4.289   6.936 -0.8631 -0.2968  0.1602
   30SAPC   H4Y 4045   0.455   4.407   6.903  1.4389  1.3410  1.4821
   30SAPC   C35 4046   0.669   4.481   6.874 -0.6771  0.0816  0.6317
   30SAPC   H5X 4047   0.655   4.546   6.785  0.0233  0.4729  0.7973
   30SAPC   H5Y 4048   0.757   4.418   6.849 -1.5040 -0.8356 -0.0523
   30SAPC   C36 4049   0.660   4.553   7.000  0.1262  0.1612 -0.7534
   30SAPC   H6X 4050   0.570   4.617   7.007  1.3246  1.7250  1.7771
   30SAPC   H6Y 4051   0.747   4.622   7.001  1.2241 -1.0846  2.2639
   30SAPC   C37 4052   0.675   4.468   7.135 -0.2133  0.1394  0.3658
   30SAPC   H7X 4053   0.765   4.405   7.115  1.0701  2.0328 -0.0748
   30SAPC   H7Y 4054   0.588   4.405   7.163 -0.0092  0.7090  2.4596
   30SAPC   C38 4055   0.697   4.553   7.267  0.2588  0.2859  0.2699
   30SAPC   H8X 4056   0.639   4.648   7.273 -0.2079 -0.1014  3.2558
   30SAPC   H8Y 4057   0.801   4.589   7.280 -0.3243  1.3121  2.6067
   30SAPC   C39 4058   0.660   4.482   7.406 -0.6021 -0.0750 -0.2539
   30SAPC   H9X 4059   0.707   4.382   7.419  0.0031  0.0483 -1.3136
   30SAPC   H9Y 4060   0.554   4.449   7.398 -0.1003 -1.5284 -1.4964
   30SAPC  C310 4061   0.675   4.575   7.532 -0.6307  0.0402  0.1457
   30SAPC  H10X 4062   0.607   4.663   7.534  0.6039  1.0492 -0.4374
   30SAPC  H10Y 4063   0.777   4.620   7.526 -0.0672 -1.3163 -4.8834
   30SAPC  C311 4064   0.665   4.501   7.673 -0.1325 -0.0139 -0.1355
   30SAPC  H11X 4065   0.725   4.408   7.669 -0.9829 -0.5482 -3.5830
   30SAPC  H11Y 4066   0.561   4.461   7.677  0.6123 -2.1504 -1.1466
   30SAPC  C312 4067   0.696   4.597   7.790 -0.0073  0.6195 -0.2790
   30SAPC  H12X 4068   0.634   4.689   7.798  1.2955  1.3513  4.1483
   30SAPC  H12Y 4069   0.802   4.630   7.795 -0.7113  3.0431 -0.0338
   30SAPC  C313 4070   0.654   4.522   7.915 -0.2659  0.2205  0.3069
   30SAPC  H13X 4071   0.705   4.426   7.938  2.2153  1.5037  0.4592
   30SAPC  H13Y 4072   0.545   4.499   7.912 -0.3724  0.7932 -0.9038
   30SAPC  C314 4073   0.675   4.608   8.045  0.2068  0.2484 -0.1349
   30SAPC  H14X 4074   0.623   4.707   8.038 -0.6730 -0.1660  0.4126
   30SAPC  H14Y 4075   0.782   4.635   8.055  0.0570  1.7730 -1.9495
   30SAPC  C315 4076   0.622   4.530   8.167 -0.0439  0.0062  0.0571
   30SAPC  H15X 4077   0.648   4.425   8.142  4.5487  1.3659 -1.9290
   30SAPC  H15Y 4078   0.511   4.535   8.156 -0.1330 -1.5193  0.0212
   30SAPC  C316 4079   0.674   4.585   8.302  0.6332 -0.0736  0.5097
   30SAPC  H16X 4080   0.687   4.695   8.296 -2.5374  0.3155 -0.7570
   30SAPC  H16Y 4081   0.775   4.544   8.327 -0.2233 -2.6225  0.0948
   30SAPC  C317 4082   0.589   4.558   8.422 -0.3629  0.5441 -0.4101
   30SAPC  H17X 4083   0.626   4.623   8.504 -1.0441  1.2427 -0.6499
   30SAPC  H17Y 4084   0.600   4.458   8.468 -0.0130  0.8820  0.2662
   30SAPC  C318 4085   0.446   4.594   8.397  0.0911 -0.7194  0.5671
   30SAPC  H18X 4086   0.405   4.534   8.314  0.8065  0.0257 -0.3418
   30SAPC  H18Y 4087   0.438   4.700   8.365  1.0287 -0.5323  0.9230
   30SAPC  H18Z 4088   0.376   4.585   8.483 -0.1632 -0.1713  0.4254
   31SAPC     N 4089   3.228   4.622   5.777 -0.4444 -0.2576 -0.8129
   31SAPC   C12 4090   3.351   4.633   5.867 -0.1098 -0.0257  0.6642
   31SAPC  H12A 4091   3.366   4.739   5.876 -2.3655  0.3427  0.7475
   31SAPC  H12B 4092   3.440   4.596   5.819  0.2088  1.1567  0.3095
   31SAPC   C13 4093   3.256   4.715   5.662 -0.0539 -0.1647  0.5398
   31SAPC  H13A 4094   3.257   4.817   5.696  0.0948  0.2099 -0.5487
   31SAPC  H13B 4095   3.355   4.702   5.620 -1.3590 -1.0316 -2.6504
   31SAPC  H13C 4096   3.190   4.691   5.579 -0.4283 -0.8298  1.0183
   31SAPC   C14 4097   3.211   4.482   5.733 -0.1022  1.1346 -0.0987
   31SAPC  H14A 4098   3.116   4.461   5.687  0.8135 -0.0293 -1.5588
   31SAPC  H14B 4099   3.289   4.442   5.670 -1.2135 -2.0876  0.3790
   31SAPC  H14C 4100   3.200   4.421   5.822  1.5197  0.0370 -0.5978
   31SAPC   C15 4101   3.103   4.675   5.844  0.2222 -0.2893  0.3482
   31SAPC  H15A 4102   3.008   4.673   5.792  0.4473  0.9702 -0.1485
   31SAPC  H15B 4103   3.084   4.638   5.944 -0.2348  0.5429  0.5790
   31SAPC  H15C 4104   3.120   4.781   5.857 -1.5462 -0.0794  1.4100
   31SAPC   C11 4105   3.344   4.559   6.006 -0.1852 -0.4017 -0.3897
   31SAPC  H11A 4106   3.429   4.590   6.071 -0.2897 -0.1005 -0.3944
   31SAPC  H11B 4107   3.352   4.450   5.989 -0.5027 -0.3278 -1.0491
   31SAPC     P 4108   3.190   4.515   6.196  0.0413  0.1785  0.1204
   31SAPC   O13 4109   3.061   4.453   6.173 -0.7942 -0.2669 -0.0415
   31SAPC   O14 4110   3.306   4.420   6.228 -0.1874 -1.8872 -0.1559
   31SAPC   O12 4111   3.235   4.607   6.079  0.0646 -0.3182  0.3986
   31SAPC   O11 4112   3.169   4.619   6.322  0.0353  0.1638  0.2589
   31SAPC    C1 4113   3.277   4.662   6.409 -0.3205  0.1970  0.4741
   31SAPC    HA 4114   3.366   4.597   6.423 -0.3761  0.2796  1.2910
   31SAPC    HB 4115   3.304   4.764   6.374  1.5804 -0.3972  0.0786
   31SAPC    C2 4116   3.205   4.688   6.544 -0.5616  0.2083  0.5780
   31SAPC    HS 4117   3.111   4.742   6.522 -1.5397 -1.7832 -0.3144
   31SAPC   O21 4118   3.295   4.763   6.636 -0.3207 -0.4474  0.3947
   31SAPC   C21 4119   3.295   4.897   6.617  0.6818 -0.0595 -0.3302
   31SAPC   O22 4120   3.239   4.956   6.532  0.0878 -0.2596 -0.1781
   31SAPC   C22 4121   3.382   4.964   6.726  0.4540  0.0580 -0.4067
   31SAPC   H2R 4122   3.437   4.877   6.768  1.4549  1.5577  1.5551
   31SAPC   H2S 4123   3.449   5.036   6.676 -1.0942  0.6402 -1.7253
   31SAPC    C3 4124   3.155   4.552   6.605 -0.7006  0.3709 -0.7484
   31SAPC    HX 4125   3.249   4.495   6.621  0.4195  2.1601 -0.7042
   31SAPC    HY 4126   3.092   4.492   6.535 -0.2626 -0.9233 -0.0633
   31SAPC   O31 4127   3.076   4.577   6.725  0.4056  0.0458  0.1007
   31SAPC   C31 4128   3.108   4.503   6.832  0.2756 -0.0019  0.1300
   31SAPC   O32 4129   3.187   4.411   6.834  0.0392  0.2808 -0.6899
   31SAPC   C32 4130   3.032   4.550   6.956  0.0366 -0.0849  0.0894
   31SAPC   H2X 4131   3.023   4.661   6.962  2.0690  0.0576  2.8874
   31SAPC   H2Y 4132   3.096   4.529   7.044 -0.0565  2.4445  0.8352
   31SAPC   C23 4133   3.295   5.032   6.837 -0.0897  0.1873  0.2056
   31SAPC   H3R 4134   3.220   5.100   6.792 -0.3657 -0.8150 -0.8935
   31SAPC   H3S 4135   3.361   5.092   6.903 -0.2856  0.6105  0.0236
   31SAPC   C24 4136   3.215   4.927   6.916 -0.1265 -0.3025 -0.0349
   31SAPC   H4R 4137   3.266   4.829   6.904  0.8368  0.3355 -1.2448
   31SAPC   H4S 4138   3.120   4.902   6.863 -0.6664 -3.6074  2.1523
   31SAPC   C25 4139   3.205   4.962   7.062  0.2680 -0.5260 -0.4658
   31SAPC   H5R 4140   3.297   4.946   7.119 -1.0326 -2.3405  1.2748
   31SAPC   C26 4141   3.101   5.026   7.117 -0.6027  0.1618 -0.0913
   31SAPC   H6R 4142   3.121   5.056   7.221  4.0962 -2.7105  0.1130
   31SAPC   C27 4143   2.973   5.070   7.054  0.1655  0.3058  0.6970
   31SAPC   H7R 4144   2.967   5.039   6.948 -0.1147 -0.9767  1.0774
   31SAPC   H7S 4145   2.973   5.181   7.051 -0.1641  0.2891 -1.6806
   31SAPC   C28 4146   2.855   5.011   7.124 -0.1043  0.6441  0.0522
   31SAPC   H8R 4147   2.863   4.901   7.127  0.5937  0.7024  0.9272
   31SAPC   C29 4148   2.748   5.070   7.174  0.2323  0.3950 -0.2401
   31SAPC   H9R 4149   2.681   5.011   7.238  0.0966  0.1627 -0.5893
   31SAPC  C210 4150   2.725   5.218   7.176  0.1408 -0.4061 -0.4504
   31SAPC  H10R 4151   2.706   5.251   7.072  2.7362  1.1102 -0.5442
   31SAPC  H10S 4152   2.812   5.278   7.212 -0.9926 -0.3805  2.4975
   31SAPC  C211 4153   2.601   5.257   7.261  0.1272 -0.1922 -0.1330
   31SAPC  H11R 4154   2.514   5.277   7.196  1.4531 -1.3960 -2.4295
   31SAPC  C212 4155   2.594   5.281   7.393  0.5463 -0.5186 -0.1590
   31SAPC  H12R 4156   2.496   5.306   7.436  1.4461 -0.0849  1.7482
   31SAPC  C213 4157   2.704   5.272   7.496 -0.2574 -0.3740  0.5569
   31SAPC  H13R 4158   2.700   5.360   7.563 -0.5145  0.0373  0.0089
   31SAPC  H13S 4159   2.803   5.254   7.450 -0.0469 -0.6127  1.0975
   31SAPC  C214 4160   2.679   5.146   7.568 -0.0119 -0.6297  0.3564
   31SAPC  H14R 4161   2.732   5.060   7.524  0.3304 -0.9230  1.3060
   31SAPC  C215 4162   2.610   5.129   7.692  0.6462  0.3940 -0.7839
   31SAPC  H15R 4163   2.616   5.032   7.742 -1.1393 -0.0818 -1.3995
   31SAPC  C216 4164   2.552   5.233   7.779  0.1696  0.2058  0.4714
   31SAPC  H16R 4165   2.536   5.335   7.737 -2.2038  0.1816  1.1518
   31SAPC  H16S 4166   2.611   5.245   7.872  0.0783  1.5180  0.3920
   31SAPC  C217 4167   2.411   5.208   7.826  0.3155  0.2407 -0.6293
   31SAPC  H17R 4168   2.396   5.109   7.873  1.2165 -0.2021 -1.2503
   31SAPC  H17S 4169   2.354   5.217   7.731 -0.6925 -0.2793 -0.0852
   31SAPC  C218 4170   2.368   5.314   7.925 -0.9128 -0.2092  0.9537
   31SAPC  H18R 4171   2.354   5.406   7.864  0.1383 -1.3058 -1.0682
   31SAPC  H18S 4172   2.440   5.319   8.010  1.9241 -2.1677 -1.1174
   31SAPC  C219 4173   2.235   5.287   7.976 -0.2141  0.7726 -0.3175
   31SAPC  H19R 4174   2.210   5.180   7.991  0.0829  0.3447 -2.5783
   31SAPC  H19S 4175   2.155   5.320   7.907 -1.8791  1.9962  2.0387
   31SAPC  C220 4176   2.201   5.366   8.098  0.0999 -0.6172 -0.4533
   31SAPC  H20R 4177   2.285   5.360   8.171  0.8863 -1.0478 -1.3733
   31SAPC  H20S 4178   2.108   5.326   8.143 -0.1786  0.6477  0.1580
   31SAPC  H20T 4179   2.192   5.475   8.075 -0.0033 -0.6964 -0.7918
   31SAPC   C33 4180   2.899   4.495   6.984 -0.8151 -0.7109 -0.1988
   31SAPC   H3X 4181   2.897   4.386   6.964 -1.0871 -0.4547 -1.6886
   31SAPC   H3Y 4182   2.835   4.540   6.905  0.1379  0.6133 -0.2461
   31SAPC   C34 4183   2.849   4.528   7.129 -0.0578 -0.3078  0.4682
   31SAPC   H4X 4184   2.747   4.485   7.131 -0.5304  0.7434 -0.0774
   31SAPC   H4Y 4185   2.844   4.639   7.139  1.3866 -0.1355 -0.4916
   31SAPC   C35 4186   2.935   4.482   7.249  0.2945  0.7558 -0.4525
   31SAPC   H5X 4187   3.039   4.520   7.238  0.1272  0.6790 -2.9633
   31SAPC   H5Y 4188   2.949   4.372   7.243 -1.4191  0.5370 -0.8441
   31SAPC   C36 4189   2.888   4.532   7.386  0.7304 -0.7783 -0.4362
   31SAPC   H6X 4190   2.924   4.471   7.472 -1.8613 -0.0753  1.2667
   31SAPC   H6Y 4191   2.779   4.512   7.385  0.4906  0.2819  1.1494
   31SAPC   C37 4192   2.916   4.676   7.425 -0.7838  0.0075  0.2897
   31SAPC   H7X 4193   2.861   4.725   7.342  0.6218 -0.7987 -1.1943
   31SAPC   H7Y 4194   3.024   4.701   7.420 -0.8852  0.2878 -0.6212
   31SAPC   C38 4195   2.879   4.722   7.569  0.2834 -0.6235  0.2955
   31SAPC   H8X 4196   2.772   4.695   7.581 -0.7820  2.6393 -0.9638
   31SAPC   H8Y 4197   2.879   4.833   7.567  1.8051 -0.6081 -0.7452
   31SAPC   C39 4198   2.976   4.659   7.675  0.9012  0.7485 -0.1702
   31SAPC   H9X 4199   3.078   4.694   7.649  0.4022  0.9057 -2.0417
   31SAPC   H9Y 4200   2.952   4.551   7.670 -1.2891  1.2226 -0.9290
   31SAPC  C310 4201   2.936   4.702   7.816 -0.0637  0.2366 -0.2488
   31SAPC  H10X 4202   2.997   4.643   7.888  0.2808 -0.8605 -1.4071
   31SAPC  H10Y 4203   2.830   4.673   7.836 -0.3093  0.1294 -1.5968
   31SAPC  C311 4204   2.951   4.856   7.834 -0.5882  0.1733 -0.4613
   31SAPC  H11X 4205   2.873   4.913   7.780  0.0540  3.0755  1.4605
   31SAPC  H11Y 4206   3.053   4.892   7.810 -0.2138  1.2521  2.4065
   31SAPC  C312 4207   2.933   4.901   7.984 -0.2938  0.2477 -0.4245
   31SAPC  H12X 4208   3.001   4.842   8.049  0.6886  2.5395  0.6993
   31SAPC  H12Y 4209   2.829   4.884   8.022  0.2864 -0.9379  0.7240
   31SAPC  C313 4210   2.970   5.046   7.983 -0.2594  0.1929  0.3682
   31SAPC  H13X 4211   2.895   5.097   7.919 -0.8822 -0.3015  0.6803
   31SAPC  H13Y 4212   3.069   5.059   7.936 -0.0730 -1.3156  0.2941
   31SAPC  C314 4213   2.977   5.127   8.122  0.3020 -0.0760 -0.3585
   31SAPC  H14X 4214   2.875   5.133   8.165  0.7619 -1.5232  1.0417
   31SAPC  H14Y 4215   3.003   5.234   8.107  0.0992 -0.0785 -0.7450
   31SAPC  C315 4216   3.088   5.073   8.220 -0.8715 -0.7474  0.5248
   31SAPC  H15X 4217   3.183   5.120   8.187 -0.7728  1.3526  3.3375
   31SAPC  H15Y 4218   3.094   4.965   8.197 -1.2894 -0.6895  0.1303
   31SAPC  C316 4219   3.057   5.110   8.368 -0.5475  0.4223  1.1138
   31SAPC  H16X 4220   3.134   5.061   8.431 -0.3112 -3.1875 -1.6366
   31SAPC  H16Y 4221   2.960   5.066   8.397 -1.0953  0.5034 -0.4867
   31SAPC  C317 4222   3.057   5.257   8.405  0.2945 -0.1613  0.1720
   31SAPC  H17X 4223   2.986   5.304   8.334  2.4376  0.5352 -1.6414
   31SAPC  H17Y 4224   3.159   5.299   8.390  0.1133  0.5692  0.9115
   31SAPC  C318 4225   3.015   5.266   8.552  0.1378 -0.0578  0.8745
   31SAPC  H18X 4226   2.916   5.220   8.569  1.8521 -4.8282 -0.4291
   31SAPC  H18Y 4227   3.033   5.370   8.588 -0.0432  0.0471  0.6668
   31SAPC  H18Z 4228   3.091   5.209   8.609  0.5430 -0.6984 -0.2561
   32SAPC     N 4229   3.970   6.707   5.927 -0.5190 -0.5843  0.3656
   32SAPC   C12 4230   3.942   6.559   5.904  0.3516  0.4718  0.3721
   32SAPC  H12A 4231   4.014   6.496   5.953 -0.4825 -0.8197 -0.0195
   32SAPC  H12B 4232   3.959   6.536   5.800  1.5459  1.2880  0.3704
   32SAPC   C13 4233   3.926   6.741   6.066  0.1784  0.0259  0.3455
   32SAPC  H13A 4234   3.955   6.665   6.136 -2.6907 -0.0604  1.5804
   32SAPC  H13B 4235   3.970   6.834   6.100 -1.3032  0.7704  0.3114
   32SAPC  H13C 4236   3.819   6.736   6.077 -0.0761  1.1967 -1.1442
   32SAPC   C14 4237   4.111   6.741   5.915 -0.4173 -0.0391  0.9888
   32SAPC  H14A 4238   4.166   6.683   5.988 -0.6415 -0.4761  0.8133
   32SAPC  H14B 4239   4.140   6.703   5.818 -0.3514  2.6838 -0.1295
   32SAPC  H14C 4240   4.123   6.848   5.909 -0.4203 -0.0849 -0.0129
   32SAPC   C15 4241   3.896   6.794   5.826  0.0078  0.1949 -0.4968
   32SAPC  H15A 4242   3.886   6.748   5.729 -0.1188  1.5259 -1.1370
   32SAPC  H15B 4243   3.800   6.817   5.870  0.1935  3.7783 -1.6356
   32SAPC  H15C 4244   3.954   6.885   5.823  0.7360 -0.1870  0.9644
   32SAPC   C11 4245   3.806   6.489   5.938 -0.0953  0.3289 -0.4091
   32SAPC  H11A 4246   3.774   6.399   5.882  0.5142  1.0339 -1.9500
   32SAPC  H11B 4247   3.734   6.566   5.903 -0.1844  0.8971  0.9594
   32SAPC     P 4248   3.873   6.351   6.142  0.5940 -0.0188 -0.1534
   32SAPC   O13 4249   3.797   6.227   6.139  0.3267 -0.3538 -0.7447
   32SAPC   O14 4250   4.013   6.344   6.082  0.0786  0.0870  0.5080
   32SAPC   O12 4251   3.787   6.465   6.076  0.2487  0.2113 -0.1351
   32SAPC   O11 4252   3.878   6.399   6.288  0.0000  0.2029 -0.0814
   32SAPC    C1 4253   3.770   6.450   6.365 -0.2635 -0.2113  0.2940
   32SAPC    HA 4254   3.711   6.520   6.301  0.5734 -0.4271 -0.7476
   32SAPC    HB 4255   3.702   6.370   6.402  0.9899 -0.8837  1.2092
   32SAPC    C2 4256   3.819   6.516   6.498  0.0810 -0.1603  0.2514
   32SAPC    HS 4257   3.886   6.602   6.477  1.8854 -1.2504  1.3291
   32SAPC   O21 4258   3.880   6.422   6.583  0.1096  0.0788  0.1569
   32SAPC   C21 4259   3.950   6.481   6.679  0.7296  0.1179 -0.9943
   32SAPC   O22 4260   3.985   6.598   6.678 -0.2738  0.0973  0.2886
   32SAPC   C22 4261   3.990   6.380   6.790  0.0089  0.1967 -0.0359
   32SAPC   H2R 4262   3.900   6.325   6.823 -0.9060 -0.7347 -3.6392
   32SAPC   H2S 4263   4.076   6.320   6.754  2.0981  2.1654  1.3348
   32SAPC    C3 4264   3.692   6.580   6.565  0.1788 -0.6000  0.3202
   32SAPC    HX 4265   3.661   6.649   6.484  0.9120 -1.4480 -0.7246
   32SAPC    HY 4266   3.717   6.640   6.655 -1.4097 -2.1942  1.9029
   32SAPC   O31 4267   3.588   6.486   6.590 -0.2903 -0.1394  1.0762
   32SAPC   C31 4268   3.577   6.440   6.712  0.2756  0.2493  0.0422
   32SAPC   O32 4269   3.661   6.457   6.801  0.2768  0.1603 -0.1326
   32SAPC   C32 4270   3.461   6.343   6.707  0.7002 -0.3383  0.4252
   32SAPC   H2X 4271   3.494   6.257   6.644 -0.9969 -1.4471  0.9948
   32SAPC   H2Y 4272   3.376   6.392   6.654  0.1415 -1.7158  0.0022
   32SAPC   C23 4273   4.058   6.452   6.913  0.0072 -0.1356  0.1074
   32SAPC   H3R 4274   4.003   6.541   6.951  0.9716  0.0194  1.2004
   32SAPC   H3S 4275   4.155   6.494   6.880  0.0260 -0.2233  0.0505
   32SAPC   C24 4276   4.071   6.371   7.041 -0.4260 -0.1894 -0.2328
   32SAPC   H4R 4277   4.152   6.297   7.023  0.3751 -0.1420  2.6728
   32SAPC   H4S 4278   3.972   6.327   7.065 -0.3078 -1.5116 -2.0287
   32SAPC   C25 4279   4.118   6.445   7.158 -0.6097  0.0931  0.7832
   32SAPC   H5R 4280   4.179   6.535   7.139 -0.9158 -0.1328 -1.5926
   32SAPC   C26 4281   4.088   6.425   7.289  0.4523 -0.0231  0.3252
   32SAPC   H6R 4282   4.139   6.489   7.364 -0.3724  0.4393  0.5026
   32SAPC   C27 4283   4.001   6.324   7.358  0.2220 -0.1837  0.5878
   32SAPC   H7R 4284   4.059   6.250   7.417  0.8502  0.4956  0.8329
   32SAPC   H7S 4285   3.951   6.264   7.279 -0.7827 -0.1095  1.1517
   32SAPC   C28 4286   3.901   6.388   7.445 -0.1116 -0.6309  0.0284
   32SAPC   H8R 4287   3.813   6.415   7.385  1.7608 -1.5505 -3.4027
   32SAPC   C29 4288   3.908   6.414   7.578  0.0241  0.3176  1.1420
   32SAPC   H9R 4289   3.835   6.485   7.618 -1.4765 -0.5696  0.0514
   32SAPC  C210 4290   4.027   6.373   7.667  0.4104  0.3453 -0.2014
   32SAPC  H10R 4291   4.019   6.443   7.752 -0.4101 -2.7430  2.4605
   32SAPC  H10S 4292   4.118   6.394   7.606 -0.0684  1.9377 -0.4290
   32SAPC  C211 4293   4.035   6.228   7.712  0.6345  0.4929  0.5684
   32SAPC  H11R 4294   3.997   6.147   7.648 -1.4149  0.6926  1.4585
   32SAPC  C212 4295   4.092   6.184   7.816 -0.2418 -0.7481 -0.3285
   32SAPC  H12R 4296   4.084   6.074   7.823 -0.8822 -0.7893 -1.4635
   32SAPC  C213 4297   4.164   6.255   7.924 -0.7141 -0.3453 -0.1207
   32SAPC  H13R 4298   4.148   6.216   8.027  1.9686  0.8440  0.8369
   32SAPC  H13S 4299   4.120   6.357   7.933 -2.5381 -1.0480 -0.5194
   32SAPC  C214 4300   4.310   6.276   7.899  0.2475 -0.3473  0.7183
   32SAPC  H14R 4301   4.355   6.231   7.809 -0.2532  1.8388 -0.7046
   32SAPC  C215 4302   4.386   6.357   7.974  0.5557 -0.3280 -0.3321
   32SAPC  H15R 4303   4.485   6.382   7.932 -0.0616 -0.0479 -1.6736
   32SAPC  C216 4304   4.339   6.435   8.098 -0.4410  0.4820 -0.5445
   32SAPC  H16R 4305   4.230   6.443   8.116 -0.1490 -1.1037  2.7005
   32SAPC  H16S 4306   4.379   6.538   8.095 -0.6292  0.5537 -0.5722
   32SAPC  C217 4307   4.394   6.368   8.224 -0.2846 -0.3089  0.1743
   32SAPC  H17R 4308   4.504   6.354   8.235 -0.0660 -0.8939 -2.1282
   32SAPC  H17S 4309   4.360   6.263   8.209  1.1862 -0.5963 -1.6519
   32SAPC  C218 4310   4.329   6.422   8.349 -0.4192 -0.3939  0.0174
   32SAPC  H18R 4311   4.220   6.402   8.353 -0.1525 -2.3140 -1.2160
   32SAPC  H18S 4312   4.347   6.532   8.354  3.7044 -0.8505 -1.2640
   32SAPC  C219 4313   4.402   6.374   8.473  0.2658  0.1333 -0.2364
   32SAPC  H19R 4314   4.498   6.429   8.469  0.3066  0.0880  0.0942
   32SAPC  H19S 4315   4.427   6.266   8.461 -0.1611 -0.3763  2.6804
   32SAPC  C220 4316   4.320   6.405   8.599 -0.6537  0.1005  0.1031
   32SAPC  H20R 4317   4.223   6.350   8.600  0.0284 -1.1909 -1.4350
   32SAPC  H20S 4318   4.311   6.516   8.602  2.6651  0.4497  1.7830
   32SAPC  H20T 4319   4.376   6.375   8.690 -1.5458 -1.7331  0.0998
   32SAPC   C33 4320   3.407   6.287   6.841 -0.1473  0.0050 -0.3782
   32SAPC   H3X 4321   3.491   6.255   6.907 -0.4111 -2.4143 -1.1341
   32SAPC   H3Y 4322   3.338   6.205   6.816  1.1532 -1.1610 -0.2665
   32SAPC   C34 4323   3.333   6.402   6.910  0.5363 -0.1043 -0.1410
   32SAPC   H4X 4324   3.264   6.455   6.841  0.8314  0.3820 -0.0698
   32SAPC   H4Y 4325   3.406   6.485   6.924  0.0098  0.2501  0.5845
   32SAPC   C35 4326   3.265   6.363   7.042  0.2485  0.3627 -0.4033
   32SAPC   H5X 4327   3.191   6.281   7.033  0.2302  0.3656 -0.2783
   32SAPC   H5Y 4328   3.219   6.457   7.079 -0.3512  0.3267 -1.0329
   32SAPC   C36 4329   3.376   6.326   7.150  0.7159  0.4305  0.5406
   32SAPC   H6X 4330   3.446   6.411   7.138 -1.2863  2.2448  1.0883
   32SAPC   H6Y 4331   3.424   6.228   7.129 -1.1542 -0.5305  0.5043
   32SAPC   C37 4332   3.330   6.338   7.297 -0.2305 -0.1599  0.1328
   32SAPC   H7X 4333   3.283   6.240   7.321 -1.4426  0.5443  0.6800
   32SAPC   H7Y 4334   3.253   6.414   7.320 -0.7691 -0.0848 -1.7907
   32SAPC   C38 4335   3.454   6.359   7.388 -0.7135 -0.2778 -1.2556
   32SAPC   H8X 4336   3.499   6.460   7.374 -1.4586  0.1175 -0.8653
   32SAPC   H8Y 4337   3.522   6.276   7.360 -0.9676 -0.9889  0.1405
   32SAPC   C39 4338   3.414   6.347   7.533  0.5139 -0.1267 -0.5706
   32SAPC   H9X 4339   3.381   6.243   7.554 -2.2218  0.6676 -0.4791
   32SAPC   H9Y 4340   3.324   6.410   7.551 -0.1601 -1.0151 -0.7866
   32SAPC  C310 4341   3.516   6.388   7.639 -0.2842 -0.0443 -0.6646
   32SAPC  H10X 4342   3.530   6.497   7.650  0.1690 -0.2694  1.4752
   32SAPC  H10Y 4343   3.613   6.341   7.612  0.1982 -0.3023  1.3691
   32SAPC  C311 4344   3.480   6.329   7.779  0.0651  0.0719  0.3622
   32SAPC  H11X 4345   3.466   6.219   7.792 -7.2716  0.4470 -0.6463
   32SAPC  H11Y 4346   3.377   6.367   7.795  0.2859  1.1004 -0.5591
   32SAPC  C312 4347   3.585   6.379   7.880  0.4557 -0.6782 -0.0931
   32SAPC  H12X 4348   3.529   6.415   7.969 -1.5494 -1.0816 -1.1371
   32SAPC  H12Y 4349   3.641   6.468   7.842  0.0488 -0.6432 -0.6159
   32SAPC  C313 4350   3.689   6.286   7.911 -0.2009 -0.0078 -0.7644
   32SAPC  H13X 4351   3.730   6.258   7.811  0.9636  0.2122 -0.3576
   32SAPC  H13Y 4352   3.646   6.198   7.962  0.7837  1.0209  2.0079
   32SAPC  C314 4353   3.794   6.356   7.999  0.0848  0.2793  0.2003
   32SAPC  H14X 4354   3.819   6.455   7.954 -0.6910 -0.4796 -2.0382
   32SAPC  H14Y 4355   3.888   6.297   7.998  0.4339  0.8106 -1.2771
   32SAPC  C315 4356   3.747   6.374   8.144 -0.1768 -0.3593 -0.2424
   32SAPC  H15X 4357   3.652   6.320   8.162 -0.3118  0.0187  0.1767
   32SAPC  H15Y 4358   3.725   6.480   8.170  2.7273  0.3209 -0.1540
   32SAPC  C316 4359   3.857   6.335   8.247 -0.9188  0.3528  0.3970
   32SAPC  H16X 4360   3.948   6.396   8.229 -0.9155  0.1934 -0.1521
   32SAPC  H16Y 4361   3.897   6.234   8.222 -2.4928 -1.2456  3.6299
   32SAPC  C317 4362   3.812   6.355   8.391  0.3654  0.5218 -0.0465
   32SAPC  H17X 4363   3.744   6.272   8.418 -0.5219  1.8714  2.1094
   32SAPC  H17Y 4364   3.757   6.451   8.395  0.3337  0.4783  0.6350
   32SAPC  C318 4365   3.934   6.341   8.483 -0.0899  0.1633  1.2015
   32SAPC  H18X 4366   3.993   6.248   8.470 -0.7945 -0.0805 -0.5155
   32SAPC  H18Y 4367   3.905   6.357   8.589 -3.2630 -2.3787  0.8554
   32SAPC  H18Z 4368   3.997   6.428   8.456 -1.1170 -0.0835 -2.6179
   33POPC     N 4369   5.023   1.982  10.585 -0.3527  0.5071 -0.0057
   33POPC   C12 4370   4.923   1.902  10.501 -0.2546 -0.4939 -0.7864
   33POPC  H12A 4371   4.915   1.936  10.399  3.0625  1.2941 -0.5676
   33POPC  H12B 4372   4.824   1.913  10.542 -0.2215  1.8927 -1.2265
   33POPC   C13 4373   5.153   1.972  10.511  0.2417  0.0415  0.1888
   33POPC  H13A 4374   5.135   1.986  10.406 -0.6040 -1.8103  0.0505
   33POPC  H13B 4375   5.234   2.039  10.536 -0.3140  0.0367  2.2141
   33POPC  H13C 4376   5.191   1.871  10.502  1.9116  0.6613 -0.1126
   33POPC   C14 4377   4.981   2.123  10.583 -0.1472 -1.2503  0.5012
   33POPC  H14A 4378   4.880   2.142  10.614  0.9236  3.2686  1.8984
   33POPC  H14B 4379   5.045   2.164  10.660 -0.7545  0.2252  0.2345
   33POPC  H14C 4380   5.014   2.161  10.487  2.5760 -2.5831  0.7992
   33POPC   C15 4381   5.028   1.943  10.726 -0.5455 -0.2573  0.5255
   33POPC  H15A 4382   5.107   1.998  10.776  0.1777  1.4992 -2.3270
   33POPC  H15B 4383   5.057   1.839  10.738  1.1480  0.4556  3.6199
   33POPC  H15C 4384   4.933   1.950  10.775 -0.2936 -0.5455  1.0622
   33POPC   C11 4385   4.943   1.752  10.481  0.2190  0.0205  0.9538
   33POPC  H11A 4386   5.019   1.737  10.402  1.0520  1.3022  1.4826
   33POPC  H11B 4387   4.854   1.709  10.429  0.7114 -1.4690  1.3073
   33POPC     P 4388   5.024   1.538  10.607  0.1114  0.0884  0.2263
   33POPC   O13 4389   4.920   1.432  10.599 -0.1353 -0.4811 -0.0438
   33POPC   O14 4390   5.112   1.525  10.729  0.2099 -0.2104  0.4011
   33POPC   O12 4391   4.968   1.680  10.591 -0.1575  0.3426 -0.3897
   33POPC   O11 4392   5.105   1.522  10.474 -0.5734  0.2886 -0.3391
   33POPC    C1 4393   5.244   1.494  10.457  0.3004  0.6658 -0.6581
   33POPC    HA 4394   5.300   1.586  10.483  0.9673  0.3443 -0.9306
   33POPC    HB 4395   5.277   1.408  10.519  1.2657  1.5145  0.0471
   33POPC    C2 4396   5.275   1.454  10.316 -0.1247 -0.6215  0.5904
   33POPC    HS 4397   5.227   1.355  10.301  0.3522 -0.9323  1.1204
   33POPC   O21 4398   5.417   1.457  10.294  0.0675 -0.0585 -0.4286
   33POPC   C21 4399   5.486   1.347  10.333 -0.2389  0.0927  0.1637
   33POPC   O22 4400   5.442   1.266  10.410  0.9124 -0.3001 -0.2004
   33POPC   C22 4401   5.628   1.338  10.272 -0.2463 -0.1453 -0.2756
   33POPC   H2R 4402   5.654   1.231  10.258 -1.7681 -0.6009  0.1125
   33POPC   H2S 4403   5.689   1.373  10.358 -1.5035  0.0943  0.5553
   33POPC    C3 4404   5.197   1.548  10.206 -0.1672 -0.2056  0.0771
   33POPC    HX 4405   5.203   1.650  10.251 -1.6789 -0.3780  0.7337
   33POPC    HY 4406   5.093   1.511  10.219 -0.6768  1.7141  2.1371
   33POPC   O31 4407   5.247   1.540  10.073  0.0613  0.2779 -0.2133
   33POPC   C31 4408   5.193   1.625   9.983  0.0917 -0.6961  0.6570
   33POPC   O32 4409   5.104   1.705  10.021 -0.3542  0.0435 -0.4157
   33POPC   C32 4410   5.267   1.620   9.850  0.4147 -0.8856 -0.5483
   33POPC   H2X 4411   5.186   1.642   9.776 -1.5823  0.2985  1.8517
   33POPC   H2Y 4412   5.308   1.519   9.828  1.5364 -0.2645 -1.4085
   33POPC   C23 4413   5.656   1.412  10.144  0.1949  0.0681  0.0702
   33POPC   H3R 4414   5.760   1.386  10.116 -0.1612 -1.1420 -0.1919
   33POPC   H3S 4415   5.654   1.523  10.144  1.4444  0.1066 -0.4962
   33POPC   C24 4416   5.576   1.349  10.026 -0.1509  0.3226  0.5637
   33POPC   H4R 4417   5.477   1.399  10.017  0.4601  1.1921 -2.6008
   33POPC   H4S 4418   5.564   1.240  10.041 -2.5115  0.5069  0.3839
   33POPC   C25 4419   5.642   1.361   9.892  0.0017  0.3423  0.0715
   33POPC   H5R 4420   5.739   1.308   9.883 -0.5137 -0.7013  0.4965
   33POPC   H5S 4421   5.644   1.471   9.876  0.5213  0.4352  0.7648
   33POPC   C26 4422   5.563   1.296   9.773 -0.4892 -0.0461  0.0272
   33POPC   H6R 4423   5.456   1.327   9.783 -0.4877 -0.2465  0.7233
   33POPC   H6S 4424   5.563   1.186   9.765  0.6263 -0.0767  0.3637
   33POPC   C27 4425   5.593   1.351   9.630  0.4381 -0.0565  0.1497
   33POPC   H7R 4426   5.680   1.297   9.585  0.2049  0.9952 -1.6506
   33POPC   H7S 4427   5.621   1.458   9.639 -0.5971  0.0716  2.3127
   33POPC   C28 4428   5.476   1.325   9.536 -0.6285 -0.0422  0.0341
   33POPC   H8R 4429   5.380   1.364   9.578 -0.1237  1.4194 -0.0939
   33POPC   H8S 4430   5.466   1.215   9.530 -1.2236 -0.0064  0.2846
   33POPC   C29 4431   5.504   1.389   9.404 -0.3838 -0.2126 -1.1680
   33POPC   H91 4432   5.463   1.491   9.404 -1.7332 -0.6944  0.6651
   33POPC  C210 4433   5.566   1.337   9.298 -0.3250  0.4104  0.5096
   33POPC  H101 4434   5.574   1.391   9.202  1.0101 -1.4090 -0.4799
   33POPC  C211 4435   5.611   1.191   9.292  0.6016  0.3880 -0.4306
   33POPC  H11R 4436   5.534   1.126   9.338  1.1783 -0.2317 -0.3193
   33POPC  H11S 4437   5.700   1.179   9.357  1.0943  1.3650 -0.9070
   33POPC  C212 4438   5.668   1.137   9.160  0.5724 -0.7736  0.1615
   33POPC  H12R 4439   5.777   1.156   9.158  0.2158  1.6098  0.6671
   33POPC  H12S 4440   5.623   1.197   9.078  0.5855 -0.4917  0.3598
   33POPC  C213 4441   5.655   0.986   9.146 -0.8799  0.6835  0.4950
   33POPC  H13R 4442   5.547   0.962   9.140 -0.3618 -2.1163  0.7405
   33POPC  H13S 4443   5.701   0.931   9.231 -1.6201 -0.9934 -0.1464
   33POPC  C214 4444   5.723   0.937   9.017  0.0388  0.1211  0.4506
   33POPC  H14R 4445   5.727   0.826   9.016 -2.0122 -0.0140 -1.5211
   33POPC  H14S 4446   5.826   0.975   9.005  0.1928  0.4306  2.3731
   33POPC  C215 4447   5.647   0.983   8.889  0.7449  0.0369  0.1144
   33POPC  H15R 4448   5.649   1.094   8.880 -1.5073  0.1203  0.1832
   33POPC  H15S 4449   5.538   0.963   8.898  0.7154  0.7691  1.6792
   33POPC  C216 4450   5.691   0.902   8.767  0.5079 -0.5510 -0.1610
   33POPC  H16R 4451   5.689   0.793   8.792  0.9894 -0.7491 -0.9468
   33POPC  H16S 4452   5.799   0.924   8.755  1.0391 -1.9724  1.4660
   33POPC  C217 4453   5.611   0.916   8.640 -0.5564 -0.4487  0.0520
   33POPC  H17R 4454   5.597   1.024   8.619  3.7697  0.7305  2.0253
   33POPC  H17S 4455   5.513   0.864   8.639  0.1354 -1.8064  0.0877
   33POPC  C218 4456   5.689   0.865   8.519 -0.3846 -0.4454 -0.1364
   33POPC  H18R 4457   5.637   0.838   8.425  1.3232 -2.8103 -0.5024
   33POPC  H18S 4458   5.738   0.767   8.540  1.4229  0.4598  0.0764
   33POPC  H18T 4459   5.779   0.924   8.493 -0.2924 -0.0626  0.9945
   33POPC   C33 4460   5.373   1.733   9.844  0.9017 -0.2163  0.3210
   33POPC   H3X 4461   5.450   1.708   9.920  1.6997  0.1164 -0.3612
   33POPC   H3Y 4462   5.322   1.823   9.884  1.2278  0.0868  0.0650
   33POPC   C34 4463   5.436   1.744   9.707 -0.5647 -0.6528 -0.1287
   33POPC   H4X 4464   5.495   1.656   9.674  0.3746 -0.6328  1.4305
   33POPC   H4Y 4465   5.501   1.833   9.693 -0.0485 -1.1724 -1.1793
   33POPC   C35 4466   5.329   1.768   9.597 -0.0933 -0.2711 -0.6524
   33POPC   H5X 4467   5.234   1.815   9.630 -0.1138 -0.3273 -0.6323
   33POPC   H5Y 4468   5.301   1.664   9.567  1.7346 -0.8096 -0.6114
   33POPC   C36 4469   5.378   1.823   9.458  0.1365  0.3755  0.4864
   33POPC   H6X 4470   5.463   1.758   9.428 -0.6460 -0.3569 -0.2367
   33POPC   H6Y 4471   5.411   1.927   9.476  2.0709 -0.2457  0.7152
   33POPC   C37 4472   5.276   1.797   9.344  0.1126 -0.5176 -0.2248
   33POPC   H7X 4473   5.175   1.840   9.359  1.4810  3.1994 -0.5177
   33POPC   H7Y 4474   5.277   1.688   9.322 -0.9872 -0.3078 -1.4729
   33POPC   C38 4475   5.315   1.851   9.203  0.2198 -0.3309 -0.8061
   33POPC   H8X 4476   5.317   1.961   9.210  0.4481 -0.4181  0.9986
   33POPC   H8Y 4477   5.234   1.814   9.136  0.9746 -2.0302 -0.8456
   33POPC   C39 4478   5.446   1.788   9.158  0.4898  0.4047 -0.3228
   33POPC   H9X 4479   5.486   1.694   9.203  3.2549  1.0261 -1.2941
   33POPC   H9Y 4480   5.523   1.859   9.197 -0.1608  0.7766  0.3110
   33POPC  C310 4481   5.444   1.773   9.004 -0.1994  0.5958 -0.2110
   33POPC  H10X 4482   5.434   1.867   8.946 -0.0979  0.2186 -0.8490
   33POPC  H10Y 4483   5.348   1.722   8.980  0.3734 -0.6708  0.1068
   33POPC  C311 4484   5.557   1.690   8.948  0.1905  0.4752 -0.6577
   33POPC  H11X 4485   5.546   1.594   9.003 -0.4507  1.2795  0.6425
   33POPC  H11Y 4486   5.650   1.734   8.991 -0.6986  0.2577  1.6367
   33POPC  C312 4487   5.564   1.669   8.797 -0.1168 -0.0373 -0.0282
   33POPC  H12X 4488   5.664   1.635   8.764 -0.2837  0.3754 -0.9937
   33POPC  H12Y 4489   5.551   1.769   8.749  0.5170 -0.3262 -0.8178
   33POPC  C313 4490   5.449   1.575   8.749  0.1159  0.2471  0.5138
   33POPC  H13X 4491   5.449   1.558   8.639  2.4487  1.7166  0.2070
   33POPC  H13Y 4492   5.355   1.626   8.780  0.6762  0.2427  2.3302
   33POPC  C314 4493   5.459   1.437   8.815  0.0294  0.2144 -0.0200
   33POPC  H14X 4494   5.468   1.448   8.925 -0.4780  0.7735 -0.0288
   33POPC  H14Y 4495   5.554   1.383   8.794  0.0774 -1.3744  3.5568
   33POPC  C315 4496   5.340   1.353   8.761 -0.2738 -0.3641 -0.5268
   33POPC  H15X 4497   5.358   1.343   8.652 -2.5660 -0.0614 -0.9658
   33POPC  H15Y 4498   5.239   1.398   8.769  0.1765  0.5369  0.3335
   33POPC  C316 4499   5.336   1.204   8.810 -0.0491 -1.3393  0.1353
   33POPC  H16X 4500   5.257   1.152   8.752  0.5167  0.8190 -2.7693
   33POPC  H16Y 4501   5.303   1.191   8.915 -1.1933 -0.3172 -0.0813
   33POPC  H16Z 4502   5.437   1.159   8.795  0.2311 -0.4131 -0.8268
   34POPC     N 4503   0.372   0.054  11.156  0.0699 -0.3529  0.5095
   34POPC   C12 4504   0.400  -0.047  11.042 -0.1220  0.5788  0.1145
   34POPC  H12A 4505   0.335  -0.134  11.043  2.4784 -1.6854 -3.0298
   34POPC  H12B 4506   0.496  -0.095  11.058 -1.2951 -2.2490 -0.5967
   34POPC   C13 4507   0.455   0.178  11.142  0.5938  0.9194  1.0145
   34POPC  H13A 4508   0.412   0.244  11.215 -2.3374  1.0007 -0.6451
   34POPC  H13B 4509   0.560   0.156  11.152  0.4829 -0.3533 -0.2761
   34POPC  H13C 4510   0.434   0.211  11.041 -2.3923  1.7139  1.8144
   34POPC   C14 4511   0.220   0.090  11.156 -0.0502  0.0759  0.1812
   34POPC  H14A 4512   0.196   0.112  11.053  0.9948 -0.8313 -0.2737
   34POPC  H14B 4513   0.169  -0.004  11.169  0.7397 -0.6120 -1.4561
   34POPC  H14C 4514   0.187   0.152  11.238 -1.2982 -1.9085  1.2532
   34POPC   C15 4515   0.405  -0.019  11.280  0.7435  0.2526 -0.8017
   34POPC  H15A 4516   0.360  -0.117  11.273 -2.2036  1.3883  0.4298
   34POPC  H15B 4517   0.373   0.026  11.373  1.2032 -0.8365 -0.0995
   34POPC  H15C 4518   0.509  -0.043  11.292  0.7033  0.8985  1.1550
   34POPC   C11 4519   0.388  -0.006  10.894  0.5802  0.1773  0.3837
   34POPC  H11A 4520   0.415  -0.087  10.824 -0.4275  1.7914 -2.0096
   34POPC  H11B 4521   0.473   0.065  10.893 -0.4681  1.5443 -2.1557
   34POPC     P 4522   0.155  -0.018  10.783 -0.3294  0.1601  0.6226
   34POPC   O13 4523   0.040   0.075  10.758 -0.1003 -0.7448  0.6183
   34POPC   O14 4524   0.125  -0.148  10.851 -0.2487  0.3347 -0.0085
   34POPC   O12 4525   0.266   0.061  10.868  0.3763 -0.1570  0.0538
   34POPC   O11 4526   0.236  -0.037  10.655 -0.0075 -0.4692  0.7258
   34POPC    C1 4527   0.225  -0.152  10.571 -0.5581 -1.0936  0.6879
   34POPC    HA 4528   0.209  -0.243  10.632 -2.9289 -0.6528  0.8370
   34POPC    HB 4529   0.318  -0.153  10.511 -1.8178  2.2176 -1.6373
   34POPC    C2 4530   0.101  -0.131  10.477 -0.8840 -0.5513  0.5281
   34POPC    HS 4531   0.136  -0.182  10.384  0.3474 -1.2624  1.3400
   34POPC   O21 4532   0.072   0.005  10.452 -0.3182  0.4308  0.2226
   34POPC   C21 4533   0.163   0.072  10.373  0.4260  0.8506 -0.7763
   34POPC   O22 4534   0.250   0.017  10.309 -0.5201 -0.0410 -0.0066
   34POPC   C22 4535   0.143   0.219  10.369  1.1404 -0.0572  0.1517
   34POPC   H2R 4536   0.211   0.272  10.440  0.2045  0.1081  0.9517
   34POPC   H2S 4537   0.038   0.241  10.398  0.2640 -2.7460 -0.7291
   34POPC    C3 4538  -0.029  -0.203  10.530 -0.5177 -0.6589  0.4920
   34POPC    HX 4539  -0.060  -0.141  10.617  0.3829  0.7880 -0.1832
   34POPC    HY 4540  -0.003  -0.306  10.561 -2.2246 -1.5208 -0.7778
   34POPC   O31 4541  -0.135  -0.226  10.434  0.1184  0.8036  0.6681
   34POPC   C31 4542  -0.208  -0.129  10.389  0.3165  0.2365  0.3468
   34POPC   O32 4543  -0.212  -0.016  10.427  0.3917  0.6536 -0.8284
   34POPC   C32 4544  -0.298  -0.190  10.275  0.0045 -0.1290  0.1293
   34POPC   H2X 4545  -0.349  -0.277  10.322  2.2651 -1.5080  0.1830
   34POPC   H2Y 4546  -0.231  -0.245  10.205  1.2073  0.7146  0.5831
   34POPC   C23 4547   0.168   0.291  10.239  0.0259  0.0695 -0.1474
   34POPC   H3R 4548   0.260   0.256  10.186 -0.3342 -0.0784 -0.6770
   34POPC   H3S 4549   0.184   0.398  10.262  0.6534 -0.0169 -0.1623
   34POPC   C24 4550   0.049   0.303  10.146 -0.1800  0.2517 -0.2648
   34POPC   H4R 4551  -0.046   0.339  10.191 -0.1175  0.3354 -0.1997
   34POPC   H4S 4552   0.046   0.201  10.104 -0.4113 -0.1998  0.8145
   34POPC   C25 4553   0.082   0.393  10.027  0.2673 -0.4736 -0.3808
   34POPC   H5R 4554   0.169   0.349   9.973 -0.0816 -0.0994 -1.2657
   34POPC   H5S 4555   0.110   0.494  10.061 -0.7267 -0.6089  0.9093
   34POPC   C26 4556  -0.021   0.404   9.917  0.1385 -0.6885  0.6950
   34POPC   H6R 4557   0.026   0.463   9.835  0.5726 -2.3961 -0.3182
   34POPC   H6S 4558  -0.106   0.463   9.960 -0.1246 -0.6245  0.0993
   34POPC   C27 4559  -0.058   0.263   9.856  0.0842 -0.2338  0.4227
   34POPC   H7R 4560  -0.108   0.208   9.938  0.0033  1.3123  1.4592
   34POPC   H7S 4561   0.042   0.216   9.844  0.8381  1.1638  0.9229
   34POPC   C28 4562  -0.137   0.251   9.728 -0.7161  0.4039 -0.1295
   34POPC   H8R 4563  -0.147   0.142   9.706  1.4230  0.0469  0.4618
   34POPC   H8S 4564  -0.081   0.288   9.640  2.6749 -4.5412 -0.4786
   34POPC   C29 4565  -0.274   0.325   9.745 -0.3786 -0.2018  0.1797
   34POPC   H91 4566  -0.284   0.384   9.837  1.2099  0.5655 -0.1089
   34POPC  C210 4567  -0.380   0.320   9.657 -0.1712 -0.2373  0.0160
   34POPC  H101 4568  -0.473   0.371   9.685  1.5227  2.8223  0.4514
   34POPC  C211 4569  -0.397   0.242   9.525  0.0522 -0.1644  0.0879
   34POPC  H11R 4570  -0.469   0.165   9.560  1.8004 -1.1107  1.8448
   34POPC  H11S 4571  -0.299   0.197   9.495 -1.3367 -2.8897 -0.7030
   34POPC  C212 4572  -0.458   0.332   9.413 -0.0679 -0.1094  0.4107
   34POPC  H12R 4573  -0.403   0.428   9.406 -0.0688 -0.1429 -0.1061
   34POPC  H12S 4574  -0.559   0.358   9.450 -0.7657 -1.8887 -0.1064
   34POPC  C213 4575  -0.461   0.269   9.279  0.1291  0.3031  0.0610
   34POPC  H13R 4576  -0.544   0.197   9.262 -0.8753  1.5289 -0.4203
   34POPC  H13S 4577  -0.360   0.225   9.264  0.1640 -1.4048  4.1661
   34POPC  C214 4578  -0.487   0.356   9.156 -0.6032  0.4840  0.4185
   34POPC  H14R 4579  -0.418   0.443   9.158  2.0830 -1.4906  2.9390
   34POPC  H14S 4580  -0.592   0.394   9.155 -1.2411 -1.1859 -0.6788
   34POPC  C215 4581  -0.464   0.287   9.017  0.3427 -0.3705  0.2941
   34POPC  H15R 4582  -0.526   0.196   9.030 -1.2712  0.5397 -0.7495
   34POPC  H15S 4583  -0.356   0.266   9.003  0.2664 -1.1128  0.7597
   34POPC  C216 4584  -0.526   0.368   8.900 -1.3392  0.3408  0.0120
   34POPC  H16R 4585  -0.468   0.460   8.875 -1.7131  0.9146  1.2006
   34POPC  H16S 4586  -0.625   0.397   8.941 -1.5749 -2.6011  1.8313
   34POPC  C217 4587  -0.547   0.283   8.774  0.2810  0.0508  0.0829
   34POPC  H17R 4588  -0.596   0.339   8.691  1.2196 -0.9527 -1.1938
   34POPC  H17S 4589  -0.609   0.202   8.818  0.9595  0.0663  1.1050
   34POPC  C218 4590  -0.429   0.219   8.705 -0.1707 -0.1696  0.1929
   34POPC  H18R 4591  -0.388   0.302   8.644 -1.9995 -0.0300 -0.8997
   34POPC  H18S 4592  -0.470   0.144   8.635  2.6259 -1.1472 -0.5428
   34POPC  H18T 4593  -0.356   0.170   8.774 -2.4271 -3.0849  0.7209
   34POPC   C33 4594  -0.387  -0.085  10.215  0.6076 -0.2991  1.0860
   34POPC   H3X 4595  -0.333   0.006  10.180 -0.4751  0.7425  2.0540
   34POPC   H3Y 4596  -0.447  -0.039  10.296  2.0254  2.0961  0.9032
   34POPC   C34 4597  -0.469  -0.134  10.099  0.1035  0.6478  0.3619
   34POPC   H4X 4598  -0.568  -0.083  10.097 -0.6113 -0.7278 -2.1278
   34POPC   H4Y 4599  -0.491  -0.243  10.098  0.4724  0.5729  0.3651
   34POPC   C35 4600  -0.408  -0.087   9.964 -0.2258 -0.4497  0.0681
   34POPC   H5X 4601  -0.309  -0.135   9.955  0.1885  0.2939  0.5458
   34POPC   H5Y 4602  -0.400   0.024   9.961 -1.7752 -0.3208 -0.2867
   34POPC   C36 4603  -0.475  -0.158   9.845 -0.5297  0.2438  0.4719
   34POPC   H6X 4604  -0.584  -0.138   9.860 -0.4006  1.3334  0.0457
   34POPC   H6Y 4605  -0.461  -0.266   9.827 -0.1628  0.5235 -1.0957
   34POPC   C37 4606  -0.419  -0.103   9.711 -0.1632 -0.5510 -1.0655
   34POPC   H7X 4607  -0.313  -0.135   9.704 -0.1398 -1.6459  2.5924
   34POPC   H7Y 4608  -0.423   0.008   9.718  0.9445 -0.6251  2.5760
   34POPC   C38 4609  -0.512  -0.155   9.605 -0.0292 -0.6973  0.3749
   34POPC   H8X 4610  -0.612  -0.121   9.639 -0.2734 -1.4104  0.3834
   34POPC   H8Y 4611  -0.507  -0.264   9.626  1.6623 -0.5293  1.0037
   34POPC   C39 4612  -0.475  -0.119   9.458  0.3508  0.2266  0.3316
   34POPC   H9X 4613  -0.384  -0.166   9.417  1.0209  0.6952  1.2507
   34POPC   H9Y 4614  -0.473  -0.008   9.450 -0.3715  0.1152 -3.2560
   34POPC  C310 4615  -0.582  -0.168   9.364  0.3057 -0.1712 -0.3492
   34POPC  H10X 4616  -0.675  -0.108   9.374  1.6309  1.8717  0.2215
   34POPC  H10Y 4617  -0.613  -0.272   9.389 -1.3829 -0.2254 -2.3266
   34POPC  C311 4618  -0.542  -0.154   9.216  0.0164  0.0843 -0.2391
   34POPC  H11X 4619  -0.456  -0.224   9.215 -0.6000 -0.7223  0.7604
   34POPC  H11Y 4620  -0.501  -0.050   9.212 -0.8950  0.4173 -1.3931
   34POPC  C312 4621  -0.647  -0.188   9.119 -0.7420  0.6275 -1.2411
   34POPC  H12X 4622  -0.742  -0.140   9.152 -0.6619  0.3705 -0.6195
   34POPC  H12Y 4623  -0.651  -0.299   9.118  1.7292  0.3508  1.6497
   34POPC  C313 4624  -0.624  -0.143   8.973  0.0511  0.6104 -0.0172
   34POPC  H13X 4625  -0.516  -0.131   8.953 -0.0183  0.2268 -0.6497
   34POPC  H13Y 4626  -0.669  -0.042   8.961  0.0934  0.5095 -1.0722
   34POPC  C314 4627  -0.686  -0.244   8.871  0.3329  1.0530 -0.5034
   34POPC  H14X 4628  -0.793  -0.255   8.901 -0.1873 -1.4713 -2.9045
   34POPC  H14Y 4629  -0.650  -0.349   8.873  0.4372  1.0323  2.5929
   34POPC  C315 4630  -0.682  -0.193   8.731 -0.3529 -0.6412  0.5857
   34POPC  H15X 4631  -0.736  -0.096   8.734  1.2873  0.4578 -1.9306
   34POPC  H15Y 4632  -0.751  -0.259   8.674 -2.8199  2.0249  0.2634
   34POPC  C316 4633  -0.547  -0.189   8.667 -0.1140 -0.3494  0.4128
   34POPC  H16X 4634  -0.484  -0.102   8.695 -0.8366  0.3795 -0.1955
   34POPC  H16Y 4635  -0.549  -0.184   8.556 -1.8036  0.0767  0.4483
   34POPC  H16Z 4636  -0.477  -0.274   8.683  1.2162  0.5160 -0.5925
   35POPC     N 4637   2.212   1.677  10.885 -0.2967  0.3698  0.8627
   35POPC   C12 4638   2.183   1.530  10.898 -0.4691 -0.0457  0.0530
   35POPC  H12A 4639   2.076   1.519  10.891 -0.5644  1.2426 -0.8934
   35POPC  H12B 4640   2.211   1.493  10.996 -1.4868 -1.3146 -0.1147
   35POPC   C13 4641   2.137   1.751  10.985  0.2079  0.1773 -0.3925
   35POPC  H13A 4642   2.032   1.727  10.974 -0.2734  1.8771  0.1317
   35POPC  H13B 4643   2.168   1.726  11.085 -2.5591 -1.3244  0.2012
   35POPC  H13C 4644   2.142   1.857  10.964  0.4474 -0.3576 -3.4287
   35POPC   C14 4645   2.356   1.705  10.895 -0.1758  0.2673  0.6840
   35POPC  H14A 4646   2.403   1.666  10.984 -1.1960 -3.0965 -0.0779
   35POPC  H14B 4647   2.416   1.657  10.819 -1.7309  0.2362 -0.5793
   35POPC  H14C 4648   2.379   1.810  10.888 -0.3798  0.4452  2.2761
   35POPC   C15 4649   2.164   1.724  10.747  0.4616 -0.3103 -0.3876
   35POPC  H15A 4650   2.183   1.657  10.665 -2.9481  0.7605 -2.2477
   35POPC  H15B 4651   2.211   1.816  10.717  1.4911 -0.6442  0.1528
   35POPC  H15C 4652   2.058   1.747  10.755  0.8767  1.1101  3.7679
   35POPC   C11 4653   2.232   1.443  10.784  0.2573  0.5636  0.8439
   35POPC  H11A 4654   2.343   1.447  10.780  0.2324  1.3561  0.8311
   35POPC  H11B 4655   2.193   1.476  10.686  0.0103  1.6333  1.2961
   35POPC     P 4656   2.060   1.255  10.799  0.2350  0.0896 -0.5211
   35POPC   O13 4657   1.966   1.365  10.800  0.1866  0.3036 -0.4651
   35POPC   O14 4658   2.036   1.149  10.902  0.4065  0.3044  0.2769
   35POPC   O12 4659   2.206   1.303  10.810  0.6418  0.2906 -0.5868
   35POPC   O11 4660   2.051   1.168  10.665  0.2432  0.0005 -0.2426
   35POPC    C1 4661   2.098   1.230  10.547  0.1067  0.6569  0.5057
   35POPC    HA 4662   2.208   1.241  10.557  0.0842  2.1647 -0.4877
   35POPC    HB 4663   2.057   1.331  10.526 -0.3569  0.1535 -1.1788
   35POPC    C2 4664   2.074   1.148  10.413  0.0833  0.1429 -0.8292
   35POPC    HS 4665   1.968   1.143  10.378  0.4884 -0.8198 -1.9985
   35POPC   O21 4666   2.126   1.017  10.443  0.2987  0.7376 -0.6586
   35POPC   C21 4667   2.089   0.913  10.373  0.8546  0.1243  0.5300
   35POPC   O22 4668   2.007   0.919  10.282  0.8165  0.2742 -0.0054
   35POPC   C22 4669   2.164   0.792  10.420  0.1267 -0.0848 -0.0275
   35POPC   H2R 4670   2.135   0.776  10.526 -1.2372  1.6082 -0.0946
   35POPC   H2S 4671   2.274   0.810  10.423  0.1193 -0.1495  1.6524
   35POPC    C3 4672   2.154   1.221  10.302 -0.1983 -0.1133 -0.4637
   35POPC    HX 4673   2.255   1.217  10.349  0.8417  0.7497 -2.4868
   35POPC    HY 4674   2.127   1.328  10.288 -0.9224 -0.1110  0.7879
   35POPC   O31 4675   2.165   1.154  10.173  0.0581  0.4265 -0.1343
   35POPC   C31 4676   2.048   1.158  10.106 -0.2840  0.3186  0.1645
   35POPC   O32 4677   1.960   1.239  10.123 -0.1956  0.4871  0.1215
   35POPC   C32 4678   2.057   1.052   9.986 -0.7778  0.4646 -0.5518
   35POPC   H2X 4679   2.140   0.983  10.011  0.2707  1.4137 -1.3229
   35POPC   H2Y 4680   2.069   1.109   9.891 -2.1280  0.6166 -0.6614
   35POPC   C23 4681   2.128   0.667  10.334  0.0690  0.0611  0.4511
   35POPC   H3R 4682   2.022   0.633  10.345  0.3304 -1.3595 -1.0152
   35POPC   H3S 4683   2.175   0.577  10.379 -2.3563 -1.3833  0.3400
   35POPC   C24 4684   2.181   0.682  10.194  0.4324 -0.1099 -0.2604
   35POPC   H4R 4685   2.271   0.747  10.191 -0.3911  1.0484 -0.6043
   35POPC   H4S 4686   2.104   0.750  10.151  0.5937  0.7007  0.6981
   35POPC   C25 4687   2.194   0.548  10.125 -0.2347 -0.0287 -0.1739
   35POPC   H5R 4688   2.093   0.501  10.134 -0.0053 -0.1412  2.6662
   35POPC   H5S 4689   2.261   0.487  10.189 -1.6484  0.5852  2.0030
   35POPC   C26 4690   2.246   0.552   9.980 -0.0897  0.2739 -0.6200
   35POPC   H6R 4691   2.334   0.620   9.973  0.5225 -0.3941  0.2631
   35POPC   H6S 4692   2.171   0.601   9.915  1.2905  0.0051 -2.5161
   35POPC   C27 4693   2.292   0.421   9.920  0.4504 -0.0607 -0.0255
   35POPC   H7R 4694   2.331   0.436   9.816  0.1581  0.9886  0.0023
   35POPC   H7S 4695   2.201   0.358   9.912  0.1421  0.2315  1.0629
   35POPC   C28 4696   2.395   0.350  10.014  0.2969  0.2618  0.2561
   35POPC   H8R 4697   2.418   0.257   9.958 -0.0289  1.3031 -1.7358
   35POPC   H8S 4698   2.340   0.325  10.107  0.6560 -0.1763  0.3504
   35POPC   C29 4699   2.521   0.432  10.024 -0.5593 -0.0795  1.0424
   35POPC   H91 4700   2.510   0.525  10.082  0.4626  0.9363 -0.3191
   35POPC  C210 4701   2.641   0.399   9.969 -0.6635 -0.0955 -0.4311
   35POPC  H101 4702   2.728   0.465   9.980 -0.8225  0.3105 -1.4263
   35POPC  C211 4703   2.666   0.272   9.894 -0.6421 -0.5557  0.9382
   35POPC  H11R 4704   2.603   0.187   9.929 -2.5966 -0.6776 -2.4617
   35POPC  H11S 4705   2.775   0.249   9.898 -0.1423  1.3706 -0.2900
   35POPC  C212 4706   2.645   0.281   9.745 -0.3248 -0.2405 -0.2820
   35POPC  H12R 4707   2.704   0.363   9.698 -1.1916  0.4133 -0.2465
   35POPC  H12S 4708   2.543   0.316   9.721  0.1360 -0.1817 -2.3360
   35POPC  C213 4709   2.661   0.142   9.679 -0.2967 -0.5745  0.0923
   35POPC  H13R 4710   2.613   0.062   9.740 -1.5024  0.8725  1.1162
   35POPC  H13S 4711   2.768   0.115   9.689  0.8355  3.2237 -0.3793
   35POPC  C214 4712   2.625   0.130   9.527 -0.2703  0.3128 -0.7234
   35POPC  H14R 4713   2.671   0.038   9.485  0.1519  0.3004 -0.2495
   35POPC  H14S 4714   2.674   0.223   9.491 -0.6891  1.3203  1.1939
   35POPC  C215 4715   2.475   0.133   9.491 -0.0405 -0.1083 -0.5899
   35POPC  H15R 4716   2.456   0.232   9.539  0.1206  0.0039 -0.7568
   35POPC  H15S 4717   2.432   0.044   9.542  1.5295 -0.3617  0.3259
   35POPC  C216 4718   2.427   0.125   9.347 -0.2838  0.6913 -0.1465
   35POPC  H16R 4719   2.324   0.085   9.347 -0.3136  0.7289 -1.1831
   35POPC  H16S 4720   2.480   0.043   9.293 -1.1382 -0.2444  0.4023
   35POPC  C217 4721   2.442   0.249   9.257  0.2189 -0.6296  0.0452
   35POPC  H17R 4722   2.381   0.335   9.294  0.8909 -0.6264  1.1960
   35POPC  H17S 4723   2.394   0.217   9.162 -0.2386 -1.1094  0.4284
   35POPC  C218 4724   2.584   0.298   9.233 -0.9065  0.2979  0.3759
   35POPC  H18R 4725   2.632   0.216   9.175 -2.8864 -1.2544  0.7937
   35POPC  H18S 4726   2.637   0.329   9.325 -1.8230  0.4076  0.8783
   35POPC  H18T 4727   2.585   0.385   9.163  1.9312  0.3787  0.3966
   35POPC   C33 4728   1.924   0.979   9.954 -0.2936 -0.3234 -0.1264
   35POPC   H3X 4729   1.885   0.919  10.039  1.3633 -0.2542  0.7199
   35POPC   H3Y 4730   1.941   0.898   9.880 -0.9255 -0.1437 -0.4802
   35POPC   C34 4731   1.814   1.070   9.895  0.1349  0.0317  0.2985
   35POPC   H4X 4732   1.859   1.134   9.816 -1.1668 -2.1238 -2.3636
   35POPC   H4Y 4733   1.770   1.136   9.973  2.2884  2.4514 -0.3928
   35POPC   C35 4734   1.703   0.994   9.818 -0.4538  0.0048 -0.4558
   35POPC   H5X 4735   1.658   0.914   9.881  1.0012 -1.3711 -1.0949
   35POPC   H5Y 4736   1.750   0.954   9.726  1.0343 -0.1165  0.3253
   35POPC   C36 4737   1.591   1.090   9.782  0.4690 -0.3601 -0.0860
   35POPC   H6X 4738   1.637   1.179   9.736  1.9666 -1.2458 -0.3506
   35POPC   H6Y 4739   1.539   1.122   9.875  0.3366 -2.0814  0.4678
   35POPC   C37 4740   1.490   1.036   9.681 -0.3400  0.3094 -0.7803
   35POPC   H7X 4741   1.421   1.115   9.645  2.9389  3.9030  0.1827
   35POPC   H7Y 4742   1.429   0.964   9.739 -0.6242  0.7978 -0.4722
   35POPC   C38 4743   1.545   0.952   9.559  0.3865 -0.7149  0.3395
   35POPC   H8X 4744   1.592   0.855   9.587 -0.8069 -1.3656  0.1662
   35POPC   H8Y 4745   1.624   1.007   9.504 -0.5578 -1.6957 -2.1557
   35POPC   C39 4746   1.432   0.931   9.461  0.4702  0.8090  0.0854
   35POPC   H9X 4747   1.372   1.023   9.442 -5.0632 -2.2313  0.8781
   35POPC   H9Y 4748   1.365   0.859   9.511 -0.7221  1.0250 -1.1369
   35POPC  C310 4749   1.465   0.866   9.316 -0.2697 -0.3055 -0.3068
   35POPC  H10X 4750   1.375   0.812   9.280 -1.1531  0.7861  0.1974
   35POPC  H10Y 4751   1.550   0.799   9.341 -0.5750  0.2600  2.6898
   35POPC  C311 4752   1.499   0.959   9.196  0.0510 -0.1076 -0.7606
   35POPC  H11X 4753   1.582   1.030   9.215  0.0661 -0.1639 -0.6224
   35POPC  H11Y 4754   1.412   1.024   9.172 -1.7828 -2.6123 -1.2473
   35POPC  C312 4755   1.541   0.872   9.080 -0.5229  0.0056 -0.1815
   35POPC  H12X 4756   1.447   0.829   9.038 -1.3289  2.0823 -0.6285
   35POPC  H12Y 4757   1.604   0.788   9.116 -0.3282  0.5622  0.7992
   35POPC  C313 4758   1.619   0.950   8.974 -0.3119 -0.4753 -0.0202
   35POPC  H13X 4759   1.687   1.026   9.019  0.5293 -1.0563 -0.3032
   35POPC  H13Y 4760   1.553   1.022   8.920 -1.6612 -1.3259  0.4475
   35POPC  C314 4761   1.706   0.855   8.878  0.3733 -0.0789  0.7542
   35POPC  H14X 4762   1.649   0.775   8.827 -0.8384  2.0676 -1.5119
   35POPC  H14Y 4763   1.788   0.807   8.936  1.6881  3.1442  1.7917
   35POPC  C315 4764   1.772   0.942   8.775 -0.8209  0.0496  0.3352
   35POPC  H15X 4765   1.845   1.008   8.828 -0.2474  0.4815 -0.9629
   35POPC  H15Y 4766   1.690   1.003   8.733 -1.1443  0.5444  1.6170
   35POPC  C316 4767   1.834   0.865   8.655  0.6362 -0.0243  0.8748
   35POPC  H16X 4768   1.759   0.797   8.610  0.7223  0.3130  0.2187
   35POPC  H16Y 4769   1.925   0.806   8.682  0.9918  1.2025  2.5063
   35POPC  H16Z 4770   1.864   0.936   8.575  0.0738 -1.4412 -0.6508
   36POPC     N 4771   0.169   4.216  11.113  0.2871  0.6612 -0.2003
   36POPC   C12 4772   0.211   4.245  10.975  0.1853  0.1538 -0.5359
   36POPC  H12A 4773   0.267   4.338  10.969  1.0929 -0.2963  0.6274
   36POPC  H12B 4774   0.121   4.258  10.918 -0.1198  1.9321  0.2815
   36POPC   C13 4775   0.103   4.333  11.188 -0.2975  1.0733 -0.3185
   36POPC  H13A 4776   0.161   4.422  11.172  0.5421  1.1014  2.5050
   36POPC  H13B 4777  -0.001   4.348  11.163 -0.0428  0.7694 -1.6887
   36POPC  H13C 4778   0.112   4.311  11.293 -1.1704 -1.9881 -0.7789
   36POPC   C14 4779   0.073   4.101  11.113  0.0537  0.1594 -0.1880
   36POPC  H14A 4780   0.119   4.021  11.057 -3.2215 -3.4123  1.6882
   36POPC  H14B 4781   0.056   4.070  11.215 -0.6037  0.8039 -0.0925
   36POPC  H14C 4782  -0.020   4.131  11.067  0.2851  1.2624  0.0374
   36POPC   C15 4783   0.285   4.171  11.203 -0.2653  0.6323  0.2763
   36POPC  H15A 4784   0.334   4.092  11.148 -2.3517 -0.2515 -0.4130
   36POPC  H15B 4785   0.248   4.125  11.294 -0.9801  0.1458 -0.2495
   36POPC  H15C 4786   0.341   4.259  11.230  0.0064  1.7170 -3.2992
   36POPC   C11 4787   0.292   4.131  10.898  0.2722  0.1832  0.2565
   36POPC  H11A 4788   0.319   4.169  10.797  0.2236  2.2517  0.9693
   36POPC  H11B 4789   0.221   4.047  10.889  0.7676  0.0050 -4.2287
   36POPC     P 4790   0.549   4.157  10.947 -0.2932 -0.1729  0.1844
   36POPC   O13 4791   0.646   4.097  11.040 -0.3571 -0.2611 -0.2448
   36POPC   O14 4792   0.533   4.306  10.949 -0.2463 -0.4270  0.8934
   36POPC   O12 4793   0.414   4.083  10.967 -0.6482  0.4117 -0.3625
   36POPC   O11 4794   0.594   4.116  10.799 -0.0908  0.1575 -0.4268
   36POPC    C1 4795   0.588   3.981  10.750 -0.3106 -0.8381  0.1027
   36POPC    HA 4796   0.489   3.940  10.721  0.8451 -1.8673 -2.7464
   36POPC    HB 4797   0.625   3.918  10.834 -0.0401  2.8856  3.0120
   36POPC    C2 4798   0.688   3.966  10.638 -0.2552  0.3955  0.1074
   36POPC    HS 4799   0.785   3.981  10.691 -0.4675 -0.1066  0.6552
   36POPC   O21 4800   0.657   4.068  10.545  0.5648  1.2172  0.5487
   36POPC   C21 4801   0.751   4.096  10.460  0.0945  0.2137  0.2740
   36POPC   O22 4802   0.868   4.056  10.463  0.8114 -0.0400 -0.0360
   36POPC   C22 4803   0.708   4.193  10.355  0.4443 -0.5877  0.6384
   36POPC   H2R 4804   0.750   4.290  10.388 -1.2725  0.2335  0.5338
   36POPC   H2S 4805   0.598   4.200  10.367  0.4826 -0.3510  0.8535
   36POPC    C3 4806   0.683   3.822  10.575 -0.2757 -0.0647  0.5172
   36POPC    HX 4807   0.613   3.833  10.490  0.2529  1.4250  0.2456
   36POPC    HY 4808   0.646   3.744  10.645 -0.8196 -0.9030 -0.6768
   36POPC   O31 4809   0.810   3.775  10.522 -0.1513 -0.0632  0.7737
   36POPC   C31 4810   0.796   3.716  10.394 -0.4518 -0.4665  0.1419
   36POPC   O32 4811   0.696   3.666  10.348 -0.0197  0.1079 -0.2733
   36POPC   C32 4812   0.930   3.724  10.322  0.0846  0.5405  0.4904
   36POPC   H2X 4813   0.961   3.618  10.312  0.3127  0.7130 -0.7373
   36POPC   H2Y 4814   1.001   3.790  10.377  1.0231 -0.6362  0.7408
   36POPC   C23 4815   0.747   4.168  10.206 -0.1162 -0.2440 -0.6047
   36POPC   H3R 4816   0.826   4.090  10.212  0.2615 -0.0718 -2.8110
   36POPC   H3S 4817   0.781   4.263  10.161 -0.0363  0.1430  0.2424
   36POPC   C24 4818   0.630   4.108  10.123 -0.2240  0.5107 -0.3181
   36POPC   H4R 4819   0.547   4.183  10.128 -0.7213 -0.0982  0.9111
   36POPC   H4S 4820   0.593   4.014  10.168 -2.5568  0.8753 -1.2850
   36POPC   C25 4821   0.679   4.087   9.979 -0.2931  0.2711  1.1144
   36POPC   H5R 4822   0.616   4.017   9.920 -1.0129 -0.8358  3.1059
   36POPC   H5S 4823   0.780   4.041   9.984  0.7853  2.5953  3.0254
   36POPC   C26 4824   0.677   4.214   9.898 -0.6008  0.0057 -0.3480
   36POPC   H6R 4825   0.757   4.279   9.938 -0.5797  0.7670 -1.5764
   36POPC   H6S 4826   0.583   4.271   9.910 -2.0046 -2.4926  1.6880
   36POPC   C27 4827   0.706   4.200   9.748  1.0053 -0.5168  0.0702
   36POPC   H7R 4828   0.620   4.138   9.715 -0.0107  2.0253 -2.5076
   36POPC   H7S 4829   0.798   4.143   9.726 -0.0437 -0.9610 -3.8903
   36POPC   C28 4830   0.709   4.331   9.668 -1.0882 -0.0119  0.0732
   36POPC   H8R 4831   0.617   4.385   9.698 -1.0539  1.6204 -2.4385
   36POPC   H8S 4832   0.703   4.312   9.559  1.1686 -1.2533  0.1051
   36POPC   C29 4833   0.827   4.424   9.704 -0.2197 -0.3439  0.0194
   36POPC   H91 4834   0.817   4.479   9.799 -2.3279  1.1854 -0.9985
   36POPC  C210 4835   0.931   4.447   9.622 -0.3369 -0.0472  0.6711
   36POPC  H101 4836   0.998   4.527   9.658 -0.0567 -0.5562  1.3081
   36POPC  C211 4837   0.948   4.387   9.482  0.6885 -0.0313 -0.1769
   36POPC  H11R 4838   0.861   4.326   9.451  0.0748  0.7286  0.0254
   36POPC  H11S 4839   1.039   4.326   9.463  0.1861 -0.5930 -0.8122
   36POPC  C212 4840   0.946   4.511   9.380  0.3343 -0.8186  0.1275
   36POPC  H12R 4841   0.991   4.470   9.287  2.3199 -0.4811  0.9014
   36POPC  H12S 4842   1.013   4.596   9.404  0.2302 -0.4703 -0.7555
   36POPC  C213 4843   0.807   4.577   9.361  0.0124 -0.5661  0.3342
   36POPC  H13R 4844   0.784   4.636   9.453 -1.0386  1.1690 -0.9545
   36POPC  H13S 4845   0.719   4.509   9.351 -0.2981 -0.5836  2.5890
   36POPC  C214 4846   0.797   4.669   9.237  0.0716 -0.0742  0.1567
   36POPC  H14R 4847   0.897   4.713   9.212  0.4411 -0.2464  1.2872
   36POPC  H14S 4848   0.721   4.749   9.252 -0.8431 -1.0202  0.6282
   36POPC  C215 4849   0.749   4.589   9.111 -0.7512 -0.1330  0.1126
   36POPC  H15R 4850   0.665   4.524   9.143 -0.0198 -1.3737 -0.4186
   36POPC  H15S 4851   0.826   4.513   9.086 -1.6321 -0.6143 -1.2514
   36POPC  C216 4852   0.726   4.676   8.994 -0.3317 -0.6268 -0.4117
   36POPC  H16R 4853   0.778   4.773   9.011 -1.6750 -0.0551  0.6600
   36POPC  H16S 4854   0.619   4.704   8.997 -0.4738 -1.2191  1.8775
   36POPC  C217 4855   0.774   4.621   8.857 -0.6647  0.1248  0.6701
   36POPC  H17R 4856   0.717   4.529   8.832 -0.6826  0.3067  0.0219
   36POPC  H17S 4857   0.881   4.595   8.872 -0.8864 -0.0828  1.9837
   36POPC  C218 4858   0.761   4.714   8.737 -0.0054  0.2645 -0.5452
   36POPC  H18R 4859   0.654   4.745   8.740  0.0393  0.3835  2.0427
   36POPC  H18S 4860   0.787   4.667   8.639  1.4068 -1.7299  0.7289
   36POPC  H18T 4861   0.831   4.798   8.754  0.4031 -0.4094  1.2044
   36POPC   C33 4862   0.914   3.796  10.188 -0.2036  0.8294  0.5061
   36POPC   H3X 4863   1.015   3.838  10.170  0.6675 -2.0752 -2.5012
   36POPC   H3Y 4864   0.839   3.876  10.203 -2.2009 -0.5721 -1.2703
   36POPC   C34 4865   0.866   3.700  10.076  0.3906  0.1793  0.0304
   36POPC   H4X 4866   0.760   3.670  10.085  0.5779 -0.1191  1.5731
   36POPC   H4Y 4867   0.926   3.608  10.095  1.6970  0.7697 -1.0434
   36POPC   C35 4868   0.904   3.742   9.933  0.3915  0.4472 -0.4208
   36POPC   H5X 4869   1.014   3.758   9.930  0.6811 -1.0859  0.7694
   36POPC   H5Y 4870   0.859   3.838   9.898 -0.5143  0.5165  0.8838
   36POPC   C36 4871   0.868   3.633   9.828  0.2582 -0.1571 -0.1964
   36POPC   H6X 4872   0.765   3.599   9.851 -0.2990  2.3954  1.4031
   36POPC   H6Y 4873   0.934   3.545   9.845 -1.0009 -0.7938  1.7539
   36POPC   C37 4874   0.884   3.672   9.682 -0.1955 -0.2468 -0.1885
   36POPC   H7X 4875   0.851   3.581   9.628  0.7433 -0.0799 -1.0780
   36POPC   H7Y 4876   0.991   3.692   9.659 -0.6129  0.0238 -2.0860
   36POPC   C38 4877   0.787   3.785   9.634  0.9511 -0.8625 -0.3485
   36POPC   H8X 4878   0.813   3.877   9.691 -3.1471  1.8641 -2.4428
   36POPC   H8Y 4879   0.684   3.758   9.664  1.6408 -0.1431  3.1127
   36POPC   C39 4880   0.801   3.821   9.476  0.1193 -0.3244 -0.0519
   36POPC   H9X 4881   0.742   3.744   9.422  0.9719 -2.6540  2.1401
   36POPC   H9Y 4882   0.907   3.806   9.445  0.1838 -2.7172  1.0990
   36POPC  C310 4883   0.743   3.953   9.430  0.3451  0.2152  0.0631
   36POPC  H10X 4884   0.781   4.034   9.496 -0.7409  1.2191 -0.5001
   36POPC  H10Y 4885   0.633   3.948   9.444  0.1382  0.2381 -1.3629
   36POPC  C311 4886   0.760   3.984   9.280 -0.0881  0.2462  0.4177
   36POPC  H11X 4887   0.711   4.081   9.255  1.5558  0.7960 -0.8404
   36POPC  H11Y 4888   0.708   3.915   9.211  0.7700  1.3004 -1.3612
   36POPC  C312 4889   0.907   4.001   9.229 -0.6267  0.3556 -0.0490
   36POPC  H12X 4890   0.945   3.897   9.224 -0.8858  0.0501  2.6331
   36POPC  H12Y 4891   0.970   4.061   9.297 -0.0649  2.2924 -2.1458
   36POPC  C313 4892   0.915   4.049   9.088  0.6662 -0.3638  0.2353
   36POPC  H13X 4893   0.825   4.002   9.043 -1.4206  2.9572  0.5609
   36POPC  H13Y 4894   1.009   4.008   9.045  0.3516 -0.1151 -0.7087
   36POPC  C314 4895   0.912   4.202   9.070  0.4386  0.5621 -0.5163
   36POPC  H14X 4896   0.998   4.257   9.115 -2.2879  1.9103  3.5445
   36POPC  H14Y 4897   0.831   4.245   9.132  1.1682  3.8752 -1.6442
   36POPC  C315 4898   0.880   4.256   8.927 -0.3114  0.6924  0.4894
   36POPC  H15X 4899   0.919   4.361   8.924  1.3080  0.1109 -0.0705
   36POPC  H15Y 4900   0.774   4.261   8.895  0.5517  0.4706 -2.8209
   36POPC  C316 4901   0.965   4.178   8.824  0.2857 -0.2981  0.3403
   36POPC  H16X 4902   0.942   4.070   8.817  1.1972 -0.4657 -0.2400
   36POPC  H16Y 4903   1.073   4.182   8.849  0.9442  0.7943 -2.3730
   36POPC  H16Z 4904   0.950   4.221   8.723 -1.1693 -2.0464 -0.2433
   37POPC     N 4905   6.401   0.552   6.021  0.6577  0.9127  0.0570
   37POPC   C12 4906   6.276   0.459   6.009 -0.4816  0.0188 -0.1798
   37POPC  H12A 4907   6.245   0.441   5.907  1.6326 -0.3036 -0.8078
   37POPC  H12B 4908   6.195   0.513   6.055  0.3124  1.9998 -1.0114
   37POPC   C13 4909   6.429   0.584   6.165 -0.0106 -0.0533  1.1858
   37POPC  H13A 4910   6.362   0.656   6.207 -0.2947 -1.1554  2.6882
   37POPC  H13B 4911   6.421   0.504   6.237 -0.4499  0.4188  1.6698
   37POPC  H13C 4912   6.529   0.625   6.173 -0.7452  1.5482  2.6988
   37POPC   C14 4913   6.516   0.485   5.955  0.4233 -0.2135  0.0124
   37POPC  H14A 4914   6.492   0.474   5.851  0.1752 -0.4025  0.0883
   37POPC  H14B 4915   6.607   0.543   5.962  0.1965 -0.0408  2.4960
   37POPC  H14C 4916   6.529   0.387   5.998 -1.1280 -0.9711 -1.1560
   37POPC   C15 4917   6.363   0.674   5.950  0.6214  0.5615  0.0541
   37POPC  H15A 4918   6.359   0.652   5.844  1.8808 -1.7115  0.4048
   37POPC  H15B 4919   6.443   0.746   5.951  0.9398  0.2478 -1.0756
   37POPC  H15C 4920   6.270   0.714   5.986  0.4712 -0.4117  0.7859
   37POPC   C11 4921   6.292   0.323   6.085  0.2861 -0.1891  0.2139
   37POPC  H11A 4922   6.390   0.274   6.065 -0.5687 -2.7426  1.6989
   37POPC  H11B 4923   6.218   0.250   6.047  0.1492  0.0574  0.0132
   37POPC     P 4924   6.139   0.375   6.295 -0.0719  0.4623  0.2511
   37POPC   O13 4925   6.044   0.270   6.245  0.0711 -0.2593  0.0872
   37POPC   O14 4926   6.110   0.513   6.257 -0.2451  0.3227  0.1944
   37POPC   O12 4927   6.283   0.347   6.227 -0.2485  0.2179 -0.5879
   37POPC   O11 4928   6.159   0.367   6.450 -0.0029  0.7199 -0.5166
   37POPC    C1 4929   6.188   0.233   6.497  0.0109 -0.3029 -0.2052
   37POPC    HA 4930   6.284   0.199   6.453  1.5447  1.3246  1.6848
   37POPC    HB 4931   6.110   0.159   6.467 -1.9515  1.7970 -0.5814
   37POPC    C2 4932   6.200   0.230   6.652 -0.0119  0.3728  0.4904
   37POPC    HS 4933   6.101   0.264   6.688 -1.2673 -2.4708  0.0483
   37POPC   O21 4934   6.310   0.307   6.698  0.0039 -0.2043  0.7559
   37POPC   C21 4935   6.287   0.426   6.715 -0.0954 -0.4338 -0.0739
   37POPC   O22 4936   6.180   0.483   6.711  0.1126 -0.3715  0.3997
   37POPC   C22 4937   6.417   0.499   6.750 -0.4488  0.2259  0.6181
   37POPC   H2R 4938   6.471   0.504   6.652  0.6138  1.2907  1.2328
   37POPC   H2S 4939   6.468   0.442   6.830 -1.6433 -0.7614  0.7029
   37POPC    C3 4940   6.217   0.081   6.713  0.2523 -0.5707 -0.1347
   37POPC    HX 4941   6.312   0.042   6.672  0.3901  0.3371 -0.7050
   37POPC    HY 4942   6.134   0.016   6.678 -0.4264 -0.5278  1.2958
   37POPC   O31 4943   6.228   0.083   6.863 -0.1815 -0.2564  0.0546
   37POPC   C31 4944   6.109   0.100   6.923  0.4313  0.1015 -0.3859
   37POPC   O32 4945   6.004   0.119   6.870  0.1879 -0.7323  0.0419
   37POPC   C32 4946   6.125   0.077   7.072  0.2604 -0.0860 -0.5932
   37POPC   H2X 4947   6.142   0.181   7.107  0.8676  0.9237 -3.5617
   37POPC   H2Y 4948   6.212   0.013   7.097 -0.7064 -0.4530  2.1914
   37POPC   C23 4949   6.386   0.647   6.799  0.5919  0.5338 -0.0631
   37POPC   H3R 4950   6.316   0.634   6.884 -1.2345 -0.2437 -1.6027
   37POPC   H3S 4951   6.338   0.703   6.715  1.0282  1.0142  0.0023
   37POPC   C24 4952   6.509   0.726   6.842  0.4185 -0.3257  0.5261
   37POPC   H4R 4953   6.482   0.832   6.859 -1.8608 -0.6628 -0.5518
   37POPC   H4S 4954   6.579   0.724   6.756 -0.3203  0.4093 -0.0961
   37POPC   C25 4955   6.578   0.675   6.970 -0.2405  0.5550  0.4271
   37POPC   H5R 4956   6.648   0.752   7.007  1.5252  0.1440 -1.8566
   37POPC   H5S 4957   6.625   0.581   6.936 -0.6833  0.9261 -1.3076
   37POPC   C26 4958   6.480   0.640   7.085  0.8135  0.2647 -0.6266
   37POPC   H6R 4959   6.419   0.553   7.052  0.9237 -0.1992  0.3500
   37POPC   H6S 4960   6.412   0.726   7.104  1.2967  0.2095  1.7073
   37POPC   C27 4961   6.548   0.589   7.214  0.4870  0.0764  0.3049
   37POPC   H7R 4962   6.596   0.676   7.264 -0.5396  1.3217 -0.8200
   37POPC   H7S 4963   6.625   0.520   7.172 -1.4328 -1.4114 -0.9135
   37POPC   C28 4964   6.460   0.517   7.320  0.6082 -0.7383  0.1089
   37POPC   H8R 4965   6.366   0.576   7.334  1.1990  0.2929 -0.1323
   37POPC   H8S 4966   6.515   0.527   7.416 -1.1567  1.0794  1.0094
   37POPC   C29 4967   6.439   0.373   7.283  0.4125  0.1436  0.0193
   37POPC   H91 4968   6.411   0.350   7.179 -1.1319  0.2417  0.3861
   37POPC  C210 4969   6.435   0.280   7.379 -0.1038  0.7096 -0.0518
   37POPC  H101 4970   6.408   0.177   7.354 -0.0546  0.8030 -0.4861
   37POPC  C211 4971   6.464   0.304   7.531 -0.3268  0.2308 -0.0056
   37POPC  H11R 4972   6.427   0.401   7.570 -0.7166  0.8791 -1.8785
   37POPC  H11S 4973   6.572   0.308   7.558 -0.0477  1.0491 -1.1269
   37POPC  C212 4974   6.400   0.193   7.622 -0.0708 -0.9162 -0.4599
   37POPC  H12R 4975   6.448   0.099   7.588  0.9477 -0.1856 -1.0971
   37POPC  H12S 4976   6.290   0.202   7.607 -0.1117 -1.5052 -0.5307
   37POPC  C213 4977   6.440   0.210   7.770  0.5311 -0.1830 -0.2240
   37POPC  H13R 4978   6.418   0.316   7.796 -1.4883 -0.6633  0.1958
   37POPC  H13S 4979   6.550   0.200   7.783  0.3748 -2.0902 -0.1778
   37POPC  C214 4980   6.385   0.106   7.860  0.1686 -0.0552 -0.0532
   37POPC  H14R 4981   6.404   0.013   7.802  1.7149  0.4211 -0.3554
   37POPC  H14S 4982   6.277   0.128   7.846  0.3050  0.4669 -0.3266
   37POPC  C215 4983   6.428   0.101   8.006 -0.1348  0.5829  1.0436
   37POPC  H15R 4984   6.331   0.087   8.058 -2.2402  0.6685 -2.5642
   37POPC  H15S 4985   6.475   0.198   8.033  0.5007 -0.3463  3.5266
   37POPC  C216 4986   6.523  -0.018   8.031 -0.1000  0.1360  0.9456
   37POPC  H16R 4987   6.617   0.002   7.975 -0.6949  0.3524 -0.0094
   37POPC  H16S 4988   6.483  -0.119   8.010 -0.0312 -0.0329  1.6217
   37POPC  C217 4989   6.552  -0.022   8.179  0.1248  0.2005  0.4680
   37POPC  H17R 4990   6.473  -0.003   8.254 -0.8812  0.9525 -0.7505
   37POPC  H17S 4991   6.623   0.061   8.200 -0.4200  0.2521  2.2194
   37POPC  C218 4992   6.627  -0.147   8.224  0.0614 -0.1658  0.1476
   37POPC  H18R 4993   6.712  -0.153   8.153  0.6965 -0.4248  0.9049
   37POPC  H18S 4994   6.563  -0.238   8.228 -1.7986  1.1061  0.9166
   37POPC  H18T 4995   6.670  -0.135   8.326  0.0723  2.2853 -0.0922
   37POPC   C33 4996   6.003   0.021   7.137 -0.1692  0.5195  0.0926
   37POPC   H3X 4997   5.992  -0.084   7.102 -0.0469 -0.2630  2.2491
   37POPC   H3Y 4998   5.910   0.072   7.105 -0.6762  0.1217  0.8862
   37POPC   C34 4999   6.005   0.027   7.291 -0.9028  0.1487  0.0196
   37POPC   H4X 5000   5.916  -0.017   7.341  0.0225 -2.6086 -0.5726
   37POPC   H4Y 5001   6.025   0.130   7.330  1.5048 -0.6171  1.0096
   37POPC   C35 5002   6.116  -0.060   7.344 -1.2314  0.1692 -0.7241
   37POPC   H5X 5003   6.216  -0.027   7.308 -0.7241 -1.2502 -0.6990
   37POPC   H5Y 5004   6.110  -0.169   7.322  1.3629 -0.3100  0.5357
   37POPC   C36 5005   6.108  -0.050   7.501 -0.1234 -0.1702 -0.4668
   37POPC   H6X 5006   6.073   0.051   7.531 -3.4966 -0.5871 -2.5134
   37POPC   H6Y 5007   6.214  -0.064   7.531  0.1291  0.8611 -0.8443
   37POPC   C37 5008   6.029  -0.162   7.565 -0.1461  0.7470  0.4083
   37POPC   H7X 5009   5.949  -0.188   7.493 -1.2767 -1.0127  2.1950
   37POPC   H7Y 5010   5.987  -0.132   7.664  0.4471 -0.9044  1.1946
   37POPC   C38 5011   6.120  -0.287   7.581  0.1239  0.0883  0.6506
   37POPC   H8X 5012   6.230  -0.273   7.572  0.2551 -1.5912 -0.8139
   37POPC   H8Y 5013   6.094  -0.357   7.499  0.7360 -0.6424  1.0645
   37POPC   C39 5014   6.106  -0.362   7.712  0.1954  0.5874  0.2393
   37POPC   H9X 5015   6.172  -0.451   7.700 -0.3938  0.2270 -0.3539
   37POPC   H9Y 5016   6.010  -0.418   7.714  0.7573 -0.3981  0.5241
   37POPC  C310 5017   6.131  -0.289   7.844  0.3990  0.2015  0.0933
   37POPC  H10X 5018   6.027  -0.265   7.876 -0.1140 -0.8875 -0.6683
   37POPC  H10Y 5019   6.188  -0.194   7.831  1.0576  0.2648  2.8219
   37POPC  C311 5020   6.209  -0.366   7.947  0.2339  0.2865 -0.0101
   37POPC  H11X 5021   6.311  -0.369   7.905 -0.2329 -1.6605 -1.1101
   37POPC  H11Y 5022   6.177  -0.472   7.955  1.2055  0.0442  0.7930
   37POPC  C312 5023   6.227  -0.307   8.085  0.4775 -0.2640 -0.9608
   37POPC  H12X 5024   6.241  -0.197   8.078  1.3796 -0.3973 -1.4291
   37POPC  H12Y 5025   6.317  -0.343   8.140 -1.2738 -1.0637  1.5959
   37POPC  C313 5026   6.109  -0.340   8.170 -0.1669  0.5529 -0.0439
   37POPC  H13X 5027   6.022  -0.337   8.100  0.9836 -1.2826 -1.6710
   37POPC  H13Y 5028   6.087  -0.270   8.253 -0.7931 -0.6027  0.7964
   37POPC  C314 5029   6.102  -0.483   8.224  0.5758 -0.2215  0.3677
   37POPC  H14X 5030   6.199  -0.501   8.275  0.4816 -2.3393 -0.0887
   37POPC  H14Y 5031   6.092  -0.541   8.130 -1.2884  0.4958  0.0825
   37POPC  C315 5032   5.993  -0.505   8.332 -0.3570 -0.2955 -0.0147
   37POPC  H15X 5033   6.029  -0.435   8.410  2.5607 -0.5337 -1.0267
   37POPC  H15Y 5034   6.007  -0.610   8.365 -0.2246 -0.9623 -2.0477
   37POPC  C316 5035   5.851  -0.487   8.280 -0.1641  0.3178 -0.2339
   37POPC  H16X 5036   5.838  -0.388   8.231  1.4586  1.6115  1.7862
   37POPC  H16Y 5037   5.768  -0.509   8.351 -0.4396 -2.4628 -1.2693
   37POPC  H16Z 5038   5.831  -0.566   8.204  0.4955  1.0327 -1.1741
   38POPC     N 5039   1.130   3.327   5.748 -0.0484  0.3522 -0.4083
   38POPC   C12 5040   1.131   3.435   5.853 -0.1517 -0.0979  0.5759
   38POPC  H12A 5041   1.186   3.519   5.815 -0.1055 -0.7096 -0.7446
   38POPC  H12B 5042   1.190   3.398   5.936  0.8904 -0.1837 -0.1979
   38POPC   C13 5043   1.266   3.315   5.691 -0.2094  0.4913 -1.2539
   38POPC  H13A 5044   1.300   3.406   5.644  1.0857  0.9807  0.5264
   38POPC  H13B 5045   1.334   3.288   5.771  1.1629 -1.4324 -2.9572
   38POPC  H13C 5046   1.262   3.231   5.622 -0.9199 -0.9655  0.4808
   38POPC   C14 5047   1.075   3.193   5.794 -0.1646 -1.1356 -0.2868
   38POPC  H14A 5048   1.138   3.141   5.864 -2.6831 -2.3709  1.2281
   38POPC  H14B 5049   0.972   3.209   5.823 -0.2921 -2.8923  0.2949
   38POPC  H14C 5050   1.065   3.126   5.710  0.0453  0.8390 -1.9846
   38POPC   C15 5051   1.046   3.364   5.634 -0.0268  0.4823  0.0270
   38POPC  H15A 5052   1.064   3.304   5.546 -0.9211 -0.1098  0.2474
   38POPC  H15B 5053   1.061   3.466   5.600  0.6906  0.1116 -0.8025
   38POPC  H15C 5054   0.942   3.359   5.661  0.1506 -0.7783  0.5413
   38POPC   C11 5055   0.991   3.495   5.889 -0.2020  0.0022  0.1668
   38POPC  H11A 5056   0.944   3.542   5.800 -1.2482  0.6811  1.0483
   38POPC  H11B 5057   1.010   3.584   5.953  0.0860  0.3984 -0.4531
   38POPC     P 5058   0.891   3.370   6.089  0.3744  0.5246  0.2985
   38POPC   O13 5059   0.837   3.238   6.109  0.8920 -0.5495 -0.4633
   38POPC   O14 5060   0.817   3.483   6.155  0.0280  0.1555 -0.2096
   38POPC   O12 5061   0.894   3.402   5.936 -0.2113  0.2094  0.3002
   38POPC   O11 5062   1.041   3.376   6.127  0.2925  0.3530  0.0800
   38POPC    C1 5063   1.094   3.461   6.234 -0.8684  0.2153 -0.6292
   38POPC    HA 5064   1.017   3.519   6.289 -2.3910  0.6104 -3.0196
   38POPC    HB 5065   1.162   3.535   6.188  1.7627 -2.7597 -1.9308
   38POPC    C2 5066   1.182   3.380   6.330  0.4655 -0.1122 -0.7892
   38POPC    HS 5067   1.268   3.341   6.272 -0.8300 -2.2211 -1.4491
   38POPC   O21 5068   1.110   3.269   6.385 -0.3570 -0.6105 -0.2140
   38POPC   C21 5069   1.193   3.174   6.443  0.2626 -0.1163  0.0804
   38POPC   O22 5070   1.314   3.182   6.458  0.2500 -0.4157  0.2459
   38POPC   C22 5071   1.105   3.071   6.512 -0.0230 -0.2658 -0.3026
   38POPC   H2R 5072   1.061   3.003   6.436  0.4629 -0.8035 -0.1118
   38POPC   H2S 5073   1.026   3.138   6.553  1.3556  1.5777 -0.5369
   38POPC    C3 5074   1.223   3.480   6.443 -0.3048  0.1711 -0.5976
   38POPC    HX 5075   1.275   3.569   6.402  0.3079 -0.1769 -0.5918
   38POPC    HY 5076   1.298   3.422   6.500 -1.7657  0.3056  1.5768
   38POPC   O31 5077   1.112   3.535   6.529 -0.1497 -0.3045  0.7609
   38POPC   C31 5078   1.094   3.474   6.645 -0.2438 -0.4076  0.3130
   38POPC   O32 5079   1.162   3.384   6.690  0.4335  0.2122 -0.3983
   38POPC   C32 5080   0.970   3.531   6.720 -0.3396  0.0539  0.7838
   38POPC   H2X 5081   0.888   3.458   6.707 -0.3108  0.0554  0.5954
   38POPC   H2Y 5082   0.945   3.630   6.677  2.1676  0.4895  0.1742
   38POPC   C23 5083   1.172   3.003   6.628  0.4752 -0.4398  0.2057
   38POPC   H3R 5084   1.239   3.075   6.680  2.1549  0.3569 -2.7864
   38POPC   H3S 5085   1.230   2.912   6.598  0.8123 -0.7120  1.6133
   38POPC   C24 5086   1.072   2.958   6.735  0.4398  0.1691  0.1806
   38POPC   H4R 5087   1.130   2.908   6.815  0.2525  0.0089  0.2174
   38POPC   H4S 5088   1.008   2.881   6.686  4.0995 -0.4492 -4.2894
   38POPC   C25 5089   0.988   3.072   6.793 -0.4245 -0.4522 -0.0604
   38POPC   H5R 5090   0.900   3.092   6.727  0.3039 -1.9531 -1.5752
   38POPC   H5S 5091   1.057   3.159   6.792  0.6458 -1.0898 -4.3855
   38POPC   C26 5092   0.940   3.044   6.930  0.5178 -0.3019 -0.6680
   38POPC   H6R 5093   1.032   3.046   6.993  0.9380  0.6308 -1.3013
   38POPC   H6S 5094   0.902   2.940   6.920  0.0731 -0.0918 -1.2124
   38POPC   C27 5095   0.831   3.141   6.983 -0.5871  0.0276 -0.1068
   38POPC   H7R 5096   0.732   3.122   6.937 -1.8707 -0.3140  2.6032
   38POPC   H7S 5097   0.850   3.250   6.972  0.2943  0.3587  3.5121
   38POPC   C28 5098   0.806   3.115   7.134 -0.0042 -0.3301 -0.1350
   38POPC   H8R 5099   0.722   3.178   7.171  0.7137  0.5917 -0.0587
   38POPC   H8S 5100   0.896   3.153   7.188 -0.9788 -0.3866  1.6223
   38POPC   C29 5101   0.764   2.970   7.175 -0.4384  0.0737 -0.3125
   38POPC   H91 5102   0.759   2.900   7.091  0.9231  0.2176 -0.5432
   38POPC  C210 5103   0.756   2.924   7.300  0.4161  0.3391 -0.0970
   38POPC  H101 5104   0.730   2.817   7.308  1.1320  0.1906  0.3603
   38POPC  C211 5105   0.775   3.004   7.428  0.7630 -0.6913 -0.2547
   38POPC  H11R 5106   0.696   2.972   7.500  1.3117  1.5402  1.4557
   38POPC  H11S 5107   0.737   3.106   7.405 -2.1851 -1.9469 -1.4078
   38POPC  C212 5108   0.906   3.008   7.511  0.3194 -0.4162 -0.4844
   38POPC  H12R 5109   0.905   3.092   7.583  2.0683  0.4517 -1.4141
   38POPC  H12S 5110   0.997   3.016   7.448  1.3677  0.5071  1.0851
   38POPC  C213 5111   0.914   2.883   7.593 -1.0318  0.2968  0.3520
   38POPC  H13R 5112   0.904   2.793   7.529  0.7396 -0.0954  0.5894
   38POPC  H13S 5113   0.828   2.879   7.663 -2.3933 -0.7402 -1.2952
   38POPC  C214 5114   1.043   2.869   7.677 -0.9308 -0.1134 -0.5636
   38POPC  H14R 5115   1.052   2.957   7.744  2.1734 -0.5227 -0.3086
   38POPC  H14S 5116   1.128   2.904   7.614 -0.2335 -1.0212 -0.1382
   38POPC  C215 5117   1.071   2.745   7.761 -0.3241  0.1701  0.2833
   38POPC  H15R 5118   1.066   2.658   7.692 -1.8643  0.5962 -0.1767
   38POPC  H15S 5119   0.995   2.714   7.835  0.1633 -2.7895 -0.3020
   38POPC  C216 5120   1.206   2.755   7.840 -0.5033  0.1470  0.5141
   38POPC  H16R 5121   1.198   2.816   7.933 -2.1795  0.1600  0.3788
   38POPC  H16S 5122   1.287   2.802   7.780 -1.6757  2.6802  0.8072
   38POPC  C217 5123   1.256   2.611   7.854  0.3687 -0.8695  0.3958
   38POPC  H17R 5124   1.247   2.558   7.757  0.6729 -0.2331  0.0118
   38POPC  H17S 5125   1.192   2.560   7.930  1.1999  1.4434  2.8185
   38POPC  C218 5126   1.392   2.595   7.905  0.1163  0.1842  0.1747
   38POPC  H18R 5127   1.415   2.690   7.958 -1.7339  0.8149 -0.0951
   38POPC  H18S 5128   1.462   2.597   7.818  0.8635 -2.3598  0.6269
   38POPC  H18T 5129   1.421   2.504   7.961 -0.6564  0.7922  1.6194
   38POPC   C33 5130   0.998   3.537   6.877 -0.3764  0.0176  0.6308
   38POPC   H3X 5131   1.048   3.631   6.908  0.1199  0.1399 -0.4745
   38POPC   H3Y 5132   1.073   3.461   6.907  0.6057  0.7116 -0.0098
   38POPC   C34 5133   0.867   3.528   6.964  0.5871 -0.4337 -0.0083
   38POPC   H4X 5134   0.797   3.447   6.936  1.2343 -1.7263  1.9016
   38POPC   H4Y 5135   0.814   3.621   6.935 -0.9339 -1.8562 -2.1193
   38POPC   C35 5136   0.892   3.523   7.114 -0.3839 -0.5306 -0.1550
   38POPC   H5X 5137   0.962   3.605   7.142 -3.1899  1.7248  0.7691
   38POPC   H5Y 5138   0.928   3.421   7.139 -2.2563 -1.8373 -2.3516
   38POPC   C36 5139   0.760   3.550   7.194  0.5864 -0.1233  0.1119
   38POPC   H6X 5140   0.692   3.464   7.174  2.5483 -2.0632  1.3597
   38POPC   H6Y 5141   0.721   3.648   7.157  0.8529  0.0286  0.2305
   38POPC   C37 5142   0.785   3.571   7.348 -0.2674 -0.3062 -0.2050
   38POPC   H7X 5143   0.853   3.656   7.371 -1.0280  0.7836 -1.7802
   38POPC   H7Y 5144   0.826   3.474   7.384 -3.1003 -1.7104 -0.4862
   38POPC   C38 5145   0.659   3.601   7.420 -0.0088 -0.7357  0.0700
   38POPC   H8X 5146   0.579   3.528   7.398 -0.9924  0.6649 -1.2062
   38POPC   H8Y 5147   0.633   3.694   7.366  1.9895 -0.6885 -0.9140
   38POPC   C39 5148   0.677   3.622   7.571  0.4354 -0.4727  0.1859
   38POPC   H9X 5149   0.752   3.701   7.591 -0.4856 -0.2604  3.5752
   38POPC   H9Y 5150   0.718   3.528   7.614  1.0621 -0.8846 -1.2768
   38POPC  C310 5151   0.545   3.653   7.640  0.2023  0.1005 -0.1539
   38POPC  H10X 5152   0.465   3.579   7.620  0.6989 -0.7021  0.7426
   38POPC  H10Y 5153   0.511   3.752   7.603 -0.3786 -0.4422 -1.0838
   38POPC  C311 5154   0.562   3.666   7.794 -0.2022 -0.2430  0.4385
   38POPC  H11X 5155   0.462   3.690   7.836 -0.8180 -0.0211 -1.0985
   38POPC  H11Y 5156   0.636   3.746   7.817 -0.4882 -0.0153  0.5759
   38POPC  C312 5157   0.594   3.539   7.862 -0.7674 -0.3080  0.5725
   38POPC  H12X 5158   0.700   3.509   7.843 -0.7172 -0.0133  0.3851
   38POPC  H12Y 5159   0.547   3.458   7.803  1.1949 -0.0658 -1.4718
   38POPC  C313 5160   0.557   3.532   8.017 -0.5615 -0.6620 -0.7298
   38POPC  H13X 5161   0.466   3.594   8.028  0.3448  0.2640  2.5078
   38POPC  H13Y 5162   0.640   3.580   8.074 -2.3777 -0.1038  1.6104
   38POPC  C314 5163   0.541   3.386   8.064 -0.1764 -0.1801 -0.4049
   38POPC  H14X 5164   0.636   3.332   8.045  1.1858  1.9607 -0.0787
   38POPC  H14Y 5165   0.462   3.352   7.994 -3.4934  2.6767  1.6305
   38POPC  C315 5166   0.481   3.374   8.205  0.8198 -0.4772  0.1059
   38POPC  H15X 5167   0.394   3.443   8.208  0.9521 -0.2102 -1.2188
   38POPC  H15Y 5168   0.558   3.405   8.278  0.2508 -0.8525  0.8738
   38POPC  C316 5169   0.439   3.234   8.241  0.0981  0.0040 -0.9288
   38POPC  H16X 5170   0.516   3.155   8.230  1.7147  1.3133  0.4912
   38POPC  H16Y 5171   0.356   3.203   8.173  0.0146 -0.4078 -0.6437
   38POPC  H16Z 5172   0.410   3.232   8.348  0.0688 -2.5837 -0.9195
   39POPC     N 5173   3.294   0.033   5.558  0.0704 -0.1165  0.2327
   39POPC   C12 5174   3.150   0.085   5.559 -0.4387  0.5135 -0.0528
   39POPC  H12A 5175   3.077   0.020   5.512 -1.6597  1.3491  0.6143
   39POPC  H12B 5176   3.152   0.164   5.487  1.3075 -1.3307 -2.1557
   39POPC   C13 5177   3.315  -0.061   5.671 -0.9844 -0.2975  0.3432
   39POPC  H13A 5178   3.281  -0.159   5.642  3.9015 -2.6421  1.6561
   39POPC  H13B 5179   3.421  -0.081   5.676 -1.4811 -3.6881 -0.4009
   39POPC  H13C 5180   3.273  -0.025   5.764 -0.3806 -1.4279  1.0678
   39POPC   C14 5181   3.320  -0.035   5.425  0.1463  0.3151 -0.2290
   39POPC  H14A 5182   3.423  -0.068   5.423 -0.6960 -2.9090  1.9043
   39POPC  H14B 5183   3.260  -0.121   5.401  0.0953  0.1683  0.4140
   39POPC  H14C 5184   3.296   0.036   5.347  1.5979  0.6871 -0.3553
   39POPC   C15 5185   3.393   0.142   5.581 -0.7922 -0.3950 -0.0968
   39POPC  H15A 5186   3.406   0.144   5.688 -2.4717 -0.9662  0.1459
   39POPC  H15B 5187   3.343   0.236   5.563 -0.7533 -0.3447  0.0566
   39POPC  H15C 5188   3.485   0.130   5.525 -0.8646  0.2100 -0.3513
   39POPC   C11 5189   3.091   0.123   5.692 -0.2158 -0.0577 -0.3442
   39POPC  H11A 5190   3.059   0.029   5.743 -1.9906  0.8666  0.3026
   39POPC  H11B 5191   2.998   0.180   5.670 -0.0382  0.0019 -0.9509
   39POPC     P 5192   3.200   0.173   5.921  0.2169 -0.1004  0.1619
   39POPC   O13 5193   3.308   0.074   5.956  0.0460 -0.1451  0.0173
   39POPC   O14 5194   3.072   0.148   5.992 -0.5098 -0.4850  0.1133
   39POPC   O12 5195   3.184   0.196   5.766 -0.8383 -0.2683  0.7806
   39POPC   O11 5196   3.249   0.314   5.966 -0.7314  0.2833  0.4904
   39POPC    C1 5197   3.369   0.328   6.039 -0.1942  0.5142 -0.0816
   39POPC    HA 5198   3.429   0.404   5.984 -2.4775  1.5541 -1.2847
   39POPC    HB 5199   3.433   0.237   6.036 -1.5926 -0.6431  2.6347
   39POPC    C2 5200   3.318   0.379   6.169  1.0053  0.4779  0.3271
   39POPC    HS 5201   3.410   0.412   6.221  2.4875 -2.5026 -0.1783
   39POPC   O21 5202   3.256   0.269   6.244  0.0991  0.2210 -0.3823
   39POPC   C21 5203   3.337   0.184   6.291 -0.0568  1.1040  1.2031
   39POPC   O22 5204   3.459   0.190   6.293  0.2264  0.0934  0.8057
   39POPC   C22 5205   3.261   0.067   6.356 -0.0090  0.3829  0.2139
   39POPC   H2R 5206   3.214   0.003   6.278 -0.2092 -0.1455  0.7644
   39POPC   H2S 5207   3.180   0.105   6.422  0.7128  0.0624  1.2950
   39POPC    C3 5208   3.213   0.491   6.155  0.3351 -0.0557  0.5699
   39POPC    HX 5209   3.125   0.456   6.098  1.3860  1.0477 -1.9071
   39POPC    HY 5210   3.258   0.571   6.092 -0.7257  1.2758  1.4369
   39POPC   O31 5211   3.184   0.545   6.286 -0.0197 -0.0518  0.0115
   39POPC   C31 5212   3.270   0.624   6.340 -0.5377  0.3005 -0.0434
   39POPC   O32 5213   3.380   0.654   6.292  0.2100  1.0922 -0.1557
   39POPC   C32 5214   3.225   0.677   6.472  0.3425 -0.2320  0.2373
   39POPC   H2X 5215   3.237   0.787   6.461  0.4971 -0.3370 -0.7092
   39POPC   H2Y 5216   3.116   0.657   6.478  0.3642 -0.8103 -1.0612
   39POPC   C23 5217   3.359  -0.015   6.436 -0.1223  0.3606 -0.1095
   39POPC   H3R 5218   3.435   0.038   6.499 -2.5999  1.6808  1.9717
   39POPC   H3S 5219   3.417  -0.074   6.362  1.2331 -0.4491  1.5277
   39POPC   C24 5220   3.295  -0.105   6.545 -0.0710 -0.0418 -0.3082
   39POPC   H4R 5221   3.370  -0.185   6.564 -1.1920 -1.2395 -0.7008
   39POPC   H4S 5222   3.205  -0.149   6.495 -1.5548  1.3834  0.9959
   39POPC   C25 5223   3.263  -0.035   6.677  1.0937 -0.4720 -0.0182
   39POPC   H5R 5224   3.195   0.048   6.649  0.9592 -0.8745 -0.9306
   39POPC   H5S 5225   3.353   0.013   6.723 -0.0415 -0.2518  2.0986
   39POPC   C26 5226   3.202  -0.131   6.780 -0.2230 -0.7074  0.0989
   39POPC   H6R 5227   3.272  -0.175   6.854  0.6085 -0.0209 -0.2566
   39POPC   H6S 5228   3.159  -0.222   6.733  0.2489 -0.7963 -0.1675
   39POPC   C27 5229   3.091  -0.057   6.858 -0.0716  0.0043  0.3019
   39POPC   H7R 5230   3.005  -0.046   6.789 -0.0438 -0.4496  0.1924
   39POPC   H7S 5231   3.127   0.044   6.887  2.3201  0.0015 -2.2043
   39POPC   C28 5232   3.041  -0.144   6.981  0.0851 -0.4924 -0.6794
   39POPC   H8R 5233   3.128  -0.187   7.036 -1.1339 -2.0988  0.1019
   39POPC   H8S 5234   2.982  -0.229   6.941 -2.3577  0.6596  0.2756
   39POPC   C29 5235   2.961  -0.063   7.085  0.2288 -0.3002 -0.1203
   39POPC   H91 5236   2.851  -0.069   7.076  0.2291 -2.1902  0.5275
   39POPC  C210 5237   3.010  -0.024   7.205  0.3484 -0.0662 -0.0231
   39POPC  H101 5238   2.945   0.034   7.272  0.7123  0.8377 -0.4294
   39POPC  C211 5239   3.148  -0.039   7.262 -0.0376  0.5117 -0.4611
   39POPC  H11R 5240   3.170   0.041   7.336  1.1432  0.3935 -0.6616
   39POPC  H11S 5241   3.225  -0.043   7.183 -0.4879 -1.4100 -0.8569
   39POPC  C212 5242   3.174  -0.174   7.342 -0.0727  0.3535 -0.2379
   39POPC  H12R 5243   3.274  -0.173   7.391 -0.1930 -0.2669  0.0278
   39POPC  H12S 5244   3.170  -0.252   7.263  0.0700 -2.1367  2.0761
   39POPC  C213 5245   3.066  -0.217   7.436 -0.4138  0.1503  0.0539
   39POPC  H13R 5246   3.099  -0.315   7.476  1.0872 -0.1673 -1.8356
   39POPC  H13S 5247   2.968  -0.243   7.390 -0.0305  0.2129 -0.8298
   39POPC  C214 5248   3.036  -0.123   7.551 -0.7841 -0.2757  0.3637
   39POPC  H14R 5249   2.950  -0.164   7.608 -0.8307 -0.2374  0.3203
   39POPC  H14S 5250   3.006  -0.033   7.494 -0.5791 -2.2947 -3.1730
   39POPC  C215 5251   3.153  -0.101   7.648  0.2002  0.3021  0.2114
   39POPC  H15R 5252   3.123  -0.006   7.696 -0.6571 -0.2639  0.8254
   39POPC  H15S 5253   3.242  -0.074   7.587  0.1158 -0.5355 -0.3066
   39POPC  C216 5254   3.163  -0.211   7.748 -0.0996 -0.2953 -0.0979
   39POPC  H16R 5255   3.200  -0.303   7.699  0.6468  0.4681 -1.0198
   39POPC  H16S 5256   3.069  -0.237   7.801  1.5131 -0.2803  3.0626
   39POPC  C217 5257   3.276  -0.174   7.847  0.0468 -0.2274  0.1429
   39POPC  H17R 5258   3.371  -0.152   7.795  0.1146  1.6246  0.9855
   39POPC  H17S 5259   3.290  -0.268   7.904  2.5767 -1.0151 -1.6110
   39POPC  C218 5260   3.237  -0.069   7.950 -0.8216  0.1481  0.2262
   39POPC  H18R 5261   3.225   0.032   7.907  1.3567  0.5662  0.4691
   39POPC  H18S 5262   3.328  -0.075   8.014 -0.4544  0.9653 -0.2065
   39POPC  H18T 5263   3.151  -0.096   8.015 -0.5699 -1.1482  0.0477
   39POPC   C33 5264   3.317   0.624   6.588  0.5552 -0.0163  0.7825
   39POPC   H3X 5265   3.291   0.680   6.680 -1.9990  3.0664 -1.5769
   39POPC   H3Y 5266   3.424   0.651   6.569  1.0575 -1.0246  2.0554
   39POPC   C34 5267   3.295   0.475   6.604 -0.2326  0.3314 -0.1642
   39POPC   H4X 5268   3.338   0.417   6.519  0.6448 -1.7485  1.5824
   39POPC   H4Y 5269   3.187   0.452   6.621 -0.1758 -1.8809 -2.2282
   39POPC   C35 5270   3.356   0.410   6.732 -0.2097  0.4272 -0.6713
   39POPC   H5X 5271   3.451   0.461   6.760 -0.2275 -0.2118  0.6418
   39POPC   H5Y 5272   3.400   0.309   6.718 -1.6400 -0.6124  1.7000
   39POPC   C36 5273   3.259   0.396   6.848 -0.0402  0.6079  0.3608
   39POPC   H6X 5274   3.175   0.324   6.836 -0.3707  1.3752 -2.8442
   39POPC   H6Y 5275   3.212   0.495   6.869 -0.8132  0.6698 -1.4893
   39POPC   C37 5276   3.327   0.339   6.975  0.2212 -0.2680  0.5563
   39POPC   H7X 5277   3.425   0.391   6.986  0.0100 -0.2527  2.8464
   39POPC   H7Y 5278   3.346   0.231   6.959 -2.0831 -0.6675  0.1578
   39POPC   C38 5279   3.243   0.354   7.103  0.1792  0.0241 -0.8659
   39POPC   H8X 5280   3.145   0.302   7.096  0.1629  0.1887 -1.9086
   39POPC   H8Y 5281   3.209   0.459   7.119 -1.0960 -0.5123  0.1266
   39POPC   C39 5282   3.327   0.311   7.225  0.6444  0.0912  0.0596
   39POPC   H9X 5283   3.418   0.374   7.234  1.5638 -1.2570  0.3445
   39POPC   H9Y 5284   3.375   0.215   7.201  1.8187  0.6109  0.2651
   39POPC  C310 5285   3.258   0.307   7.363  0.2711  0.5910  0.5925
   39POPC  H10X 5286   3.168   0.243   7.372  1.7110 -1.4350  1.1796
   39POPC  H10Y 5287   3.216   0.407   7.384 -0.3519  0.3196  0.6417
   39POPC  C311 5288   3.351   0.256   7.476  0.2350  0.3570  0.4833
   39POPC  H11X 5289   3.459   0.266   7.450 -0.0632  0.0508 -0.9393
   39POPC  H11Y 5290   3.335   0.150   7.505 -0.8388  0.8838  1.9766
   39POPC  C312 5291   3.327   0.335   7.607  0.5514 -0.3834  0.8618
   39POPC  H12X 5292   3.218   0.350   7.623  0.5058  2.9563 -1.5301
   39POPC  H12Y 5293   3.373   0.436   7.601 -0.7073  0.1882  0.4881
   39POPC  C313 5294   3.380   0.255   7.726 -0.3428  0.2963 -0.0995
   39POPC  H13X 5295   3.490   0.271   7.727 -0.5156  1.6724 -1.0243
   39POPC  H13Y 5296   3.361   0.147   7.710  1.1229 -0.3423  1.9902
   39POPC  C314 5297   3.306   0.296   7.852 -0.4799 -0.8908 -0.2341
   39POPC  H14X 5298   3.201   0.261   7.843 -1.4547  1.0669  2.2813
   39POPC  H14Y 5299   3.310   0.406   7.868  0.1327 -1.1757  1.9107
   39POPC  C315 5300   3.388   0.241   7.977 -0.0717  0.0684  0.4281
   39POPC  H15X 5301   3.407   0.133   7.957 -1.2417 -0.0595 -0.1017
   39POPC  H15Y 5302   3.315   0.253   8.060  1.0809 -0.5094  1.5578
   39POPC  C316 5303   3.511   0.320   8.026 -0.0695  0.2771 -0.2701
   39POPC  H16X 5304   3.489   0.429   8.029 -1.7649 -0.0586  1.0756
   39POPC  H16Y 5305   3.606   0.311   7.970 -0.0417  0.7420 -0.2990
   39POPC  H16Z 5306   3.531   0.287   8.130  1.8079  2.6127  0.1806
   40POPC     N 5307   2.879   5.036   6.268  0.8050  0.6460 -0.5977
   40POPC   C12 5308   2.835   5.067   6.409  0.1066  0.6504 -0.1144
   40POPC  H12A 5309   2.922   5.093   6.467 -0.3510  2.0222 -0.0041
   40POPC  H12B 5310   2.798   4.981   6.461  2.2782  0.7740  1.7782
   40POPC   C13 5311   2.956   4.901   6.265  0.6237 -0.1416  0.3145
   40POPC  H13A 5312   2.994   4.879   6.167  3.0936  2.1556  0.6316
   40POPC  H13B 5313   3.053   4.908   6.311 -0.2814 -2.7613  2.9429
   40POPC  H13C 5314   2.892   4.819   6.296  1.0490 -0.9788 -0.9489
   40POPC   C14 5315   2.760   5.026   6.176 -0.6297 -0.8726  0.2220
   40POPC  H14A 5316   2.711   5.122   6.170  0.8887 -0.1169 -0.8154
   40POPC  H14B 5317   2.792   5.000   6.077  0.4426  0.7854  0.1008
   40POPC  H14C 5318   2.682   4.962   6.214 -1.8475  0.3105 -0.2103
   40POPC   C15 5319   2.962   5.144   6.209  0.2372  0.0096  0.4494
   40POPC  H15A 5320   3.046   5.157   6.275  1.5487 -0.1731 -1.1148
   40POPC  H15B 5321   2.905   5.234   6.191  0.3600 -0.2406 -1.3601
   40POPC  H15C 5322   3.007   5.102   6.120 -2.0671  0.6088 -1.0912
   40POPC   C11 5323   2.732   5.179   6.433  0.2189  0.5613  0.5836
   40POPC  H11A 5324   2.750   5.200   6.541  1.1158  0.1600  0.5220
   40POPC  H11B 5325   2.633   5.136   6.407  0.8239 -0.2961 -0.3718
   40POPC     P 5326   2.833   5.411   6.408 -0.0503 -0.5009 -0.2219
   40POPC   O13 5327   2.813   5.531   6.324  0.9761  0.7996  0.0261
   40POPC   O14 5328   2.971   5.366   6.432  0.0884  0.4828 -0.0427
   40POPC   O12 5329   2.754   5.291   6.349 -0.1444  0.4213  0.4710
   40POPC   O11 5330   2.764   5.434   6.551  0.4900 -0.2117  0.4030
   40POPC    C1 5331   2.668   5.544   6.571 -0.4398 -0.7755 -0.2846
   40POPC    HA 5332   2.577   5.523   6.511  0.8996 -1.2248 -2.2732
   40POPC    HB 5333   2.714   5.641   6.542  0.1942 -1.3990 -1.4709
   40POPC    C2 5334   2.615   5.555   6.713  0.2245 -0.5091  0.1394
   40POPC    HS 5335   2.538   5.634   6.721  2.0413  1.1660  3.5247
   40POPC   O21 5336   2.726   5.571   6.807  0.1343 -0.0635  0.4333
   40POPC   C21 5337   2.754   5.691   6.808 -0.0505  0.0518 -0.2172
   40POPC   O22 5338   2.698   5.779   6.745 -0.0344  0.1436 -0.7960
   40POPC   C22 5339   2.857   5.729   6.911 -0.7827  0.8326 -0.8217
   40POPC   H2R 5340   2.907   5.825   6.884 -2.3172  2.5624  1.9698
   40POPC   H2S 5341   2.944   5.661   6.914  0.8745  2.8386 -1.1090
   40POPC    C3 5342   2.534   5.429   6.769 -0.7541  0.6500  0.2729
   40POPC    HX 5343   2.601   5.340   6.770 -0.7753  0.6362  0.4437
   40POPC    HY 5344   2.455   5.424   6.691 -1.5418  1.6794  0.9785
   40POPC   O31 5345   2.472   5.443   6.903  0.6425 -0.3326  0.0408
   40POPC   C31 5346   2.372   5.520   6.922  0.8202 -0.7113 -0.0284
   40POPC   O32 5347   2.334   5.610   6.846  0.0087  0.0292 -0.0281
   40POPC   C32 5348   2.295   5.482   7.046 -0.6364  0.1638  0.3689
   40POPC   H2X 5349   2.295   5.372   7.059 -2.1278  0.1621  0.4703
   40POPC   H2Y 5350   2.189   5.510   7.029 -0.8504 -1.0950 -0.4453
   40POPC   C23 5351   2.804   5.749   7.054 -0.3092 -0.2874  0.3437
   40POPC   H3R 5352   2.704   5.795   7.040 -0.2681 -0.6529 -1.3895
   40POPC   H3S 5353   2.868   5.821   7.110 -0.2825 -0.8609  1.0667
   40POPC   C24 5354   2.798   5.617   7.123 -0.7996  0.5376  0.5364
   40POPC   H4R 5355   2.899   5.572   7.127 -0.4213  1.4469  1.6841
   40POPC   H4S 5356   2.726   5.557   7.063 -1.8824  1.9007  0.4259
   40POPC   C25 5357   2.722   5.629   7.258  0.6611  0.6327  0.0576
   40POPC   H5R 5358   2.683   5.528   7.284 -1.4434  1.4766  0.4041
   40POPC   H5S 5359   2.631   5.690   7.241  0.6086  0.7835  0.8509
   40POPC   C26 5360   2.805   5.670   7.380 -0.5924  0.3040 -0.7374
   40POPC   H6R 5361   2.851   5.767   7.352 -1.1394  0.3918 -1.3473
   40POPC   H6S 5362   2.887   5.596   7.395  1.6757  2.8544  0.2202
   40POPC   C27 5363   2.729   5.680   7.512 -0.2613 -0.4287  0.6027
   40POPC   H7R 5364   2.701   5.575   7.539  1.4342 -0.8921  0.6595
   40POPC   H7S 5365   2.640   5.743   7.490  0.8271  1.0878  0.4670
   40POPC   C28 5366   2.813   5.744   7.631  0.0547  0.3500  0.3086
   40POPC   H8R 5367   2.823   5.850   7.600 -0.5503 -0.0548 -1.4064
   40POPC   H8S 5368   2.913   5.698   7.637  0.0846  0.5713  1.8031
   40POPC   C29 5369   2.738   5.746   7.760 -0.6267  0.3488  0.0633
   40POPC   H91 5370   2.677   5.834   7.787 -1.9970 -0.4560 -0.2727
   40POPC  C210 5371   2.755   5.652   7.849  0.1873 -0.6024  0.1258
   40POPC  H101 5372   2.711   5.656   7.949  0.6499 -0.2712  0.3198
   40POPC  C211 5373   2.855   5.535   7.842 -0.2429  0.0369 -0.6318
   40POPC  H11R 5374   2.930   5.545   7.761  1.6241 -1.3547  0.8579
   40POPC  H11S 5375   2.794   5.448   7.809 -1.7397  1.3877 -1.6463
   40POPC  C212 5376   2.911   5.491   7.974  0.0057  0.2084 -0.1841
   40POPC  H12R 5377   2.980   5.406   7.956  1.5207  1.5665 -1.0201
   40POPC  H12S 5378   2.832   5.452   8.042  1.9950 -1.5866  1.2324
   40POPC  C213 5379   3.000   5.595   8.050  0.6047  0.2079  0.1604
   40POPC  H13R 5380   2.949   5.691   8.071  0.2338 -0.0015  0.2236
   40POPC  H13S 5381   3.084   5.617   7.980  0.8925 -2.4171 -0.4231
   40POPC  C214 5382   3.041   5.539   8.192  0.0170 -0.4098  0.1635
   40POPC  H14R 5383   3.105   5.449   8.180  2.0840  0.7317  1.8666
   40POPC  H14S 5384   2.940   5.519   8.233  0.0165 -0.8689 -0.0626
   40POPC  C215 5385   3.133   5.630   8.281  0.5197 -0.1051  0.4449
   40POPC  H15R 5386   3.230   5.645   8.229  0.3853  2.9919  0.9024
   40POPC  H15S 5387   3.149   5.568   8.373 -2.3304 -2.4257 -0.4595
   40POPC  C216 5388   3.064   5.764   8.311 -1.0789 -0.0808 -0.4109
   40POPC  H16R 5389   2.978   5.746   8.379 -0.1925 -2.8850  0.0955
   40POPC  H16S 5390   3.022   5.818   8.223 -2.5001  1.8063  1.3199
   40POPC  C217 5391   3.149   5.872   8.377  0.6594 -0.4722  0.0552
   40POPC  H17R 5392   3.088   5.963   8.396 -1.3399 -1.4272 -1.4573
   40POPC  H17S 5393   3.230   5.909   8.310 -0.4465  1.8306 -0.1130
   40POPC  C218 5394   3.207   5.821   8.510 -0.3259 -0.0587  0.2311
   40POPC  H18R 5395   3.122   5.770   8.560 -2.6439  1.5982 -1.7997
   40POPC  H18S 5396   3.249   5.899   8.577 -0.7194  0.1245  0.2647
   40POPC  H18T 5397   3.275   5.732   8.508  3.0789  2.2804  2.1123
   40POPC   C33 5398   2.360   5.540   7.178  0.0886 -0.6752 -0.1023
   40POPC   H3X 5399   2.398   5.643   7.163  0.0382 -0.7003 -0.4095
   40POPC   H3Y 5400   2.446   5.479   7.213 -1.8765 -3.8314 -0.3882
   40POPC   C34 5401   2.269   5.532   7.305 -0.0881 -0.0492 -0.4769
   40POPC   H4X 5402   2.238   5.427   7.327  2.9882 -1.3418 -1.7594
   40POPC   H4Y 5403   2.184   5.602   7.292  0.3841  0.3604 -1.4115
   40POPC   C35 5404   2.342   5.576   7.431 -0.2824  0.0310  0.4838
   40POPC   H5X 5405   2.367   5.682   7.410 -0.9645 -0.0558 -0.8918
   40POPC   H5Y 5406   2.426   5.514   7.468 -0.1900 -0.5952 -0.7378
   40POPC   C36 5407   2.234   5.581   7.547  0.2397  0.2965  0.1675
   40POPC   H6X 5408   2.217   5.476   7.581  1.6341 -0.1580 -0.4300
   40POPC   H6Y 5409   2.139   5.636   7.530  1.0506  1.7317  0.1541
   40POPC   C37 5410   2.294   5.648   7.675  0.5388  0.1746 -1.2733
   40POPC   H7X 5411   2.334   5.747   7.644  0.4432  0.3244 -0.9230
   40POPC   H7Y 5412   2.387   5.591   7.696 -1.8071 -3.6180 -0.1121
   40POPC   C38 5413   2.200   5.667   7.794 -0.4332  0.8816 -0.0516
   40POPC   H8X 5414   2.158   5.571   7.832  2.2032  0.4401  2.1242
   40POPC   H8Y 5415   2.118   5.738   7.771 -0.9582  0.5976  0.8893
   40POPC   C39 5416   2.266   5.703   7.933 -0.2715 -0.1449 -0.4720
   40POPC   H9X 5417   2.329   5.612   7.942  0.3685  0.3955  0.7393
   40POPC   H9Y 5418   2.195   5.703   8.018  1.6192  2.8548  1.2875
   40POPC  C310 5419   2.359   5.823   7.945  0.2038 -0.3851 -0.4984
   40POPC  H10X 5420   2.305   5.907   7.896  2.2536  0.3359 -1.6626
   40POPC  H10Y 5421   2.457   5.808   7.895 -0.2235 -2.0384 -0.8746
   40POPC  C311 5422   2.395   5.860   8.090  0.5419  0.5167 -0.5003
   40POPC  H11X 5423   2.299   5.883   8.141  0.8824  3.2648 -0.9542
   40POPC  H11Y 5424   2.445   5.959   8.089  1.8780 -0.1399 -0.8889
   40POPC  C312 5425   2.471   5.769   8.186 -0.0012 -0.3791  0.1681
   40POPC  H12X 5426   2.569   5.744   8.141 -1.5039 -1.6746 -2.6069
   40POPC  H12Y 5427   2.411   5.676   8.192 -1.7995  0.4838 -2.7250
   40POPC  C313 5428   2.475   5.830   8.331 -0.5713 -0.0558  0.7340
   40POPC  H13X 5429   2.524   5.746   8.385 -2.6410 -1.1226  1.0744
   40POPC  H13Y 5430   2.373   5.841   8.374 -1.5970 -0.0894 -1.5570
   40POPC  C314 5431   2.553   5.963   8.363  0.6524  0.3097  0.3149
   40POPC  H14X 5432   2.559   5.978   8.473  2.0820 -1.5083  0.5344
   40POPC  H14Y 5433   2.484   6.040   8.323  1.0688 -0.1971 -1.4930
   40POPC  C315 5434   2.689   5.971   8.301  0.5594  0.2334 -0.0976
   40POPC  H15X 5435   2.674   5.997   8.194 -0.7378 -3.5645 -0.9894
   40POPC  H15Y 5436   2.730   5.868   8.291  0.1507  0.1466 -1.0212
   40POPC  C316 5437   2.785   6.066   8.383 -0.0835  0.0123  0.0194
   40POPC  H16X 5438   2.880   6.065   8.325  0.7828 -1.3522  1.3734
   40POPC  H16Y 5439   2.806   6.023   8.483  0.0168 -0.7135 -0.3023
   40POPC  H16Z 5440   2.757   6.173   8.393 -1.5393 -0.2845 -0.7076
   41CHL1    C3 5441   5.266   2.115   9.917 -0.7967 -0.1949  0.3865
   41CHL1    H3 5442   5.359   2.055   9.917  0.1252  1.1610  1.6940
   41CHL1    O3 5443   5.199   2.087  10.039  0.3211  0.4065 -0.0691
   41CHL1   H3' 5444   5.205   2.161  10.100 -1.0150  1.0962 -0.7294
   41CHL1    C4 5445   5.288   2.260   9.886  0.6068 -0.2616 -0.7246
   41CHL1   H4A 5446   5.189   2.310   9.892 -0.6743 -2.8071  1.8581
   41CHL1   H4B 5447   5.346   2.311   9.967  0.3470 -1.2139  0.0751
   41CHL1    C5 5448   5.346   2.306   9.754  0.8682  0.5282  0.4704
   41CHL1    C6 5449   5.463   2.377   9.744  0.6056 -0.1628 -0.1325
   41CHL1    H6 5450   5.509   2.406   9.839 -2.1502 -0.6496  1.4707
   41CHL1    C7 5451   5.523   2.419   9.618  0.1119 -0.1679  0.3682
   41CHL1   H7A 5452   5.551   2.525   9.631  2.0619 -0.1100 -3.0602
   41CHL1   H7B 5453   5.615   2.361   9.596 -0.3764 -0.1529 -1.9921
   41CHL1    C8 5454   5.426   2.393   9.500  0.0836 -0.1785 -0.2428
   41CHL1    H8 5455   5.349   2.472   9.502 -0.6853 -0.9260  0.3675
   41CHL1   C14 5456   5.506   2.413   9.366 -0.1877 -0.4945  0.0622
   41CHL1   H14 5457   5.590   2.341   9.372 -0.5281 -1.1072 -1.8937
   41CHL1   C15 5458   5.565   2.549   9.333 -0.2665  0.3345 -0.7933
   41CHL1  H15A 5459   5.480   2.620   9.335  0.2317  0.9361 -0.7760
   41CHL1  H15B 5460   5.636   2.593   9.405 -3.3096  3.0072  0.8421
   41CHL1   C16 5461   5.596   2.531   9.182  0.0525  0.2462  0.5717
   41CHL1  H16A 5462   5.573   2.619   9.118 -1.0110  0.4126  1.1563
   41CHL1  H16B 5463   5.706   2.520   9.168  0.1700  0.0059  1.6277
   41CHL1   C17 5464   5.534   2.397   9.130  0.0864  0.1239  0.0415
   41CHL1   H17 5465   5.604   2.312   9.138 -1.0352 -0.7867  0.4727
   41CHL1   C13 5466   5.429   2.370   9.236 -0.2967  0.1561  0.4559
   41CHL1   C18 5467   5.303   2.457   9.210 -0.0312  0.6917  0.1905
   41CHL1  H18A 5468   5.237   2.415   9.131  2.5330  0.5015 -2.0309
   41CHL1  H18B 5469   5.250   2.472   9.306 -1.5425  1.2673 -0.7060
   41CHL1  H18C 5470   5.346   2.555   9.179  1.8643  0.7179  2.5741
   41CHL1   C12 5471   5.389   2.219   9.259 -0.1734  0.1204  0.7987
   41CHL1  H12A 5472   5.347   2.180   9.163 -3.1559  0.0301  2.0205
   41CHL1  H12B 5473   5.480   2.159   9.282  0.6519 -0.2070 -2.7631
   41CHL1   C11 5474   5.294   2.206   9.382  0.1322  0.5794  0.6635
   41CHL1  H11A 5475   5.210   2.273   9.353 -0.2458 -0.0820  0.2257
   41CHL1  H11B 5476   5.261   2.100   9.382 -1.2831  0.9767 -1.2738
   41CHL1    C9 5477   5.364   2.253   9.508 -0.5266 -0.0786 -0.3878
   41CHL1    H9 5478   5.459   2.199   9.527 -0.5294 -0.1925 -0.6997
   41CHL1   C10 5479   5.275   2.237   9.630 -0.6349 -0.2289 -0.6115
   41CHL1   C19 5480   5.137   2.309   9.599 -0.2128  0.5606  0.2297
   41CHL1  H19A 5481   5.073   2.255   9.527 -3.1919  2.2432  1.4495
   41CHL1  H19B 5482   5.076   2.323   9.691 -1.5715  0.5657 -0.6451
   41CHL1  H19C 5483   5.159   2.410   9.557  1.4315  0.3099  0.4094
   41CHL1    C1 5484   5.246   2.084   9.667  0.2656 -0.1816  0.1984
   41CHL1   H1A 5485   5.198   2.042   9.575 -1.2553 -0.0461  0.8977
   41CHL1   H1B 5486   5.346   2.037   9.674  0.2653 -0.4348 -1.1742
   41CHL1    C2 5487   5.179   2.054   9.803  0.6364  0.1712 -0.1167
   41CHL1   H2A 5488   5.166   1.945   9.823 -1.2393  0.3903  0.0616
   41CHL1   H2B 5489   5.082   2.107   9.817 -0.0549 -1.3988  1.3993
   41CHL1   C20 5490   5.495   2.410   8.982  0.4858 -0.2725  0.8547
   41CHL1   H20 5491   5.440   2.506   8.976  1.8470  0.4209 -2.8178
   41CHL1   C21 5492   5.418   2.294   8.920  0.3803 -0.5596 -0.4164
   41CHL1  H21A 5493   5.415   2.307   8.809 -1.0500 -1.3985 -0.5077
   41CHL1  H21B 5494   5.314   2.303   8.959  1.9904  2.8882  3.9601
   41CHL1  H21C 5495   5.466   2.197   8.944  0.4309 -0.8848 -1.7360
   41CHL1   C22 5496   5.629   2.432   8.896 -0.2242  0.0914 -0.0523
   41CHL1  H22A 5497   5.720   2.454   8.955 -0.1835 -0.4253  0.0890
   41CHL1  H22B 5498   5.652   2.331   8.855 -1.4791 -1.4728  2.7424
   41CHL1   C23 5499   5.592   2.540   8.790 -0.0973 -0.0399 -0.5722
   41CHL1  H23A 5500   5.496   2.511   8.743  0.2979 -1.3874 -0.6009
   41CHL1  H23B 5501   5.584   2.640   8.838  1.3512 -0.2867  0.2409
   41CHL1   C24 5502   5.698   2.546   8.681  0.4580 -0.1435  0.1522
   41CHL1  H24A 5503   5.726   2.647   8.644 -1.2803  0.3775  0.1711
   41CHL1  H24B 5504   5.796   2.520   8.727  0.5834  0.9496  0.5464
   41CHL1   C25 5505   5.668   2.452   8.558 -0.3736 -0.0273 -0.8339
   41CHL1   H25 5506   5.624   2.360   8.603 -1.2116  1.9003  2.6952
   41CHL1   C26 5507   5.563   2.524   8.468  0.1123 -0.2308 -0.0492
   41CHL1  H26A 5508   5.542   2.462   8.378  1.6696  3.1542 -3.0150
   41CHL1  H26B 5509   5.463   2.540   8.513 -0.2939 -0.4556 -0.8558
   41CHL1  H26C 5510   5.596   2.625   8.435 -0.0714 -0.6285 -1.5443
   41CHL1   C27 5511   5.797   2.435   8.487  0.0209 -0.3774  0.2343
   41CHL1  H27A 5512   5.775   2.363   8.405 -1.8727  1.4524 -0.9470
   41CHL1  H27B 5513   5.845   2.526   8.445 -1.2584  0.5317  0.7114
   41CHL1  H27C 5514   5.876   2.388   8.550  0.0916 -2.1753 -1.0971
   42CHL1    C3 5515   0.573   1.229   9.875  0.2423 -0.0528 -0.0791
   42CHL1    H3 5516   0.525   1.325   9.849  0.0173 -0.0636  0.2851
   42CHL1    O3 5517   0.599   1.223  10.017  0.4077 -0.1977  0.6382
   42CHL1   H3' 5518   0.641   1.140  10.043 -1.4191 -0.5713  2.7162
   42CHL1    C4 5519   0.477   1.116   9.829  0.0631 -0.3055 -0.1861
   42CHL1   H4A 5520   0.510   1.017   9.868  2.8205  0.4450 -0.4082
   42CHL1   H4B 5521   0.382   1.148   9.877 -1.5894 -1.0851 -2.6925
   42CHL1    C5 5522   0.452   1.109   9.681 -0.2213  0.1545 -0.6145
   42CHL1    C6 5523   0.330   1.115   9.626  0.5699 -0.7237  0.3003
   42CHL1    H6 5524   0.243   1.124   9.693 -0.3580  0.9121 -1.0355
   42CHL1    C7 5525   0.300   1.102   9.477  0.0768  0.5140 -0.9385
   42CHL1   H7A 5526   0.223   1.023   9.466  1.6711 -1.3507  0.5883
   42CHL1   H7B 5527   0.251   1.193   9.437 -1.3089 -0.3709 -1.3420
   42CHL1    C8 5528   0.417   1.058   9.391 -0.3475 -0.6252  0.3692
   42CHL1    H8 5529   0.422   0.947   9.394  0.8002 -0.5756  1.7307
   42CHL1   C14 5530   0.391   1.104   9.251  0.6702  0.0845  0.0057
   42CHL1   H14 5531   0.379   1.215   9.254  0.7453  0.1546 -1.4196
   42CHL1   C15 5532   0.262   1.061   9.183 -0.2704 -0.3006  0.4023
   42CHL1  H15A 5533   0.261   0.951   9.169  0.6034 -0.3959  1.0550
   42CHL1  H15B 5534   0.167   1.096   9.229  0.3648 -0.8144  2.1424
   42CHL1   C16 5535   0.280   1.120   9.044 -0.2112  0.7976 -0.9318
   42CHL1  H16A 5536   0.237   1.053   8.967  0.9461 -0.4562 -0.5042
   42CHL1  H16B 5537   0.235   1.222   9.038  0.3532  0.9713 -3.3170
   42CHL1   C17 5538   0.433   1.138   9.026 -0.2803  0.6705 -0.4620
   42CHL1   H17 5539   0.446   1.248   9.018 -1.7175  0.7901 -1.4705
   42CHL1   C13 5540   0.499   1.076   9.148 -0.1843 -0.4091 -0.6791
   42CHL1   C18 5541   0.517   0.927   9.138 -0.0008 -0.5532 -0.6125
   42CHL1  H18A 5542   0.601   0.899   9.070  0.2426 -0.9786 -0.1462
   42CHL1  H18B 5543   0.542   0.875   9.233  0.2820 -2.4537 -1.6726
   42CHL1  H18C 5544   0.426   0.876   9.099 -0.8210 -0.0602  0.5982
   42CHL1   C12 5545   0.634   1.142   9.199  0.1859  0.5338  0.3901
   42CHL1  H12A 5546   0.714   1.125   9.125 -0.5628 -0.5883 -0.1881
   42CHL1  H12B 5547   0.623   1.251   9.216  1.9413  0.7807  0.1413
   42CHL1   C11 5548   0.673   1.087   9.339  0.3891 -0.1104  0.3477
   42CHL1  H11A 5549   0.703   0.981   9.335  1.2186  0.1302 -0.0516
   42CHL1  H11B 5550   0.757   1.143   9.385  1.0350 -1.2801  0.6073
   42CHL1    C9 5551   0.551   1.116   9.442  0.1625 -0.1541  0.4187
   42CHL1    H9 5552   0.542   1.227   9.440  1.3127 -0.0459  0.6670
   42CHL1   C10 5553   0.582   1.097   9.594 -1.3240  0.4455 -0.3730
   42CHL1   C19 5554   0.637   0.951   9.616  0.1910  0.2920 -0.0474
   42CHL1  H19A 5555   0.657   0.922   9.721  1.5837 -0.9166 -0.6010
   42CHL1  H19B 5556   0.554   0.887   9.580  0.4746 -0.2299  0.2079
   42CHL1  H19C 5557   0.733   0.927   9.565  1.5766  2.8122  1.1783
   42CHL1    C1 5558   0.681   1.205   9.643  0.0462  0.4759  0.3347
   42CHL1   H1A 5559   0.781   1.182   9.600 -0.0635 -1.2448  0.9123
   42CHL1   H1B 5560   0.654   1.308   9.613  0.9633  0.3136 -1.1743
   42CHL1    C2 5561   0.709   1.212   9.800  0.5427  0.1412  0.5555
   42CHL1   H2A 5562   0.781   1.290   9.832  2.5924 -1.5101  0.1396
   42CHL1   H2B 5563   0.759   1.116   9.825  2.8034  0.9819 -0.4466
   42CHL1   C20 5564   0.475   1.099   8.886  0.4028  0.6940 -0.2228
   42CHL1   H20 5565   0.460   0.989   8.886  2.5555  0.3452  0.4191
   42CHL1   C21 5566   0.623   1.120   8.859  0.1386  0.4817  0.5237
   42CHL1  H21A 5567   0.683   1.072   8.940 -0.7882 -0.7717  0.4995
   42CHL1  H21B 5568   0.638   1.229   8.846  1.5012  0.1107 -1.4950
   42CHL1  H21C 5569   0.654   1.079   8.760 -1.4712 -0.3188  0.3258
   42CHL1   C22 5570   0.397   1.165   8.769 -0.1110  0.1075  0.0750
   42CHL1  H22A 5571   0.291   1.134   8.781 -0.4149  0.2567 -1.8299
   42CHL1  H22B 5572   0.389   1.275   8.782 -0.2774  0.0619  0.3581
   42CHL1   C23 5573   0.437   1.134   8.622  0.5627 -0.0540 -0.8641
   42CHL1  H23A 5574   0.540   1.171   8.605  0.5753 -0.3197 -1.4142
   42CHL1  H23B 5575   0.438   1.028   8.588 -0.7252 -0.3771  0.0097
   42CHL1   C24 5576   0.344   1.207   8.530 -0.0719 -0.2786 -0.2565
   42CHL1  H24A 5577   0.239   1.171   8.541  0.5355 -2.2809 -0.5169
   42CHL1  H24B 5578   0.357   1.316   8.548 -0.6556 -0.4335  1.2429
   42CHL1   C25 5579   0.380   1.195   8.378  1.0346  0.0179  0.1741
   42CHL1   H25 5580   0.479   1.240   8.356  0.4160  2.5651  2.1589
   42CHL1   C26 5581   0.375   1.052   8.329 -0.4583  0.1208  0.8357
   42CHL1  H26A 5582   0.277   1.005   8.353  0.1166 -0.8128  1.4106
   42CHL1  H26B 5583   0.397   1.047   8.220  3.2370  1.4343  1.3578
   42CHL1  H26C 5584   0.453   0.995   8.384 -2.7973 -2.3638  1.7822
   42CHL1   C27 5585   0.277   1.271   8.291  0.6202 -0.1513 -0.0338
   42CHL1  H27A 5586   0.316   1.282   8.187  2.3895  1.2940  0.7179
   42CHL1  H27B 5587   0.176   1.226   8.300  0.3971 -0.1456 -2.0407
   42CHL1  H27C 5588   0.284   1.377   8.326  1.4727 -0.5097  0.9317
   43CHL1    C3 5589   1.269   1.964  10.040 -0.0015 -0.7629  0.1369
   43CHL1    H3 5590   1.161   1.988  10.036  0.2367  0.6412  1.3266
   43CHL1    O3 5591   1.294   1.947  10.175  1.0023 -0.8103  0.5063
   43CHL1   H3' 5592   1.390   1.939  10.175  1.0555 -0.5088 -0.8920
   43CHL1    C4 5593   1.285   1.837   9.969  0.2291 -0.3415  0.0053
   43CHL1   H4A 5594   1.375   1.790  10.014 -1.1637 -3.7087 -0.3992
   43CHL1   H4B 5595   1.203   1.773  10.008 -0.4004  0.9695  0.9020
   43CHL1    C5 5596   1.292   1.846   9.817 -0.8107 -0.5808  0.6664
   43CHL1    C6 5597   1.218   1.779   9.727  0.5649  0.2829 -0.1576
   43CHL1    H6 5598   1.155   1.697   9.764  1.8054 -1.1494 -1.0850
   43CHL1    C7 5599   1.223   1.789   9.578 -0.8726  0.1251  0.9883
   43CHL1   H7A 5600   1.224   1.683   9.543 -0.7707  0.4793 -0.1278
   43CHL1   H7B 5601   1.128   1.837   9.544  0.4402  0.4045 -2.7109
   43CHL1    C8 5602   1.352   1.860   9.528 -0.3193 -0.2554  0.7186
   43CHL1    H8 5603   1.434   1.786   9.533  0.0987  0.2591  1.8315
   43CHL1   C14 5604   1.334   1.912   9.388  0.0752  0.2723  0.0560
   43CHL1   H14 5605   1.254   1.989   9.399  1.0565  1.0702  2.3687
   43CHL1   C15 5606   1.293   1.810   9.280 -0.2596 -1.2994 -0.1784
   43CHL1  H15A 5607   1.360   1.721   9.281  4.0215  1.5841 -0.9329
   43CHL1  H15B 5608   1.184   1.788   9.285 -0.0703 -2.1081  0.6165
   43CHL1   C16 5609   1.319   1.884   9.153 -0.0972 -0.5627 -0.6491
   43CHL1  H16A 5610   1.392   1.818   9.101  0.7652 -0.4779  0.4100
   43CHL1  H16B 5611   1.225   1.894   9.094 -1.3846 -0.1365  1.3787
   43CHL1   C17 5612   1.383   2.020   9.188 -0.1539  0.0223 -0.1718
   43CHL1   H17 5613   1.302   2.092   9.215 -0.6699 -1.2802  1.9906
   43CHL1   C13 5614   1.447   1.990   9.326 -0.5539 -0.0543 -0.0063
   43CHL1   C18 5615   1.575   1.901   9.299 -0.4269  0.1085  0.9187
   43CHL1  H18A 5616   1.557   1.803   9.249 -1.8492 -1.0083  3.4112
   43CHL1  H18B 5617   1.659   1.954   9.249 -0.7442  0.4037  0.6904
   43CHL1  H18C 5618   1.617   1.869   9.397  0.9494 -4.2365 -0.8598
   43CHL1   C12 5619   1.486   2.105   9.418 -0.1192  0.3035  0.7922
   43CHL1  H12A 5620   1.580   2.156   9.391 -0.5388  1.6115  1.7050
   43CHL1  H12B 5621   1.406   2.181   9.410  1.3508  1.7277 -1.3324
   43CHL1   C11 5622   1.509   2.061   9.561  0.2104  0.4650  0.1574
   43CHL1  H11A 5623   1.588   1.982   9.559 -0.6076 -0.3737 -2.4257
   43CHL1  H11B 5624   1.551   2.142   9.625 -0.5973  0.6940  0.4064
   43CHL1    C9 5625   1.385   1.981   9.617 -0.0493 -0.3795 -0.2015
   43CHL1    H9 5626   1.298   2.049   9.610 -0.3873 -0.5906  1.4750
   43CHL1   C10 5627   1.391   1.952   9.768  0.2807 -0.1186 -0.0790
   43CHL1   C19 5628   1.527   1.899   9.797 -0.8873  0.5657 -0.0118
   43CHL1  H19A 5629   1.553   1.812   9.733 -1.6849 -1.4625  2.2462
   43CHL1  H19B 5630   1.602   1.981   9.792 -1.2127  0.8945  0.4197
   43CHL1  H19C 5631   1.553   1.861   9.898  0.5732  1.0778 -0.1657
   43CHL1    C1 5632   1.365   2.081   9.838  0.0371  0.7065 -0.1095
   43CHL1   H1A 5633   1.442   2.158   9.813  1.5300 -0.4606  0.6792
   43CHL1   H1B 5634   1.263   2.116   9.812  0.1370  0.4560 -0.8392
   43CHL1    C2 5635   1.363   2.068   9.991 -0.2451 -0.0774  0.0847
   43CHL1   H2A 5636   1.345   2.164  10.044 -1.0736 -0.2555  0.1346
   43CHL1   H2B 5637   1.467   2.044  10.023 -0.5374 -0.8684  0.4670
   43CHL1   C20 5638   1.465   2.076   9.075 -0.1238 -0.8412 -0.0379
   43CHL1   H20 5639   1.565   2.028   9.069  0.7541  0.2101  3.6880
   43CHL1   C21 5640   1.496   2.228   9.099  0.9027  0.6959  0.2052
   43CHL1  H21A 5641   1.547   2.279   9.015  1.4634 -0.4043 -0.1426
   43CHL1  H21B 5642   1.558   2.245   9.189  1.0922  0.0449  0.2021
   43CHL1  H21C 5643   1.395   2.273   9.113 -0.2561 -1.8749  0.7290
   43CHL1   C22 5644   1.414   2.061   8.929 -0.0225 -0.2486 -0.3964
   43CHL1  H22A 5645   1.494   2.103   8.864 -1.6016  1.5231 -1.3109
   43CHL1  H22B 5646   1.409   1.954   8.900  1.9144 -0.6708  0.6599
   43CHL1   C23 5647   1.282   2.130   8.909 -0.4939 -0.3530 -0.1597
   43CHL1  H23A 5648   1.214   2.088   8.986  1.9161 -1.9075  1.2430
   43CHL1  H23B 5649   1.302   2.238   8.929 -0.5724 -1.0780  5.4136
   43CHL1   C24 5650   1.219   2.124   8.769  0.4618  0.1424 -0.1269
   43CHL1  H24A 5651   1.228   2.019   8.735  0.7366 -0.0197  0.4334
   43CHL1  H24B 5652   1.116   2.165   8.764  0.3697  0.0290  0.7327
   43CHL1   C25 5653   1.295   2.206   8.662 -0.0191  0.0346 -0.4310
   43CHL1   H25 5654   1.403   2.206   8.688  0.2322  1.3366 -1.4139
   43CHL1   C26 5655   1.272   2.150   8.522 -0.4325  0.4560 -0.0898
   43CHL1  H26A 5656   1.167   2.154   8.485 -0.3990 -3.0661 -0.9841
   43CHL1  H26B 5657   1.340   2.207   8.456  0.2733 -0.8987 -0.5751
   43CHL1  H26C 5658   1.316   2.048   8.523  1.0854  1.0938  0.9391
   43CHL1   C27 5659   1.262   2.357   8.670 -0.2597  0.6017  0.3326
   43CHL1  H27A 5660   1.154   2.381   8.669  0.0951  2.3458  0.5835
   43CHL1  H27B 5661   1.292   2.382   8.774 -2.7018 -0.1984  1.2856
   43CHL1  H27C 5662   1.312   2.419   8.592 -0.4401 -1.4075 -1.4757
   44CHL1    C3 5663   0.585   2.117   9.920 -0.4191 -0.6463  0.6206
   44CHL1    H3 5664   0.628   2.014   9.921 -1.0954 -0.9387  1.7706
   44CHL1    O3 5665   0.543   2.157  10.042 -0.1056 -0.1132  0.1340
   44CHL1   H3' 5666   0.586   2.095  10.101  2.8808  0.2278 -1.4980
   44CHL1    C4 5667   0.691   2.211   9.854 -0.1636 -0.3318 -0.3929
   44CHL1   H4A 5668   0.645   2.312   9.844 -0.5262 -0.5382 -0.8014
   44CHL1   H4B 5669   0.777   2.219   9.924 -0.1193 -1.0269 -0.3594
   44CHL1    C5 5670   0.736   2.170   9.709  0.2827 -0.0159 -0.3359
   44CHL1    C6 5671   0.859   2.133   9.683  0.5761  0.0545 -0.6716
   44CHL1    H6 5672   0.931   2.129   9.766  0.5261 -0.3670 -0.6438
   44CHL1    C7 5673   0.901   2.081   9.553 -0.2243  0.0966 -0.1434
   44CHL1   H7A 5674   1.006   2.097   9.522 -0.0462  0.2699  0.5223
   44CHL1   H7B 5675   0.891   1.970   9.562 -1.3131  0.2750  1.3650
   44CHL1    C8 5676   0.799   2.123   9.434  0.0081 -0.0315  0.0342
   44CHL1    H8 5677   0.809   2.229   9.403 -2.1415 -0.6226 -3.1788
   44CHL1   C14 5678   0.827   2.050   9.307  0.5621 -0.2135 -0.7144
   44CHL1   H14 5679   0.807   1.943   9.329  2.6235 -0.2186  1.5740
   44CHL1   C15 5680   0.968   2.053   9.249 -0.1162 -0.5115 -0.3147
   44CHL1  H15A 5681   1.002   2.155   9.278  3.8274 -1.1051 -2.2276
   44CHL1  H15B 5682   1.022   1.973   9.303 -0.6464 -0.0569  0.9235
   44CHL1   C16 5683   0.948   2.025   9.102 -0.1268 -0.0480 -0.4881
   44CHL1  H16A 5684   0.984   2.112   9.043  0.5019  0.3858  0.5126
   44CHL1  H16B 5685   1.009   1.935   9.076  0.0573  0.5098 -2.1245
   44CHL1   C17 5686   0.796   2.006   9.071 -0.3491  0.1167 -0.3507
   44CHL1   H17 5687   0.782   1.897   9.087  0.6302  0.2787  1.9877
   44CHL1   C13 5688   0.732   2.085   9.188  0.1721 -0.8572  0.4789
   44CHL1   C18 5689   0.735   2.233   9.148  0.0962  1.2107  0.7471
   44CHL1  H18A 5690   0.665   2.245   9.063  0.2904 -0.7387  0.2607
   44CHL1  H18B 5691   0.695   2.302   9.225  1.8722  2.0362  0.9939
   44CHL1  H18C 5692   0.834   2.266   9.110 -0.4070 -0.4678 -2.4089
   44CHL1   C12 5693   0.590   2.047   9.235  0.0493 -0.4409  0.7146
   44CHL1  H12A 5694   0.528   2.078   9.148  0.3235 -0.5681  0.4725
   44CHL1  H12B 5695   0.587   1.936   9.244  2.1915 -0.8748 -2.3173
   44CHL1   C11 5696   0.553   2.118   9.366 -0.2234  0.7249 -0.1660
   44CHL1  H11A 5697   0.536   2.225   9.344 -3.8762  0.1578 -0.9014
   44CHL1  H11B 5698   0.453   2.078   9.397 -0.4838  1.2540 -0.3104
   44CHL1    C9 5699   0.654   2.100   9.488 -0.4418 -0.4780  0.3263
   44CHL1    H9 5700   0.655   1.989   9.499 -2.2152 -0.8849 -2.5244
   44CHL1   C10 5701   0.609   2.170   9.618 -0.1588  0.2674  0.0774
   44CHL1   C19 5702   0.553   2.310   9.590  0.4973 -0.3111  0.3217
   44CHL1  H19A 5703   0.536   2.373   9.680 -0.7077 -0.0972 -0.0296
   44CHL1  H19B 5704   0.621   2.374   9.530  0.1712 -0.1016  0.1682
   44CHL1  H19C 5705   0.457   2.305   9.532 -0.5217  0.1764  1.9118
   44CHL1    C1 5706   0.494   2.085   9.684 -0.5007 -0.4371 -0.0866
   44CHL1   H1A 5707   0.396   2.094   9.632 -0.8807  1.9183  0.9336
   44CHL1   H1B 5708   0.527   1.979   9.675 -0.2035 -0.4860  1.4147
   44CHL1    C2 5709   0.462   2.114   9.827  0.9015 -0.2753  0.1779
   44CHL1   H2A 5710   0.400   2.035   9.875  0.9680 -0.1056  0.5541
   44CHL1   H2B 5711   0.399   2.206   9.832  1.1535  0.0962 -2.4570
   44CHL1   C20 5712   0.767   2.031   8.917 -0.5415 -0.8807 -0.4499
   44CHL1   H20 5713   0.784   2.138   8.892 -0.8309 -0.6303  0.3722
   44CHL1   C21 5714   0.613   1.996   8.898 -0.0932 -0.5630  0.0093
   44CHL1  H21A 5715   0.596   2.013   8.790  0.1307  0.2287  0.0921
   44CHL1  H21B 5716   0.573   2.081   8.957  1.7692 -1.1992  2.3704
   44CHL1  H21C 5717   0.597   1.889   8.924  1.5046 -0.3133  2.3587
   44CHL1   C22 5718   0.854   1.937   8.825  0.5291  0.1491 -0.0951
   44CHL1  H22A 5719   0.961   1.940   8.855  0.6999 -1.0073 -0.5391
   44CHL1  H22B 5720   0.817   1.833   8.836 -0.8542  0.5282 -0.9896
   44CHL1   C23 5721   0.853   1.976   8.672  0.1736  0.3329  0.1022
   44CHL1  H23A 5722   0.751   1.966   8.629  0.7933 -0.6181 -1.2215
   44CHL1  H23B 5723   0.882   2.083   8.664 -1.2005  0.6564 -0.8737
   44CHL1   C24 5724   0.931   1.881   8.584  0.0493  0.1532  0.6626
   44CHL1  H24A 5725   1.041   1.894   8.595 -0.1235  1.3879  1.1587
   44CHL1  H24B 5726   0.911   1.780   8.626 -1.0107  0.1839  0.2513
   44CHL1   C25 5727   0.889   1.890   8.435  0.1591  0.4800  0.0425
   44CHL1   H25 5728   0.781   1.866   8.426  0.5793 -1.4529 -0.2533
   44CHL1   C26 5729   0.910   2.026   8.377 -0.1047  0.2818 -0.5510
   44CHL1  H26A 5730   1.017   2.055   8.369  0.0433  0.1510  0.8467
   44CHL1  H26B 5731   0.882   2.020   8.269  0.3995  1.5084 -0.7706
   44CHL1  H26C 5732   0.855   2.107   8.429  1.4123 -0.2892  2.1213
   44CHL1   C27 5733   0.958   1.778   8.358 -0.2866  0.2362  1.2228
   44CHL1  H27A 5734   0.928   1.677   8.393 -0.4306  0.3587  1.4532
   44CHL1  H27B 5735   0.929   1.798   8.252  1.2365 -0.5293  0.6290
   44CHL1  H27C 5736   1.067   1.780   8.378 -0.1814 -3.3185  1.6765
   45CHL1    C3 5737   3.717   0.960  10.282 -0.0422 -0.2129 -0.0923
   45CHL1    H3 5738   3.622   0.944  10.336 -1.7153 -2.4247 -3.3387
   45CHL1    O3 5739   3.825   0.973  10.378  0.0256 -0.1191  0.1035
   45CHL1   H3' 5740   3.808   0.903  10.441 -1.1067  0.3001  0.2809
   45CHL1    C4 5741   3.746   0.844  10.188  0.2586 -0.0090 -0.1531
   45CHL1   H4A 5742   3.849   0.851  10.146  1.0964 -2.8048  1.1710
   45CHL1   H4B 5743   3.747   0.755  10.255  3.0940  0.8429  1.0905
   45CHL1    C5 5744   3.642   0.831  10.078 -0.4561 -0.2214  0.9635
   45CHL1    C6 5745   3.561   0.727  10.068  0.2277 -0.0043 -0.1513
   45CHL1    H6 5746   3.573   0.648  10.143 -0.0491 -0.8970 -1.0183
   45CHL1    C7 5747   3.465   0.711   9.955  0.0485 -0.2463 -0.5174
   45CHL1   H7A 5748   3.468   0.606   9.919 -1.9436 -0.4811 -0.1153
   45CHL1   H7B 5749   3.360   0.730   9.986  0.2343  0.9473 -0.5504
   45CHL1    C8 5750   3.477   0.808   9.835 -0.4991  0.1433 -0.0447
   45CHL1    H8 5751   3.373   0.810   9.795 -1.3371  0.4498  2.0455
   45CHL1   C14 5752   3.571   0.765   9.726  1.0289 -0.1339  0.2673
   45CHL1   H14 5753   3.675   0.746   9.759  1.2708 -0.2075 -0.5276
   45CHL1   C15 5754   3.513   0.635   9.658 -0.0323  0.5904  0.1305
   45CHL1  H15A 5755   3.593   0.568   9.621  0.3478  1.1295 -0.0428
   45CHL1  H15B 5756   3.456   0.567   9.725  0.3884  2.9885  3.1668
   45CHL1   C16 5757   3.441   0.671   9.532 -0.4072  0.3692 -0.7760
   45CHL1  H16A 5758   3.497   0.618   9.452 -0.7993 -1.0989 -0.1035
   45CHL1  H16B 5759   3.335   0.638   9.525  0.0632 -1.2557 -0.7631
   45CHL1   C17 5760   3.451   0.828   9.523  0.8983  0.8407 -0.2430
   45CHL1   H17 5761   3.369   0.866   9.587  1.9632 -0.2454  1.8807
   45CHL1   C13 5762   3.579   0.862   9.604 -0.5765  0.2759  0.2852
   45CHL1   C18 5763   3.706   0.827   9.525 -0.3441  0.1034  0.5218
   45CHL1  H18A 5764   3.736   0.904   9.451  1.5502 -0.8039  0.2822
   45CHL1  H18B 5765   3.795   0.808   9.588  0.0945 -1.0983 -0.4068
   45CHL1  H18C 5766   3.696   0.728   9.474  1.2189  0.6427 -0.9483
   45CHL1   C12 5767   3.595   1.008   9.654 -0.8612 -0.0512  0.3842
   45CHL1  H12A 5768   3.702   1.026   9.680 -0.1937 -0.6262 -1.7128
   45CHL1  H12B 5769   3.585   1.074   9.565 -2.2793 -0.3402  0.3065
   45CHL1   C11 5770   3.508   1.052   9.770 -0.3630  0.1334  0.2958
   45CHL1  H11A 5771   3.540   1.156   9.793 -0.2672  0.8127 -2.4844
   45CHL1  H11B 5772   3.403   1.054   9.735 -1.0726  1.1239  2.3354
   45CHL1    C9 5773   3.509   0.949   9.888  0.5183  0.0497  0.2425
   45CHL1    H9 5774   3.417   0.968   9.947  1.6661  1.1676  1.7484
   45CHL1   C10 5775   3.620   0.955   9.994 -0.8217 -0.0490  0.5709
   45CHL1   C19 5776   3.761   0.970   9.921  0.4121 -0.2859 -0.0678
   45CHL1  H19A 5777   3.761   1.074   9.882 -0.5889 -0.3036 -0.1474
   45CHL1  H19B 5778   3.849   0.963   9.989  0.9711 -1.3842 -0.8670
   45CHL1  H19C 5779   3.774   0.911   9.828 -2.7766  1.5964 -1.9014
   45CHL1    C1 5780   3.601   1.069  10.095 -0.9629 -0.4390  0.4925
   45CHL1   H1A 5781   3.602   1.160  10.032  0.4035  1.2548  2.7886
   45CHL1   H1B 5782   3.505   1.055  10.150 -0.6963 -0.2954  1.0049
   45CHL1    C2 5783   3.713   1.095  10.197  0.3393 -0.3726  0.2961
   45CHL1   H2A 5784   3.702   1.171  10.277 -1.0863 -0.9812  0.7202
   45CHL1   H2B 5785   3.807   1.116  10.141  0.2297 -2.1206 -0.6224
   45CHL1   C20 5786   3.437   0.894   9.386  0.3509 -0.3426  0.2036
   45CHL1   H20 5787   3.503   0.983   9.388  1.7260 -1.3314  1.4767
   45CHL1   C21 5788   3.292   0.948   9.365  0.1395 -0.3321 -0.0464
   45CHL1  H21A 5789   3.276   0.998   9.267 -1.2233  0.8452  0.7312
   45CHL1  H21B 5790   3.265   1.010   9.453  2.4883 -1.8680  1.8782
   45CHL1  H21C 5791   3.227   0.858   9.368 -2.2897  1.3778  1.9813
   45CHL1   C22 5792   3.478   0.797   9.266 -0.5504 -0.1918 -0.1387
   45CHL1  H22A 5793   3.581   0.767   9.292 -0.9180  1.3915  3.8690
   45CHL1  H22B 5794   3.409   0.712   9.250  0.4110 -1.0197  0.0559
   45CHL1   C23 5795   3.493   0.866   9.131 -0.7885 -0.4589 -0.1322
   45CHL1  H23A 5796   3.415   0.944   9.122 -1.5739 -1.1818  0.2050
   45CHL1  H23B 5797   3.589   0.920   9.131 -0.7222 -0.5727  0.3368
   45CHL1   C24 5798   3.460   0.771   9.019 -0.1901  0.2925 -0.4056
   45CHL1  H24A 5799   3.513   0.675   9.040 -0.5967 -0.3165 -1.9871
   45CHL1  H24B 5800   3.353   0.745   9.029  0.0721 -0.6457  0.0838
   45CHL1   C25 5801   3.506   0.819   8.871  0.2251  0.1195  0.5979
   45CHL1   H25 5802   3.614   0.841   8.890  0.0273 -0.5522  2.8667
   45CHL1   C26 5803   3.494   0.700   8.767  0.2529 -0.4844 -0.3006
   45CHL1  H26A 5804   3.390   0.670   8.741  0.3329  0.8379 -2.4148
   45CHL1  H26B 5805   3.528   0.743   8.670 -1.7732 -0.5178 -1.0594
   45CHL1  H26C 5806   3.549   0.610   8.803  0.6018 -0.0774  0.1915
   45CHL1   C27 5807   3.420   0.936   8.817  0.0013 -0.4754 -0.5807
   45CHL1  H27A 5808   3.319   0.889   8.824  0.7411 -1.8607  2.3822
   45CHL1  H27B 5809   3.439   1.023   8.884  1.7140 -2.2146  1.3397
   45CHL1  H27C 5810   3.453   0.958   8.713  0.4235 -3.1257 -1.0585
   46CHL1    C3 5811   5.026   6.832  10.195  0.3517 -0.2641 -0.5440
   46CHL1    H3 5812   5.108   6.901  10.165 -1.6476  1.5115 -2.3851
   46CHL1    O3 5813   5.001   6.844  10.331  0.7627  0.3596 -0.1201
   46CHL1   H3' 5814   4.916   6.800  10.343  0.2350  1.6014  1.0418
   46CHL1    C4 5815   4.891   6.887  10.125 -0.6278 -0.1223 -0.9090
   46CHL1   H4A 5816   4.809   6.838  10.180 -0.9041  2.4282  1.1498
   46CHL1   H4B 5817   4.898   6.994  10.153 -0.1817 -0.3946  0.0541
   46CHL1    C5 5818   4.892   6.864   9.979 -0.3246 -0.3209  0.0894
   46CHL1    C6 5819   4.892   6.968   9.893 -0.3354  0.4767  0.0893
   46CHL1    H6 5820   4.890   7.068   9.940 -0.9884 -0.8799  3.1704
   46CHL1    C7 5821   4.903   6.951   9.739  0.0808 -0.3237 -0.8564
   46CHL1   H7A 5822   4.850   7.030   9.681  0.0442  1.4296  1.4123
   46CHL1   H7B 5823   5.005   6.981   9.707 -0.7570  3.4177 -0.5608
   46CHL1    C8 5824   4.861   6.807   9.696 -0.1474  0.7363 -0.1525
   46CHL1    H8 5825   4.753   6.797   9.720 -0.7778  0.8031 -2.7025
   46CHL1   C14 5826   4.903   6.795   9.554 -0.4554  0.4484 -0.4189
   46CHL1   H14 5827   5.014   6.804   9.559 -0.4857  1.9800 -1.5891
   46CHL1   C15 5828   4.845   6.895   9.458  0.4749  0.3426  0.5440
   46CHL1  H15A 5829   4.746   6.930   9.494  0.3138  0.2913  0.1556
   46CHL1  H15B 5830   4.917   6.979   9.467  0.8207  0.2455 -1.0252
   46CHL1   C16 5831   4.845   6.830   9.316 -0.0448 -0.1314 -0.3093
   46CHL1  H16A 5832   4.742   6.816   9.276  0.2046  0.1190 -1.0481
   46CHL1  H16B 5833   4.914   6.883   9.247  0.5107  1.3686  1.3080
   46CHL1   C17 5834   4.898   6.692   9.338 -0.6178 -0.7065  0.3837
   46CHL1   H17 5835   5.008   6.701   9.347 -0.5086 -1.1639 -0.3392
   46CHL1   C13 5836   4.863   6.660   9.489  0.4957  0.2616  0.8233
   46CHL1   C18 5837   4.714   6.626   9.501  0.6793 -0.0433  0.1731
   46CHL1  H18A 5838   4.697   6.539   9.434 -0.3274 -0.2423  0.6734
   46CHL1  H18B 5839   4.671   6.596   9.598 -1.5556 -0.1779 -0.7938
   46CHL1  H18C 5840   4.652   6.706   9.454  0.8706  0.6484  1.0687
   46CHL1   C12 5841   4.942   6.548   9.566 -0.2939 -0.3938 -0.3589
   46CHL1  H12A 5842   4.917   6.445   9.534  1.4514 -1.8365  2.5314
   46CHL1  H12B 5843   5.050   6.565   9.546 -0.5779  2.2659 -0.0568
   46CHL1   C11 5844   4.917   6.555   9.717 -0.1267 -1.0666 -0.6160
   46CHL1  H11A 5845   4.818   6.511   9.739  0.1921 -1.1994  0.6433
   46CHL1  H11B 5846   4.979   6.481   9.771 -1.8411 -1.8475  0.3507
   46CHL1    C9 5847   4.941   6.703   9.782  0.1623 -0.4025  0.1405
   46CHL1    H9 5848   5.046   6.730   9.757 -0.1254 -0.3319 -1.0426
   46CHL1   C10 5849   4.920   6.715   9.938 -0.5232 -0.4158  0.2729
   46CHL1   C19 5850   4.792   6.631   9.973 -0.4877 -0.1658 -0.1577
   46CHL1  H19A 5851   4.776   6.631  10.083  0.4798 -2.3672  0.0337
   46CHL1  H19B 5852   4.707   6.684   9.924  0.4272  1.0140 -0.5140
   46CHL1  H19C 5853   4.806   6.526   9.939 -0.6046  0.3917 -2.0601
   46CHL1    C1 5854   5.046   6.659  10.006  0.1773  0.1989 -0.0092
   46CHL1   H1A 5855   5.049   6.550   9.985 -2.2426 -0.2921  1.8252
   46CHL1   H1B 5856   5.134   6.704   9.954 -0.1825 -1.1211 -1.8842
   46CHL1    C2 5857   5.054   6.690  10.160  0.4709  0.0859  0.3978
   46CHL1   H2A 5858   5.153   6.659  10.199  1.4332  1.8772 -0.5224
   46CHL1   H2B 5859   4.978   6.627  10.212 -0.1167 -0.0038 -0.5473
   46CHL1   C20 5860   4.856   6.586   9.235  0.1288  0.0523  0.0186
   46CHL1   H20 5861   4.749   6.559   9.239  0.2964 -1.1917 -2.1689
   46CHL1   C21 5862   4.933   6.448   9.243  1.2519  0.1950 -0.2557
   46CHL1  H21A 5863   4.907   6.389   9.334  3.6967 -0.3930  0.1632
   46CHL1  H21B 5864   5.043   6.452   9.258  1.4859 -2.1268 -0.8878
   46CHL1  H21C 5865   4.908   6.379   9.160  0.6569 -2.6772  2.1067
   46CHL1   C22 5866   4.891   6.627   9.087  0.1582  0.3362  0.3466
   46CHL1  H22A 5867   4.903   6.737   9.076 -1.1704  0.5009  0.3666
   46CHL1  H22B 5868   4.986   6.581   9.053  0.8642  0.0917  2.4968
   46CHL1   C23 5869   4.769   6.574   8.994  0.5650  0.8721 -0.6252
   46CHL1  H23A 5870   4.800   6.556   8.889  1.1672 -1.3881 -0.1236
   46CHL1  H23B 5871   4.739   6.469   9.017  0.3212  0.9403 -0.6280
   46CHL1   C24 5872   4.643   6.655   8.984 -0.5709  0.2070 -0.1840
   46CHL1  H24A 5873   4.607   6.681   9.086 -1.5630 -0.3331 -0.3855
   46CHL1  H24B 5874   4.685   6.745   8.934 -1.9110  1.4016  0.7793
   46CHL1   C25 5875   4.522   6.591   8.906  0.7248  0.9019  0.0992
   46CHL1   H25 5876   4.561   6.569   8.804 -0.2099 -0.8952  0.0848
   46CHL1   C26 5877   4.466   6.467   8.970  0.4509  0.1237 -0.2234
   46CHL1  H26A 5878   4.375   6.440   8.912 -0.6167  0.0680  1.4079
   46CHL1  H26B 5879   4.539   6.385   8.960  0.7811  0.6676 -3.5135
   46CHL1  H26C 5880   4.443   6.500   9.073 -0.8190  0.7782 -0.6926
   46CHL1   C27 5881   4.423   6.703   8.891 -0.3230  0.3982 -0.1050
   46CHL1  H27A 5882   4.346   6.678   8.814 -0.6135 -1.8406  0.8384
   46CHL1  H27B 5883   4.376   6.724   8.989  1.0801 -1.3766  1.0322
   46CHL1  H27C 5884   4.468   6.800   8.860 -0.6485  0.6021  0.0562
   47CHL1    C3 5885   6.306   1.143   9.947 -0.1848 -0.2959  0.0772
   47CHL1    H3 5886   6.286   1.047   9.894 -2.3083  1.0382 -1.7684
   47CHL1    O3 5887   6.251   1.133  10.078 -0.6030 -0.0698 -0.7575
   47CHL1   H3' 5888   6.276   1.212  10.126 -1.1655  1.2162 -2.4786
   47CHL1    C4 5889   6.457   1.187   9.950  0.3992  0.0411 -0.4981
   47CHL1   H4A 5890   6.461   1.273  10.019  0.0768  0.1809 -0.6506
   47CHL1   H4B 5891   6.510   1.101   9.996 -1.2483  0.9731  3.5612
   47CHL1    C5 5892   6.504   1.224   9.809  0.6348 -0.0116 -0.6913
   47CHL1    C6 5893   6.611   1.166   9.762 -0.2786  0.5085 -0.5546
   47CHL1    H6 5894   6.654   1.092   9.831 -0.8856  0.0701 -0.6350
   47CHL1    C7 5895   6.679   1.211   9.637 -0.1118  0.0423  0.4309
   47CHL1   H7A 5896   6.788   1.223   9.652  0.1040 -1.1684 -0.0721
   47CHL1   H7B 5897   6.668   1.134   9.557  1.7829  0.7773 -0.6044
   47CHL1    C8 5898   6.622   1.346   9.586  0.9575  0.1220  0.8286
   47CHL1    H8 5899   6.670   1.426   9.645 -0.7335  1.0615  0.9962
   47CHL1   C14 5900   6.664   1.359   9.438 -0.3451  0.9259  0.5230
   47CHL1   H14 5901   6.611   1.277   9.384  2.3865  0.0453 -1.0201
   47CHL1   C15 5902   6.800   1.312   9.386 -0.2918 -0.5488 -0.5101
   47CHL1  H15A 5903   6.875   1.363   9.450 -1.7584  0.9578  0.0659
   47CHL1  H15B 5904   6.819   1.203   9.395 -2.9387 -0.9009  2.8828
   47CHL1   C16 5905   6.819   1.373   9.247  0.4112  0.3138  0.8265
   47CHL1  H16A 5906   6.904   1.445   9.248  1.2341 -0.5517 -1.6226
   47CHL1  H16B 5907   6.818   1.298   9.165 -2.2543 -0.5155  1.5113
   47CHL1   C17 5908   6.687   1.458   9.224 -0.2179  0.3855  0.8597
   47CHL1   H17 5909   6.611   1.400   9.167  0.8262  0.3178 -0.4959
   47CHL1   C13 5910   6.625   1.486   9.366  0.9678  0.0721  1.0440
   47CHL1   C18 5911   6.705   1.604   9.432 -0.0664  0.3066 -0.5860
   47CHL1  H18A 5912   6.661   1.699   9.393 -2.2425 -0.9871 -1.4406
   47CHL1  H18B 5913   6.682   1.612   9.541  1.0774  3.2090 -0.4513
   47CHL1  H18C 5914   6.815   1.590   9.425 -0.1316 -0.1537 -0.7118
   47CHL1   C12 5915   6.471   1.501   9.378  0.7880  1.0978 -0.2579
   47CHL1  H12A 5916   6.447   1.605   9.347  0.1360  0.0490 -3.6356
   47CHL1  H12B 5917   6.432   1.430   9.303  1.9753  0.4665 -0.2941
   47CHL1   C11 5918   6.419   1.481   9.525 -0.4950  0.1892  0.0550
   47CHL1  H11A 5919   6.457   1.558   9.595  0.2110 -1.2015  1.2624
   47CHL1  H11B 5920   6.308   1.485   9.522 -0.4732  0.7518 -0.2242
   47CHL1    C9 5921   6.472   1.351   9.592  0.1175  0.5471  0.2054
   47CHL1    H9 5922   6.437   1.264   9.532  1.4340  1.1987 -1.6032
   47CHL1   C10 5923   6.421   1.322   9.739 -0.1606 -0.5813 -0.2528
   47CHL1   C19 5924   6.423   1.458   9.819  0.0416 -0.3854 -0.0549
   47CHL1  H19A 5925   6.529   1.493   9.822  0.3106 -1.0704 -1.0177
   47CHL1  H19B 5926   6.353   1.535   9.781  0.4650 -0.6434 -1.4152
   47CHL1  H19C 5927   6.393   1.442   9.924  3.3520  1.2921  1.2944
   47CHL1    C1 5928   6.271   1.274   9.731 -0.2973  0.0745 -0.3449
   47CHL1   H1A 5929   6.209   1.358   9.693  0.5989  0.0176 -2.0647
   47CHL1   H1B 5930   6.270   1.185   9.665  1.2461 -1.8120  2.0013
   47CHL1    C2 5931   6.213   1.240   9.864  0.1001  0.5592  0.4010
   47CHL1   H2A 5932   6.111   1.198   9.869 -0.5172  2.0104  0.4383
   47CHL1   H2B 5933   6.205   1.333   9.924  2.4454 -0.1568  1.9808
   47CHL1   C20 5934   6.717   1.577   9.135 -0.4081 -0.7227 -0.2219
   47CHL1   H20 5935   6.771   1.652   9.197  1.0415 -1.1661 -0.9261
   47CHL1   C21 5936   6.585   1.642   9.088 -0.1895 -0.0864  0.0879
   47CHL1  H21A 5937   6.541   1.684   9.181 -0.0961 -0.0934  0.1350
   47CHL1  H21B 5938   6.514   1.576   9.035 -0.3995  0.4178 -0.2644
   47CHL1  H21C 5939   6.588   1.727   9.017 -0.1015  0.4746  0.7473
   47CHL1   C22 5940   6.789   1.542   9.000 -0.3836  0.6013 -0.6434
   47CHL1  H22A 5941   6.819   1.640   8.956  1.0889  1.3998  1.9519
   47CHL1  H22B 5942   6.881   1.483   9.017  0.7106  1.6118 -2.6655
   47CHL1   C23 5943   6.702   1.468   8.905  0.3245  0.3203  0.0394
   47CHL1  H23A 5944   6.658   1.375   8.947  0.8309 -0.5914 -1.3447
   47CHL1  H23B 5945   6.626   1.527   8.850 -1.0522 -1.1502  0.3007
   47CHL1   C24 5946   6.788   1.416   8.786 -0.1937 -0.2104  0.4711
   47CHL1  H24A 5947   6.860   1.352   8.841 -0.9774 -1.5366 -0.0152
   47CHL1  H24B 5948   6.730   1.356   8.713 -1.1473  1.7066 -0.4004
   47CHL1   C25 5949   6.860   1.522   8.708 -0.2100  0.4286 -0.2893
   47CHL1   H25 5950   6.918   1.581   8.782 -1.9580 -0.8345  2.2477
   47CHL1   C26 5951   6.952   1.442   8.605  0.8658 -0.4318 -0.3018
   47CHL1  H26A 5952   7.040   1.507   8.584  0.8503 -0.3400 -0.0881
   47CHL1  H26B 5953   6.897   1.410   8.514 -1.2886 -2.6804  1.6721
   47CHL1  H26C 5954   7.001   1.358   8.659  1.9373  0.5794  0.3543
   47CHL1   C27 5955   6.756   1.610   8.635  0.4691 -0.2074  0.1022
   47CHL1  H27A 5956   6.685   1.567   8.561 -0.8364  2.1869 -0.1234
   47CHL1  H27B 5957   6.689   1.663   8.706  0.8025 -1.0805  1.1043
   47CHL1  H27C 5958   6.809   1.692   8.582 -2.4219  0.6981 -1.5752
   48CHL1    C3 5959   0.102   3.416  10.099  0.2395 -0.1012  0.0542
   48CHL1    H3 5960   0.207   3.400  10.066  0.7699 -0.5773  1.8407
   48CHL1    O3 5961   0.109   3.430  10.240  0.4380 -0.0855  0.0649
   48CHL1   H3' 5962   0.025   3.397  10.274  0.7918 -1.4967 -0.3934
   48CHL1    C4 5963   0.040   3.545  10.036 -0.0350  0.2766  0.0582
   48CHL1   H4A 5964  -0.061   3.553  10.081 -1.2704 -0.1754 -2.4676
   48CHL1   H4B 5965   0.108   3.628  10.063  0.4639 -0.4577  1.1336
   48CHL1    C5 5966   0.017   3.529   9.884  1.3707 -0.2278  0.2213
   48CHL1    C6 5967   0.067   3.618   9.801 -0.3893 -0.9746 -0.1574
   48CHL1    H6 5968   0.115   3.709   9.839 -2.3978  1.3541 -2.7697
   48CHL1    C7 5969   0.062   3.611   9.647  0.1156 -0.2908  1.4006
   48CHL1   H7A 5970   0.048   3.713   9.604 -0.5558 -0.1236  1.9982
   48CHL1   H7B 5971   0.158   3.567   9.613 -0.1384 -0.3628  0.7544
   48CHL1    C8 5972  -0.051   3.513   9.599  0.0181  0.0503 -0.1569
   48CHL1    H8 5973  -0.148   3.565   9.616 -0.3963 -0.7352 -0.0792
   48CHL1   C14 5974  -0.039   3.492   9.452 -0.1919 -0.1460  0.0599
   48CHL1   H14 5975   0.050   3.426   9.435 -0.9903 -1.7052  1.5677
   48CHL1   C15 5976  -0.016   3.610   9.353  0.8009 -0.2641  0.1328
   48CHL1  H15A 5977  -0.091   3.688   9.380 -0.5771 -0.8193 -1.8547
   48CHL1  H15B 5978   0.086   3.653   9.359  1.3526 -1.2563 -1.5852
   48CHL1   C16 5979  -0.045   3.550   9.216 -0.3768  0.3893 -0.0280
   48CHL1  H16A 5980  -0.134   3.597   9.168 -0.6581  0.7430  0.8250
   48CHL1  H16B 5981   0.039   3.561   9.144  1.7451 -0.6858  2.1456
   48CHL1   C17 5982  -0.088   3.396   9.240 -0.6967  0.3547  0.3672
   48CHL1   H17 5983   0.004   3.334   9.240  0.6869  2.3133 -0.3036
   48CHL1   C13 5984  -0.147   3.404   9.388  0.2952  1.0675  0.3535
   48CHL1   C18 5985  -0.292   3.462   9.390  0.1177  0.3691  0.3312
   48CHL1  H18A 5986  -0.323   3.517   9.481  1.0608  1.6183 -0.0738
   48CHL1  H18B 5987  -0.301   3.544   9.315 -1.3252  1.0554  1.2019
   48CHL1  H18C 5988  -0.369   3.388   9.359  1.8346 -1.2811 -0.1470
   48CHL1   C12 5989  -0.143   3.263   9.466  0.2344 -0.6706  0.5600
   48CHL1  H12A 5990  -0.235   3.208   9.440 -2.0255  2.1193  1.9940
   48CHL1  H12B 5991  -0.044   3.218   9.443  0.2283 -0.4019  0.0048
   48CHL1   C11 5992  -0.157   3.278   9.612 -0.3545 -0.5071  0.8102
   48CHL1  H11A 5993  -0.264   3.303   9.629 -0.9049  1.6962 -4.2810
   48CHL1  H11B 5994  -0.139   3.183   9.668  1.0486  0.3334  1.8717
   48CHL1    C9 5995  -0.054   3.381   9.677  0.5229 -0.3591  0.1427
   48CHL1    H9 5996   0.049   3.350   9.650  0.6815  1.0035 -0.9120
   48CHL1   C10 5997  -0.052   3.398   9.831  0.2355  0.0020  0.1660
   48CHL1   C19 5998  -0.196   3.410   9.875  0.4385  0.3514  0.4383
   48CHL1  H19A 5999  -0.258   3.481   9.817 -1.0922 -1.4443 -0.2115
   48CHL1  H19B 6000  -0.249   3.312   9.874  1.3644 -0.1782 -1.9457
   48CHL1  H19C 6001  -0.201   3.433   9.984 -1.4249 -0.3453  0.5320
   48CHL1    C1 6002   0.008   3.273   9.895  0.7924 -0.6517  0.0387
   48CHL1   H1A 6003  -0.073   3.201   9.869 -0.4259  0.8972 -0.6740
   48CHL1   H1B 6004   0.108   3.245   9.857 -0.2100 -3.1741 -0.9599
   48CHL1    C2 6005   0.026   3.290  10.053  0.1817  0.6765  0.1849
   48CHL1   H2A 6006   0.059   3.193  10.096 -1.2218  0.4442  0.8071
   48CHL1   H2B 6007  -0.080   3.295  10.085  0.2021  1.3367  0.1510
   48CHL1   C20 6008  -0.176   3.339   9.124 -0.0151 -0.2839  0.1262
   48CHL1   H20 6009  -0.273   3.393   9.125  0.9277  1.5213  1.3500
   48CHL1   C21 6010  -0.191   3.185   9.151  0.6072 -0.5515  0.1300
   48CHL1  H21A 6011  -0.241   3.136   9.065  0.0149 -1.0012  0.7213
   48CHL1  H21B 6012  -0.266   3.165   9.230 -1.8354  0.0249 -1.9116
   48CHL1  H21C 6013  -0.092   3.139   9.172  1.3717  0.5963 -0.8237
   48CHL1   C22 6014  -0.115   3.368   8.981 -0.1308  0.1062 -0.1455
   48CHL1  H22A 6015  -0.188   3.324   8.909 -0.2289 -0.0220  0.0297
   48CHL1  H22B 6016  -0.110   3.476   8.957  3.7685  0.0733 -0.0968
   48CHL1   C23 6017   0.029   3.318   8.962 -0.1244 -0.3187 -0.1729
   48CHL1  H23A 6018   0.089   3.366   9.042  1.4695 -1.7427 -0.4615
   48CHL1  H23B 6019   0.028   3.210   8.988 -1.1516  0.3865  3.1623
   48CHL1   C24 6020   0.079   3.342   8.817  0.0111  0.4660  0.3837
   48CHL1  H24A 6021  -0.005   3.327   8.746  0.6751  2.2200 -0.8617
   48CHL1  H24B 6022   0.091   3.449   8.790 -1.9153  0.4174 -0.8206
   48CHL1   C25 6023   0.207   3.265   8.781 -0.1917  0.3151  0.2258
   48CHL1   H25 6024   0.175   3.159   8.791 -4.0677  1.4615  2.2997
   48CHL1   C26 6025   0.257   3.283   8.638 -0.1537 -0.7994  0.6361
   48CHL1  H26A 6026   0.336   3.205   8.630 -1.4196 -2.1353  0.6081
   48CHL1  H26B 6027   0.176   3.266   8.563  1.8783 -0.5786 -1.7486
   48CHL1  H26C 6028   0.304   3.381   8.617  0.9995 -1.4569  0.0168
   48CHL1   C27 6029   0.311   3.300   8.891 -1.0159 -0.0279  0.0021
   48CHL1  H27A 6030   0.327   3.410   8.895  2.6502 -0.3752 -1.7610
   48CHL1  H27B 6031   0.285   3.260   8.991 -1.6143 -2.2200 -0.9556
   48CHL1  H27C 6032   0.400   3.248   8.851 -1.5081 -0.4360 -0.5944
   49CHL1    C3 6033   6.016   6.196   9.968  0.2934 -0.1192 -0.1389
   49CHL1    H3 6034   5.990   6.089   9.955  2.3030 -0.4449 -2.1085
   49CHL1    O3 6035   6.081   6.202  10.098 -0.3540 -0.7617  0.2168
   49CHL1   H3' 6036   6.098   6.294  10.119 -0.5491 -0.9443  1.2083
   49CHL1    C4 6037   6.118   6.236   9.862 -0.4975  0.2703  0.0843
   49CHL1   H4A 6038   6.157   6.333   9.900 -0.2947 -0.4664  1.8434
   49CHL1   H4B 6039   6.207   6.170   9.870 -0.5718  0.3311  1.8468
   49CHL1    C5 6040   6.054   6.241   9.727  0.4412  0.1801 -0.0348
   49CHL1    C6 6041   6.106   6.179   9.618 -0.0927 -0.4552  0.3543
   49CHL1    H6 6042   6.202   6.127   9.626 -0.7625 -2.3690 -2.5683
   49CHL1    C7 6043   6.053   6.205   9.481 -0.1577  0.6458  0.7932
   49CHL1   H7A 6044   6.129   6.216   9.401 -0.4442 -0.6474  0.3332
   49CHL1   H7B 6045   5.998   6.113   9.452  1.2174 -0.2554  0.9619
   49CHL1    C8 6046   5.961   6.330   9.470 -0.0798  0.1221 -0.0098
   49CHL1    H8 6047   6.020   6.424   9.476  1.7387 -1.0300  1.6261
   49CHL1   C14 6048   5.885   6.326   9.338  0.9761  0.1319 -0.2041
   49CHL1   H14 6049   5.832   6.228   9.334 -0.3728  0.8435 -2.8999
   49CHL1   C15 6050   5.966   6.332   9.206 -0.2270  0.7864 -0.0990
   49CHL1  H15A 6051   6.065   6.379   9.221  1.1123 -1.5551 -0.9774
   49CHL1  H15B 6052   5.993   6.227   9.181 -0.8737  0.2307  1.3968
   49CHL1   C16 6053   5.869   6.384   9.101 -0.2023 -0.6246 -0.0369
   49CHL1  H16A 6054   5.907   6.474   9.047 -0.6711  0.2800  1.0995
   49CHL1  H16B 6055   5.864   6.300   9.028  3.3742  0.1330 -1.3607
   49CHL1   C17 6056   5.735   6.405   9.172  0.5235  0.6965 -0.6091
   49CHL1   H17 6057   5.689   6.304   9.182 -2.4488  2.1689  2.5226
   49CHL1   C13 6058   5.777   6.433   9.321 -0.4235 -0.7833 -0.6989
   49CHL1   C18 6059   5.842   6.572   9.316  0.1779 -0.1742 -0.0657
   49CHL1  H18A 6060   5.886   6.583   9.417 -1.1064 -1.9046  0.7530
   49CHL1  H18B 6061   5.916   6.583   9.234  0.3826 -1.2744 -0.0496
   49CHL1  H18C 6062   5.767   6.652   9.303  2.6414  2.1289 -0.9069
   49CHL1   C12 6063   5.674   6.418   9.438 -0.1467  1.0557  0.6122
   49CHL1  H12A 6064   5.593   6.493   9.440  0.0805  1.3110  0.3568
   49CHL1  H12B 6065   5.627   6.318   9.423  0.9005  0.4514  1.1614
   49CHL1   C11 6066   5.752   6.426   9.572  0.6716  0.7764  0.4464
   49CHL1  H11A 6067   5.782   6.529   9.600  0.3344  0.5679  1.6443
   49CHL1  H11B 6068   5.675   6.402   9.649  1.0617 -1.9730  0.0687
   49CHL1    C9 6069   5.866   6.324   9.585  0.1511 -0.0206 -0.4189
   49CHL1    H9 6070   5.813   6.227   9.576 -0.7788  0.2168  1.8511
   49CHL1   C10 6071   5.926   6.343   9.719 -0.3905 -0.2955  0.2452
   49CHL1   C19 6072   5.977   6.486   9.755  0.4138 -0.4252 -0.1087
   49CHL1  H19A 6073   5.882   6.534   9.787  0.3283 -1.4538  1.2658
   49CHL1  H19B 6074   6.041   6.485   9.846  2.4014  1.7031 -1.3463
   49CHL1  H19C 6075   6.029   6.536   9.670  0.6047 -2.1586 -1.0532
   49CHL1    C1 6076   5.821   6.292   9.822  0.4995  0.2012 -0.0019
   49CHL1   H1A 6077   5.745   6.369   9.844  1.6077  1.2907  0.1456
   49CHL1   H1B 6078   5.777   6.197   9.785  0.6987  0.7831 -1.8476
   49CHL1    C2 6079   5.886   6.275   9.965  0.9867  0.2946 -0.8090
   49CHL1   H2A 6080   5.814   6.221  10.030 -3.3699  1.9281 -3.8511
   49CHL1   H2B 6081   5.889   6.376  10.011 -1.6915 -0.1489  0.5024
   49CHL1   C20 6082   5.626   6.496   9.112  0.0455  0.1256  0.2484
   49CHL1   H20 6083   5.603   6.578   9.183 -2.4428  0.4431 -0.8322
   49CHL1   C21 6084   5.494   6.414   9.096  0.7048 -0.3205  0.3851
   49CHL1  H21A 6085   5.524   6.342   9.016  0.7721  1.2403 -1.0593
   49CHL1  H21B 6086   5.399   6.466   9.075  0.1168 -0.9779  1.3758
   49CHL1  H21C 6087   5.478   6.357   9.189  1.8849 -0.2791  0.6296
   49CHL1   C22 6088   5.673   6.567   8.980 -0.5816 -0.8131  0.0212
   49CHL1  H22A 6089   5.772   6.618   8.989 -0.7078 -0.5112 -0.2826
   49CHL1  H22B 6090   5.685   6.482   8.910 -1.5765 -0.3967 -0.6805
   49CHL1   C23 6091   5.575   6.671   8.922 -0.5183  0.9620 -0.0944
   49CHL1  H23A 6092   5.478   6.619   8.907 -0.7333  1.2337  0.3558
   49CHL1  H23B 6093   5.565   6.751   8.998 -1.9346  1.7097 -1.0336
   49CHL1   C24 6094   5.623   6.726   8.790 -0.3562  0.5286 -0.4644
   49CHL1  H24A 6095   5.567   6.819   8.766 -1.2182  0.2150  0.2816
   49CHL1  H24B 6096   5.730   6.757   8.791  0.4250 -1.8790  0.8992
   49CHL1   C25 6097   5.614   6.644   8.668 -0.4343 -0.3384 -0.2214
   49CHL1   H25 6098   5.661   6.548   8.696 -0.6020  0.2405  2.2937
   49CHL1   C26 6099   5.470   6.623   8.615  0.1137 -0.2143 -0.6190
   49CHL1  H26A 6100   5.440   6.711   8.554 -1.6805 -0.2702  0.1344
   49CHL1  H26B 6101   5.472   6.541   8.540 -2.0869  0.5722 -1.6392
   49CHL1  H26C 6102   5.389   6.609   8.689  1.0873  1.7838  0.9173
   49CHL1   C27 6103   5.709   6.688   8.555 -0.2399 -0.1413 -0.4759
   49CHL1  H27A 6104   5.668   6.772   8.495 -1.4148 -1.5241 -1.6543
   49CHL1  H27B 6105   5.811   6.708   8.596 -0.9838 -1.4277  2.2362
   49CHL1  H27C 6106   5.707   6.603   8.484  1.0038 -0.6852  0.1029
   50CHL1    C3 6107   3.645   2.176  10.143 -0.2204  0.8285  0.5018
   50CHL1    H3 6108   3.563   2.238  10.099  0.2914  1.0840 -0.1088
   50CHL1    O3 6109   3.651   2.186  10.285  0.2431 -0.4811 -0.2321
   50CHL1   H3' 6110   3.585   2.129  10.325 -0.9192  0.4797 -0.7329
   50CHL1    C4 6111   3.609   2.032  10.115 -0.0754 -0.3152 -0.2674
   50CHL1   H4A 6112   3.694   1.972  10.154  0.7263  1.6515  1.1529
   50CHL1   H4B 6113   3.517   1.998  10.168  0.9633 -1.2983  0.9840
   50CHL1    C5 6114   3.595   2.013   9.970  1.4303  0.2669  1.2354
   50CHL1    C6 6115   3.471   1.981   9.923 -0.1579 -0.2370 -0.0664
   50CHL1    H6 6116   3.392   1.956   9.996 -1.0590 -0.0563 -0.9464
   50CHL1    C7 6117   3.447   1.953   9.778 -0.1844  0.1859 -0.6119
   50CHL1   H7A 6118   3.385   1.861   9.775  0.0818  0.0198 -1.1727
   50CHL1   H7B 6119   3.400   2.039   9.727  0.5840 -0.7051 -2.9246
   50CHL1    C8 6120   3.580   1.949   9.696 -0.2685 -0.0757 -1.1985
   50CHL1    H8 6121   3.639   1.859   9.725 -0.3921 -0.0083 -0.7270
   50CHL1   C14 6122   3.549   1.941   9.548  0.1090  0.0108  0.5343
   50CHL1   H14 6123   3.493   2.032   9.519 -0.4774 -0.1577  1.1066
   50CHL1   C15 6124   3.460   1.831   9.498 -0.6671 -1.0177 -0.1102
   50CHL1  H15A 6125   3.484   1.747   9.567  0.6991  1.3684  2.5336
   50CHL1  H15B 6126   3.350   1.851   9.500 -0.4070  0.6530  2.5278
   50CHL1   C16 6127   3.514   1.809   9.351  0.9760  0.3678 -0.7386
   50CHL1  H16A 6128   3.552   1.705   9.339  1.0348  0.5922 -2.7534
   50CHL1  H16B 6129   3.426   1.820   9.285  0.4482  2.3532  0.2071
   50CHL1   C17 6130   3.618   1.916   9.328 -0.8034  0.2116 -0.5856
   50CHL1   H17 6131   3.556   2.005   9.303 -0.5518  0.2057 -1.2316
   50CHL1   C13 6132   3.685   1.937   9.471 -0.1639 -0.3386  0.5927
   50CHL1   C18 6133   3.776   1.817   9.508 -0.0617  0.2298 -0.7817
   50CHL1  H18A 6134   3.863   1.803   9.441  0.3812 -1.6968  0.0988
   50CHL1  H18B 6135   3.816   1.833   9.610  0.5751 -1.1501 -0.7902
   50CHL1  H18C 6136   3.707   1.730   9.508 -2.1505  1.7768 -2.2922
   50CHL1   C12 6137   3.758   2.072   9.492  0.0944 -0.2149 -0.0015
   50CHL1  H12A 6138   3.852   2.075   9.433  0.8176 -1.4438  1.0412
   50CHL1  H12B 6139   3.682   2.145   9.457 -1.2042 -1.2983  0.4816
   50CHL1   C11 6140   3.788   2.095   9.637 -0.6305 -0.1864  0.2596
   50CHL1  H11A 6141   3.863   2.015   9.659 -1.7103 -1.0387  0.9328
   50CHL1  H11B 6142   3.839   2.192   9.657 -0.6578  0.4881 -2.5959
   50CHL1    C9 6143   3.678   2.059   9.733 -0.1012  0.4679  0.5035
   50CHL1    H9 6144   3.611   2.147   9.722 -2.4009 -1.2589 -0.0363
   50CHL1   C10 6145   3.720   2.053   9.882  0.4900 -0.2390  0.1296
   50CHL1   C19 6146   3.820   1.937   9.899  0.1763  0.0587  0.3032
   50CHL1  H19A 6147   3.780   1.839   9.865 -1.5228  1.0209 -0.6191
   50CHL1  H19B 6148   3.916   1.963   9.849 -0.3237  0.1967 -0.6111
   50CHL1  H19C 6149   3.843   1.932  10.008 -0.2457 -1.4684  0.3401
   50CHL1    C1 6150   3.785   2.187   9.930  0.6673  0.3716  0.0986
   50CHL1   H1A 6151   3.887   2.185   9.885  0.0165  0.0980 -1.4450
   50CHL1   H1B 6152   3.724   2.272   9.894  2.0272  0.9256 -1.0156
   50CHL1    C2 6153   3.783   2.213  10.083  1.2814  0.2418  0.2785
   50CHL1   H2A 6154   3.812   2.318  10.101 -2.5614  1.4951  0.0638
   50CHL1   H2B 6155   3.859   2.151  10.136  0.1017  0.0887  1.8377
   50CHL1   C20 6156   3.714   1.877   9.210  0.1132 -0.1337  0.0342
   50CHL1   H20 6157   3.780   1.794   9.243  0.2583 -0.0329  0.0006
   50CHL1   C21 6158   3.818   1.991   9.188  0.6679  0.8251  0.7539
   50CHL1  H21A 6159   3.895   1.994   9.267 -1.1749 -0.3322  2.6941
   50CHL1  H21B 6160   3.772   2.091   9.169 -0.6007  0.0315 -0.6297
   50CHL1  H21C 6161   3.872   1.970   9.093 -0.3564  1.3805  0.0199
   50CHL1   C22 6162   3.631   1.853   9.080 -0.3440  0.8640  0.0529
   50CHL1  H22A 6163   3.695   1.805   9.002 -0.3698 -0.4059  0.7727
   50CHL1  H22B 6164   3.552   1.780   9.106 -0.1799 -0.7709 -3.3945
   50CHL1   C23 6165   3.554   1.973   9.013 -0.5567  0.1212 -0.4908
   50CHL1  H23A 6166   3.469   1.998   9.081 -2.5074 -1.4922 -2.1738
   50CHL1  H23B 6167   3.619   2.061   8.995 -2.0782  1.4330  0.1620
   50CHL1   C24 6168   3.466   1.928   8.889 -0.0402 -0.4783 -0.1014
   50CHL1  H24A 6169   3.543   1.882   8.824  0.7587  0.6876 -0.0062
   50CHL1  H24B 6170   3.400   1.843   8.918  0.1941 -0.1241  1.6075
   50CHL1   C25 6171   3.372   2.035   8.830 -0.2539  0.3725 -0.3791
   50CHL1   H25 6172   3.322   1.988   8.743 -0.3116  1.2692 -0.8392
   50CHL1   C26 6173   3.262   2.085   8.925  0.2419  0.0004 -0.5667
   50CHL1  H26A 6174   3.199   2.001   8.962 -0.0395  0.0432 -0.9441
   50CHL1  H26B 6175   3.309   2.142   9.007  0.6277 -0.1112 -0.7098
   50CHL1  H26C 6176   3.191   2.155   8.875 -2.2735 -1.4937  0.7053
   50CHL1   C27 6177   3.461   2.144   8.776 -0.6006 -0.8039 -0.2943
   50CHL1  H27A 6178   3.485   2.222   8.853 -0.6694 -0.8610 -0.2158
   50CHL1  H27B 6179   3.558   2.124   8.726  1.0981  3.8646  0.5598
   50CHL1  H27C 6180   3.396   2.205   8.710 -0.4739  0.3900  0.6507
   51CHL1    C3 6181   4.628   3.717  10.072 -0.5485 -1.2813 -0.0643
   51CHL1    H3 6182   4.563   3.779  10.006 -1.4754 -1.6187  0.5201
   51CHL1    O3 6183   4.559   3.720  10.198 -0.1089 -0.4050 -0.2263
   51CHL1   H3' 6184   4.603   3.784  10.254 -0.5318 -1.2470  1.1037
   51CHL1    C4 6185   4.630   3.578  10.012  0.4202  0.7505  0.2261
   51CHL1   H4A 6186   4.681   3.518  10.091  1.0817  3.3280  1.8782
   51CHL1   H4B 6187   4.527   3.537   9.998  0.8800  0.0042 -1.0648
   51CHL1    C5 6188   4.700   3.574   9.877 -0.3204  0.2841  0.5281
   51CHL1    C6 6189   4.643   3.525   9.762 -0.0348  0.6276 -0.5928
   51CHL1    H6 6190   4.540   3.486   9.765  1.1204 -2.6870  0.3108
   51CHL1    C7 6191   4.710   3.510   9.626 -0.0176 -0.0287 -0.0745
   51CHL1   H7A 6192   4.690   3.407   9.589  3.7563 -0.3671 -1.6457
   51CHL1   H7B 6193   4.669   3.578   9.549  0.4964 -0.8438 -1.0849
   51CHL1    C8 6194   4.859   3.542   9.636 -0.0592  0.0601 -0.3080
   51CHL1    H8 6195   4.903   3.451   9.681  0.4131  0.5072  0.1495
   51CHL1   C14 6196   4.910   3.577   9.493  0.2396  0.8568  0.5412
   51CHL1   H14 6197   4.860   3.671   9.462 -1.7954 -0.8650 -1.7313
   51CHL1   C15 6198   4.870   3.482   9.377 -0.3132  0.3511  0.2486
   51CHL1  H15A 6199   4.882   3.380   9.420  0.6397 -1.2316 -3.3792
   51CHL1  H15B 6200   4.771   3.501   9.330 -1.3392  0.2029  2.2402
   51CHL1   C16 6201   4.976   3.504   9.269  0.6440 -0.0587 -0.0280
   51CHL1  H16A 6202   5.046   3.418   9.255  0.0650 -0.7832  1.3603
   51CHL1  H16B 6203   4.924   3.533   9.176  2.1777 -2.0859 -1.6148
   51CHL1   C17 6204   5.064   3.628   9.318 -0.4377  0.1576  0.6089
   51CHL1   H17 6205   5.006   3.715   9.281  0.6256  0.9907  0.8458
   51CHL1   C13 6206   5.062   3.613   9.479  0.8311  0.4019  1.1175
   51CHL1   C18 6207   5.159   3.500   9.513 -0.1455  0.1705 -0.0383
   51CHL1  H18A 6208   5.135   3.404   9.462 -1.3412  0.6473 -0.4125
   51CHL1  H18B 6209   5.263   3.534   9.495 -0.4919  0.2294 -2.1338
   51CHL1  H18C 6210   5.151   3.466   9.619  0.5036 -0.1690 -0.0942
   51CHL1   C12 6211   5.086   3.734   9.567  0.0707 -0.5414  0.3205
   51CHL1  H12A 6212   5.195   3.755   9.572 -0.2491  1.1830  0.8833
   51CHL1  H12B 6213   5.043   3.830   9.532 -1.0129 -0.9643  0.4583
   51CHL1   C11 6214   5.037   3.711   9.713 -0.1135 -0.1128  0.2650
   51CHL1  H11A 6215   5.100   3.632   9.759  2.8349  1.3605 -0.9589
   51CHL1  H11B 6216   5.050   3.808   9.766  2.8148 -0.7337  0.8780
   51CHL1    C9 6217   4.889   3.660   9.728  0.2087 -0.0023  0.0415
   51CHL1    H9 6218   4.823   3.734   9.679  0.2813 -0.5539 -0.9158
   51CHL1   C10 6219   4.844   3.638   9.876  0.2441 -0.9943  0.2182
   51CHL1   C19 6220   4.935   3.539   9.948 -0.2298 -0.5674  0.3779
   51CHL1  H19A 6221   5.038   3.577   9.963 -0.5700 -0.1471  1.7561
   51CHL1  H19B 6222   4.906   3.510  10.051  1.6330 -3.8087  0.1515
   51CHL1  H19C 6223   4.940   3.438   9.902 -0.1946 -0.3034 -0.1984
   51CHL1    C1 6224   4.826   3.779   9.944  0.0327  0.6265 -0.2135
   51CHL1   H1A 6225   4.923   3.833   9.950  0.6362 -0.4283 -0.2083
   51CHL1   H1B 6226   4.773   3.836   9.865  2.2138 -0.5953 -2.7125
   51CHL1    C2 6227   4.772   3.775  10.085  0.5758 -0.0321 -1.0277
   51CHL1   H2A 6228   4.778   3.872  10.139  1.1240  0.8458 -2.6202
   51CHL1   H2B 6229   4.842   3.708  10.140  0.4096  0.4652 -0.1999
   51CHL1   C20 6230   5.202   3.653   9.260  0.1283  0.6787  0.0926
   51CHL1   H20 6231   5.261   3.562   9.283 -1.8165 -0.5348  0.5025
   51CHL1   C21 6232   5.273   3.773   9.324 -0.4674 -0.4764  0.3389
   51CHL1  H21A 6233   5.333   3.732   9.408  0.0269 -3.8021 -1.4723
   51CHL1  H21B 6234   5.208   3.858   9.353  0.1093  0.4088 -0.8938
   51CHL1  H21C 6235   5.334   3.819   9.243 -2.3284 -0.2954 -1.0297
   51CHL1   C22 6236   5.187   3.659   9.107 -0.2257 -0.3022 -1.0551
   51CHL1  H22A 6237   5.090   3.612   9.080 -1.0126  0.3247  0.5719
   51CHL1  H22B 6238   5.190   3.765   9.075 -1.3450 -0.0078 -0.2342
   51CHL1   C23 6239   5.296   3.582   9.032  0.1944  0.2835  0.3512
   51CHL1  H23A 6240   5.396   3.614   9.069  0.4296 -0.1131  0.0653
   51CHL1  H23B 6241   5.276   3.478   9.064  0.4344  0.7971  2.2707
   51CHL1   C24 6242   5.287   3.602   8.880 -0.0105 -0.6755  0.2775
   51CHL1  H24A 6243   5.190   3.561   8.846 -0.1756  1.0209 -1.5180
   51CHL1  H24B 6244   5.279   3.712   8.864 -0.7354 -0.3730  2.4597
   51CHL1   C25 6245   5.409   3.556   8.799  0.3341  0.4194  1.1048
   51CHL1   H25 6246   5.485   3.636   8.812 -0.9161  1.6828  1.0246
   51CHL1   C26 6247   5.470   3.425   8.849 -1.0037 -0.4670  0.4304
   51CHL1  H26A 6248   5.519   3.444   8.947  1.7368 -0.1591 -0.8807
   51CHL1  H26B 6249   5.399   3.340   8.855  0.6004 -2.1457 -2.1805
   51CHL1  H26C 6250   5.548   3.400   8.773 -1.8340  2.7767 -1.6976
   51CHL1   C27 6251   5.374   3.554   8.651 -0.3517  0.4239  0.5523
   51CHL1  H27A 6252   5.350   3.657   8.617 -0.1965  0.2420 -0.1399
   51CHL1  H27B 6253   5.443   3.498   8.583 -0.3577 -0.9152  1.5919
   51CHL1  H27C 6254   5.279   3.498   8.638  0.4879 -1.0906  0.6488
   52CHL1    C3 6255   3.318   3.321  10.074 -0.0006  0.5377  1.0733
   52CHL1    H3 6256   3.302   3.428  10.048 -3.0205 -0.3382 -1.2592
   52CHL1    O3 6257   3.315   3.308  10.213  0.2207 -0.1129  0.1855
   52CHL1   H3' 6258   3.303   3.213  10.227  0.3677 -0.3936 -1.3927
   52CHL1    C4 6259   3.220   3.224  10.012 -0.0938 -0.0275 -0.3993
   52CHL1   H4A 6260   3.253   3.122  10.040  0.8522  0.5205  0.5595
   52CHL1   H4B 6261   3.117   3.231  10.051  0.7916 -1.0616  2.3586
   52CHL1    C5 6262   3.224   3.243   9.864 -0.6228 -0.2453 -0.5083
   52CHL1    C6 6263   3.112   3.287   9.800  0.4156  0.4625  0.4710
   52CHL1    H6 6264   3.014   3.304   9.846  0.5599 -2.2728  2.0213
   52CHL1    C7 6265   3.107   3.302   9.648 -0.4851  0.1380  0.8500
   52CHL1   H7A 6266   3.020   3.248   9.606 -0.0135  0.4460 -0.5571
   52CHL1   H7B 6267   3.101   3.409   9.622 -0.9074  0.6059  2.6780
   52CHL1    C8 6268   3.238   3.239   9.583 -0.3001  0.4302  0.3998
   52CHL1    H8 6269   3.224   3.129   9.585  3.6381 -0.3383 -2.8142
   52CHL1   C14 6270   3.244   3.289   9.431  0.7126  0.2739 -1.5120
   52CHL1   H14 6271   3.268   3.397   9.437 -0.4184  0.5378 -1.4481
   52CHL1   C15 6272   3.121   3.287   9.336 -0.2055  0.4482 -0.8075
   52CHL1  H15A 6273   3.059   3.196   9.347  0.5230  0.1599  1.2282
   52CHL1  H15B 6274   3.056   3.372   9.367  0.0055 -0.3239  1.9451
   52CHL1   C16 6275   3.181   3.306   9.193 -0.2604  0.1184  0.2038
   52CHL1  H16A 6276   3.152   3.223   9.124 -0.1706  0.3147 -0.0710
   52CHL1  H16B 6277   3.156   3.405   9.150 -0.2884 -0.7188 -1.8149
   52CHL1   C17 6278   3.332   3.295   9.208 -0.4563  0.3343  0.0313
   52CHL1   H17 6279   3.367   3.399   9.225  1.8378 -0.5375  0.9613
   52CHL1   C13 6280   3.360   3.231   9.346  0.3726  0.0993  0.4277
   52CHL1   C18 6281   3.340   3.083   9.331 -0.5800 -0.1928 -1.0709
   52CHL1  H18A 6282   3.411   3.050   9.252  1.3802 -3.2317  1.6876
   52CHL1  H18B 6283   3.350   3.030   9.429 -1.1344  0.0424 -0.8816
   52CHL1  H18C 6284   3.240   3.058   9.291 -1.0470 -2.6230  1.2646
   52CHL1   C12 6285   3.490   3.266   9.420 -0.6074 -0.0852 -0.3686
   52CHL1  H12A 6286   3.566   3.200   9.375 -0.4714 -0.6231  0.6334
   52CHL1  H12B 6287   3.522   3.372   9.408  0.3074 -0.2920  0.2199
   52CHL1   C11 6288   3.488   3.230   9.573 -0.3568  0.4893  0.9193
   52CHL1  H11A 6289   3.488   3.119   9.561 -0.0585  0.6606 -1.0941
   52CHL1  H11B 6290   3.588   3.247   9.617  0.2057 -0.9463  0.2717
   52CHL1    C9 6291   3.369   3.273   9.651 -0.2787  0.0621 -0.1562
   52CHL1    H9 6292   3.370   3.385   9.653 -1.0404  0.1575 -2.2707
   52CHL1   C10 6293   3.370   3.219   9.797  0.1246  0.4259 -0.2544
   52CHL1   C19 6294   3.406   3.070   9.804  0.0561  0.1745  0.2641
   52CHL1  H19A 6295   3.511   3.061   9.767 -0.4898  1.9161 -1.9864
   52CHL1  H19B 6296   3.400   3.035   9.909  0.3930 -0.3078  0.1260
   52CHL1  H19C 6297   3.333   3.004   9.753 -0.4345 -1.0633  2.4740
   52CHL1    C1 6298   3.481   3.289   9.878  1.0756 -0.1583  0.3538
   52CHL1   H1A 6299   3.583   3.264   9.844  0.4247 -1.1147 -0.9917
   52CHL1   H1B 6300   3.454   3.397   9.871 -0.5813 -0.2303  3.6808
   52CHL1    C2 6301   3.454   3.274  10.029 -0.5724 -0.0422 -0.2183
   52CHL1   H2A 6302   3.523   3.348  10.074 -0.8758 -0.1966  0.5184
   52CHL1   H2B 6303   3.479   3.173  10.066 -0.3549  0.1137  0.0581
   52CHL1   C20 6304   3.414   3.254   9.075  0.4969  0.3327 -0.1404
   52CHL1   H20 6305   3.403   3.144   9.059 -1.6713  0.8701 -3.1629
   52CHL1   C21 6306   3.571   3.282   9.094 -0.3129 -0.3920  0.4834
   52CHL1  H21A 6307   3.577   3.366   9.166 -1.1070 -0.2329  0.3817
   52CHL1  H21B 6308   3.615   3.312   8.996 -0.6899  1.3981  0.8201
   52CHL1  H21C 6309   3.618   3.195   9.143 -1.6310 -0.1484  2.2669
   52CHL1   C22 6310   3.363   3.327   8.944  0.1077  0.0256  0.6138
   52CHL1  H22A 6311   3.436   3.298   8.866  0.1672 -0.6224  0.9089
   52CHL1  H22B 6312   3.272   3.271   8.911  1.3221 -2.9878  2.0406
   52CHL1   C23 6313   3.348   3.479   8.950 -0.2974  0.2200  1.5366
   52CHL1  H23A 6314   3.270   3.517   9.020 -0.8947  0.7247  0.6344
   52CHL1  H23B 6315   3.447   3.508   8.990  0.9291 -1.4851 -0.0558
   52CHL1   C24 6316   3.330   3.552   8.810 -0.3316  0.0567  1.3907
   52CHL1  H24A 6317   3.315   3.660   8.833 -1.3095 -0.1439  1.7577
   52CHL1  H24B 6318   3.425   3.528   8.758 -0.1546  1.9774  0.7534
   52CHL1   C25 6319   3.209   3.504   8.727 -0.0918  0.0498  0.5481
   52CHL1   H25 6320   3.218   3.394   8.739  1.3809 -0.1714 -1.9287
   52CHL1   C26 6321   3.078   3.558   8.782  0.2136  0.8140 -0.3546
   52CHL1  H26A 6322   3.078   3.535   8.891  1.5473 -0.3521 -0.5688
   52CHL1  H26B 6323   3.071   3.668   8.766 -0.0095  0.6643 -1.3325
   52CHL1  H26C 6324   2.990   3.517   8.729  0.0619  1.4879 -0.6436
   52CHL1   C27 6325   3.230   3.534   8.583  0.4170  0.6264  0.1216
   52CHL1  H27A 6326   3.334   3.513   8.552 -0.0225  1.8857 -2.4895
   52CHL1  H27B 6327   3.170   3.462   8.523  0.0366 -0.3291  1.5856
   52CHL1  H27C 6328   3.208   3.641   8.563 -1.5973  0.1420 -0.5482
   53CHL1    C3 6329   2.949   4.464  10.105  0.3182 -0.2657  0.3247
   53CHL1    H3 6330   2.969   4.572  10.094 -0.5864 -0.2048 -1.0125
   53CHL1    O3 6331   2.943   4.435  10.240 -0.4942  0.5640 -0.0588
   53CHL1   H3' 6332   2.870   4.488  10.274 -0.5321  0.6905 -0.3355
   53CHL1    C4 6333   2.816   4.419  10.027  0.1288 -0.4118 -0.9395
   53CHL1   H4A 6334   2.816   4.312  10.056 -0.2624 -0.4415 -1.0478
   53CHL1   H4B 6335   2.731   4.472  10.073  1.5780  0.8999  0.3062
   53CHL1    C5 6336   2.826   4.441   9.875 -0.0545 -0.2026  0.0682
   53CHL1    C6 6337   2.737   4.517   9.807 -0.1534  0.2452  0.3364
   53CHL1    H6 6338   2.652   4.558   9.864  0.5583  0.4710  1.2767
   53CHL1    C7 6339   2.737   4.533   9.661  0.4188  0.0169  0.2621
   53CHL1   H7A 6340   2.630   4.530   9.631 -0.2334 -0.1176  2.4666
   53CHL1   H7B 6341   2.787   4.626   9.627  1.9557 -1.2516 -1.1059
   53CHL1    C8 6342   2.832   4.428   9.589 -0.1350  0.2650 -0.1986
   53CHL1    H8 6343   2.782   4.329   9.597 -1.1959  0.6285 -1.8681
   53CHL1   C14 6344   2.836   4.468   9.436 -0.2614  0.3997 -0.1337
   53CHL1   H14 6345   2.886   4.568   9.434  1.1885 -0.3030 -0.1737
   53CHL1   C15 6346   2.706   4.480   9.357 -0.0245  1.0609 -0.2333
   53CHL1  H15A 6347   2.646   4.395   9.396  0.5603  0.6569 -0.2117
   53CHL1  H15B 6348   2.636   4.566   9.373 -1.3665 -0.0974  0.2983
   53CHL1   C16 6349   2.753   4.466   9.211 -0.0434  0.9611  0.0286
   53CHL1  H16A 6350   2.705   4.377   9.163 -0.4175  1.6527 -0.9148
   53CHL1  H16B 6351   2.739   4.558   9.150  0.2515  0.5183 -0.7217
   53CHL1   C17 6352   2.901   4.436   9.214 -0.3459 -0.3693 -0.4101
   53CHL1   H17 6353   2.949   4.536   9.212  0.0955 -0.5810 -1.1743
   53CHL1   C13 6354   2.928   4.379   9.352  0.6878 -0.3217 -1.0738
   53CHL1   C18 6355   2.876   4.227   9.344 -0.2850 -0.2041  0.0389
   53CHL1  H18A 6356   2.881   4.172   9.440  1.7816 -1.6583 -0.8263
   53CHL1  H18B 6357   2.770   4.225   9.311 -0.6656  2.0686  0.9749
   53CHL1  H18C 6358   2.933   4.159   9.276 -0.0423  1.0793 -1.0962
   53CHL1   C12 6359   3.069   4.392   9.419  0.1771 -0.3382  0.1664
   53CHL1  H12A 6360   3.134   4.314   9.372 -0.3655 -1.5704  1.3937
   53CHL1  H12B 6361   3.102   4.498   9.412 -1.4808  0.1668 -0.2683
   53CHL1   C11 6362   3.069   4.359   9.576 -0.4493 -0.4756  0.5778
   53CHL1  H11A 6363   3.046   4.250   9.573 -1.8126 -0.2718  2.1702
   53CHL1  H11B 6364   3.172   4.368   9.616 -0.4834  1.4726  0.2931
   53CHL1    C9 6365   2.960   4.431   9.657  0.0566 -0.2195  0.0244
   53CHL1    H9 6366   3.003   4.534   9.664 -2.2201  0.6738  2.7456
   53CHL1   C10 6367   2.954   4.384   9.808  0.1136  0.0803 -0.6729
   53CHL1   C19 6368   2.931   4.228   9.815  0.1557  0.0789 -0.6016
   53CHL1  H19A 6369   2.933   4.199   9.922 -0.8765  1.6737 -0.1059
   53CHL1  H19B 6370   2.833   4.197   9.772  0.3109 -0.4153 -0.5967
   53CHL1  H19C 6371   3.019   4.174   9.774  0.5937  1.5229 -1.6298
   53CHL1    C1 6372   3.074   4.435   9.891  0.1811 -0.0203  0.8727
   53CHL1   H1A 6373   3.164   4.399   9.838 -0.2121 -1.8970  1.3825
   53CHL1   H1B 6374   3.076   4.546   9.894  1.2724 -0.0366  1.2097
   53CHL1    C2 6375   3.075   4.397  10.040  0.5036 -0.1429  0.1520
   53CHL1   H2A 6376   3.167   4.445  10.079  0.3229  0.1974  0.1631
   53CHL1   H2B 6377   3.067   4.287  10.056 -1.6956 -0.1764 -0.8081
   53CHL1   C20 6378   2.951   4.360   9.089  0.9822  0.3989 -0.8306
   53CHL1   H20 6379   2.881   4.276   9.069 -0.7175  0.4351  3.7367
   53CHL1   C21 6380   3.102   4.316   9.102 -0.8164 -0.8481  0.3032
   53CHL1  H21A 6381   3.130   4.267   9.006  0.5218  0.8584 -0.2439
   53CHL1  H21B 6382   3.120   4.232   9.172  1.3394 -1.3294 -0.7408
   53CHL1  H21C 6383   3.166   4.407   9.102 -0.4601 -1.0920 -0.4010
   53CHL1   C22 6384   2.938   4.450   8.962  0.3508  0.5443 -0.8551
   53CHL1  H22A 6385   2.848   4.514   8.960 -0.6166 -0.7872 -2.2888
   53CHL1  H22B 6386   3.022   4.521   8.981  2.6796 -1.8525 -1.4804
   53CHL1   C23 6387   2.968   4.386   8.828 -0.2030  0.4116  0.4098
   53CHL1  H23A 6388   3.064   4.329   8.825 -0.4991 -0.0656 -0.3121
   53CHL1  H23B 6389   2.887   4.324   8.783  0.2171  1.1498 -1.4750
   53CHL1   C24 6390   3.022   4.498   8.729  0.5734 -0.3793  0.3621
   53CHL1  H24A 6391   3.103   4.558   8.776  0.6589  0.0927 -0.3629
   53CHL1  H24B 6392   3.065   4.452   8.638 -1.1475 -3.0217  0.7937
   53CHL1   C25 6393   2.913   4.601   8.689  0.9491  0.2415 -0.2721
   53CHL1   H25 6394   2.857   4.628   8.782  0.5903 -1.8981  0.1947
   53CHL1   C26 6395   2.969   4.722   8.616  0.0771 -0.7810 -0.8251
   53CHL1  H26A 6396   2.896   4.802   8.641  0.3768 -0.4456 -1.0088
   53CHL1  H26B 6397   3.075   4.743   8.643 -0.1433  0.0852 -0.5943
   53CHL1  H26C 6398   2.965   4.702   8.506 -0.2183 -0.0921 -0.9498
   53CHL1   C27 6399   2.807   4.547   8.591 -0.2601 -0.5178  0.1692
   53CHL1  H27A 6400   2.735   4.472   8.629  0.5839 -2.6559 -2.1608
   53CHL1  H27B 6401   2.742   4.628   8.551  0.2825  0.5115  1.2880
   53CHL1  H27C 6402   2.855   4.504   8.500 -1.2423  1.0605 -1.1594
   54CHL1    C3 6403   3.985   4.278  10.023 -0.3934  0.1194  0.1050
   54CHL1    H3 6404   3.878   4.250  10.026 -0.8434  1.6926  3.5503
   54CHL1    O3 6405   4.027   4.278  10.158  0.1131 -0.7339  0.4248
   54CHL1   H3' 6406   4.099   4.341  10.158 -0.0093 -0.5938  0.3795
   54CHL1    C4 6407   4.066   4.162   9.957 -0.2211 -0.1845 -0.0077
   54CHL1   H4A 6408   4.174   4.175   9.978 -0.1751 -0.3691 -0.1293
   54CHL1   H4B 6409   4.038   4.067  10.007 -0.3050 -0.3078 -0.2823
   54CHL1    C5 6410   4.046   4.165   9.805  1.1326 -0.2832  0.0281
   54CHL1    C6 6411   4.000   4.059   9.744 -0.3097 -0.2207 -0.0479
   54CHL1    H6 6412   4.001   3.968   9.805  2.8961 -1.0245 -1.1461
   54CHL1    C7 6413   3.966   4.038   9.599  0.1854 -0.7182  0.0530
   54CHL1   H7A 6414   4.026   3.948   9.574  0.4389 -1.1146  1.9536
   54CHL1   H7B 6415   3.858   4.038   9.570 -0.0999  3.2769  0.4801
   54CHL1    C8 6416   4.038   4.152   9.515 -0.2546 -0.3612  0.0631
   54CHL1    H8 6417   4.145   4.125   9.506 -0.3996 -0.4090 -1.8876
   54CHL1   C14 6418   3.981   4.149   9.376 -0.2275  0.0641 -0.6989
   54CHL1   H14 6419   3.873   4.173   9.387 -0.2778  0.4447 -1.8467
   54CHL1   C15 6420   3.985   4.013   9.306 -0.5864 -0.5770 -0.4174
   54CHL1  H15A 6421   4.089   3.974   9.314 -0.2209  0.7050  2.2306
   54CHL1  H15B 6422   3.904   3.949   9.347 -0.8484 -0.3640 -0.5986
   54CHL1   C16 6423   3.958   4.051   9.155 -0.2188  0.5594  0.1923
   54CHL1  H16A 6424   4.037   3.994   9.101 -0.4066  0.1354  0.3637
   54CHL1  H16B 6425   3.854   4.026   9.127 -0.1661 -0.0256  0.5050
   54CHL1   C17 6426   3.963   4.209   9.148 -0.5719  0.1749  0.8144
   54CHL1   H17 6427   3.859   4.248   9.147 -0.6368  0.0291  1.3247
   54CHL1   C13 6428   4.031   4.252   9.279  0.2547 -0.3950 -0.0715
   54CHL1   C18 6429   4.179   4.241   9.261  0.3033  0.6481 -0.9547
   54CHL1  H18A 6430   4.229   4.275   9.354  1.8815  0.3344 -1.6512
   54CHL1  H18B 6431   4.213   4.136   9.250 -2.9880 -0.3994 -2.3009
   54CHL1  H18C 6432   4.230   4.301   9.182  1.2355  0.2601 -0.6635
   54CHL1   C12 6433   4.001   4.389   9.337 -0.0290 -0.2634  0.9865
   54CHL1  H12A 6434   4.039   4.470   9.271 -1.1960 -0.2020  0.3792
   54CHL1  H12B 6435   3.890   4.391   9.337 -0.0364 -0.1293  2.0649
   54CHL1   C11 6436   4.057   4.409   9.479 -0.0689 -0.8706  0.3160
   54CHL1  H11A 6437   4.168   4.418   9.479 -0.1224 -0.1026  1.1234
   54CHL1  H11B 6438   4.014   4.500   9.526  0.9353  0.5080 -1.3146
   54CHL1    C9 6439   4.016   4.292   9.578  0.7006  0.1822 -0.1237
   54CHL1    H9 6440   3.905   4.303   9.584  0.3987 -2.8463  1.5631
   54CHL1   C10 6441   4.068   4.296   9.724 -0.1233 -0.1951 -0.8917
   54CHL1   C19 6442   4.221   4.312   9.734  0.3185 -0.0233  0.6115
   54CHL1  H19A 6443   4.245   4.412   9.692 -1.2484 -0.1676 -0.7375
   54CHL1  H19B 6444   4.261   4.313   9.838 -0.6085 -2.0176  1.0247
   54CHL1  H19C 6445   4.274   4.235   9.675 -1.0422 -1.0004  0.6229
   54CHL1    C1 6446   3.991   4.408   9.802  0.4136 -0.4261 -0.1278
   54CHL1   H1A 6447   3.999   4.510   9.758 -1.1427  0.9694  2.5821
   54CHL1   H1B 6448   3.883   4.388   9.788 -0.7136  2.2198  3.2624
   54CHL1    C2 6449   4.010   4.413   9.951  0.2694  0.2145 -0.2352
   54CHL1   H2A 6450   3.944   4.487  10.001 -0.5660  0.2234 -1.2933
   54CHL1   H2B 6451   4.112   4.451   9.969  0.0882  1.3302 -1.4390
   54CHL1   C20 6452   4.027   4.257   9.014  0.0386  0.0818 -0.0105
   54CHL1   H20 6453   4.138   4.260   9.023 -0.1158  1.8787  2.4112
   54CHL1   C21 6454   3.989   4.408   8.988 -0.1691 -0.2417  0.0328
   54CHL1  H21A 6455   3.880   4.430   8.981 -0.7364 -2.3706  1.1360
   54CHL1  H21B 6456   4.031   4.426   8.887 -0.2291  0.3987  0.1226
   54CHL1  H21C 6457   4.033   4.482   9.057 -0.1758  1.5856 -1.8362
   54CHL1   C22 6458   3.971   4.177   8.888  0.4200 -0.0349  0.3998
   54CHL1  H22A 6459   4.032   4.193   8.797 -0.8945  0.5263 -0.4075
   54CHL1  H22B 6460   3.972   4.066   8.895 -1.2246 -0.1604 -0.7545
   54CHL1   C23 6461   3.823   4.197   8.849  0.5253 -0.1169  0.2093
   54CHL1  H23A 6462   3.772   4.194   8.948 -2.3467  0.5507 -1.1487
   54CHL1  H23B 6463   3.801   4.301   8.816  2.6840  1.2191  2.5997
   54CHL1   C24 6464   3.764   4.099   8.751  0.8522  0.2160 -0.2109
   54CHL1  H24A 6465   3.759   3.993   8.786 -0.5322  0.6635  1.0949
   54CHL1  H24B 6466   3.655   4.119   8.740  0.3973 -2.6741 -1.7842
   54CHL1   C25 6467   3.809   4.084   8.600 -0.3113  0.1713 -0.2058
   54CHL1   H25 6468   3.915   4.052   8.593 -0.1296  1.0015 -1.7791
   54CHL1   C26 6469   3.737   3.976   8.523  0.1752 -0.4194 -0.0255
   54CHL1  H26A 6470   3.779   3.951   8.423 -2.0181  0.7244 -1.3176
   54CHL1  H26B 6471   3.702   3.886   8.577 -1.1154 -1.2791 -2.1671
   54CHL1  H26C 6472   3.640   4.016   8.486 -0.7252 -0.6845  1.9090
   54CHL1   C27 6473   3.790   4.215   8.522  0.6315  0.0422  0.5023
   54CHL1  H27A 6474   3.683   4.243   8.517  0.9084  0.8839 -2.2613
   54CHL1  H27B 6475   3.842   4.302   8.568 -1.0013  0.9678  0.6804
   54CHL1  H27C 6476   3.824   4.206   8.417  3.2851 -0.4520  1.3417
   55CHL1    C3 6477   3.902   2.665  10.063  0.2422 -0.0186 -0.1546
   55CHL1    H3 6478   4.009   2.694  10.063  0.1309  0.4036 -0.3981
   55CHL1    O3 6479   3.868   2.621  10.190 -0.2260  0.9661 -0.2212
   55CHL1   H3' 6480   3.938   2.643  10.252 -1.5946 -1.3688  2.3930
   55CHL1    C4 6481   3.831   2.804  10.038  0.4018  0.3233  0.8058
   55CHL1   H4A 6482   3.722   2.783  10.049  1.0006 -2.7301  1.8063
   55CHL1   H4B 6483   3.864   2.882  10.110  1.0843  0.6252  0.1788
   55CHL1    C5 6484   3.852   2.849   9.896  0.1432  0.0425 -0.4058
   55CHL1    C6 6485   3.881   2.976   9.875 -0.1094  0.1704  0.3810
   55CHL1    H6 6486   3.895   3.041   9.963 -1.4377  0.7552  0.1853
   55CHL1    C7 6487   3.899   3.039   9.735  0.1097 -0.0301 -0.0057
   55CHL1   H7A 6488   3.841   3.134   9.735  0.4720  0.1950 -0.3144
   55CHL1   H7B 6489   4.005   3.065   9.715  0.0804 -0.5296 -0.8418
   55CHL1    C8 6490   3.846   2.944   9.630  0.3647 -0.0880 -0.1527
   55CHL1    H8 6491   3.736   2.963   9.630  0.2299 -0.5608  2.1913
   55CHL1   C14 6492   3.906   2.983   9.486  0.6513  0.0971  0.3576
   55CHL1   H14 6493   4.015   2.968   9.501  0.6393  1.7083  2.4212
   55CHL1   C15 6494   3.893   3.127   9.430 -0.4077 -0.2356 -0.1189
   55CHL1  H15A 6495   3.792   3.169   9.448 -0.0850  0.6744 -0.3874
   55CHL1  H15B 6496   3.962   3.190   9.490  1.4187 -3.1767  1.1049
   55CHL1   C16 6497   3.920   3.123   9.277  0.0630 -0.4327 -0.3898
   55CHL1  H16A 6498   3.838   3.184   9.232  0.9769  1.0541 -0.0959
   55CHL1  H16B 6499   4.013   3.165   9.234 -0.8033  0.2176 -1.6979
   55CHL1   C17 6500   3.922   2.971   9.239  0.2325  0.4840  0.3120
   55CHL1   H17 6501   4.027   2.935   9.239  0.1069 -0.0132 -1.7743
   55CHL1   C13 6502   3.865   2.893   9.365 -0.1052 -0.3483 -0.4469
   55CHL1   C18 6503   3.715   2.892   9.343  0.3816 -0.1646 -0.7270
   55CHL1  H18A 6504   3.687   2.797   9.293  1.6750 -1.7455  1.3624
   55CHL1  H18B 6505   3.660   2.889   9.440  2.0100  1.8987  0.3402
   55CHL1  H18C 6506   3.671   2.979   9.289 -2.5806 -2.2115 -1.8697
   55CHL1   C12 6507   3.927   2.757   9.395 -0.5505  0.1002 -0.0539
   55CHL1  H12A 6508   3.911   2.680   9.317 -0.2539 -0.3388  0.3101
   55CHL1  H12B 6509   4.035   2.778   9.402 -0.8375  1.4050  1.0044
   55CHL1   C11 6510   3.868   2.703   9.521 -0.8693 -0.4855  0.4727
   55CHL1  H11A 6511   3.762   2.670   9.509 -0.9812  0.3016 -0.8453
   55CHL1  H11B 6512   3.927   2.613   9.550 -1.1108  0.1517  3.2473
   55CHL1    C9 6513   3.893   2.800   9.649  0.0380  0.4418 -0.2127
   55CHL1    H9 6514   4.002   2.815   9.659 -0.2060  1.1990  1.7999
   55CHL1   C10 6515   3.838   2.740   9.781 -0.4883  0.5264  0.8895
   55CHL1   C19 6516   3.689   2.717   9.764 -0.1179 -0.1723  0.0180
   55CHL1  H19A 6517   3.646   2.709   9.866  3.1864  0.7153  1.6044
   55CHL1  H19B 6518   3.643   2.813   9.731 -0.8346 -0.4067  0.3147
   55CHL1  H19C 6519   3.661   2.628   9.704 -0.9799 -2.0498  2.9991
   55CHL1    C1 6520   3.903   2.595   9.816 -0.0421 -1.5738  0.4770
   55CHL1   H1A 6521   3.877   2.506   9.754  0.2893  0.4408 -2.8105
   55CHL1   H1B 6522   4.013   2.602   9.799  0.0211  0.7678  1.4851
   55CHL1    C2 6523   3.879   2.551   9.964 -0.2030 -0.2914  0.6341
   55CHL1   H2A 6524   3.960   2.476   9.975  0.9071  0.5313 -1.3546
   55CHL1   H2B 6525   3.776   2.509   9.971  0.0700 -0.8860  1.1954
   55CHL1   C20 6526   3.876   2.939   9.088 -0.7164  0.0228 -0.7335
   55CHL1   H20 6527   3.769   2.964   9.071 -0.5886  0.2523 -1.2134
   55CHL1   C21 6528   3.892   2.786   9.071  0.3708  0.0903 -0.6143
   55CHL1  H21A 6529   3.992   2.750   9.104  1.2053  0.8562 -2.2149
   55CHL1  H21B 6530   3.862   2.752   8.970  1.4609  0.5577 -1.1147
   55CHL1  H21C 6531   3.814   2.723   9.119  3.7259 -2.0681  2.5516
   55CHL1   C22 6532   3.951   3.025   8.985 -0.3295  0.7427  0.7957
   55CHL1  H22A 6533   3.914   3.128   9.004 -0.5145  0.5155  1.7355
   55CHL1  H22B 6534   4.059   3.033   9.011  0.4353  1.3043 -2.2096
   55CHL1   C23 6535   3.939   2.976   8.842  0.4351 -0.1578 -0.0935
   55CHL1  H23A 6536   3.982   2.874   8.830  3.7154  1.1879 -1.1312
   55CHL1  H23B 6537   3.830   2.962   8.825 -0.0236 -2.6862  3.6806
   55CHL1   C24 6538   3.986   3.071   8.731  0.9643 -0.0921 -0.1117
   55CHL1  H24A 6539   3.928   3.166   8.735  1.6070  0.3126 -0.3079
   55CHL1  H24B 6540   4.092   3.096   8.750  1.6365 -2.1080 -0.9060
   55CHL1   C25 6541   3.970   3.018   8.587 -0.0006  1.2521 -0.3836
   55CHL1   H25 6542   4.027   2.923   8.584  0.0623  1.2612  0.4258
   55CHL1   C26 6543   3.827   2.989   8.542 -0.3209 -0.0172  0.1924
   55CHL1  H26A 6544   3.824   2.974   8.432  2.7424 -1.2871  0.1928
   55CHL1  H26B 6545   3.784   2.896   8.586  1.9115 -1.2641 -0.1277
   55CHL1  H26C 6546   3.759   3.073   8.568 -0.5731 -0.7474  2.1045
   55CHL1   C27 6547   4.045   3.110   8.495 -0.3352  0.7415  0.9286
   55CHL1  H27A 6548   4.044   3.058   8.396 -1.0657 -0.1936  1.4169
   55CHL1  H27B 6549   3.992   3.206   8.476  0.2409  0.6709 -1.4521
   55CHL1  H27C 6550   4.155   3.124   8.500 -0.0078 -0.9038 -0.5647
   56CHL1    C3 6551   5.451   6.812  10.068  0.0559  0.0043 -0.3650
   56CHL1    H3 6552   5.343   6.786  10.071  0.1875 -0.4967  1.7101
   56CHL1    O3 6553   5.515   6.813  10.200 -0.5083  0.2124  0.4755
   56CHL1   H3' 6554   5.603   6.778  10.184  0.5492  2.4753  0.8640
   56CHL1    C4 6555   5.520   6.722   9.967 -0.5454 -0.1472 -0.1572
   56CHL1   H4A 6556   5.625   6.758   9.973  0.2260 -2.1714 -0.8345
   56CHL1   H4B 6557   5.523   6.617  10.002 -1.5243  0.2223  1.1179
   56CHL1    C5 6558   5.481   6.736   9.817 -0.5652 -0.0123 -1.0111
   56CHL1    C6 6559   5.442   6.633   9.739  0.1217 -1.0175  0.1719
   56CHL1    H6 6560   5.464   6.530   9.770  3.3954 -0.2894  0.6417
   56CHL1    C7 6561   5.374   6.638   9.607  0.1632 -0.6005 -0.1773
   56CHL1   H7A 6562   5.405   6.554   9.541 -0.6299 -0.4974 -0.6911
   56CHL1   H7B 6563   5.268   6.605   9.620  0.3524 -1.2696 -0.3009
   56CHL1    C8 6564   5.396   6.764   9.532  0.3060  0.8258  0.5478
   56CHL1    H8 6565   5.502   6.769   9.501  0.1983  2.9868  0.3891
   56CHL1   C14 6566   5.307   6.781   9.408 -0.4255 -0.0731  0.5577
   56CHL1   H14 6567   5.207   6.787   9.454 -0.2170 -1.1333  1.1662
   56CHL1   C15 6568   5.322   6.673   9.296  0.4173 -0.5059 -0.7956
   56CHL1  H15A 6569   5.427   6.637   9.295  0.2902 -1.0189  0.8736
   56CHL1  H15B 6570   5.257   6.584   9.313 -0.0787 -0.7189 -3.4207
   56CHL1   C16 6571   5.275   6.738   9.174  0.3787  0.1791 -0.2332
   56CHL1  H16A 6572   5.349   6.730   9.092 -1.4202 -2.1931 -1.7427
   56CHL1  H16B 6573   5.177   6.695   9.144 -0.9676  2.0285  1.2373
   56CHL1   C17 6574   5.240   6.888   9.210  0.6184 -0.1312 -1.2728
   56CHL1   H17 6575   5.133   6.882   9.241  0.3672 -3.6541 -2.3871
   56CHL1   C13 6576   5.328   6.915   9.336  0.3154  0.0034 -0.1586
   56CHL1   C18 6577   5.471   6.938   9.289  0.8702 -0.5407 -0.4492
   56CHL1  H18A 6578   5.543   6.934   9.373 -0.7698  0.1804  1.0776
   56CHL1  H18B 6579   5.503   6.864   9.213  1.0043  0.6585 -1.6060
   56CHL1  H18C 6580   5.475   7.040   9.243 -0.5194 -1.0984 -1.9077
   56CHL1   C12 6581   5.284   7.026   9.430  0.4894 -0.7840  0.3700
   56CHL1  H12A 6582   5.301   7.131   9.398 -1.0636 -0.0237  1.9342
   56CHL1  H12B 6583   5.176   7.018   9.451  0.2498 -0.3880 -0.6824
   56CHL1   C11 6584   5.357   7.020   9.565 -0.6603 -0.1759 -0.0422
   56CHL1  H11A 6585   5.463   7.046   9.543  0.4872 -3.1105  1.4199
   56CHL1  H11B 6586   5.306   7.094   9.630  1.0111  0.0437  1.0970
   56CHL1    C9 6587   5.365   6.881   9.635 -0.0740 -0.5947 -0.4038
   56CHL1    H9 6588   5.262   6.857   9.669  0.4892 -0.1267  1.8344
   56CHL1   C10 6589   5.460   6.880   9.763 -0.4595 -0.0532  0.1781
   56CHL1   C19 6590   5.598   6.936   9.720 -0.2294  0.6510  0.0690
   56CHL1  H19A 6591   5.594   7.047   9.722 -0.0086  0.6662  2.0697
   56CHL1  H19B 6592   5.681   6.904   9.786  0.4556 -1.0780 -1.5408
   56CHL1  H19C 6593   5.608   6.890   9.620 -0.0834  0.7198  0.0518
   56CHL1    C1 6594   5.385   6.959   9.882  0.6937  0.3015 -0.9114
   56CHL1   H1A 6595   5.366   7.063   9.846 -4.2499  0.2625  0.8771
   56CHL1   H1B 6596   5.287   6.910   9.899  1.0431 -0.3192 -0.6530
   56CHL1    C2 6597   5.460   6.960  10.012 -0.2272 -0.1104  0.2349
   56CHL1   H2A 6598   5.401   7.019  10.085 -2.1651 -2.8610  1.0609
   56CHL1   H2B 6599   5.566   6.992  10.005  0.5581 -2.7879 -1.4927
   56CHL1   C20 6600   5.249   6.977   9.085 -0.0466 -0.2345  0.0182
   56CHL1   H20 6601   5.355   7.000   9.059 -1.2684  1.0819 -4.8202
   56CHL1   C21 6602   5.174   7.102   9.121 -0.2511  0.2614 -0.0710
   56CHL1  H21A 6603   5.207   7.151   9.216  0.8489 -2.2508  0.9453
   56CHL1  H21B 6604   5.067   7.073   9.117  0.0919 -0.9172 -1.2227
   56CHL1  H21C 6605   5.182   7.186   9.048  2.2953  0.1580  0.0068
   56CHL1   C22 6606   5.181   6.915   8.959  0.4385 -0.4506 -0.7604
   56CHL1  H22A 6607   5.220   6.812   8.942  1.2777 -0.1605 -0.6528
   56CHL1  H22B 6608   5.070   6.921   8.966  0.4712 -0.0949 -0.5457
   56CHL1   C23 6609   5.219   7.001   8.830  0.3890  0.4147  0.2461
   56CHL1  H23A 6610   5.172   7.101   8.837  3.6282  1.9830  5.5415
   56CHL1  H23B 6611   5.329   7.010   8.836  1.1413 -4.8357 -0.5114
   56CHL1   C24 6612   5.192   6.924   8.697  0.8442  0.4706 -0.5093
   56CHL1  H24A 6613   5.241   6.824   8.697  1.3168  0.6695  1.1513
   56CHL1  H24B 6614   5.085   6.896   8.707  0.2593  2.7500  0.3299
   56CHL1   C25 6615   5.218   6.999   8.564 -0.2559  0.1552  0.4248
   56CHL1   H25 6616   5.193   6.933   8.479 -0.1035  0.9664 -0.2568
   56CHL1   C26 6617   5.135   7.125   8.544 -0.3592 -0.4156  0.0692
   56CHL1  H26A 6618   5.026   7.105   8.553 -0.2596 -0.8635  0.2870
   56CHL1  H26B 6619   5.162   7.195   8.625  0.3860  0.7394 -1.1277
   56CHL1  H26C 6620   5.143   7.170   8.442  0.6530 -2.1921 -0.6902
   56CHL1   C27 6621   5.368   7.032   8.554 -0.4320  0.0123 -0.1735
   56CHL1  H27A 6622   5.430   6.940   8.555 -0.0150  0.2873  0.3729
   56CHL1  H27B 6623   5.390   7.077   8.454  3.6077 -0.7900  0.1772
   56CHL1  H27C 6624   5.388   7.090   8.647 -2.9771  2.1759 -0.8443
   57CHL1    C3 6625   2.807   1.181  10.293  0.0895  0.0707  0.0018
   57CHL1    H3 6626   2.900   1.202  10.235 -1.2711  0.6971 -2.0459
   57CHL1    O3 6627   2.823   1.252  10.416 -0.1852 -0.1563 -0.4953
   57CHL1   H3' 6628   2.904   1.222  10.459  0.2773  0.0532 -1.2028
   57CHL1    C4 6629   2.690   1.243  10.221  0.5566  0.0328  0.7262
   57CHL1   H4A 6630   2.601   1.234  10.287  1.4742 -0.7500  1.8968
   57CHL1   H4B 6631   2.714   1.350  10.202  1.6754 -0.5765 -1.6036
   57CHL1    C5 6632   2.650   1.177  10.087 -0.3988  0.0759  0.6618
   57CHL1    C6 6633   2.647   1.241   9.967 -0.6202 -0.0792 -0.6674
   57CHL1    H6 6634   2.671   1.349   9.970 -3.3603  0.6345 -0.7022
   57CHL1    C7 6635   2.624   1.186   9.832  0.2166 -1.2345  0.9680
   57CHL1   H7A 6636   2.549   1.241   9.772  1.0929  0.0721  1.0387
   57CHL1   H7B 6637   2.718   1.189   9.773 -0.7738  1.6825 -0.6392
   57CHL1    C8 6638   2.564   1.045   9.842 -0.7943 -0.1461  0.4263
   57CHL1    H8 6639   2.459   1.057   9.877 -0.9053 -1.1974  0.5002
   57CHL1   C14 6640   2.555   0.976   9.703  0.3435  0.2902 -0.3771
   57CHL1   H14 6641   2.661   0.960   9.676  0.9709  2.2597  0.8185
   57CHL1   C15 6642   2.492   1.052   9.589  0.3787 -0.9442 -0.2911
   57CHL1  H15A 6643   2.392   1.092   9.618 -0.7017 -1.3500 -3.1444
   57CHL1  H15B 6644   2.561   1.129   9.547 -1.6360  0.5144 -1.1240
   57CHL1   C16 6645   2.455   0.932   9.489  0.4402  0.3136 -0.1571
   57CHL1  H16A 6646   2.345   0.920   9.486  0.5810 -1.0255 -0.3167
   57CHL1  H16B 6647   2.501   0.939   9.388 -1.0122 -0.5882 -0.9030
   57CHL1   C17 6648   2.506   0.800   9.558  0.3564 -1.3562 -0.1672
   57CHL1   H17 6649   2.614   0.783   9.537  0.0725 -1.9437 -1.2269
   57CHL1   C13 6650   2.494   0.836   9.700  0.0430 -1.3228 -0.1616
   57CHL1   C18 6651   2.340   0.836   9.746 -0.3099  0.2242 -0.5177
   57CHL1  H18A 6652   2.318   0.728   9.764  1.5113 -0.0077  0.5822
   57CHL1  H18B 6653   2.326   0.893   9.840  0.8003  0.5237 -0.5147
   57CHL1  H18C 6654   2.277   0.870   9.662 -1.9930  0.7550  0.9159
   57CHL1   C12 6655   2.581   0.750   9.797  0.0761  0.0246  0.5293
   57CHL1  H12A 6656   2.538   0.647   9.806  1.5207 -0.9456 -2.5280
   57CHL1  H12B 6657   2.677   0.734   9.744 -0.4207 -0.2816 -0.3075
   57CHL1   C11 6658   2.592   0.812   9.938  0.1423  0.2345 -0.6195
   57CHL1  H11A 6659   2.492   0.801   9.986 -0.8273 -0.2954 -2.6136
   57CHL1  H11B 6660   2.654   0.751  10.006 -0.8871  2.2059  2.2791
   57CHL1    C9 6661   2.635   0.962   9.952 -0.4512 -0.4291 -0.1163
   57CHL1    H9 6662   2.736   0.951   9.906 -1.3104  0.4571 -2.3691
   57CHL1   C10 6663   2.625   1.017  10.097  0.2961  0.0905  0.1249
   57CHL1   C19 6664   2.484   0.991  10.163  0.0458 -0.1522  0.9618
   57CHL1  H19A 6665   2.487   0.889  10.207  0.1899  0.3749  2.2043
   57CHL1  H19B 6666   2.471   1.059  10.250 -0.7276 -0.8602  1.4184
   57CHL1  H19C 6667   2.400   0.996  10.091  0.5890 -3.8414 -0.1495
   57CHL1    C1 6668   2.745   0.961  10.183  0.5265 -0.2807 -0.1929
   57CHL1   H1A 6669   2.728   0.851  10.192 -0.4969 -0.2248 -1.2370
   57CHL1   H1B 6670   2.830   0.982  10.114  0.7535 -0.0980  0.1393
   57CHL1    C2 6671   2.777   1.029  10.313 -0.0936 -0.0323 -0.5094
   57CHL1   H2A 6672   2.863   0.972  10.355 -1.0745  0.5392  2.6096
   57CHL1   H2B 6673   2.699   1.005  10.389  0.0969  2.3517  0.5125
   57CHL1   C20 6674   2.433   0.671   9.501 -0.2217 -0.3569  0.5051
   57CHL1   H20 6675   2.332   0.668   9.548 -0.1938  0.0594  0.5942
   57CHL1   C21 6676   2.507   0.549   9.528 -0.4736  0.1702  0.3046
   57CHL1  H21A 6677   2.431   0.472   9.503  0.5796 -0.3441 -1.4737
   57CHL1  H21B 6678   2.533   0.536   9.635  0.6248  1.3262  0.1941
   57CHL1  H21C 6679   2.582   0.518   9.451 -2.0542 -1.9684 -0.4764
   57CHL1   C22 6680   2.391   0.668   9.345  0.5207  0.1479 -0.5842
   57CHL1  H22A 6681   2.340   0.571   9.328  2.2016 -1.1843  1.3810
   57CHL1  H22B 6682   2.314   0.749   9.345  1.1507  0.8654  2.0536
   57CHL1   C23 6683   2.497   0.692   9.238 -0.0088 -0.1346 -0.4415
   57CHL1  H23A 6684   2.532   0.797   9.239 -0.6806  0.1036  0.7753
   57CHL1  H23B 6685   2.582   0.626   9.264  0.0636 -0.9482 -2.5406
   57CHL1   C24 6686   2.438   0.662   9.103 -0.6428 -0.0511  0.5503
   57CHL1  H24A 6687   2.408   0.555   9.094  0.0806 -0.3528  1.5519
   57CHL1  H24B 6688   2.349   0.726   9.088  0.7308  1.6467 -0.8041
   57CHL1   C25 6689   2.531   0.700   8.984  0.7476 -0.3697  0.5204
   57CHL1   H25 6690   2.571   0.803   8.997 -0.6179  0.0643  1.4996
   57CHL1   C26 6691   2.662   0.618   8.985  0.6540  0.2001  0.4187
   57CHL1  H26A 6692   2.723   0.658   9.068  0.4142 -1.7208  1.5854
   57CHL1  H26B 6693   2.636   0.512   9.005 -0.7378  0.8103  2.1577
   57CHL1  H26C 6694   2.711   0.624   8.885 -0.2616  0.9638 -0.0025
   57CHL1   C27 6695   2.462   0.685   8.846 -0.0637 -0.3223 -0.3884
   57CHL1  H27A 6696   2.364   0.737   8.844 -0.0701 -0.3393 -0.4957
   57CHL1  H27B 6697   2.529   0.708   8.761 -0.6181  0.0834 -0.7149
   57CHL1  H27C 6698   2.443   0.575   8.845  0.4158 -0.4370  0.8557
   58CHL1    C3 6699   5.196   5.904  10.168  0.1321 -0.1182  0.4727
   58CHL1    H3 6700   5.257   5.988  10.127 -1.6989  1.8121  1.4615
   58CHL1    O3 6701   5.247   5.852  10.294 -0.4505 -0.5181  0.3710
   58CHL1   H3' 6702   5.182   5.789  10.327  0.3810  0.0314  3.3607
   58CHL1    C4 6703   5.056   5.974  10.191 -0.0973 -0.1022 -0.4303
   58CHL1   H4A 6704   4.989   5.904  10.245  0.3660  0.7036  1.2850
   58CHL1   H4B 6705   5.080   6.056  10.262  1.8698 -0.7873 -0.2217
   58CHL1    C5 6706   4.979   6.002  10.067  0.3484 -0.2235  0.3247
   58CHL1    C6 6707   4.942   6.127  10.035  0.1209  0.3527 -0.1127
   58CHL1    H6 6708   4.963   6.207  10.109 -0.2387  1.0366 -0.7386
   58CHL1    C7 6709   4.872   6.173   9.907 -0.2549 -0.6711 -0.6939
   58CHL1   H7A 6710   4.797   6.250   9.936  1.0786  0.2923  0.3520
   58CHL1   H7B 6711   4.947   6.237   9.856  0.9513  0.5618  2.3437
   58CHL1    C8 6712   4.825   6.051   9.830 -0.5528  1.2290  0.4328
   58CHL1    H8 6713   4.739   6.004   9.883 -0.3791 -1.2095 -1.2879
   58CHL1   C14 6714   4.808   6.089   9.676  0.6742 -0.2963  0.2651
   58CHL1   H14 6715   4.908   6.118   9.636  0.4126  0.0808 -0.1304
   58CHL1   C15 6716   4.718   6.217   9.640  0.8706 -0.1134 -0.0056
   58CHL1  H15A 6717   4.624   6.202   9.698 -0.2276  0.0301 -1.6761
   58CHL1  H15B 6718   4.777   6.308   9.665 -1.7946  1.5893  0.4284
   58CHL1   C16 6719   4.691   6.202   9.488  0.4314 -0.2056  0.3039
   58CHL1  H16A 6720   4.591   6.241   9.458  0.2756 -0.8679 -0.0547
   58CHL1  H16B 6721   4.763   6.275   9.444 -0.3601  1.2771  1.3676
   58CHL1   C17 6722   4.737   6.063   9.446 -0.5271  0.6384  0.5122
   58CHL1   H17 6723   4.844   6.067   9.417 -0.6580 -2.9475 -0.9866
   58CHL1   C13 6724   4.751   5.983   9.584  0.4313  0.4463  0.2975
   58CHL1   C18 6725   4.607   5.934   9.613  0.4954 -0.5339  0.1071
   58CHL1  H18A 6726   4.612   5.899   9.719 -0.3462 -0.7336  0.0872
   58CHL1  H18B 6727   4.536   6.020   9.614  0.7559 -0.2829  1.9105
   58CHL1  H18C 6728   4.578   5.857   9.539 -2.1577 -0.0420  0.5223
   58CHL1   C12 6729   4.847   5.866   9.587 -0.0476 -0.2576 -0.1540
   58CHL1  H12A 6730   4.804   5.777   9.537 -0.4199  0.9890 -2.1584
   58CHL1  H12B 6731   4.946   5.886   9.541  1.3311  0.9925  3.0509
   58CHL1   C11 6732   4.892   5.826   9.731 -0.9685 -0.0948  0.6379
   58CHL1  H11A 6733   4.797   5.792   9.778 -0.3938 -0.1859  1.7763
   58CHL1  H11B 6734   4.956   5.736   9.721  1.0770  1.2057  1.5719
   58CHL1    C9 6735   4.938   5.940   9.824  0.5817  0.0358  0.1668
   58CHL1    H9 6736   5.027   5.984   9.774  0.4154  1.0693  0.7564
   58CHL1   C10 6737   4.979   5.885   9.961  0.6361 -0.1754 -0.3302
   58CHL1   C19 6738   4.876   5.782  10.006  0.2944 -0.0242 -0.9145
   58CHL1  H19A 6739   4.772   5.821  10.003  1.0722  2.4840  0.8574
   58CHL1  H19B 6740   4.894   5.697   9.937  1.4987 -0.1583 -0.4613
   58CHL1  H19C 6741   4.902   5.745  10.107 -2.2075  1.4892  0.3924
   58CHL1    C1 6742   5.124   5.832   9.940 -0.3283  0.3251  0.5030
   58CHL1   H1A 6743   5.115   5.741   9.877  0.2056  0.6458 -0.0512
   58CHL1   H1B 6744   5.193   5.907   9.895  2.3386 -0.8600  2.3334
   58CHL1    C2 6745   5.190   5.785  10.071 -0.3069 -0.6985 -0.3352
   58CHL1   H2A 6746   5.290   5.747  10.043 -1.0011 -2.2352 -0.8099
   58CHL1   H2B 6747   5.129   5.710  10.126 -1.5978  1.2152  0.9741
   58CHL1   C20 6748   4.671   6.002   9.321  0.1685  0.5788 -0.0073
   58CHL1   H20 6749   4.561   6.014   9.332  0.4485  1.8214  1.8776
   58CHL1   C21 6750   4.707   5.855   9.288  0.6935  0.0465 -0.3292
   58CHL1  H21A 6751   4.651   5.816   9.201 -0.1961 -0.9308  0.6474
   58CHL1  H21B 6752   4.678   5.785   9.370 -1.4675 -1.6737 -2.4361
   58CHL1  H21C 6753   4.817   5.851   9.272  0.5039  0.7664 -1.9952
   58CHL1   C22 6754   4.718   6.079   9.200  0.1188 -1.0472  0.7182
   58CHL1  H22A 6755   4.717   6.189   9.214 -0.3678 -0.5241 -2.5719
   58CHL1  H22B 6756   4.826   6.059   9.180  1.1709  3.0077  1.4138
   58CHL1   C23 6757   4.643   6.037   9.071 -0.3792  0.0300 -0.2633
   58CHL1  H23A 6758   4.658   5.929   9.048 -1.3384  0.3724 -2.8169
   58CHL1  H23B 6759   4.536   6.057   9.093 -0.0517 -0.7081  2.2945
   58CHL1   C24 6760   4.699   6.109   8.941  0.6589 -0.0125  0.7709
   58CHL1  H24A 6761   4.684   6.218   8.957  1.7428  0.0158  1.7065
   58CHL1  H24B 6762   4.808   6.088   8.935  0.9480  0.5122  3.0629
   58CHL1   C25 6763   4.632   6.070   8.807 -0.1029  0.0570 -1.0656
   58CHL1   H25 6764   4.648   5.961   8.801  1.2377  0.0658  1.2089
   58CHL1   C26 6765   4.481   6.100   8.806 -0.2078 -0.1171 -0.3108
   58CHL1  H26A 6766   4.471   6.210   8.798  2.8912  0.3547  0.8797
   58CHL1  H26B 6767   4.434   6.041   8.725 -0.8013 -0.0762 -0.0040
   58CHL1  H26C 6768   4.417   6.063   8.889 -1.1390  1.0871 -0.4681
   58CHL1   C27 6769   4.690   6.156   8.700  0.3568 -0.2407  0.5211
   58CHL1  H27A 6770   4.789   6.118   8.667  0.0171  1.8496 -3.5874
   58CHL1  H27B 6771   4.620   6.166   8.614 -1.0693 -2.3322  1.3696
   58CHL1  H27C 6772   4.698   6.261   8.736  0.7848  0.2550 -0.9498
   59CHL1    C3 6773   1.018   6.079  10.338  0.5474  0.7190  0.5297
   59CHL1    H3 6774   1.128   6.076  10.323  0.4722 -1.1569  0.1322
   59CHL1    O3 6775   1.002   6.091  10.477  0.0717  0.1950 -0.4738
   59CHL1   H3' 6776   0.908   6.097  10.495  0.4070 -1.5079  2.5119
   59CHL1    C4 6777   0.960   6.199  10.273 -0.6116  0.0553 -0.0988
   59CHL1   H4A 6778   0.858   6.211  10.315 -0.4700 -0.9974  0.5743
   59CHL1   H4B 6779   1.022   6.285  10.308 -0.6256  0.5687 -1.2831
   59CHL1    C5 6780   0.981   6.183  10.124  0.5143 -0.4418 -0.0248
   59CHL1    C6 6781   1.051   6.280  10.058  0.0339  0.0822  0.5479
   59CHL1    H6 6782   1.098   6.365  10.110  0.9547  0.2064 -0.4549
   59CHL1    C7 6783   1.079   6.273   9.913  0.2889 -0.1548 -0.7524
   59CHL1   H7A 6784   1.058   6.374   9.873  2.8154  0.3682 -0.9525
   59CHL1   H7B 6785   1.186   6.248   9.896 -0.0795 -2.8278  0.3356
   59CHL1    C8 6786   0.991   6.171   9.834 -0.1648  0.4080  0.2260
   59CHL1    H8 6787   0.890   6.218   9.822  0.3468  1.2542 -0.9466
   59CHL1   C14 6788   1.052   6.144   9.700  0.4265 -0.5492 -0.8608
   59CHL1   H14 6789   1.145   6.086   9.720 -0.1337 -1.1925 -0.0503
   59CHL1   C15 6790   1.099   6.275   9.619 -0.1024 -0.2315 -1.2003
   59CHL1  H15A 6791   1.012   6.344   9.622 -0.4025 -0.6303 -0.6309
   59CHL1  H15B 6792   1.194   6.310   9.663 -0.2688 -1.2305  0.0095
   59CHL1   C16 6793   1.097   6.220   9.473 -0.1899 -0.0044  0.1259
   59CHL1  H16A 6794   1.035   6.289   9.412  0.0336 -0.3215 -0.4651
   59CHL1  H16B 6795   1.205   6.232   9.448 -0.0917  1.1714  1.0252
   59CHL1   C17 6796   1.053   6.074   9.480 -0.9266 -0.2638 -0.0636
   59CHL1   H17 6797   1.149   6.021   9.499 -1.3540 -0.5899  1.2764
   59CHL1   C13 6798   0.965   6.061   9.612 -1.5223 -0.4482  0.4916
   59CHL1   C18 6799   0.829   6.116   9.580 -0.6325 -0.0116 -0.5658
   59CHL1  H18A 6800   0.831   6.218   9.534  0.0963  0.3171  0.1828
   59CHL1  H18B 6801   0.761   6.051   9.521 -1.0240 -1.5847  1.5302
   59CHL1  H18C 6802   0.775   6.128   9.676  2.0522  0.6402  0.9624
   59CHL1   C12 6803   0.966   5.922   9.675 -0.1978 -0.5270  0.1044
   59CHL1  H12A 6804   0.899   5.854   9.619 -0.8802  0.2240 -0.0066
   59CHL1  H12B 6805   1.075   5.898   9.676  0.0998  0.6919  1.6480
   59CHL1   C11 6806   0.914   5.930   9.822  0.1486  0.3836  0.0529
   59CHL1  H11A 6807   0.806   5.951   9.810  0.3873  3.0363  1.7469
   59CHL1  H11B 6808   0.932   5.835   9.878  3.8029  0.5775 -0.5235
   59CHL1    C9 6809   0.980   6.040   9.913 -0.4097  0.4181 -1.2687
   59CHL1    H9 6810   1.084   6.006   9.930 -1.3050 -0.5137  4.2928
   59CHL1   C10 6811   0.922   6.057  10.059  0.6735 -1.0908  0.0518
   59CHL1   C19 6812   0.767   6.087  10.061  0.3162  0.0858  0.2291
   59CHL1  H19A 6813   0.735   6.085  10.167 -1.9117 -1.3983 -0.4035
   59CHL1  H19B 6814   0.750   6.185  10.010 -0.0138 -0.7758 -1.3959
   59CHL1  H19C 6815   0.711   6.004  10.014  0.1107 -0.7887  1.9507
   59CHL1    C1 6816   0.963   5.931  10.144  0.0469  0.1055 -0.7542
   59CHL1   H1A 6817   0.886   5.858  10.113 -0.8171 -1.2998  3.9843
   59CHL1   H1B 6818   1.069   5.902  10.126  0.4187  0.4968  0.7016
   59CHL1    C2 6819   0.955   5.944  10.294 -0.0025  0.1594 -0.0149
   59CHL1   H2A 6820   0.991   5.853  10.347  1.6170  0.9028  0.2421
   59CHL1   H2B 6821   0.847   5.953  10.317 -0.2564  0.4567 -1.2444
   59CHL1   C20 6822   0.985   6.018   9.352  0.3616 -0.5833  0.5736
   59CHL1   H20 6823   0.901   6.085   9.325  1.0396 -0.1009 -0.3853
   59CHL1   C21 6824   0.948   5.864   9.361 -0.4014 -0.1768 -0.0593
   59CHL1  H21A 6825   0.865   5.848   9.433 -0.1748  1.1655  0.5229
   59CHL1  H21B 6826   1.038   5.816   9.405 -0.4562  0.0593  0.3114
   59CHL1  H21C 6827   0.914   5.828   9.261  0.4825 -0.2529 -0.3443
   59CHL1   C22 6828   1.082   6.025   9.232  0.8570 -0.2972  0.9099
   59CHL1  H22A 6829   1.159   6.103   9.251  1.9770 -0.9276 -0.8108
   59CHL1  H22B 6830   1.139   5.930   9.226  0.4782 -0.4696 -0.0818
   59CHL1   C23 6831   1.003   6.046   9.095  0.0406 -0.3818 -0.1539
   59CHL1  H23A 6832   0.925   5.968   9.089 -0.6494  0.3875 -1.5154
   59CHL1  H23B 6833   0.955   6.146   9.105  3.1742  1.1129  1.3758
   59CHL1   C24 6834   1.093   6.028   8.976  0.2203  0.2099  0.2934
   59CHL1  H24A 6835   1.172   6.105   8.982 -0.6934  1.3782 -1.7989
   59CHL1  H24B 6836   1.140   5.927   8.982 -0.0551  0.1173  1.0092
   59CHL1   C25 6837   1.009   6.039   8.850 -0.1317 -0.2961 -0.3009
   59CHL1   H25 6838   0.937   5.954   8.850 -1.0989  0.3946 -3.2183
   59CHL1   C26 6839   0.916   6.161   8.850  1.2643 -0.3511  0.4851
   59CHL1  H26A 6840   0.978   6.250   8.830 -0.7365  0.9655 -0.1167
   59CHL1  H26B 6841   0.852   6.160   8.759  1.6118 -0.1518  0.2378
   59CHL1  H26C 6842   0.846   6.184   8.933  1.5959  2.0626  0.1600
   59CHL1   C27 6843   1.091   6.029   8.722  0.5113  0.3529 -0.1576
   59CHL1  H27A 6844   1.165   6.112   8.727 -2.3442  3.2410 -1.9679
   59CHL1  H27B 6845   1.150   5.936   8.716 -0.5395 -0.6691  3.0705
   59CHL1  H27C 6846   1.032   6.047   8.629 -1.7982  0.6893  1.2760
   60CHL1    C3 6847   6.719   3.952  10.177 -0.4949  0.0213  0.0536
   60CHL1    H3 6848   6.830   3.948  10.162 -0.3301  0.5011  1.1212
   60CHL1    O3 6849   6.686   3.938  10.315  0.2425  0.0866 -0.6127
   60CHL1   H3' 6850   6.709   4.018  10.363  0.9475 -0.3060 -0.2738
   60CHL1    C4 6851   6.659   4.087  10.119  0.0571  0.4322  0.5088
   60CHL1   H4A 6852   6.550   4.094  10.139 -0.2684 -1.3497 -0.3741
   60CHL1   H4B 6853   6.701   4.171  10.179 -0.5665 -0.1339  1.7774
   60CHL1    C5 6854   6.679   4.095   9.972  0.7144 -0.2700 -0.0707
   60CHL1    C6 6855   6.732   4.201   9.912 -0.0922 -0.0737 -0.6109
   60CHL1    H6 6856   6.763   4.282   9.979 -1.5957  0.3313 -0.3706
   60CHL1    C7 6857   6.735   4.230   9.767 -0.0726  0.6399  0.2993
   60CHL1   H7A 6858   6.694   4.331   9.743 -0.0594  0.9130  1.3648
   60CHL1   H7B 6859   6.835   4.221   9.719  1.0089  1.4103  2.3073
   60CHL1    C8 6860   6.649   4.121   9.687  0.1905 -0.2140  0.1091
   60CHL1    H8 6861   6.548   4.167   9.699  1.0413  2.3288 -1.6177
   60CHL1   C14 6862   6.689   4.114   9.534  0.1740  0.5068 -0.3711
   60CHL1   H14 6863   6.787   4.061   9.530 -0.6983 -1.1965  0.0316
   60CHL1   C15 6864   6.698   4.249   9.458 -0.4546  0.4259  0.0609
   60CHL1  H15A 6865   6.626   4.323   9.497  0.0315  0.5016  0.8300
   60CHL1  H15B 6866   6.803   4.283   9.470  0.8414 -2.4498 -1.9152
   60CHL1   C16 6867   6.680   4.205   9.306  0.3565  0.2857  0.2038
   60CHL1  H16A 6868   6.584   4.257   9.284 -2.6250 -4.2591  0.9862
   60CHL1  H16B 6869   6.762   4.228   9.236 -0.4214 -0.6770 -1.0657
   60CHL1   C17 6870   6.633   4.050   9.306  0.2004 -0.2617 -0.1587
   60CHL1   H17 6871   6.736   4.009   9.297 -0.1113 -0.8023 -1.5008
   60CHL1   C13 6872   6.593   4.021   9.459  0.4292 -0.1237  0.8409
   60CHL1   C18 6873   6.450   4.067   9.475  0.1243  0.0196  0.0550
   60CHL1  H18A 6874   6.435   4.172   9.444  1.0461  0.7487  1.8787
   60CHL1  H18B 6875   6.386   4.008   9.407  0.6353  1.5176 -1.8102
   60CHL1  H18C 6876   6.415   4.074   9.581  0.4052  1.6196  0.0664
   60CHL1   C12 6877   6.623   3.880   9.522 -0.0836 -0.3701  0.0850
   60CHL1  H12A 6878   6.575   3.807   9.453 -0.2230  0.3935 -0.6476
   60CHL1  H12B 6879   6.733   3.876   9.527 -0.0995  0.3136  1.4932
   60CHL1   C11 6880   6.575   3.870   9.661 -0.0783  0.7333  0.0362
   60CHL1  H11A 6881   6.464   3.869   9.667 -0.1040 -0.3770 -0.5131
   60CHL1  H11B 6882   6.601   3.768   9.697 -2.7058 -0.0665 -0.1048
   60CHL1    C9 6883   6.650   3.980   9.744  0.1656 -0.0999 -0.8417
   60CHL1    H9 6884   6.755   3.946   9.730 -1.0804 -3.2840 -4.0108
   60CHL1   C10 6885   6.619   3.972   9.899  0.1372 -0.4604  1.0588
   60CHL1   C19 6886   6.463   3.978   9.905  0.1478  0.5263 -0.8872
   60CHL1  H19A 6887   6.416   3.885   9.865 -1.3125  0.7577  0.2058
   60CHL1  H19B 6888   6.410   3.979  10.002 -0.5977 -2.2723 -1.1822
   60CHL1  H19C 6889   6.425   4.058   9.837 -1.5851  1.2155  0.7967
   60CHL1    C1 6890   6.686   3.843   9.954 -0.0390 -0.2274  0.3054
   60CHL1   H1A 6891   6.654   3.755   9.894  2.2571 -0.5967 -0.5123
   60CHL1   H1B 6892   6.796   3.850   9.940 -0.1425 -0.6304 -0.8959
   60CHL1    C2 6893   6.655   3.836  10.102 -0.1281 -0.1528 -0.0457
   60CHL1   H2A 6894   6.707   3.744  10.134  0.9031  0.1221 -0.8817
   60CHL1   H2B 6895   6.545   3.820  10.115  0.0038  0.2118  1.7998
   60CHL1   C20 6896   6.548   3.994   9.186 -0.2439 -0.1491  0.1870
   60CHL1   H20 6897   6.452   4.051   9.188  0.1743  0.6738 -1.5531
   60CHL1   C21 6898   6.498   3.850   9.199  0.0190 -0.2792  0.0689
   60CHL1  H21A 6899   6.420   3.839   9.277 -0.9827 -1.4015 -1.0376
   60CHL1  H21B 6900   6.583   3.783   9.222 -1.2552 -1.5281  1.2972
   60CHL1  H21C 6901   6.456   3.806   9.106 -0.2200 -3.3507  1.5337
   60CHL1   C22 6902   6.608   4.023   9.046 -0.1076 -0.2274  0.4374
   60CHL1  H22A 6903   6.547   3.980   8.964 -0.5015  0.4026  0.3886
   60CHL1  H22B 6904   6.621   4.134   9.045  3.9487 -0.5061  1.4977
   60CHL1   C23 6905   6.748   3.957   9.020 -0.4614  0.1082 -0.3993
   60CHL1  H23A 6906   6.820   4.000   9.093 -0.6252 -2.0718  1.1277
   60CHL1  H23B 6907   6.740   3.848   9.041  0.8192  0.1048  0.1852
   60CHL1   C24 6908   6.801   3.981   8.880 -0.4555  0.1041 -0.2818
   60CHL1  H24A 6909   6.726   3.942   8.807 -0.8332 -2.9730  1.5654
   60CHL1  H24B 6910   6.818   4.086   8.851 -1.4652  0.0064 -1.2785
   60CHL1   C25 6911   6.944   3.924   8.844 -0.6341 -0.0919 -0.2615
   60CHL1   H25 6912   7.012   3.982   8.911  0.3708 -0.1131 -1.2201
   60CHL1   C26 6913   6.956   3.773   8.853  0.4366 -0.1498  0.1531
   60CHL1  H26A 6914   6.931   3.734   8.954  0.4910  1.2322  0.7113
   60CHL1  H26B 6915   6.881   3.738   8.779  1.1127  0.6541 -0.9424
   60CHL1  H26C 6916   7.043   3.717   8.814  0.9486  0.3179  0.6190
   60CHL1   C27 6917   7.004   3.974   8.708 -0.2451  0.3434  0.0069
   60CHL1  H27A 6918   6.939   3.939   8.624 -2.3874  1.3321  1.1791
   60CHL1  H27B 6919   6.997   4.084   8.712  1.9936  0.6736 -2.4609
   60CHL1  H27C 6920   7.109   3.937   8.700 -0.1900  0.3929  0.5208
   61CHL1    C3 6921   0.469   3.247  10.159  0.7098  0.0063 -0.2007
   61CHL1    H3 6922   0.359   3.257  10.169  0.1329 -1.7445 -3.3055
   61CHL1    O3 6923   0.517   3.193  10.283 -0.6820 -0.1223  0.0774
   61CHL1   H3' 6924   0.612   3.204  10.283 -0.6777 -0.0627 -0.7341
   61CHL1    C4 6925   0.500   3.150  10.048  0.2030 -0.5611 -0.2335
   61CHL1   H4A 6926   0.605   3.117  10.062  0.8881  2.0764  1.6273
   61CHL1   H4B 6927   0.448   3.054  10.070  1.1003 -1.5074 -2.0404
   61CHL1    C5 6928   0.467   3.200   9.907  0.2097  0.1502 -0.3410
   61CHL1    C6 6929   0.376   3.139   9.828 -0.7773  0.5802 -0.0075
   61CHL1    H6 6930   0.328   3.046   9.861  0.4733 -0.6711 -1.5202
   61CHL1    C7 6931   0.353   3.188   9.683  0.0733  0.3364  0.0834
   61CHL1   H7A 6932   0.367   3.098   9.619 -1.4049 -1.6544  2.3795
   61CHL1   H7B 6933   0.249   3.225   9.670  0.3078  1.4429  1.1110
   61CHL1    C8 6934   0.452   3.300   9.638 -0.3886  0.1247 -0.2569
   61CHL1    H8 6935   0.551   3.254   9.617 -0.2472 -0.4110  1.5017
   61CHL1   C14 6936   0.399   3.362   9.511 -0.7097  0.1224 -0.2192
   61CHL1   H14 6937   0.302   3.409   9.540 -0.9209 -0.5943  0.2602
   61CHL1   C15 6938   0.377   3.273   9.376  0.2189 -0.0643 -0.5108
   61CHL1  H15A 6939   0.459   3.199   9.372 -0.1406 -0.4612 -0.7260
   61CHL1  H15B 6940   0.286   3.208   9.373  1.8196 -2.3796 -1.9145
   61CHL1   C16 6941   0.380   3.377   9.259 -0.6855  0.4828 -0.4143
   61CHL1  H16A 6942   0.453   3.332   9.188  0.4133 -1.5091  1.8427
   61CHL1  H16B 6943   0.282   3.374   9.207 -0.2533 -2.7132 -1.2900
   61CHL1   C17 6944   0.411   3.508   9.330  0.8136 -0.6869  0.4225
   61CHL1   H17 6945   0.314   3.552   9.359  0.6410  0.7155 -1.9688
   61CHL1   C13 6946   0.477   3.486   9.466  0.1162 -0.1291  0.3727
   61CHL1   C18 6947   0.618   3.437   9.434  0.5702  0.1347  0.0590
   61CHL1  H18A 6948   0.605   3.340   9.380  0.1363  1.4470 -2.3590
   61CHL1  H18B 6949   0.676   3.509   9.372  1.2557 -0.3662  0.1028
   61CHL1  H18C 6950   0.680   3.403   9.519 -0.5256 -1.5344  0.2389
   61CHL1   C12 6951   0.468   3.597   9.578 -0.8526 -0.1145  0.2235
   61CHL1  H12A 6952   0.525   3.689   9.552 -0.0881 -0.1208  1.7844
   61CHL1  H12B 6953   0.365   3.630   9.604 -0.4068  1.0304  0.6153
   61CHL1   C11 6954   0.524   3.541   9.706 -0.0274 -0.1365  0.0601
   61CHL1  H11A 6955   0.631   3.527   9.679  0.0299 -2.5732  1.3236
   61CHL1  H11B 6956   0.511   3.614   9.788 -0.1113  0.3770 -0.4009
   61CHL1    C9 6957   0.460   3.401   9.748 -1.0396 -0.4773 -1.0068
   61CHL1    H9 6958   0.363   3.437   9.788  0.8364  1.9446  1.8239
   61CHL1   C10 6959   0.527   3.335   9.873  0.7041 -0.3377  0.1245
   61CHL1   C19 6960   0.672   3.308   9.842  1.0664 -0.2081 -0.9176
   61CHL1  H19A 6961   0.678   3.228   9.765  0.6098 -0.9274 -0.2245
   61CHL1  H19B 6962   0.725   3.398   9.804 -0.0543  1.2559  0.7966
   61CHL1  H19C 6963   0.730   3.269   9.928  0.7763 -0.1336 -0.6859
   61CHL1    C1 6964   0.506   3.432   9.993  0.4226 -0.2836  0.2441
   61CHL1   H1A 6965   0.568   3.523   9.977  0.8800 -0.2800  1.8885
   61CHL1   H1B 6966   0.401   3.466   9.990  0.8304  1.1535  1.3874
   61CHL1    C2 6967   0.536   3.381  10.137 -0.4027  0.1775 -0.3471
   61CHL1   H2A 6968   0.496   3.453  10.212 -3.6050  0.3083 -1.9976
   61CHL1   H2B 6969   0.645   3.378  10.158 -0.2479 -1.9112 -1.1987
   61CHL1   C20 6970   0.471   3.615   9.234  0.1102  0.7815 -0.3754
   61CHL1   H20 6971   0.533   3.686   9.294 -0.2797  3.9678 -3.4262
   61CHL1   C21 6972   0.348   3.698   9.184  0.3196  0.3774  0.5648
   61CHL1  H21A 6973   0.368   3.784   9.116 -1.8126  1.8926  1.7298
   61CHL1  H21B 6974   0.299   3.739   9.275  0.8012  2.9609 -0.2482
   61CHL1  H21C 6975   0.281   3.630   9.128  1.6522 -0.2237 -0.3289
   61CHL1   C22 6976   0.562   3.556   9.124 -0.9553 -0.0552 -0.1727
   61CHL1  H22A 6977   0.653   3.503   9.161  0.8473  1.8649 -1.5739
   61CHL1  H22B 6978   0.507   3.486   9.058  2.3843 -2.9890 -0.1825
   61CHL1   C23 6979   0.628   3.663   9.039 -0.6520  0.8077 -0.0318
   61CHL1  H23A 6980   0.554   3.732   8.994 -1.6892 -1.8217 -2.6702
   61CHL1  H23B 6981   0.699   3.728   9.095  1.7438  0.8153 -2.8486
   61CHL1   C24 6982   0.701   3.604   8.922 -0.5789 -0.2033 -0.3173
   61CHL1  H24A 6983   0.759   3.679   8.863 -0.7475 -1.4466 -2.1682
   61CHL1  H24B 6984   0.777   3.530   8.953 -0.8875 -0.3907 -0.0135
   61CHL1   C25 6985   0.624   3.525   8.814 -0.6014  0.3678  0.4860
   61CHL1   H25 6986   0.583   3.437   8.867 -1.2781 -1.2221 -2.4819
   61CHL1   C26 6987   0.515   3.597   8.735  0.0588 -0.6830 -0.2710
   61CHL1  H26A 6988   0.470   3.535   8.654  0.4193 -1.0612 -0.1855
   61CHL1  H26B 6989   0.431   3.631   8.799 -0.3180  0.5887 -1.4055
   61CHL1  H26C 6990   0.539   3.690   8.680 -0.7763  1.2175  2.4024
   61CHL1   C27 6991   0.714   3.454   8.707 -0.2025 -0.5201 -0.8357
   61CHL1  H27A 6992   0.782   3.526   8.656 -0.1415  0.6860  0.8750
   61CHL1  H27B 6993   0.775   3.378   8.761 -1.1758 -0.2605  0.6804
   61CHL1  H27C 6994   0.661   3.394   8.630 -0.4791 -0.5799 -0.5974
   62CHL1    C3 6995   3.361   2.618  10.204  0.1595  0.1128  0.1221
   62CHL1    H3 6996   3.449   2.673  10.165  1.6180 -0.5310  2.3363
   62CHL1    O3 6997   3.350   2.647  10.339 -0.1681  0.1689  0.5558
   62CHL1   H3' 6998   3.275   2.593  10.366 -1.0507  0.3445 -1.3632
   62CHL1    C4 6999   3.236   2.668  10.128  0.5675  0.3438  0.4405
   62CHL1   H4A 7000   3.149   2.607  10.159 -1.0330  1.3908 -1.7238
   62CHL1   H4B 7001   3.217   2.774  10.154 -0.7864  0.2373 -0.0585
   62CHL1    C5 7002   3.252   2.647   9.981 -0.1682  0.2354 -0.2774
   62CHL1    C6 7003   3.253   2.750   9.896  0.6249  0.0533 -0.1758
   62CHL1    H6 7004   3.247   2.850   9.942  0.8818  1.0186 -2.1308
   62CHL1    C7 7005   3.271   2.744   9.745  0.8086  0.4319 -1.1172
   62CHL1   H7A 7006   3.190   2.803   9.697  0.8905  2.1420  0.7053
   62CHL1   H7B 7007   3.373   2.780   9.719  0.5597  1.1391 -1.1463
   62CHL1    C8 7008   3.267   2.595   9.695  0.1571  0.2643 -0.0059
   62CHL1    H8 7009   3.168   2.547   9.679  0.8676 -0.1233 -4.3900
   62CHL1   C14 7010   3.332   2.589   9.560 -0.3029 -0.5478 -0.8151
   62CHL1   H14 7011   3.440   2.612   9.575 -0.6679 -0.3949  2.0720
   62CHL1   C15 7012   3.277   2.688   9.455  0.5709  0.2077 -0.2175
   62CHL1  H15A 7013   3.168   2.707   9.463  0.5603  0.1915 -0.3312
   62CHL1  H15B 7014   3.321   2.790   9.468 -0.7123  0.6933  0.4952
   62CHL1   C16 7015   3.302   2.620   9.316 -0.1004  0.6532  0.7430
   62CHL1  H16A 7016   3.207   2.585   9.270  0.0526  0.9179  0.2220
   62CHL1  H16B 7017   3.358   2.687   9.248 -1.0292  1.9930  1.2734
   62CHL1   C17 7018   3.388   2.494   9.347 -0.2023  0.6209 -0.7768
   62CHL1   H17 7019   3.491   2.533   9.366 -0.3541  0.3272  0.7163
   62CHL1   C13 7020   3.339   2.451   9.491 -0.0453  0.6716  0.2919
   62CHL1   C18 7021   3.191   2.397   9.473  0.0204 -0.3963 -0.3585
   62CHL1  H18A 7022   3.116   2.464   9.426 -0.4133  0.1180  1.0489
   62CHL1  H18B 7023   3.204   2.307   9.408  0.9729  1.5046 -3.0027
   62CHL1  H18C 7024   3.146   2.369   9.570  3.2912 -1.8809  0.8690
   62CHL1   C12 7025   3.418   2.356   9.586  0.1599  0.0498 -0.7277
   62CHL1  H12A 7026   3.424   2.251   9.549  1.7168 -0.2011  0.1582
   62CHL1  H12B 7027   3.523   2.392   9.576  0.8850 -1.6668  0.1895
   62CHL1   C11 7028   3.367   2.364   9.732  0.0568 -0.2736 -0.2524
   62CHL1  H11A 7029   3.292   2.284   9.755 -1.3286  0.4985 -1.8591
   62CHL1  H11B 7030   3.459   2.329   9.784  1.2063  1.5230 -0.9824
   62CHL1    C9 7031   3.343   2.505   9.790 -0.5050  0.0061 -0.2662
   62CHL1    H9 7032   3.445   2.546   9.805 -0.2252 -1.0745  0.9805
   62CHL1   C10 7033   3.290   2.510   9.933 -0.6623 -0.4741  0.0667
   62CHL1   C19 7034   3.165   2.421   9.935  0.2180 -0.3029 -0.3126
   62CHL1  H19A 7035   3.091   2.468   9.866 -0.9244  0.2751  1.2209
   62CHL1  H19B 7036   3.188   2.318   9.904  0.4134  0.0005 -1.1997
   62CHL1  H19C 7037   3.126   2.414  10.039 -0.0862 -1.3067 -0.4854
   62CHL1    C1 7038   3.395   2.452  10.021  0.5600  0.8531 -0.5132
   62CHL1   H1A 7039   3.395   2.343  10.001  0.6183  1.0405 -1.5780
   62CHL1   H1B 7040   3.494   2.500  10.001  0.5444  1.2753  0.3775
   62CHL1    C2 7041   3.371   2.466  10.170  0.7554  0.5762  0.2782
   62CHL1   H2A 7042   3.458   2.422  10.224  0.4319 -1.9064 -1.0552
   62CHL1   H2B 7043   3.281   2.414  10.209 -0.2585  1.9043 -0.2290
   62CHL1   C20 7044   3.396   2.388   9.243  0.6969  1.0828  0.2569
   62CHL1   H20 7045   3.300   2.333   9.249  1.3567 -0.1226  0.2385
   62CHL1   C21 7046   3.509   2.295   9.279 -0.0862 -0.2880 -0.1996
   62CHL1  H21A 7047   3.595   2.355   9.317  0.5549 -2.5706  2.1989
   62CHL1  H21B 7048   3.541   2.240   9.188  0.4862  0.3706 -0.4132
   62CHL1  H21C 7049   3.474   2.217   9.349 -1.7366  0.0838 -0.5716
   62CHL1   C22 7050   3.414   2.429   9.098 -0.5989  0.3118 -0.5083
   62CHL1  H22A 7051   3.418   2.336   9.037  2.7377 -0.2729  0.4106
   62CHL1  H22B 7052   3.320   2.474   9.061 -0.1100  1.2675 -0.6121
   62CHL1   C23 7053   3.536   2.510   9.064  0.3704  0.2332  0.3886
   62CHL1  H23A 7054   3.519   2.599   9.129  0.0173 -1.0925  2.2132
   62CHL1  H23B 7055   3.631   2.460   9.095  0.5028 -0.3355 -0.8753
   62CHL1   C24 7056   3.551   2.533   8.912  0.7229 -0.9542  0.9096
   62CHL1  H24A 7057   3.651   2.580   8.900 -0.4309  2.5415  3.2235
   62CHL1  H24B 7058   3.550   2.433   8.865  0.4221  0.3377 -2.1032
   62CHL1   C25 7059   3.444   2.612   8.847  0.1717  0.1643 -0.1334
   62CHL1   H25 7060   3.344   2.578   8.882 -0.0170 -1.0112 -1.7192
   62CHL1   C26 7061   3.452   2.761   8.881 -0.3090  0.2145 -0.3672
   62CHL1  H26A 7062   3.548   2.801   8.841  0.6485 -2.8757 -1.4667
   62CHL1  H26B 7063   3.364   2.817   8.843 -0.9423  0.1684  0.9771
   62CHL1  H26C 7064   3.451   2.774   8.991 -0.4805  1.0464 -0.4580
   62CHL1   C27 7065   3.448   2.593   8.696  0.1590 -0.1056 -0.6205
   62CHL1  H27A 7066   3.529   2.649   8.644  2.5870  0.1283  3.0789
   62CHL1  H27B 7067   3.472   2.487   8.676  2.8382  0.3745 -0.3084
   62CHL1  H27C 7068   3.347   2.616   8.656  0.1676  1.4151  0.1507
   63CHL1    C3 7069   4.683   1.387  10.356 -0.4188 -0.5026 -0.2749
   63CHL1    H3 7070   4.635   1.487  10.355  0.7727  0.0941  0.2016
   63CHL1    O3 7071   4.704   1.348  10.492 -0.1371 -0.2822  0.2210
   63CHL1   H3' 7072   4.789   1.382  10.520  0.5756 -0.8976 -1.1076
   63CHL1    C4 7073   4.585   1.285  10.296 -0.4053 -0.2762 -0.0642
   63CHL1   H4A 7074   4.637   1.187  10.301  1.3605  0.5063 -1.9886
   63CHL1   H4B 7075   4.493   1.269  10.356 -0.9919  0.3622 -0.7774
   63CHL1    C5 7076   4.558   1.319  10.153 -0.5293 -0.0147  0.5434
   63CHL1    C6 7077   4.434   1.346  10.100  0.8376 -0.0937 -0.1497
   63CHL1    H6 7078   4.347   1.349  10.168  0.5840 -0.4412 -0.4502
   63CHL1    C7 7079   4.401   1.365   9.955  0.4678  0.1592 -0.0086
   63CHL1   H7A 7080   4.309   1.307   9.932 -0.4300  0.4643  2.4618
   63CHL1   H7B 7081   4.371   1.468   9.925  0.0234 -0.1414 -0.6046
   63CHL1    C8 7082   4.512   1.313   9.866  0.4613 -0.4803  0.8313
   63CHL1    H8 7083   4.512   1.202   9.864 -0.5858 -0.5205 -2.4990
   63CHL1   C14 7084   4.481   1.355   9.722 -0.3113 -0.3055  0.2244
   63CHL1   H14 7085   4.481   1.467   9.725  1.8187 -0.2844  1.7721
   63CHL1   C15 7086   4.345   1.311   9.661 -0.1021 -0.7654 -0.6471
   63CHL1  H15A 7087   4.339   1.200   9.655  1.7288 -1.0218  1.2028
   63CHL1  H15B 7088   4.255   1.357   9.706 -1.3806 -2.8151 -0.9755
   63CHL1   C16 7089   4.363   1.342   9.509 -0.9019 -0.0531  0.2536
   63CHL1  H16A 7090   4.330   1.252   9.452 -0.5297  0.6119 -1.0528
   63CHL1  H16B 7091   4.305   1.426   9.465  0.5435  0.2492 -1.1740
   63CHL1   C17 7092   4.521   1.375   9.489  0.0769  0.1847  0.5164
   63CHL1   H17 7093   4.520   1.487   9.489 -1.7340  0.2017  0.6479
   63CHL1   C13 7094   4.591   1.323   9.614 -0.7281 -0.6434  0.0190
   63CHL1   C18 7095   4.611   1.177   9.593 -0.0742  0.0724 -0.1677
   63CHL1  H18A 7096   4.541   1.118   9.529  4.1134 -1.7021 -3.5868
   63CHL1  H18B 7097   4.709   1.167   9.542 -0.6315  1.2380 -1.5540
   63CHL1  H18C 7098   4.602   1.132   9.694  0.0982 -2.5026 -1.2241
   63CHL1   C12 7099   4.715   1.402   9.663 -0.0626  0.1962  0.0999
   63CHL1  H12A 7100   4.799   1.400   9.590  0.9871  0.9160  1.2504
   63CHL1  H12B 7101   4.674   1.505   9.669 -0.4083  0.1326 -1.0036
   63CHL1   C11 7102   4.757   1.358   9.807 -0.4353 -0.5745  0.2611
   63CHL1  H11A 7103   4.802   1.256   9.799  0.0186 -0.4440  1.0240
   63CHL1  H11B 7104   4.842   1.425   9.834 -2.0689  0.9228  1.9353
   63CHL1    C9 7105   4.644   1.374   9.912  0.3634  0.3235  0.9029
   63CHL1    H9 7106   4.632   1.485   9.915  0.6175  0.3443  2.8888
   63CHL1   C10 7107   4.682   1.325  10.057 -0.2747  0.1956  0.3708
   63CHL1   C19 7108   4.747   1.180  10.046 -0.0505  0.1242  0.1737
   63CHL1  H19A 7109   4.770   1.133  10.144 -0.5779 -0.4560  0.0324
   63CHL1  H19B 7110   4.686   1.109   9.985  0.9504  0.6136 -1.4868
   63CHL1  H19C 7111   4.839   1.193   9.985 -1.1947 -0.9946 -1.9148
   63CHL1    C1 7112   4.786   1.418  10.125  0.2079  0.2323  0.0690
   63CHL1   H1A 7113   4.880   1.428  10.067  0.4793  1.0126  0.6300
   63CHL1   H1B 7114   4.746   1.521  10.127 -0.3594  0.0421  2.3962
   63CHL1    C2 7115   4.809   1.389  10.272 -0.0344  0.3143 -0.2526
   63CHL1   H2A 7116   4.888   1.453  10.316  0.2294  0.4447 -0.9094
   63CHL1   H2B 7117   4.857   1.289  10.270  2.0715  1.2613  0.2505
   63CHL1   C20 7118   4.560   1.341   9.347 -0.5043  0.5548 -0.4693
   63CHL1   H20 7119   4.551   1.233   9.322  3.0393 -0.0975  0.5305
   63CHL1   C21 7120   4.707   1.377   9.328 -0.1532 -0.7162 -0.0238
   63CHL1  H21A 7121   4.769   1.321   9.402 -2.0780 -3.3004 -0.2057
   63CHL1  H21B 7122   4.720   1.487   9.324  0.2264 -0.7765 -0.4879
   63CHL1  H21C 7123   4.748   1.337   9.233  0.3723 -0.7537  0.2144
   63CHL1   C22 7124   4.475   1.415   9.234 -0.4667  0.3998  0.0116
   63CHL1  H22A 7125   4.371   1.377   9.248 -0.3820  0.2005  0.1072
   63CHL1  H22B 7126   4.480   1.526   9.235 -0.0684  0.3829  0.7361
   63CHL1   C23 7127   4.536   1.386   9.093  0.4866  0.1881 -0.2956
   63CHL1  H23A 7128   4.459   1.419   9.019 -1.8810  0.0186  1.9514
   63CHL1  H23B 7129   4.632   1.435   9.066  1.0398 -0.9247 -0.3680
   63CHL1   C24 7130   4.550   1.241   9.053  0.1692 -0.5697 -0.4119
   63CHL1  H24A 7131   4.625   1.187   9.114  0.1736 -0.4485 -0.3087
   63CHL1  H24B 7132   4.456   1.185   9.073  0.3451 -0.3949  0.9887
   63CHL1   C25 7133   4.575   1.220   8.901  1.2388 -0.3900 -0.0583
   63CHL1   H25 7134   4.578   1.109   8.894  0.7945 -0.4262  0.2676
   63CHL1   C26 7135   4.451   1.261   8.816 -0.4999  0.0880  0.4978
   63CHL1  H26A 7136   4.442   1.370   8.797  0.3762  0.0296 -0.3293
   63CHL1  H26B 7137   4.458   1.215   8.715 -1.7568 -1.1362  0.9329
   63CHL1  H26C 7138   4.353   1.232   8.861 -1.5982  3.5234  0.6850
   63CHL1   C27 7139   4.702   1.279   8.850  0.2092 -0.0459 -0.0472
   63CHL1  H27A 7140   4.725   1.245   8.747  1.9277 -0.7966  0.5488
   63CHL1  H27B 7141   4.693   1.389   8.847 -1.4844 -0.1703 -1.5926
   63CHL1  H27C 7142   4.795   1.263   8.908 -0.4985  1.7932  1.6889
   64CHL1    C3 7143   3.247   3.821  10.024 -0.0545  0.7036  0.4293
   64CHL1    H3 7144   3.153   3.775   9.988 -0.0831  1.5419 -0.6199
   64CHL1    O3 7145   3.264   3.787  10.157 -0.2592 -0.6715 -0.0352
   64CHL1   H3' 7146   3.328   3.848  10.195 -0.8848 -1.3622  2.3197
   64CHL1    C4 7147   3.368   3.751   9.959  0.2763  0.2044 -0.1919
   64CHL1   H4A 7148   3.459   3.782  10.014 -0.4197  1.2996  0.3979
   64CHL1   H4B 7149   3.355   3.642   9.972  2.8834  0.1041  2.8410
   64CHL1    C5 7150   3.379   3.792   9.811  0.8606 -0.0070  0.9418
   64CHL1    C6 7151   3.392   3.690   9.717 -0.0203  0.1640 -0.4559
   64CHL1    H6 7152   3.386   3.587   9.755 -1.4005  0.5103  0.3051
   64CHL1    C7 7153   3.413   3.717   9.573  0.2941 -0.1488  0.6347
   64CHL1   H7A 7154   3.497   3.659   9.528 -0.7251  0.5510 -2.4428
   64CHL1   H7B 7155   3.316   3.690   9.526  1.0718  0.2022 -1.2563
   64CHL1    C8 7156   3.443   3.858   9.534  0.1752  0.0751  0.2098
   64CHL1    H8 7157   3.549   3.876   9.563  0.9325 -0.2720 -2.1375
   64CHL1   C14 7158   3.431   3.889   9.385 -0.0150  0.4442 -0.1577
   64CHL1   H14 7159   3.325   3.872   9.353 -0.2115  1.6897 -0.2246
   64CHL1   C15 7160   3.503   3.793   9.288 -0.5433  0.0763  0.1754
   64CHL1  H15A 7161   3.610   3.793   9.316 -0.3290  0.9986 -0.5789
   64CHL1  H15B 7162   3.455   3.692   9.288  0.2625 -0.3128  0.7194
   64CHL1   C16 7163   3.492   3.864   9.151 -0.3169  1.0614  0.2822
   64CHL1  H16A 7164   3.587   3.855   9.095 -1.0227  4.3309 -1.7170
   64CHL1  H16B 7165   3.410   3.830   9.084  0.5073 -0.7718  0.1662
   64CHL1   C17 7166   3.442   4.010   9.189 -0.1125 -0.4744  0.1474
   64CHL1   H17 7167   3.334   4.016   9.167  0.0503 -0.4737 -0.6927
   64CHL1   C13 7168   3.463   4.030   9.338 -0.3028  0.2342  0.0591
   64CHL1   C18 7169   3.608   4.069   9.362  0.3239 -0.2793  0.5314
   64CHL1  H18A 7170   3.624   4.178   9.350 -0.0474  0.0857  2.8870
   64CHL1  H18B 7171   3.633   4.051   9.469  0.7289 -2.0011  0.1831
   64CHL1  H18C 7172   3.684   4.019   9.298 -0.7645 -1.3272  0.0250
   64CHL1   C12 7173   3.368   4.125   9.413 -0.3988 -0.1721 -1.1132
   64CHL1  H12A 7174   3.398   4.229   9.386 -1.1606  0.7410  1.2735
   64CHL1  H12B 7175   3.259   4.123   9.391 -0.6461 -0.5930  0.0948
   64CHL1   C11 7176   3.378   4.108   9.565 -0.5295  1.2645  0.9316
   64CHL1  H11A 7177   3.481   4.135   9.595 -0.6895  2.0490  0.7806
   64CHL1  H11B 7178   3.308   4.177   9.616  1.7262  3.8724  0.6733
   64CHL1    C9 7179   3.354   3.961   9.619 -0.7844  0.0592  0.4958
   64CHL1    H9 7180   3.250   3.941   9.587 -0.9431  2.1841 -0.4741
   64CHL1   C10 7181   3.375   3.943   9.771  0.0876  0.4682 -0.1017
   64CHL1   C19 7182   3.509   3.996   9.812  0.1466 -0.3561 -0.9189
   64CHL1  H19A 7183   3.513   4.107   9.804  0.9058 -0.2344  0.7184
   64CHL1  H19B 7184   3.531   3.977   9.919 -0.6024 -0.4286 -0.7752
   64CHL1  H19C 7185   3.593   3.948   9.757  1.2989 -0.5906  0.9626
   64CHL1    C1 7186   3.261   4.011   9.851  1.2588 -0.3690 -0.5457
   64CHL1   H1A 7187   3.273   4.121   9.840  1.7706 -0.5431 -1.9303
   64CHL1   H1B 7188   3.164   3.975   9.812  0.7013  0.1737  0.3030
   64CHL1    C2 7189   3.250   3.971  10.002 -0.3235 -0.0733 -0.1113
   64CHL1   H2A 7190   3.154   4.009  10.043  0.0125 -1.3885  2.0574
   64CHL1   H2B 7191   3.331   4.014  10.065 -1.7292  0.9476  1.0683
   64CHL1   C20 7192   3.509   4.116   9.093  0.1397  0.9838  0.2206
   64CHL1   H20 7193   3.619   4.117   9.101  0.2034  0.2092 -0.4466
   64CHL1   C21 7194   3.466   4.260   9.120  0.4081 -0.7190  0.6123
   64CHL1  H21A 7195   3.496   4.335   9.044  3.3364 -1.4799  0.8699
   64CHL1  H21B 7196   3.516   4.287   9.216  0.8692  0.7857 -0.0265
   64CHL1  H21C 7197   3.357   4.277   9.132  0.3758 -0.1097 -0.4581
   64CHL1   C22 7198   3.475   4.084   8.942  0.2506 -1.0164  0.0783
   64CHL1  H22A 7199   3.513   4.168   8.879 -0.8355 -0.2228  0.4468
   64CHL1  H22B 7200   3.542   4.006   8.901 -1.6760 -0.8042 -4.0139
   64CHL1   C23 7201   3.330   4.065   8.896  0.3165  0.0784 -0.6130
   64CHL1  H23A 7202   3.295   3.975   8.950  0.2574  0.2398 -0.3853
   64CHL1  H23B 7203   3.263   4.146   8.929  0.6652  0.2569 -0.3373
   64CHL1   C24 7204   3.339   4.072   8.744  0.2212  0.3920 -0.4732
   64CHL1  H24A 7205   3.370   4.174   8.714  2.9208  0.0075  0.6789
   64CHL1  H24B 7206   3.418   4.004   8.704 -0.9356 -0.6795 -1.0245
   64CHL1   C25 7207   3.218   4.015   8.669  0.3106 -0.0115  0.0343
   64CHL1   H25 7208   3.190   3.917   8.714 -2.3215 -0.9641 -3.2842
   64CHL1   C26 7209   3.093   4.094   8.671  0.2757 -0.2633 -0.0465
   64CHL1  H26A 7210   3.014   4.059   8.602  2.3214  0.0703 -2.7077
   64CHL1  H26B 7211   3.038   4.092   8.768 -0.7014  0.4758 -0.5693
   64CHL1  H26C 7212   3.118   4.199   8.644  1.0855  0.0978  1.9270
   64CHL1   C27 7213   3.263   3.990   8.517 -0.1886  0.2523 -0.5280
   64CHL1  H27A 7214   3.299   4.086   8.476  2.0669 -0.2154  0.1613
   64CHL1  H27B 7215   3.354   3.926   8.517 -0.5827 -0.3338  0.1933
   64CHL1  H27C 7216   3.181   3.955   8.451 -0.0059  1.0955 -1.2168
   65CHL1    C3 7217   5.822   5.267  10.210 -0.7371  0.3426  0.2146
   65CHL1    H3 7218   5.712   5.277  10.215 -0.5884  1.4359  2.3501
   65CHL1    O3 7219   5.874   5.273  10.340 -0.5035 -0.7344  0.2351
   65CHL1   H3' 7220   5.888   5.187  10.378 -0.8310 -0.4663  0.9738
   65CHL1    C4 7221   5.877   5.146  10.137 -0.0058 -0.0555 -0.0612
   65CHL1   H4A 7222   5.987   5.139  10.147 -0.0068 -3.2231 -1.2566
   65CHL1   H4B 7223   5.845   5.056  10.192 -2.0483  0.2855 -0.6123
   65CHL1    C5 7224   5.843   5.145   9.984  0.1904  0.3664 -0.2342
   65CHL1    C6 7225   5.783   5.036   9.927 -0.2783  0.5635  0.8536
   65CHL1    H6 7226   5.763   4.949   9.990 -1.1053  0.0353 -0.1133
   65CHL1    C7 7227   5.748   5.018   9.782 -0.6402 -0.4388 -0.8258
   65CHL1   H7A 7228   5.784   4.916   9.755  0.1315 -0.1057 -1.1001
   65CHL1   H7B 7229   5.639   5.028   9.761 -0.7843 -2.5420 -1.2903
   65CHL1    C8 7230   5.820   5.131   9.702  0.5705  0.2195  0.2487
   65CHL1    H8 7231   5.928   5.109   9.686  0.5136  1.0654 -1.6360
   65CHL1   C14 7232   5.760   5.144   9.562 -0.2707 -0.2584  0.2979
   65CHL1   H14 7233   5.653   5.155   9.587 -0.2607 -2.0196  1.2314
   65CHL1   C15 7234   5.759   5.010   9.482 -0.2199 -0.4822  0.1961
   65CHL1  H15A 7235   5.858   4.963   9.464 -0.2460 -1.1670  1.6706
   65CHL1  H15B 7236   5.685   4.941   9.528  1.0190 -0.8410  1.7530
   65CHL1   C16 7237   5.716   5.070   9.345 -0.1396 -0.4051 -0.0362
   65CHL1  H16A 7238   5.796   5.040   9.273  1.3883  2.5558  0.2450
   65CHL1  H16B 7239   5.611   5.045   9.319 -0.6293  2.1685 -0.8272
   65CHL1   C17 7240   5.710   5.225   9.356 -0.1497  0.2803  0.4591
   65CHL1   H17 7241   5.609   5.249   9.393  0.1633  1.0017  0.8800
   65CHL1   C13 7242   5.803   5.249   9.473  0.1648  0.0987 -0.0195
   65CHL1   C18 7243   5.947   5.230   9.429  0.3977  0.4131 -0.2986
   65CHL1  H18A 7244   6.020   5.253   9.509  0.1334  2.0553 -0.4728
   65CHL1  H18B 7245   5.972   5.129   9.392  1.4150  0.1615  0.9954
   65CHL1  H18C 7246   5.975   5.315   9.362  1.4216  1.2777  1.1700
   65CHL1   C12 7247   5.793   5.384   9.534  0.3442 -0.6126  0.2011
   65CHL1  H12A 7248   5.853   5.461   9.481  0.8819 -0.3164  1.2143
   65CHL1  H12B 7249   5.689   5.425   9.528  0.4609 -0.0143  1.7077
   65CHL1   C11 7250   5.852   5.392   9.677 -0.2106  1.0370  0.2634
   65CHL1  H11A 7251   5.963   5.401   9.669 -0.0518 -0.6399  0.0987
   65CHL1  H11B 7252   5.813   5.487   9.719  0.1834  0.2123  2.5983
   65CHL1    C9 7253   5.807   5.269   9.770 -0.1251  0.2238 -0.2168
   65CHL1    H9 7254   5.699   5.283   9.789  0.3348  0.3927  2.9956
   65CHL1   C10 7255   5.872   5.279   9.906 -0.1727  0.0150 -0.1893
   65CHL1   C19 7256   6.025   5.301   9.894 -0.1067 -0.0189 -0.3482
   65CHL1  H19A 7257   6.063   5.234   9.814 -1.5744 -1.4688  0.1357
   65CHL1  H19B 7258   6.050   5.407   9.871  0.7904  0.0725  0.9460
   65CHL1  H19C 7259   6.078   5.282   9.990 -0.0966  1.3182 -0.0591
   65CHL1    C1 7260   5.812   5.394   9.992 -0.1330 -0.4117 -0.1929
   65CHL1   H1A 7261   5.841   5.488   9.940 -1.4423 -0.7873 -1.6621
   65CHL1   H1B 7262   5.702   5.386   9.985 -0.1178 -0.1731 -0.7844
   65CHL1    C2 7263   5.857   5.390  10.141  0.6301 -0.3937  0.4415
   65CHL1   H2A 7264   5.792   5.465  10.191 -1.7636 -1.4223 -0.9681
   65CHL1   H2B 7265   5.962   5.426  10.143  1.0452 -1.4185 -1.1356
   65CHL1   C20 7266   5.730   5.315   9.230  1.1013 -0.0290 -0.1295
   65CHL1   H20 7267   5.824   5.373   9.234  1.9060 -1.1891 -1.4696
   65CHL1   C21 7268   5.612   5.414   9.234  0.5196 -0.1628 -0.2782
   65CHL1  H21A 7269   5.615   5.453   9.338  0.0055 -0.8265  0.0002
   65CHL1  H21B 7270   5.517   5.357   9.219  0.4532  0.3823 -2.1420
   65CHL1  H21C 7271   5.614   5.503   9.168  0.4975 -0.3371 -0.5174
   65CHL1   C22 7272   5.741   5.234   9.105  0.5408  0.5536  0.0777
   65CHL1  H22A 7273   5.840   5.183   9.111  1.1679  1.7836  0.4533
   65CHL1  H22B 7274   5.654   5.170   9.081 -0.1292  1.6478 -0.4895
   65CHL1   C23 7275   5.761   5.320   8.973 -0.3332 -0.0434 -0.3121
   65CHL1  H23A 7276   5.659   5.345   8.938 -0.1696  1.2179  0.0310
   65CHL1  H23B 7277   5.820   5.406   9.011  1.0866 -1.1252  0.0242
   65CHL1   C24 7278   5.840   5.255   8.851 -0.7089  0.1400  0.1003
   65CHL1  H24A 7279   5.931   5.207   8.892  0.5664  1.1186 -1.4837
   65CHL1  H24B 7280   5.779   5.176   8.801 -0.0328  0.6196 -1.5591
   65CHL1   C25 7281   5.898   5.356   8.752 -0.4099 -0.0539  0.0318
   65CHL1   H25 7282   5.977   5.419   8.799  0.0228 -0.6019  0.0517
   65CHL1   C26 7283   5.973   5.287   8.631  0.4540 -0.2769 -0.4251
   65CHL1  H26A 7284   6.037   5.368   8.589 -0.9093  0.9551 -0.1863
   65CHL1  H26B 7285   6.040   5.205   8.666  0.9831  0.5386  0.5300
   65CHL1  H26C 7286   5.904   5.242   8.557  1.3702 -0.9829 -0.8853
   65CHL1   C27 7287   5.789   5.445   8.700  0.3200  0.0444  0.5524
   65CHL1  H27A 7288   5.721   5.387   8.634  0.3389 -1.7223  2.0225
   65CHL1  H27B 7289   5.727   5.487   8.782 -0.7857 -1.0474  0.3058
   65CHL1  H27C 7290   5.830   5.530   8.641 -0.5125  0.2851  0.3186
   66CHL1    C3 7291   1.810   5.189  10.295 -0.0985  0.0211  0.1054
   66CHL1    H3 7292   1.912   5.192  10.254 -1.1411  3.3251 -2.6512
   66CHL1    O3 7293   1.816   5.217  10.438 -0.3569  0.0937  0.4722
   66CHL1   H3' 7294   1.891   5.278  10.439 -0.2332 -0.0589  0.4837
   66CHL1    C4 7295   1.752   5.323  10.240 -0.2972  0.2030 -0.1073
   66CHL1   H4A 7296   1.659   5.355  10.290  0.5505  1.0010  1.0060
   66CHL1   H4B 7297   1.823   5.405  10.263  1.7294 -1.9343  1.7232
   66CHL1    C5 7298   1.732   5.313  10.088 -0.4411  0.2677 -0.1713
   66CHL1    C6 7299   1.776   5.405  10.006 -0.5359  0.6354  0.2827
   66CHL1    H6 7300   1.815   5.501  10.043  0.7468 -0.6115  2.3189
   66CHL1    C7 7301   1.754   5.403   9.854  0.0988 -0.6842  0.3019
   66CHL1   H7A 7302   1.727   5.503   9.815  0.9026 -0.3467  0.5787
   66CHL1   H7B 7303   1.848   5.385   9.797  0.7174  0.7148  0.8423
   66CHL1    C8 7304   1.653   5.298   9.795 -0.7358  0.4350  0.1065
   66CHL1    H8 7305   1.552   5.340   9.813 -0.6273  0.1444  1.5687
   66CHL1   C14 7306   1.679   5.264   9.646  0.0314 -0.3403 -0.8682
   66CHL1   H14 7307   1.771   5.202   9.649 -0.8021 -1.5725  0.6816
   66CHL1   C15 7308   1.687   5.374   9.548  0.9634  0.1820  0.6492
   66CHL1  H15A 7309   1.610   5.451   9.569  0.5316 -0.2074  0.5076
   66CHL1  H15B 7310   1.788   5.418   9.530 -0.6457  3.2524 -1.8139
   66CHL1   C16 7311   1.660   5.307   9.412 -0.4601  0.3973  0.3587
   66CHL1  H16A 7312   1.573   5.361   9.369 -1.1711  0.2786  1.5918
   66CHL1  H16B 7313   1.743   5.322   9.339 -0.1625  3.2789  1.1737
   66CHL1   C17 7314   1.615   5.158   9.443  0.0952  0.4131 -0.2191
   66CHL1   H17 7315   1.708   5.098   9.434 -0.6263 -0.4821 -2.1685
   66CHL1   C13 7316   1.577   5.165   9.591 -0.4396  0.4490 -0.2343
   66CHL1   C18 7317   1.433   5.222   9.605  0.3993  0.3603 -0.0534
   66CHL1  H18A 7318   1.363   5.145   9.565  0.3513  0.2959  0.1541
   66CHL1  H18B 7319   1.401   5.234   9.711  0.0344 -0.0868 -0.1079
   66CHL1  H18C 7320   1.417   5.321   9.558 -0.7755  0.2909  0.1773
   66CHL1   C12 7321   1.597   5.036   9.669  0.0007  0.4548  0.7179
   66CHL1  H12A 7322   1.525   4.958   9.639 -0.1760  0.5653  0.8513
   66CHL1  H12B 7323   1.701   5.001   9.651 -0.1492  0.8993 -1.1458
   66CHL1   C11 7324   1.579   5.058   9.817  0.0433  0.2653  0.3765
   66CHL1  H11A 7325   1.469   5.059   9.832 -0.3182 -1.7551 -1.5655
   66CHL1  H11B 7326   1.611   4.963   9.865  0.4982  1.4324  2.5092
   66CHL1    C9 7327   1.668   5.166   9.882  0.0900  0.0408 -0.5071
   66CHL1    H9 7328   1.774   5.133   9.867  0.4466 -0.1673  2.0672
   66CHL1   C10 7329   1.665   5.184  10.036  0.5988  0.1584  0.5152
   66CHL1   C19 7330   1.512   5.203  10.067 -0.1083  0.1682  0.1295
   66CHL1  H19A 7331   1.473   5.100  10.057  2.3933 -0.9571  1.0174
   66CHL1  H19B 7332   1.505   5.241  10.171  1.1570  1.4002 -0.1953
   66CHL1  H19C 7333   1.463   5.270   9.993  0.0497  1.9737  1.5874
   66CHL1    C1 7334   1.705   5.054  10.110 -0.3648  0.2678 -0.8101
   66CHL1   H1A 7335   1.636   4.968  10.097 -1.4086  0.9560  0.0439
   66CHL1   H1B 7336   1.804   5.030  10.065 -0.1611 -0.3724 -0.0557
   66CHL1    C2 7337   1.728   5.062  10.266  0.0686 -0.7553  0.0837
   66CHL1   H2A 7338   1.798   4.982  10.298  2.0862 -0.2826 -2.6971
   66CHL1   H2B 7339   1.632   5.076  10.320  1.2196 -1.2260  2.3260
   66CHL1   C20 7340   1.515   5.115   9.339  0.0856 -0.2171 -0.6111
   66CHL1   H20 7341   1.428   5.183   9.353  0.3005 -0.2073  0.7718
   66CHL1   C21 7342   1.469   4.963   9.356  0.6376 -0.1605 -0.1929
   66CHL1  H21A 7343   1.560   4.899   9.361  1.5834  1.0967 -0.6855
   66CHL1  H21B 7344   1.398   4.931   9.277 -0.9827  1.1731  0.6643
   66CHL1  H21C 7345   1.408   4.961   9.449  1.8969 -1.1532  0.6473
   66CHL1   C22 7346   1.572   5.142   9.196  0.7476  0.2190 -0.0540
   66CHL1  H22A 7347   1.582   5.247   9.162  1.4316  0.0318 -0.4625
   66CHL1  H22B 7348   1.675   5.100   9.195  1.5622  2.0505  1.2846
   66CHL1   C23 7349   1.485   5.077   9.083 -0.1388  0.7385  0.6030
   66CHL1  H23A 7350   1.486   4.966   9.090  1.2338  0.6746 -0.2241
   66CHL1  H23B 7351   1.380   5.112   9.090 -0.4496 -0.0924  0.2155
   66CHL1   C24 7352   1.544   5.111   8.942 -0.2718 -0.1032 -0.4363
   66CHL1  H24A 7353   1.549   5.221   8.926 -0.0534  0.3010  2.0150
   66CHL1  H24B 7354   1.648   5.073   8.941 -0.5414 -0.8519 -0.3552
   66CHL1   C25 7355   1.460   5.042   8.831 -0.9113 -0.0621 -0.5745
   66CHL1   H25 7356   1.449   4.936   8.861 -0.1022 -0.1426 -0.5359
   66CHL1   C26 7357   1.327   5.112   8.822 -0.3706  0.0069 -0.0501
   66CHL1  H26A 7358   1.275   5.088   8.918 -0.3843  1.0608  0.2262
   66CHL1  H26B 7359   1.335   5.223   8.814 -0.0139 -0.1302 -2.0354
   66CHL1  H26C 7360   1.267   5.084   8.733 -2.3877  2.6645  0.3182
   66CHL1   C27 7361   1.538   5.049   8.693  0.6645 -0.2814 -0.0104
   66CHL1  H27A 7362   1.533   5.152   8.651 -1.9474 -0.6666 -0.8432
   66CHL1  H27B 7363   1.644   5.018   8.683  0.5581 -0.3614 -0.9723
   66CHL1  H27C 7364   1.486   4.982   8.621 -0.2549  0.7670 -0.3538
   67CHL1    C3 7365   5.864   2.996  10.323 -0.0475 -0.1245  0.5975
   67CHL1    H3 7366   5.793   2.927  10.273  2.1520 -1.0591 -1.4061
   67CHL1    O3 7367   5.808   3.022  10.452  0.1145 -0.6921  0.2142
   67CHL1   H3' 7368   5.777   2.939  10.488 -0.4290  0.5173  2.7822
   67CHL1    C4 7369   6.006   2.948  10.336 -0.7360  0.5221 -0.2907
   67CHL1   H4A 7370   6.066   3.029  10.384 -1.5488  2.8883 -2.9814
   67CHL1   H4B 7371   6.012   2.855  10.396  1.1471  0.1932 -0.9174
   67CHL1    C5 7372   6.070   2.917  10.204  0.3696 -0.5173  0.1229
   67CHL1    C6 7373   6.114   2.793  10.174 -0.4791 -0.0405  0.2187
   67CHL1    H6 7374   6.103   2.710  10.246 -1.9319 -1.2817 -1.3530
   67CHL1    C7 7375   6.170   2.756  10.038  0.4859 -0.1829 -0.2073
   67CHL1   H7A 7376   6.256   2.688  10.059  0.6602  0.3696  0.9389
   67CHL1   H7B 7377   6.097   2.694   9.982 -0.2369 -0.4141  0.9557
   67CHL1    C8 7378   6.208   2.875   9.947 -0.0420  0.0859  0.4467
   67CHL1    H8 7379   6.309   2.898   9.986  0.4240  0.0846 -0.7299
   67CHL1   C14 7380   6.222   2.847   9.799 -0.7677  0.2381 -0.2117
   67CHL1   H14 7381   6.124   2.809   9.762  0.0480 -1.0404 -1.1751
   67CHL1   C15 7382   6.313   2.732   9.762  0.0468 -0.3218  0.2942
   67CHL1  H15A 7383   6.413   2.740   9.809  0.5066 -0.3257 -0.6585
   67CHL1  H15B 7384   6.275   2.629   9.783  0.6505 -0.7608 -0.7112
   67CHL1   C16 7385   6.335   2.751   9.616 -0.9419 -0.0338 -0.3375
   67CHL1  H16A 7386   6.438   2.741   9.575 -1.5936 -0.7012 -1.8941
   67CHL1  H16B 7387   6.265   2.686   9.558 -1.2313 -1.1765  1.2288
   67CHL1   C17 7388   6.281   2.899   9.579  0.1250  0.0241  0.4668
   67CHL1   H17 7389   6.178   2.881   9.541  0.8906 -1.8613 -0.8721
   67CHL1   C13 7390   6.263   2.964   9.712 -0.1886 -0.4577 -0.0005
   67CHL1   C18 7391   6.410   3.018   9.749  0.4969 -0.2297  0.2828
   67CHL1  H18A 7392   6.420   3.042   9.857  1.0577 -0.0179  0.1870
   67CHL1  H18B 7393   6.490   2.944   9.729  1.1807  0.6322 -0.2250
   67CHL1  H18C 7394   6.424   3.111   9.691 -4.4258  0.4160 -0.3203
   67CHL1   C12 7395   6.152   3.067   9.725 -0.0974 -0.5673 -0.0430
   67CHL1  H12A 7396   6.188   3.154   9.666 -0.0100  0.1611  1.0494
   67CHL1  H12B 7397   6.053   3.032   9.688 -0.5683  0.9254 -0.2684
   67CHL1   C11 7398   6.131   3.111   9.877 -0.4926 -0.4757  0.3662
   67CHL1  H11A 7399   6.221   3.171   9.904 -0.9033 -0.3024  1.4147
   67CHL1  H11B 7400   6.059   3.196   9.876 -1.5788 -1.3822 -1.3676
   67CHL1    C9 7401   6.108   2.988   9.958 -0.0198 -0.4924 -1.1277
   67CHL1    H9 7402   6.013   2.949   9.915  0.1996 -1.9930 -0.3269
   67CHL1   C10 7403   6.068   3.034  10.103  0.3448  0.3965 -0.3579
   67CHL1   C19 7404   6.166   3.141  10.160  0.1711  0.5118 -0.2103
   67CHL1  H19A 7405   6.152   3.232  10.098 -0.5285  0.0011 -0.8278
   67CHL1  H19B 7406   6.147   3.174  10.264 -0.4542 -1.6897  0.4279
   67CHL1  H19C 7407   6.274   3.117  10.164 -0.2265 -1.8727 -1.6544
   67CHL1    C1 7408   5.929   3.102  10.100 -0.9103  0.1051  0.5817
   67CHL1   H1A 7409   5.928   3.200  10.048 -2.6872 -0.1593  0.0489
   67CHL1   H1B 7410   5.862   3.028  10.052  0.0760 -1.6252  1.7763
   67CHL1    C2 7411   5.862   3.123  10.232  0.2673  0.3909  0.7484
   67CHL1   H2A 7412   5.759   3.164  10.224  0.9492  1.9696 -0.4219
   67CHL1   H2B 7413   5.917   3.200  10.291 -0.0383  2.4042 -1.4454
   67CHL1   C20 7414   6.346   2.964   9.456  0.5598  0.1217 -1.1444
   67CHL1   H20 7415   6.451   2.988   9.485  0.1702  0.2439  0.2063
   67CHL1   C21 7416   6.275   3.091   9.415 -0.5114 -0.3867  0.0459
   67CHL1  H21A 7417   6.302   3.173   9.485 -0.4616  0.2454 -0.6968
   67CHL1  H21B 7418   6.166   3.072   9.415 -0.2522 -2.0311  0.3203
   67CHL1  H21C 7419   6.307   3.122   9.313 -0.1577  1.4844  0.6748
   67CHL1   C22 7420   6.351   2.858   9.341  0.2238  0.2537 -0.7861
   67CHL1  H22A 7421   6.411   2.771   9.377 -0.5609  0.3210  0.8010
   67CHL1  H22B 7422   6.249   2.824   9.312 -0.6260  2.0238 -0.0113
   67CHL1   C23 7423   6.417   2.892   9.205  0.6487 -0.2185 -0.0314
   67CHL1  H23A 7424   6.376   2.985   9.162 -2.3101 -2.1021 -1.5598
   67CHL1  H23B 7425   6.522   2.916   9.235 -0.3775  0.2567  3.7631
   67CHL1   C24 7426   6.405   2.779   9.103  0.1737  0.3291 -0.2468
   67CHL1  H24A 7427   6.470   2.697   9.139  0.6843  0.2238 -1.3882
   67CHL1  H24B 7428   6.302   2.739   9.089 -0.1738  1.0300  0.2769
   67CHL1   C25 7429   6.462   2.820   8.970 -0.2157  0.1824  0.0733
   67CHL1   H25 7430   6.560   2.871   8.984 -0.7665  0.7956  2.0338
   67CHL1   C26 7431   6.490   2.696   8.882  0.3853  0.4913 -0.6957
   67CHL1  H26A 7432   6.395   2.639   8.871  0.1234  0.7282  0.3200
   67CHL1  H26B 7433   6.540   2.719   8.785  2.4156 -0.4559  0.0580
   67CHL1  H26C 7434   6.558   2.623   8.931 -0.0850  0.4530 -0.0989
   67CHL1   C27 7435   6.374   2.922   8.892  0.3456  0.2552  0.3538
   67CHL1  H27A 7436   6.347   3.016   8.946  1.8844  1.4646 -0.8736
   67CHL1  H27B 7437   6.427   2.952   8.799 -0.3599 -1.4221 -0.6307
   67CHL1  H27C 7438   6.279   2.870   8.866  0.7631 -0.6475  0.6002
   68CHL1    C3 7439   2.456   6.283  10.030 -0.2029  0.4249 -0.1059
   68CHL1    H3 7440   2.460   6.382   9.980 -1.8879  1.4510  1.6313
   68CHL1    O3 7441   2.462   6.288  10.173 -0.2750  0.0970  0.5312
   68CHL1   H3' 7442   2.421   6.207  10.204  0.8102  0.2765  2.6294
   68CHL1    C4 7443   2.321   6.223   9.991  0.5762  0.3405  0.2012
   68CHL1   H4A 7444   2.295   6.132  10.049  0.3899  1.8220  2.5646
   68CHL1   H4B 7445   2.251   6.306  10.015  0.3905  0.0655  0.6217
   68CHL1    C5 7446   2.294   6.192   9.844  0.5203 -0.4459 -0.9341
   68CHL1    C6 7447   2.185   6.232   9.780  0.2987  0.1944 -0.6296
   68CHL1    H6 7448   2.108   6.294   9.827  2.1855  2.9437 -0.9546
   68CHL1    C7 7449   2.153   6.188   9.639 -0.7266  0.0522  0.6840
   68CHL1   H7A 7450   2.045   6.161   9.645 -0.7181 -0.4042 -0.8294
   68CHL1   H7B 7451   2.162   6.279   9.576 -0.4533 -0.2000  0.3559
   68CHL1    C8 7452   2.248   6.084   9.582  0.1217 -0.3700 -0.2463
   68CHL1    H8 7453   2.209   5.987   9.619 -0.4733  0.0011  0.1147
   68CHL1   C14 7454   2.244   6.082   9.429  0.4455 -0.8842 -0.6301
   68CHL1   H14 7455   2.289   6.181   9.406 -1.0585  0.3759  1.4822
   68CHL1   C15 7456   2.106   6.087   9.356 -0.4649  0.1753  0.3547
   68CHL1  H15A 7457   2.033   6.017   9.402  1.0155 -0.3268  2.0382
   68CHL1  H15B 7458   2.073   6.193   9.358 -0.1826  0.2933 -0.8248
   68CHL1   C16 7459   2.139   6.043   9.210  0.2960  0.6435 -0.7093
   68CHL1  H16A 7460   2.081   5.950   9.192 -0.0252  0.9132 -1.0630
   68CHL1  H16B 7461   2.119   6.120   9.133 -1.6755  0.6807 -0.2180
   68CHL1   C17 7462   2.291   6.012   9.207  0.2030  0.0308 -0.2771
   68CHL1   H17 7463   2.338   6.106   9.173 -0.0374  1.1549  2.2973
   68CHL1   C13 7464   2.327   5.980   9.354 -0.3312  0.1158  0.5034
   68CHL1   C18 7465   2.276   5.836   9.393  0.2005 -0.2784 -0.3103
   68CHL1  H18A 7466   2.316   5.755   9.329 -1.3335 -1.2452 -0.1133
   68CHL1  H18B 7467   2.292   5.808   9.500  0.3834  2.3436  0.4235
   68CHL1  H18C 7468   2.166   5.845   9.378  0.2568  0.4439 -0.3268
   68CHL1   C12 7469   2.473   6.015   9.390  0.2907 -0.3351  0.4962
   68CHL1  H12A 7470   2.537   5.927   9.366 -0.2197 -1.7043  3.6185
   68CHL1  H12B 7471   2.508   6.109   9.342  1.0732  0.8287  3.1558
   68CHL1   C11 7472   2.500   6.021   9.541 -0.1768 -0.0077  0.5812
   68CHL1  H11A 7473   2.484   5.918   9.579  0.1575  0.7568  2.9887
   68CHL1  H11B 7474   2.604   6.056   9.554  0.8537 -2.5999 -0.1996
   68CHL1    C9 7475   2.395   6.107   9.620  0.7631 -0.1569 -0.5312
   68CHL1    H9 7476   2.426   6.211   9.595  0.2543 -0.2608 -1.6456
   68CHL1   C10 7477   2.408   6.110   9.779 -0.1686  0.6181  0.2772
   68CHL1   C19 7478   2.378   5.965   9.834  0.6558  0.4316  0.1443
   68CHL1  H19A 7479   2.438   5.897   9.770  0.2449  1.1176 -0.9939
   68CHL1  H19B 7480   2.409   5.962   9.941 -1.1231  3.2025  0.8559
   68CHL1  H19C 7481   2.272   5.933   9.823  1.3884 -3.1059  1.7778
   68CHL1    C1 7482   2.550   6.161   9.832 -0.4899  0.0499 -0.1243
   68CHL1   H1A 7483   2.635   6.098   9.798 -1.2733 -1.8297  1.2115
   68CHL1   H1B 7484   2.555   6.257   9.777 -2.3015  0.6056  0.6220
   68CHL1    C2 7485   2.571   6.187   9.981  0.5692 -1.1289 -0.5850
   68CHL1   H2A 7486   2.671   6.233   9.995  0.7702 -1.7884  0.1851
   68CHL1   H2B 7487   2.564   6.092  10.037  0.9046 -1.5173 -1.1894
   68CHL1   C20 7488   2.329   5.913   9.093  0.1524 -0.4779  0.4087
   68CHL1   H20 7489   2.264   5.824   9.109  0.2332 -1.5048 -3.6613
   68CHL1   C21 7490   2.481   5.878   9.103  0.1663 -0.3890  0.0804
   68CHL1  H21A 7491   2.494   5.832   9.203  0.2622 -0.2511  0.1318
   68CHL1  H21B 7492   2.542   5.971   9.099  1.4192 -1.2277 -1.8101
   68CHL1  H21C 7493   2.517   5.798   9.035  1.5675 -1.1236  1.6216
   68CHL1   C22 7494   2.286   5.969   8.953 -0.3440  0.1155  0.1013
   68CHL1  H22A 7495   2.185   6.014   8.955  0.8362  3.2601 -1.8953
   68CHL1  H22B 7496   2.358   6.049   8.921  1.1381 -0.4061  1.9701
   68CHL1   C23 7497   2.270   5.852   8.849  0.9530 -0.2708  0.6702
   68CHL1  H23A 7498   2.367   5.799   8.855  0.7610 -0.9036 -1.1992
   68CHL1  H23B 7499   2.190   5.783   8.884  1.0814 -0.2443  1.0172
   68CHL1   C24 7500   2.262   5.900   8.701 -0.3892 -0.4710 -0.1585
   68CHL1  H24A 7501   2.337   5.975   8.670  1.2054 -2.3575 -1.0748
   68CHL1  H24B 7502   2.281   5.805   8.645 -0.2376 -0.6727  0.2316
   68CHL1   C25 7503   2.119   5.952   8.660 -0.6014  0.3223 -0.4468
   68CHL1   H25 7504   2.093   6.031   8.734  0.4217  0.8272 -0.6213
   68CHL1   C26 7505   2.118   6.025   8.521 -0.7936  0.0286 -0.3037
   68CHL1  H26A 7506   2.015   6.064   8.504 -1.4312 -1.8642 -1.0698
   68CHL1  H26B 7507   2.193   6.106   8.510 -1.4995  0.5704 -1.2991
   68CHL1  H26C 7508   2.127   5.964   8.429 -5.9905  1.1806 -1.9358
   68CHL1   C27 7509   2.013   5.837   8.670  0.4173 -0.4624 -0.1011
   68CHL1  H27A 7510   2.023   5.762   8.589  1.5401 -2.2108  1.5850
   68CHL1  H27B 7511   2.009   5.772   8.760 -1.6758  1.2397  1.1754
   68CHL1  H27C 7512   1.913   5.884   8.652  0.7070  0.4944  0.6899
   69CHL1    C3 7513   5.667   1.929   6.396 -0.2370 -0.2077 -0.0580
   69CHL1    H3 7514   5.707   1.826   6.400 -0.6406 -0.4753 -1.9454
   69CHL1    O3 7515   5.625   1.960   6.266  0.2585 -0.3938  0.3032
   69CHL1   H3' 7516   5.650   2.051   6.251 -1.3637  0.0765  0.3194
   69CHL1    C4 7517   5.559   1.956   6.502  0.6056 -0.2565 -0.5507
   69CHL1   H4A 7518   5.526   2.062   6.499  0.2116 -0.3571  0.0147
   69CHL1   H4B 7519   5.467   1.904   6.470  0.0609  0.4238 -0.1372
   69CHL1    C5 7520   5.591   1.930   6.646  0.4158 -0.1363 -0.3846
   69CHL1    C6 7521   5.526   1.841   6.733 -0.4258  0.4069  0.5602
   69CHL1    H6 7522   5.441   1.788   6.688  0.4398  0.0071 -0.6887
   69CHL1    C7 7523   5.559   1.814   6.874  0.2720  0.4080  0.0342
   69CHL1   H7A 7524   5.473   1.806   6.944 -0.8187 -0.4129 -1.3633
   69CHL1   H7B 7525   5.604   1.712   6.873  1.6084  0.9640  0.6778
   69CHL1    C8 7526   5.669   1.906   6.926 -0.1543 -0.2957  0.2772
   69CHL1    H8 7527   5.626   2.003   6.959 -2.1771 -0.7450 -0.8768
   69CHL1   C14 7528   5.726   1.855   7.062 -0.1021  0.6278 -0.1545
   69CHL1   H14 7529   5.767   1.758   7.026 -0.6566  0.1343  0.5002
   69CHL1   C15 7530   5.625   1.810   7.165  0.7586  0.1632 -0.0756
   69CHL1  H15A 7531   5.555   1.894   7.186  0.6524  0.0678 -0.0527
   69CHL1  H15B 7532   5.584   1.713   7.130 -0.8708  0.8734 -0.2359
   69CHL1   C16 7533   5.721   1.766   7.273 -0.0733 -0.0876 -0.8522
   69CHL1  H16A 7534   5.686   1.794   7.374  0.8053 -1.0232 -0.2669
   69CHL1  H16B 7535   5.732   1.655   7.266 -0.9019 -0.2556  0.2547
   69CHL1   C17 7536   5.863   1.831   7.244  0.6714 -0.0068  0.3731
   69CHL1   H17 7537   5.931   1.752   7.207 -0.9524 -1.1213 -0.3717
   69CHL1   C13 7538   5.840   1.929   7.124  0.1934  0.0043  0.0026
   69CHL1   C18 7539   5.782   2.068   7.169  0.0387  0.4179 -0.1289
   69CHL1  H18A 7540   5.859   2.137   7.211 -1.8117  1.6608  1.4236
   69CHL1  H18B 7541   5.740   2.125   7.084 -1.3209 -1.8500 -1.0408
   69CHL1  H18C 7542   5.696   2.059   7.239  0.8513 -0.7572  0.7728
   69CHL1   C12 7543   5.955   1.950   7.016 -0.9382 -0.4282 -0.6305
   69CHL1  H12A 7544   6.034   2.015   7.059 -3.5714  0.4853  3.3067
   69CHL1  H12B 7545   5.993   1.846   7.003 -1.1856 -0.5549 -0.3491
   69CHL1   C11 7546   5.908   2.010   6.885 -0.2470 -0.1702  1.0119
   69CHL1  H11A 7547   5.884   2.117   6.900  2.4712  0.8778 -1.2793
   69CHL1  H11B 7548   5.989   2.003   6.810 -0.7940  0.2759  0.3666
   69CHL1    C9 7549   5.780   1.938   6.824  0.1231  0.0165  0.2377
   69CHL1    H9 7550   5.815   1.838   6.789 -0.5433 -0.6495  1.3973
   69CHL1   C10 7551   5.721   2.003   6.695  0.2973  0.6605  0.1673
   69CHL1   C19 7552   5.679   2.149   6.726  0.2893 -0.0631 -0.5083
   69CHL1  H19A 7553   5.612   2.203   6.656  0.0766 -2.0505 -1.9130
   69CHL1  H19B 7554   5.622   2.160   6.821 -0.0421 -0.2704 -0.6814
   69CHL1  H19C 7555   5.768   2.210   6.751 -1.8802  2.8225  0.7678
   69CHL1    C1 7556   5.830   1.991   6.580  0.3128 -0.1521 -0.0947
   69CHL1   H1A 7557   5.921   2.050   6.603 -0.7923  1.6300 -0.1573
   69CHL1   H1B 7558   5.863   1.885   6.574 -0.5084 -0.3643 -1.0480
   69CHL1    C2 7559   5.780   2.028   6.438 -0.8396  0.4976  0.9545
   69CHL1   H2A 7560   5.866   2.034   6.367 -1.1451 -0.1350  0.5330
   69CHL1   H2B 7561   5.728   2.126   6.447 -0.0018  0.8575  2.1949
   69CHL1   C20 7562   5.931   1.876   7.377 -0.2029  0.6246 -1.0576
   69CHL1   H20 7563   5.873   1.959   7.422  0.2997  0.5432 -0.2305
   69CHL1   C21 7564   6.067   1.931   7.339  0.7148 -0.0172  0.0062
   69CHL1  H21A 7565   6.125   1.867   7.269  1.1791  1.0412 -0.6142
   69CHL1  H21B 7566   6.126   1.951   7.431 -2.7674 -0.7359  2.5975
   69CHL1  H21C 7567   6.054   2.021   7.276  0.1703  1.3180  1.9109
   69CHL1   C22 7568   5.953   1.755   7.472 -0.2178 -0.0669 -0.4376
   69CHL1  H22A 7569   5.864   1.689   7.472 -1.3049  1.2969 -2.7765
   69CHL1  H22B 7570   6.026   1.684   7.427 -0.9712  0.1008 -1.9780
   69CHL1   C23 7571   6.000   1.804   7.611  0.2810 -0.0807  0.5318
   69CHL1  H23A 7572   6.110   1.812   7.602  0.3907 -2.4398 -1.4687
   69CHL1  H23B 7573   5.942   1.898   7.621 -3.4222 -2.1537  0.5307
   69CHL1   C24 7574   5.965   1.705   7.722  0.6686  0.4478 -0.8925
   69CHL1  H24A 7575   5.855   1.699   7.712  0.6433 -1.2764  0.0523
   69CHL1  H24B 7576   6.006   1.602   7.707 -0.2695  0.1492 -1.5242
   69CHL1   C25 7577   5.995   1.753   7.864 -0.1966  0.3502  0.5150
   69CHL1   H25 7578   5.934   1.844   7.877 -1.3624  0.5096 -4.3256
   69CHL1   C26 7579   5.962   1.654   7.973  0.5178  0.1633 -0.1965
   69CHL1  H26A 7580   5.990   1.700   8.070 -0.4682  1.9049 -0.6925
   69CHL1  H26B 7581   5.851   1.642   7.976  0.7176 -1.8712  2.4172
   69CHL1  H26C 7582   5.997   1.551   7.954  0.6737  0.4405 -1.4894
   69CHL1   C27 7583   6.145   1.795   7.877 -0.1066  0.8061 -0.2822
   69CHL1  H27A 7584   6.160   1.848   7.974 -0.6951 -1.2265  0.9821
   69CHL1  H27B 7585   6.215   1.711   7.860  0.4192  1.1404  0.1539
   69CHL1  H27C 7586   6.179   1.864   7.797  1.0153 -0.9602 -1.4036
   70CHL1    C3 7587   0.364   5.503   7.021  0.0193 -0.2936  0.0500
   70CHL1    H3 7588   0.453   5.516   7.088  0.3192  1.6331 -0.6724
   70CHL1    O3 7589   0.403   5.442   6.901 -0.0107  0.3203  0.3676
   70CHL1   H3' 7590   0.317   5.414   6.869  0.0293 -0.8434  1.2196
   70CHL1    C4 7591   0.257   5.422   7.095 -0.6130 -0.2372 -0.5995
   70CHL1   H4A 7592   0.158   5.415   7.047 -0.7794 -0.2381 -0.2581
   70CHL1   H4B 7593   0.286   5.315   7.101 -0.6215 -0.2080  0.0561
   70CHL1    C5 7594   0.226   5.476   7.235 -0.0283 -0.3545 -0.0833
   70CHL1    C6 7595   0.247   5.414   7.350  0.3778  0.9117  0.9111
   70CHL1    H6 7596   0.306   5.322   7.346 -0.8152  0.1539  0.3694
   70CHL1    C7 7597   0.221   5.477   7.480 -0.0843  0.2303  0.4380
   70CHL1   H7A 7598   0.174   5.394   7.538 -1.0066  1.0063  0.8482
   70CHL1   H7B 7599   0.319   5.504   7.523 -0.0910  1.1894 -0.1233
   70CHL1    C8 7600   0.134   5.603   7.485 -0.2189  0.0993  0.2712
   70CHL1    H8 7601   0.027   5.576   7.469 -1.6058  3.9585  1.8880
   70CHL1   C14 7602   0.142   5.670   7.614  0.2980  0.0801 -0.2944
   70CHL1   H14 7603   0.248   5.698   7.630 -0.2655  2.7780 -0.7825
   70CHL1   C15 7604   0.096   5.592   7.745  0.3445 -0.6313  0.1184
   70CHL1  H15A 7605  -0.009   5.556   7.737  0.4289 -0.7313 -0.6049
   70CHL1  H15B 7606   0.164   5.505   7.756 -1.3729 -1.9535  0.7622
   70CHL1   C16 7607   0.092   5.707   7.839  0.1000  0.7436 -0.7031
   70CHL1  H16A 7608  -0.007   5.698   7.889 -0.0208 -0.6419 -1.1288
   70CHL1  H16B 7609   0.168   5.687   7.917  0.3941 -1.7986 -1.5361
   70CHL1   C17 7610   0.105   5.841   7.764 -0.0836  0.1184  0.2494
   70CHL1   H17 7611   0.214   5.864   7.765  0.2650 -1.3820 -0.0705
   70CHL1   C13 7612   0.077   5.808   7.621 -0.2942  0.5168  0.7675
   70CHL1   C18 7613  -0.080   5.787   7.602 -0.1557  0.5084 -0.1546
   70CHL1  H18A 7614  -0.104   5.709   7.526  2.0345  0.7233 -1.1189
   70CHL1  H18B 7615  -0.127   5.749   7.695 -0.1030 -1.5622 -0.9209
   70CHL1  H18C 7616  -0.113   5.886   7.564 -1.6626 -0.6870 -2.1860
   70CHL1   C12 7617   0.134   5.899   7.503  0.0173  0.3766 -0.0333
   70CHL1  H12A 7618   0.091   6.001   7.508 -2.0297 -0.4617  3.4499
   70CHL1  H12B 7619   0.242   5.901   7.527 -0.3015  2.1804  1.4528
   70CHL1   C11 7620   0.104   5.835   7.363 -0.5567  0.3229 -0.4871
   70CHL1  H11A 7621  -0.007   5.832   7.353 -0.5082  2.4690 -2.3785
   70CHL1  H11B 7622   0.133   5.908   7.285  0.2901 -0.0585 -0.5370
   70CHL1    C9 7623   0.177   5.694   7.362 -0.0810 -0.4583  0.0406
   70CHL1    H9 7624   0.285   5.714   7.377  0.0978 -0.3075 -1.2776
   70CHL1   C10 7625   0.167   5.621   7.224 -0.2051  0.4369  0.1189
   70CHL1   C19 7626   0.020   5.620   7.181 -1.3507 -0.1293  0.5231
   70CHL1  H19A 7627  -0.010   5.717   7.136  1.6910  0.7977  0.2226
   70CHL1  H19B 7628   0.012   5.547   7.098  2.5154  1.0373 -1.1254
   70CHL1  H19C 7629  -0.044   5.596   7.269 -0.0605  0.0678  1.5501
   70CHL1    C1 7630   0.261   5.706   7.132 -0.2583 -0.6544 -0.0803
   70CHL1   H1A 7631   0.196   5.793   7.107 -1.7838 -1.9934 -0.8987
   70CHL1   H1B 7632   0.352   5.734   7.190 -0.0578 -2.2681  0.4243
   70CHL1    C2 7633   0.305   5.648   6.993  0.4972  0.4789  0.6901
   70CHL1   H2A 7634   0.386   5.713   6.954  1.4969 -1.4352 -0.6054
   70CHL1   H2B 7635   0.215   5.649   6.929  0.4777  1.8063  0.7113
   70CHL1   C20 7636   0.037   5.952   7.841 -0.2635  0.4521  0.2987
   70CHL1   H20 7637  -0.069   5.919   7.848 -0.2867 -0.6881 -3.3290
   70CHL1   C21 7638   0.030   6.079   7.752 -0.3702  0.4060  0.0098
   70CHL1  H21A 7639  -0.038   6.071   7.665 -1.1904 -2.0746  0.7902
   70CHL1  H21B 7640   0.133   6.103   7.719  0.1020 -1.0211  0.3845
   70CHL1  H21C 7641  -0.013   6.161   7.813  1.1565  0.7168  0.7239
   70CHL1   C22 7642   0.103   5.970   7.979 -0.8787 -0.4044  1.1274
   70CHL1  H22A 7643   0.204   5.926   7.993 -1.3411 -1.2515  1.8739
   70CHL1  H22B 7644   0.137   6.076   7.983  0.1585 -0.5438 -1.5874
   70CHL1   C23 7645   0.009   5.927   8.088  0.6826 -0.4158  0.1822
   70CHL1  H23A 7646  -0.083   5.989   8.095 -0.0693 -1.5495  0.6207
   70CHL1  H23B 7647  -0.027   5.822   8.085  2.0943 -0.9844  1.5926
   70CHL1   C24 7648   0.083   5.944   8.218  0.2768 -0.2097  0.5286
   70CHL1  H24A 7649   0.177   5.884   8.217  1.4913  1.5773  1.0670
   70CHL1  H24B 7650   0.124   6.047   8.220  1.8434 -0.6899 -2.0792
   70CHL1   C25 7651  -0.011   5.916   8.337  0.0825  1.2345  0.2758
   70CHL1   H25 7652  -0.097   5.986   8.332 -1.9355 -1.1812 -2.7702
   70CHL1   C26 7653  -0.071   5.775   8.337 -0.4247 -0.0676  0.4512
   70CHL1  H26A 7654  -0.002   5.688   8.323 -2.7622 -2.0364  0.4124
   70CHL1  H26B 7655  -0.128   5.759   8.430 -2.3609  0.8907 -0.5204
   70CHL1  H26C 7656  -0.138   5.771   8.248  2.3115  1.1087 -1.8024
   70CHL1   C27 7657   0.053   5.949   8.481 -0.2603  0.0980 -0.0286
   70CHL1  H27A 7658   0.136   5.879   8.507  0.2809  0.8558  0.3165
   70CHL1  H27B 7659   0.086   6.055   8.482  2.7538 -0.6831  2.7035
   70CHL1  H27C 7660  -0.024   5.923   8.556 -2.1920  1.3667 -1.4865
   71CHL1    C3 7661   4.723   0.700   6.790  0.5095  0.3846 -0.5904
   71CHL1    H3 7662   4.653   0.625   6.833  0.6312  1.3568  1.3791
   71CHL1    O3 7663   4.700   0.729   6.656  0.3886 -0.1839 -0.1673
   71CHL1   H3' 7664   4.786   0.747   6.618  0.0714 -1.2766 -1.4567
   71CHL1    C4 7665   4.690   0.821   6.876 -0.4347 -0.2111 -0.2350
   71CHL1   H4A 7666   4.745   0.902   6.823  2.4101 -1.7493  0.1298
   71CHL1   H4B 7667   4.582   0.842   6.862 -0.1656  1.8234  0.4439
   71CHL1    C5 7668   4.724   0.808   7.027 -0.1803 -0.3608  0.5527
   71CHL1    C6 7669   4.637   0.821   7.126  0.0947  0.1409  0.0484
   71CHL1    H6 7670   4.533   0.849   7.108  0.0729 -0.3942 -0.7205
   71CHL1    C7 7671   4.671   0.819   7.270  0.2719 -0.8122 -0.3504
   71CHL1   H7A 7672   4.643   0.899   7.342  2.7477 -0.5763  0.4682
   71CHL1   H7B 7673   4.622   0.730   7.315 -2.9491  0.3112 -1.3777
   71CHL1    C8 7674   4.832   0.811   7.291 -0.1968  0.0689  0.3394
   71CHL1    H8 7675   4.873   0.912   7.272  0.1960 -0.4507 -1.7994
   71CHL1   C14 7676   4.865   0.756   7.428  0.6109 -0.7337 -0.0429
   71CHL1   H14 7677   4.837   0.650   7.406  0.1757 -0.5062 -0.6161
   71CHL1   C15 7678   4.788   0.807   7.551  0.3939 -0.0018 -0.5552
   71CHL1  H15A 7679   4.774   0.917   7.541  1.6437  0.1471 -0.8944
   71CHL1  H15B 7680   4.689   0.757   7.544 -0.7774  1.9341  1.0583
   71CHL1   C16 7681   4.878   0.779   7.671  0.6804  0.2556  0.0035
   71CHL1  H16A 7682   4.913   0.873   7.719  1.5629  0.7810 -1.5976
   71CHL1  H16B 7683   4.825   0.712   7.742  2.3766 -2.2615 -1.0087
   71CHL1   C17 7684   4.997   0.703   7.609 -0.3360 -0.2221  0.3607
   71CHL1   H17 7685   4.969   0.595   7.608  0.3956 -0.4164  0.2890
   71CHL1   C13 7686   5.007   0.751   7.462 -0.3336  0.0235  0.2062
   71CHL1   C18 7687   5.068   0.895   7.469 -0.2201  0.2646 -0.2028
   71CHL1  H18A 7688   5.179   0.888   7.465 -0.2719 -1.0604  0.0303
   71CHL1  H18B 7689   5.036   0.956   7.383  1.3196  1.6271  0.1346
   71CHL1  H18C 7690   5.041   0.960   7.555 -0.7994 -1.0655  0.6671
   71CHL1   C12 7691   5.085   0.662   7.360 -0.1609  0.6894  0.0120
   71CHL1  H12A 7692   5.195   0.664   7.371 -0.2372  0.1576  0.9505
   71CHL1  H12B 7693   5.050   0.557   7.362  1.9775 -0.0970 -0.9808
   71CHL1   C11 7694   5.056   0.705   7.209  0.1171 -0.1340 -0.2094
   71CHL1  H11A 7695   5.122   0.794   7.198  0.4456 -0.3899 -0.3489
   71CHL1  H11B 7696   5.090   0.627   7.138 -4.7488 -1.0106 -1.9900
   71CHL1    C9 7697   4.902   0.725   7.184  0.0203  0.1009 -0.4986
   71CHL1    H9 7698   4.862   0.621   7.190 -1.0602  0.5398  0.2952
   71CHL1   C10 7699   4.871   0.780   7.038 -0.5793  1.0336 -0.5527
   71CHL1   C19 7700   4.953   0.910   7.022  0.4411  0.3680 -0.2878
   71CHL1  H19A 7701   4.943   0.938   6.915  0.6091 -0.7853 -0.6221
   71CHL1  H19B 7702   4.910   0.985   7.093 -1.9896 -0.8948 -0.3209
   71CHL1  H19C 7703   5.061   0.884   7.025  0.8826  2.1524  1.2938
   71CHL1    C1 7704   4.921   0.661   6.947  0.5409 -0.0877  0.5738
   71CHL1   H1A 7705   5.031   0.644   6.936  0.6003  0.4359  0.3490
   71CHL1   H1B 7706   4.878   0.565   6.981 -0.0708 -0.8747 -2.1312
   71CHL1    C2 7707   4.864   0.660   6.801 -0.4326  0.0672 -0.2730
   71CHL1   H2A 7708   4.879   0.559   6.759  0.9318 -1.0165  2.5292
   71CHL1   H2B 7709   4.928   0.723   6.736  1.7602 -2.0491 -0.3017
   71CHL1   C20 7710   5.125   0.711   7.696  0.8681 -0.0165  0.6076
   71CHL1   H20 7711   5.168   0.813   7.697  0.6174  0.1093 -0.3926
   71CHL1   C21 7712   5.232   0.611   7.639 -0.4149 -0.1988  0.0667
   71CHL1  H21A 7713   5.310   0.595   7.716  0.7160 -0.1621 -1.0379
   71CHL1  H21B 7714   5.281   0.654   7.549 -2.2252  1.3633 -0.2310
   71CHL1  H21C 7715   5.187   0.512   7.616 -0.4377  0.0875 -1.2115
   71CHL1   C22 7716   5.107   0.667   7.843 -0.0580 -0.1039  0.3457
   71CHL1  H22A 7717   5.006   0.682   7.888 -0.2872 -1.4492  0.3374
   71CHL1  H22B 7718   5.121   0.557   7.844  4.6176  0.3257  0.2116
   71CHL1   C23 7719   5.215   0.721   7.940  0.6853 -0.5513  0.6878
   71CHL1  H23A 7720   5.314   0.711   7.889  0.4099 -0.3463  0.1011
   71CHL1  H23B 7721   5.199   0.829   7.956  1.1570 -0.6809  2.2180
   71CHL1   C24 7722   5.204   0.643   8.073 -0.8426 -0.1707 -0.3148
   71CHL1  H24A 7723   5.110   0.675   8.122 -0.3503  0.0918  0.4814
   71CHL1  H24B 7724   5.194   0.535   8.049 -0.1828 -0.4676  0.6700
   71CHL1   C25 7725   5.318   0.672   8.177 -0.1618 -0.2113  0.0990
   71CHL1   H25 7726   5.416   0.654   8.129  0.3415  2.0301  0.1321
   71CHL1   C26 7727   5.314   0.820   8.219 -0.8705  0.3077  0.0930
   71CHL1  H26A 7728   5.407   0.842   8.277  0.1020  0.1447 -1.3457
   71CHL1  H26B 7729   5.313   0.881   8.127 -1.8433  0.7868  0.4113
   71CHL1  H26C 7730   5.223   0.842   8.279 -0.1542 -0.9405  1.7333
   71CHL1   C27 7731   5.295   0.580   8.298  0.8498  0.1202  0.0495
   71CHL1  H27A 7732   5.204   0.612   8.353  0.8047 -0.3732  0.2634
   71CHL1  H27B 7733   5.289   0.475   8.261  2.0368 -0.2403  0.8307
   71CHL1  H27C 7734   5.390   0.574   8.355  1.9849 -1.8089 -1.8835
   72CHL1    C3 7735   5.877   4.317   6.993 -0.9086  0.5726  0.3003
   72CHL1    H3 7736   5.962   4.386   7.009  0.4257 -0.9303 -0.0649
   72CHL1    O3 7737   5.847   4.333   6.851  0.2549  0.2449 -0.0494
   72CHL1   H3' 7738   5.764   4.285   6.841 -0.9766  1.9046  1.5445
   72CHL1    C4 7739   5.930   4.172   7.020 -0.0577  0.1086  0.2182
   72CHL1   H4A 7740   5.852   4.110   6.971  0.3226 -0.7599  0.6858
   72CHL1   H4B 7741   6.027   4.165   6.966 -0.3832  1.4177 -0.5725
   72CHL1    C5 7742   5.944   4.155   7.173 -0.2634 -0.0336 -0.0433
   72CHL1    C6 7743   6.061   4.122   7.220 -0.2290  0.2030 -0.7845
   72CHL1    H6 7744   6.140   4.086   7.152  1.2356 -0.2987  1.0755
   72CHL1    C7 7745   6.082   4.078   7.360 -0.0060 -1.1555  0.1318
   72CHL1   H7A 7746   6.133   3.979   7.365 -0.1335 -1.4598 -2.8153
   72CHL1   H7B 7747   6.138   4.158   7.414 -1.2526  0.3882 -0.7917
   72CHL1    C8 7748   5.950   4.059   7.437  0.8383 -0.3869 -0.8870
   72CHL1    H8 7749   5.907   3.960   7.410 -2.0892  0.9822 -1.5889
   72CHL1   C14 7750   5.980   4.048   7.584 -0.2559 -0.2275 -0.3057
   72CHL1   H14 7751   6.048   4.130   7.616  1.4297 -1.9235  0.7042
   72CHL1   C15 7752   6.077   3.931   7.624 -0.0169 -0.6646  0.0131
   72CHL1  H15A 7753   6.051   3.835   7.576  0.6433 -0.7557 -0.1717
   72CHL1  H15B 7754   6.186   3.950   7.609  0.0239 -1.8138 -1.3701
   72CHL1   C16 7755   6.041   3.912   7.772 -0.0691  0.1214  0.6081
   72CHL1  H16A 7756   6.000   3.809   7.786  0.8199  0.0405  3.2140
   72CHL1  H16B 7757   6.128   3.930   7.839  0.0885  0.4452  0.3202
   72CHL1   C17 7758   5.936   4.010   7.811  0.1679  0.5551 -0.2040
   72CHL1   H17 7759   5.996   4.100   7.831  1.4830 -0.3596  0.0606
   72CHL1   C13 7760   5.862   4.030   7.676 -0.1070 -0.3856  0.5227
   72CHL1   C18 7761   5.777   3.907   7.631 -0.2086 -0.8546 -0.2030
   72CHL1  H18A 7762   5.844   3.819   7.626 -0.8195 -1.3378 -0.0449
   72CHL1  H18B 7763   5.696   3.900   7.708  0.5643  2.3326  1.0727
   72CHL1  H18C 7764   5.733   3.921   7.530 -1.2905 -1.4421  0.1660
   72CHL1   C12 7765   5.779   4.160   7.657  0.3448  0.0924 -0.1357
   72CHL1  H12A 7766   5.696   4.169   7.730  0.8360 -0.2721  0.4863
   72CHL1  H12B 7767   5.841   4.245   7.691  0.5427 -0.1243  0.0542
   72CHL1   C11 7768   5.731   4.181   7.510  0.1496  1.1769  0.2460
   72CHL1  H11A 7769   5.651   4.108   7.486  0.8156  0.3011  0.6073
   72CHL1  H11B 7770   5.684   4.282   7.509  1.0992  1.6468 -1.4135
   72CHL1    C9 7771   5.854   4.174   7.411 -0.6104 -0.2463  0.7050
   72CHL1    H9 7772   5.908   4.270   7.428 -1.7251  0.6457 -0.5453
   72CHL1   C10 7773   5.825   4.180   7.264  0.5629 -0.2344  0.6262
   72CHL1   C19 7774   5.709   4.084   7.233 -0.4103 -0.2892  0.2614
   72CHL1  H19A 7775   5.614   4.105   7.288 -0.7482  0.8101 -0.6883
   72CHL1  H19B 7776   5.680   4.073   7.127 -1.0368 -0.7976  0.4758
   72CHL1  H19C 7777   5.738   3.983   7.267  0.8758  0.1497  0.5120
   72CHL1    C1 7778   5.771   4.320   7.227 -0.5850  0.7730  0.7035
   72CHL1   H1A 7779   5.678   4.344   7.282 -0.0315  2.2257  1.0502
   72CHL1   H1B 7780   5.846   4.391   7.269 -0.9943  1.3468  0.4620
   72CHL1    C2 7781   5.748   4.348   7.079 -0.3499 -0.5895 -0.3110
   72CHL1   H2A 7782   5.718   4.455   7.078  0.4632 -0.2693  2.4061
   72CHL1   H2B 7783   5.664   4.289   7.037 -0.3262 -0.4255 -0.5958
   72CHL1   C20 7784   5.847   3.973   7.930  0.2136  0.1507 -0.3067
   72CHL1   H20 7785   5.748   4.021   7.913  0.9553  0.9867 -2.7395
   72CHL1   C21 7786   5.895   4.036   8.063 -0.2387 -0.3987  0.1948
   72CHL1  H21A 7787   5.906   4.146   8.046 -0.1310 -0.7868 -2.7732
   72CHL1  H21B 7788   5.997   4.002   8.090  0.8678  2.2314 -0.2869
   72CHL1  H21C 7789   5.821   4.027   8.145 -0.6213  1.9991  0.1890
   72CHL1   C22 7790   5.812   3.825   7.939  0.0776  0.1190 -0.0789
   72CHL1  H22A 7791   5.800   3.793   7.833 -0.5307 -2.7469  0.8016
   72CHL1  H22B 7792   5.895   3.762   7.978 -1.7228 -1.8361  0.7520
   72CHL1   C23 7793   5.681   3.797   8.019 -0.0902 -0.3405  0.2082
   72CHL1  H23A 7794   5.678   3.863   8.109 -1.7418 -1.1110  0.7633
   72CHL1  H23B 7795   5.601   3.839   7.955 -0.3726  0.1674  0.8819
   72CHL1   C24 7796   5.657   3.656   8.063  0.9722 -0.2372 -0.8684
   72CHL1  H24A 7797   5.661   3.579   7.984 -1.4727 -0.6261 -0.6715
   72CHL1  H24B 7798   5.744   3.625   8.126 -0.5623  0.3407  1.6981
   72CHL1   C25 7799   5.526   3.644   8.153  0.4835  0.2527 -0.7614
   72CHL1   H25 7800   5.453   3.707   8.097 -1.3893  1.1027  2.3726
   72CHL1   C26 7801   5.475   3.503   8.170  0.1488  0.1162 -0.2525
   72CHL1  H26A 7802   5.378   3.512   8.223 -0.6614 -0.8474 -1.5126
   72CHL1  H26B 7803   5.463   3.447   8.075  2.4789 -0.6463 -0.1634
   72CHL1  H26C 7804   5.542   3.438   8.229 -1.0933  0.2763  1.4052
   72CHL1   C27 7805   5.536   3.709   8.294  0.1506 -0.6261 -0.3926
   72CHL1  H27A 7806   5.571   3.814   8.285  1.1476 -0.9275 -0.1816
   72CHL1  H27B 7807   5.439   3.695   8.346  0.8869 -1.2252  0.8777
   72CHL1  H27C 7808   5.606   3.642   8.349  1.2765 -1.8470 -3.1198
   73CHL1    C3 7809   5.992   3.717   6.896  0.3933  0.4733  0.0176
   73CHL1    H3 7810   6.073   3.782   6.937  0.0225  0.5525  0.6334
   73CHL1    O3 7811   5.979   3.763   6.755 -0.2094  0.2302 -0.7842
   73CHL1   H3' 7812   5.916   3.836   6.757 -1.2557 -0.6436 -0.5042
   73CHL1    C4 7813   6.031   3.571   6.894 -0.3469  0.3891 -0.5763
   73CHL1   H4A 7814   5.947   3.506   6.861  0.6750 -0.5891 -1.3518
   73CHL1   H4B 7815   6.118   3.559   6.826 -0.2700  3.4284 -1.1546
   73CHL1    C5 7816   6.068   3.519   7.034 -0.2893 -0.1362  0.4938
   73CHL1    C6 7817   6.184   3.460   7.081 -0.2734  0.5643  0.7544
   73CHL1    H6 7818   6.267   3.432   7.015  0.5215 -1.8875  2.6487
   73CHL1    C7 7819   6.203   3.405   7.216 -0.3108  0.8424 -0.5538
   73CHL1   H7A 7820   6.256   3.307   7.222 -1.4606  0.3105  2.3725
   73CHL1   H7B 7821   6.269   3.480   7.265  0.5030  0.9013 -1.6893
   73CHL1    C8 7822   6.074   3.395   7.303 -0.4216  0.0768  0.3266
   73CHL1    H8 7823   6.014   3.309   7.267  0.1240  0.2605 -1.0797
   73CHL1   C14 7824   6.103   3.374   7.447  0.9718 -0.1364 -0.0594
   73CHL1   H14 7825   6.170   3.453   7.487 -0.6334  1.3374 -0.1632
   73CHL1   C15 7826   6.175   3.245   7.484 -0.1809 -0.5365  0.0382
   73CHL1  H15A 7827   6.117   3.162   7.437 -0.6158  0.7551 -1.8057
   73CHL1  H15B 7828   6.280   3.234   7.449 -0.2065  0.8801 -0.5420
   73CHL1   C16 7829   6.158   3.237   7.635  0.4885  0.9399 -0.0102
   73CHL1  H16A 7830   6.130   3.132   7.659  1.2236  0.6092 -0.5770
   73CHL1  H16B 7831   6.262   3.242   7.674  0.6424 -1.2801 -0.0531
   73CHL1   C17 7832   6.059   3.349   7.683 -0.0771  0.0410  0.6786
   73CHL1   H17 7833   6.118   3.440   7.706  2.3881 -1.4240  0.5454
   73CHL1   C13 7834   5.982   3.384   7.551  0.2371  0.4971 -0.9225
   73CHL1   C18 7835   5.874   3.276   7.519 -0.5483  0.0714  0.2588
   73CHL1  H18A 7836   5.851   3.275   7.410 -0.5077  1.3803  0.2213
   73CHL1  H18B 7837   5.903   3.173   7.549  0.7408 -0.4286 -2.3971
   73CHL1  H18C 7838   5.777   3.301   7.567 -0.5039 -1.5685  1.2809
   73CHL1   C12 7839   5.929   3.529   7.540 -0.3742  0.6798 -0.5196
   73CHL1  H12A 7840   5.838   3.539   7.603  0.5440  0.8958  0.8171
   73CHL1  H12B 7841   6.005   3.599   7.581 -0.4818 -0.0996  1.1016
   73CHL1   C11 7842   5.896   3.570   7.391  0.6233  0.5841 -0.3420
   73CHL1  H11A 7843   5.808   3.506   7.366  2.5810 -2.5603  0.2530
   73CHL1  H11B 7844   5.865   3.676   7.385 -0.9766  0.1022 -1.5276
   73CHL1    C9 7845   6.006   3.534   7.278 -0.0050 -0.0574 -0.3618
   73CHL1    H9 7846   6.089   3.608   7.291  0.8429 -0.6965 -1.8415
   73CHL1   C10 7847   5.955   3.542   7.134  0.0870 -0.6331  0.0056
   73CHL1   C19 7848   5.846   3.437   7.103 -0.0014  0.2513  0.4456
   73CHL1  H19A 7849   5.808   3.448   6.999 -0.7188  0.0058  0.6772
   73CHL1  H19B 7850   5.877   3.331   7.111 -1.2775 -0.2342 -0.6177
   73CHL1  H19C 7851   5.757   3.442   7.168 -1.9196 -1.8670 -1.8301
   73CHL1    C1 7852   5.893   3.684   7.119  0.0306 -0.2039 -1.0442
   73CHL1   H1A 7853   5.799   3.689   7.178  0.5560 -1.4235 -0.0634
   73CHL1   H1B 7854   5.967   3.757   7.156 -0.5584  1.3821 -2.8022
   73CHL1    C2 7855   5.866   3.730   6.970  0.1677  0.8223  0.3547
   73CHL1   H2A 7856   5.834   3.836   6.982 -1.7524  0.2420  0.7129
   73CHL1   H2B 7857   5.792   3.653   6.939  2.9183 -2.2249  0.8006
   73CHL1   C20 7858   5.976   3.317   7.805 -0.2423  0.0472 -0.5814
   73CHL1   H20 7859   5.892   3.252   7.774 -1.3102  0.2683  1.7041
   73CHL1   C21 7860   5.909   3.454   7.860 -0.4070  0.2447 -0.1375
   73CHL1  H21A 7861   5.983   3.537   7.865 -1.4283  1.1126  1.4031
   73CHL1  H21B 7862   5.874   3.438   7.964 -0.0357  0.2673 -0.0055
   73CHL1  H21C 7863   5.816   3.478   7.804 -1.4187 -2.6193  0.1675
   73CHL1   C22 7864   6.047   3.251   7.920  0.5038  0.7449  0.4107
   73CHL1  H22A 7865   5.973   3.212   7.993  2.4657  0.0769  2.1546
   73CHL1  H22B 7866   6.090   3.156   7.882  0.1501 -0.1474  2.1240
   73CHL1   C23 7867   6.156   3.328   7.990  0.3111 -0.1440 -0.5831
   73CHL1  H23A 7868   6.243   3.338   7.923 -0.9159  0.1020 -2.2113
   73CHL1  H23B 7869   6.122   3.428   8.024 -1.2771 -0.4291 -1.2309
   73CHL1   C24 7870   6.209   3.258   8.117  0.1240  0.5579 -0.3263
   73CHL1  H24A 7871   6.129   3.228   8.189 -0.2320  1.4391 -0.3439
   73CHL1  H24B 7872   6.250   3.163   8.079 -0.1524 -0.2386  1.2545
   73CHL1   C25 7873   6.319   3.328   8.199 -0.4881 -0.2558  0.2901
   73CHL1   H25 7874   6.387   3.365   8.119 -0.4888  0.0740  0.4396
   73CHL1   C26 7875   6.260   3.449   8.284 -0.1517  1.0393  0.0031
   73CHL1  H26A 7876   6.189   3.408   8.359  0.1951  1.3220  0.4929
   73CHL1  H26B 7877   6.335   3.507   8.342  0.4578  0.5935 -0.3291
   73CHL1  H26C 7878   6.201   3.521   8.224  1.1527  0.5857 -1.9060
   73CHL1   C27 7879   6.401   3.237   8.296  0.1208 -0.1421  0.8292
   73CHL1  H27A 7880   6.361   3.207   8.395  0.9317 -2.1399  0.6019
   73CHL1  H27B 7881   6.428   3.138   8.252  1.2093  0.2459  0.5855
   73CHL1  H27C 7882   6.498   3.290   8.312 -0.2565  1.8789 -2.4797
   74CHL1    C3 7883   5.417   1.434   6.803 -0.0025  0.3715 -0.6408
   74CHL1    H3 7884   5.489   1.508   6.844  1.4652 -0.5036 -1.5388
   74CHL1    O3 7885   5.377   1.489   6.681 -0.1099  0.9028 -0.2312
   74CHL1   H3' 7886   5.287   1.455   6.679  0.5825 -1.0187 -1.2729
   74CHL1    C4 7887   5.474   1.293   6.784 -0.0030 -0.6301  0.3936
   74CHL1   H4A 7888   5.393   1.245   6.725 -2.2347  1.9101  1.1832
   74CHL1   H4B 7889   5.559   1.297   6.713 -0.2004  0.6834  0.2008
   74CHL1    C5 7890   5.509   1.209   6.906  0.6456 -0.0145 -0.1122
   74CHL1    C6 7891   5.630   1.147   6.914 -0.2811  0.9067 -0.1376
   74CHL1    H6 7892   5.697   1.163   6.828  0.1057 -0.2459 -0.0754
   74CHL1    C7 7893   5.677   1.064   7.036 -0.4340  0.4543 -0.2381
   74CHL1   H7A 7894   5.714   0.968   6.995  0.5867  0.6373  0.2375
   74CHL1   H7B 7895   5.747   1.125   7.096 -0.0931 -0.0681 -0.1055
   74CHL1    C8 7896   5.562   1.042   7.141  0.5241  0.1930  0.3552
   74CHL1    H8 7897   5.510   0.953   7.099  1.1171  0.9146 -2.0607
   74CHL1   C14 7898   5.624   1.005   7.277  0.4304 -0.2319  0.1833
   74CHL1   H14 7899   5.672   1.101   7.305 -1.3100  0.3095  1.4474
   74CHL1   C15 7900   5.727   0.894   7.283 -0.4670  0.2642  0.2757
   74CHL1  H15A 7901   5.704   0.812   7.212 -0.7734  0.8659 -0.3479
   74CHL1  H15B 7902   5.830   0.932   7.273  0.0045 -1.0584 -0.0495
   74CHL1   C16 7903   5.719   0.843   7.432  0.0786 -1.4970 -0.0648
   74CHL1  H16A 7904   5.685   0.737   7.439  1.9773 -2.1473 -0.1218
   74CHL1  H16B 7905   5.818   0.858   7.479 -0.0607  2.0087 -0.6215
   74CHL1   C17 7906   5.617   0.945   7.501  0.3682 -0.4496 -1.0153
   74CHL1   H17 7907   5.670   1.042   7.516 -1.4481  0.7587 -2.0372
   74CHL1   C13 7908   5.519   0.973   7.387  0.2491 -0.1479  0.4539
   74CHL1   C18 7909   5.445   0.844   7.359  0.1108  0.0681 -0.3763
   74CHL1  H18A 7910   5.520   0.777   7.312  1.6298  1.5660 -0.1753
   74CHL1  H18B 7911   5.393   0.808   7.450 -0.0689 -1.0843 -0.9181
   74CHL1  H18C 7912   5.363   0.856   7.286 -0.0360 -0.6691 -0.3439
   74CHL1   C12 7913   5.437   1.099   7.400  0.6541 -0.3446  0.8728
   74CHL1  H12A 7914   5.354   1.084   7.473 -0.0921 -0.7995 -0.0473
   74CHL1  H12B 7915   5.509   1.176   7.434  1.0838 -0.6711  0.7143
   74CHL1   C11 7916   5.376   1.157   7.270  0.2244 -0.3570 -0.3974
   74CHL1  H11A 7917   5.299   1.081   7.245  0.5904 -1.7854  2.4921
   74CHL1  H11B 7918   5.322   1.252   7.284  2.7843  1.1649 -0.2069
   74CHL1    C9 7919   5.473   1.166   7.152  0.1387  0.9858 -0.2594
   74CHL1    H9 7920   5.530   1.258   7.176 -2.4047  2.3903  0.8960
   74CHL1   C10 7921   5.401   1.212   7.015 -0.1482 -0.5821 -0.3882
   74CHL1   C19 7922   5.288   1.117   6.981  0.2683 -0.5921 -0.4800
   74CHL1  H19A 7923   5.205   1.131   7.053  0.6058 -3.7808  0.7193
   74CHL1  H19B 7924   5.244   1.150   6.885  1.6484  2.1495 -0.2648
   74CHL1  H19C 7925   5.324   1.012   6.991  2.4374  0.0767 -0.7907
   74CHL1    C1 7926   5.348   1.361   7.032 -0.1996 -0.5856  0.0285
   74CHL1   H1A 7927   5.260   1.366   7.100 -0.9068  0.3765 -0.9034
   74CHL1   H1B 7928   5.432   1.415   7.081  1.7716 -3.1944 -0.2573
   74CHL1    C2 7929   5.296   1.427   6.898  0.1061 -0.0017 -0.4979
   74CHL1   H2A 7930   5.246   1.522   6.923 -0.4484  0.0466 -1.6998
   74CHL1   H2B 7931   5.209   1.365   6.867 -2.1742  0.9436  3.3901
   74CHL1   C20 7932   5.561   0.893   7.633  0.0204 -0.1632  0.0436
   74CHL1   H20 7933   5.518   0.792   7.616  0.9792 -0.5832  0.0105
   74CHL1   C21 7934   5.459   0.991   7.698 -0.7675 -0.0345 -0.1245
   74CHL1  H21A 7935   5.503   1.092   7.681 -3.8989  1.2116 -1.5267
   74CHL1  H21B 7936   5.447   0.977   7.807  1.5520 -0.5558  0.1274
   74CHL1  H21C 7937   5.359   0.981   7.652 -0.3854 -1.8591 -0.6456
   74CHL1   C22 7938   5.682   0.862   7.729  0.0713 -0.1011 -0.1689
   74CHL1  H22A 7939   5.748   0.780   7.693 -1.0307 -0.8340 -0.5737
   74CHL1  H22B 7940   5.736   0.957   7.748  0.2592 -0.1293 -0.5747
   74CHL1   C23 7941   5.647   0.808   7.867  0.6872 -0.1333  0.4983
   74CHL1  H23A 7942   5.580   0.875   7.926  0.8794 -0.6747  1.3499
   74CHL1  H23B 7943   5.592   0.714   7.846  0.6706  0.3239 -1.7918
   74CHL1   C24 7944   5.764   0.789   7.958 -0.3592 -0.0471 -0.4715
   74CHL1  H24A 7945   5.842   0.724   7.912  0.7202  0.4456  0.6131
   74CHL1  H24B 7946   5.810   0.885   7.988 -0.2728 -0.9421  2.5862
   74CHL1   C25 7947   5.722   0.713   8.094  0.0763  0.6819 -0.1696
   74CHL1   H25 7948   5.636   0.764   8.142  0.3666 -0.9906  2.3066
   74CHL1   C26 7949   5.674   0.576   8.069  0.4908 -0.1661  0.6416
   74CHL1  H26A 7950   5.636   0.526   8.161  0.6087  2.2256  2.0882
   74CHL1  H26B 7951   5.591   0.583   7.995  0.4465  0.5526  0.7510
   74CHL1  H26C 7952   5.761   0.523   8.025 -1.0036 -2.0440 -0.1767
   74CHL1   C27 7953   5.838   0.718   8.197 -0.2790  0.3752  0.4736
   74CHL1  H27A 7954   5.930   0.675   8.152 -0.3620 -1.4009  1.8735
   74CHL1  H27B 7955   5.863   0.824   8.218 -0.1696  0.3004  0.7326
   74CHL1  H27C 7956   5.809   0.666   8.291 -0.9446  0.1843  0.1671
   75CHL1    C3 7957   2.030   0.939   6.866  0.0789  0.0695  0.2640
   75CHL1    H3 7958   1.951   0.864   6.886  0.9838 -0.8386  0.5310
   75CHL1    O3 7959   2.047   0.985   6.730 -1.0750  0.1616 -0.0524
   75CHL1   H3' 7960   1.958   1.003   6.700 -0.4996  0.0393 -1.9573
   75CHL1    C4 7961   1.990   1.057   6.945  0.1582  0.5852  0.5450
   75CHL1   H4A 7962   2.055   1.143   6.919  2.4957 -1.2181  0.1512
   75CHL1   H4B 7963   1.887   1.080   6.910 -1.0012 -2.2755  1.7753
   75CHL1    C5 7964   1.983   1.042   7.093  0.3017  0.1080 -0.1301
   75CHL1    C6 7965   1.870   1.069   7.172  0.1504  0.1474  0.2199
   75CHL1    H6 7966   1.783   1.110   7.118 -0.9844 -1.9120  0.3942
   75CHL1    C7 7967   1.862   1.059   7.323 -0.2911  0.0179 -0.3315
   75CHL1   H7A 7968   1.816   1.149   7.371  0.3498 -0.2830  0.8851
   75CHL1   H7B 7969   1.798   0.972   7.348 -0.5737 -0.2512 -1.9116
   75CHL1    C8 7970   2.000   1.039   7.382 -0.8405  0.1664 -0.4308
   75CHL1    H8 7971   2.055   1.135   7.377 -0.5900 -0.0147 -1.4036
   75CHL1   C14 7972   1.978   0.983   7.521 -0.0046 -0.2692  0.5275
   75CHL1   H14 7973   1.930   0.884   7.507 -0.1509 -0.2087  0.6057
   75CHL1   C15 7974   1.883   1.055   7.624 -0.0569  0.6013  0.1865
   75CHL1  H15A 7975   1.915   1.161   7.617  0.1485  0.5407  0.2055
   75CHL1  H15B 7976   1.776   1.052   7.596  0.4754  0.8217 -2.1379
   75CHL1   C16 7977   1.931   1.014   7.760  0.7646 -0.1905  0.2479
   75CHL1  H16A 7978   1.962   1.097   7.827  1.2047 -0.0530 -0.1288
   75CHL1  H16B 7979   1.849   0.958   7.810  1.4096 -0.4065  1.0807
   75CHL1   C17 7980   2.049   0.913   7.732 -0.0380 -0.2477 -0.3330
   75CHL1   H17 7981   2.002   0.814   7.715  0.5926 -1.2596  3.0755
   75CHL1   C13 7982   2.108   0.951   7.600  0.5416 -0.3997 -0.2509
   75CHL1   C18 7983   2.196   1.069   7.624 -0.5014  0.7965  0.2477
   75CHL1  H18A 7984   2.155   1.143   7.696  2.7812  0.9815  2.1519
   75CHL1  H18B 7985   2.291   1.030   7.667 -1.4850 -1.1011  0.8220
   75CHL1  H18C 7986   2.221   1.120   7.529 -0.5681  0.0632 -0.1750
   75CHL1   C12 7987   2.185   0.840   7.520  0.3637 -0.3181  0.7533
   75CHL1  H12A 7988   2.282   0.822   7.572  2.2423  1.4311 -1.8445
   75CHL1  H12B 7989   2.123   0.749   7.528  0.0890 -0.0650  1.6170
   75CHL1   C11 7990   2.205   0.886   7.371 -0.6936  0.5311 -0.4754
   75CHL1  H11A 7991   2.276   0.971   7.384  0.9474 -1.0794  1.8307
   75CHL1  H11B 7992   2.266   0.810   7.319 -1.0299 -0.5667  0.6814
   75CHL1    C9 7993   2.081   0.933   7.300  0.6610 -0.4607 -0.3381
   75CHL1    H9 7994   2.015   0.844   7.298  0.8715 -0.6126 -0.7147
   75CHL1   C10 7995   2.111   0.983   7.154  1.3482 -0.7302  0.1802
   75CHL1   C19 7996   2.221   1.088   7.160 -0.3402  0.1150  0.3851
   75CHL1  H19A 7997   2.243   1.132   7.060 -1.9458 -0.3490 -0.2041
   75CHL1  H19B 7998   2.195   1.172   7.227 -2.3861  0.3120 -0.5721
   75CHL1  H19C 7999   2.320   1.047   7.189  0.4765 -0.0175 -2.3113
   75CHL1    C1 8000   2.155   0.858   7.070 -0.1106 -0.2138 -0.2463
   75CHL1   H1A 8001   2.246   0.815   7.117  0.0167  1.5343  1.2426
   75CHL1   H1B 8002   2.086   0.776   7.099  0.1466 -0.5797 -0.6721
   75CHL1    C2 8003   2.162   0.874   6.921  1.0403 -0.4019 -0.3280
   75CHL1   H2A 8004   2.197   0.793   6.853  1.8974  0.1597 -0.5693
   75CHL1   H2B 8005   2.243   0.946   6.896  0.9798  0.0275  0.6808
   75CHL1   C20 8006   2.147   0.887   7.853  0.8258  0.1755 -0.6999
   75CHL1   H20 8007   2.243   0.845   7.815  1.1665  1.8248 -1.8032
   75CHL1   C21 8008   2.089   0.761   7.931  0.2495 -0.6612 -0.3874
   75CHL1  H21A 8009   1.998   0.784   7.991  0.0905 -0.3533 -0.7414
   75CHL1  H21B 8010   2.160   0.724   8.008 -2.3636 -0.1856  2.4364
   75CHL1  H21C 8011   2.062   0.686   7.854 -0.9548 -1.3179  0.6462
   75CHL1   C22 8012   2.166   0.998   7.954 -0.4621  0.4037  0.3610
   75CHL1  H22A 8013   2.201   1.093   7.908  2.5010 -0.0755  1.4478
   75CHL1  H22B 8014   2.073   1.000   8.015 -2.9461 -2.1101 -2.9343
   75CHL1   C23 8015   2.283   0.960   8.050 -0.0991  0.5942  0.9645
   75CHL1  H23A 8016   2.254   0.882   8.124  2.1752  0.5801  1.9240
   75CHL1  H23B 8017   2.368   0.930   7.985 -1.1043 -0.4983  0.1136
   75CHL1   C24 8018   2.335   1.075   8.133 -0.4317  0.1719  0.2622
   75CHL1  H24A 8019   2.372   1.156   8.067 -1.1469 -0.6481 -1.2189
   75CHL1  H24B 8020   2.239   1.121   8.165 -1.0582  0.2498 -1.6024
   75CHL1   C25 8021   2.427   1.037   8.251 -0.1410  0.3576  0.4053
   75CHL1   H25 8022   2.373   0.957   8.306 -1.8276 -0.9234 -2.8468
   75CHL1   C26 8023   2.552   0.973   8.192 -0.4032  0.0445  0.1925
   75CHL1  H26A 8024   2.614   1.047   8.137  0.1792 -0.3041  0.3632
   75CHL1  H26B 8025   2.617   0.942   8.276  1.0539 -3.2910 -1.9456
   75CHL1  H26C 8026   2.540   0.893   8.116 -1.0991  1.1059 -0.8494
   75CHL1   C27 8027   2.463   1.154   8.338 -0.1887 -0.1371 -0.1382
   75CHL1  H27A 8028   2.518   1.130   8.432  0.0471  2.5651  0.4970
   75CHL1  H27B 8029   2.526   1.219   8.274  0.0321 -0.0544  0.1596
   75CHL1  H27C 8030   2.373   1.215   8.360  0.4966  1.2627 -1.1365
   76CHL1    C3 8031   4.056   4.094   7.169 -0.0442  0.0923  0.1489
   76CHL1    H3 8032   3.970   4.162   7.184 -1.1780 -1.0642 -0.8291
   76CHL1    O3 8033   4.088   4.108   7.031 -0.0129 -0.0746 -0.3885
   76CHL1   H3' 8034   4.161   4.050   7.009  0.1759 -0.3839  0.9541
   76CHL1    C4 8035   4.178   4.137   7.254  0.3083 -0.3577 -0.4651
   76CHL1   H4A 8036   4.270   4.094   7.209  2.5246  2.8038  0.6869
   76CHL1   H4B 8037   4.178   4.247   7.238 -1.4830 -0.3354 -0.4676
   76CHL1    C5 8038   4.163   4.116   7.404 -0.2465  0.1622  0.3952
   76CHL1    C6 8039   4.191   4.220   7.488  0.5838 -0.1548 -0.7680
   76CHL1    H6 8040   4.227   4.319   7.456  0.5694  0.0428 -0.1914
   76CHL1    C7 8041   4.186   4.194   7.636 -0.6763 -0.1510 -0.1985
   76CHL1   H7A 8042   4.286   4.226   7.669  0.5892 -2.4661 -1.5191
   76CHL1   H7B 8043   4.106   4.252   7.688 -2.1181 -0.5520 -1.8545
   76CHL1    C8 8044   4.164   4.049   7.686  0.6860  0.1955  0.1653
   76CHL1    H8 8045   4.265   4.004   7.675  0.6900 -0.3554  2.1447
   76CHL1   C14 8046   4.111   4.037   7.828 -0.0380  0.2678 -0.3410
   76CHL1   H14 8047   4.008   4.075   7.817  0.2565  0.4418 -3.6032
   76CHL1   C15 8048   4.176   4.110   7.943 -0.1109 -0.0343  0.0430
   76CHL1  H15A 8049   4.286   4.103   7.937 -0.0267 -0.5034  1.6078
   76CHL1  H15B 8050   4.148   4.218   7.943 -1.6222 -0.3984 -0.8606
   76CHL1   C16 8051   4.114   4.034   8.065 -0.5334  0.0517  0.2175
   76CHL1  H16A 8052   4.195   4.019   8.141 -0.1721  0.7837 -0.0154
   76CHL1  H16B 8053   4.047   4.103   8.120 -1.7465 -1.9829  1.4358
   76CHL1   C17 8054   4.055   3.903   8.023 -0.4197 -0.7451 -0.2202
   76CHL1   H17 8055   3.948   3.933   8.030  0.2787  2.9497 -2.7248
   76CHL1   C13 8056   4.101   3.889   7.874 -0.0696 -0.0416  0.0517
   76CHL1   C18 8057   4.237   3.822   7.860 -0.0796  0.1442 -0.8130
   76CHL1  H18A 8058   4.245   3.718   7.898  0.6335  0.8547  1.0722
   76CHL1  H18B 8059   4.278   3.830   7.757  1.2425  4.6930 -0.1335
   76CHL1  H18C 8060   4.308   3.891   7.911  0.2370 -0.3974 -0.5111
   76CHL1   C12 8061   3.992   3.817   7.782  0.2893  0.2658  0.6264
   76CHL1  H12A 8062   3.963   3.714   7.813  0.9931  0.6020  2.5579
   76CHL1  H12B 8063   3.900   3.876   7.802  0.8459  1.8317 -1.1980
   76CHL1   C11 8064   4.025   3.828   7.631  1.1641 -0.0911 -0.7516
   76CHL1  H11A 8065   4.098   3.747   7.609 -0.4115 -2.4322  1.9084
   76CHL1  H11B 8066   3.934   3.806   7.571 -0.6120  2.1183  0.9651
   76CHL1    C9 8067   4.071   3.971   7.591  0.6243 -0.8636 -0.5693
   76CHL1    H9 8068   3.970   4.015   7.606 -0.5537 -2.4812 -3.1745
   76CHL1   C10 8069   4.118   3.976   7.438 -0.3405 -0.1695 -0.3166
   76CHL1   C19 8070   4.236   3.878   7.406  0.5596  0.3694  0.1503
   76CHL1  H19A 8071   4.211   3.771   7.398  1.4010  0.2608 -1.6356
   76CHL1  H19B 8072   4.278   3.902   7.305  0.0880 -3.0977 -0.9805
   76CHL1  H19C 8073   4.314   3.887   7.485  0.7009 -0.8676  0.1600
   76CHL1    C1 8074   4.002   3.929   7.356  0.2146  0.1170 -0.2058
   76CHL1   H1A 8075   3.984   3.821   7.376  1.3445 -0.3630 -1.6163
   76CHL1   H1B 8076   3.906   3.976   7.385  1.2522  1.4719  1.1980
   76CHL1    C2 8077   4.017   3.952   7.199  0.2853  0.9818 -0.3016
   76CHL1   H2A 8078   3.916   3.934   7.156 -0.0279 -0.0366  0.7899
   76CHL1   H2B 8079   4.088   3.876   7.158 -1.4485  0.0637 -1.7845
   76CHL1   C20 8080   4.083   3.782   8.119 -0.9031 -0.5880 -0.0848
   76CHL1   H20 8081   4.194   3.777   8.130 -0.4329  2.0535 -2.6320
   76CHL1   C21 8082   4.015   3.654   8.072  0.2018 -0.0031  0.0027
   76CHL1  H21A 8083   4.027   3.573   8.147 -0.0103 -0.9283 -0.9413
   76CHL1  H21B 8084   4.068   3.615   7.983 -0.4911  1.2938 -1.0172
   76CHL1  H21C 8085   3.906   3.665   8.054  0.4639  1.4415 -0.8869
   76CHL1   C22 8086   4.041   3.806   8.266  0.0813  0.3380  0.3261
   76CHL1  H22A 8087   4.042   3.911   8.300 -0.0570 -0.3556  2.6029
   76CHL1  H22B 8088   3.933   3.782   8.277  0.2005 -1.1277 -1.1676
   76CHL1   C23 8089   4.111   3.724   8.372 -0.4023  0.5727 -0.2541
   76CHL1  H23A 8090   4.088   3.616   8.358 -1.0404  0.8271 -1.3305
   76CHL1  H23B 8091   4.219   3.737   8.352 -0.3127  0.4738  0.1636
   76CHL1   C24 8092   4.078   3.777   8.511 -0.2413 -0.3589 -0.6523
   76CHL1  H24A 8093   4.094   3.886   8.524  0.1257 -0.4450 -0.3246
   76CHL1  H24B 8094   3.968   3.762   8.518 -0.3818  0.5921 -0.7331
   76CHL1   C25 8095   4.146   3.708   8.632 -0.4728  0.3188 -0.0012
   76CHL1   H25 8096   4.107   3.736   8.732  1.1346 -3.5919  1.9235
   76CHL1   C26 8097   4.127   3.549   8.627 -0.0027 -0.0058  0.1171
   76CHL1  H26A 8098   4.170   3.507   8.534 -0.4686  0.9690 -0.5507
   76CHL1  H26B 8099   4.183   3.507   8.713  3.3938  0.9504 -1.4597
   76CHL1  H26C 8100   4.022   3.515   8.638  0.6386 -2.2040 -0.2293
   76CHL1   C27 8101   4.297   3.749   8.627  0.1448 -0.1252 -0.6225
   76CHL1  H27A 8102   4.307   3.860   8.628 -0.0040 -0.0506 -2.7348
   76CHL1  H27B 8103   4.353   3.705   8.713  3.0767  2.2175 -1.1372
   76CHL1  H27C 8104   4.352   3.723   8.534  0.2830  1.2252 -0.9399
   77CHL1    C3 8105   5.220   2.606   6.604 -0.1496 -0.7199  0.2173
   77CHL1    H3 8106   5.330   2.609   6.593 -0.2189  1.0675 -0.4421
   77CHL1    O3 8107   5.167   2.654   6.484  0.5443  0.0765 -0.2482
   77CHL1   H3' 8108   5.072   2.643   6.493  0.7083 -1.6699 -0.2488
   77CHL1    C4 8109   5.174   2.462   6.628 -1.0284 -0.6935  0.5125
   77CHL1   H4A 8110   5.063   2.464   6.620 -1.1899  3.0879  1.5019
   77CHL1   H4B 8111   5.219   2.408   6.542 -0.9539 -0.6354  0.5148
   77CHL1    C5 8112   5.218   2.401   6.760 -0.0024  0.3130  0.0254
   77CHL1    C6 8113   5.293   2.295   6.776 -0.1627 -0.4301 -0.2634
   77CHL1    H6 8114   5.335   2.248   6.686  0.9908 -3.0695  1.5265
   77CHL1    C7 8115   5.330   2.239   6.913  0.6145  0.1181  1.1645
   77CHL1   H7A 8116   5.323   2.129   6.899 -0.7570  0.1445  1.4378
   77CHL1   H7B 8117   5.436   2.262   6.935  0.7435  1.0765 -0.3051
   77CHL1    C8 8118   5.238   2.285   7.029 -0.5067  0.5726 -0.2421
   77CHL1    H8 8119   5.135   2.243   7.030 -1.6650  3.2372  0.1377
   77CHL1   C14 8120   5.295   2.241   7.163 -0.0911 -0.7141  0.1782
   77CHL1   H14 8121   5.396   2.287   7.160 -1.2121  2.1001 -4.4341
   77CHL1   C15 8122   5.311   2.088   7.175 -0.1965  0.2657 -0.4620
   77CHL1  H15A 8123   5.218   2.041   7.136  0.2785 -0.1200 -1.1611
   77CHL1  H15B 8124   5.399   2.048   7.121  0.5768  1.2220  0.0739
   77CHL1   C16 8125   5.335   2.075   7.328  0.3019  0.0089 -0.1667
   77CHL1  H16A 8126   5.270   1.992   7.363  0.5640  0.1653  0.7121
   77CHL1  H16B 8127   5.437   2.035   7.349 -0.9972 -2.0344  2.9799
   77CHL1   C17 8128   5.312   2.215   7.389  0.6743 -0.1819 -0.2357
   77CHL1   H17 8129   5.410   2.266   7.382  1.1710 -1.0711  0.0719
   77CHL1   C13 8130   5.230   2.296   7.293  0.0990 -0.3154  0.0325
   77CHL1   C18 8131   5.088   2.249   7.302 -0.3579 -0.3614 -0.2253
   77CHL1  H18A 8132   5.028   2.320   7.363  0.7384  1.7848 -1.5031
   77CHL1  H18B 8133   5.043   2.255   7.201  0.6235  3.4635 -0.5939
   77CHL1  H18C 8134   5.079   2.145   7.339 -0.4059 -0.2734  0.0098
   77CHL1   C12 8135   5.230   2.450   7.285 -0.3350 -0.7148  0.4824
   77CHL1  H12A 8136   5.170   2.500   7.364 -1.5189 -1.7108  0.2441
   77CHL1  H12B 8137   5.334   2.489   7.290  0.3012 -2.1355 -0.8446
   77CHL1   C11 8138   5.175   2.502   7.155  0.9680  0.3170  0.1942
   77CHL1  H11A 8139   5.069   2.471   7.150  1.3037 -0.9501  0.7089
   77CHL1  H11B 8140   5.176   2.613   7.147 -0.0028  0.3759  0.8113
   77CHL1    C9 8141   5.225   2.435   7.022  0.2482  2.0011 -0.2400
   77CHL1    H9 8142   5.330   2.470   7.011  0.1438  2.4165  0.0792
   77CHL1   C10 8143   5.170   2.485   6.884 -0.1681 -0.8806  0.0320
   77CHL1   C19 8144   5.021   2.475   6.886 -0.3836 -0.7486  0.0055
   77CHL1  H19A 8145   4.976   2.521   6.977 -1.0017  1.0960 -1.1649
   77CHL1  H19B 8146   4.970   2.518   6.797 -0.9041  0.2946  0.7834
   77CHL1  H19C 8147   4.997   2.367   6.895  0.3513 -0.8518  0.8795
   77CHL1    C1 8148   5.216   2.636   6.862  0.0541  0.2041 -0.4400
   77CHL1   H1A 8149   5.159   2.704   6.929 -0.9386 -2.9460  2.1327
   77CHL1   H1B 8150   5.322   2.649   6.893 -0.3789  1.3624  0.6212
   77CHL1    C2 8151   5.179   2.702   6.724 -0.6785  0.1287 -0.4007
   77CHL1   H2A 8152   5.231   2.800   6.723 -0.7836  0.1831 -0.5648
   77CHL1   H2B 8153   5.069   2.718   6.721 -0.4956  1.4527 -0.7560
   77CHL1   C20 8154   5.259   2.222   7.535  0.4972  0.7038  0.7456
   77CHL1   H20 8155   5.157   2.177   7.539  1.0689 -0.6572  0.2376
   77CHL1   C21 8156   5.245   2.363   7.595  0.6542  0.5817  0.3392
   77CHL1  H21A 8157   5.147   2.409   7.568 -0.3458 -0.8719  1.3899
   77CHL1  H21B 8158   5.321   2.439   7.566  3.9008 -2.0874  1.2571
   77CHL1  H21C 8159   5.245   2.361   7.706 -0.4059 -0.7231  0.3455
   77CHL1   C22 8160   5.338   2.129   7.631 -0.3955  0.2064 -0.5543
   77CHL1  H22A 8161   5.287   2.143   7.729  0.1142 -0.7957 -0.1311
   77CHL1  H22B 8162   5.327   2.022   7.606 -2.0601 -0.3453  2.1100
   77CHL1   C23 8163   5.484   2.160   7.644  0.3144 -0.0189  0.0841
   77CHL1  H23A 8164   5.538   2.143   7.549  2.1032  1.6282  0.7430
   77CHL1  H23B 8165   5.495   2.270   7.656  0.9211 -0.0891  0.1872
   77CHL1   C24 8166   5.554   2.090   7.761 -0.1587 -0.0950  0.2928
   77CHL1  H24A 8167   5.661   2.119   7.769 -0.3368 -0.0473  3.4290
   77CHL1  H24B 8168   5.499   2.121   7.852  1.0391  0.0106  1.0048
   77CHL1   C25 8169   5.554   1.933   7.746  0.5069 -0.7040 -0.7653
   77CHL1   H25 8170   5.452   1.891   7.730  0.2779 -0.5590  0.2394
   77CHL1   C26 8171   5.622   1.887   7.624  0.1426 -0.2153  0.4789
   77CHL1  H26A 8172   5.604   1.778   7.611  0.1385 -0.1311 -0.2939
   77CHL1  H26B 8173   5.588   1.933   7.529  0.9351  1.3001  0.9111
   77CHL1  H26C 8174   5.731   1.902   7.610  0.1244 -0.6039 -0.1536
   77CHL1   C27 8175   5.603   1.854   7.863  0.1385 -0.1138 -0.3635
   77CHL1  H27A 8176   5.567   1.899   7.958 -2.6631 -4.0917  0.6859
   77CHL1  H27B 8177   5.548   1.757   7.867 -2.3679  1.2331  0.2100
   77CHL1  H27C 8178   5.711   1.836   7.846  0.2792  0.4688 -0.0943
   78CHL1    C3 8179   0.733   5.075   6.867 -0.3286 -0.0058  0.5809
   78CHL1    H3 8180   0.775   4.973   6.872  1.4203  0.6947  0.8753
   78CHL1    O3 8181   0.738   5.129   6.736  0.2256 -0.6844  0.4331
   78CHL1   H3' 8182   0.734   5.045   6.690 -2.2435 -1.8089  2.4446
   78CHL1    C4 8183   0.584   5.066   6.917 -0.0201 -0.0546 -0.0580
   78CHL1   H4A 8184   0.547   5.166   6.885  0.0795  0.0761  0.2367
   78CHL1   H4B 8185   0.531   5.002   6.843 -0.4535 -1.0500  1.0975
   78CHL1    C5 8186   0.562   5.029   7.059 -0.8066 -0.5352  0.0982
   78CHL1    C6 8187   0.489   4.924   7.106  0.6402 -0.3456  0.1342
   78CHL1    H6 8188   0.434   4.861   7.035 -1.3596  2.2330 -0.7916
   78CHL1    C7 8189   0.468   4.909   7.256  0.2268  0.0148 -0.1759
   78CHL1   H7A 8190   0.360   4.890   7.271  0.0644 -0.0591 -1.3280
   78CHL1   H7B 8191   0.522   4.820   7.296  1.0692  0.9277  0.7952
   78CHL1    C8 8192   0.518   5.029   7.337 -0.2181 -0.1585 -1.0964
   78CHL1    H8 8193   0.447   5.114   7.332 -0.4779 -0.1567  1.3762
   78CHL1   C14 8194   0.519   4.984   7.488 -0.1546 -0.4822 -0.9944
   78CHL1   H14 8195   0.591   4.900   7.495  3.6877  2.5609  0.0921
   78CHL1   C15 8196   0.395   4.929   7.551 -0.0321 -0.3003  0.0151
   78CHL1  H15A 8197   0.302   4.978   7.517  0.0518 -0.1090  0.0601
   78CHL1  H15B 8198   0.395   4.820   7.529  0.8754 -0.1839 -0.6136
   78CHL1   C16 8199   0.417   4.960   7.695 -0.8169 -0.7033  0.1431
   78CHL1  H16A 8200   0.333   5.029   7.719 -0.3881 -0.1230 -0.0168
   78CHL1  H16B 8201   0.421   4.868   7.758  0.5852 -0.3080  0.6609
   78CHL1   C17 8202   0.550   5.027   7.715 -0.5489 -0.5911  0.4059
   78CHL1   H17 8203   0.634   4.954   7.708  2.6112  2.8016 -0.4030
   78CHL1   C13 8204   0.575   5.100   7.581  0.2902  0.6888 -0.0447
   78CHL1   C18 8205   0.492   5.226   7.578  0.1866 -0.0887 -0.4566
   78CHL1  H18A 8206   0.496   5.285   7.484  1.6249  0.3448 -0.1463
   78CHL1  H18B 8207   0.388   5.195   7.601  0.6631 -1.1884  0.3093
   78CHL1  H18C 8208   0.515   5.290   7.666 -1.8248  0.1656 -0.0518
   78CHL1   C12 8209   0.720   5.123   7.535 -0.5146 -0.6740 -0.4174
   78CHL1  H12A 8210   0.778   5.195   7.597  2.5134 -2.2781 -1.2217
   78CHL1  H12B 8211   0.775   5.027   7.527  0.8193 -0.2096  2.1559
   78CHL1   C11 8212   0.724   5.180   7.388  0.3602 -0.0700 -0.4702
   78CHL1  H11A 8213   0.687   5.284   7.387  1.9113  0.5456  0.8536
   78CHL1  H11B 8214   0.833   5.192   7.369 -0.0518  2.2091 -1.6847
   78CHL1    C9 8215   0.658   5.075   7.292 -0.2260 -0.3668 -0.4683
   78CHL1    H9 8216   0.719   4.982   7.297  0.8832  0.3025 -1.0979
   78CHL1   C10 8217   0.654   5.127   7.144 -0.2366  0.4598 -0.2621
   78CHL1   C19 8218   0.587   5.269   7.152  0.0034  0.1683 -0.0095
   78CHL1  H19A 8219   0.496   5.267   7.216  1.6194 -1.7452  2.4158
   78CHL1  H19B 8220   0.659   5.341   7.198  0.3318 -0.3638  0.3156
   78CHL1  H19C 8221   0.555   5.308   7.053 -0.3376  2.3252  0.8872
   78CHL1    C1 8222   0.802   5.143   7.098  1.3075  0.1571  0.3132
   78CHL1   H1A 8223   0.860   5.219   7.156  1.7434 -0.8501  1.2284
   78CHL1   H1B 8224   0.857   5.047   7.108  0.2749 -0.4189  0.6045
   78CHL1    C2 8225   0.813   5.172   6.951  0.5919 -0.2077  0.7562
   78CHL1   H2A 8226   0.915   5.158   6.910 -0.3687 -1.7219 -1.2310
   78CHL1   H2B 8227   0.779   5.272   6.915 -0.8153 -1.8001 -2.8315
   78CHL1   C20 8228   0.544   5.106   7.843 -0.9700  0.8884  0.1642
   78CHL1   H20 8229   0.462   5.181   7.841 -0.4737  1.4653  0.8633
   78CHL1   C21 8230   0.673   5.189   7.867 -0.6527  0.3905  0.5715
   78CHL1  H21A 8231   0.755   5.113   7.861 -0.8528  0.2694 -1.1035
   78CHL1  H21B 8232   0.673   5.244   7.963 -0.4195 -2.4916  2.3480
   78CHL1  H21C 8233   0.710   5.260   7.790  2.9069 -0.3346  1.4023
   78CHL1   C22 8234   0.506   5.016   7.969  0.5672  0.0248 -0.2913
   78CHL1  H22A 8235   0.406   4.968   7.968  1.2553 -1.7065  2.2934
   78CHL1  H22B 8236   0.578   4.931   7.979 -1.4758 -1.6912  0.6070
   78CHL1   C23 8237   0.516   5.082   8.109  0.2993 -0.0750  0.0129
   78CHL1  H23A 8238   0.622   5.110   8.127  0.1724 -0.4924  1.5804
   78CHL1  H23B 8239   0.459   5.178   8.113 -0.3202 -0.3880 -0.9416
   78CHL1   C24 8240   0.452   4.996   8.220  0.3380 -0.1526 -0.0440
   78CHL1  H24A 8241   0.356   4.953   8.184  0.5440 -0.2588 -0.4726
   78CHL1  H24B 8242   0.514   4.907   8.241  2.0904  0.9193 -0.4638
   78CHL1   C25 8243   0.410   5.078   8.345  0.8774 -0.3951 -0.4942
   78CHL1   H25 8244   0.336   5.154   8.311 -0.4375  0.0704  2.9482
   78CHL1   C26 8245   0.325   4.999   8.445  0.4798  0.1393  0.0941
   78CHL1  H26A 8246   0.230   4.966   8.396  0.0397  0.0199  1.0001
   78CHL1  H26B 8247   0.378   4.909   8.484  0.2320  0.1040  0.3571
   78CHL1  H26C 8248   0.296   5.066   8.528  0.9567 -2.5375  2.5829
   78CHL1   C27 8249   0.520   5.161   8.416  0.3790  0.4789  0.2597
   78CHL1  H27A 8250   0.564   5.223   8.335 -0.2036  0.9597  0.3023
   78CHL1  H27B 8251   0.486   5.231   8.495  1.0904  0.2438  0.7889
   78CHL1  H27C 8252   0.605   5.098   8.450  0.7857  0.7653 -0.2055
   79CHL1    C3 8253   5.234   4.356   7.048  0.1910  0.1087 -0.2834
   79CHL1    H3 8254   5.227   4.247   7.069  0.0855  0.2129  0.2496
   79CHL1    O3 8255   5.227   4.379   6.908  0.4259 -0.5667 -0.3005
   79CHL1   H3' 8256   5.134   4.394   6.887  0.5029 -0.2963 -0.4584
   79CHL1    C4 8257   5.125   4.436   7.121  0.2941 -0.4022 -0.4339
   79CHL1   H4A 8258   5.146   4.545   7.112 -2.9088  0.2420 -1.1703
   79CHL1   H4B 8259   5.027   4.417   7.073  0.7966  0.9589 -2.1308
   79CHL1    C5 8260   5.121   4.392   7.265 -0.3118 -0.0809 -0.0404
   79CHL1    C6 8261   5.016   4.345   7.324  0.5034  0.1946 -0.1245
   79CHL1    H6 8262   4.929   4.336   7.257  0.1550 -1.6690  0.5240
   79CHL1    C7 8263   5.016   4.290   7.467  0.2779 -0.0678  0.5954
   79CHL1   H7A 8264   4.932   4.343   7.518 -0.5535 -0.5415 -0.2552
   79CHL1   H7B 8265   5.005   4.180   7.463 -0.1327  0.0076 -1.1395
   79CHL1    C8 8266   5.138   4.323   7.553  0.5482  0.0635  0.3091
   79CHL1    H8 8267   5.134   4.430   7.582  1.6592  0.5108 -1.0862
   79CHL1   C14 8268   5.138   4.224   7.672 -0.3974 -0.6017  0.3762
   79CHL1   H14 8269   5.141   4.123   7.625 -0.8370 -1.1847  1.5667
   79CHL1   C15 8270   5.006   4.214   7.759  0.2075 -0.9605  0.5034
   79CHL1  H15A 8271   4.956   4.311   7.780 -0.2597 -0.8121 -1.1054
   79CHL1  H15B 8272   4.936   4.151   7.701  1.8878  0.2240 -3.1501
   79CHL1   C16 8273   5.068   4.159   7.889 -0.4643 -0.3722  0.0929
   79CHL1  H16A 8274   5.060   4.236   7.969  0.5874 -0.9086  0.7286
   79CHL1  H16B 8275   5.026   4.062   7.923  0.9840 -1.9751 -2.4598
   79CHL1   C17 8276   5.224   4.140   7.871 -0.1652  0.1507 -0.3748
   79CHL1   H17 8277   5.230   4.040   7.822  1.2878 -1.0268  2.0637
   79CHL1   C13 8278   5.258   4.240   7.765  0.4287 -0.5471 -0.3737
   79CHL1   C18 8279   5.250   4.382   7.825 -0.5109 -0.5597  0.4057
   79CHL1  H18A 8280   5.327   4.403   7.903 -1.2704  2.6211  0.4587
   79CHL1  H18B 8281   5.264   4.460   7.747  2.3905 -1.0641  0.3442
   79CHL1  H18C 8282   5.155   4.407   7.877 -1.1862  0.6238 -1.3102
   79CHL1   C12 8283   5.386   4.224   7.683  0.3807 -0.3868  0.0967
   79CHL1  H12A 8284   5.473   4.241   7.750  1.7845 -1.7883 -1.2834
   79CHL1  H12B 8285   5.404   4.117   7.660  0.6411 -0.6598  1.4669
   79CHL1   C11 8286   5.387   4.312   7.558  0.2564  0.1759 -0.1718
   79CHL1  H11A 8287   5.418   4.418   7.570 -3.1651  1.2590  0.1745
   79CHL1  H11B 8288   5.466   4.285   7.485  0.6683  0.9085  0.0016
   79CHL1    C9 8289   5.258   4.313   7.471  0.6413 -0.4370  0.5868
   79CHL1    H9 8290   5.239   4.210   7.435  2.5449 -0.8969  0.7884
   79CHL1   C10 8291   5.261   4.393   7.335 -0.3435 -0.1782  0.2137
   79CHL1   C19 8292   5.306   4.537   7.362 -0.2447  0.3285  0.5489
   79CHL1  H19A 8293   5.253   4.587   7.446 -0.8981 -1.4415  1.2257
   79CHL1  H19B 8294   5.412   4.535   7.395  0.2102  2.5251 -0.6033
   79CHL1  H19C 8295   5.294   4.607   7.277  0.1944 -0.2386  0.0107
   79CHL1    C1 8296   5.367   4.321   7.251 -0.4555 -0.5341  0.7497
   79CHL1   H1A 8297   5.468   4.326   7.296  0.2638  1.0813 -0.9128
   79CHL1   H1B 8298   5.345   4.212   7.249  1.0670 -0.8590  0.8202
   79CHL1    C2 8299   5.376   4.389   7.112 -0.2088 -0.0430  0.5396
   79CHL1   H2A 8300   5.451   4.336   7.051 -2.4241 -0.2920 -2.1759
   79CHL1   H2B 8301   5.410   4.494   7.118  3.2788 -0.9693 -0.5813
   79CHL1   C20 8302   5.307   4.127   7.998 -0.0139  0.2410  0.5537
   79CHL1   H20 8303   5.349   4.227   8.021  2.2356 -0.6631  0.6223
   79CHL1   C21 8304   5.426   4.025   7.970  0.2348 -1.1374  0.4791
   79CHL1  H21A 8305   5.478   4.059   7.878  0.0525 -1.0096  0.4226
   79CHL1  H21B 8306   5.394   3.919   7.963  1.4940 -1.5156  0.3108
   79CHL1  H21C 8307   5.497   4.035   8.055  1.1046  0.3579 -0.3841
   79CHL1   C22 8308   5.229   4.084   8.132 -0.5576  0.7721 -0.0073
   79CHL1  H22A 8309   5.129   4.131   8.144 -1.2770 -1.1855  2.2672
   79CHL1  H22B 8310   5.205   3.975   8.128 -2.4291  1.1585 -0.1711
   79CHL1   C23 8311   5.314   4.114   8.260 -0.0369  0.0332 -0.2800
   79CHL1  H23A 8312   5.420   4.084   8.245  0.1294 -0.0300  0.9511
   79CHL1  H23B 8313   5.309   4.223   8.277 -0.1045 -0.0887  0.4981
   79CHL1   C24 8314   5.267   4.049   8.387 -0.6770 -0.4371 -0.9381
   79CHL1  H24A 8315   5.162   4.076   8.413  0.0537  1.6411  0.1038
   79CHL1  H24B 8316   5.262   3.938   8.378 -2.4693 -0.6411  1.4087
   79CHL1   C25 8317   5.352   4.089   8.513 -0.2734 -0.2872 -0.5585
   79CHL1   H25 8318   5.460   4.084   8.487  0.4652  2.0890  1.5842
   79CHL1   C26 8319   5.326   4.230   8.563 -0.0827  0.2434  0.4326
   79CHL1  H26A 8320   5.404   4.248   8.641  0.7476 -1.0481 -0.0613
   79CHL1  H26B 8321   5.348   4.291   8.474  2.6848 -1.8927 -0.4942
   79CHL1  H26C 8322   5.221   4.245   8.596  0.0118  0.2446  0.7433
   79CHL1   C27 8323   5.325   3.995   8.628  0.3078  0.7995  0.0886
   79CHL1  H27A 8324   5.329   3.888   8.597  0.3212  0.4536  1.2295
   79CHL1  H27B 8325   5.409   4.015   8.698  1.2270  2.8899 -1.5129
   79CHL1  H27C 8326   5.220   4.015   8.658 -0.0173  2.3157 -1.8519
   80CHL1    C3 8327   3.874   5.829   6.803 -0.9202  0.0090  0.4018
   80CHL1    H3 8328   3.935   5.743   6.840 -1.7315  0.0428  1.9060
   80CHL1    O3 8329   3.878   5.830   6.663 -0.2035  0.1422  0.1190
   80CHL1   H3' 8330   3.971   5.842   6.642 -0.1487 -0.5164 -0.0528
   80CHL1    C4 8331   3.732   5.796   6.855  0.8520 -0.1536 -0.4224
   80CHL1   H4A 8332   3.674   5.888   6.833  0.0140 -0.1030  1.6745
   80CHL1   H4B 8333   3.671   5.717   6.809  0.3586 -0.1132  0.1435
   80CHL1    C5 8334   3.724   5.774   7.009 -0.0089  0.1300 -0.2761
   80CHL1    C6 8335   3.668   5.669   7.061  0.2760 -0.3169 -0.0232
   80CHL1    H6 8336   3.623   5.589   7.001 -0.1408  0.7084 -1.1115
   80CHL1    C7 8337   3.653   5.660   7.210  0.7041  0.9145 -0.3752
   80CHL1   H7A 8338   3.549   5.628   7.233 -0.2771  0.7832 -4.2093
   80CHL1   H7B 8339   3.719   5.580   7.249 -0.9441 -0.1548  0.3419
   80CHL1    C8 8340   3.677   5.785   7.295 -0.0251 -0.2067  0.1414
   80CHL1    H8 8341   3.582   5.843   7.296  0.0626 -0.0496  1.5159
   80CHL1   C14 8342   3.705   5.753   7.435 -0.3171 -0.5158 -0.5438
   80CHL1   H14 8343   3.793   5.685   7.439 -1.1777 -1.8045 -2.2982
   80CHL1   C15 8344   3.595   5.662   7.500  0.4167  0.0021 -0.1074
   80CHL1  H15A 8345   3.495   5.711   7.493  0.2159 -0.6449 -2.9450
   80CHL1  H15B 8346   3.583   5.561   7.456 -1.4845 -0.6948  1.7939
   80CHL1   C16 8347   3.650   5.669   7.641 -0.3194  0.4842 -0.4075
   80CHL1  H16A 8348   3.560   5.693   7.701  0.5420  0.1848  1.0452
   80CHL1  H16B 8349   3.689   5.571   7.675 -0.5321  0.0925 -1.2642
   80CHL1   C17 8350   3.746   5.791   7.660  0.0517 -0.1941 -0.0677
   80CHL1   H17 8351   3.850   5.753   7.662 -0.5049 -2.2827 -3.6063
   80CHL1   C13 8352   3.732   5.868   7.531 -0.4049  0.0060 -0.1166
   80CHL1   C18 8353   3.605   5.965   7.530 -0.4103  0.7251  0.6805
   80CHL1  H18A 8354   3.520   5.923   7.588 -0.7631  0.9740  0.3465
   80CHL1  H18B 8355   3.619   6.069   7.566  1.2561  1.0971 -0.8738
   80CHL1  H18C 8356   3.572   5.980   7.425  0.1130  3.4055  0.8401
   80CHL1   C12 8357   3.858   5.942   7.473  0.2507 -0.6672 -0.0399
   80CHL1  H12A 8358   3.866   6.037   7.530  0.5822 -0.7682  0.0835
   80CHL1  H12B 8359   3.950   5.882   7.488  1.3018  1.1255  1.0202
   80CHL1   C11 8360   3.832   5.982   7.330 -0.4183 -0.0735  1.0297
   80CHL1  H11A 8361   3.748   6.055   7.329 -1.0125 -0.7390  1.3290
   80CHL1  H11B 8362   3.925   6.033   7.296  0.1086 -0.0769  2.4260
   80CHL1    C9 8363   3.791   5.863   7.238  0.4270 -0.3805 -0.2880
   80CHL1    H9 8364   3.881   5.800   7.252  0.8072  0.4935  1.4131
   80CHL1   C10 8365   3.784   5.893   7.084 -1.4793 -0.1589 -0.8876
   80CHL1   C19 8366   3.682   6.003   7.067 -0.5001  0.2124 -0.8398
   80CHL1  H19A 8367   3.622   6.000   6.973 -2.1558  0.1050  0.1647
   80CHL1  H19B 8368   3.604   5.999   7.146 -2.3649  0.2852 -2.5938
   80CHL1  H19C 8369   3.727   6.104   7.057 -2.0013  0.8324 -1.7813
   80CHL1    C1 8370   3.926   5.939   7.023 -0.8936 -0.0948  0.1793
   80CHL1   H1A 8371   3.952   6.036   7.071 -0.6243 -0.5406  0.9545
   80CHL1   H1B 8372   3.988   5.852   7.051 -1.1070 -0.0751  0.7280
   80CHL1    C2 8373   3.924   5.958   6.873  0.9487 -0.5048  0.3723
   80CHL1   H2A 8374   4.012   6.008   6.828 -0.6094  0.3417 -1.9366
   80CHL1   H2B 8375   3.835   6.023   6.860 -0.1393 -1.8369  0.8212
   80CHL1   C20 8376   3.712   5.871   7.793  0.3582  0.7546  1.0475
   80CHL1   H20 8377   3.609   5.912   7.795  0.4628  1.4435 -2.1774
   80CHL1   C21 8378   3.821   5.978   7.809  0.8551  0.1652 -0.6627
   80CHL1  H21A 8379   3.794   6.057   7.736 -0.4633  2.0534  1.7382
   80CHL1  H21B 8380   3.921   5.935   7.787  0.7662 -0.6239  0.3616
   80CHL1  H21C 8381   3.829   6.019   7.912 -0.2032  1.2220 -0.9768
   80CHL1   C22 8382   3.715   5.771   7.916 -0.2327  0.4481 -0.2985
   80CHL1  H22A 8383   3.663   5.673   7.904  1.4001 -0.2616 -2.3414
   80CHL1  H22B 8384   3.824   5.759   7.938  0.5129  0.8378 -3.3254
   80CHL1   C23 8385   3.658   5.826   8.042 -0.2164  0.4352  0.1922
   80CHL1  H23A 8386   3.714   5.922   8.047  1.3099 -0.3765 -0.6957
   80CHL1  H23B 8387   3.550   5.845   8.027  0.1137  1.3504 -1.2186
   80CHL1   C24 8388   3.675   5.741   8.169 -0.3665 -0.2224 -0.0095
   80CHL1  H24A 8389   3.592   5.667   8.175  0.3405 -1.1365 -1.0496
   80CHL1  H24B 8390   3.778   5.700   8.169 -0.1522  0.2970 -0.9103
   80CHL1   C25 8391   3.672   5.819   8.298 -0.2982 -0.3596 -0.3844
   80CHL1   H25 8392   3.751   5.897   8.292  0.4755 -1.0729  0.2671
   80CHL1   C26 8393   3.535   5.876   8.327 -0.8374  0.3505  0.8425
   80CHL1  H26A 8394   3.448   5.809   8.312 -0.8842  0.4288  0.7591
   80CHL1  H26B 8395   3.521   5.913   8.431 -2.7019 -1.2452  1.2196
   80CHL1  H26C 8396   3.510   5.961   8.260 -1.0664  0.6257  1.2714
   80CHL1   C27 8397   3.714   5.725   8.418 -0.4490  0.6094  0.1500
   80CHL1  H27A 8398   3.696   5.617   8.395 -0.9965  0.8893 -0.8307
   80CHL1  H27B 8399   3.823   5.741   8.422 -0.3279 -0.1400  0.0784
   80CHL1  H27C 8400   3.659   5.749   8.511 -2.6951 -0.8395 -0.6983
   81CHL1    C3 8401   1.582   6.423   6.721  0.3027  0.0196 -0.1937
   81CHL1    H3 8402   1.685   6.383   6.734  0.0432 -0.1480  1.4829
   81CHL1    O3 8403   1.559   6.417   6.582 -0.0754  0.1912 -0.2270
   81CHL1   H3' 8404   1.467   6.393   6.570 -0.1133  0.9737 -1.9470
   81CHL1    C4 8405   1.476   6.340   6.796  0.1273  0.0543  0.0277
   81CHL1   H4A 8406   1.380   6.389   6.770  0.4926  0.3851 -0.7335
   81CHL1   H4B 8407   1.473   6.241   6.745 -0.4030  0.9238 -1.7332
   81CHL1    C5 8408   1.493   6.322   6.944 -0.6429 -0.0372  0.2348
   81CHL1    C6 8409   1.503   6.207   7.008 -0.0414  0.5920 -0.0900
   81CHL1    H6 8410   1.516   6.117   6.947 -1.9802 -0.1835  0.5638
   81CHL1    C7 8411   1.517   6.201   7.159  0.2030  0.5271  0.3974
   81CHL1   H7A 8412   1.453   6.119   7.195 -2.1348  1.7391 -0.7850
   81CHL1   H7B 8413   1.621   6.177   7.189  0.2095  0.7508  0.5589
   81CHL1    C8 8414   1.484   6.332   7.239 -0.3588  0.5223 -0.1119
   81CHL1    H8 8415   1.374   6.344   7.244 -0.2228  2.0046 -0.2618
   81CHL1   C14 8416   1.537   6.329   7.381  0.4069 -0.4221  0.2379
   81CHL1   H14 8417   1.648   6.335   7.376  0.6671 -2.2568  2.4852
   81CHL1   C15 8418   1.509   6.208   7.466  0.1467  0.5671  0.7913
   81CHL1  H15A 8419   1.411   6.157   7.465  0.8510 -0.8930  2.2042
   81CHL1  H15B 8420   1.569   6.117   7.448 -3.0905 -1.6325  0.3679
   81CHL1   C16 8421   1.535   6.259   7.611 -0.0147 -0.6840 -0.3574
   81CHL1  H16A 8422   1.451   6.228   7.677  0.2544 -0.7607 -0.0466
   81CHL1  H16B 8423   1.616   6.201   7.660 -0.8026 -0.9443  0.6689
   81CHL1   C17 8424   1.562   6.410   7.602  0.5440 -0.0170  0.1574
   81CHL1   H17 8425   1.669   6.434   7.588  0.3510  2.1835  1.7965
   81CHL1   C13 8426   1.494   6.456   7.464 -0.6565  0.1829  0.4602
   81CHL1   C18 8427   1.340   6.458   7.476 -0.1327  0.7642  0.2661
   81CHL1  H18A 8428   1.302   6.359   7.510 -0.2096  0.9144  0.6275
   81CHL1  H18B 8429   1.308   6.537   7.548  0.9245  0.3130  1.2705
   81CHL1  H18C 8430   1.296   6.482   7.377 -0.9276 -3.0116 -0.4260
   81CHL1   C12 8431   1.550   6.579   7.399 -0.0745  0.5881  0.8131
   81CHL1  H12A 8432   1.492   6.658   7.453 -1.9413 -0.1929  0.0344
   81CHL1  H12B 8433   1.659   6.585   7.420 -0.1517 -0.5998  1.6253
   81CHL1   C11 8434   1.524   6.582   7.253 -0.1229  0.6436  0.6533
   81CHL1  H11A 8435   1.419   6.618   7.254 -1.2786 -2.4053  0.3578
   81CHL1  H11B 8436   1.581   6.665   7.207 -1.1631  1.5038  0.8731
   81CHL1    C9 8437   1.537   6.456   7.169  0.1254 -0.1530  0.7328
   81CHL1    H9 8438   1.646   6.438   7.155  0.2799  0.2014  1.4545
   81CHL1   C10 8439   1.495   6.465   7.019  0.6041 -0.1570  0.5745
   81CHL1   C19 8440   1.354   6.525   7.015 -0.6306 -0.0594 -0.4575
   81CHL1  H19A 8441   1.277   6.460   7.062 -0.4366 -0.1110 -0.2082
   81CHL1  H19B 8442   1.352   6.626   7.061 -0.0374 -1.0165  1.7771
   81CHL1  H19C 8443   1.318   6.539   6.910  0.2372 -1.1187 -0.9240
   81CHL1    C1 8444   1.602   6.550   6.942  0.5067 -0.1877 -0.2888
   81CHL1   H1A 8445   1.592   6.647   6.994  2.9292 -0.6651  1.1910
   81CHL1   H1B 8446   1.692   6.491   6.970 -1.5796 -2.1426  3.0378
   81CHL1    C2 8447   1.580   6.563   6.790 -0.1484  0.2277  0.4031
   81CHL1   H2A 8448   1.653   6.625   6.734 -0.3270  0.5641  0.5399
   81CHL1   H2B 8449   1.483   6.614   6.771 -0.2073  0.1605  0.5225
   81CHL1   C20 8450   1.516   6.474   7.731 -0.4919 -0.5514  1.0423
   81CHL1   H20 8451   1.406   6.471   7.749 -0.4240  0.0997  1.6233
   81CHL1   C21 8452   1.570   6.618   7.719 -0.9262  0.1645 -0.4224
   81CHL1  H21A 8453   1.552   6.670   7.816 -1.7487  0.2477 -0.6109
   81CHL1  H21B 8454   1.507   6.676   7.649  0.2968  0.6403 -1.1504
   81CHL1  H21C 8455   1.677   6.628   7.691 -0.6773  0.6611  0.6675
   81CHL1   C22 8456   1.565   6.420   7.861 -0.2662 -0.5678  0.0245
   81CHL1  H22A 8457   1.597   6.314   7.860  1.2527 -0.1725 -2.7720
   81CHL1  H22B 8458   1.650   6.475   7.908 -0.3604 -0.0481 -0.4040
   81CHL1   C23 8459   1.452   6.409   7.963 -0.0745  0.6959 -0.0010
   81CHL1  H23A 8460   1.390   6.501   7.959 -1.8391 -0.5018 -2.0803
   81CHL1  H23B 8461   1.389   6.322   7.934  1.3513  0.1771 -1.7362
   81CHL1   C24 8462   1.501   6.387   8.105 -0.7626 -0.1086 -0.3439
   81CHL1  H24A 8463   1.565   6.296   8.107 -0.0282  0.4117  2.0229
   81CHL1  H24B 8464   1.559   6.478   8.129 -1.1752  0.4287 -1.3424
   81CHL1   C25 8465   1.397   6.369   8.221  0.2485  0.7444 -0.7064
   81CHL1   H25 8466   1.307   6.430   8.201 -1.7452 -0.7356  2.9705
   81CHL1   C26 8467   1.352   6.218   8.228 -0.2242  0.5205 -0.5924
   81CHL1  H26A 8468   1.311   6.188   8.129 -0.5387 -1.0217 -0.0214
   81CHL1  H26B 8469   1.435   6.148   8.254 -0.1628  1.0981  0.8369
   81CHL1  H26C 8470   1.272   6.208   8.304 -1.1270  1.5315 -1.3780
   81CHL1   C27 8471   1.465   6.426   8.354  0.1941  0.2166 -0.1670
   81CHL1  H27A 8472   1.557   6.372   8.382 -0.6637  0.0391  2.5981
   81CHL1  H27B 8473   1.489   6.535   8.346 -2.5936  0.7861 -2.5578
   81CHL1  H27C 8474   1.406   6.418   8.448  1.3148  0.2948  0.5665
   82CHL1    C3 8475   1.854   3.218   7.051 -0.3590 -1.0073 -0.3845
   82CHL1    H3 8476   1.786   3.142   7.094 -1.2449 -0.0819 -0.0918
   82CHL1    O3 8477   1.843   3.229   6.913  0.0832  0.2196 -0.1711
   82CHL1   H3' 8478   1.752   3.209   6.891  0.1004  0.7706 -0.7665
   82CHL1    C4 8479   1.811   3.354   7.113 -0.3322 -0.2507  0.1720
   82CHL1   H4A 8480   1.879   3.432   7.073 -1.3482  0.7658  0.3965
   82CHL1   H4B 8481   1.710   3.376   7.074  0.2421  1.3248 -0.5180
   82CHL1    C5 8482   1.823   3.347   7.262 -0.3572 -0.0503 -0.0409
   82CHL1    C6 8483   1.716   3.390   7.342  0.1361 -0.2628 -0.5272
   82CHL1    H6 8484   1.624   3.432   7.299 -0.5603 -0.9781  0.2386
   82CHL1    C7 8485   1.716   3.390   7.494 -0.2994 -0.5325 -0.3104
   82CHL1   H7A 8486   1.705   3.493   7.533  0.6301 -0.5649  0.0733
   82CHL1   H7B 8487   1.642   3.314   7.526  1.3456 -1.6329  1.0993
   82CHL1    C8 8488   1.859   3.362   7.559  0.2781  0.1012 -0.0475
   82CHL1    H8 8489   1.913   3.459   7.561  0.5941 -0.0723 -0.0022
   82CHL1   C14 8490   1.848   3.313   7.702  0.4074  0.8407 -0.0525
   82CHL1   H14 8491   1.802   3.213   7.696  0.4495  0.8434 -0.4101
   82CHL1   C15 8492   1.759   3.406   7.788 -0.3213 -0.0726 -0.5345
   82CHL1  H15A 8493   1.770   3.509   7.746 -0.4932 -0.0001 -0.4023
   82CHL1  H15B 8494   1.654   3.373   7.788  0.0791 -1.4287  0.6831
   82CHL1   C16 8495   1.811   3.390   7.928  0.0066  1.0583 -0.4026
   82CHL1  H16A 8496   1.845   3.487   7.970 -1.8357  2.1508 -1.3186
   82CHL1  H16B 8497   1.731   3.364   8.001  0.3639  0.5991 -0.1623
   82CHL1   C17 8498   1.924   3.277   7.925  0.5458  0.5624  0.4345
   82CHL1   H17 8499   1.870   3.180   7.914  2.4432 -1.1176  4.2267
   82CHL1   C13 8500   1.977   3.291   7.777  0.5449  0.0657 -0.5375
   82CHL1   C18 8501   2.067   3.416   7.787 -0.3351  0.0395  0.3860
   82CHL1  H18A 8502   2.111   3.454   7.692  1.0505  1.3250  1.4952
   82CHL1  H18B 8503   2.007   3.500   7.829  2.3335  2.6908 -0.7812
   82CHL1  H18C 8504   2.150   3.377   7.849 -0.7017 -1.7366 -0.1888
   82CHL1   C12 8505   2.044   3.174   7.700 -0.4319  0.4507 -0.6250
   82CHL1  H12A 8506   2.140   3.154   7.752  0.7191  1.3952 -2.3002
   82CHL1  H12B 8507   1.972   3.090   7.702  0.6539 -0.4949 -0.4219
   82CHL1   C11 8508   2.059   3.210   7.547 -0.1255 -0.5712 -0.2637
   82CHL1  H11A 8509   2.132   3.294   7.545 -1.6822  0.8215 -0.8322
   82CHL1  H11B 8510   2.102   3.124   7.491 -0.1262 -0.9761  0.3413
   82CHL1    C9 8511   1.936   3.260   7.476 -0.0990  0.9647  0.6516
   82CHL1    H9 8512   1.874   3.168   7.477 -0.0332  0.9203  0.5997
   82CHL1   C10 8513   1.952   3.292   7.322 -0.2747  0.1370 -0.2274
   82CHL1   C19 8514   2.061   3.392   7.298  0.2192 -0.0740  0.3311
   82CHL1  H19A 8515   2.161   3.359   7.335  0.4161 -1.8061 -1.5784
   82CHL1  H19B 8516   2.068   3.435   7.196 -0.0523  1.0030  0.7569
   82CHL1  H19C 8517   2.042   3.477   7.367  1.8704  0.1025  0.6060
   82CHL1    C1 8518   1.994   3.166   7.247 -0.1808 -1.0782 -0.1663
   82CHL1   H1A 8519   2.097   3.129   7.266 -1.0591 -2.3043  2.7971
   82CHL1   H1B 8520   1.930   3.077   7.269 -2.1526  0.5273  0.9929
   82CHL1    C2 8521   1.988   3.181   7.094 -1.2268  0.1316  0.5129
   82CHL1   H2A 8522   2.034   3.099   7.035  1.1662  1.6778  0.0652
   82CHL1   H2B 8523   2.058   3.264   7.072  0.0347 -0.9689  0.2392
   82CHL1   C20 8524   2.010   3.266   8.049 -0.8914  0.0418  0.2751
   82CHL1   H20 8525   2.065   3.362   8.065 -0.8346 -0.1385  1.2097
   82CHL1   C21 8526   2.127   3.163   8.028 -0.5323 -0.4641 -0.0154
   82CHL1  H21A 8527   2.176   3.153   8.127  0.1238 -1.3787 -0.4117
   82CHL1  H21B 8528   2.192   3.189   7.942 -1.9033 -1.4002 -1.3954
   82CHL1  H21C 8529   2.072   3.070   8.004 -4.4744  1.6336  0.0195
   82CHL1   C22 8530   1.925   3.242   8.178  0.5184 -0.1551 -0.5221
   82CHL1  H22A 8531   1.854   3.327   8.180  0.5339 -0.1101 -1.4651
   82CHL1  H22B 8532   1.864   3.153   8.154 -0.9120  0.5931  0.1871
   82CHL1   C23 8533   1.997   3.232   8.314  0.8974  0.3598 -0.5934
   82CHL1  H23A 8534   2.083   3.160   8.315 -1.2713 -2.5136  2.2285
   82CHL1  H23B 8535   2.018   3.333   8.356  2.0259  0.1491 -0.6061
   82CHL1   C24 8536   1.898   3.152   8.411  0.1971 -0.2239  0.9816
   82CHL1  H24A 8537   1.801   3.206   8.421 -0.3140 -1.5025  4.2989
   82CHL1  H24B 8538   1.878   3.054   8.362 -0.2819  0.3074  0.0886
   82CHL1   C25 8539   1.943   3.101   8.548 -0.0415  0.1274 -0.2428
   82CHL1   H25 8540   2.042   3.052   8.545  0.4921  1.2261 -1.0502
   82CHL1   C26 8541   1.955   3.208   8.663  0.2024  0.0270 -0.4171
   82CHL1  H26A 8542   1.857   3.256   8.685 -0.0650 -0.3597 -0.7537
   82CHL1  H26B 8543   2.002   3.167   8.755  0.5393 -0.8581 -0.9705
   82CHL1  H26C 8544   2.023   3.286   8.624 -0.5206  0.7897 -0.1964
   82CHL1   C27 8545   1.843   2.997   8.602 -0.3795  1.5541  0.4524
   82CHL1  H27A 8546   1.877   2.960   8.701 -1.6518  0.0101  0.3532
   82CHL1  H27B 8547   1.741   3.040   8.610 -0.9792  0.5803 -1.3491
   82CHL1  H27C 8548   1.841   2.919   8.522  1.5310  2.3512 -0.4310
   83CHL1    C3 8549   6.409   4.763   6.901  0.0353 -0.0517  0.0803
   83CHL1    H3 8550   6.486   4.688   6.929 -0.3736 -0.0731  1.1790
   83CHL1    O3 8551   6.416   4.797   6.761 -0.4029  0.8576 -0.1435
   83CHL1   H3' 8552   6.411   4.892   6.771  0.8049  0.9261 -0.0059
   83CHL1    C4 8553   6.273   4.703   6.925 -0.0640  0.1477 -0.3193
   83CHL1   H4A 8554   6.180   4.751   6.889 -1.5838 -1.0524  1.7479
   83CHL1   H4B 8555   6.278   4.608   6.868  1.5492 -0.0295  0.0836
   83CHL1    C5 8556   6.242   4.665   7.071  0.5972 -0.5114 -0.4659
   83CHL1    C6 8557   6.219   4.542   7.105  0.8491  0.4710 -0.1932
   83CHL1    H6 8558   6.195   4.467   7.027 -0.1476  0.5620  0.0109
   83CHL1    C7 8559   6.191   4.506   7.247  0.4796  0.3399  0.3517
   83CHL1   H7A 8560   6.109   4.432   7.251  1.0131 -0.2898 -0.1436
   83CHL1   H7B 8561   6.278   4.447   7.284  0.3437 -0.9207 -1.2460
   83CHL1    C8 8562   6.178   4.618   7.350  0.0869  0.0971 -0.4525
   83CHL1    H8 8563   6.086   4.679   7.331  1.0996  0.6126 -4.6187
   83CHL1   C14 8564   6.187   4.569   7.490 -0.0345  0.9494  0.2176
   83CHL1   H14 8565   6.283   4.514   7.490  0.8186  2.3771  1.1359
   83CHL1   C15 8566   6.093   4.467   7.547 -0.5357 -0.2526 -0.1940
   83CHL1  H15A 8567   5.989   4.503   7.536 -0.6106 -0.4357 -0.1005
   83CHL1  H15B 8568   6.096   4.370   7.492 -1.3159 -0.7169  0.5596
   83CHL1   C16 8569   6.124   4.454   7.700  0.4398 -0.7901  0.6801
   83CHL1  H16A 8570   6.033   4.458   7.763 -0.0072  0.8986 -0.0078
   83CHL1  H16B 8571   6.167   4.352   7.713 -1.0670 -1.5262  0.0743
   83CHL1   C17 8572   6.223   4.569   7.721  0.8141 -0.0265 -0.1544
   83CHL1   H17 8573   6.322   4.519   7.705  0.2363 -2.2856  2.4656
   83CHL1   C13 8574   6.207   4.670   7.601  0.1532  0.9456 -0.5168
   83CHL1   C18 8575   6.088   4.767   7.630  0.2423 -0.2013  0.3769
   83CHL1  H18A 8576   6.015   4.705   7.686 -1.0603 -1.5982 -2.6233
   83CHL1  H18B 8577   6.120   4.845   7.702  2.7402 -0.9755  0.2223
   83CHL1  H18C 8578   6.037   4.810   7.541  2.6503  0.8906 -0.5712
   83CHL1   C12 8579   6.323   4.764   7.569 -0.8620  0.5238 -0.2489
   83CHL1  H12A 8580   6.336   4.846   7.643  2.7835 -0.2370  0.1391
   83CHL1  H12B 8581   6.416   4.705   7.556 -1.4642 -0.4502 -0.2520
   83CHL1   C11 8582   6.304   4.828   7.431 -0.6568 -0.3992  0.6833
   83CHL1  H11A 8583   6.214   4.893   7.427 -1.9292 -2.0490  1.3030
   83CHL1  H11B 8584   6.393   4.892   7.413 -1.7891  0.5364 -2.3251
   83CHL1    C9 8585   6.283   4.718   7.326 -0.0088  0.8165  1.0587
   83CHL1    H9 8586   6.377   4.659   7.332 -0.7200 -0.3460  1.1549
   83CHL1   C10 8587   6.280   4.773   7.175 -0.1640 -0.0465 -0.5991
   83CHL1   C19 8588   6.178   4.888   7.174  0.0728  0.5776  0.4512
   83CHL1  H19A 8589   6.145   4.916   7.071  0.6478 -0.0643  0.0907
   83CHL1  H19B 8590   6.084   4.876   7.232  0.6341  0.4519  1.3551
   83CHL1  H19C 8591   6.230   4.980   7.208 -0.7393  1.5927 -0.9554
   83CHL1    C1 8592   6.426   4.839   7.138  0.5104  0.2487  1.0109
   83CHL1   H1A 8593   6.461   4.917   7.210  1.3201  0.1782  0.6921
   83CHL1   H1B 8594   6.495   4.754   7.152  0.3736  0.1465  1.0720
   83CHL1    C2 8595   6.442   4.881   6.991  0.3299  0.4189  0.1656
   83CHL1   H2A 8596   6.543   4.912   6.958 -0.2776  0.4746 -1.7936
   83CHL1   H2B 8597   6.366   4.958   6.965  1.2861  1.5057  0.4840
   83CHL1   C20 8598   6.214   4.622   7.866  0.2353 -0.5714  0.1676
   83CHL1   H20 8599   6.108   4.653   7.878 -0.5782 -2.5748 -1.1572
   83CHL1   C21 8600   6.309   4.743   7.891  0.3033  0.0213 -0.1036
   83CHL1  H21A 8601   6.263   4.828   7.836  1.1130  0.7320  0.2941
   83CHL1  H21B 8602   6.413   4.730   7.857 -0.2696  0.6649 -2.2163
   83CHL1  H21C 8603   6.306   4.767   8.000  0.1014 -2.2905  0.4547
   83CHL1   C22 8604   6.236   4.512   7.971 -0.4112  0.3642 -0.0408
   83CHL1  H22A 8605   6.187   4.414   7.951  1.2778 -0.5771  0.2085
   83CHL1  H22B 8606   6.346   4.496   7.968 -0.6454 -1.3645 -1.3404
   83CHL1   C23 8607   6.208   4.555   8.122 -0.5720  0.7746 -0.0837
   83CHL1  H23A 8608   6.260   4.646   8.160 -0.0207  0.8491 -0.9857
   83CHL1  H23B 8609   6.098   4.569   8.128 -0.5624  0.3018  1.8164
   83CHL1   C24 8610   6.241   4.440   8.224  0.0101  0.0216  0.5548
   83CHL1  H24A 8611   6.182   4.350   8.197  0.2483 -0.4447  1.5343
   83CHL1  H24B 8612   6.351   4.433   8.209 -0.2189 -1.9538 -0.4365
   83CHL1   C25 8613   6.202   4.475   8.370  0.6215  0.5841  0.1333
   83CHL1   H25 8614   6.249   4.574   8.392  0.3076  1.2201 -1.9229
   83CHL1   C26 8615   6.048   4.495   8.387 -0.6661 -0.0337 -0.0701
   83CHL1  H26A 8616   6.017   4.588   8.334 -2.2713  0.1985  1.1991
   83CHL1  H26B 8617   5.992   4.407   8.350  0.4454 -0.3700 -1.0116
   83CHL1  H26C 8618   6.015   4.512   8.492 -4.8825 -1.3620 -0.9822
   83CHL1   C27 8619   6.256   4.370   8.473 -0.1541  0.6211 -0.7410
   83CHL1  H27A 8620   6.367   4.371   8.469 -0.1140  0.9670  0.3712
   83CHL1  H27B 8621   6.225   4.401   8.574 -0.3865 -1.7387 -0.0374
   83CHL1  H27C 8622   6.229   4.263   8.462  4.5327 -1.0500  1.2142
   84CHL1    C3 8623   3.571   3.870   6.809 -0.6901 -0.1937 -0.2249
   84CHL1    H3 8624   3.481   3.926   6.843 -1.0034  0.7616 -2.4176
   84CHL1    O3 8625   3.598   3.904   6.679 -0.0157 -0.7422 -0.0926
   84CHL1   H3' 8626   3.687   3.941   6.682  0.2149 -1.3392  1.3927
   84CHL1    C4 8627   3.690   3.905   6.892 -0.4879  0.0504  0.2374
   84CHL1   H4A 8628   3.771   3.836   6.859 -0.5665 -0.6693  1.4956
   84CHL1   H4B 8629   3.728   4.009   6.883  0.2991 -0.1644  0.9367
   84CHL1    C5 8630   3.656   3.880   7.039 -0.0279  0.5380  0.4355
   84CHL1    C6 8631   3.661   3.975   7.127 -0.3817  0.4634  0.4713
   84CHL1    H6 8632   3.695   4.079   7.115 -1.3604  0.8594  0.9727
   84CHL1    C7 8633   3.614   3.961   7.271  0.0775  0.2807  0.0314
   84CHL1   H7A 8634   3.680   4.006   7.348 -3.1759 -0.9044  3.8774
   84CHL1   H7B 8635   3.521   4.022   7.272  0.1400  0.3719  0.2780
   84CHL1    C8 8636   3.607   3.812   7.312  0.0952  0.5627  0.9160
   84CHL1    H8 8637   3.708   3.766   7.321 -0.7081 -1.3904  0.3570
   84CHL1   C14 8638   3.525   3.807   7.440 -0.3845 -0.0761  0.2398
   84CHL1   H14 8639   3.421   3.842   7.421 -0.1800  0.6231  0.3801
   84CHL1   C15 8640   3.572   3.891   7.563  0.2804  0.1046 -0.1590
   84CHL1  H15A 8641   3.683   3.882   7.569  0.2641  0.7639  1.6700
   84CHL1  H15B 8642   3.557   4.000   7.548  3.0586  0.7414  1.0089
   84CHL1   C16 8643   3.492   3.831   7.684  0.4052 -0.7434 -0.1473
   84CHL1  H16A 8644   3.574   3.808   7.756 -0.1115 -1.6681  0.1587
   84CHL1  H16B 8645   3.409   3.887   7.733 -0.7949 -4.4512  2.5216
   84CHL1   C17 8646   3.432   3.696   7.633 -0.8246  0.5101 -0.1801
   84CHL1   H17 8647   3.326   3.710   7.600 -0.6078  0.4567 -0.9175
   84CHL1   C13 8648   3.506   3.666   7.498  0.7106 -0.9727 -0.2355
   84CHL1   C18 8649   3.645   3.614   7.539 -0.3243  0.2958 -0.5156
   84CHL1  H18A 8650   3.695   3.665   7.624 -0.2113 -2.3313  1.1245
   84CHL1  H18B 8651   3.636   3.509   7.574  2.9155 -0.0268 -0.3349
   84CHL1  H18C 8652   3.709   3.605   7.448  0.8557  1.3131  0.1827
   84CHL1   C12 8653   3.425   3.586   7.387  0.7474  0.0122 -0.3998
   84CHL1  H12A 8654   3.393   3.489   7.430  0.9987  0.6366  1.2355
   84CHL1  H12B 8655   3.329   3.636   7.364  0.9210  2.4612  3.4072
   84CHL1   C11 8656   3.501   3.576   7.250 -0.0930 -0.4053 -0.1162
   84CHL1  H11A 8657   3.584   3.504   7.268 -0.8752 -1.7833 -1.8125
   84CHL1  H11B 8658   3.440   3.518   7.178  2.9592 -1.2664 -2.2180
   84CHL1    C9 8659   3.546   3.720   7.199 -0.4003  0.4330  0.2490
   84CHL1    H9 8660   3.452   3.780   7.192 -0.0443  0.9802  0.1210
   84CHL1   C10 8661   3.617   3.728   7.060  0.0005 -0.7406  0.0936
   84CHL1   C19 8662   3.745   3.645   7.066  0.2454 -0.0291 -0.3331
   84CHL1  H19A 8663   3.779   3.622   6.963 -1.3247  1.6424 -1.2967
   84CHL1  H19B 8664   3.827   3.691   7.125  2.5607 -1.4406 -2.2656
   84CHL1  H19C 8665   3.723   3.547   7.112  0.4689  1.1243  2.4588
   84CHL1    C1 8666   3.513   3.679   6.954 -0.5386  0.6845 -0.6212
   84CHL1   H1A 8667   3.506   3.569   6.973  1.5126  0.6692  0.2715
   84CHL1   H1B 8668   3.417   3.726   6.983 -0.3943  1.4905 -1.4107
   84CHL1    C2 8669   3.543   3.725   6.810  0.3956 -0.1952  0.0833
   84CHL1   H2A 8670   3.444   3.696   6.768 -0.8530  0.3790  2.4791
   84CHL1   H2B 8671   3.625   3.659   6.773 -0.2361  0.3624 -2.5202
   84CHL1   C20 8672   3.433   3.585   7.742  0.6753  1.0349  1.0390
   84CHL1   H20 8673   3.535   3.547   7.759 -0.0064 -1.4600 -0.0013
   84CHL1   C21 8674   3.358   3.461   7.692  0.0677  0.2455 -0.1458
   84CHL1  H21A 8675   3.412   3.409   7.609  1.1738  1.2616 -0.0903
   84CHL1  H21B 8676   3.263   3.506   7.656 -0.0161  1.2055  1.2107
   84CHL1  H21C 8677   3.318   3.401   7.776 -1.5466 -0.3031 -1.2442
   84CHL1   C22 8678   3.370   3.640   7.874 -0.0783  0.1943  0.1887
   84CHL1  H22A 8679   3.423   3.733   7.904  1.2890 -0.2321 -0.7830
   84CHL1  H22B 8680   3.260   3.654   7.863 -0.0434  0.4761  0.1869
   84CHL1   C23 8681   3.381   3.529   7.981 -0.2219  0.8763 -0.2159
   84CHL1  H23A 8682   3.295   3.459   7.969  0.0566  0.2314  1.3561
   84CHL1  H23B 8683   3.476   3.482   7.948 -0.6781  0.8793 -1.5980
   84CHL1   C24 8684   3.392   3.565   8.129 -0.7589 -0.1807 -0.5398
   84CHL1  H24A 8685   3.309   3.631   8.163 -1.0239 -0.1673 -1.1914
   84CHL1  H24B 8686   3.382   3.469   8.186  0.3987 -0.9236 -1.5341
   84CHL1   C25 8687   3.522   3.639   8.182  0.0595  0.3180 -0.2791
   84CHL1   H25 8688   3.531   3.734   8.126 -1.2002  0.1530 -0.8078
   84CHL1   C26 8689   3.500   3.659   8.330  0.0458  0.4032 -0.8524
   84CHL1  H26A 8690   3.594   3.705   8.368 -1.3211  0.9245  2.0822
   84CHL1  H26B 8691   3.422   3.735   8.353  1.3643  0.9986  2.0558
   84CHL1  H26C 8692   3.484   3.564   8.385  2.3202 -0.1376 -1.0249
   84CHL1   C27 8693   3.649   3.555   8.158  0.2142 -0.1500  0.0144
   84CHL1  H27A 8694   3.651   3.455   8.208 -0.2323  0.1953  0.7343
   84CHL1  H27B 8695   3.676   3.541   8.052  3.4888 -2.0016  0.9501
   84CHL1  H27C 8696   3.738   3.601   8.206  0.7938  0.8029 -1.8780
   85CHL1    C3 8697   6.361   4.227   6.978  0.1468  0.6479  0.6854
   85CHL1    H3 8698   6.271   4.271   7.025 -1.2957  2.1960 -3.0704
   85CHL1    O3 8699   6.339   4.196   6.842  0.2808 -0.3967 -0.4610
   85CHL1   H3' 8700   6.389   4.117   6.821 -0.5028 -1.7106  2.2101
   85CHL1    C4 8701   6.487   4.318   7.002  1.1257 -0.3244 -0.2545
   85CHL1   H4A 8702   6.567   4.273   6.940  0.9286  0.8571 -1.4158
   85CHL1   H4B 8703   6.468   4.420   6.962  0.3861  0.7002  2.4364
   85CHL1    C5 8704   6.527   4.320   7.148 -0.3108 -0.9342 -1.0295
   85CHL1    C6 8705   6.537   4.435   7.220 -0.3422 -0.4659 -0.1858
   85CHL1    H6 8706   6.525   4.528   7.162  0.8763 -1.0475 -1.4433
   85CHL1    C7 8707   6.587   4.450   7.358 -0.3514 -0.1423 -0.5661
   85CHL1   H7A 8708   6.687   4.498   7.361 -0.5284  0.2767 -1.2685
   85CHL1   H7B 8709   6.507   4.507   7.412 -0.0704  0.9166 -1.2425
   85CHL1    C8 8710   6.614   4.319   7.438  0.0386 -0.0132 -0.4228
   85CHL1    H8 8711   6.719   4.285   7.421  0.3468  0.7078 -0.0006
   85CHL1   C14 8712   6.587   4.336   7.589  0.0038  0.7291 -0.1194
   85CHL1   H14 8713   6.478   4.354   7.603 -0.3430 -0.6542 -0.8877
   85CHL1   C15 8714   6.656   4.452   7.661 -0.6669 -0.8821 -0.3418
   85CHL1  H15A 8715   6.762   4.460   7.627 -0.0995  1.2683  1.6716
   85CHL1  H15B 8716   6.600   4.546   7.641  1.2375  0.2029 -0.7930
   85CHL1   C16 8717   6.641   4.407   7.809 -0.5754  0.3067  0.6210
   85CHL1  H16A 8718   6.744   4.384   7.843  0.0655 -0.2727 -1.5829
   85CHL1  H16B 8719   6.609   4.488   7.878  0.2887  1.2165 -0.0126
   85CHL1   C17 8720   6.570   4.269   7.809  0.1850  0.3082  0.0548
   85CHL1   H17 8721   6.460   4.283   7.801  0.2504  1.1098  0.5145
   85CHL1   C13 8722   6.605   4.206   7.672 -0.2824 -0.0573 -0.6744
   85CHL1   C18 8723   6.749   4.149   7.668 -0.4783 -0.6437  0.6216
   85CHL1  H18A 8724   6.752   4.052   7.723 -1.2081 -0.3480  1.1997
   85CHL1  H18B 8725   6.776   4.145   7.560 -0.9896  1.3061  0.3929
   85CHL1  H18C 8726   6.820   4.227   7.705 -0.1523 -0.5397 -0.1921
   85CHL1   C12 8727   6.513   4.090   7.621  0.4911  0.6218 -0.2506
   85CHL1  H12A 8728   6.546   3.997   7.673  1.2386  0.9271 -0.1594
   85CHL1  H12B 8729   6.407   4.107   7.648  0.4449  0.4220 -0.3077
   85CHL1   C11 8730   6.537   4.075   7.469  0.6051 -0.6204  0.1780
   85CHL1  H11A 8731   6.634   4.024   7.452 -0.5502 -3.0293  0.3805
   85CHL1  H11B 8732   6.457   4.005   7.436 -1.2532  1.7151 -0.6008
   85CHL1    C9 8733   6.519   4.204   7.382  0.2818  0.3288 -0.0287
   85CHL1    H9 8734   6.415   4.239   7.397  0.1557 -0.8111  2.2041
   85CHL1   C10 8735   6.537   4.186   7.229  0.2595 -0.5113 -0.0780
   85CHL1   C19 8736   6.674   4.114   7.207 -0.7959 -0.3798  0.2197
   85CHL1  H19A 8737   6.761   4.177   7.233 -0.7606 -0.6127  0.6612
   85CHL1  H19B 8738   6.687   4.018   7.261  2.9051 -0.0992  0.0747
   85CHL1  H19C 8739   6.698   4.106   7.099  1.6084 -0.0579  0.6891
   85CHL1    C1 8740   6.418   4.092   7.189 -0.5979  0.1004 -0.6826
   85CHL1   H1A 8741   6.449   3.988   7.209  2.2237  1.0505  0.4268
   85CHL1   H1B 8742   6.322   4.117   7.239 -0.2601 -0.5910  0.3529
   85CHL1    C2 8743   6.388   4.091   7.048 -0.1888  0.3628  0.6417
   85CHL1   H2A 8744   6.305   4.020   7.023  2.4284 -1.6365 -3.7157
   85CHL1   H2B 8745   6.479   4.049   7.000  0.3375  0.7746  1.2695
   85CHL1   C20 8746   6.597   4.191   7.937  0.0985 -0.4075 -0.1550
   85CHL1   H20 8747   6.702   4.155   7.946 -0.3219 -1.4114  1.1825
   85CHL1   C21 8748   6.503   4.064   7.943  0.5570  0.5059 -0.5130
   85CHL1  H21A 8749   6.408   4.084   7.890 -1.2560 -1.8455  1.5939
   85CHL1  H21B 8750   6.470   4.034   8.045 -1.7294 -3.5126 -2.1876
   85CHL1  H21C 8751   6.547   3.969   7.905  0.6008 -1.4487  3.8221
   85CHL1   C22 8752   6.568   4.281   8.065  0.1221 -0.1808 -0.0535
   85CHL1  H22A 8753   6.617   4.381   8.066 -2.7084  1.4090  3.3521
   85CHL1  H22B 8754   6.461   4.310   8.074  0.5813  2.0445 -0.9395
   85CHL1   C23 8755   6.625   4.209   8.189  0.3522  0.0645 -0.4057
   85CHL1  H23A 8756   6.588   4.107   8.215 -0.3407  0.5341  0.4995
   85CHL1  H23B 8757   6.734   4.196   8.172  1.0407  2.6270  1.5487
   85CHL1   C24 8758   6.616   4.308   8.312  0.0983 -0.7027  0.0556
   85CHL1  H24A 8759   6.655   4.410   8.288  0.4448 -0.0097  3.1943
   85CHL1  H24B 8760   6.510   4.313   8.343 -0.2796 -0.8172 -1.1695
   85CHL1   C25 8761   6.688   4.261   8.433 -0.2849  0.5373 -0.3394
   85CHL1   H25 8762   6.673   4.335   8.515  0.8817 -0.6764  1.0145
   85CHL1   C26 8763   6.617   4.127   8.476 -0.6035  0.1002  0.7555
   85CHL1  H26A 8764   6.632   4.060   8.389  2.4980  2.1817 -0.5001
   85CHL1  H26B 8765   6.664   4.067   8.557 -0.2997  1.2932  1.4937
   85CHL1  H26C 8766   6.512   4.150   8.503  0.0277  1.4686  2.2396
   85CHL1   C27 8767   6.841   4.231   8.419 -0.2822  0.7808  0.2082
   85CHL1  H27A 8768   6.901   4.316   8.380 -0.2714  0.8182  0.3048
   85CHL1  H27B 8769   6.875   4.211   8.523  0.2038  1.4549  0.1885
   85CHL1  H27C 8770   6.863   4.143   8.356 -1.2920  1.8616 -1.7547
   86CHL1    C3 8771   0.981   0.296   6.692  0.3592 -1.0862 -0.3817
   86CHL1    H3 8772   1.089   0.288   6.667  0.4710 -0.7230 -0.0235
   86CHL1    O3 8773   0.907   0.331   6.577 -0.5698  0.3329  0.3095
   86CHL1   H3' 8774   0.819   0.347   6.612 -0.9998 -0.2864 -0.4881
   86CHL1    C4 8775   0.930   0.163   6.745 -0.1577 -0.5822  0.5785
   86CHL1   H4A 8776   0.821   0.180   6.757  0.0509  0.2493  1.3633
   86CHL1   H4B 8777   0.960   0.083   6.673  2.2518  1.0190 -0.3247
   86CHL1    C5 8778   0.983   0.132   6.881  0.0168 -0.6436  0.2921
   86CHL1    C6 8779   1.040   0.014   6.900 -0.3199 -0.1381  1.0440
   86CHL1    H6 8780   1.047  -0.059   6.819  3.1069  0.5887  0.5484
   86CHL1    C7 8781   1.097  -0.025   7.034  0.5584  0.0207  0.5430
   86CHL1   H7A 8782   1.073  -0.126   7.073 -1.8119  0.6079  0.7529
   86CHL1   H7B 8783   1.206  -0.017   7.011  0.9191 -3.3958  0.5902
   86CHL1    C8 8784   1.061   0.078   7.150 -0.1430  0.7003  0.2348
   86CHL1    H8 8785   0.954   0.062   7.174  0.7296 -3.0436  2.6041
   86CHL1   C14 8786   1.140   0.053   7.276 -0.1209  0.6653 -0.4752
   86CHL1   H14 8787   1.247   0.081   7.258  0.8617 -3.0262 -1.1596
   86CHL1   C15 8788   1.154  -0.094   7.327  0.4917 -0.3802 -0.3816
   86CHL1  H15A 8789   1.050  -0.135   7.322  0.5485 -0.6246  0.2663
   86CHL1  H15B 8790   1.217  -0.168   7.274 -0.6090 -1.6653  0.0297
   86CHL1   C16 8791   1.191  -0.073   7.476 -0.0599  0.3941  0.5049
   86CHL1  H16A 8792   1.122  -0.148   7.521 -0.7596 -0.9636 -2.5679
   86CHL1  H16B 8793   1.301  -0.089   7.475 -0.0362  0.1774 -2.9376
   86CHL1   C17 8794   1.173   0.071   7.515  0.6847 -0.1136  0.2084
   86CHL1   H17 8795   1.276   0.110   7.525  0.3487  0.3868  2.2351
   86CHL1   C13 8796   1.095   0.135   7.391 -0.2865 -0.9001 -0.4311
   86CHL1   C18 8797   0.941   0.117   7.419 -0.4740 -0.1408  0.6641
   86CHL1  H18A 8798   0.911   0.159   7.517  1.1746 -0.0779  1.1684
   86CHL1  H18B 8799   0.888   0.169   7.336 -1.4088 -0.0290  1.3125
   86CHL1  H18C 8800   0.904   0.012   7.417  0.9727 -0.6906 -1.5635
   86CHL1   C12 8801   1.139   0.279   7.343  0.7787 -0.2497 -0.2209
   86CHL1  H12A 8802   1.119   0.352   7.425  1.1307 -0.3365 -0.0565
   86CHL1  H12B 8803   1.248   0.289   7.324  0.4936  2.5493 -0.8612
   86CHL1   C11 8804   1.066   0.322   7.213  0.3787  0.4406  0.2037
   86CHL1  H11A 8805   0.958   0.334   7.239  0.5336 -1.2694  1.8666
   86CHL1  H11B 8806   1.113   0.421   7.192  2.1048  0.0097  1.7688
   86CHL1    C9 8807   1.077   0.224   7.103 -0.4884 -0.1231  0.7182
   86CHL1    H9 8808   1.180   0.231   7.062 -0.2125 -0.2410  1.3899
   86CHL1   C10 8809   0.987   0.246   6.976  0.7756 -0.6888 -0.2973
   86CHL1   C19 8810   0.835   0.263   7.026  0.0676 -0.8747 -0.0623
   86CHL1  H19A 8811   0.823   0.356   7.085 -4.4885  0.6675 -2.8886
   86CHL1  H19B 8812   0.759   0.266   6.945  2.3412  1.4766 -2.2512
   86CHL1  H19C 8813   0.814   0.178   7.095  1.5467  0.2745  1.9130
   86CHL1    C1 8814   1.028   0.381   6.916  0.3665  0.8242  0.1646
   86CHL1   H1A 8815   1.021   0.464   6.989  2.4094  0.2272  1.1243
   86CHL1   H1B 8816   1.138   0.369   6.901  0.1702 -0.7764 -0.1729
   86CHL1    C2 8817   0.962   0.416   6.789 -0.1926  0.1644  0.1657
   86CHL1   H2A 8818   0.993   0.516   6.750  0.5159 -0.7425 -1.7467
   86CHL1   H2B 8819   0.852   0.425   6.797 -0.3851 -0.4631 -1.4350
   86CHL1   C20 8820   1.098   0.091   7.656  0.2982  0.2282  0.5252
   86CHL1   H20 8821   0.994   0.053   7.659  0.4884 -0.2531  1.3949
   86CHL1   C21 8822   1.115   0.239   7.685 -0.2225 -0.7164  0.2752
   86CHL1  H21A 8823   1.087   0.265   7.790 -0.9171 -1.7948  0.3665
   86CHL1  H21B 8824   1.072   0.306   7.607  0.6823 -2.0896 -1.4533
   86CHL1  H21C 8825   1.223   0.263   7.674 -0.6750  0.5483 -2.2340
   86CHL1   C22 8826   1.168   0.017   7.771 -0.4426  0.1522 -0.2119
   86CHL1  H22A 8827   1.179  -0.087   7.733 -0.1569 -0.1175  0.5982
   86CHL1  H22B 8828   1.267   0.063   7.788 -0.3735 -0.8771  2.6305
   86CHL1   C23 8829   1.101   0.014   7.903  0.4068 -0.4222 -0.7131
   86CHL1  H23A 8830   1.092   0.119   7.937  1.8711 -0.7542  0.8909
   86CHL1  H23B 8831   0.995  -0.021   7.899 -0.0015  0.2344  2.0584
   86CHL1   C24 8832   1.182  -0.065   8.016 -0.4374 -0.5516  0.6158
   86CHL1  H24A 8833   1.198  -0.165   7.970  0.3745 -0.0952 -0.1348
   86CHL1  H24B 8834   1.285  -0.025   8.026  0.4170 -2.5915  0.5275
   86CHL1   C25 8835   1.109  -0.053   8.156  0.0254 -1.1915 -0.2901
   86CHL1   H25 8836   1.000  -0.059   8.134  0.2146 -0.0212 -1.7258
   86CHL1   C26 8837   1.132  -0.161   8.254  0.0230  0.0827 -0.1865
   86CHL1  H26A 8838   1.221  -0.143   8.319 -0.9656  1.9134  0.7458
   86CHL1  H26B 8839   1.040  -0.167   8.315 -2.4442 -1.8036 -3.7654
   86CHL1  H26C 8840   1.141  -0.256   8.197  0.8179 -1.3490  2.1737
   86CHL1   C27 8841   1.147   0.089   8.224 -0.2933 -0.1578  0.0984
   86CHL1  H27A 8842   1.128   0.180   8.163 -2.9171  0.2061  1.3563
   86CHL1  H27B 8843   1.094   0.093   8.321  0.1161 -1.2258  0.3852
   86CHL1  H27C 8844   1.255   0.079   8.250 -0.9955 -2.1680  2.7336
   87CHL1    C3 8845   3.795   5.145   6.953  0.2759 -0.0701  0.8081
   87CHL1    H3 8846   3.885   5.083   6.973  0.0594 -0.3852  0.8101
   87CHL1    O3 8847   3.802   5.195   6.818 -0.1152  0.1470 -0.6668
   87CHL1   H3' 8848   3.724   5.251   6.812 -1.3977 -1.3439  0.8383
   87CHL1    C4 8849   3.671   5.049   6.955 -0.3100 -0.4810  0.5476
   87CHL1   H4A 8850   3.591   5.109   6.907  1.3964  3.6363  2.3853
   87CHL1   H4B 8851   3.712   4.966   6.893  0.2648  1.3204 -1.5931
   87CHL1    C5 8852   3.630   4.998   7.090  0.4142  0.0800 -0.1377
   87CHL1    C6 8853   3.629   4.868   7.119  0.8658  0.3325  0.4623
   87CHL1    H6 8854   3.662   4.793   7.045  0.6889  1.0049 -0.3106
   87CHL1    C7 8855   3.576   4.813   7.251  0.0868  0.1222 -0.5946
   87CHL1   H7A 8856   3.504   4.729   7.240  0.8230 -0.7538  0.9726
   87CHL1   H7B 8857   3.665   4.780   7.309  0.3217  2.7653  0.6656
   87CHL1    C8 8858   3.511   4.927   7.335 -0.3919  0.2224 -0.1118
   87CHL1    H8 8859   3.410   4.955   7.300 -0.0756  0.6186 -0.7441
   87CHL1   C14 8860   3.496   4.869   7.476  0.6347  0.3786 -0.0502
   87CHL1   H14 8861   3.596   4.850   7.519 -0.0684 -1.5664  0.8911
   87CHL1   C15 8862   3.436   4.725   7.500 -0.3199  0.0357 -1.0383
   87CHL1  H15A 8863   3.335   4.730   7.455  1.1146  0.6070 -4.5003
   87CHL1  H15B 8864   3.504   4.646   7.462  2.5335  1.0884  1.4284
   87CHL1   C16 8865   3.412   4.724   7.653  0.3204  0.3195 -0.7994
   87CHL1  H16A 8866   3.303   4.710   7.671  0.9047 -1.2704  2.2399
   87CHL1  H16B 8867   3.466   4.649   7.715  1.4053 -0.1338 -2.2328
   87CHL1   C17 8868   3.446   4.865   7.704 -0.2026 -0.2611  0.0021
   87CHL1   H17 8869   3.555   4.857   7.723 -0.0517  1.5082  0.0269
   87CHL1   C13 8870   3.438   4.966   7.588  0.0035 -0.3887  0.5120
   87CHL1   C18 8871   3.297   5.005   7.558  0.2244 -0.1643  0.2065
   87CHL1  H18A 8872   3.231   4.916   7.561 -2.1409  1.4804  0.4522
   87CHL1  H18B 8873   3.262   5.074   7.637  3.7414 -0.6246  2.3468
   87CHL1  H18C 8874   3.282   5.051   7.457 -2.8838 -0.0704  0.5903
   87CHL1   C12 8875   3.528   5.098   7.588  0.3445 -0.3725 -0.3769
   87CHL1  H12A 8876   3.478   5.177   7.649  0.6066 -2.1429  2.2681
   87CHL1  H12B 8877   3.629   5.073   7.626  0.2424 -0.4324 -0.1464
   87CHL1   C11 8878   3.541   5.153   7.444 -0.6257  0.3004 -0.4039
   87CHL1  H11A 8879   3.441   5.190   7.413 -1.8695 -0.7311  2.0881
   87CHL1  H11B 8880   3.614   5.237   7.444  0.6791 -0.7586  1.2869
   87CHL1    C9 8881   3.600   5.055   7.337  0.1433  0.3550  0.8408
   87CHL1    H9 8882   3.697   5.020   7.379  0.8771  0.9194 -0.3329
   87CHL1   C10 8883   3.617   5.113   7.196 -0.0228  0.2498 -0.3131
   87CHL1   C19 8884   3.487   5.189   7.166 -0.1453 -0.8706  0.6315
   87CHL1  H19A 8885   3.396   5.131   7.193  0.1528 -1.7626 -0.2074
   87CHL1  H19B 8886   3.484   5.292   7.206 -0.5201 -0.5030 -0.3166
   87CHL1  H19C 8887   3.485   5.209   7.057  0.0400 -2.2288  0.3645
   87CHL1    C1 8888   3.734   5.215   7.200  0.4646 -0.2746 -0.8303
   87CHL1   H1A 8889   3.714   5.307   7.259  1.7023 -0.1252 -0.6165
   87CHL1   H1B 8890   3.816   5.161   7.251  0.0500 -1.9297 -1.8310
   87CHL1    C2 8891   3.775   5.260   7.061 -0.1437 -0.0378 -0.0333
   87CHL1   H2A 8892   3.864   5.325   7.069 -1.9516  2.4997  0.8355
   87CHL1   H2B 8893   3.698   5.331   7.023  0.7807 -0.9596 -4.1373
   87CHL1   C20 8894   3.375   4.904   7.840 -0.0941  0.4217 -0.2071
   87CHL1   H20 8895   3.265   4.905   7.827  0.0016 -0.6789 -1.3269
   87CHL1   C21 8896   3.415   5.049   7.894 -0.9775  0.4334 -0.5048
   87CHL1  H21A 8897   3.367   5.127   7.831 -0.0265  1.5433  0.1122
   87CHL1  H21B 8898   3.523   5.040   7.867 -0.5364 -1.2426  1.5441
   87CHL1  H21C 8899   3.393   5.076   7.999  0.4329 -0.6460  0.1046
   87CHL1   C22 8900   3.416   4.807   7.955  0.0982 -0.7857  0.5520
   87CHL1  H22A 8901   3.403   4.705   7.912 -1.2009 -0.6987  0.6786
   87CHL1  H22B 8902   3.521   4.826   7.983  0.3107 -1.6519  0.3907
   87CHL1   C23 8903   3.318   4.816   8.077 -0.0203  0.5494 -0.2252
   87CHL1  H23A 8904   3.307   4.920   8.115  0.9038  0.6005 -0.0630
   87CHL1  H23B 8905   3.214   4.800   8.042 -0.8741  3.5139  0.6712
   87CHL1   C24 8906   3.357   4.708   8.180 -0.5304  0.2657 -0.6045
   87CHL1  H24A 8907   3.337   4.607   8.136 -1.2644  0.4643 -0.7547
   87CHL1  H24B 8908   3.467   4.710   8.193 -0.4852  0.6480 -1.0103
   87CHL1   C25 8909   3.270   4.716   8.308  0.5798 -0.2630 -0.4091
   87CHL1   H25 8910   3.169   4.739   8.269 -0.2485 -0.0553  1.6940
   87CHL1   C26 8911   3.251   4.592   8.394  0.1507  0.5852 -0.1661
   87CHL1  H26A 8912   3.347   4.547   8.426 -0.4126 -1.2157 -0.9034
   87CHL1  H26B 8913   3.190   4.610   8.486 -1.4512 -0.3505 -0.9968
   87CHL1  H26C 8914   3.183   4.521   8.343 -1.0300  1.4565  0.1247
   87CHL1   C27 8915   3.302   4.839   8.400 -0.1975 -0.4571 -0.1083
   87CHL1  H27A 8916   3.409   4.849   8.430 -0.3349  2.0958 -0.2662
   87CHL1  H27B 8917   3.281   4.935   8.348 -0.4131 -1.4808 -2.0189
   87CHL1  H27C 8918   3.235   4.840   8.488  1.8774 -1.3443  1.5753
   88CHL1    C3 8919   0.838   5.825   7.154  0.4832  0.1532 -0.4245
   88CHL1    H3 8920   0.890   5.921   7.175 -1.6434  1.4841 -0.8766
   88CHL1    O3 8921   0.856   5.820   7.012  0.1020 -0.4659 -0.5175
   88CHL1   H3' 8922   0.826   5.735   6.979 -2.3315 -0.8900  2.3492
   88CHL1    C4 8923   0.908   5.704   7.223 -1.1018  0.6578 -0.2581
   88CHL1   H4A 8924   0.869   5.619   7.162 -0.7482 -0.1301  0.5917
   88CHL1   H4B 8925   1.017   5.712   7.201 -0.9385 -1.2095 -0.3140
   88CHL1    C5 8926   0.878   5.691   7.369 -0.1754 -0.2055  0.0652
   88CHL1    C6 8927   0.981   5.681   7.460  0.0616 -1.0010 -0.1647
   88CHL1    H6 8928   1.084   5.700   7.428  0.6103 -0.2619  1.9043
   88CHL1    C7 8929   0.960   5.650   7.611 -0.2189 -0.5498  0.0867
   88CHL1   H7A 8930   1.018   5.564   7.653  1.1675  1.4558  2.5354
   88CHL1   H7B 8931   1.007   5.740   7.656  2.7169 -1.2673 -1.2322
   88CHL1    C8 8932   0.810   5.628   7.647 -0.3690 -0.2240  0.3657
   88CHL1    H8 8933   0.780   5.523   7.624  0.4527 -0.8963  2.1728
   88CHL1   C14 8934   0.786   5.660   7.792 -0.7024 -0.0922  0.0815
   88CHL1   H14 8935   0.831   5.761   7.799 -1.5515  0.1817  2.2490
   88CHL1   C15 8936   0.868   5.576   7.898  0.8907  0.1078 -0.3928
   88CHL1  H15A 8937   0.847   5.467   7.910 -0.8893  0.5954  1.5617
   88CHL1  H15B 8938   0.978   5.583   7.888  1.0552 -0.4296  0.8603
   88CHL1   C16 8939   0.810   5.632   8.029 -0.5305  0.0778  0.1621
   88CHL1  H16A 8940   0.789   5.546   8.096  0.0528 -0.2517 -0.0739
   88CHL1  H16B 8941   0.879   5.709   8.070 -0.1608 -0.2434  0.1342
   88CHL1   C17 8942   0.666   5.704   7.997  0.3408  0.2491  0.9276
   88CHL1   H17 8943   0.695   5.811   7.984  1.2177  0.0485  1.1820
   88CHL1   C13 8944   0.640   5.661   7.843  0.2506  0.3624 -0.8741
   88CHL1   C18 8945   0.575   5.522   7.829 -0.2433 -0.7043  0.1950
   88CHL1  H18A 8946   0.641   5.446   7.876  3.6273  2.1058 -0.2367
   88CHL1  H18B 8947   0.476   5.516   7.880 -0.3871 -2.1357 -0.2110
   88CHL1  H18C 8948   0.549   5.503   7.722  1.1863 -0.0492 -0.2848
   88CHL1   C12 8949   0.556   5.765   7.768 -0.3009  0.2805  0.1620
   88CHL1  H12A 8950   0.454   5.787   7.806  0.1354  0.8661  1.0380
   88CHL1  H12B 8951   0.603   5.862   7.795 -1.8389  0.3850  2.7281
   88CHL1   C11 8952   0.565   5.746   7.612 -0.3058  0.2456  0.0435
   88CHL1  H11A 8953   0.502   5.659   7.584  0.8828 -0.2596 -1.1491
   88CHL1  H11B 8954   0.520   5.837   7.567  1.3860 -0.2691 -2.9757
   88CHL1    C9 8955   0.715   5.728   7.564 -0.2570  0.0553 -0.1476
   88CHL1    H9 8956   0.760   5.828   7.580 -1.9570  0.9126 -0.5287
   88CHL1   C10 8957   0.723   5.697   7.411  0.6599  0.6162  1.2047
   88CHL1   C19 8958   0.656   5.563   7.369  0.6641  0.0291 -0.5739
   88CHL1  H19A 8959   0.683   5.476   7.433  0.9256 -0.7914 -1.7546
   88CHL1  H19B 8960   0.546   5.578   7.362  0.5625 -1.1245 -1.8993
   88CHL1  H19C 8961   0.681   5.538   7.264 -0.2865 -1.3607 -0.5010
   88CHL1    C1 8962   0.654   5.822   7.344 -0.8957  0.3814  0.0526
   88CHL1   H1A 8963   0.547   5.791   7.353  0.3234 -5.1301 -0.7070
   88CHL1   H1B 8964   0.686   5.918   7.389  0.1554  0.9727 -1.8537
   88CHL1    C2 8965   0.688   5.827   7.192 -0.2418 -0.2700  0.3408
   88CHL1   H2A 8966   0.639   5.914   7.145 -2.0649 -0.9223  0.9487
   88CHL1   H2B 8967   0.644   5.741   7.138  2.0193  0.0103 -2.1190
   88CHL1   C20 8968   0.564   5.679   8.111  0.0902 -0.8158  0.6583
   88CHL1   H20 8969   0.558   5.568   8.111  0.2893 -0.8704 -1.8223
   88CHL1   C21 8970   0.431   5.760   8.084 -0.0170 -0.4266  0.0515
   88CHL1  H21A 8971   0.368   5.759   8.175 -0.8539  1.2611 -0.4661
   88CHL1  H21B 8972   0.376   5.710   8.001  2.2778 -1.1435 -1.1334
   88CHL1  H21C 8973   0.448   5.865   8.052  0.0315 -0.8636 -1.4760
   88CHL1   C22 8974   0.630   5.723   8.244 -0.2820  0.0716  0.2877
   88CHL1  H22A 8975   0.736   5.695   8.264 -0.2509 -0.8993 -1.0742
   88CHL1  H22B 8976   0.636   5.833   8.255  0.8244  0.1582 -0.9242
   88CHL1   C23 8977   0.560   5.673   8.369  0.0779  0.3832 -0.0985
   88CHL1  H23A 8978   0.458   5.716   8.368  0.1207  0.4951  0.1078
   88CHL1  H23B 8979   0.551   5.563   8.360  0.8341  0.3562 -0.5930
   88CHL1   C24 8980   0.622   5.726   8.501 -0.4626 -0.3609 -0.0646
   88CHL1  H24A 8981   0.660   5.830   8.494  0.6723 -0.7438  0.1742
   88CHL1  H24B 8982   0.557   5.712   8.590  2.1766  1.3691  2.3076
   88CHL1   C25 8983   0.744   5.642   8.538 -0.0796 -0.1370 -0.1793
   88CHL1   H25 8984   0.821   5.660   8.460 -0.0751  1.9667  0.2642
   88CHL1   C26 8985   0.806   5.695   8.664  0.5825  0.4531  0.2408
   88CHL1  H26A 8986   0.726   5.693   8.742 -0.0374 -1.1282 -0.3751
   88CHL1  H26B 8987   0.896   5.638   8.696  1.0153  1.3871  0.6939
   88CHL1  H26C 8988   0.852   5.794   8.644  1.4792  0.0164  0.1071
   88CHL1   C27 8989   0.724   5.493   8.553 -0.8032  0.7673  0.1491
   88CHL1  H27A 8990   0.810   5.449   8.608 -1.1259  0.1895  0.1970
   88CHL1  H27B 8991   0.635   5.469   8.615 -1.0743 -2.0822 -1.1587
   88CHL1  H27C 8992   0.712   5.454   8.449  0.0560  3.1259 -0.9182
   89CHL1    C3 8993   4.100   0.130   6.949 -0.0421 -0.8460  0.5227
   89CHL1    H3 8994   4.002   0.179   6.967  0.1546  0.4913 -1.6743
   89CHL1    O3 8995   4.129   0.121   6.807  0.6676 -0.0515 -0.0116
   89CHL1   H3' 8996   4.147   0.027   6.793 -1.6236 -0.4180 -0.9926
   89CHL1    C4 8997   4.203   0.213   7.018 -0.2783 -0.2180  0.0869
   89CHL1   H4A 8998   4.304   0.190   6.979 -0.0877 -1.5448  1.2987
   89CHL1   H4B 8999   4.192   0.318   6.985 -1.1479 -0.4818 -0.4986
   89CHL1    C5 9000   4.192   0.204   7.177 -0.6612 -0.1426 -0.5649
   89CHL1    C6 9001   4.201   0.314   7.258  0.9820 -0.1058  0.2517
   89CHL1    H6 9002   4.212   0.416   7.218 -0.9365  0.2513  0.5675
   89CHL1    C7 9003   4.203   0.320   7.407  0.0574 -0.7241 -0.5482
   89CHL1   H7A 9004   4.268   0.399   7.451 -0.7531 -0.5551  0.3657
   89CHL1   H7B 9005   4.105   0.351   7.448  0.7213 -0.2741  0.7638
   89CHL1    C8 9006   4.232   0.183   7.460 -0.2220  0.9374 -0.1005
   89CHL1    H8 9007   4.337   0.153   7.437 -1.0106  0.3818 -3.5508
   89CHL1   C14 9008   4.205   0.167   7.611 -0.2349  0.0604 -0.8020
   89CHL1   H14 9009   4.095   0.183   7.619 -0.1787 -0.0047  0.3162
   89CHL1   C15 9010   4.252   0.277   7.705  0.0249 -0.3477 -0.3102
   89CHL1  H15A 9011   4.362   0.280   7.690 -0.0483 -0.1650 -0.8110
   89CHL1  H15B 9012   4.198   0.370   7.677 -0.0738 -0.4038 -0.3050
   89CHL1   C16 9013   4.221   0.222   7.841  0.2206 -0.4085 -0.7298
   89CHL1  H16A 9014   4.296   0.236   7.922 -0.1087 -0.7210 -0.3606
   89CHL1  H16B 9015   4.126   0.267   7.876  1.3674  0.2732  1.7432
   89CHL1   C17 9016   4.185   0.068   7.823  0.6967 -0.3327 -0.0802
   89CHL1   H17 9017   4.074   0.064   7.817  0.6518 -0.5339  0.7736
   89CHL1   C13 9018   4.236   0.031   7.676 -0.0645  0.4947 -0.5286
   89CHL1   C18 9019   4.386  -0.001   7.684 -0.0172 -0.0700  0.0288
   89CHL1  H18A 9020   4.437   0.083   7.737  0.1821  0.0432 -0.3360
   89CHL1  H18B 9021   4.407  -0.100   7.730 -1.8312 -0.7523 -0.5242
   89CHL1  H18C 9022   4.438  -0.001   7.586  1.5592  0.4386  0.8288
   89CHL1   C12 9023   4.146  -0.076   7.599 -0.1091 -0.3957 -0.5222
   89CHL1  H12A 9024   4.178  -0.178   7.632 -0.4531 -0.3825 -0.1374
   89CHL1  H12B 9025   4.039  -0.062   7.622 -0.0544 -0.1453 -0.4131
   89CHL1   C11 9026   4.175  -0.069   7.452 -0.2645 -0.4210 -0.1607
   89CHL1  H11A 9027   4.284  -0.087   7.435 -0.6770  0.0691 -4.3695
   89CHL1  H11B 9028   4.110  -0.147   7.406 -1.2990  0.1318  0.3420
   89CHL1    C9 9029   4.152   0.072   7.383 -0.7507 -0.6128 -0.0780
   89CHL1    H9 9030   4.045   0.095   7.396 -1.1163 -1.6850 -0.9399
   89CHL1   C10 9031   4.177   0.072   7.233 -0.2040  1.0606 -0.2183
   89CHL1   C19 9032   4.313  -0.006   7.203 -0.7753  0.5442 -0.2238
   89CHL1  H19A 9033   4.389   0.031   7.277  0.4793 -0.2352 -1.0887
   89CHL1  H19B 9034   4.296  -0.115   7.202  1.1657  0.2008 -1.3364
   89CHL1  H19C 9035   4.352   0.007   7.100 -0.5027 -0.1976 -0.2217
   89CHL1    C1 9036   4.071  -0.019   7.158 -0.1068  0.0139 -0.3443
   89CHL1   H1A 9037   4.077  -0.125   7.191 -1.0068 -0.4686 -1.6620
   89CHL1   H1B 9038   3.970   0.018   7.185 -0.7126 -0.0961 -2.3201
   89CHL1    C2 9039   4.096  -0.015   7.005  0.3009  0.3107  0.2806
   89CHL1   H2A 9040   4.018  -0.078   6.958  0.3764 -0.8409  1.6245
   89CHL1   H2B 9041   4.190  -0.069   6.980  0.6360  1.0433 -0.0709
   89CHL1   C20 9042   4.231  -0.021   7.942 -0.1203  0.3147  0.9740
   89CHL1   H20 9043   4.342  -0.018   7.941 -0.1348  1.3248  1.3414
   89CHL1   C21 9044   4.182  -0.157   7.899  0.3008  0.4154 -0.3719
   89CHL1  H21A 9045   4.250  -0.207   7.826  0.0120 -2.4064  1.1707
   89CHL1  H21B 9046   4.082  -0.168   7.852 -1.0464 -1.2910  2.6184
   89CHL1  H21C 9047   4.185  -0.232   7.981 -1.1495  0.7456  0.0042
   89CHL1   C22 9048   4.177   0.012   8.079  0.8504 -0.3003  0.5931
   89CHL1  H22A 9049   4.210   0.110   8.120 -1.2815  1.1367 -0.9244
   89CHL1  H22B 9050   4.067   0.007   8.062  0.6520  2.6237  0.5425
   89CHL1   C23 9051   4.196  -0.096   8.190 -0.5430 -0.3023  0.6562
   89CHL1  H23A 9052   4.118  -0.174   8.177 -1.8932  1.0474  0.3684
   89CHL1  H23B 9053   4.296  -0.139   8.166  1.3342  3.8492  0.1305
   89CHL1   C24 9054   4.197  -0.053   8.340  0.0679 -0.0427  0.7474
   89CHL1  H24A 9055   4.224  -0.138   8.407  0.1989 -0.1263  0.5898
   89CHL1  H24B 9056   4.279   0.021   8.351  1.0215 -0.7107 -1.4471
   89CHL1   C25 9057   4.056   0.002   8.388  0.4780  0.0411 -0.2222
   89CHL1   H25 9058   4.027   0.082   8.316  0.1284 -1.5945 -1.9821
   89CHL1   C26 9059   3.947  -0.103   8.358 -0.3817 -0.0303  0.2970
   89CHL1  H26A 9060   3.840  -0.075   8.364  0.0027  1.5651  0.0385
   89CHL1  H26B 9061   3.959  -0.160   8.263 -0.0785  0.6343 -0.0640
   89CHL1  H26C 9062   3.960  -0.189   8.428  0.8236  0.4350  0.6577
   89CHL1   C27 9063   4.044   0.056   8.539  0.7788 -0.5758 -0.2950
   89CHL1  H27A 9064   4.096  -0.013   8.608  0.5096  1.2731  1.8806
   89CHL1  H27B 9065   4.086   0.157   8.560  1.9583 -1.7168  3.7286
   89CHL1  H27C 9066   3.935   0.063   8.558  0.3863 -2.4966 -1.5303
   90CHL1    C3 9067   3.719   2.113   6.941  0.2859  0.3084 -0.4578
   90CHL1    H3 9068   3.820   2.139   6.979  0.8997  0.4736 -2.1375
   90CHL1    O3 9069   3.721   2.118   6.803  0.2849  0.5237 -0.4094
   90CHL1   H3' 9070   3.733   2.212   6.788 -0.1871  0.8705  1.2119
   90CHL1    C4 9071   3.702   1.960   6.975 -0.9054  0.2854  0.3141
   90CHL1   H4A 9072   3.623   1.909   6.915 -0.9925  0.1793  0.5177
   90CHL1   H4B 9073   3.797   1.923   6.931 -0.8173  0.1561  0.6106
   90CHL1    C5 9074   3.685   1.928   7.119 -0.4351 -0.9491  0.1511
   90CHL1    C6 9075   3.767   1.835   7.173  0.5258  0.5325 -0.8012
   90CHL1    H6 9076   3.838   1.770   7.121  2.5248  1.3683  0.7390
   90CHL1    C7 9077   3.764   1.803   7.324 -0.1338  0.8039  0.2453
   90CHL1   H7A 9078   3.780   1.695   7.346 -0.5435  0.6901 -0.0102
   90CHL1   H7B 9079   3.850   1.844   7.380  0.3167 -0.7075  0.7186
   90CHL1    C8 9080   3.643   1.860   7.391  0.9029 -0.6601 -0.7137
   90CHL1    H8 9081   3.572   1.779   7.365  1.7436 -2.3267  1.7540
   90CHL1   C14 9082   3.675   1.872   7.538 -0.3257  0.1688 -0.2626
   90CHL1   H14 9083   3.754   1.947   7.560 -1.1564  2.0226 -3.1367
   90CHL1   C15 9084   3.725   1.740   7.608  0.1570 -0.4257 -0.2663
   90CHL1  H15A 9085   3.666   1.651   7.577  0.7105 -1.2554  0.9781
   90CHL1  H15B 9086   3.830   1.711   7.589  0.8424  0.5350  1.7671
   90CHL1   C16 9087   3.693   1.764   7.760 -0.0242 -0.4372 -0.0105
   90CHL1  H16A 9088   3.631   1.682   7.803 -1.9431 -1.3980 -4.0881
   90CHL1  H16B 9089   3.786   1.787   7.816  1.1478  2.1204 -2.7606
   90CHL1   C17 9090   3.603   1.892   7.764  0.1045  0.1693  0.0328
   90CHL1   H17 9091   3.674   1.977   7.769  0.4954  0.0080 -2.0764
   90CHL1   C13 9092   3.539   1.907   7.624  0.0456 -0.5707  0.1547
   90CHL1   C18 9093   3.430   1.800   7.597 -0.5109  0.4712 -0.8332
   90CHL1  H18A 9094   3.342   1.831   7.656  1.4777  0.9944  2.0794
   90CHL1  H18B 9095   3.411   1.795   7.488  0.0251 -0.3194 -0.9017
   90CHL1  H18C 9096   3.451   1.696   7.630  1.1071  0.8818 -0.4530
   90CHL1   C12 9097   3.496   2.044   7.575  0.5017  0.4110 -0.0248
   90CHL1  H12A 9098   3.396   2.077   7.611  0.4103  0.6593 -0.5047
   90CHL1  H12B 9099   3.573   2.116   7.609 -0.3015  0.2625  2.3079
   90CHL1   C11 9100   3.471   2.055   7.423 -1.0170  0.4078  0.1350
   90CHL1  H11A 9101   3.387   1.985   7.401  0.4802 -1.6700  0.7075
   90CHL1  H11B 9102   3.444   2.158   7.392  3.0930  2.1255  1.5950
   90CHL1    C9 9103   3.595   1.999   7.339  0.3520 -0.2877 -0.3060
   90CHL1    H9 9104   3.681   2.058   7.378  0.7505 -0.7536 -0.4721
   90CHL1   C10 9105   3.586   2.021   7.190  0.1136  0.1460  0.0581
   90CHL1   C19 9106   3.444   1.964   7.150 -0.4487  0.1742 -0.0302
   90CHL1  H19A 9107   3.430   1.976   7.040  0.1653  1.1336 -0.0144
   90CHL1  H19B 9108   3.440   1.856   7.175 -0.4386  0.5150  1.5007
   90CHL1  H19C 9109   3.358   2.009   7.205  1.1255 -0.3593  3.0743
   90CHL1    C1 9110   3.602   2.177   7.159  0.0031 -0.2612 -0.1560
   90CHL1   H1A 9111   3.517   2.234   7.204  0.1537 -0.6647  0.6538
   90CHL1   H1B 9112   3.698   2.213   7.201 -1.1553  1.1391  1.4008
   90CHL1    C2 9113   3.613   2.203   7.003 -0.0898  0.0560  0.0412
   90CHL1   H2A 9114   3.626   2.312   6.985  1.2893  0.2250  1.8297
   90CHL1   H2B 9115   3.520   2.168   6.953  0.8861 -1.9357 -0.4870
   90CHL1   C20 9116   3.505   1.895   7.880  0.0946 -0.0602 -0.5328
   90CHL1   H20 9117   3.419   1.829   7.855 -0.3816  0.4143 -0.1617
   90CHL1   C21 9118   3.440   2.037   7.904 -0.0877 -0.4675  0.1507
   90CHL1  H21A 9119   3.368   2.052   7.821 -0.0454 -0.0021  0.1929
   90CHL1  H21B 9120   3.520   2.115   7.911  0.3933 -0.7420 -1.6441
   90CHL1  H21C 9121   3.377   2.045   7.995 -2.8505  2.1290 -1.7676
   90CHL1   C22 9122   3.575   1.845   8.013 -0.2488 -0.4352 -0.5992
   90CHL1  H22A 9123   3.634   1.752   8.004  0.9148  0.2019  0.2962
   90CHL1  H22B 9124   3.648   1.922   8.045 -0.5935 -0.8970  1.3862
   90CHL1   C23 9125   3.479   1.835   8.135  0.8514 -1.3415 -0.2755
   90CHL1  H23A 9126   3.415   1.925   8.141  1.2657 -0.9736 -1.2323
   90CHL1  H23B 9127   3.407   1.750   8.132 -0.5581 -0.1793 -0.4616
   90CHL1   C24 9128   3.555   1.816   8.265 -0.3862  0.2776 -0.5094
   90CHL1  H24A 9129   3.640   1.746   8.252  2.4138  3.5959 -1.3262
   90CHL1  H24B 9130   3.585   1.914   8.308 -0.7752 -0.4838  1.5944
   90CHL1   C25 9131   3.465   1.767   8.382 -0.0567  0.1465  0.0473
   90CHL1   H25 9132   3.364   1.811   8.372 -0.9392 -1.7064  0.4604
   90CHL1   C26 9133   3.445   1.613   8.379  0.9546  0.3713 -0.5039
   90CHL1  H26A 9134   3.542   1.560   8.367  0.3684 -1.4177  1.8445
   90CHL1  H26B 9135   3.404   1.566   8.471  2.6845 -2.7961 -1.1818
   90CHL1  H26C 9136   3.379   1.589   8.293 -2.6047  0.9673  1.8676
   90CHL1   C27 9137   3.527   1.811   8.517  0.2470  0.9166  0.4670
   90CHL1  H27A 9138   3.528   1.922   8.524 -0.1433  0.8890  1.0141
   90CHL1  H27B 9139   3.454   1.787   8.598 -0.1807 -0.1231 -0.2129
   90CHL1  H27C 9140   3.626   1.764   8.532 -0.6957 -1.1046  0.7025
   91CHL1    C3 9141   2.520   3.037   6.795  0.1635 -0.3161  0.0897
   91CHL1    H3 9142   2.554   2.933   6.811 -0.5403 -0.4753  0.5994
   91CHL1    O3 9143   2.523   3.077   6.660 -0.3503  0.4964  0.7171
   91CHL1   H3' 9144   2.515   3.173   6.665  1.0930  1.0173 -3.4516
   91CHL1    C4 9145   2.381   3.052   6.853  0.1366 -0.1872  0.2337
   91CHL1   H4A 9146   2.349   3.158   6.842 -0.5923 -0.6242 -2.5890
   91CHL1   H4B 9147   2.308   2.993   6.794  0.9267  0.6418 -1.6415
   91CHL1    C5 9148   2.387   3.013   6.998 -0.1507  0.0870 -0.4026
   91CHL1    C6 9149   2.302   2.920   7.046 -0.6649 -0.2414  1.0433
   91CHL1    H6 9150   2.241   2.868   6.971  0.3040 -1.3835  1.0173
   91CHL1    C7 9151   2.297   2.867   7.184 -0.3234  0.2889 -0.7623
   91CHL1   H7A 9152   2.195   2.840   7.216  0.5603  0.4342  2.4661
   91CHL1   H7B 9153   2.336   2.763   7.181 -0.6509  0.1576 -0.4527
   91CHL1    C8 9154   2.367   2.963   7.285 -0.0714  0.3471  0.3036
   91CHL1    H8 9155   2.301   3.046   7.316  1.4447  0.1340  4.7765
   91CHL1   C14 9156   2.391   2.880   7.415 -0.8077 -0.1681  0.0895
   91CHL1   H14 9157   2.467   2.805   7.386  0.5837  1.1090  0.3198
   91CHL1   C15 9158   2.277   2.799   7.474  0.1871  0.0152  0.4722
   91CHL1  H15A 9159   2.188   2.859   7.502 -1.7138 -0.5224 -3.7155
   91CHL1  H15B 9160   2.232   2.719   7.411 -0.0686 -0.2401  0.9738
   91CHL1   C16 9161   2.334   2.762   7.606  0.4144 -0.9730 -0.0440
   91CHL1  H16A 9162   2.263   2.779   7.689  0.9080  5.2323 -0.4589
   91CHL1  H16B 9163   2.365   2.655   7.601  1.5570 -0.5954 -1.9679
   91CHL1   C17 9164   2.465   2.850   7.637  0.4007 -0.8554 -0.2681
   91CHL1   H17 9165   2.549   2.782   7.609 -0.0179 -1.0829 -1.0265
   91CHL1   C13 9166   2.464   2.954   7.528  0.6547  0.1506  0.0002
   91CHL1   C18 9167   2.366   3.077   7.578  0.2628  0.0237  0.7361
   91CHL1  H18A 9168   2.275   3.043   7.632 -1.3462  2.0186 -0.5643
   91CHL1  H18B 9169   2.431   3.128   7.652 -2.3231  2.2250  1.6437
   91CHL1  H18C 9170   2.342   3.153   7.500 -0.7623 -0.9282  0.0870
   91CHL1   C12 9171   2.596   3.002   7.466  0.3903 -0.2768 -0.0471
   91CHL1  H12A 9172   2.641   3.069   7.543  1.1334 -1.0113  0.1685
   91CHL1  H12B 9173   2.668   2.918   7.451  1.8534  1.0216 -0.6374
   91CHL1   C11 9174   2.576   3.079   7.335  0.6009 -0.4133  0.5048
   91CHL1  H11A 9175   2.525   3.170   7.373  1.4339 -0.6620  2.3372
   91CHL1  H11B 9176   2.675   3.103   7.292  0.6297  0.5994  1.0891
   91CHL1    C9 9177   2.496   3.003   7.231 -0.9618  0.0076  0.3411
   91CHL1    H9 9178   2.554   2.909   7.217  1.0786  1.0232  1.3974
   91CHL1   C10 9179   2.495   3.080   7.097  1.0395  0.0982  0.2925
   91CHL1   C19 9180   2.460   3.230   7.116 -0.1258  0.7167 -0.1246
   91CHL1  H19A 9181   2.547   3.277   7.167  1.6418 -2.0399 -0.3621
   91CHL1  H19B 9182   2.420   3.276   7.024 -0.4906  0.2463 -0.2056
   91CHL1  H19C 9183   2.378   3.244   7.190  1.3499  0.5783  1.6293
   91CHL1    C1 9184   2.629   3.071   7.022 -0.3454  0.4547 -0.0639
   91CHL1   H1A 9185   2.709   3.131   7.070  0.3945  0.0419 -0.7564
   91CHL1   H1B 9186   2.649   2.962   7.010  0.7504  0.5979  0.3822
   91CHL1    C2 9187   2.631   3.114   6.877  0.2507  0.1663  0.4254
   91CHL1   H2A 9188   2.735   3.086   6.850  0.1394 -0.6943  0.8697
   91CHL1   H2B 9189   2.619   3.223   6.860  1.6260  0.2097 -0.4180
   91CHL1   C20 9190   2.499   2.879   7.784 -0.3694  0.8457  0.1469
   91CHL1   H20 9191   2.423   2.949   7.823 -0.8403 -0.7191  2.2414
   91CHL1   C21 9192   2.641   2.941   7.784  0.1198 -0.6975  0.7684
   91CHL1  H21A 9193   2.717   2.893   7.719  0.9655 -1.4415  2.2531
   91CHL1  H21B 9194   2.682   2.945   7.887 -0.5025  0.8198  0.9795
   91CHL1  H21C 9195   2.632   3.048   7.756 -3.7115 -0.7084  1.4471
   91CHL1   C22 9196   2.507   2.754   7.877 -0.3449  0.6211  0.3971
   91CHL1  H22A 9197   2.559   2.673   7.822 -2.7671 -2.0834  1.8049
   91CHL1  H22B 9198   2.554   2.788   7.972  1.2939 -1.7541  0.5149
   91CHL1   C23 9199   2.371   2.687   7.927 -0.0116 -0.4002  0.4667
   91CHL1  H23A 9200   2.313   2.775   7.963 -1.1423 -1.0801  0.3709
   91CHL1  H23B 9201   2.313   2.643   7.843 -2.2435  1.6278  0.8292
   91CHL1   C24 9202   2.380   2.589   8.048  0.4432  0.2359  0.0221
   91CHL1  H24A 9203   2.443   2.507   8.006  1.3947  0.5692  0.7412
   91CHL1  H24B 9204   2.441   2.634   8.129  1.8897 -1.0305 -0.3147
   91CHL1   C25 9205   2.244   2.540   8.083 -0.8327 -0.3963 -0.3098
   91CHL1   H25 9206   2.192   2.637   8.097 -0.8537 -0.4393 -0.0879
   91CHL1   C26 9207   2.177   2.449   7.971  0.4861 -0.2509  0.5200
   91CHL1  H26A 9208   2.085   2.397   8.007 -1.8855  2.2923 -1.4135
   91CHL1  H26B 9209   2.137   2.516   7.892 -2.0211  0.4155  2.2271
   91CHL1  H26C 9210   2.238   2.363   7.937 -2.5822 -3.2988  2.0692
   91CHL1   C27 9211   2.249   2.463   8.215 -0.2684 -0.1086 -0.3191
   91CHL1  H27A 9212   2.148   2.423   8.237 -0.7498 -0.1471 -2.3806
   91CHL1  H27B 9213   2.320   2.379   8.204  1.8260  1.5578 -0.1315
   91CHL1  H27C 9214   2.297   2.530   8.289  0.0295 -1.8076  1.0719
   92CHL1    C3 9215   1.255   5.438   6.811  0.5849 -0.3755 -1.3048
   92CHL1    H3 9216   1.270   5.547   6.828 -2.5275 -0.2107  1.1833
   92CHL1    O3 9217   1.255   5.414   6.671 -0.6051  0.5482 -0.6051
   92CHL1   H3' 9218   1.188   5.472   6.634  0.0015  1.6951  0.0239
   92CHL1    C4 9219   1.372   5.365   6.878  0.8484 -0.5940 -0.6659
   92CHL1   H4A 9220   1.375   5.259   6.844  0.2790 -0.7285 -0.3115
   92CHL1   H4B 9221   1.466   5.410   6.840  0.7521  0.9272  0.7846
   92CHL1    C5 9222   1.372   5.362   7.032 -0.1137 -0.1956 -0.1816
   92CHL1    C6 9223   1.477   5.400   7.101 -0.2737 -0.0205 -0.1043
   92CHL1    H6 9224   1.556   5.434   7.033 -1.7322 -0.2627 -2.0277
   92CHL1    C7 9225   1.490   5.393   7.254 -0.3619  0.3758 -0.6564
   92CHL1   H7A 9226   1.580   5.336   7.283 -0.4828 -0.3209 -1.5984
   92CHL1   H7B 9227   1.504   5.495   7.296  2.6720 -0.0130 -0.5373
   92CHL1    C8 9228   1.371   5.306   7.322 -0.3996 -0.2476  0.6992
   92CHL1    H8 9229   1.394   5.198   7.305  0.7964  0.4017 -2.5875
   92CHL1   C14 9230   1.367   5.330   7.472 -0.2596  0.2309  0.2789
   92CHL1   H14 9231   1.342   5.437   7.483 -0.1444  0.4898 -1.7299
   92CHL1   C15 9232   1.487   5.307   7.555  0.4112 -0.0470 -0.0263
   92CHL1  H15A 9233   1.542   5.211   7.546  1.1200  0.1922  1.3693
   92CHL1  H15B 9234   1.565   5.381   7.525 -0.1065  1.1559  1.4330
   92CHL1   C16 9235   1.433   5.328   7.702 -0.9800 -0.1553  0.5598
   92CHL1  H16A 9236   1.484   5.248   7.760 -1.3041 -2.1990 -1.7868
   92CHL1  H16B 9237   1.477   5.426   7.727 -1.0246  0.0921 -0.2933
   92CHL1   C17 9238   1.279   5.316   7.694  0.8899 -0.0269  0.4519
   92CHL1   H17 9239   1.244   5.421   7.693  0.4700 -0.0987 -2.9669
   92CHL1   C13 9240   1.253   5.269   7.548  0.2967  0.5635  0.1635
   92CHL1   C18 9241   1.268   5.113   7.556 -0.5331  0.2786 -0.0195
   92CHL1  H18A 9242   1.195   5.072   7.629 -0.0168  0.7010  0.7537
   92CHL1  H18B 9243   1.251   5.078   7.452 -1.8481  0.0722  0.2501
   92CHL1  H18C 9244   1.371   5.082   7.586 -0.4019  1.7686  1.2615
   92CHL1   C12 9245   1.124   5.332   7.484 -0.4674 -0.1251 -0.1583
   92CHL1  H12A 9246   1.029   5.295   7.526 -0.1363  1.2551  1.9788
   92CHL1  H12B 9247   1.119   5.442   7.501 -0.8875 -0.1190 -0.3048
   92CHL1   C11 9248   1.120   5.297   7.337  0.2453  0.1398  0.2299
   92CHL1  H11A 9249   1.112   5.186   7.335 -0.7991  0.1589  1.7506
   92CHL1  H11B 9250   1.030   5.340   7.289 -1.0043 -1.8503  0.6806
   92CHL1    C9 9251   1.247   5.345   7.255 -0.1893  0.2329 -0.0312
   92CHL1    H9 9252   1.241   5.455   7.267 -0.7976  0.1060  0.9247
   92CHL1   C10 9253   1.244   5.321   7.106 -0.0733  0.1236  0.4964
   92CHL1   C19 9254   1.210   5.170   7.083 -0.5534 -0.0126  0.7296
   92CHL1  H19A 9255   1.118   5.135   7.134  0.1830 -0.2057  1.9455
   92CHL1  H19B 9256   1.199   5.152   6.973  3.4726 -2.1450  0.5061
   92CHL1  H19C 9257   1.298   5.107   7.105  0.5662  1.4168  0.4648
   92CHL1    C1 9258   1.139   5.412   7.037 -0.0616 -0.0088 -0.3558
   92CHL1   H1A 9259   1.038   5.377   7.066 -0.6570  2.4217  0.7929
   92CHL1   H1B 9260   1.153   5.518   7.067  0.1192 -0.3240  0.7078
   92CHL1    C2 9261   1.123   5.405   6.875  0.6763 -0.2509 -0.6079
   92CHL1   H2A 9262   1.041   5.475   6.851  0.5420  0.3075  1.3495
   92CHL1   H2B 9263   1.092   5.302   6.845 -1.8891 -0.1548  1.3916
   92CHL1   C20 9264   1.211   5.237   7.806 -0.2441  0.5271  0.0653
   92CHL1   H20 9265   1.219   5.126   7.796 -0.9269  0.6165 -1.9198
   92CHL1   C21 9266   1.054   5.245   7.796  0.3323 -0.2771  0.7176
   92CHL1  H21A 9267   1.006   5.201   7.886 -1.3837 -2.1441 -1.0238
   92CHL1  H21B 9268   1.014   5.181   7.715  1.9776  0.1333 -0.4644
   92CHL1  H21C 9269   1.024   5.351   7.778  1.3016 -0.1703 -0.4339
   92CHL1   C22 9270   1.258   5.272   7.947 -0.2411  0.5238 -0.6156
   92CHL1  H22A 9271   1.367   5.294   7.943  0.0580 -0.8918 -0.8507
   92CHL1  H22B 9272   1.209   5.360   7.995  0.5501  0.1528  0.9297
   92CHL1   C23 9273   1.244   5.154   8.043  0.6169 -0.0238  0.1801
   92CHL1  H23A 9274   1.137   5.126   8.042  0.2540  1.2836 -0.9135
   92CHL1  H23B 9275   1.307   5.069   8.007 -0.3299 -0.2544 -0.9969
   92CHL1   C24 9276   1.286   5.195   8.185  1.3779  0.6297 -0.2427
   92CHL1  H24A 9277   1.382   5.252   8.185  2.1043 -0.5180  1.1325
   92CHL1  H24B 9278   1.202   5.255   8.225  0.7391 -2.4166  3.6620
   92CHL1   C25 9279   1.292   5.072   8.281  0.3920 -0.1957 -0.2295
   92CHL1   H25 9280   1.208   5.002   8.262  0.5767 -1.1284  2.0769
   92CHL1   C26 9281   1.415   4.982   8.246  0.6594 -0.8291  0.6763
   92CHL1  H26A 9282   1.501   5.052   8.232  0.4773 -0.7608 -0.1623
   92CHL1  H26B 9283   1.439   4.899   8.316  0.1262 -1.0340  0.6204
   92CHL1  H26C 9284   1.377   4.931   8.155 -0.0848  0.3799  0.2861
   92CHL1   C27 9285   1.290   5.132   8.419  0.1484 -0.3314 -0.1695
   92CHL1  H27A 9286   1.193   5.186   8.434 -0.1383 -0.5085 -1.2728
   92CHL1  H27B 9287   1.303   5.045   8.486 -0.5893 -0.5735 -0.3226
   92CHL1  H27C 9288   1.374   5.204   8.429 -0.2093  0.0148  0.4294
   93CHL1    C3 9289   5.993   3.174   6.732  0.1953 -0.0784  0.0377
   93CHL1    H3 9290   5.985   3.261   6.801  0.4474  0.5516 -0.7110
   93CHL1    O3 9291   5.949   3.215   6.601  0.2394 -0.0550  0.0555
   93CHL1   H3' 9292   5.986   3.302   6.581  1.8077 -0.8587 -0.7678
   93CHL1    C4 9293   6.135   3.118   6.722  0.2190 -0.0112 -0.2670
   93CHL1   H4A 9294   6.124   3.037   6.646  0.3513 -0.5860  0.3221
   93CHL1   H4B 9295   6.202   3.197   6.682  0.6076 -0.9510 -1.5586
   93CHL1    C5 9296   6.189   3.062   6.853 -0.6444  0.0146  0.4801
   93CHL1    C6 9297   6.309   3.111   6.898  0.1435 -0.2717 -0.2231
   93CHL1    H6 9298   6.362   3.179   6.830  1.2348 -2.4866 -1.7046
   93CHL1    C7 9299   6.366   3.068   7.027  0.0807  0.1228 -0.5356
   93CHL1   H7A 9300   6.473   3.042   7.009  0.5391  0.1176  1.8796
   93CHL1   H7B 9301   6.359   3.153   7.098  0.1240  0.4033 -0.8666
   93CHL1    C8 9302   6.295   2.951   7.091  0.0488 -0.7488  0.4016
   93CHL1    H8 9303   6.324   2.855   7.043 -2.7772 -1.0628 -0.8887
   93CHL1   C14 9304   6.317   2.951   7.247 -0.2374  0.0798 -0.7811
   93CHL1   H14 9305   6.277   3.050   7.277 -2.0326  0.4034 -3.8152
   93CHL1   C15 9306   6.471   2.949   7.294  0.2274  0.1892 -1.0371
   93CHL1  H15A 9307   6.522   2.875   7.228  1.4187  2.1892 -2.4919
   93CHL1  H15B 9308   6.507   3.053   7.278 -0.2702  0.5514  0.1099
   93CHL1   C16 9309   6.464   2.894   7.438  0.4088 -0.3643  0.6489
   93CHL1  H16A 9310   6.521   2.799   7.432  0.4952 -0.2447 -0.7189
   93CHL1  H16B 9311   6.502   2.968   7.511 -1.5462  0.4012  0.9606
   93CHL1   C17 9312   6.315   2.857   7.471  0.7095 -0.2124 -0.0311
   93CHL1   H17 9313   6.274   2.952   7.511  0.4511  1.2888 -3.4433
   93CHL1   C13 9314   6.251   2.838   7.332  1.0477 -0.2608  0.2179
   93CHL1   C18 9315   6.294   2.702   7.272  0.2212  0.4772  0.3806
   93CHL1  H18A 9316   6.404   2.687   7.281  0.1527 -1.0458 -0.8335
   93CHL1  H18B 9317   6.239   2.618   7.318 -0.2280 -0.0966 -1.1244
   93CHL1  H18C 9318   6.272   2.700   7.163 -2.4155  1.1965  0.8531
   93CHL1   C12 9319   6.098   2.857   7.318 -0.5335  0.3543 -0.7206
   93CHL1  H12A 9320   6.039   2.770   7.353 -1.5577  0.0686 -3.0023
   93CHL1  H12B 9321   6.067   2.955   7.360 -0.1855 -0.8997  2.8186
   93CHL1   C11 9322   6.067   2.855   7.164  0.2680  0.3225  0.0137
   93CHL1  H11A 9323   6.094   2.753   7.131  0.3125  0.1816  0.4765
   93CHL1  H11B 9324   5.957   2.856   7.148  0.0303 -0.5896  1.4572
   93CHL1    C9 9325   6.143   2.965   7.080  0.5286 -0.1895 -0.6747
   93CHL1    H9 9326   6.113   3.064   7.120  1.5043  0.4135 -1.3944
   93CHL1   C10 9327   6.098   2.972   6.932  0.2928  0.0775 -0.1443
   93CHL1   C19 9328   6.102   2.828   6.870  0.0269  0.2081 -0.1347
   93CHL1  H19A 9329   6.188   2.760   6.887 -0.4419 -0.3792 -0.0693
   93CHL1  H19B 9330   6.009   2.776   6.901 -0.0076  0.7282  0.6644
   93CHL1  H19C 9331   6.100   2.836   6.759 -0.6134 -0.8552 -0.2078
   93CHL1    C1 9332   5.954   3.029   6.925  0.2148 -0.1463 -0.3932
   93CHL1   H1A 9333   5.891   2.950   6.972  1.1023 -0.7728 -0.2229
   93CHL1   H1B 9334   5.945   3.122   6.985  0.9049 -0.1487 -0.2725
   93CHL1    C2 9335   5.907   3.067   6.788  0.0495  0.1114 -0.1123
   93CHL1   H2A 9336   5.800   3.094   6.777  0.2595  0.7438 -0.7205
   93CHL1   H2B 9337   5.913   2.977   6.723  0.5344  0.5718 -0.7096
   93CHL1   C20 9338   6.290   2.751   7.588  0.2958  0.4900 -0.1260
   93CHL1   H20 9339   6.321   2.651   7.550 -1.8344 -0.3414  0.2194
   93CHL1   C21 9340   6.142   2.752   7.626  0.7381 -0.0006  0.8731
   93CHL1  H21A 9341   6.105   2.857   7.625  1.5415  0.5912 -4.9295
   93CHL1  H21B 9342   6.118   2.696   7.719 -1.8655 -0.6888 -0.1208
   93CHL1  H21C 9343   6.088   2.699   7.544  0.1023 -0.6665  1.7109
   93CHL1   C22 9344   6.377   2.785   7.715 -0.5716 -0.3432  0.2469
   93CHL1  H22A 9345   6.364   2.693   7.775 -1.8052  0.2369  0.9142
   93CHL1  H22B 9346   6.480   2.798   7.676  0.1829  0.8356  2.4892
   93CHL1   C23 9347   6.326   2.889   7.810  0.0571  0.2447  0.1765
   93CHL1  H23A 9348   6.307   2.985   7.757 -0.5244  0.4871  0.7993
   93CHL1  H23B 9349   6.224   2.862   7.844 -1.2285  0.4460 -3.2283
   93CHL1   C24 9350   6.428   2.920   7.928  0.5079 -0.3627  0.0159
   93CHL1  H24A 9351   6.524   2.935   7.874  1.0764  0.4480  1.2058
   93CHL1  H24B 9352   6.392   3.015   7.974 -1.7549 -0.4006 -1.4848
   93CHL1   C25 9353   6.433   2.813   8.039  0.1062 -0.2303  0.0133
   93CHL1   H25 9354   6.409   2.714   7.996 -2.0757 -0.7280  2.1961
   93CHL1   C26 9355   6.579   2.813   8.083 -0.4236  0.5765  0.3713
   93CHL1  H26A 9356   6.585   2.742   8.168 -1.7028  0.0558  0.0561
   93CHL1  H26B 9357   6.643   2.788   7.996 -0.5728 -1.6736  0.8626
   93CHL1  H26C 9358   6.594   2.918   8.116 -2.8795  1.0923  0.0766
   93CHL1   C27 9359   6.345   2.853   8.154 -0.0836  0.5496  0.1697
   93CHL1  H27A 9360   6.362   2.953   8.199  2.4957 -0.2275  1.0901
   93CHL1  H27B 9361   6.240   2.846   8.118  0.6145 -0.6561 -1.8129
   93CHL1  H27C 9362   6.356   2.782   8.239  1.4924  1.5697  0.8556
   94CHL1    C3 9363   1.970   6.555   6.816 -0.1666  0.2270 -0.1381
   94CHL1    H3 9364   1.861   6.544   6.836 -0.9258  3.1333 -1.9989
   94CHL1    O3 9365   1.990   6.542   6.678  0.1776 -0.0462  0.3276
   94CHL1   H3' 9366   2.086   6.537   6.668  0.2743  0.3514  0.9503
   94CHL1    C4 9367   2.005   6.695   6.867 -0.4243  0.0044  0.4383
   94CHL1   H4A 9368   2.108   6.724   6.839 -1.2026  0.9000 -1.7577
   94CHL1   H4B 9369   1.939   6.767   6.814 -0.4781 -1.0040 -0.9086
   94CHL1    C5 9370   1.997   6.713   7.014 -0.4828 -0.1908  0.6887
   94CHL1    C6 9371   1.924   6.799   7.077  1.4892  0.1297 -0.1240
   94CHL1    H6 9372   1.848   6.851   7.017  0.8138  0.4679  0.9797
   94CHL1    C7 9373   1.910   6.821   7.221 -0.0637 -0.3131  0.1262
   94CHL1   H7A 9374   1.926   6.930   7.239 -0.7940  0.3394 -2.7319
   94CHL1   H7B 9375   1.804   6.806   7.251 -0.3950  0.2917 -0.7089
   94CHL1    C8 9376   2.003   6.745   7.305 -0.1481 -0.0416  0.2685
   94CHL1    H8 9377   2.103   6.793   7.305  0.7368 -1.6603 -2.5926
   94CHL1   C14 9378   1.956   6.730   7.441  0.2582 -0.0738  0.2338
   94CHL1   H14 9379   1.856   6.683   7.448  1.4204 -2.7801  0.2318
   94CHL1   C15 9380   1.925   6.862   7.507 -0.0653  0.6344 -0.0904
   94CHL1  H15A 9381   1.997   6.941   7.477 -1.5173  1.3962 -1.7235
   94CHL1  H15B 9382   1.828   6.906   7.475 -0.8556 -1.8024 -1.2904
   94CHL1   C16 9383   1.939   6.837   7.654 -0.2956 -0.1452 -0.4504
   94CHL1  H16A 9384   2.012   6.913   7.691 -0.8687  0.3714 -0.3722
   94CHL1  H16B 9385   1.850   6.850   7.720  0.4728 -0.4991  0.6998
   94CHL1   C17 9386   1.982   6.688   7.665 -0.3030 -0.1864 -0.2942
   94CHL1   H17 9387   1.884   6.639   7.649  0.7872 -1.9845 -1.9076
   94CHL1   C13 9388   2.053   6.656   7.537 -0.3193 -0.1755 -0.1395
   94CHL1   C18 9389   2.198   6.720   7.547  0.9044 -0.6129  0.8758
   94CHL1  H18A 9390   2.248   6.659   7.626  0.4144 -3.5255 -0.9442
   94CHL1  H18B 9391   2.269   6.712   7.462 -1.6393  2.0643 -1.7299
   94CHL1  H18C 9392   2.192   6.827   7.578 -0.3472 -0.8479  1.4998
   94CHL1   C12 9393   2.063   6.514   7.485 -0.3236  0.2710  0.0413
   94CHL1  H12A 9394   2.134   6.454   7.545  0.2826 -1.0541 -1.8919
   94CHL1  H12B 9395   1.971   6.454   7.503  0.2924 -0.5329  0.5938
   94CHL1   C11 9396   2.105   6.521   7.341 -0.1971  0.0677  0.4875
   94CHL1  H11A 9397   2.213   6.548   7.336 -0.5144  2.0854  2.4736
   94CHL1  H11B 9398   2.102   6.416   7.305  0.6897  0.1555  0.1150
   94CHL1    C9 9399   2.021   6.609   7.243 -0.3641  0.2972  0.1376
   94CHL1    H9 9400   1.919   6.564   7.242 -0.2047 -0.0937 -1.7900
   94CHL1   C10 9401   2.078   6.610   7.095 -0.3369  0.4660 -0.2029
   94CHL1   C19 9402   2.232   6.654   7.098 -0.3349 -0.5212 -0.3102
   94CHL1  H19A 9403   2.299   6.565   7.092  1.8787  1.0027  0.3964
   94CHL1  H19B 9404   2.260   6.710   7.006  0.5162 -0.7349 -0.1890
   94CHL1  H19C 9405   2.251   6.707   7.194 -0.5661 -0.2971 -0.3867
   94CHL1    C1 9406   2.062   6.466   7.043  0.2676 -0.4765  0.1622
   94CHL1   H1A 9407   2.152   6.410   7.077  0.9488  0.4884 -0.0009
   94CHL1   H1B 9408   1.964   6.422   7.071  1.1415 -2.6248  0.0342
   94CHL1    C2 9409   2.065   6.456   6.888  0.0507 -0.7206 -0.1319
   94CHL1   H2A 9410   2.034   6.355   6.852  0.0399 -0.9928  0.6135
   94CHL1   H2B 9411   2.170   6.478   6.860 -0.0890 -0.7206 -0.6584
   94CHL1   C20 9412   2.039   6.642   7.802 -0.0877  0.5988  0.4230
   94CHL1   H20 9413   2.109   6.557   7.784 -0.2449  0.3087  1.1642
   94CHL1   C21 9414   1.922   6.590   7.887 -0.5155 -0.6969  0.1575
   94CHL1  H21A 9415   1.973   6.554   7.979  1.6384 -1.6013 -1.2932
   94CHL1  H21B 9416   1.870   6.514   7.825 -0.9218 -0.6656  0.4517
   94CHL1  H21C 9417   1.849   6.673   7.899  1.4494  1.2663 -0.8632
   94CHL1   C22 9418   2.102   6.754   7.879 -0.1396  0.2686 -0.7818
   94CHL1  H22A 9419   2.182   6.794   7.814  0.0109  0.1523 -0.6717
   94CHL1  H22B 9420   2.028   6.831   7.909  0.2607 -0.6591  3.2725
   94CHL1   C23 9421   2.182   6.722   8.006 -0.3847  0.0319 -0.4396
   94CHL1  H23A 9422   2.108   6.690   8.083 -2.7022  0.5938 -2.3105
   94CHL1  H23B 9423   2.249   6.637   7.980  2.5672  2.2240 -0.5126
   94CHL1   C24 9424   2.262   6.843   8.058  0.5564 -0.4888  0.6197
   94CHL1  H24A 9425   2.327   6.862   7.970  0.3401  0.3080  0.6328
   94CHL1  H24B 9426   2.200   6.935   8.064  1.4187  0.2115 -0.7406
   94CHL1   C25 9427   2.337   6.830   8.190  0.4270 -0.0348 -0.2436
   94CHL1   H25 9428   2.417   6.754   8.184 -0.0851 -0.7593  1.4009
   94CHL1   C26 9429   2.411   6.964   8.223 -0.6565 -0.3245 -0.3671
   94CHL1  H26A 9430   2.422   6.994   8.330  0.9022 -2.4917  0.1503
   94CHL1  H26B 9431   2.505   6.935   8.173 -1.4111 -1.8972 -0.9382
   94CHL1  H26C 9432   2.370   7.054   8.173  1.1854 -0.7521 -2.7917
   94CHL1   C27 9433   2.242   6.808   8.309  0.3650 -0.1598 -0.1207
   94CHL1  H27A 9434   2.172   6.894   8.319 -1.0992 -1.6043  4.5198
   94CHL1  H27B 9435   2.196   6.708   8.317  0.6356 -0.1564  2.0562
   94CHL1  H27C 9436   2.303   6.809   8.401 -0.8071  0.4093  0.6690
   95CHL1    C3 9437   1.612   4.898   6.759  0.4069 -0.1089  0.0943
   95CHL1    H3 9438   1.668   4.992   6.778  2.2460 -0.9708 -0.8112
   95CHL1    O3 9439   1.584   4.887   6.621  0.0311  0.0542  0.6895
   95CHL1   H3' 9440   1.547   4.799   6.612  0.8295 -0.1057 -1.6086
   95CHL1    C4 9441   1.701   4.782   6.803 -0.2462 -0.2953 -0.1964
   95CHL1   H4A 9442   1.646   4.698   6.756  0.3878 -1.5999  1.2920
   95CHL1   H4B 9443   1.800   4.808   6.760 -0.5130  1.8378  0.3287
   95CHL1    C5 9444   1.707   4.779   6.955 -0.7903 -0.2655 -0.0973
   95CHL1    C6 9445   1.825   4.775   7.023  0.0530 -0.2785  0.5134
   95CHL1    H6 9446   1.920   4.788   6.969  1.0555  0.8101  2.4536
   95CHL1    C7 9447   1.842   4.771   7.169  0.3340 -0.2058  0.1614
   95CHL1   H7A 9448   1.924   4.703   7.198  1.0907  0.3823 -0.5445
   95CHL1   H7B 9449   1.865   4.871   7.213 -0.7339 -0.9477  2.6052
   95CHL1    C8 9450   1.706   4.749   7.247  0.1713 -0.5155 -0.8459
   95CHL1    H8 9451   1.681   4.641   7.238 -1.0966 -0.4332  1.1263
   95CHL1   C14 9452   1.720   4.777   7.394 -0.2182 -0.0912  0.0636
   95CHL1   H14 9453   1.759   4.880   7.407  0.7460 -0.2874 -1.1733
   95CHL1   C15 9454   1.827   4.697   7.477 -0.1624 -0.8892  0.3148
   95CHL1  H15A 9455   1.812   4.588   7.457 -1.4280 -0.6686 -0.0253
   95CHL1  H15B 9456   1.933   4.717   7.449 -0.5748 -0.5896 -1.1063
   95CHL1   C16 9457   1.790   4.708   7.626 -0.8892 -0.7319  0.2538
   95CHL1  H16A 9458   1.763   4.615   7.680  0.1272 -1.1238  0.1169
   95CHL1  H16B 9459   1.863   4.776   7.675 -0.7703  0.2465 -1.2352
   95CHL1   C17 9460   1.650   4.783   7.623  0.2001  0.2355 -0.8845
   95CHL1   H17 9461   1.679   4.890   7.618  1.2651 -0.0983 -3.0885
   95CHL1   C13 9462   1.592   4.759   7.480 -0.2035  0.3049  0.2742
   95CHL1   C18 9463   1.538   4.618   7.480  0.2094  0.3187 -0.2826
   95CHL1  H18A 9464   1.613   4.545   7.517  0.4394  0.8561  0.3099
   95CHL1  H18B 9465   1.442   4.606   7.536 -0.1902  1.1347 -0.7670
   95CHL1  H18C 9466   1.519   4.585   7.376 -0.4226 -0.1793 -0.0191
   95CHL1   C12 9467   1.491   4.854   7.417 -0.4231  0.0981  0.0275
   95CHL1  H12A 9468   1.397   4.841   7.475 -1.0696 -0.0116 -1.0135
   95CHL1  H12B 9469   1.511   4.963   7.424 -1.1364  0.2643 -0.3303
   95CHL1   C11 9470   1.464   4.829   7.262  0.3153  0.1772  0.0862
   95CHL1  H11A 9471   1.421   4.727   7.254  3.2341 -1.0736 -0.7451
   95CHL1  H11B 9472   1.381   4.894   7.226  0.3649  0.6364  0.7995
   95CHL1    C9 9473   1.596   4.831   7.180  0.2619 -0.5207  0.0831
   95CHL1    H9 9474   1.630   4.937   7.178 -1.2789 -0.0190 -0.4022
   95CHL1   C10 9475   1.581   4.789   7.038  0.0732  0.4786  0.3502
   95CHL1   C19 9476   1.509   4.656   7.023 -0.3434 -0.1955  0.2168
   95CHL1  H19A 9477   1.521   4.607   6.924 -0.2869  0.3462 -0.0487
   95CHL1  H19B 9478   1.555   4.584   7.094 -0.4299 -1.1303 -0.6586
   95CHL1  H19C 9479   1.403   4.672   7.050 -0.5094  1.4005 -1.2047
   95CHL1    C1 9480   1.496   4.908   6.972 -0.6417  0.0525 -0.7221
   95CHL1   H1A 9481   1.392   4.904   7.010 -1.4770 -1.3662 -2.9368
   95CHL1   H1B 9482   1.545   5.005   6.995  0.6655 -1.0725  1.6577
   95CHL1    C2 9483   1.473   4.893   6.822  0.1537  0.3318 -0.1762
   95CHL1   H2A 9484   1.409   4.978   6.789 -0.2479  1.5077  3.2923
   95CHL1   H2B 9485   1.429   4.796   6.791  1.0033 -0.1978  0.2395
   95CHL1   C20 9486   1.566   4.753   7.743 -0.6190  0.3586  0.4351
   95CHL1   H20 9487   1.530   4.648   7.736 -0.8937  0.5836 -3.2694
   95CHL1   C21 9488   1.439   4.846   7.761 -0.1281  0.4944  0.2050
   95CHL1  H21A 9489   1.394   4.840   7.863 -0.9943  0.7440 -0.1479
   95CHL1  H21B 9490   1.360   4.811   7.691  0.7650  1.4909 -1.3554
   95CHL1  H21C 9491   1.476   4.947   7.732  2.9697 -0.2946  1.0624
   95CHL1   C22 9492   1.647   4.766   7.871  0.3592 -0.3400 -0.4593
   95CHL1  H22A 9493   1.580   4.762   7.960  1.5171  1.9275  0.6081
   95CHL1  H22B 9494   1.710   4.675   7.871  0.7847 -0.1088  1.6426
   95CHL1   C23 9495   1.722   4.900   7.881 -0.1924 -0.2589 -0.0383
   95CHL1  H23A 9496   1.802   4.915   7.806  0.0788 -0.7881  0.1376
   95CHL1  H23B 9497   1.645   4.980   7.872  0.5169  0.3911 -0.4040
   95CHL1   C24 9498   1.766   4.919   8.023 -0.0004 -0.4083 -0.7712
   95CHL1  H24A 9499   1.685   4.938   8.096  1.1886  2.7512 -0.1246
   95CHL1  H24B 9500   1.814   4.822   8.048 -0.4939 -0.4923 -0.1432
   95CHL1   C25 9501   1.869   5.037   8.036  0.1714  0.0719  0.2844
   95CHL1   H25 9502   1.959   4.993   7.989 -0.2131  0.2212 -0.6136
   95CHL1   C26 9503   1.830   5.171   7.984 -0.3782  0.3508  0.0697
   95CHL1  H26A 9504   1.893   5.252   8.025 -0.6476  0.3224  0.5384
   95CHL1  H26B 9505   1.820   5.174   7.873  1.3890 -1.2823 -0.1954
   95CHL1  H26C 9506   1.733   5.206   8.024 -1.1283 -1.4171 -0.0916
   95CHL1   C27 9507   1.902   5.061   8.187  0.4917  0.0455 -0.9216
   95CHL1  H27A 9508   1.994   5.123   8.184 -0.1053  0.9428 -1.4242
   95CHL1  H27B 9509   1.817   5.106   8.243 -0.7818 -2.0471 -1.0724
   95CHL1  H27C 9510   1.930   4.964   8.232  2.7387  0.6292 -0.9596
   96CHL1    C3 9511   5.408   3.275   6.780 -0.2364  0.0740  0.1390
   96CHL1    H3 9512   5.425   3.368   6.838 -0.9101 -0.5822  1.4196
   96CHL1    O3 9513   5.414   3.315   6.646  0.1685 -0.8641  1.1420
   96CHL1   H3' 9514   5.434   3.235   6.597  0.5111 -0.4269  0.5511
   96CHL1    C4 9515   5.518   3.176   6.811 -0.4741  0.2254  0.1798
   96CHL1   H4A 9516   5.507   3.089   6.743  1.6776  0.3680 -0.4460
   96CHL1   H4B 9517   5.617   3.221   6.785 -0.2082  0.6297  1.7916
   96CHL1    C5 9518   5.510   3.137   6.958  0.0512 -1.0474  0.1404
   96CHL1    C6 9519   5.610   3.168   7.042 -0.2013  0.4546  0.1659
   96CHL1    H6 9520   5.696   3.227   7.005 -0.2751  0.7140  0.4060
   96CHL1    C7 9521   5.610   3.126   7.192 -0.2379  0.2585 -0.5875
   96CHL1   H7A 9522   5.711   3.091   7.223 -0.5663  1.3955  2.0562
   96CHL1   H7B 9523   5.588   3.216   7.254  1.7990  0.3381  0.0958
   96CHL1    C8 9524   5.499   3.011   7.229 -0.5824 -0.0631  0.0117
   96CHL1    H8 9525   5.544   2.930   7.169 -0.2487  0.7605 -0.8656
   96CHL1   C14 9526   5.475   2.985   7.377 -0.2099  0.2659  0.8555
   96CHL1   H14 9527   5.452   3.085   7.420 -1.7906 -0.1458  1.0536
   96CHL1   C15 9528   5.594   2.937   7.458 -0.3232 -0.2718 -0.7985
   96CHL1  H15A 9529   5.648   2.846   7.423  0.2411 -0.9160  1.6094
   96CHL1  H15B 9530   5.662   3.024   7.473 -1.5716  0.4245  1.0338
   96CHL1   C16 9531   5.527   2.901   7.591 -0.6651 -0.2731 -0.3134
   96CHL1  H16A 9532   5.573   2.805   7.624 -2.3980 -0.3091  2.2298
   96CHL1  H16B 9533   5.555   2.978   7.666  0.9818  0.1972 -1.3473
   96CHL1   C17 9534   5.376   2.891   7.567  0.7080 -0.5410  0.0905
   96CHL1   H17 9535   5.328   2.981   7.611 -0.8120  0.0477 -2.5772
   96CHL1   C13 9536   5.361   2.893   7.414 -0.0530 -0.2623  0.4048
   96CHL1   C18 9537   5.383   2.751   7.350  0.1950 -0.9538  0.3983
   96CHL1  H18A 9538   5.293   2.692   7.379 -1.6745  1.6979  0.3542
   96CHL1  H18B 9539   5.391   2.764   7.240 -1.9878  1.6473  0.4245
   96CHL1  H18C 9540   5.474   2.698   7.384 -0.3422 -1.9463  0.3369
   96CHL1   C12 9541   5.230   2.952   7.354 -0.3227 -0.2745  0.5888
   96CHL1  H12A 9542   5.143   2.885   7.372  1.2692 -2.6695 -0.1657
   96CHL1  H12B 9543   5.219   3.049   7.407 -1.4120 -0.6003  0.9793
   96CHL1   C11 9544   5.248   2.973   7.205  1.4644  0.5388 -0.0677
   96CHL1  H11A 9545   5.245   2.879   7.145 -1.9999  0.8552 -0.6275
   96CHL1  H11B 9546   5.154   3.022   7.170  1.2658 -0.4505 -0.9778
   96CHL1    C9 9547   5.370   3.056   7.169  0.4369 -0.6578 -0.3686
   96CHL1    H9 9548   5.348   3.154   7.216 -0.7259 -1.2131  0.2849
   96CHL1   C10 9549   5.381   3.073   7.011 -0.2440 -0.0577 -0.6781
   96CHL1   C19 9550   5.366   2.936   6.940  0.2009  0.3038 -0.3737
   96CHL1  H19A 9551   5.423   2.856   6.992 -0.0201 -0.5962 -1.4773
   96CHL1  H19B 9552   5.261   2.902   6.940 -0.4340  2.1381  0.0342
   96CHL1  H19C 9553   5.406   2.942   6.837  2.5310  1.2700  0.5052
   96CHL1    C1 9554   5.264   3.172   6.967 -0.1424 -0.1911  0.0474
   96CHL1   H1A 9555   5.167   3.119   6.975 -0.1042 -0.6078 -1.9177
   96CHL1   H1B 9556   5.267   3.263   7.031 -1.7653 -0.4265  0.5052
   96CHL1    C2 9557   5.263   3.214   6.822 -0.7888 -0.6628 -0.4391
   96CHL1   H2A 9558   5.170   3.272   6.806 -0.1100  1.0948  1.5410
   96CHL1   H2B 9559   5.248   3.124   6.759 -0.5018 -0.4107 -0.8681
   96CHL1   C20 9560   5.305   2.776   7.636 -0.4221  0.3107 -0.5920
   96CHL1   H20 9561   5.363   2.683   7.620  0.8883  0.6381  1.7447
   96CHL1   C21 9562   5.158   2.767   7.614  0.6231 -0.6899  0.1593
   96CHL1  H21A 9563   5.127   2.729   7.514 -0.9778  0.6102  0.1232
   96CHL1  H21B 9564   5.106   2.864   7.627  1.7345 -0.1768  0.8650
   96CHL1  H21C 9565   5.123   2.699   7.695  2.5698 -0.4697  1.2517
   96CHL1   C22 9566   5.309   2.788   7.796  0.1393  0.6974  0.6329
   96CHL1  H22A 9567   5.412   2.824   7.818  0.6301 -0.1017 -0.2568
   96CHL1  H22B 9568   5.242   2.864   7.841 -1.1048 -0.5076  0.8653
   96CHL1   C23 9569   5.276   2.667   7.880  0.8055 -0.1903 -0.5250
   96CHL1  H23A 9570   5.174   2.625   7.868  0.8411 -1.2002  2.0547
   96CHL1  H23B 9571   5.347   2.588   7.846 -1.6047 -1.3785 -3.2492
   96CHL1   C24 9572   5.278   2.704   8.031 -0.0121  0.4659 -0.4837
   96CHL1  H24A 9573   5.353   2.781   8.058 -1.0748  1.3932 -0.1072
   96CHL1  H24B 9574   5.187   2.760   8.064  0.0360  1.4131 -1.8470
   96CHL1   C25 9575   5.290   2.584   8.124  0.8175 -0.0540  0.3209
   96CHL1   H25 9576   5.209   2.520   8.084  1.6141 -0.6098 -0.4508
   96CHL1   C26 9577   5.419   2.513   8.111  0.6238 -0.1688 -0.2757
   96CHL1  H26A 9578   5.507   2.576   8.133 -0.4054  1.5560 -0.8971
   96CHL1  H26B 9579   5.429   2.423   8.175 -1.3645  0.5390  1.1317
   96CHL1  H26C 9580   5.441   2.486   8.005  1.7427  0.8175 -0.3138
   96CHL1   C27 9581   5.275   2.620   8.269  0.5693  0.2362  0.7214
   96CHL1  H27A 9582   5.351   2.687   8.315  0.6245  1.8333 -1.5522
   96CHL1  H27B 9583   5.182   2.678   8.285  0.9626  0.3998  2.6694
   96CHL1  H27C 9584   5.262   2.524   8.324 -1.3847  0.2014  0.2650
   97OSM      N 9585   1.165   0.181  11.066  1.1099  0.6263  0.0085
   97OSM    C15 9586   1.137   0.306  11.141 -0.9384  0.8320 -0.4242
   97OSM   H15A 9587   1.068   0.376  11.097 -0.9522 -0.6422 -2.9010
   97OSM   H15B 9588   1.225   0.365  11.165 -1.8597  2.3426 -0.5929
   97OSM   H15C 9589   1.100   0.285  11.240 -0.2212  0.6889 -0.1799
   97OSM    C14 9590   1.253   0.101  11.150  1.1764 -0.1171 -0.1921
   97OSM   H14A 9591   1.190   0.057  11.225 -0.1327  1.7990 -0.1089
   97OSM   H14B 9592   1.313   0.159  11.218 -1.9431  0.6143  2.1212
   97OSM   H14C 9593   1.298   0.021  11.093 -3.0626 -3.3576  0.5107
   97OSM    C13 9594   1.036   0.115  11.029  0.6901  0.0548 -0.2208
   97OSM   H13A 9595   0.967   0.118  11.113  2.4523  0.8634  1.2541
   97OSM   H13B 9596   1.046   0.017  10.984  0.1541 -0.7932  1.3973
   97OSM   H13C 9597   0.990   0.174  10.951  1.2846  1.0318  0.1605
   97OSM    C12 9598   1.239   0.223  10.936  0.4835  0.3229 -0.2713
   97OSM   H12A 9599   1.339   0.257  10.961  0.9089  0.1997 -1.6727
   97OSM   H12B 9600   1.191   0.295  10.871  0.1440 -0.2708 -0.6846
   97OSM    C11 9601   1.264   0.113  10.829  0.1557 -0.0336  0.0301
   97OSM   H11A 9602   1.304   0.150  10.732  0.7987  0.4428  0.4691
   97OSM   H11B 9603   1.171   0.061  10.798 -0.7129  0.2284  2.0480
   97OSM      P 9604   1.508   0.036  10.879  0.0042  0.1959 -0.1729
   97OSM    O13 9605   1.537   0.157  10.957  0.0263  0.2637  0.2148
   97OSM    O14 9606   1.562  -0.090  10.939  0.3077 -0.0073  0.0959
   97OSM    O11 9607   1.545   0.053  10.727  0.3325 -0.1783 -0.8034
   97OSM    O12 9608   1.351   0.012  10.881  0.3685  0.1565 -0.2741
   97OSM    C1S 9609   1.535  -0.056  10.637  0.1400  0.7543  0.0746
   97OSM    H1S 9610   1.429  -0.087  10.629  0.3625 -1.1407  2.9080
   97OSM    H1T 9611   1.599  -0.138  10.675  0.4226  0.7374 -0.4181
   97OSM     NF 9612   1.579  -0.173  10.421 -0.5337 -0.3983  0.0036
   97OSM    HNF 9613   1.652  -0.237  10.396  0.5491  0.8413 -0.1298
   97OSM    C2S 9614   1.607  -0.052  10.495  0.1337  0.0426  0.3528
   97OSM    H2S 9615   1.557   0.028  10.437 -1.9699 -0.4737  1.3570
   97OSM    C3S 9616   1.757  -0.014  10.505 -0.1548  0.7052 -0.2384
   97OSM    H3S 9617   1.817  -0.106  10.522 -2.3674 -0.7492  0.1399
   97OSM     O3 9618   1.781   0.076  10.611  0.1189 -0.1589  0.4482
   97OSM    HO3 9619   1.701   0.069  10.663 -0.9679  2.4449 -0.6961
   97OSM    C4S 9620   1.809   0.037  10.366  0.4375  0.1862 -0.1365
   97OSM    H4S 9621   1.841  -0.044  10.298 -0.3176  1.0910 -1.6087
   97OSM    C5S 9622   1.807   0.158  10.309  0.0833 -0.4453  0.3023
   97OSM    H5S 9623   1.764   0.248  10.356 -0.8682 -0.3114 -0.7754
   97OSM    C6S 9624   1.859   0.212  10.176  0.0781  0.6688  0.4873
   97OSM    H6S 9625   1.937   0.291  10.176  1.7480 -0.6967 -3.2922
   97OSM    H6T 9626   1.771   0.262  10.130 -1.3619  1.5387  3.9290
   97OSM    C7S 9627   1.894   0.107  10.069 -0.4746  0.4622 -0.1794
   97OSM    H7S 9628   1.808   0.037  10.066  0.1198 -0.3625  1.0519
   97OSM    H7T 9629   1.983   0.047  10.099 -0.6139  0.6758  0.6997
   97OSM    C8S 9630   1.922   0.176   9.932  0.1952 -0.0353 -0.0064
   97OSM    H8S 9631   2.024   0.220   9.939  0.3878 -0.2834 -1.0525
   97OSM    H8T 9632   1.851   0.260   9.918  1.1673  0.9143  0.6565
   97OSM    C9S 9633   1.922   0.075   9.824 -0.5013 -0.5555 -0.6389
   97OSM    H9S 9634   1.826   0.021   9.804 -1.0542 -0.8992  2.3097
   97OSM    H9T 9635   1.991  -0.009   9.848 -1.8041 -1.2855  0.8620
   97OSM   C10S 9636   1.950   0.128   9.684  0.1961  1.0446  0.0079
   97OSM   H10S 9637   2.049   0.179   9.680  0.8743 -0.2843 -0.4757
   97OSM   H10T 9638   1.880   0.205   9.645 -0.2350  0.7061  0.1160
   97OSM   C11S 9639   1.947   0.016   9.580  0.0167 -0.6546  0.2322
   97OSM   H11S 9640   1.864  -0.056   9.595 -0.3802 -0.3145 -0.3022
   97OSM   H11T 9641   2.038  -0.048   9.582 -0.6585 -1.6254  0.3613
   97OSM   C12S 9642   1.923   0.053   9.429  0.2625  0.2369  0.1605
   97OSM   H12S 9643   1.831   0.114   9.416  1.7100  2.6798  0.7226
   97OSM   H12T 9644   1.906  -0.043   9.376  1.6060 -0.1788  0.4399
   97OSM   C13S 9645   2.051   0.107   9.363 -0.3086 -0.6802  0.3684
   97OSM   H13S 9646   2.127   0.026   9.369  0.0409 -0.4174 -0.3608
   97OSM   H13T 9647   2.089   0.194   9.421 -0.0079  0.1867 -1.0594
   97OSM   C14S 9648   2.040   0.154   9.217 -0.2503 -0.2846  0.4424
   97OSM   H14S 9649   2.135   0.197   9.178 -1.0150  1.6693  0.6284
   97OSM   H14T 9650   1.969   0.239   9.219  1.8691  1.5700  0.7888
   97OSM   C15S 9651   2.010   0.042   9.109  0.2449 -0.2448 -0.1674
   97OSM   H15S 9652   1.910   0.002   9.133  0.0750 -0.5984 -1.4392
   97OSM   H15T 9653   2.093  -0.032   9.115  1.6048  0.8933 -2.9819
   97OSM   C16S 9654   1.999   0.101   8.968 -0.7343  0.1025 -1.1534
   97OSM   H16S 9655   2.088   0.168   8.970 -0.1040 -0.7377 -0.4483
   97OSM   H16T 9656   1.911   0.168   8.958 -0.4204  0.3700 -2.2449
   97OSM   C17S 9657   2.001   0.007   8.850  0.2103  0.3713  0.1503
   97OSM   H17S 9658   1.912  -0.058   8.863 -0.6496  1.2123 -1.3020
   97OSM   H17T 9659   2.094  -0.055   8.852  1.0173  1.5578  1.4210
   97OSM   C18S 9660   1.990   0.081   8.716  0.1368 -0.3885  0.7926
   97OSM   H18S 9661   1.897   0.141   8.729 -1.3480 -2.7708  1.7113
   97OSM   H18T 9662   1.976   0.011   8.632 -0.5260  0.6831 -0.0194
   97OSM   H18U 9663   2.084   0.142   8.714 -0.1828  0.1935  2.0819
   97OSM    C1F 9664   1.455  -0.202  10.369 -0.8872  0.3035  0.2203
   97OSM     OF 9665   1.368  -0.120  10.382 -0.0491  0.4130 -0.7946
   97OSM    C2F 9666   1.427  -0.340  10.320  0.9201  0.2967  0.3806
   97OSM    H2F 9667   1.359  -0.388  10.393 -2.0797 -0.2241 -2.5580
   97OSM    H2G 9668   1.519  -0.403  10.328  1.0404  0.3498 -0.5070
   97OSM    C3F 9669   1.349  -0.334  10.189  1.1852  0.1111 -0.2764
   97OSM    H3F 9670   1.254  -0.280  10.204  0.4135 -0.9025 -1.3272
   97OSM    H3G 9671   1.325  -0.438  10.160 -1.7151 -0.2938  3.0501
   97OSM    C4F 9672   1.427  -0.274  10.069 -1.0355 -0.0633  0.1584
   97OSM    H4F 9673   1.536  -0.289  10.084 -0.3284  2.0736 -2.1481
   97OSM    H4G 9674   1.413  -0.164  10.072 -0.6369  0.0521 -1.3439
   97OSM    C5F 9675   1.377  -0.320   9.931  0.3663  0.3739 -0.1851
   97OSM    H5F 9676   1.266  -0.315   9.934  0.3689  1.8548 -1.2418
   97OSM    H5G 9677   1.406  -0.427   9.930 -1.3660 -0.1128 -0.7854
   97OSM    C6F 9678   1.424  -0.237   9.807  0.1933 -0.2967  0.0181
   97OSM    H6F 9679   1.533  -0.220   9.808 -0.0657  1.5451  0.5114
   97OSM    H6G 9680   1.381  -0.136   9.792  0.4286 -0.3790 -1.3537
   97OSM    C7F 9681   1.383  -0.304   9.677  0.9277 -0.1940  0.2451
   97OSM    H7F 9682   1.273  -0.320   9.684  0.9047 -0.2519 -0.2491
   97OSM    H7G 9683   1.437  -0.401   9.668  0.1088 -0.5375 -1.2820
   97OSM    C8F 9684   1.418  -0.230   9.548 -0.2057 -0.3457  0.3041
   97OSM    H8F 9685   1.529  -0.234   9.555 -0.2043 -2.4618 -0.2921
   97OSM    H8G 9686   1.370  -0.130   9.550  0.1773 -0.1103 -1.1152
   97OSM    C9F 9687   1.382  -0.310   9.423  0.0655  0.2521  0.3411
   97OSM    H9F 9688   1.384  -0.420   9.419  1.3696  0.2578  0.3662
   97OSM   C10F 9689   1.323  -0.251   9.316  0.0608 -0.0586 -0.0304
   97OSM   H10F 9690   1.296  -0.315   9.230 -2.6113 -0.4050  0.9677
   97OSM   C11F 9691   1.290  -0.105   9.280  0.1665  0.4005 -0.0197
   97OSM   H11F 9692   1.318  -0.039   9.364 -0.0513  1.9859 -1.1543
   97OSM   H11G 9693   1.179  -0.110   9.271  0.1294  0.0498  0.5862
   97OSM   C12F 9694   1.359  -0.062   9.150  0.1272 -0.5239 -0.4775
   97OSM   H12F 9695   1.311   0.034   9.123 -1.5369 -1.2758 -0.3323
   97OSM   H12G 9696   1.330  -0.141   9.077 -0.6893  0.2468 -0.9939
   97OSM   C13F 9697   1.507  -0.050   9.153  0.3703  0.7114  0.2756
   97OSM   H13F 9698   1.549  -0.150   9.127 -2.6134 -0.2748 -1.2335
   97OSM   H13G 9699   1.531  -0.012   9.254  2.3669 -1.1239  0.5684
   97OSM   C14F 9700   1.574   0.045   9.045  0.6935 -0.2235  0.1178
   97OSM   H14F 9701   1.683   0.027   9.032  0.8221  0.3569  0.3578
   97OSM   H14G 9702   1.557   0.145   9.090 -1.1485 -0.3511 -0.2088
   97OSM   C15F 9703   1.509   0.025   8.905  0.3750 -0.2917  0.8820
   97OSM   H15F 9704   1.419   0.090   8.902  1.1380  0.8334  1.5947
   97OSM   H15G 9705   1.470  -0.075   8.877  0.0525  0.3348 -1.0434
   97OSM   C16F 9706   1.612   0.066   8.795  0.2271  0.5350  0.3820
   97OSM   H16F 9707   1.689  -0.012   8.812 -1.1729 -0.8665  0.4942
   97OSM   H16G 9708   1.657   0.165   8.821  1.1307  0.8123 -1.9814
   97OSM   C17F 9709   1.566   0.044   8.646  0.5075 -0.2084 -1.0721
   97OSM   H17F 9710   1.630   0.118   8.593  0.4976  2.5339  2.3651
   97OSM   H17G 9711   1.462   0.079   8.635  0.8405  1.0576 -0.3954
   97OSM   C18F 9712   1.582  -0.095   8.596  0.0367 -0.1957  0.1513
   97OSM   H18F 9713   1.542  -0.090   8.492 -0.2271 -0.4831  0.2386
   97OSM   H18G 9714   1.516  -0.172   8.640 -2.4035  1.1368 -0.9676
   97OSM   H18H 9715   1.688  -0.126   8.586  0.5724  1.4314  0.4809
   98OSM      N 9716   2.880   2.158  10.746 -0.0356  0.2226 -0.6711
   98OSM    C15 9717   2.953   2.272  10.678  0.7628  0.5977 -0.1120
   98OSM   H15A 9718   2.908   2.307  10.587  2.9881 -1.7749 -2.2911
   98OSM   H15B 9719   3.059   2.257  10.663  0.6501  0.1388 -0.4796
   98OSM   H15C 9720   2.938   2.355  10.746  0.3540  0.1614  0.3414
   98OSM    C14 9721   2.963   2.116  10.865 -0.1910 -0.6182  0.3846
   98OSM   H14A 9722   3.014   2.202  10.907 -0.7651  0.6114 -1.2994
   98OSM   H14B 9723   3.042   2.050  10.834  1.2551  0.6981  1.0962
   98OSM   H14C 9724   2.900   2.064  10.936 -2.6950 -2.0987 -2.6619
   98OSM    C13 9725   2.757   2.206  10.799  0.8566 -0.5026 -0.5473
   98OSM   H13A 9726   2.688   2.226  10.718 -1.8781 -0.9359  1.5253
   98OSM   H13B 9727   2.764   2.297  10.857 -5.0935  1.4720 -2.1144
   98OSM   H13C 9728   2.708   2.140  10.869  0.3046  1.5376  1.1112
   98OSM    C12 9729   2.862   2.043  10.648 -0.2914 -0.1313 -0.9215
   98OSM   H12A 9730   2.807   1.963  10.695  2.0183 -2.5001 -1.9783
   98OSM   H12B 9731   2.964   2.009  10.637 -0.1504 -0.5877  1.3145
   98OSM    C11 9732   2.767   2.067  10.526  0.3936  0.6270  0.8223
   98OSM   H11A 9733   2.775   1.991  10.445 -1.1973  0.6177  0.6444
   98OSM   H11B 9734   2.800   2.159  10.473  1.8102 -0.4852 -0.3061
   98OSM      P 9735   2.511   2.144  10.501 -0.2046 -0.2072  0.6029
   98OSM    O13 9736   2.396   2.123  10.591  0.0206  0.0355 -0.8705
   98OSM    O14 9737   2.545   2.282  10.470 -0.8175  0.1369  0.0008
   98OSM    O11 9738   2.511   2.061  10.366  0.1591 -0.1012 -0.0295
   98OSM    O12 9739   2.628   2.071  10.575  0.3480  0.4755 -0.5958
   98OSM    C1S 9740   2.514   1.921  10.361  0.3512  0.0615  0.4373
   98OSM    H1S 9741   2.426   1.877  10.413  0.6738 -2.3926 -0.9410
   98OSM    H1T 9742   2.608   1.879  10.404 -0.4885 -1.0628  1.2396
   98OSM     NF 9743   2.520   1.737  10.190  0.4855  0.5910 -0.1350
   98OSM    HNF 9744   2.607   1.689  10.196  1.2180  1.6104 -1.9443
   98OSM    C2S 9745   2.531   1.880  10.208 -0.4835 -0.7843  0.1344
   98OSM    H2S 9746   2.445   1.926  10.155  0.5723  0.4777 -0.5154
   98OSM    C3S 9747   2.665   1.935  10.148  0.0375  0.3110  0.1936
   98OSM    H3S 9748   2.735   1.878  10.213 -0.3257 -1.6374 -1.0357
   98OSM     O3 9749   2.697   2.073  10.175  0.5807 -0.2028  0.4094
   98OSM    HO3 9750   2.626   2.088  10.238  1.6815  1.4188  1.3271
   98OSM    C4S 9751   2.672   1.901  10.002 -0.9569 -0.4298  0.3275
   98OSM    H4S 9752   2.706   1.798   9.984  1.2536  0.3742 -0.4608
   98OSM    C5S 9753   2.652   1.989   9.902  0.8491 -0.3382 -0.3447
   98OSM    H5S 9754   2.621   2.091   9.928 -1.0865 -0.1890 -2.7768
   98OSM    C6S 9755   2.653   1.959   9.751  0.1695  0.3385  0.1224
   98OSM    H6S 9756   2.750   1.984   9.703  0.5932 -0.7384  0.3919
   98OSM    H6T 9757   2.574   2.025   9.708  0.8214  0.7190 -0.5194
   98OSM    C7S 9758   2.634   1.807   9.710  0.2818 -0.4085 -0.4833
   98OSM    H7S 9759   2.549   1.773   9.773 -1.8669  1.2934 -2.2863
   98OSM    H7T 9760   2.726   1.750   9.738  1.1652  0.9069 -0.6167
   98OSM    C8S 9761   2.594   1.780   9.563  0.5159  0.6921 -0.0539
   98OSM    H8S 9762   2.495   1.829   9.567  0.0910 -0.2087  0.8948
   98OSM    H8T 9763   2.581   1.671   9.546 -1.0295  0.9568 -0.7341
   98OSM    C9S 9764   2.677   1.850   9.453 -0.5445 -0.3024  0.5880
   98OSM    H9S 9765   2.765   1.784   9.445 -2.2462 -2.5011 -1.1315
   98OSM    H9T 9766   2.711   1.949   9.490 -0.2041 -1.2617  3.0279
   98OSM   C10S 9767   2.618   1.878   9.311 -0.6960 -0.3850  0.5153
   98OSM   H10S 9768   2.704   1.914   9.251 -0.3854 -1.1848  0.4715
   98OSM   H10T 9769   2.545   1.961   9.323 -2.6817 -1.7998 -1.0911
   98OSM   C11S 9770   2.548   1.756   9.250 -0.1861 -0.5403  0.6403
   98OSM   H11S 9771   2.457   1.720   9.303 -1.5091 -0.3757 -1.3802
   98OSM   H11T 9772   2.618   1.670   9.239  0.6889  0.1147  0.9887
   98OSM   C12S 9773   2.510   1.776   9.103  0.5862  0.1162  0.2714
   98OSM   H12S 9774   2.594   1.804   9.036  1.5030 -0.3570  1.2144
   98OSM   H12T 9775   2.434   1.857   9.091  1.2152  0.8171  0.9323
   98OSM   C13S 9776   2.451   1.639   9.051  0.0137 -0.3229  0.4163
   98OSM   H13S 9777   2.365   1.628   9.121 -0.5655 -0.2066 -0.2576
   98OSM   H13T 9778   2.529   1.561   9.058  1.1512  0.8035  0.7071
   98OSM   C14S 9779   2.400   1.658   8.912 -0.2040  0.2983  0.3042
   98OSM   H14S 9780   2.478   1.680   8.836  0.2999 -2.5465 -0.1052
   98OSM   H14T 9781   2.333   1.747   8.918 -2.1151 -1.1834  2.6549
   98OSM   C15S 9782   2.322   1.541   8.852  0.8053  0.0396 -0.4419
   98OSM   H15S 9783   2.390   1.456   8.829 -1.0646 -1.5659 -0.3623
   98OSM   H15T 9784   2.271   1.576   8.759  0.7718 -0.4968 -0.6308
   98OSM   C16S 9785   2.207   1.494   8.949 -0.1717 -0.3236 -0.4000
   98OSM   H16S 9786   2.156   1.588   8.979 -0.9664 -0.9551  0.3044
   98OSM   H16T 9787   2.260   1.446   9.035  0.4887  1.9979  0.5615
   98OSM   C17S 9788   2.109   1.400   8.888 -0.1377  0.8762 -0.3119
   98OSM   H17S 9789   2.170   1.312   8.858 -1.1903 -0.3023  0.8531
   98OSM   H17T 9790   2.063   1.456   8.805 -0.5406 -1.6343 -1.9038
   98OSM   C18S 9791   1.992   1.364   8.981 -0.0392 -0.6481 -0.0214
   98OSM   H18S 9792   1.954   1.455   9.031 -0.5546 -1.3975  0.9846
   98OSM   H18T 9793   1.997   1.269   9.039 -1.1801 -0.8685 -0.2551
   98OSM   H18U 9794   1.904   1.326   8.923 -2.1053 -0.4652  2.7852
   98OSM    C1F 9795   2.410   1.674  10.213 -0.0297 -0.9407  0.3630
   98OSM     OF 9796   2.304   1.729  10.229  0.1715  0.2853 -0.1258
   98OSM    C2F 9797   2.426   1.525  10.221 -0.0411 -0.1833  0.2761
   98OSM    H2F 9798   2.378   1.494  10.317 -0.6971  2.2238  0.7891
   98OSM    H2G 9799   2.532   1.501  10.244 -0.3870 -1.1871  0.8711
   98OSM    C3F 9800   2.361   1.448  10.105 -0.2907 -0.2384 -0.1234
   98OSM    H3F 9801   2.250   1.437  10.110 -0.3541  0.2954 -0.2543
   98OSM    H3G 9802   2.386   1.341  10.119  0.8777  0.0261 -0.1154
   98OSM    C4F 9803   2.391   1.508   9.960 -0.3607  0.1242  0.5833
   98OSM    H4F 9804   2.501   1.496   9.953 -0.2682 -0.6345  2.6795
   98OSM    H4G 9805   2.359   1.614   9.959  1.0804  0.6466 -2.8085
   98OSM    C5F 9806   2.321   1.443   9.837 -0.5106 -0.3250 -0.7733
   98OSM    H5F 9807   2.216   1.475   9.852  0.3266  2.2572  0.0129
   98OSM    H5G 9808   2.339   1.333   9.838  1.4249 -0.0701 -2.0540
   98OSM    C6F 9809   2.361   1.494   9.702 -0.1948  0.2218  0.8279
   98OSM    H6F 9810   2.468   1.469   9.685  0.6043  2.3995  2.1498
   98OSM    H6G 9811   2.341   1.603   9.694 -1.8445 -0.1141  0.1057
   98OSM    C7F 9812   2.290   1.437   9.579 -0.2033  0.0414  0.1614
   98OSM    H7F 9813   2.183   1.461   9.592  0.3847  1.4957  3.1793
   98OSM    H7G 9814   2.307   1.328   9.583 -0.3693  0.0281  0.5214
   98OSM    C8F 9815   2.337   1.490   9.443 -0.7617  0.0784  1.2026
   98OSM    H8F 9816   2.444   1.467   9.424 -0.8238  0.4942  0.2744
   98OSM    H8G 9817   2.332   1.600   9.453 -0.7844  0.0268  1.7644
   98OSM    C9F 9818   2.256   1.435   9.325  0.1330 -0.1526 -1.0301
   98OSM    H9F 9819   2.157   1.483   9.317  0.1309  0.3859  1.5384
   98OSM   C10F 9820   2.276   1.311   9.268  0.1549 -0.5402 -0.0554
   98OSM   H10F 9821   2.214   1.279   9.183  0.3299 -1.7532  0.2633
   98OSM   C11F 9822   2.392   1.223   9.303 -0.9681 -0.1813 -0.1213
   98OSM   H11F 9823   2.371   1.114   9.295  0.2592 -0.3305 -2.4150
   98OSM   H11G 9824   2.413   1.244   9.410 -0.7466 -0.4981 -0.1019
   98OSM   C12F 9825   2.513   1.257   9.224  0.3895  0.1339  0.1422
   98OSM   H12F 9826   2.596   1.202   9.273 -0.3201 -0.0525  1.1502
   98OSM   H12G 9827   2.546   1.363   9.223  1.6713 -0.2472 -0.6185
   98OSM   C13F 9828   2.510   1.207   9.079 -1.0831  0.0800 -0.1468
   98OSM   H13F 9829   2.408   1.220   9.037 -1.3758 -0.1687  0.4794
   98OSM   H13G 9830   2.543   1.102   9.073  0.7372  0.6278 -0.1756
   98OSM   C14F 9831   2.613   1.281   8.991 -0.2982  0.2614  0.5249
   98OSM   H14F 9832   2.710   1.278   9.045  0.8330 -0.0024 -1.4497
   98OSM   H14G 9833   2.579   1.387   8.989 -0.4466  0.2090 -1.2302
   98OSM   C15F 9834   2.620   1.231   8.848  0.0678 -0.4293  0.2720
   98OSM   H15F 9835   2.519   1.263   8.815 -0.1834 -0.9487  0.5217
   98OSM   H15G 9836   2.622   1.120   8.844  1.1336 -0.3824 -2.8847
   98OSM   C16F 9837   2.724   1.285   8.759 -0.8013  0.1564  0.1436
   98OSM   H16F 9838   2.818   1.249   8.807 -0.7885 -0.6321 -0.4700
   98OSM   H16G 9839   2.739   1.395   8.748  2.0618 -0.0656  0.9719
   98OSM   C17F 9840   2.720   1.222   8.611  0.2017  0.6040  0.4835
   98OSM   H17F 9841   2.618   1.217   8.567  0.7937  0.3153 -0.9235
   98OSM   H17G 9842   2.744   1.115   8.629 -1.0407  0.1611 -0.3581
   98OSM   C18F 9843   2.815   1.280   8.496 -0.1103  0.3526 -0.3743
   98OSM   H18F 9844   2.805   1.228   8.399  0.2222  0.9264 -0.7252
   98OSM   H18G 9845   2.924   1.262   8.513 -0.4199 -0.1049  1.3045
   98OSM   H18H 9846   2.800   1.390   8.485 -2.0198  0.0883 -0.6667
   99OSM      N 9847   5.624   6.673  10.616 -0.5238 -0.3829 -0.3859
   99OSM    C15 9848   5.560   6.664  10.478 -0.6983 -0.2765  0.1353
   99OSM   H15A 9849   5.466   6.717  10.486 -0.5168 -0.0460  0.8301
   99OSM   H15B 9850   5.538   6.562  10.453  0.3747 -0.7318  0.9873
   99OSM   H15C 9851   5.628   6.703  10.403  1.0931 -4.7400 -0.8480
   99OSM    C14 9852   5.526   6.618  10.721  0.7542 -0.7134  0.3774
   99OSM   H14A 9853   5.435   6.675  10.718  0.5426 -0.8971  2.2079
   99OSM   H14B 9854   5.563   6.638  10.820 -0.1216  0.4905  0.4710
   99OSM   H14C 9855   5.510   6.512  10.701 -1.8070 -0.3644  0.2558
   99OSM    C13 9856   5.755   6.600  10.627  0.2664  0.3056 -0.5739
   99OSM   H13A 9857   5.743   6.493  10.617 -2.1247  0.3260  1.1579
   99OSM   H13B 9858   5.793   6.596  10.728  0.2695 -1.0114 -0.6097
   99OSM   H13C 9859   5.829   6.656  10.572  0.8790 -0.7215 -0.8095
   99OSM    C12 9860   5.648   6.824  10.644  0.1452  0.4915 -0.0888
   99OSM   H12A 9861   5.709   6.829  10.733 -1.3413  0.6905  0.9692
   99OSM   H12B 9862   5.552   6.868  10.668  0.3920  1.4161 -0.7668
   99OSM    C11 9863   5.713   6.910  10.530  0.3112 -0.3091 -0.0784
   99OSM   H11A 9864   5.706   7.017  10.558  1.1862 -0.8532  2.5397
   99OSM   H11B 9865   5.651   6.902  10.439  0.0363  0.5725  0.0218
   99OSM      P 9866   5.963   6.928  10.606  0.4796  0.0283  0.2920
   99OSM    O13 9867   5.918   6.911  10.749  0.2872  0.3735 -0.6345
   99OSM    O14 9868   6.097   6.877  10.566 -0.0380  0.1869  0.5824
   99OSM    O11 9869   5.958   7.083  10.578  0.5387  0.7944  0.6767
   99OSM    O12 9870   5.853   6.870  10.506 -0.3257 -0.5161  0.1470
   99OSM    C1S 9871   6.002   7.131  10.448  0.3779 -0.0976 -0.0981
   99OSM    H1S 9872   6.089   7.071  10.412  0.1404 -0.2640 -0.3977
   99OSM    H1T 9873   6.033   7.237  10.455 -0.7066  0.3416 -1.5181
   99OSM     NF 9874   5.976   7.164  10.206 -0.4480  0.2327  0.4950
   99OSM    HNF 9875   6.004   7.257  10.184  0.8406 -0.4752 -1.1297
   99OSM    C2S 9876   5.894   7.139  10.329 -0.1080  0.4034 -0.7466
   99OSM    H2S 9877   5.840   7.044  10.311 -0.1622  0.4259 -0.7024
   99OSM    C3S 9878   5.797   7.249  10.352  0.0920 -1.0207 -0.9686
   99OSM    H3S 9879   5.847   7.347  10.342  0.1992 -0.7034  1.9675
   99OSM     O3 9880   5.733   7.257  10.482 -0.5198  0.2633  0.4362
   99OSM    HO3 9881   5.802   7.218  10.536  0.3499  1.4382  0.2268
   99OSM    C4S 9882   5.687   7.246  10.249  0.2123 -0.2442  0.0055
   99OSM    H4S 9883   5.595   7.194  10.279  0.5313 -0.2291  1.0227
   99OSM    C5S 9884   5.702   7.318  10.130 -0.1823  0.5983 -0.4110
   99OSM    H5S 9885   5.791   7.380  10.110 -0.3085  0.6063 -0.9609
   99OSM    C6S 9886   5.587   7.310  10.032 -0.5451  0.2847  0.1339
   99OSM    H6S 9887   5.548   7.412  10.009  0.9190  0.7161 -0.5595
   99OSM    H6T 9888   5.498   7.255  10.070 -0.1051  1.1529  2.5984
   99OSM    C7S 9889   5.630   7.255   9.897  0.0334  0.2000 -0.6687
   99OSM    H7S 9890   5.539   7.257   9.834 -1.2022 -1.1066  0.9826
   99OSM    H7T 9891   5.672   7.153   9.914  2.4120  1.2952  0.6228
   99OSM    C8S 9892   5.723   7.356   9.842  0.4752 -0.1823 -0.0963
   99OSM    H8S 9893   5.821   7.341   9.892  0.8651 -0.0175 -0.7907
   99OSM    H8T 9894   5.685   7.460   9.854  0.9453 -0.2942  3.8452
   99OSM    C9S 9895   5.758   7.327   9.693 -0.0528  0.0193  0.3428
   99OSM    H9S 9896   5.791   7.221   9.694 -1.1473 -0.3294  1.0947
   99OSM    H9T 9897   5.834   7.406   9.674 -0.1890  0.7507  2.6042
   99OSM   C10S 9898   5.638   7.323   9.593 -0.4882  0.5477 -0.5301
   99OSM   H10S 9899   5.601   7.427   9.587  0.5407  0.9152 -0.7817
   99OSM   H10T 9900   5.564   7.256   9.641  1.7871 -2.0219 -0.3391
   99OSM   C11S 9901   5.681   7.293   9.446 -0.6996  0.1572 -0.4825
   99OSM   H11S 9902   5.720   7.189   9.442  0.8928  0.7058  0.0234
   99OSM   H11T 9903   5.765   7.358   9.414 -0.7985 -0.9346 -3.1370
   99OSM   C12S 9904   5.560   7.315   9.353  0.8499  0.0822 -0.5050
   99OSM   H12S 9905   5.497   7.224   9.365 -0.4507  0.9712 -0.4410
   99OSM   H12T 9906   5.498   7.398   9.391 -2.2345 -2.1310 -0.3113
   99OSM   C13S 9907   5.610   7.336   9.206 -0.5640 -0.8115  0.0539
   99OSM   H13S 9908   5.707   7.286   9.183  0.2342  1.0256 -0.7367
   99OSM   H13T 9909   5.621   7.445   9.191 -0.9814 -0.7741  0.0108
   99OSM   C14S 9910   5.515   7.297   9.100 -0.7309  0.2510 -0.0318
   99OSM   H14S 9911   5.406   7.311   9.117 -0.6846  2.6549 -1.3310
   99OSM   H14T 9912   5.533   7.190   9.074  1.1697  1.1695 -2.9886
   99OSM   C15S 9913   5.530   7.385   8.973 -0.0945  0.0018  0.0911
   99OSM   H15S 9914   5.636   7.376   8.943 -0.8849 -2.3573 -2.4683
   99OSM   H15T 9915   5.507   7.492   8.995  2.0887  0.8201 -1.2998
   99OSM   C16S 9916   5.439   7.327   8.863 -0.4554 -0.4231  1.3965
   99OSM   H16S 9917   5.332   7.323   8.896 -0.9483  1.9353  0.3455
   99OSM   H16T 9918   5.464   7.221   8.844 -2.1289 -0.8279  1.2790
   99OSM   C17S 9919   5.442   7.407   8.731 -0.2222 -0.1109  0.1222
   99OSM   H17S 9920   5.412   7.342   8.646  0.5130  0.0441 -0.2616
   99OSM   H17T 9921   5.542   7.453   8.716 -1.1108  1.7433 -0.3526
   99OSM   C18S 9922   5.345   7.516   8.737 -0.0223  0.2822 -0.4760
   99OSM   H18S 9923   5.341   7.580   8.646  1.2241  0.7284 -0.2489
   99OSM   H18T 9924   5.365   7.583   8.824 -0.1173  1.3335 -1.2435
   99OSM   H18U 9925   5.243   7.479   8.758 -0.2026 -0.0553 -1.8679
   99OSM    C1F 9926   6.051   7.060  10.161 -0.0688  0.4703  0.3163
   99OSM     OF 9927   6.027   6.952  10.203  0.2706 -0.2427 -0.4881
   99OSM    C2F 9928   6.169   7.094  10.077  0.3670 -0.0537  1.0387
   99OSM    H2F 9929   6.254   7.069  10.145  1.8113 -2.8117 -1.5516
   99OSM    H2G 9930   6.159   7.203  10.059 -0.0770 -0.3326 -0.4827
   99OSM    C3F 9931   6.180   7.000   9.952  0.7639  0.0801  0.5265
   99OSM    H3F 9932   6.273   7.018   9.893 -0.6459 -0.8654 -2.1612
   99OSM    H3G 9933   6.167   6.891   9.971 -1.1714  0.1820 -0.0825
   99OSM    C4F 9934   6.068   7.042   9.844  0.3169 -0.6896  0.6522
   99OSM    H4F 9935   6.098   7.143   9.808  1.0917 -1.4691 -1.0393
   99OSM    H4G 9936   5.970   7.060   9.893  0.3559  0.9951  0.1829
   99OSM    C5F 9937   6.064   6.952   9.723 -0.5752  0.4765 -0.6368
   99OSM    H5F 9938   6.039   6.850   9.761 -1.4898  1.1166  0.5842
   99OSM    H5G 9939   6.162   6.961   9.673 -0.2611  0.0395 -0.1163
   99OSM    C6F 9940   5.953   6.999   9.625 -0.0983  0.2567 -0.1858
   99OSM    H6F 9941   5.991   7.096   9.586 -0.9926  0.3599 -0.8237
   99OSM    H6G 9942   5.854   7.008   9.674 -0.3590 -0.0256 -0.6572
   99OSM    C7F 9943   5.956   6.912   9.508 -0.0969  0.2381 -0.1391
   99OSM    H7F 9944   5.928   6.809   9.539  0.0770  0.4847  0.8634
   99OSM    H7G 9945   6.060   6.904   9.472 -0.6109 -1.5077 -1.3920
   99OSM    C8F 9946   5.877   6.946   9.378 -0.0417  0.4780 -0.1710
   99OSM    H8F 9947   5.769   6.952   9.403  0.2617  1.2495  1.0562
   99OSM    H8G 9948   5.894   6.856   9.316  1.0353  0.6676 -0.1775
   99OSM    C9F 9949   5.931   7.074   9.312 -0.2873  0.3508  0.3255
   99OSM    H9F 9950   5.923   7.169   9.366 -0.1046  1.2973 -1.2522
   99OSM   C10F 9951   5.981   7.081   9.190  0.3140 -0.1085  0.2210
   99OSM   H10F 9952   6.013   7.180   9.153 -0.1788 -0.1618 -0.3616
   99OSM   C11F 9953   6.005   6.970   9.101  1.0908  0.0744 -0.2251
   99OSM   H11F 9954   6.046   6.887   9.162 -0.1875 -0.9326 -0.6863
   99OSM   H11G 9955   6.081   7.001   9.026 -0.5063  3.3436 -0.6507
   99OSM   C12F 9956   5.883   6.918   9.021 -0.6836 -0.0211 -0.8109
   99OSM   H12F 9957   5.826   6.871   9.104 -0.2501 -0.8753 -0.9851
   99OSM   H12G 9958   5.907   6.833   8.954 -0.7630 -1.7573  1.2313
   99OSM   C13F 9959   5.804   7.030   8.948  0.1849 -0.0808  0.5526
   99OSM   H13F 9960   5.766   7.118   9.004 -0.9185 -0.7737  0.9191
   99OSM   H13G 9961   5.713   6.976   8.914  1.4392 -1.4729 -0.7264
   99OSM   C14F 9962   5.880   7.087   8.820  0.6803 -0.2911  0.6177
   99OSM   H14F 9963   5.923   6.999   8.768  0.2132 -1.2220  1.7835
   99OSM   H14G 9964   5.969   7.148   8.847  2.6392 -1.8385 -1.8702
   99OSM   C15F 9965   5.789   7.177   8.728 -0.3521  0.5871  0.6235
   99OSM   H15F 9966   5.755   7.266   8.785  2.7407  1.8449  0.7102
   99OSM   H15G 9967   5.705   7.120   8.682 -0.1186  1.8682 -1.5764
   99OSM   C16F 9968   5.866   7.223   8.610 -0.0665  0.4275  0.5045
   99OSM   H16F 9969   5.903   7.133   8.556 -0.0178  0.2258  0.8700
   99OSM   H16G 9970   5.959   7.275   8.642  0.2836  0.8123 -1.0290
   99OSM   C17F 9971   5.785   7.320   8.514  0.2233  1.4450 -0.2156
   99OSM   H17F 9972   5.868   7.375   8.465  0.8432  2.6058  1.9925
   99OSM   H17G 9973   5.726   7.392   8.575 -1.2851  0.4578 -0.4536
   99OSM   C18F 9974   5.702   7.243   8.408 -0.4881  0.1886 -0.1839
   99OSM   H18F 9975   5.606   7.298   8.401 -1.2129 -0.4971  2.9111
   99OSM   H18G 9976   5.687   7.139   8.445  1.9416  0.1192  0.7758
   99OSM   H18H 9977   5.761   7.234   8.314 -0.3791 -0.6851 -0.0384
  100OSM      N 9978   0.460   1.238  10.957  0.2268  0.3260 -0.5437
  100OSM    C15 9979   0.604   1.277  10.994  0.3062 -0.3175  0.0993
  100OSM   H15A 9980   0.609   1.293  11.101  1.2259  0.8995 -0.1002
  100OSM   H15B 9981   0.635   1.366  10.941  1.3541 -0.7156  0.0372
  100OSM   H15C 9982   0.671   1.196  10.973 -2.0581 -2.7689  1.3787
  100OSM    C14 9983   0.427   1.122  11.052 -0.2866 -0.1551 -0.1162
  100OSM   H14A 9984   0.451   1.152  11.153  2.1734 -2.4819  0.1157
  100OSM   H14B 9985   0.481   1.037  11.013  1.5972  0.5445  0.8258
  100OSM   H14C 9986   0.325   1.086  11.050 -0.6474  0.3267  3.3738
  100OSM    C13 9987   0.367   1.348  10.989 -0.4518  0.2085  0.1932
  100OSM   H13A 9988   0.368   1.431  10.920  0.1440  0.1583  0.1371
  100OSM   H13B 9989   0.396   1.391  11.084 -3.6496  0.4863  1.1583
  100OSM   H13C 9990   0.263   1.319  10.994 -0.1904 -1.3863 -2.3283
  100OSM    C12 9991   0.450   1.207  10.811  0.1213 -0.2558 -0.7590
  100OSM   H12A 9992   0.344   1.195  10.792 -0.0402  1.4003 -1.0880
  100OSM   H12B 9993   0.497   1.112  10.793 -1.1444 -1.2520  0.9117
  100OSM    C11 9994   0.496   1.314  10.721  0.5791  0.3173  0.1829
  100OSM   H11A 9995   0.483   1.285  10.614  0.5771  2.0018 -0.3059
  100OSM   H11B 9996   0.607   1.324  10.725  0.7495 -1.6781  2.2236
  100OSM      P 9997   0.491   1.577  10.681  0.1552  0.0844 -0.1894
  100OSM    O13 9998   0.381   1.664  10.636 -0.3576 -0.2489  0.3804
  100OSM    O14 9999   0.594   1.632  10.773  0.2723  0.7973 -0.2205
  100OSM    O1110000   0.581   1.542  10.560  0.1590  0.7285  0.0344
  100OSM    O1210001   0.427   1.439  10.739  0.0637  0.3284  0.2319
  100OSM    C1S10002   0.522   1.523  10.426  0.2426 -0.3776 -0.1734
  100OSM    H1S10003   0.456   1.608  10.399 -0.0197 -0.2403  0.8523
  100OSM    H1T10004   0.467   1.427  10.428  0.2222 -0.3790 -0.5939
  100OSM     NF10005   0.568   1.514  10.183 -0.0894  0.3104  1.1223
  100OSM    HNF10006   0.571   1.432  10.127  1.0350  0.9125  0.2488
  100OSM    C2S10007   0.628   1.507  10.315  0.3967  0.1422  0.3292
  100OSM    H2S10008   0.705   1.586  10.332  0.8584 -0.3253  0.4201
  100OSM    C3S10009   0.708   1.378  10.325  0.6696  0.8276 -0.8395
  100OSM    H3S10010   0.637   1.296  10.300 -0.3127  1.2237  0.4943
  100OSM     O310011   0.742   1.344  10.464  0.1016  0.0585  0.0812
  100OSM    HO310012   0.712   1.424  10.509  1.6353  1.1886 -0.7980
  100OSM    C4S10013   0.827   1.371  10.230  0.8238  0.5634  0.3180
  100OSM    H4S10014   0.800   1.345  10.127 -0.7667  0.8276  0.6550
  100OSM    C5S10015   0.957   1.394  10.241  0.0072  0.5087  0.1652
  100OSM    H5S10016   0.999   1.391  10.343  2.0478 -1.3945 -0.6387
  100OSM    C6S10017   1.063   1.371  10.129  0.5792  0.3234 -0.3785
  100OSM    H6S10018   1.131   1.292  10.167  0.1964 -0.0387 -0.4422
  100OSM    H6T10019   1.110   1.472  10.126  2.5763 -0.4823  1.4163
  100OSM    C7S10020   1.021   1.328   9.984 -0.1042 -0.0264 -0.1567
  100OSM    H7S10021   0.947   1.397   9.938  0.1329  0.1575 -0.2684
  100OSM    H7T10022   0.978   1.227   9.970 -2.3016  0.8804 -0.3556
  100OSM    C8S10023   1.146   1.346   9.893 -0.7120 -0.1416 -0.1691
  100OSM    H8S10024   1.229   1.272   9.904 -1.2332 -0.5482  1.2090
  100OSM    H8T10025   1.181   1.449   9.916  2.1402 -0.9728 -0.3633
  100OSM    C9S10026   1.111   1.347   9.738 -0.1326 -0.1555 -0.1102
  100OSM    H9S10027   1.023   1.414   9.728  0.5022  0.5778 -0.9779
  100OSM    H9T10028   1.068   1.247   9.714 -3.0329  0.7305  0.8901
  100OSM   C10S10029   1.230   1.399   9.644  0.4083  0.3221  0.0242
  100OSM   H10S10030   1.321   1.351   9.685  0.9111  1.5155  0.3579
  100OSM   H10T10031   1.245   1.508   9.658  0.4865  0.2293  0.6771
  100OSM   C11S10032   1.219   1.368   9.491  0.0747  0.2292 -0.1963
  100OSM   H11S10033   1.133   1.423   9.448  0.9603  1.8099 -0.0365
  100OSM   H11T10034   1.195   1.262   9.467 -0.9863  0.6898 -1.2651
  100OSM   C12S10035   1.343   1.413   9.424  0.2830 -0.4912 -0.0641
  100OSM   H12S10036   1.424   1.346   9.462  0.7739  0.8783  1.4358
  100OSM   H12T10037   1.362   1.517   9.460  0.2927  0.3738 -2.4159
  100OSM   C13S10038   1.342   1.403   9.270  0.0003  0.1406 -0.4152
  100OSM   H13S10039   1.274   1.485   9.239  0.7247  0.1086 -2.2350
  100OSM   H13T10040   1.300   1.305   9.237 -0.1620  0.4212 -1.0654
  100OSM   C14S10041   1.486   1.412   9.210  0.2596 -0.2422  0.0166
  100OSM   H14S10042   1.540   1.321   9.242  2.1173  1.0836  0.9064
  100OSM   H14T10043   1.529   1.499   9.266  0.6994 -1.5002  1.7029
  100OSM   C15S10044   1.485   1.441   9.060 -0.1461  0.0636  0.0179
  100OSM   H15S10045   1.562   1.516   9.032  1.3240 -2.0100 -1.8672
  100OSM   H15T10046   1.389   1.493   9.040  0.3012  0.6826 -0.5488
  100OSM   C16S10047   1.492   1.321   8.967 -0.3406  0.9124  1.4556
  100OSM   H16S10048   1.404   1.258   8.992  0.0875 -0.4020 -0.1675
  100OSM   H16T10049   1.582   1.260   8.989  0.0953 -1.1866 -4.4221
  100OSM   C17S10050   1.484   1.359   8.816  0.2349 -0.2727 -0.2027
  100OSM   H17S10051   1.584   1.406   8.802 -0.4672  1.6256  0.6870
  100OSM   H17T10052   1.409   1.437   8.790  2.3794  1.6203 -1.0954
  100OSM   C18S10053   1.461   1.248   8.721 -0.0222  0.3848 -0.2674
  100OSM   H18S10054   1.488   1.276   8.617  1.2982  2.0147  0.4819
  100OSM   H18T10055   1.356   1.211   8.713  0.2568 -0.9710  1.6260
  100OSM   H18U10056   1.520   1.160   8.754 -2.1901 -0.3549  1.9720
  100OSM    C1F10057   0.501   1.615  10.128 -0.3413 -0.0779 -0.3552
  100OSM     OF10058   0.503   1.723  10.189  0.9241  0.2928 -0.1371
  100OSM    C2F10059   0.441   1.586  10.000 -0.2904 -0.6693 -0.7015
  100OSM    H2F10060   0.365   1.506  10.016 -0.3508 -0.6995 -1.1156
  100OSM    H2G10061   0.520   1.551   9.930 -1.3937 -0.7001 -1.9795
  100OSM    C3F10062   0.376   1.716   9.940  0.0253  0.3915  0.0412
  100OSM    H3F10063   0.449   1.798   9.929  2.2368 -1.5926 -0.8563
  100OSM    H3G10064   0.291   1.747  10.005 -0.7690 -3.0060  0.8236
  100OSM    C4F10065   0.320   1.703   9.793  0.5732  0.8353 -0.1237
  100OSM    H4F10066   0.300   1.796   9.736 -1.0197  0.4882 -0.1839
  100OSM    H4G10067   0.219   1.657   9.791 -1.1383  4.2007 -2.7287
  100OSM    C5F10068   0.409   1.604   9.704 -0.2984 -0.4125 -0.3525
  100OSM    H5F10069   0.417   1.497   9.733 -0.2853 -0.3854 -0.2580
  100OSM    H5G10070   0.513   1.641   9.715  0.5795 -2.8157  0.1136
  100OSM    C6F10071   0.357   1.616   9.569 -0.4495  0.6343  0.0338
  100OSM    H6F10072   0.386   1.714   9.525  1.6758 -1.0185 -2.5739
  100OSM    H6G10073   0.251   1.588   9.556 -0.0922 -0.2018 -1.2256
  100OSM    C7F10074   0.423   1.517   9.471 -0.0913  0.1878  1.1012
  100OSM    H7F10075   0.400   1.411   9.499 -2.9488  0.2305 -0.6887
  100OSM    H7G10076   0.532   1.531   9.488  0.2277  1.3534 -1.4594
  100OSM    C8F10077   0.379   1.525   9.320 -0.0609 -0.1419 -0.1816
  100OSM    H8F10078   0.269   1.533   9.307  0.0540  0.7346 -0.6713
  100OSM    H8G10079   0.410   1.431   9.269 -1.2886 -1.3244  1.1643
  100OSM    C9F10080   0.444   1.639   9.247 -0.6272 -0.5933 -0.0525
  100OSM    H9F10081   0.430   1.729   9.310 -0.3492 -0.8258  0.3483
  100OSM   C10F10082   0.492   1.652   9.128  0.0287 -0.4596  0.4393
  100OSM   H10F10083   0.538   1.751   9.115  0.1284 -0.5634 -0.0018
  100OSM   C11F10084   0.496   1.536   9.022 -0.8565  0.4297 -0.0912
  100OSM   H11F10085   0.478   1.440   9.075 -0.9581  0.9022  0.7535
  100OSM   H11G10086   0.596   1.524   8.974  1.1666 -1.2292  3.9747
  100OSM   C12F10087   0.377   1.544   8.927 -0.4927 -0.0892  0.3431
  100OSM   H12F10088   0.284   1.526   8.985 -0.3066 -0.0600  0.6525
  100OSM   H12G10089   0.377   1.456   8.860 -2.1692  0.1110  0.0301
  100OSM   C13F10090   0.368   1.668   8.839 -0.1719 -0.2926  0.3035
  100OSM   H13F10091   0.405   1.757   8.895 -0.0641  1.9774 -3.0853
  100OSM   H13G10092   0.262   1.690   8.816 -0.4197 -0.0936  1.5845
  100OSM   C14F10093   0.447   1.655   8.710  0.3411  0.0084 -0.6715
  100OSM   H14F10094   0.426   1.551   8.679  2.1158 -1.1702  1.7245
  100OSM   H14G10095   0.556   1.654   8.732  0.6341 -0.8789 -2.0379
  100OSM   C15F10096   0.392   1.761   8.613  0.2964  0.0773 -0.9000
  100OSM   H15F10097   0.420   1.856   8.663 -1.2509  2.0033 -3.4219
  100OSM   H15G10098   0.282   1.752   8.603  0.3572  0.4187 -2.0560
  100OSM   C16F10099   0.454   1.757   8.470  0.3089 -0.1007 -0.0409
  100OSM   H16F10100   0.564   1.765   8.482  0.2039  0.8463  0.3203
  100OSM   H16G10101   0.437   1.855   8.422  2.8603  1.4176  1.9183
  100OSM   C17F10102   0.413   1.645   8.376  0.1231  0.4081  0.6320
  100OSM   H17F10103   0.424   1.545   8.424  0.1314  0.8715  1.6116
  100OSM   H17G10104   0.509   1.647   8.321 -0.4577 -0.0216 -0.4304
  100OSM   C18F10105   0.293   1.671   8.279  0.2344  0.1339 -0.0152
  100OSM   H18F10106   0.278   1.595   8.199  0.6755  1.6110 -1.5684
  100OSM   H18G10107   0.313   1.770   8.231  1.2773 -0.3258 -0.5513
  100OSM   H18H10108   0.195   1.677   8.330 -0.1886 -3.5499 -0.1546
  101OSM      N10109   3.028   1.404  10.973 -0.1936  0.6014  0.4183
  101OSM    C1510110   2.987   1.282  11.044 -0.5373 -0.3062  0.9072
  101OSM   H15A10111   3.043   1.196  11.012 -0.2743 -0.5846  2.0571
  101OSM   H15B10112   2.885   1.266  11.012  0.0561  0.4453 -1.5901
  101OSM   H15C10113   3.003   1.287  11.151 -0.4535  0.6167  0.8627
  101OSM    C1410114   2.950   1.523  11.012  0.2074  0.0935 -0.1954
  101OSM   H14A10115   2.971   1.607  10.946  1.9298 -0.8471 -0.8963
  101OSM   H14B10116   2.959   1.547  11.117  2.5552  0.3514 -0.4165
  101OSM   H14C10117   2.844   1.510  10.997  0.3962 -0.9199 -0.7214
  101OSM    C1310118   3.171   1.423  11.012 -0.4408  0.0630  0.0734
  101OSM   H13A10119   3.203   1.500  10.943  0.8045 -1.3491 -0.9755
  101OSM   H13B10120   3.238   1.342  10.989 -0.3854  0.8308 -3.0455
  101OSM   H13C10121   3.179   1.461  11.112  0.4671 -2.7211  1.1358
  101OSM    C1210122   3.011   1.374  10.830 -0.0049  0.0271 -0.2318
  101OSM   H12A10123   2.907   1.371  10.804  0.4456 -1.3617 -2.0579
  101OSM   H12B10124   3.049   1.275  10.810  0.1641  0.3280 -1.4602
  101OSM    C1110125   3.079   1.480  10.739 -0.5138 -0.0809 -0.6871
  101OSM   H11A10126   3.069   1.436  10.638 -2.1723 -2.1310  0.3004
  101OSM   H11B10127   3.188   1.483  10.759 -1.0059  2.5478  2.4688
  101OSM      P10128   2.877   1.631  10.680  0.0264  0.3946  0.4929
  101OSM    O1310129   2.795   1.518  10.725  0.8990 -0.5124  0.0175
  101OSM    O1410130   2.829   1.766  10.714  0.7157 -0.4796 -0.5501
  101OSM    O1110131   2.896   1.615  10.523  0.0478  0.1326  0.3294
  101OSM    O1210132   3.021   1.610  10.732  0.1006 -0.6049 -0.2728
  101OSM    C1S10133   3.002   1.683  10.450 -0.6251 -0.4033 -0.1758
  101OSM    H1S10134   3.090   1.697  10.516 -1.6411 -0.0869  1.1462
  101OSM    H1T10135   2.969   1.787  10.428 -1.2815 -0.3688  0.8900
  101OSM     NF10136   3.171   1.674  10.262  0.1677 -0.1257 -0.2303
  101OSM    HNF10137   3.165   1.757  10.206 -3.7048 -0.4747 -0.6186
  101OSM    C2S10138   3.042   1.629  10.311 -1.0589 -0.3242 -0.2596
  101OSM    H2S10139   3.053   1.519  10.318  1.2518 -0.1036  0.7289
  101OSM    C3S10140   2.923   1.661  10.209 -0.4931 -0.0877  0.0183
  101OSM    H3S10141   2.904   1.770  10.201 -1.6346 -0.1940  0.9160
  101OSM     O310142   2.797   1.605  10.247  0.6083 -0.4763  0.3241
  101OSM    HO310143   2.800   1.591  10.342 -2.8058  1.8468  0.9522
  101OSM    C4S10144   2.949   1.598  10.074 -0.1595 -0.0904 -0.6398
  101OSM    H4S10145   2.944   1.488  10.080 -1.6031  0.0254  1.7284
  101OSM    C5S10146   2.985   1.663   9.961  0.2741  0.6944 -0.1211
  101OSM    H5S10147   2.997   1.772   9.955 -4.5338  1.4366 -0.3872
  101OSM    C6S10148   3.020   1.600   9.831  1.0646  0.6027  0.0946
  101OSM    H6S10149   2.988   1.666   9.747 -0.2004 -0.1002 -0.0020
  101OSM    H6T10150   2.959   1.510   9.807  2.5934 -0.6062  0.5552
  101OSM    C7S10151   3.165   1.561   9.825  0.4483 -0.7316  0.4510
  101OSM    H7S10152   3.189   1.520   9.925 -2.0123 -1.6777  0.7386
  101OSM    H7T10153   3.213   1.659   9.805 -1.7829  0.2108 -0.7494
  101OSM    C8S10154   3.210   1.454   9.726  0.1035  0.1843 -0.1280
  101OSM    H8S10155   3.129   1.379   9.715  0.0514  0.3071 -0.5790
  101OSM    H8T10156   3.301   1.399   9.758 -0.4260 -0.6231  0.0366
  101OSM    C9S10157   3.244   1.511   9.585  0.1966  0.0353  0.2300
  101OSM    H9S10158   3.327   1.585   9.592  0.0116  0.3594 -0.7562
  101OSM    H9T10159   3.161   1.565   9.534  1.6571  0.0593 -2.2637
  101OSM   C10S10160   3.306   1.397   9.496  0.4122  0.6440  0.1671
  101OSM   H10S10161   3.234   1.315   9.475  2.1237 -1.6016  2.4928
  101OSM   H10T10162   3.394   1.355   9.549  0.9241  0.1153 -1.0721
  101OSM   C11S10163   3.352   1.450   9.360  0.2155 -0.1482  0.2427
  101OSM   H11S10164   3.428   1.530   9.370 -1.2859  1.3310  0.3081
  101OSM   H11T10165   3.259   1.507   9.335  1.3342  1.3475 -0.7212
  101OSM   C12S10166   3.380   1.335   9.263 -1.0620  0.0452  0.8023
  101OSM   H12S10167   3.311   1.249   9.274 -2.3711  0.8641 -0.6427
  101OSM   H12T10168   3.475   1.293   9.304 -0.7136  0.8302  0.8273
  101OSM   C13S10169   3.384   1.374   9.119  1.0760  0.5851 -0.0001
  101OSM   H13S10170   3.300   1.444   9.101  0.0518 -0.0838  1.8812
  101OSM   H13T10171   3.386   1.289   9.048  2.9156 -0.1479  0.8701
  101OSM   C14S10172   3.511   1.450   9.079 -0.3188  0.1109 -0.1374
  101OSM   H14S10173   3.601   1.405   9.124 -0.3429 -1.5754 -1.6418
  101OSM   H14T10174   3.511   1.558   9.103  3.7153  0.8337 -2.4310
  101OSM   C15S10175   3.532   1.439   8.928  0.3246 -0.5447  0.2466
  101OSM   H15S10176   3.440   1.473   8.876  1.0901 -2.0249 -2.2641
  101OSM   H15T10177   3.549   1.331   8.907  1.3109 -0.7173  1.7849
  101OSM   C16S10178   3.641   1.513   8.865 -1.1862 -0.2720 -0.8412
  101OSM   H16S10179   3.732   1.460   8.903 -0.4265  0.4973 -1.5488
  101OSM   H16T10180   3.648   1.615   8.908 -0.2419 -0.2959 -0.9095
  101OSM   C17S10181   3.640   1.520   8.715  0.1659 -0.6963 -0.3844
  101OSM   H17S10182   3.557   1.585   8.679 -2.2074 -1.9775  2.3375
  101OSM   H17T10183   3.618   1.415   8.687 -1.0149 -1.0304  1.5291
  101OSM   C18S10184   3.773   1.564   8.650 -0.2279  0.0336  0.4736
  101OSM   H18S10185   3.827   1.655   8.683  1.2150 -0.3940 -0.6287
  101OSM   H18T10186   3.754   1.569   8.541 -2.8637 -2.7646  0.6641
  101OSM   H18U10187   3.851   1.486   8.666 -0.7750 -0.7806 -0.6567
  101OSM    C1F10188   3.282   1.626  10.302  0.3621  0.2345  0.1677
  101OSM     OF10189   3.282   1.529  10.380 -0.4326 -0.8669 -0.3607
  101OSM    C2F10190   3.406   1.701  10.263 -0.9471 -0.6716 -0.1450
  101OSM    H2F10191   3.404   1.781  10.339 -0.0726  0.0018 -0.8143
  101OSM    H2G10192   3.388   1.744  10.162 -1.8096  0.4295  0.4560
  101OSM    C3F10193   3.534   1.612  10.271 -0.3394  0.4298 -0.0362
  101OSM    H3F10194   3.529   1.559  10.369  1.3099  0.6317  0.1977
  101OSM    H3G10195   3.625   1.675  10.282  0.6794 -0.9771 -0.1018
  101OSM    C4F10196   3.526   1.509  10.153  0.0531 -0.1737  0.3830
  101OSM    H4F10197   3.428   1.456  10.152  0.2096 -0.4850  1.1584
  101OSM    H4G10198   3.610   1.439  10.175  0.1819  0.1804  1.0405
  101OSM    C5F10199   3.559   1.568  10.011 -0.1198 -0.1213  0.1034
  101OSM    H5F10200   3.659   1.616  10.005  0.6803 -1.8834 -3.2778
  101OSM    H5G10201   3.483   1.641   9.976 -1.4984 -2.4096 -1.9044
  101OSM    C6F10202   3.559   1.468   9.895 -0.3158  0.0152 -0.1120
  101OSM    H6F10203   3.630   1.390   9.930  1.1924  1.3646 -0.0118
  101OSM    H6G10204   3.454   1.436   9.876 -0.3756  0.4283 -0.5038
  101OSM    C7F10205   3.619   1.521   9.763  0.3253 -0.7999 -0.1960
  101OSM    H7F10206   3.698   1.598   9.771 -1.3855  1.3813 -2.4856
  101OSM    H7G10207   3.546   1.585   9.709  0.3664  0.3968  1.1206
  101OSM    C8F10208   3.659   1.404   9.668  0.1581  0.4425 -0.0794
  101OSM    H8F10209   3.667   1.454   9.569  1.2067  2.6163  1.0466
  101OSM    H8G10210   3.568   1.340   9.668  0.3066  0.2245 -0.6360
  101OSM    C9F10211   3.780   1.326   9.707  0.0433 -0.0425  0.2014
  101OSM    H9F10212   3.781   1.293   9.812 -1.4706 -0.3314  0.1374
  101OSM   C10F10213   3.881   1.295   9.624 -0.0403  0.7979  0.7164
  101OSM   H10F10214   3.963   1.235   9.663  2.6355  2.7764 -1.4556
  101OSM   C11F10215   3.900   1.322   9.476 -0.1761 -0.0259  0.3858
  101OSM   H11F10216   3.806   1.355   9.427  1.5790  1.4689 -2.2548
  101OSM   H11G10217   3.949   1.247   9.411 -0.6556  1.6302 -2.0281
  101OSM   C12F10218   3.993   1.444   9.472 -0.4851 -0.0341  0.7876
  101OSM   H12F10219   4.085   1.417   9.528 -1.0016 -1.3288  1.0489
  101OSM   H12G10220   3.937   1.528   9.520 -1.9344 -0.0553 -0.7672
  101OSM   C13F10221   4.043   1.485   9.338  0.1598  0.2524  0.0488
  101OSM   H13F10222   4.126   1.422   9.298  1.5283  2.4619 -0.7996
  101OSM   H13G10223   4.083   1.586   9.360 -0.8852  0.7330 -0.2283
  101OSM   C14F10224   3.939   1.473   9.229  0.6914 -0.3094  0.4356
  101OSM   H14F10225   3.852   1.539   9.246  2.0588  1.7509 -0.2551
  101OSM   H14G10226   3.899   1.369   9.233  0.4150 -0.2510 -0.3764
  101OSM   C15F10227   3.993   1.492   9.085  0.7039 -0.0671 -0.1204
  101OSM   H15F10228   3.905   1.458   9.026  0.1274  0.5841  0.3395
  101OSM   H15G10229   4.080   1.429   9.058  2.5592  1.5996  1.6328
  101OSM   C16F10230   4.010   1.639   9.047 -0.4472 -0.1512  0.4630
  101OSM   H16F10231   4.093   1.666   9.114  1.0009 -0.8746 -0.9619
  101OSM   H16G10232   3.914   1.691   9.069  0.2732  1.4717 -0.0659
  101OSM   C17F10233   4.042   1.676   8.906  0.4152 -0.1318  0.4382
  101OSM   H17F10234   4.046   1.787   8.901  0.4209 -0.1200  0.6806
  101OSM   H17G10235   3.947   1.654   8.853 -0.5106 -1.4389  2.5099
  101OSM   C18F10236   4.168   1.624   8.840 -0.0167 -0.2943  0.6613
  101OSM   H18F10237   4.262   1.664   8.884 -0.6152  1.7601  0.1840
  101OSM   H18G10238   4.167   1.646   8.731 -1.6503  2.9782  1.2140
  101OSM   H18H10239   4.183   1.517   8.864  1.5129 -0.1576  0.3734
  102OSM      N10240   6.473   0.558  10.545  0.3278  0.1959 -0.3613
  102OSM    C1510241   6.547   0.608  10.659  0.5960 -0.3955  0.0533
  102OSM   H15A10242   6.582   0.521  10.713 -1.1225  0.1071  2.1252
  102OSM   H15B10243   6.472   0.665  10.712 -0.2697 -2.3942  1.1138
  102OSM   H15C10244   6.626   0.671  10.623  0.5648 -0.4432 -0.0987
  102OSM    C1410245   6.423   0.678  10.473 -0.1106  0.0503  0.2864
  102OSM   H14A10246   6.500   0.743  10.434 -0.5454 -0.3199 -1.2426
  102OSM   H14B10247   6.361   0.731  10.545 -2.6831 -2.2172 -0.0995
  102OSM   H14C10248   6.362   0.662  10.386  0.9591  0.2552 -0.5252
  102OSM    C1310249   6.569   0.476  10.467  0.0788 -0.3962 -0.0795
  102OSM   H13A10250   6.663   0.527  10.454  0.5718 -0.2504  3.2664
  102OSM   H13B10251   6.521   0.445  10.375  0.0154 -2.0344  0.4870
  102OSM   H13C10252   6.591   0.390  10.528 -0.6668 -1.0405 -0.7047
  102OSM    C1210253   6.361   0.469  10.591  0.1870  0.1276  0.1312
  102OSM   H12A10254   6.398   0.389  10.652 -0.5069  0.1624  0.6047
  102OSM   H12B10255   6.320   0.419  10.504  0.5941 -0.7625  0.4424
  102OSM    C1110256   6.235   0.532  10.661  0.1104 -0.0628 -0.4391
  102OSM   H11A10257   6.277   0.586  10.749 -1.7793 -1.5549  1.4967
  102OSM   H11B10258   6.168   0.448  10.686 -0.7564 -0.0253 -2.4425
  102OSM      P10259   6.065   0.726  10.631 -0.2991  0.0463  0.1466
  102OSM    O1310260   5.991   0.677  10.749  0.3909  0.1377  0.0947
  102OSM    O1410261   6.162   0.838  10.654  0.1754  0.4397 -0.8693
  102OSM    O1110262   5.970   0.752  10.514  0.4683 -0.5096  0.0817
  102OSM    O1210263   6.157   0.608  10.574  0.0206 -0.3809  0.2627
  102OSM    C1S10264   6.018   0.815  10.393 -0.2532 -0.2703 -0.7591
  102OSM    H1S10265   6.101   0.759  10.345 -0.5794 -1.1401 -0.3365
  102OSM    H1T10266   6.052   0.918  10.418 -0.9863 -0.6138  2.0675
  102OSM     NF10267   5.957   0.821  10.157  0.0049 -0.2694  0.3685
  102OSM    HNF10268   5.962   0.911  10.115  1.1479 -0.1899  0.6533
  102OSM    C2S10269   5.899   0.809  10.287  0.2050  0.4033 -0.1446
  102OSM    H2S10270   5.858   0.706  10.287 -1.6314  1.0725  1.6331
  102OSM    C3S10271   5.782   0.910  10.323  0.1237  0.8615  0.6082
  102OSM    H3S10272   5.827   1.010  10.338  1.3075  0.4050  0.1870
  102OSM     O310273   5.721   0.872  10.447 -0.2738 -0.3128  0.1969
  102OSM    HO310274   5.795   0.820  10.479  1.8831  1.7583 -1.0816
  102OSM    C4S10275   5.681   0.909  10.213 -0.0478 -0.1970 -0.1883
  102OSM    H4S10276   5.723   0.944  10.117 -2.4190  2.2879 -0.4616
  102OSM    C5S10277   5.559   0.851  10.208  0.1867  0.2261 -0.1333
  102OSM    H5S10278   5.526   0.800  10.300 -0.9347  2.0081  0.5060
  102OSM    C6S10279   5.468   0.852  10.092 -0.0124 -0.3817  0.5915
  102OSM    H6S10280   5.384   0.922  10.112 -0.7360 -1.3476  1.0359
  102OSM    H6T10281   5.420   0.752  10.085  0.1211 -0.4607  0.7634
  102OSM    C7S10282   5.520   0.887   9.949 -0.4201  0.0813 -0.2249
  102OSM    H7S10283   5.609   0.825   9.924 -0.5880 -0.5622  0.7558
  102OSM    H7T10284   5.565   0.988   9.942  2.4718 -1.1119 -0.4579
  102OSM    C8S10285   5.403   0.879   9.848 -0.2896 -0.0423 -0.4703
  102OSM    H8S10286   5.324   0.947   9.887  1.4751  1.4092  0.7298
  102OSM    H8T10287   5.360   0.777   9.851 -3.1447  1.0235 -1.0532
  102OSM    C9S10288   5.436   0.927   9.696  0.4865 -0.3044 -0.2846
  102OSM    H9S10289   5.525   0.867   9.666 -0.9870 -2.1268 -1.1709
  102OSM    H9T10290   5.442   1.038   9.695 -0.4399 -0.1880  1.7762
  102OSM   C10S10291   5.324   0.870   9.608 -0.2530  0.5572 -0.1348
  102OSM   H10S10292   5.224   0.909   9.634 -0.3162 -0.8012  1.8762
  102OSM   H10T10293   5.317   0.762   9.634  0.5782  0.7718  1.0742
  102OSM   C11S10294   5.349   0.893   9.459 -0.5765 -0.2719 -0.0315
  102OSM   H11S10295   5.452   0.867   9.427 -0.1572  1.6068 -0.3556
  102OSM   H11T10296   5.346   1.003   9.440 -0.3840 -0.5699 -2.0625
  102OSM   C12S10297   5.252   0.820   9.358 -0.0101  0.4668 -0.6372
  102OSM   H12S10298   5.160   0.881   9.374  0.8761  1.8111 -0.5233
  102OSM   H12T10299   5.235   0.723   9.409 -2.1091  1.5641  0.9216
  102OSM   C13S10300   5.304   0.806   9.217 -0.1203 -0.2541 -0.2284
  102OSM   H13S10301   5.399   0.748   9.219  0.5668  0.8459  0.3325
  102OSM   H13T10302   5.331   0.908   9.182  0.0807 -0.0806  0.4023
  102OSM   C14S10303   5.225   0.706   9.124  0.1382 -0.4165 -0.1296
  102OSM   H14S10304   5.211   0.616   9.187  1.3206 -1.0316 -0.7131
  102OSM   H14T10305   5.276   0.680   9.029 -1.8890  0.3859 -1.5148
  102OSM   C15S10306   5.091   0.771   9.070  0.2398 -0.1184 -0.4119
  102OSM   H15S10307   5.025   0.807   9.152 -0.6980 -0.3536 -1.0439
  102OSM   H15T10308   5.028   0.701   9.010 -2.6010  1.6051  0.3555
  102OSM   C16S10309   5.106   0.886   8.967  0.1024  0.5886 -0.7665
  102OSM   H16S10310   5.177   0.849   8.890 -1.4698 -3.2760 -0.5987
  102OSM   H16T10311   5.140   0.977   9.021 -2.4213  1.0290  0.1947
  102OSM   C17S10312   4.979   0.932   8.903  0.0956 -0.5523  0.0804
  102OSM   H17S10313   4.901   0.969   8.973  1.8241 -0.9165  2.2911
  102OSM   H17T10314   4.934   0.845   8.849  0.6892  0.3371 -1.9505
  102OSM   C18S10315   4.993   1.041   8.798 -0.5575  0.1098  0.7185
  102OSM   H18S10316   5.065   1.003   8.723  0.7310 -0.9353  2.4057
  102OSM   H18T10317   5.030   1.130   8.853  0.3416  0.4499 -0.4029
  102OSM   H18U10318   4.898   1.068   8.747 -0.5870  2.3025  1.7915
  102OSM    C1F10319   6.015   0.719  10.094  0.3649 -0.2545  0.1398
  102OSM     OF10320   6.008   0.609  10.144 -0.1115 -0.1084 -0.0084
  102OSM    C2F10321   6.082   0.740   9.962  0.2026 -0.4325 -0.2122
  102OSM    H2F10322   6.139   0.833   9.977  1.5985 -1.1833 -0.6607
  102OSM    H2G10323   6.007   0.756   9.882  0.2086  0.3869 -0.0614
  102OSM    C3F10324   6.182   0.625   9.930 -0.3321  0.2345 -0.1323
  102OSM    H3F10325   6.138   0.523   9.929 -1.9603  0.8687  1.2538
  102OSM    H3G10326   6.264   0.606  10.003  0.5498 -1.8666 -1.5898
  102OSM    C4F10327   6.246   0.642   9.789  0.0766 -0.0063  0.1087
  102OSM    H4F10328   6.338   0.581   9.770 -0.5352 -1.1931  0.7995
  102OSM    H4G10329   6.280   0.747   9.794  0.9661 -0.2625 -0.2369
  102OSM    C5F10330   6.152   0.618   9.664  0.4824 -0.3107  0.4507
  102OSM    H5F10331   6.051   0.665   9.670  1.6807  2.7442 -1.2141
  102OSM    H5G10332   6.139   0.511   9.640 -0.8547  0.2636 -1.6445
  102OSM    C6F10333   6.214   0.671   9.530  0.2292 -0.8790 -0.0426
  102OSM    H6F10334   6.319   0.634   9.533  0.1661 -1.0971 -0.4597
  102OSM    H6G10335   6.221   0.781   9.518  0.3887 -0.6693  1.7272
  102OSM    C7F10336   6.147   0.618   9.411  0.4024  0.0311  0.5440
  102OSM    H7F10337   6.116   0.511   9.424 -0.3646  0.3172  1.1717
  102OSM    H7G10338   6.219   0.624   9.327  0.2455 -1.3785  0.2821
  102OSM    C8F10339   6.027   0.701   9.363 -0.1634  0.3693 -0.3168
  102OSM    H8F10340   6.072   0.802   9.362  2.1633 -0.5905 -2.3387
  102OSM    H8G10341   5.961   0.699   9.453 -0.4665 -0.7902 -0.5393
  102OSM    C9F10342   5.955   0.652   9.240  0.2951  0.3131 -0.3340
  102OSM    H9F10343   5.855   0.614   9.262  1.5367 -2.1115  1.6268
  102OSM   C10F10344   6.000   0.659   9.119 -0.7725 -0.0332  0.6168
  102OSM   H10F10345   5.926   0.646   9.039 -0.3982  2.7940 -0.3186
  102OSM   C11F10346   6.130   0.722   9.072  0.3460 -0.2179 -0.5248
  102OSM   H11F10347   6.208   0.647   9.097 -2.0769 -2.2421  1.5457
  102OSM   H11G10348   6.150   0.814   9.131  1.6001  0.9230 -2.6091
  102OSM   C12F10349   6.155   0.765   8.924 -0.2103  0.1406  0.0189
  102OSM   H12F10350   6.153   0.679   8.853 -0.9783  1.6934 -1.9464
  102OSM   H12G10351   6.261   0.799   8.917  0.4919 -1.6880  1.1713
  102OSM   C13F10352   6.050   0.849   8.862  0.7476 -0.3801 -0.4470
  102OSM   H13F10353   6.020   0.912   8.949 -0.2839 -0.2668 -0.8684
  102OSM   H13G10354   5.955   0.795   8.840  0.5696 -0.1616 -0.2124
  102OSM   C14F10355   6.082   0.933   8.741 -0.4957 -0.1444  0.2928
  102OSM   H14F10356   6.175   0.987   8.768 -1.4855  0.9722  1.5891
  102OSM   H14G10357   6.013   1.017   8.716 -0.6436 -0.9061 -2.1140
  102OSM   C15F10358   6.085   0.862   8.606  0.3486  0.0769  0.7440
  102OSM   H15F10359   6.118   0.938   8.532 -2.2226  1.2142  0.6448
  102OSM   H15G10360   5.983   0.831   8.576  0.5221 -0.6211  0.8719
  102OSM   C16F10361   6.165   0.730   8.591 -0.0725 -0.2931  0.5163
  102OSM   H16F10362   6.098   0.658   8.641 -1.5670  0.7354  0.0594
  102OSM   H16G10363   6.267   0.750   8.632  0.2164  3.0139 -1.4529
  102OSM   C17F10364   6.189   0.691   8.449 -0.4081 -0.2387 -0.0552
  102OSM   H17F10365   6.265   0.760   8.407 -0.7243  0.7353  0.9466
  102OSM   H17G10366   6.093   0.712   8.397  0.6334  0.4582 -1.7633
  102OSM   C18F10367   6.218   0.544   8.425  0.4510 -0.0680 -0.0389
  102OSM   H18F10368   6.313   0.507   8.469  1.7205  0.0222 -2.5278
  102OSM   H18G10369   6.216   0.516   8.318 -3.0436 -1.0100  0.1416
  102OSM   H18H10370   6.128   0.486   8.455 -0.6614 -0.0074 -2.8938
  103OSM      N10371   3.129   0.159  10.950 -0.3411  0.3763 -0.4063
  103OSM    C1510372   3.208   0.274  11.019  0.0129 -0.1736  0.3121
  103OSM   H15A10373   3.252   0.235  11.110 -2.1522  1.5604  2.2376
  103OSM   H15B10374   3.143   0.357  11.043 -1.2577 -1.1151  0.2417
  103OSM   H15C10375   3.292   0.313  10.963  0.3661  1.6022  1.9584
  103OSM    C1410376   3.032   0.092  11.046 -0.7229  0.1834  0.0023
  103OSM   H14A10377   3.089   0.047  11.126 -0.3229  1.7732  0.6515
  103OSM   H14B10378   2.973   0.018  10.994  1.1922  0.6684 -3.1785
  103OSM   H14C10379   2.977   0.170  11.096  0.7501  1.2821 -0.0279
  103OSM    C1310380   3.059   0.223  10.839  0.1229 -0.1755  0.3226
  103OSM   H13A10381   2.989   0.295  10.880  0.5938 -0.0107  0.8495
  103OSM   H13B10382   3.001   0.158  10.774 -1.5826  1.3410  0.2358
  103OSM   H13C10383   3.123   0.275  10.770 -0.3661 -0.9282 -0.7305
  103OSM    C1210384   3.221   0.056  10.890 -0.1247  0.5278  0.1829
  103OSM   H12A10385   3.256  -0.019  10.959  0.5011 -0.2204 -0.9010
  103OSM   H12B10386   3.315   0.102  10.862  0.1315  0.8451  1.5005
  103OSM    C1110387   3.181  -0.025  10.760 -0.0311  0.5319 -0.1079
  103OSM   H11A10388   3.267  -0.080  10.716  2.1086  4.0960 -0.7940
  103OSM   H11B10389   3.168   0.047  10.676  1.8311  1.7880  0.6172
  103OSM      P10390   3.074  -0.255  10.814  0.6536  0.0949 -0.0220
  103OSM    O1310391   3.210  -0.273  10.865 -0.1113  1.0427  0.5719
  103OSM    O1410392   2.964  -0.291  10.908 -0.2794  0.6019  0.1242
  103OSM    O1110393   3.059  -0.339  10.681 -0.5345 -0.1717  0.7734
  103OSM    O1210394   3.058  -0.099  10.776  0.2579  0.5299 -0.3324
  103OSM    C1S10395   2.957  -0.291  10.598 -0.3777  0.2846 -0.2199
  103OSM    H1S10396   2.977  -0.186  10.571  0.9968  0.0439 -0.1822
  103OSM    H1T10397   2.853  -0.287  10.636 -1.3214  0.2872 -2.5754
  103OSM     NF10398   2.839  -0.311  10.379 -0.1791  0.0778 -0.1103
  103OSM    HNF10399   2.751  -0.357  10.382  0.0856 -0.4284  2.2793
  103OSM    C2S10400   2.942  -0.376  10.459  0.6659 -0.9473 -1.0629
  103OSM    H2S10401   3.041  -0.366  10.410  0.9327  0.0604 -0.3413
  103OSM    C3S10402   2.919  -0.525  10.491  0.4274 -0.8446  0.5019
  103OSM    H3S10403   2.831  -0.549  10.555 -1.3903  3.0487 -0.1963
  103OSM     O310404   3.035  -0.584  10.546  0.2549 -0.1981 -0.3252
  103OSM    HO310405   3.065  -0.511  10.601 -0.1281 -0.6155  0.4601
  103OSM    C4S10406   2.887  -0.595  10.356 -0.6901 -0.1723  0.2236
  103OSM    H4S10407   2.875  -0.529  10.269  1.0390 -1.4087 -1.0390
  103OSM    C5S10408   2.881  -0.727  10.332 -0.0325  0.2485  0.4157
  103OSM    H5S10409   2.898  -0.793  10.418 -0.1516 -0.2423  0.0642
  103OSM    C6S10410   2.857  -0.804  10.206  0.2279 -0.2591 -0.3056
  103OSM    H6S10411   2.750  -0.800  10.174  0.7981  1.8035 -2.2071
  103OSM    H6T10412   2.878  -0.912  10.219  0.5301 -0.1798 -0.1369
  103OSM    C7S10413   2.921  -0.745  10.073  0.6304  0.0596  0.7310
  103OSM    H7S10414   3.025  -0.716  10.095  1.5836 -0.1788 -2.8118
  103OSM    H7T10415   2.869  -0.652  10.041 -0.8604 -1.2963 -1.0411
  103OSM    C8S10416   2.903  -0.845   9.954 -0.1368 -1.0304 -0.1744
  103OSM    H8S10417   2.796  -0.873   9.957 -0.4543  0.1175  2.8409
  103OSM    H8T10418   2.963  -0.934   9.983  1.6030  0.5232  1.2407
  103OSM    C9S10419   2.950  -0.796   9.819 -0.0363 -0.2388 -0.1088
  103OSM    H9S10420   3.056  -0.769   9.840  0.1238  1.0615 -2.3442
  103OSM    H9T10421   2.886  -0.707   9.802 -0.5978 -0.3117  1.4389
  103OSM   C10S10422   2.941  -0.898   9.704 -0.4215 -0.7424  0.7185
  103OSM   H10S10423   2.846  -0.955   9.712 -0.8006 -0.2186  0.0913
  103OSM   H10T10424   3.014  -0.982   9.707 -0.6872 -0.9827  0.5169
  103OSM   C11S10425   2.946  -0.837   9.567  0.0536  0.0248  0.2401
  103OSM   H11S10426   3.054  -0.816   9.554  0.3410 -1.6167 -0.1912
  103OSM   H11T10427   2.884  -0.745   9.566 -1.2626 -0.7978  1.9627
  103OSM   C12S10428   2.888  -0.938   9.460  0.2413 -0.9069 -0.8842
  103OSM   H12S10429   2.780  -0.958   9.478 -0.0919  1.2554 -0.1520
  103OSM   H12T10430   2.940  -1.036   9.467 -0.2826 -1.3231 -2.3390
  103OSM   C13S10431   2.890  -0.866   9.326 -0.0097  0.3709  0.1238
  103OSM   H13S10432   2.976  -0.795   9.326 -0.1217  0.5419  1.6568
  103OSM   H13T10433   2.800  -0.802   9.334 -2.3951 -2.7187 -0.2871
  103OSM   C14S10434   2.897  -0.961   9.207 -0.0535 -0.4857 -0.9200
  103OSM   H14S10435   2.800  -1.016   9.207 -0.8533  0.6732  2.6331
  103OSM   H14T10436   2.985  -1.029   9.203  2.0096  1.9468  0.3739
  103OSM   C15S10437   2.876  -0.892   9.073  0.2612 -0.8513 -0.5810
  103OSM   H15S10438   2.965  -0.827   9.066 -0.7626  0.7107  0.2813
  103OSM   H15T10439   2.777  -0.841   9.078  0.0974 -1.1808 -0.4505
  103OSM   C16S10440   2.883  -0.998   8.953  0.4852 -0.4716  0.6022
  103OSM   H16S10441   2.824  -1.083   8.993 -0.7856  0.8970  1.7660
  103OSM   H16T10442   2.988  -1.033   8.949  0.2293 -1.3284  1.0047
  103OSM   C17S10443   2.838  -0.951   8.808  1.3780 -0.2047 -0.0610
  103OSM   H17S10444   2.870  -1.030   8.736 -0.5179 -1.6349  0.5619
  103OSM   H17T10445   2.888  -0.860   8.769 -2.4479  1.3179 -2.0023
  103OSM   C18S10446   2.682  -0.926   8.799 -0.6926  0.8795  0.2216
  103OSM   H18S10447   2.654  -0.852   8.721 -0.3742  0.5808 -0.1802
  103OSM   H18T10448   2.640  -0.876   8.889 -1.5825  0.5429  0.0051
  103OSM   H18U10449   2.630  -1.023   8.781 -0.9034  1.3536 -2.1276
  103OSM    C1F10450   2.854  -0.192  10.329  0.1434  0.2164 -0.1720
  103OSM     OF10451   2.959  -0.133  10.325 -0.9031 -0.0281 -0.2750
  103OSM    C2F10452   2.723  -0.135  10.281 -0.0694 -0.7577 -0.1718
  103OSM    H2F10453   2.690  -0.050  10.345 -1.7235  2.3097 -4.6120
  103OSM    H2G10454   2.646  -0.215  10.279  0.5257 -1.3856  0.7659
  103OSM    C3F10455   2.723  -0.083  10.134 -0.4521  0.2200  0.2744
  103OSM    H3F10456   2.797  -0.001  10.127  0.8142 -0.8552  0.5969
  103OSM    H3G10457   2.625  -0.034  10.114 -0.9675 -0.0812  1.9515
  103OSM    C4F10458   2.749  -0.196  10.027  0.1366  0.1173 -0.3723
  103OSM    H4F10459   2.673  -0.276  10.039  0.5155 -0.0471  1.0598
  103OSM    H4G10460   2.849  -0.242  10.042  1.8061  2.4976 -3.1011
  103OSM    C5F10461   2.756  -0.154   9.879 -1.1252 -0.9767  0.4800
  103OSM    H5F10462   2.850  -0.096   9.873 -1.4486 -0.3124  1.6160
  103OSM    H5G10463   2.674  -0.084   9.852  2.1826  2.4365 -1.6347
  103OSM    C6F10464   2.755  -0.278   9.793  0.0214  0.7245 -0.4535
  103OSM    H6F10465   2.668  -0.341   9.819  1.1173 -0.9825 -0.7464
  103OSM    H6G10466   2.841  -0.340   9.828 -0.6643 -0.8045 -1.3930
  103OSM    C7F10467   2.780  -0.260   9.640 -0.0425  0.1531  0.1237
  103OSM    H7F10468   2.866  -0.196   9.610 -0.6981  0.5643 -0.9485
  103OSM    H7G10469   2.700  -0.193   9.603  1.8135  3.2057  1.1963
  103OSM    C8F10470   2.795  -0.383   9.559 -0.4611  0.5925  0.1005
  103OSM    H8F10471   2.872  -0.442   9.614 -0.3505  2.8360  2.5454
  103OSM    H8G10472   2.851  -0.349   9.469  0.6089 -2.0395 -0.3052
  103OSM    C9F10473   2.663  -0.454   9.522  0.2465  0.0516 -0.5193
  103OSM    H9F10474   2.602  -0.486   9.608 -0.9264 -2.2410 -2.1040
  103OSM   C10F10475   2.612  -0.474   9.403 -0.3850  0.8578  0.1494
  103OSM   H10F10476   2.525  -0.540   9.389  0.7869 -0.2111 -3.4156
  103OSM   C11F10477   2.665  -0.431   9.263  0.1929 -0.2333 -0.1043
  103OSM   H11F10478   2.744  -0.353   9.260 -1.4612  1.5045 -1.0564
  103OSM   H11G10479   2.575  -0.395   9.208 -0.3632 -0.2068  0.8110
  103OSM   C12F10480   2.722  -0.563   9.192  0.5843 -0.7307 -0.3249
  103OSM   H12F10481   2.660  -0.655   9.200 -1.2009  0.1714 -2.6191
  103OSM   H12G10482   2.812  -0.589   9.252 -0.0112  1.3586  1.6094
  103OSM   C13F10483   2.743  -0.539   9.046  0.8355  0.0562  0.1698
  103OSM   H13F10484   2.644  -0.523   8.999  0.2570  1.9571  1.8760
  103OSM   H13G10485   2.795  -0.632   9.014 -0.6089 -1.1127  1.0885
  103OSM   C14F10486   2.822  -0.414   9.003  0.2807  0.2585  0.5047
  103OSM   H14F10487   2.926  -0.436   9.035  0.0900 -0.0417  0.9354
  103OSM   H14G10488   2.775  -0.318   9.033 -2.9842 -1.1864  0.4377
  103OSM   C15F10489   2.835  -0.414   8.848 -0.8604  0.5976  0.1456
  103OSM   H15F10490   2.897  -0.328   8.816 -0.5743  0.2502 -0.2498
  103OSM   H15G10491   2.738  -0.404   8.795  0.4432 -0.7795 -2.7767
  103OSM   C16F10492   2.898  -0.550   8.797  0.1122 -0.0563  0.4284
  103OSM   H16F10493   2.821  -0.630   8.797 -0.0610  0.0999  1.4766
  103OSM   H16G10494   2.984  -0.580   8.861  0.7837  0.1729 -0.3395
  103OSM   C17F10495   2.958  -0.534   8.662  0.8582 -0.1335  0.3897
  103OSM   H17F10496   3.014  -0.438   8.658 -0.1419  0.4406 -0.0292
  103OSM   H17G10497   2.878  -0.517   8.587  2.7450  0.7698 -1.5484
  103OSM   C18F10498   3.043  -0.657   8.621  0.6993 -0.4623 -0.2095
  103OSM   H18F10499   3.126  -0.679   8.692 -1.1942 -1.6735  1.7585
  103OSM   H18G10500   3.090  -0.618   8.529  0.9504 -1.0533 -0.3390
  103OSM   H18H10501   2.981  -0.747   8.600  1.0521 -0.6384 -0.5027
  104OSM      N10502   0.138   6.306  10.961 -0.8010  0.1612  0.4283
  104OSM    C1510503   0.211   6.217  11.060 -0.3393  0.1348 -0.1313
  104OSM   H15A10504   0.297   6.179  11.007  1.5154  0.4735  2.4570
  104OSM   H15B10505   0.139   6.141  11.088 -0.6353  0.7829  0.9129
  104OSM   H15C10506   0.246   6.268  11.148  0.7376 -1.0157  0.1441
  104OSM    C1410507   0.025   6.369  11.039  0.1243 -0.2973  0.6238
  104OSM   H14A10508   0.043   6.450  11.108 -0.1869 -1.8930  2.7117
  104OSM   H14B10509  -0.033   6.290  11.086 -1.9171  0.3979 -0.6110
  104OSM   H14C10510  -0.043   6.409  10.966 -2.7362 -1.8452  2.2166
  104OSM    C1310511   0.240   6.407  10.922 -0.4748 -0.6474  0.1440
  104OSM   H13A10512   0.201   6.476  10.848 -0.1069 -1.2873 -0.6675
  104OSM   H13B10513   0.326   6.359  10.877 -1.6075 -2.4155 -0.2164
  104OSM   H13C10514   0.285   6.461  11.004  1.2160 -3.8800  1.5592
  104OSM    C1210515   0.087   6.224  10.841 -0.5992 -0.1528 -0.4305
  104OSM   H12A10516   0.044   6.134  10.882  3.1053 -1.1164  1.8424
  104OSM   H12B10517   0.170   6.185  10.783 -1.1348 -0.8808 -0.7269
  104OSM    C1110518  -0.006   6.288  10.736  0.4861 -0.1041 -0.1412
  104OSM   H11A10519  -0.016   6.215  10.654 -3.6159 -0.2392  0.2830
  104OSM   H11B10520   0.045   6.373  10.686  0.6056 -1.0337 -1.6457
  104OSM      P10521  -0.239   6.230  10.824  0.1928  0.5126 -0.4347
  104OSM    O1310522  -0.206   6.151  10.946  0.2802 -0.2977  0.0783
  104OSM    O1410523  -0.366   6.307  10.816  0.4338  0.4170 -0.2848
  104OSM    O1110524  -0.230   6.134  10.698  0.4791  0.2043 -0.0371
  104OSM    O1210525  -0.131   6.329  10.792 -0.1465 -0.6051  0.7693
  104OSM    C1S10526  -0.306   6.149  10.582  0.0378  0.2880  0.2702
  104OSM    H1S10527  -0.240   6.198  10.508  1.0787  0.1103  1.0594
  104OSM    H1T10528  -0.400   6.206  10.599  1.2808  2.4187  0.3295
  104OSM     NF10529  -0.412   6.036  10.384 -0.2797 -0.3367  0.9463
  104OSM    HNF10530  -0.511   6.027  10.376 -0.2279  0.4919 -1.1104
  104OSM    C2S10531  -0.347   6.012  10.509  0.0627 -0.0612  0.1245
  104OSM    H2S10532  -0.244   5.972  10.496 -0.3048 -0.6453 -1.1013
  104OSM    C3S10533  -0.421   5.915  10.598  0.6026 -0.4419 -0.2134
  104OSM    H3S10534  -0.519   5.966  10.614  1.0683  0.3859  0.0563
  104OSM     O310535  -0.368   5.903  10.729  0.3246  0.3052  0.0802
  104OSM    HO310536  -0.315   5.982  10.732  1.4413 -0.3724 -0.7618
  104OSM    C4S10537  -0.444   5.786  10.525 -0.1929  0.3574  0.5138
  104OSM    H4S10538  -0.537   5.778  10.467  0.1340 -2.6766  0.2361
  104OSM    C5S10539  -0.366   5.677  10.539  0.4894  0.3700 -0.7864
  104OSM    H5S10540  -0.278   5.681  10.605 -0.2065 -0.6219  0.2451
  104OSM    C6S10541  -0.392   5.545  10.474 -0.2954  0.2727  0.4333
  104OSM    H6S10542  -0.500   5.518  10.471  0.1288 -1.5236 -0.0485
  104OSM    H6T10543  -0.337   5.464  10.527 -2.9305 -2.1993 -0.3182
  104OSM    C7S10544  -0.360   5.539  10.322  0.4783  0.2641  0.1586
  104OSM    H7S10545  -0.249   5.543  10.327  0.6060 -1.5779 -0.5116
  104OSM    H7T10546  -0.394   5.631  10.270  0.4799 -0.7626 -1.7708
  104OSM    C8S10547  -0.410   5.406  10.264 -0.7153  0.1014  0.3446
  104OSM    H8S10548  -0.520   5.405  10.274 -0.8434 -1.9514 -0.7336
  104OSM    H8T10549  -0.369   5.312  10.306 -0.2434 -0.2828 -0.8956
  104OSM    C9S10550  -0.377   5.408  10.119  0.0247  0.5614  0.3951
  104OSM    H9S10551  -0.269   5.429  10.106 -0.3001  0.8797 -2.4221
  104OSM    H9T10552  -0.419   5.497  10.067 -0.8766 -1.6055 -2.9168
  104OSM   C10S10553  -0.406   5.279  10.038  0.1977 -0.0008  0.0265
  104OSM   H10S10554  -0.515   5.273  10.016  0.0921  0.2129  0.4862
  104OSM   H10T10555  -0.398   5.182  10.091 -0.8094 -1.1212 -1.7427
  104OSM   C11S10556  -0.327   5.273   9.906  0.4624  0.2538 -0.8804
  104OSM   H11S10557  -0.322   5.167   9.873 -2.8001 -0.6488  1.0634
  104OSM   H11T10558  -0.224   5.313   9.912  2.1405 -3.0358 -3.8545
  104OSM   C12S10559  -0.406   5.357   9.801 -0.2292 -0.0593  0.3801
  104OSM   H12S10560  -0.417   5.460   9.840 -0.8768 -1.1235  3.2366
  104OSM   H12T10561  -0.502   5.301   9.801  0.5579 -1.5172  2.1087
  104OSM   C13S10562  -0.331   5.353   9.669  0.0664  0.0412  0.4977
  104OSM   H13S10563  -0.315   5.248   9.637  2.6243  0.6396 -0.4271
  104OSM   H13T10564  -0.235   5.410   9.675 -0.6845  1.2057  2.2138
  104OSM   C14S10565  -0.401   5.436   9.556 -0.2809  1.0986 -0.1026
  104OSM   H14S10566  -0.413   5.544   9.575  0.8854  1.0201  1.1829
  104OSM   H14T10567  -0.511   5.422   9.540 -0.4917  2.0961  0.4085
  104OSM   C15S10568  -0.317   5.437   9.429 -0.1668 -0.1562  0.6679
  104OSM   H15S10569  -0.307   5.332   9.394 -2.3751 -0.4668  0.8185
  104OSM   H15T10570  -0.217   5.477   9.456  1.2877 -3.1412  0.1745
  104OSM   C16S10571  -0.394   5.507   9.306  0.0791 -0.1542 -0.0596
  104OSM   H16S10572  -0.412   5.613   9.332 -0.4292 -0.2101 -0.1746
  104OSM   H16T10573  -0.493   5.456   9.302  0.8291 -1.7234  0.6542
  104OSM   C17S10574  -0.316   5.492   9.173 -0.2641  0.2653  0.0732
  104OSM   H17S10575  -0.341   5.389   9.140 -0.4556  0.6784 -1.1251
  104OSM   H17T10576  -0.206   5.499   9.184 -0.1006  1.1444 -1.8083
  104OSM   C18S10577  -0.344   5.592   9.063  0.1702 -0.7378 -0.5725
  104OSM   H18S10578  -0.332   5.689   9.115 -1.5108 -2.3084  3.1091
  104OSM   H18T10579  -0.453   5.583   9.043 -0.4356 -0.7372  2.2259
  104OSM   H18U10580  -0.276   5.585   8.976  0.9469 -0.8193  0.0308
  104OSM    C1F10581  -0.347   6.080  10.277  0.2213  0.1523  0.1563
  104OSM     OF10582  -0.222   6.082  10.274 -0.3465 -0.0489  0.5458
  104OSM    C2F10583  -0.420   6.139  10.160 -0.0469  0.4240 -0.8342
  104OSM    H2F10584  -0.500   6.204  10.202  0.2417  1.3072 -1.6067
  104OSM    H2G10585  -0.461   6.054  10.101  0.5636  0.7376 -1.7338
  104OSM    C3F10586  -0.316   6.220  10.081 -0.2862 -0.3073 -0.2962
  104OSM    H3F10587  -0.235   6.155  10.042 -0.5509  0.2924 -1.9321
  104OSM    H3G10588  -0.267   6.300  10.141  0.7980  1.4562 -3.3184
  104OSM    C4F10589  -0.372   6.281   9.950  0.1530  0.2009  0.0496
  104OSM    H4F10590  -0.426   6.377   9.966 -2.8868 -0.7043 -3.4169
  104OSM    H4G10591  -0.436   6.212   9.891  0.3980  0.8480 -0.9991
  104OSM    C5F10592  -0.254   6.307   9.849 -0.3735  0.5657 -0.1901
  104OSM    H5F10593  -0.182   6.223   9.842 -0.7539  0.3356 -1.4739
  104OSM    H5G10594  -0.210   6.399   9.894 -0.1275  2.0427 -3.2029
  104OSM    C6F10595  -0.277   6.343   9.700  0.2906  0.7896  0.0006
  104OSM    H6F10596  -0.187   6.399   9.665  0.6138  0.7663  0.7805
  104OSM    H6G10597  -0.362   6.415   9.695  0.0939  0.7139  1.6068
  104OSM    C7F10598  -0.296   6.220   9.614 -0.6246 -0.3129 -0.3085
  104OSM    H7F10599  -0.393   6.172   9.640 -0.9217  0.8138  0.7963
  104OSM    H7G10600  -0.213   6.150   9.633  0.9997  1.6156  0.0355
  104OSM    C8F10601  -0.294   6.256   9.462 -0.3433 -0.6375  0.1076
  104OSM    H8F10602  -0.276   6.156   9.416 -0.1901 -0.7311  0.3696
  104OSM    H8G10603  -0.204   6.314   9.432  0.1032 -0.8139  1.0603
  104OSM    C9F10604  -0.414   6.332   9.418  0.0653 -0.8901 -0.3365
  104OSM    H9F10605  -0.455   6.398   9.496  0.6274  0.8358 -1.4621
  104OSM   C10F10606  -0.469   6.328   9.295 -0.4051 -0.0224  0.3346
  104OSM   H10F10607  -0.555   6.394   9.278 -1.5057 -0.9668  1.9506
  104OSM   C11F10608  -0.435   6.243   9.174 -0.9671  0.1231  0.8884
  104OSM   H11F10609  -0.525   6.184   9.144  0.1598 -0.2841 -2.0055
  104OSM   H11G10610  -0.349   6.176   9.197 -0.3090 -0.0153 -1.6150
  104OSM   C12F10611  -0.394   6.322   9.047 -0.2075 -0.0477 -0.5365
  104OSM   H12F10612  -0.295   6.369   9.063 -0.9046  1.2079  0.2728
  104OSM   H12G10613  -0.476   6.394   9.026  0.4154  0.7548 -0.2529
  104OSM   C13F10614  -0.391   6.235   8.922  0.2139  0.6860 -0.3094
  104OSM   H13F10615  -0.470   6.158   8.933  0.7637  0.0907 -0.4451
  104OSM   H13G10616  -0.293   6.182   8.916  1.1366  2.2179  0.6499
  104OSM   C14F10617  -0.404   6.320   8.789  0.4284  0.5442 -0.3072
  104OSM   H14F10618  -0.307   6.372   8.776  0.8164 -0.0388  0.2068
  104OSM   H14G10619  -0.478   6.397   8.818  1.5102  1.2091  0.7743
  104OSM   C15F10620  -0.443   6.247   8.656  0.4864  0.6768 -0.5028
  104OSM   H15F10621  -0.525   6.176   8.680  0.5657  1.1155  1.2588
  104OSM   H15G10622  -0.363   6.176   8.627  1.1580  2.0277 -2.0987
  104OSM   C16F10623  -0.486   6.335   8.544  0.0422  0.6711 -0.5075
  104OSM   H16F10624  -0.565   6.408   8.568  0.5581  0.4962  1.9786
  104OSM   H16G10625  -0.537   6.269   8.471 -1.9596 -1.7968  2.8297
  104OSM   C17F10626  -0.363   6.406   8.477  0.1453  0.1460  0.3537
  104OSM   H17F10627  -0.323   6.489   8.539 -1.5812  1.3806 -0.1062
  104OSM   H17G10628  -0.404   6.452   8.385  1.7924 -0.7575 -0.8817
  104OSM   C18F10629  -0.248   6.315   8.431 -0.7742  0.4402 -0.0165
  104OSM   H18F10630  -0.202   6.259   8.516 -1.3623  1.1416  0.7852
  104OSM   H18G10631  -0.169   6.382   8.390 -0.0388  1.4083  2.7386
  104OSM   H18H10632  -0.271   6.238   8.354 -1.2134 -0.3953  0.9237
  105OSM      N10633   3.526   2.364  10.697 -0.2417 -0.2356 -0.6536
  105OSM    C1510634   3.470   2.473  10.792 -0.6516 -0.5528 -0.3008
  105OSM   H15A10635   3.365   2.452  10.803 -0.7359  0.0985  0.2255
  105OSM   H15B10636   3.473   2.566  10.736 -2.2878 -1.3961 -1.8963
  105OSM   H15C10637   3.512   2.469  10.891  0.8357  1.9247 -0.7411
  105OSM    C1410638   3.476   2.401  10.556 -0.3963 -0.2281 -0.1070
  105OSM   H14A10639   3.369   2.391  10.557 -0.3151 -1.5929  2.0977
  105OSM   H14B10640   3.520   2.331  10.486 -0.5973  0.0875 -0.5566
  105OSM   H14C10641   3.509   2.499  10.525  2.8182 -0.9029  0.8212
  105OSM    C1310642   3.675   2.375  10.701  0.3177 -0.1329 -0.3539
  105OSM   H13A10643   3.703   2.480  10.704 -1.2429  0.2969  0.3945
  105OSM   H13B10644   3.713   2.333  10.609  0.0006 -0.6902 -0.2366
  105OSM   H13C10645   3.726   2.318  10.777 -1.8212 -1.8783 -0.1293
  105OSM    C1210646   3.486   2.226  10.735 -0.2459  0.1493  0.8376
  105OSM   H12A10647   3.528   2.198  10.831  1.5170 -0.3771 -0.0510
  105OSM   H12B10648   3.537   2.158  10.669 -1.5612  0.8003 -0.9160
  105OSM    C1110649   3.337   2.200  10.732  0.5985 -0.0885  0.3805
  105OSM   H11A10650   3.277   2.290  10.758  0.7030  0.3832 -0.9325
  105OSM   H11B10651   3.317   2.121  10.807 -0.1293  0.6546  0.9891
  105OSM      P10652   3.330   2.050  10.508 -0.0295  0.0271  0.0700
  105OSM    O1310653   3.473   2.040  10.465 -0.6778  0.1582  0.3900
  105OSM    O1410654   3.265   1.928  10.563  0.1997  0.2376  0.4148
  105OSM    O1110655   3.256   2.091  10.373  0.0709  0.3464  0.6703
  105OSM    O1210656   3.294   2.174  10.601 -0.1976 -0.0759 -0.0100
  105OSM    C1S10657   3.118   2.119  10.381  0.4979 -0.0326 -0.3101
  105OSM    H1S10658   3.097   2.210  10.442 -0.3509 -0.7674  0.5068
  105OSM    H1T10659   3.068   2.030  10.425  1.7694 -2.1265 -2.8360
  105OSM     NF10660   2.933   2.225  10.246 -0.0371  0.0734 -0.3311
  105OSM    HNF10661   2.854   2.164  10.246 -0.8632  1.0250  1.8898
  105OSM    C2S10662   3.057   2.155  10.242 -0.7584 -0.3666 -0.4095
  105OSM    H2S10663   3.133   2.223  10.199 -1.1464  1.0011  0.9705
  105OSM    C3S10664   3.058   2.023  10.155 -0.0506 -0.0568 -0.4454
  105OSM    H3S10665   2.974   1.955  10.184  0.1402 -1.0939 -2.1798
  105OSM     O310666   3.180   1.945  10.168  0.6235 -0.3230 -0.5758
  105OSM    HO310667   3.232   2.010  10.216 -1.4249 -0.9657  2.8735
  105OSM    C4S10668   3.013   2.061  10.017  0.0194 -0.1086 -0.8000
  105OSM    H4S10669   2.908   2.093  10.010  0.6760  1.8011 -3.1096
  105OSM    C5S10670   3.092   2.073   9.907  0.0766  0.5538 -0.2979
  105OSM    H5S10671   3.200   2.058   9.917  0.0877  1.2020  0.6303
  105OSM    C6S10672   3.047   2.106   9.769  0.6043 -0.4787 -0.4302
  105OSM    H6S10673   3.100   2.195   9.729  1.0899 -0.2101  0.7796
  105OSM    H6T10674   2.940   2.136   9.769  0.6958 -0.1368 -0.0761
  105OSM    C7S10675   3.060   1.976   9.685  0.6815  0.3104  0.0724
  105OSM    H7S10676   2.995   1.892   9.719  1.2327 -0.8576 -1.6197
  105OSM    H7T10677   3.168   1.951   9.691  1.2139  2.1551 -0.8764
  105OSM    C8S10678   3.025   1.986   9.534  0.4812 -0.4072  0.9248
  105OSM    H8S10679   3.090   2.058   9.480  0.4393 -1.3047 -0.3833
  105OSM    H8T10680   2.917   2.013   9.530  0.9949  1.8279  1.2650
  105OSM    C9S10681   3.044   1.862   9.449  0.2031 -0.5924  0.0415
  105OSM    H9S10682   2.973   1.780   9.475 -1.8863  2.2103  4.1851
  105OSM    H9T10683   3.148   1.842   9.484  0.1222  0.4767  0.9157
  105OSM   C10S10684   3.036   1.880   9.295  0.4665  0.2339  0.4364
  105OSM   H10S10685   3.092   1.974   9.273  0.2142  0.2585 -0.1084
  105OSM   H10T10686   2.933   1.893   9.256  0.4145  0.6389  0.7020
  105OSM   C11S10687   3.096   1.757   9.221 -0.4605 -0.4068  0.1855
  105OSM   H11S10688   3.073   1.667   9.281  0.3745 -2.8859 -2.9173
  105OSM   H11T10689   3.206   1.772   9.224 -0.5790  0.6307 -0.0460
  105OSM   C12S10690   3.050   1.729   9.084  0.2890 -0.1167 -0.0864
  105OSM   H12S10691   3.106   1.646   9.036  0.9353 -0.6026  1.4557
  105OSM   H12T10692   3.066   1.821   9.024  0.7189 -0.4284 -0.4575
  105OSM   C13S10693   2.909   1.669   9.078 -0.0254 -0.9270 -0.5062
  105OSM   H13S10694   2.868   1.711   8.983  0.6700  0.2806 -0.2877
  105OSM   H13T10695   2.844   1.715   9.155  0.4681  1.5049 -1.4392
  105OSM   C14S10696   2.881   1.522   9.075 -0.7995 -0.3499  0.4628
  105OSM   H14S10697   2.952   1.469   9.008 -1.0326  1.2265 -1.1189
  105OSM   H14T10698   2.775   1.507   9.048 -0.9511  0.4784  0.5600
  105OSM   C15S10699   2.917   1.453   9.215  0.8873  0.4651  0.3840
  105OSM   H15S10700   3.023   1.479   9.236  1.3670 -0.3563 -0.8604
  105OSM   H15T10701   2.922   1.342   9.212 -2.0451  0.2700 -0.4598
  105OSM   C16S10702   2.819   1.494   9.330  0.3819  0.2663  0.7691
  105OSM   H16S10703   2.725   1.454   9.286  1.5382 -0.0752 -1.5559
  105OSM   H16T10704   2.802   1.600   9.357  0.8268  0.9758 -1.5145
  105OSM   C17S10705   2.854   1.413   9.450 -0.0375 -0.2674  0.7415
  105OSM   H17S10706   2.949   1.462   9.481  0.2004  0.5113 -1.0704
  105OSM   H17T10707   2.875   1.310   9.416  0.9138  0.2586 -0.3320
  105OSM   C18S10708   2.756   1.407   9.560  0.3127  0.0427 -0.4367
  105OSM   H18S10709   2.788   1.336   9.639 -4.5564 -1.3121  0.6666
  105OSM   H18T10710   2.656   1.374   9.524  1.1612 -0.2166 -2.7695
  105OSM   H18U10711   2.743   1.503   9.615 -1.6185  0.7355 -1.9563
  105OSM    C1F10712   2.914   2.352  10.273  0.4494 -0.4719  0.0490
  105OSM     OF10713   3.008   2.429  10.291  0.8276 -0.7260 -0.1403
  105OSM    C2F10714   2.767   2.384  10.296  0.0097  0.1832 -0.3745
  105OSM    H2F10715   2.759   2.430  10.397  1.2611 -2.5476  1.0768
  105OSM    H2G10716   2.713   2.288  10.310  1.6174 -0.9743 -1.7419
  105OSM    C3F10717   2.697   2.457  10.179 -0.2057 -0.3892 -0.0572
  105OSM    H3F10718   2.745   2.555  10.157  1.1040 -1.0514 -0.2083
  105OSM    H3G10719   2.594   2.488  10.209  1.1148  2.5029  2.0230
  105OSM    C4F10720   2.703   2.377  10.049  0.1303 -0.8157 -0.0273
  105OSM    H4F10721   2.674   2.272  10.072 -0.0323 -0.2756  2.5658
  105OSM    H4G10722   2.808   2.386  10.014  0.9749 -1.2534  2.2175
  105OSM    C5F10723   2.609   2.443   9.942 -0.2978 -0.0507  0.2340
  105OSM    H5F10724   2.642   2.548   9.925 -3.4056  0.9789 -0.1322
  105OSM    H5G10725   2.506   2.458   9.983 -0.4316  0.9739 -0.4328
  105OSM    C6F10726   2.602   2.371   9.806  0.6548 -0.0911  0.1559
  105OSM    H6F10727   2.536   2.421   9.731 -0.4586 -1.8422 -0.1131
  105OSM    H6G10728   2.545   2.276   9.819  0.3649  0.0549 -0.0254
  105OSM    C7F10729   2.735   2.327   9.752 -0.1841  0.1312  1.1205
  105OSM    H7F10730   2.725   2.264   9.661  0.2579 -1.2591  2.0027
  105OSM    H7G10731   2.785   2.261   9.825  2.6755  1.2622  0.3068
  105OSM    C8F10732   2.831   2.448   9.718  0.2132  0.0629 -0.4441
  105OSM    H8F10733   2.922   2.412   9.665  1.3608  2.2819 -0.0975
  105OSM    H8G10734   2.874   2.482   9.815  0.1522  2.0889 -1.0942
  105OSM    C9F10735   2.770   2.545   9.630 -0.0368 -0.0429 -0.3830
  105OSM    H9F10736   2.710   2.613   9.692  0.1652 -1.1087  1.0213
  105OSM   C10F10737   2.774   2.559   9.497 -0.3831  1.2523 -0.4018
  105OSM   H10F10738   2.720   2.641   9.448 -0.1658  0.3806 -2.2038
  105OSM   C11F10739   2.835   2.458   9.397 -0.1800 -0.4150  1.1720
  105OSM   H11F10740   2.873   2.367   9.448  0.3853 -0.2143  1.1185
  105OSM   H11G10741   2.920   2.505   9.344 -1.4223 -0.1510 -0.6520
  105OSM   C12F10742   2.746   2.397   9.285 -0.1991  0.3889  0.6631
  105OSM   H12F10743   2.719   2.469   9.204 -0.4117  1.1637  1.4073
  105OSM   H12G10744   2.656   2.366   9.344  0.1203 -1.3322  0.2982
  105OSM   C13F10745   2.811   2.271   9.219  0.4988 -0.1116  0.2117
  105OSM   H13F10746   2.747   2.217   9.146  1.2244 -2.3530  1.1395
  105OSM   H13G10747   2.833   2.198   9.300 -0.0112 -1.0660 -0.4873
  105OSM   C14F10748   2.943   2.306   9.136  0.3753  0.2958 -0.9591
  105OSM   H14F10749   2.995   2.209   9.121  1.2698  0.7296 -0.6917
  105OSM   H14G10750   3.012   2.373   9.190  0.5062  0.5806 -1.4687
  105OSM   C15F10751   2.915   2.356   8.994 -0.1539  0.3657 -0.8347
  105OSM   H15F10752   3.000   2.410   8.947  1.0218 -1.1205 -0.4806
  105OSM   H15G10753   2.827   2.424   8.989 -2.9520 -2.9602 -0.1817
  105OSM   C16F10754   2.890   2.226   8.907 -0.1406  0.0547 -0.1586
  105OSM   H16F10755   2.787   2.193   8.933 -0.1556 -0.6203 -1.0367
  105OSM   H16G10756   2.969   2.151   8.926 -1.6121 -1.3778  0.6353
  105OSM   C17F10757   2.885   2.272   8.762 -0.6399 -0.3407  0.8048
  105OSM   H17F10758   2.968   2.343   8.742 -0.9051  0.0705  1.1475
  105OSM   H17G10759   2.800   2.341   8.746  0.7835  1.3258  0.2101
  105OSM   C18F10760   2.871   2.160   8.659 -0.4872 -0.3916 -0.6101
  105OSM   H18F10761   2.788   2.089   8.680  0.1859 -0.6530  1.3413
  105OSM   H18G10762   2.969   2.108   8.662 -0.4687 -0.3482 -0.4458
  105OSM   H18H10763   2.866   2.190   8.552  0.3542 -2.7752 -1.3858
  106OSM      N10764   3.705   3.594  10.871 -0.3002  0.0912 -0.1067
  106OSM    C1510765   3.674   3.536  11.006  0.0139 -0.5509  0.0252
  106OSM   H15A10766   3.733   3.447  11.022  0.6035 -0.1913 -0.1322
  106OSM   H15B10767   3.570   3.520  11.030 -0.0771  0.2305  0.1493
  106OSM   H15C10768   3.705   3.601  11.086 -2.8545  0.4519  0.4355
  106OSM    C1410769   3.675   3.480  10.772  0.5634  0.1436 -0.5653
  106OSM   H14A10770   3.569   3.461  10.778  0.7430 -0.9489 -0.6067
  106OSM   H14B10771   3.728   3.388  10.789 -0.2837  0.1615  2.8426
  106OSM   H14C10772   3.700   3.512  10.672 -1.2256  1.8626 -0.5254
  106OSM    C1310773   3.613   3.700  10.839  0.0116 -0.3978 -0.5416
  106OSM   H13A10774   3.619   3.789  10.900 -0.1834  0.4968 -1.7813
  106OSM   H13B10775   3.513   3.659  10.833  0.3662 -1.4095  0.1253
  106OSM   H13C10776   3.642   3.740  10.743  0.7336  2.5833  0.8072
  106OSM    C1210777   3.851   3.640  10.875 -0.0170  0.2294 -0.5608
  106OSM   H12A10778   3.917   3.557  10.897 -0.9172 -0.6212 -0.9770
  106OSM   H12B10779   3.862   3.711  10.956  1.3040 -0.5589 -0.0111
  106OSM    C1110780   3.904   3.698  10.749  0.0843  0.2740  0.1068
  106OSM   H11A10781   3.878   3.615  10.679 -0.3285 -0.8132  1.4977
  106OSM   H11B10782   4.014   3.713  10.740  0.3967 -1.2363  0.9356
  106OSM      P10783   3.861   3.953  10.801 -0.2313 -0.2076  0.1213
  106OSM    O1310784   3.724   4.009  10.816  0.5382  0.0188 -0.2149
  106OSM    O1410785   3.938   3.922  10.926 -0.2993 -0.2935  0.3383
  106OSM    O1110786   3.946   4.050  10.711 -0.1974 -0.5467 -0.5692
  106OSM    O1210787   3.845   3.822  10.714  0.1457  0.2612  0.1189
  106OSM    C1S10788   3.942   4.030  10.571  0.5610  0.1827  0.1921
  106OSM    H1S10789   3.897   3.936  10.535 -0.1590  0.3224  0.6992
  106OSM    H1T10790   4.041   4.040  10.520 -0.6205  2.9927 -1.8414
  106OSM     NF10791   3.876   4.113  10.351  0.1871  0.4066  0.0159
  106OSM    HNF10792   3.911   4.172  10.278 -1.4476 -1.1294 -2.1706
  106OSM    C2S10793   3.876   4.145  10.491  0.4857 -0.1857 -0.4902
  106OSM    H2S10794   3.771   4.156  10.526  1.3794  0.2757  2.3141
  106OSM    C3S10795   3.941   4.281  10.517  0.3440  1.4055 -0.3565
  106OSM    H3S10796   4.046   4.257  10.489 -0.5330  0.3530 -3.1717
  106OSM     O310797   3.975   4.313  10.657  0.2526 -0.5089  0.5188
  106OSM    HO310798   3.952   4.235  10.709  2.9505 -1.2053  0.8397
  106OSM    C4S10799   3.876   4.398  10.451  1.0131 -0.3050  0.3520
  106OSM    H4S10800   3.932   4.434  10.364 -0.0731  1.2932  0.2730
  106OSM    C5S10801   3.779   4.477  10.492  0.4237  0.2760  0.2792
  106OSM    H5S10802   3.733   4.450  10.588  0.0501  1.2415  0.3781
  106OSM    C6S10803   3.713   4.587  10.426  0.9820  0.0248 -0.1728
  106OSM    H6S10804   3.719   4.672  10.497  1.1886  0.5994 -0.8586
  106OSM    H6T10805   3.604   4.564  10.419  1.3228 -1.5642 -0.6237
  106OSM    C7S10806   3.764   4.643  10.292  0.3272  0.5654  0.0305
  106OSM    H7S10807   3.745   4.567  10.213  0.7263 -0.6517  1.0782
  106OSM    H7T10808   3.875   4.654  10.294  0.2516  1.3797  0.1005
  106OSM    C8S10809   3.701   4.772  10.240 -0.0414  0.5330  0.1631
  106OSM    H8S10810   3.771   4.856  10.261  1.2157 -0.4504  0.0108
  106OSM    H8T10811   3.612   4.785  10.304 -0.7238 -0.0395 -0.6535
  106OSM    C9S10812   3.662   4.757  10.092  0.2008 -0.3367 -0.8063
  106OSM    H9S10813   3.566   4.702  10.099  0.5107 -0.7897  0.0685
  106OSM    H9T10814   3.738   4.690  10.044 -0.4271 -2.9859  1.6178
  106OSM   C10S10815   3.639   4.898  10.021  0.2259  0.0559  0.9533
  106OSM   H10S10816   3.736   4.952  10.023  2.5008 -3.7026  2.5271
  106OSM   H10T10817   3.569   4.970  10.069  0.8264  1.9907 -0.9160
  106OSM   C11S10818   3.592   4.879   9.877 -0.1330  0.7017  0.1219
  106OSM   H11S10819   3.488   4.840   9.883  0.4309 -0.8326  0.5906
  106OSM   H11T10820   3.654   4.806   9.822 -1.1203 -0.4424  0.4853
  106OSM   C12S10821   3.611   5.011   9.807 -0.3693  0.0670  0.4649
  106OSM   H12S10822   3.718   5.036   9.795 -0.3570  0.4285  1.2356
  106OSM   H12T10823   3.574   5.095   9.869 -1.9101 -0.3736  0.1867
  106OSM   C13S10824   3.553   5.012   9.665  0.2291  0.2484 -0.6405
  106OSM   H13S10825   3.442   5.017   9.669  0.2915  1.1551  0.3256
  106OSM   H13T10826   3.578   4.913   9.620  0.6500 -0.1698  0.4730
  106OSM   C14S10827   3.598   5.127   9.573  0.1098 -0.3628 -0.4427
  106OSM   H14S10828   3.708   5.142   9.572  0.0900 -0.0856  0.5915
  106OSM   H14T10829   3.555   5.217   9.620  0.6506 -0.7237  0.7703
  106OSM   C15S10830   3.537   5.106   9.432  0.1528 -0.0826 -0.5663
  106OSM   H15S10831   3.429   5.085   9.441  0.2132  0.2895  1.5847
  106OSM   H15T10832   3.569   5.018   9.372 -0.9581 -1.9907  1.4853
  106OSM   C16S10833   3.558   5.234   9.357  0.6950  0.5520 -0.1049
  106OSM   H16S10834   3.666   5.241   9.332  0.6995  0.2865 -0.1658
  106OSM   H16T10835   3.528   5.321   9.420  0.5510  0.8495 -0.5810
  106OSM   C17S10836   3.463   5.257   9.241 -0.1174 -0.0438  0.2178
  106OSM   H17S10837   3.358   5.281   9.269 -0.6138  1.0202 -2.3025
  106OSM   H17T10838   3.459   5.159   9.190 -1.5041 -1.5134  2.9468
  106OSM   C18S10839   3.516   5.358   9.135  0.5549  0.5250 -0.3570
  106OSM   H18S10840   3.617   5.336   9.094  0.4883  0.6292 -0.5780
  106OSM   H18T10841   3.525   5.460   9.179 -1.3173  1.2698 -1.5961
  106OSM   H18U10842   3.441   5.349   9.054  0.4162 -1.3997 -0.0596
  106OSM    C1F10843   3.798   4.009  10.311 -0.0834  0.0522 -0.2461
  106OSM     OF10844   3.705   3.972  10.381 -0.5221 -0.1569  0.1636
  106OSM    C2F10845   3.838   3.962  10.177  0.1361 -0.1065  0.3209
  106OSM    H2F10846   3.948   3.951  10.187 -0.1752 -3.6603  0.9788
  106OSM    H2G10847   3.806   4.029  10.094 -2.6486 -1.6964 -0.0095
  106OSM    C3F10848   3.785   3.814  10.142  0.1010  0.1561  0.3182
  106OSM    H3F10849   3.682   3.815  10.183 -0.3985 -1.8959 -0.7663
  106OSM    H3G10850   3.844   3.733  10.191  0.3631 -0.6761 -1.3108
  106OSM    C4F10851   3.790   3.772   9.996  0.3234 -0.2227 -0.4879
  106OSM    H4F10852   3.891   3.808   9.966 -0.5425  1.8273 -1.0831
  106OSM    H4G10853   3.716   3.833   9.940 -0.1460 -0.1586  0.1914
  106OSM    C5F10854   3.766   3.624   9.989 -0.4845 -0.6498 -0.1466
  106OSM    H5F10855   3.686   3.589  10.057 -1.8173 -0.4067 -1.5257
  106OSM    H5G10856   3.860   3.572  10.016  0.0933  0.5456  0.2500
  106OSM    C6F10857   3.742   3.579   9.837 -1.2140  0.0018 -0.7351
  106OSM    H6F10858   3.645   3.619   9.800 -1.3240  0.1644 -0.2822
  106OSM    H6G10859   3.735   3.468   9.837  1.8986 -0.4009  2.9351
  106OSM    C7F10860   3.862   3.620   9.750 -0.5439  0.2704 -0.5971
  106OSM    H7F10861   3.932   3.534   9.741 -0.5501  0.3761 -1.8074
  106OSM    H7G10862   3.921   3.704   9.791  2.8944 -2.2539  0.0359
  106OSM    C8F10863   3.818   3.657   9.610 -0.4671 -0.4057  0.5759
  106OSM    H8F10864   3.898   3.717   9.562 -0.6659  1.6612  2.6756
  106OSM    H8G10865   3.730   3.724   9.617 -1.4919 -1.6905  0.5662
  106OSM    C9F10866   3.769   3.540   9.532  0.9503 -0.2757 -0.1310
  106OSM    H9F10867   3.670   3.506   9.565  1.6255 -1.5180  0.6895
  106OSM   C10F10868   3.833   3.474   9.434  0.1683  0.1033 -0.1448
  106OSM   H10F10869   3.778   3.389   9.390  0.6311  0.7541 -2.0897
  106OSM   C11F10870   3.973   3.502   9.388  0.2253 -0.3444  0.5940
  106OSM   H11F10871   4.033   3.409   9.375  0.5293 -0.5238  2.8604
  106OSM   H11G10872   4.036   3.559   9.459  0.1540 -0.4507  0.7426
  106OSM   C12F10873   3.969   3.581   9.254 -0.3334  0.3408 -0.2591
  106OSM   H12F10874   4.068   3.631   9.246 -0.3130  0.1777 -1.1919
  106OSM   H12G10875   3.893   3.662   9.258 -1.6410 -0.8778  0.3742
  106OSM   C13F10876   3.966   3.497   9.124 -0.3661 -0.2993 -0.1855
  106OSM   H13F10877   3.892   3.414   9.130  0.6202 -1.2502 -0.8856
  106OSM   H13G10878   4.052   3.428   9.116  0.0092  0.2733 -1.1941
  106OSM   C14F10879   3.951   3.574   8.992  0.3458  0.6808  0.4451
  106OSM   H14F10880   3.977   3.512   8.903 -0.2077  2.2852 -0.8804
  106OSM   H14G10881   4.021   3.659   8.978  0.4291  0.6027  0.3845
  106OSM   C15F10882   3.811   3.636   8.974  0.0834 -0.2191  0.0021
  106OSM   H15F10883   3.798   3.733   9.026  2.7237 -0.7089  1.7620
  106OSM   H15G10884   3.733   3.565   9.008  0.1588  0.1953  1.0576
  106OSM   C16F10885   3.784   3.676   8.824  0.5937  0.1611  0.2839
  106OSM   H16F10886   3.870   3.720   8.769 -0.2902  1.3733 -0.1417
  106OSM   H16G10887   3.709   3.757   8.818  1.5022  1.0091  0.2511
  106OSM   C17F10888   3.731   3.561   8.743  0.4430  0.2220  0.1739
  106OSM   H17F10889   3.643   3.514   8.792 -0.5805  0.9007 -0.9409
  106OSM   H17G10890   3.805   3.478   8.739  1.6506  1.3047 -2.3942
  106OSM   C18F10891   3.697   3.582   8.598 -0.4624 -0.4295 -0.4655
  106OSM   H18F10892   3.791   3.609   8.544  1.5345 -0.6003  2.6583
  106OSM   H18G10893   3.630   3.670   8.591  0.5370  0.3873 -0.0239
  106OSM   H18H10894   3.658   3.491   8.548  0.5731 -0.1913 -1.7793
  107OSM      N10895   4.777   6.814  10.946  0.2213  0.2334 -0.0353
  107OSM    C1510896   4.651   6.765  10.888 -0.6567 -0.7120 -0.5834
  107OSM   H15A10897   4.669   6.673  10.835  1.7338  0.0827 -1.3017
  107OSM   H15B10898   4.612   6.826  10.808  0.7261  0.1678 -0.6190
  107OSM   H15C10899   4.570   6.760  10.960 -0.1100  0.2504  0.1264
  107OSM    C1410900   4.756   6.949  10.994  0.1547 -0.4739 -0.1032
  107OSM   H14A10901   4.720   7.008  10.912 -0.9200  0.2425  0.8505
  107OSM   H14B10902   4.850   6.995  11.020 -0.1933  0.2559 -0.1043
  107OSM   H14C10903   4.691   6.955  11.080  0.9850 -1.7954  0.6562
  107OSM    C1310904   4.832   6.724  11.056  0.0265  0.2261  0.2859
  107OSM   H13A10905   4.838   6.626  11.010  0.4261  0.1528  0.4894
  107OSM   H13B10906   4.767   6.739  11.141  0.3249  1.8376  0.2535
  107OSM   H13C10907   4.930   6.760  11.083  0.3191  0.9918 -1.6625
  107OSM    C1210908   4.876   6.823  10.834  0.4162  0.0716  0.6708
  107OSM   H12A10909   4.955   6.878  10.884  0.0246 -0.6489  2.1266
  107OSM   H12B10910   4.830   6.880  10.754  1.0575  0.8006  0.8048
  107OSM    C1110911   4.930   6.696  10.748  0.1103 -0.1434  1.1744
  107OSM   H11A10912   4.996   6.742  10.671 -1.9559  0.9880  0.0015
  107OSM   H11B10913   4.842   6.649  10.700  0.3024 -1.0816  1.7210
  107OSM      P10914   5.156   6.575  10.821  0.1402 -0.3295 -0.2906
  107OSM    O1310915   5.228   6.705  10.839 -0.1442  0.0607  0.3053
  107OSM    O1410916   5.186   6.459  10.910  0.1734 -0.6638  0.5035
  107OSM    O1110917   5.166   6.534  10.664  0.1912 -0.2952  0.1890
  107OSM    O1210918   4.998   6.597  10.832 -0.3132 -0.2487 -0.5308
  107OSM    C1S10919   5.106   6.417  10.620  0.5355  0.1556 -0.6317
  107OSM    H1S10920   4.995   6.425  10.632  0.4002  0.7791 -2.0374
  107OSM    H1T10921   5.129   6.327  10.680  0.0086  0.1280 -0.4619
  107OSM     NF10922   5.042   6.297  10.429 -0.3834  0.2930 -0.0751
  107OSM    HNF10923   5.043   6.202  10.458  2.5984  0.4231  0.4703
  107OSM    C2S10924   5.147   6.384  10.482  0.4134  0.0134  0.4796
  107OSM    H2S10925   5.144   6.480  10.426  2.5900  0.1604  0.5249
  107OSM    C3S10926   5.285   6.318  10.486  0.1180 -0.1128  0.1906
  107OSM    H3S10927   5.277   6.230  10.552 -2.0747  1.5355  2.2985
  107OSM     O310928   5.384   6.392  10.555 -0.1341  0.5198 -0.3374
  107OSM    HO310929   5.335   6.447  10.617  2.2760  0.6228  1.6578
  107OSM    C4S10930   5.337   6.280  10.350  0.7487  0.4564 -0.0568
  107OSM    H4S10931   5.343   6.173  10.326 -0.2172  0.5612 -0.8489
  107OSM    C5S10932   5.386   6.363  10.264 -0.1130 -0.3196  0.2361
  107OSM    H5S10933   5.388   6.468  10.296  0.6943 -0.6388  1.2832
  107OSM    C6S10934   5.443   6.316  10.137  1.4050 -0.2847 -0.3731
  107OSM    H6S10935   5.500   6.221  10.148  0.4360 -0.7296  1.0478
  107OSM    H6T10936   5.519   6.387  10.098  0.7143  1.6381  1.5505
  107OSM    C7S10937   5.335   6.309  10.028  0.1931 -0.0970 -0.5225
  107OSM    H7S10938   5.297   6.410  10.002  0.6040  0.1463 -0.1842
  107OSM    H7T10939   5.254   6.238  10.056 -0.7278  0.8240 -0.7760
  107OSM    C8S10940   5.393   6.260   9.896 -0.3119 -0.0034  0.2978
  107OSM    H8S10941   5.456   6.169   9.906  1.0675  0.4669 -3.0247
  107OSM    H8T10942   5.470   6.330   9.859  0.7172  0.9356  3.8028
  107OSM    C9S10943   5.287   6.236   9.782 -0.2142  0.1058 -0.1241
  107OSM    H9S10944   5.235   6.333   9.775 -0.0431  0.1734 -0.4649
  107OSM    H9T10945   5.218   6.155   9.814  1.4618 -0.9640  0.9959
  107OSM   C10S10946   5.355   6.197   9.652  0.1542 -0.2018  0.5661
  107OSM   H10S10947   5.404   6.100   9.673  0.9909  0.8052  3.8411
  107OSM   H10T10948   5.440   6.268   9.638  0.6635 -0.5199  1.9504
  107OSM   C11S10949   5.259   6.198   9.534 -0.6108 -0.1519 -0.1808
  107OSM   H11S10950   5.220   6.301   9.521 -1.8359  0.0269  3.7382
  107OSM   H11T10951   5.161   6.155   9.563 -0.8285 -0.2912 -1.0948
  107OSM   C12S10952   5.312   6.140   9.387  0.0936  0.3810 -0.2334
  107OSM   H12S10953   5.305   6.029   9.394  2.6756  0.2172  1.0292
  107OSM   H12T10954   5.421   6.158   9.376  0.8322 -2.0959  1.9193
  107OSM   C13S10955   5.228   6.196   9.273  0.7070  0.2814  0.5900
  107OSM   H13S10956   5.236   6.307   9.268  2.2488  0.3467  2.8492
  107OSM   H13T10957   5.126   6.167   9.307 -0.0023  2.8286  0.8691
  107OSM   C14S10958   5.259   6.132   9.141 -0.1632 -0.4057  0.3210
  107OSM   H14S10959   5.265   6.023   9.158  0.9218 -0.0967  2.2002
  107OSM   H14T10960   5.362   6.156   9.107 -0.9074  2.2339 -0.2866
  107OSM   C15S10961   5.144   6.161   9.039 -0.2965 -0.1591 -0.0917
  107OSM   H15S10962   5.046   6.159   9.091 -0.3657 -0.9806 -0.2334
  107OSM   H15T10963   5.131   6.094   8.951 -0.6575 -1.2207  0.7451
  107OSM   C16S10964   5.176   6.301   8.980  1.2969 -0.7287  0.4047
  107OSM   H16S10965   5.275   6.306   8.929  1.3199  0.1692  0.5242
  107OSM   H16T10966   5.179   6.381   9.057  1.0985  1.2803 -1.5636
  107OSM   C17S10967   5.075   6.359   8.876  0.8322 -0.9064 -0.6864
  107OSM   H17S10968   4.977   6.383   8.923  0.7877 -0.3075 -1.0630
  107OSM   H17T10969   5.041   6.286   8.801  1.2187  1.1308 -2.9730
  107OSM   C18S10970   5.120   6.491   8.808  0.2155  0.0883 -0.5606
  107OSM   H18S10971   5.223   6.475   8.768  0.6480  3.3943 -1.0313
  107OSM   H18T10972   5.120   6.575   8.881 -2.3841 -0.2126 -0.1390
  107OSM   H18U10973   5.059   6.518   8.720  1.6723  0.9685 -1.3339
  107OSM    C1F10974   4.929   6.353  10.386 -0.0145 -0.2708  0.1708
  107OSM     OF10975   4.920   6.474  10.371 -0.1212 -0.2314  0.0034
  107OSM    C2F10976   4.806   6.262  10.372 -0.3663 -0.1900 -0.6975
  107OSM    H2F10977   4.786   6.233  10.477  0.0339  0.2486 -0.4939
  107OSM    H2G10978   4.838   6.174  10.313  1.0503  0.3799 -0.8109
  107OSM    C3F10979   4.682   6.327  10.308  0.3746 -0.5889  0.4267
  107OSM    H3F10980   4.710   6.353  10.203  1.9159 -0.2971  0.8926
  107OSM    H3G10981   4.659   6.413  10.373 -2.0409 -0.8672  0.0484
  107OSM    C4F10982   4.560   6.230  10.312  0.8028 -0.3837  0.1921
  107OSM    H4F10983   4.473   6.290  10.278  1.5524  0.6539  0.0569
  107OSM    H4G10984   4.537   6.199  10.416 -0.3090  1.1717  0.4518
  107OSM    C5F10985   4.574   6.102  10.224  0.0011 -0.2565  0.4369
  107OSM    H5F10986   4.666   6.048  10.258 -0.0258 -0.4647  0.1852
  107OSM    H5G10987   4.591   6.138  10.120  1.8751  0.0141  0.7959
  107OSM    C6F10988   4.452   6.012  10.235  0.9231  0.5385 -0.4343
  107OSM    H6F10989   4.368   6.081  10.216 -0.7248 -1.5417 -1.1059
  107OSM    H6G10990   4.425   5.990  10.341 -2.1305  3.4561 -0.4561
  107OSM    C7F10991   4.447   5.879  10.153 -0.4049  0.7215  0.1128
  107OSM    H7F10992   4.364   5.815  10.191 -1.9539  2.4401 -0.2294
  107OSM    H7G10993   4.543   5.826  10.169 -1.2939 -0.7348  0.9421
  107OSM    C8F10994   4.428   5.907  10.004 -0.0657 -0.7057  0.0032
  107OSM    H8F10995   4.451   5.809   9.956  2.0065 -1.1771  1.8017
  107OSM    H8G10996   4.501   5.985   9.974 -0.1312  0.8177  3.4036
  107OSM    C9F10997   4.291   5.962   9.971 -0.5845 -0.4882  1.0205
  107OSM    H9F10998   4.252   6.043  10.034 -1.2328  0.3248 -0.3864
  107OSM   C10F10999   4.210   5.923   9.871  0.7278  0.4944 -0.0828
  107OSM   H10F11000   4.123   5.989   9.857  0.0035 -0.7097 -1.5054
  107OSM   C11F11001   4.214   5.815   9.774  0.5349  0.3015  0.6783
  107OSM   H11F11002   4.135   5.738   9.782  1.3571 -0.4721  1.5533
  107OSM   H11G11003   4.304   5.752   9.791  0.5197 -0.6306 -2.1989
  107OSM   C12F11004   4.214   5.861   9.628 -0.5415 -0.7544 -0.1984
  107OSM   H12F11005   4.294   5.937   9.610  0.4049 -1.6710  0.0630
  107OSM   H12G11006   4.120   5.909   9.593 -1.1976 -2.7780 -1.3762
  107OSM   C13F11007   4.238   5.746   9.532 -0.7971 -0.0423  0.0136
  107OSM   H13F11008   4.154   5.673   9.528  1.0019 -2.2744  0.6183
  107OSM   H13G11009   4.328   5.690   9.564  0.6423  2.5543  0.8041
  107OSM   C14F11010   4.255   5.808   9.392  0.0112  0.3524  0.4562
  107OSM   H14F11011   4.341   5.878   9.404 -0.0553  0.4887  0.1383
  107OSM   H14G11012   4.167   5.862   9.352  0.1790 -0.5778 -1.2532
  107OSM   C15F11013   4.294   5.699   9.294 -0.1900  0.4065  0.8209
  107OSM   H15F11014   4.213   5.624   9.303 -1.4932  1.8440  1.5023
  107OSM   H15G11015   4.392   5.650   9.314  0.6502  1.5146 -0.4009
  107OSM   C16F11016   4.281   5.750   9.143  0.1963 -0.2042 -1.0399
  107OSM   H16F11017   4.342   5.841   9.126  0.8169 -0.0567  1.5463
  107OSM   H16G11018   4.179   5.785   9.114  0.5256  1.9086  0.1252
  107OSM   C17F11019   4.338   5.651   9.045 -0.5774 -0.2355 -0.5694
  107OSM   H17F11020   4.277   5.558   9.060 -0.9890  0.3005  1.3666
  107OSM   H17G11021   4.433   5.608   9.082 -0.6882  0.9718  1.2511
  107OSM   C18F11022   4.349   5.681   8.898  0.6922 -1.0514 -0.7155
  107OSM   H18F11023   4.369   5.790   8.891 -1.6342 -0.4339  0.9423
  107OSM   H18G11024   4.254   5.663   8.843 -2.1023 -1.1814  3.6585
  107OSM   H18H11025   4.431   5.619   8.857 -1.0552 -2.1455 -2.7272
  108OSM      N11026   3.427   4.428  11.034 -0.4468 -0.0187  0.3805
  108OSM    C1511027   3.431   4.527  10.920 -0.2804  0.7113  0.2497
  108OSM   H15A11028   3.488   4.615  10.943  0.9056  0.7512 -2.4327
  108OSM   H15B11029   3.335   4.561  10.882 -0.3426 -0.4953 -0.7564
  108OSM   H15C11030   3.484   4.488  10.834 -1.1787  1.9235 -0.8886
  108OSM    C1411031   3.567   4.428  11.090  0.1481  0.2079 -0.0555
  108OSM   H14A11032   3.579   4.370  11.180  1.5445  1.0997  0.3589
  108OSM   H14B11033   3.602   4.527  11.115  0.1520  0.2870 -0.3679
  108OSM   H14C11034   3.641   4.394  11.019  0.7454  1.3715  0.0014
  108OSM    C1311035   3.331   4.471  11.140  0.0198  0.4936  0.0006
  108OSM   H13A11036   3.229   4.479  11.106 -0.4808  0.3928  1.4077
  108OSM   H13B11037   3.350   4.569  11.180 -1.8577  0.5511  0.8651
  108OSM   H13C11038   3.330   4.398  11.219 -3.5678 -0.8764 -1.0908
  108OSM    C1211039   3.393   4.286  10.983 -0.3804  0.3059 -0.4510
  108OSM   H12A11040   3.404   4.215  11.063 -0.4872 -0.0170 -0.7158
  108OSM   H12B11041   3.458   4.267  10.899 -0.4511 -0.6210 -0.3040
  108OSM    C1111042   3.255   4.273  10.918  0.2862  0.1079 -0.1908
  108OSM   H11A11043   3.238   4.354  10.843 -1.0907  3.1771  3.1581
  108OSM   H11B11044   3.180   4.278  11.000  0.6022 -2.1782  0.3065
  108OSM      P11045   3.093   4.099  10.824  0.0655 -0.0758 -0.2649
  108OSM    O1311046   3.081   3.961  10.771 -0.5657 -0.3622  0.2125
  108OSM    O1411047   3.009   4.130  10.942 -0.4811 -0.0344  0.1958
  108OSM    O1111048   3.043   4.199  10.712  0.1682  0.4878  0.1039
  108OSM    O1211049   3.243   4.142  10.854 -0.1198  0.4175 -0.3246
  108OSM    C1S11050   3.112   4.228  10.588  0.2408 -1.2613 -0.3330
  108OSM    H1S11051   3.220   4.251  10.603  0.8132 -0.0862 -4.6479
  108OSM    H1T11052   3.059   4.313  10.538 -1.6439 -2.7148 -0.9222
  108OSM     NF11053   3.145   4.182  10.351 -0.2838 -0.9722  0.3939
  108OSM    HNF11054   3.102   4.247  10.289 -1.0512 -1.1258  0.7422
  108OSM    C2S11055   3.076   4.132  10.469  0.2471 -0.7897  0.3582
  108OSM    H2S11056   3.118   4.034  10.498  0.7276 -0.1768  1.8098
  108OSM    C3S11057   2.919   4.120  10.447 -0.0295 -0.4003  0.0816
  108OSM    H3S11058   2.875   4.221  10.438 -0.8036 -0.5913  1.4422
  108OSM     O311059   2.843   4.068  10.557 -0.0094 -0.1579 -0.2014
  108OSM    HO311060   2.907   4.044  10.625 -1.2121 -1.2493  0.5971
  108OSM    C4S11061   2.892   4.040  10.317 -0.5332  0.6360 -0.5116
  108OSM    H4S11062   2.865   4.103  10.231  2.8578  0.3683 -1.9144
  108OSM    C5S11063   2.913   3.905  10.301  0.2871  0.1982  0.3664
  108OSM    H5S11064   2.941   3.846  10.389  1.0758  1.0310  0.6858
  108OSM    C6S11065   2.879   3.827  10.168 -1.0303 -0.0046  0.7225
  108OSM    H6S11066   2.818   3.738  10.195 -0.7679 -0.1059  0.9963
  108OSM    H6T11067   2.972   3.782  10.128 -1.2823  2.4240 -3.1278
  108OSM    C7S11068   2.801   3.895  10.057 -0.6617 -0.0220 -0.0477
  108OSM    H7S11069   2.853   3.986  10.021  0.3667 -1.0483 -1.2085
  108OSM    H7T11070   2.695   3.925  10.075 -0.3137  0.6728  0.9744
  108OSM    C8S11071   2.815   3.805   9.932 -0.0192  0.0094 -0.4218
  108OSM    H8S11072   2.730   3.737   9.908  1.4127 -2.6513  1.4241
  108OSM    H8T11073   2.893   3.729   9.953 -1.2324 -0.8645  1.2356
  108OSM    C9S11074   2.858   3.885   9.805  0.3490 -0.3836  0.2020
  108OSM    H9S11075   2.944   3.946   9.840 -0.6171 -0.8173  3.6699
  108OSM    H9T11076   2.767   3.943   9.777 -0.7000 -2.3130 -0.6511
  108OSM   C10S11077   2.887   3.788   9.694 -0.5212 -0.5695 -0.0959
  108OSM   H10S11078   2.808   3.711   9.678  0.6999 -1.2813 -3.9818
  108OSM   H10T11079   2.976   3.727   9.722  0.9362  0.8830 -1.3970
  108OSM   C11S11080   2.907   3.851   9.557 -0.2191  0.2749  0.6851
  108OSM   H11S11081   2.999   3.912   9.561  0.0134  0.1201 -1.3971
  108OSM   H11T11082   2.826   3.925   9.536 -0.8620 -0.7814 -0.6822
  108OSM   C12S11083   2.909   3.753   9.437  0.5691 -0.3482 -0.2975
  108OSM   H12S11084   2.805   3.723   9.413  0.2347 -0.1087  0.7961
  108OSM   H12T11085   2.961   3.661   9.471  1.8832  0.3480 -0.3468
  108OSM   C13S11086   2.979   3.819   9.312  0.0380  0.5064  0.1730
  108OSM   H13S11087   3.084   3.841   9.340  1.3232  0.2621 -3.7524
  108OSM   H13T11088   2.932   3.917   9.291  0.9101  0.4240 -2.5410
  108OSM   C14S11089   2.971   3.736   9.180  0.1692 -0.0907 -0.7556
  108OSM   H14S11090   2.864   3.707   9.179  1.1605 -4.5421  0.3455
  108OSM   H14T11091   3.029   3.643   9.197 -1.3432 -1.1510 -1.1637
  108OSM   C15S11092   3.036   3.798   9.054 -0.5084  0.4790 -0.5795
  108OSM   H15S11093   3.015   3.733   8.966 -1.1149  1.0121 -0.8282
  108OSM   H15T11094   3.146   3.806   9.073 -0.7472 -0.9605  1.7569
  108OSM   C16S11095   2.977   3.934   9.019 -0.2955 -0.3817  0.5483
  108OSM   H16S11096   3.046   3.981   8.946  0.3895  1.8252  2.4725
  108OSM   H16T11097   2.982   4.007   9.103  5.1927  2.9848 -2.1061
  108OSM   C17S11098   2.845   3.916   8.957 -0.4085  0.0066  0.8349
  108OSM   H17S11099   2.774   3.849   9.011  0.3254  0.7305  2.7620
  108OSM   H17T11100   2.872   3.868   8.860 -1.3634 -3.2626  2.0505
  108OSM   C18S11101   2.771   4.050   8.936  0.2960  0.8317 -0.2209
  108OSM   H18S11102   2.693   4.028   8.860 -0.8730 -1.7999  1.5639
  108OSM   H18T11103   2.840   4.128   8.898  0.2908  1.4439  0.9814
  108OSM   H18U11104   2.728   4.091   9.030 -2.3613  0.6246 -1.2529
  108OSM    C1F11105   3.277   4.177  10.358 -0.4953 -0.9012 -0.4983
  108OSM     OF11106   3.342   4.122  10.453 -0.9933  0.0327 -0.5068
  108OSM    C2F11107   3.341   4.259  10.251 -1.1499 -0.1358 -0.7626
  108OSM    H2F11108   3.329   4.367  10.273 -1.5745 -0.0497 -1.4110
  108OSM    H2G11109   3.293   4.244  10.152  0.6769  1.8751 -2.0550
  108OSM    C3F11110   3.491   4.235  10.247 -0.2368  0.6951 -0.2121
  108OSM    H3F11111   3.522   4.141  10.198 -0.9201  0.8341 -0.9397
  108OSM    H3G11112   3.541   4.227  10.345 -0.1249  0.6983 -0.2687
  108OSM    C4F11113   3.562   4.340  10.163  0.1031  0.8385  0.0458
  108OSM    H4F11114   3.670   4.321  10.146 -0.3446  0.2606 -2.4478
  108OSM    H4G11115   3.538   4.437  10.213 -1.7495 -0.2562  1.4325
  108OSM    C5F11116   3.507   4.340  10.018 -0.4574  0.5785 -0.3689
  108OSM    H5F11117   3.398   4.362  10.009 -0.9334 -0.6741  1.7936
  108OSM    H5G11118   3.508   4.233   9.990 -1.4263  0.4988 -0.1286
  108OSM    C6F11119   3.589   4.433   9.931  0.0437  0.2695 -0.1911
  108OSM    H6F11120   3.697   4.407   9.935  0.8851  3.4866  2.1470
  108OSM    H6G11121   3.569   4.535   9.971  1.6467 -0.0988  1.6979
  108OSM    C7F11122   3.539   4.422   9.782 -0.1147  0.1713 -0.6043
  108OSM    H7F11123   3.437   4.465   9.776 -0.3961 -0.2699  0.6771
  108OSM    H7G11124   3.521   4.315   9.760 -0.1756  0.1843 -0.6200
  108OSM    C8F11125   3.622   4.514   9.685 -0.0766  1.0464 -0.2797
  108OSM    H8F11126   3.728   4.489   9.709 -0.7305 -1.2408  0.4725
  108OSM    H8G11127   3.595   4.615   9.723 -0.5750  0.5116  0.7985
  108OSM    C9F11128   3.589   4.501   9.541 -0.3176 -0.1749 -0.7421
  108OSM    H9F11129   3.657   4.441   9.478 -1.6011 -0.7659 -1.6178
  108OSM   C10F11130   3.493   4.557   9.472 -0.4334  0.5326  0.6316
  108OSM   H10F11131   3.487   4.543   9.363  1.2625 -2.3738  0.8108
  108OSM   C11F11132   3.385   4.654   9.526 -0.1490 -0.1109  0.1913
  108OSM   H11F11133   3.402   4.695   9.628 -3.0756  1.6939  0.0698
  108OSM   H11G11134   3.291   4.598   9.543  0.0420 -0.8808 -1.1331
  108OSM   C12F11135   3.354   4.768   9.433 -0.6864 -1.2405  0.3121
  108OSM   H12F11136   3.444   4.808   9.381 -1.6740 -0.0098 -0.4946
  108OSM   H12G11137   3.326   4.859   9.489  1.3879  0.8583 -1.8055
  108OSM   C13F11138   3.243   4.743   9.332  0.4363 -0.1769  0.9786
  108OSM   H13F11139   3.163   4.686   9.383 -1.4680 -0.1027 -1.7156
  108OSM   H13G11140   3.287   4.671   9.260  1.8594 -1.1479  2.7539
  108OSM   C14F11141   3.181   4.869   9.270 -0.0151  0.1702 -0.1365
  108OSM   H14F11142   3.170   4.957   9.337  0.0172 -0.8175  1.2071
  108OSM   H14G11143   3.080   4.835   9.237  1.1710 -1.2428 -2.5544
  108OSM   C15F11144   3.265   4.922   9.148  0.5179 -1.2831  0.5503
  108OSM   H15F11145   3.266   4.851   9.063  0.1408  1.0844 -1.5428
  108OSM   H15G11146   3.370   4.940   9.182  2.0906 -3.9722 -2.3532
  108OSM   C16F11147   3.211   5.055   9.085  0.1440 -0.5657  0.6712
  108OSM   H16F11148   3.289   5.099   9.020 -0.2866  0.9066  1.1228
  108OSM   H16G11149   3.195   5.125   9.170 -0.8771  0.4205 -0.3004
  108OSM   C17F11150   3.078   5.039   9.011 -0.4978 -0.4071  0.0995
  108OSM   H17F11151   3.033   5.139   9.000  0.2432 -0.2258 -1.6394
  108OSM   H17G11152   3.008   4.995   9.084 -1.4364 -0.1570 -0.6382
  108OSM   C18F11153   3.097   4.951   8.891  0.6136 -0.3803  0.3127
  108OSM   H18F11154   3.186   4.985   8.835  0.4592 -2.2384 -1.1646
  108OSM   H18G11155   2.998   4.946   8.839  0.8636  0.5074 -0.2694
  108OSM   H18H11156   3.120   4.849   8.928  0.1965 -1.4637 -2.1883
  109OSM      N11157   6.830   5.785  11.098  0.0568 -1.1004  0.6249
  109OSM    C1511158   6.823   5.661  11.189  0.0262 -0.3651  0.7008
  109OSM   H15A11159   6.867   5.692  11.282  2.1903  0.0014 -0.3876
  109OSM   H15B11160   6.880   5.578  11.151 -2.7594 -2.1039 -0.0278
  109OSM   H15C11161   6.719   5.630  11.189 -0.1595  0.2506  0.9084
  109OSM    C1411162   6.709   5.868  11.128 -0.5026  0.6572  0.4376
  109OSM   H14A11163   6.626   5.823  11.076  1.7340 -1.0494 -1.9861
  109OSM   H14B11164   6.721   5.967  11.088 -0.3222 -0.1942 -1.8033
  109OSM   H14C11165   6.691   5.874  11.234 -0.0255  1.7246  0.4710
  109OSM    C1311166   6.957   5.872  11.129 -0.0667  0.1917  0.1129
  109OSM   H13A11167   7.050   5.818  11.117  0.5101  0.8641  1.3854
  109OSM   H13B11168   6.963   5.910  11.230  1.4844 -1.7917  0.8208
  109OSM   H13C11169   6.958   5.950  11.054  2.4853  0.3634  0.2628
  109OSM    C1211170   6.829   5.748  10.948 -0.3583  0.1510  0.5632
  109OSM   H12A11171   6.744   5.685  10.928  1.1618 -1.0820 -2.7408
  109OSM   H12B11172   6.919   5.692  10.925  0.1452  1.4868 -0.8828
  109OSM    C1111173   6.817   5.859  10.838 -0.3302 -0.4218  0.0021
  109OSM   H11A11174   6.733   5.928  10.865  0.3664  0.9720 -1.2162
  109OSM   H11B11175   6.800   5.810  10.739 -0.1106 -1.0691  0.2872
  109OSM      P11176   7.076   5.900  10.775  0.1951  0.2055 -0.0473
  109OSM    O1311177   7.172   6.009  10.799  0.6859 -0.5147 -0.6837
  109OSM    O1411178   7.117   5.768  10.817 -0.3565 -0.5703 -0.1816
  109OSM    O1111179   7.033   5.895  10.616 -0.1429 -0.6709  0.2856
  109OSM    O1211180   6.937   5.946  10.836 -0.0250 -0.2510 -0.2420
  109OSM    C1S11181   6.952   5.993  10.540  0.2244 -0.0010  0.0452
  109OSM    H1S11182   7.004   6.091  10.541 -0.4972  0.3805  1.4003
  109OSM    H1T11183   6.849   5.995  10.582  0.5021  0.9880  0.7058
  109OSM     NF11184   6.883   6.056  10.316  0.2278  0.4212 -0.0455
  109OSM    HNF11185   6.785   6.051  10.301  0.2116  0.7335 -0.0405
  109OSM    C2S11186   6.939   5.945  10.395 -0.8525 -0.9359 -0.0088
  109OSM    H2S11187   7.043   5.937  10.357 -0.1638  1.5741  1.1396
  109OSM    C3S11188   6.864   5.815  10.383  0.1011  0.1477 -0.3838
  109OSM    H3S11189   6.771   5.817  10.443  0.5836  0.8612  0.3536
  109OSM     O311190   6.934   5.705  10.440  0.1875 -0.2285 -0.1707
  109OSM    HO311191   6.984   5.752  10.507  0.0390 -0.0475 -0.1849
  109OSM    C4S11192   6.838   5.773  10.241  0.2262  0.1269 -0.5186
  109OSM    H4S11193   6.930   5.747  10.185  0.4386  2.0005 -1.0930
  109OSM    C5S11194   6.718   5.780  10.182  0.4516 -0.0277  0.8776
  109OSM    H5S11195   6.630   5.824  10.231  0.1013  0.1210  0.1369
  109OSM    C6S11196   6.688   5.733  10.038 -0.4553 -0.0163  0.1441
  109OSM    H6S11197   6.676   5.622  10.038 -4.3637  0.2569  1.2158
  109OSM    H6T11198   6.772   5.757   9.969  0.0714 -0.8782  0.4785
  109OSM    C7S11199   6.559   5.788   9.977  0.5397  0.0728 -0.4025
  109OSM    H7S11200   6.568   5.898   9.979  2.7276 -0.0691  1.4734
  109OSM    H7T11201   6.467   5.749  10.026  1.9687  0.2601  2.6157
  109OSM    C8S11202   6.545   5.757   9.830 -0.3130  0.6944  0.4053
  109OSM    H8S11203   6.455   5.803   9.784 -0.1848 -0.6354 -1.3106
  109OSM    H8T11204   6.532   5.646   9.830 -0.8336  0.7512 -0.0711
  109OSM    C9S11205   6.651   5.818   9.733 -0.2473  0.1942  0.2024
  109OSM    H9S11206   6.739   5.751   9.740 -1.7002 -1.8038  0.6258
  109OSM    H9T11207   6.681   5.914   9.780 -2.6577  0.9552  0.3221
  109OSM   C10S11208   6.613   5.827   9.583 -0.3572  0.1781 -0.1914
  109OSM   H10S11209   6.529   5.898   9.569  1.1697  2.1506  0.1415
  109OSM   H10T11210   6.578   5.730   9.542 -2.1656 -0.5084  2.6892
  109OSM   C11S11211   6.733   5.890   9.498  0.6499  0.1189  0.0572
  109OSM   H11S11212   6.828   5.835   9.517  0.9764  0.1032 -1.5050
  109OSM   H11T11213   6.737   5.999   9.519 -2.6149  0.2971  0.2046
  109OSM   C12S11214   6.695   5.876   9.348 -0.6223 -0.0417  0.6125
  109OSM   H12S11215   6.599   5.929   9.331 -0.8140 -0.3654  0.6824
  109OSM   H12T11216   6.678   5.769   9.321 -1.9891  0.3205 -0.0576
  109OSM   C13S11217   6.802   5.926   9.256  0.0711 -0.1315 -0.3645
  109OSM   H13S11218   6.904   5.893   9.284  0.4550  0.2931 -1.1983
  109OSM   H13T11219   6.799   6.036   9.240  1.2317 -0.0062  0.1516
  109OSM   C14S11220   6.794   5.863   9.112 -0.5120 -0.1507 -0.3534
  109OSM   H14S11221   6.769   5.754   9.118 -0.0709 -0.4334 -2.8213
  109OSM   H14T11222   6.895   5.869   9.067  0.2940  1.5365  1.5160
  109OSM   C15S11223   6.688   5.925   9.022 -0.6812 -0.3238  0.1468
  109OSM   H15S11224   6.708   6.034   9.025 -1.0966 -0.2602  1.7914
  109OSM   H15T11225   6.592   5.916   9.078  0.3915 -0.3915  2.0487
  109OSM   C16S11226   6.701   5.860   8.893 -0.4466  0.1077 -0.0804
  109OSM   H16S11227   6.689   5.751   8.907 -2.0642  0.4234  1.2913
  109OSM   H16T11228   6.803   5.878   8.852  0.1621 -1.3609  0.7316
  109OSM   C17S11229   6.610   5.901   8.780 -0.5061 -0.7013 -0.2630
  109OSM   H17S11230   6.653   5.989   8.728 -3.7179 -0.4114 -2.7683
  109OSM   H17T11231   6.518   5.943   8.826 -0.0464 -0.3415  0.3480
  109OSM   C18S11232   6.582   5.798   8.677 -0.2275  0.0927  0.7122
  109OSM   H18S11233   6.677   5.755   8.640  0.9290  2.3297  0.8917
  109OSM   H18T11234   6.538   5.848   8.588 -1.2003  0.5236  1.4279
  109OSM   H18U11235   6.512   5.717   8.707 -0.9176 -0.1437 -1.3719
  109OSM    C1F11236   6.951   6.168  10.295 -0.1810  0.4320 -0.0046
  109OSM     OF11237   7.073   6.177  10.327  0.5261 -0.1885 -0.0777
  109OSM    C2F11238   6.871   6.286  10.242 -0.3563  0.4271 -0.5122
  109OSM    H2F11239   6.798   6.329  10.314 -0.7149  0.2467 -0.7705
  109OSM    H2G11240   6.809   6.234  10.166 -1.4689  2.3643 -0.9837
  109OSM    C3F11241   6.960   6.381  10.170 -0.6725 -0.7021  0.5551
  109OSM    H3F11242   7.026   6.324  10.101 -0.1121  1.1749 -0.5540
  109OSM    H3G11243   7.026   6.442  10.236 -0.3314  0.3190 -0.6807
  109OSM    C4F11244   6.884   6.491  10.082 -0.0061  0.1391  0.1127
  109OSM    H4F11245   6.806   6.537  10.147  0.0331 -1.1397  1.1061
  109OSM    H4G11246   6.823   6.443  10.002 -0.6696  1.7053 -0.3450
  109OSM    C5F11247   6.987   6.592  10.027  0.2450 -0.6612 -0.3740
  109OSM    H5F11248   7.049   6.547   9.946  0.3163 -0.1272 -0.6196
  109OSM    H5G11249   7.053   6.614  10.113 -1.1953  0.0102  0.6033
  109OSM    C6F11250   6.935   6.731   9.978 -0.1141 -0.2033 -0.4258
  109OSM    H6F11251   7.021   6.799   9.963  0.8812 -1.0949  0.8965
  109OSM    H6G11252   6.878   6.779  10.061 -0.8251 -1.2141 -0.3004
  109OSM    C7F11253   6.835   6.724   9.865  0.2501 -0.6364  0.5290
  109OSM    H7F11254   6.842   6.827   9.824 -1.6935 -0.5262  0.3943
  109OSM    H7G11255   6.736   6.722   9.914  0.2004 -1.2972  0.4106
  109OSM    C8F11256   6.852   6.621   9.754  0.5314  0.2490 -0.2988
  109OSM    H8F11257   6.764   6.617   9.685  0.8277  0.2026 -0.6778
  109OSM    H8G11258   6.873   6.515   9.781  2.7400  0.9639  1.0778
  109OSM    C9F11259   6.967   6.669   9.665  0.8485 -0.2152 -0.1029
  109OSM    H9F11260   7.064   6.621   9.684  0.7439 -1.2596 -1.9587
  109OSM   C10F11261   6.963   6.751   9.551 -0.7668  0.1883 -0.2349
  109OSM   H10F11262   7.053   6.772   9.491 -0.4519  0.2345  0.2451
  109OSM   C11F11263   6.853   6.823   9.489  0.3366 -0.7015  0.3020
  109OSM   H11F11264   6.851   6.930   9.519  0.2389 -0.1177 -1.6365
  109OSM   H11G11265   6.758   6.793   9.538  0.7883 -0.6190  1.2523
  109OSM   C12F11266   6.846   6.812   9.337  0.4668 -0.3805  0.1489
  109OSM   H12F11267   6.883   6.714   9.303  2.9922  0.5198  0.0998
  109OSM   H12G11268   6.916   6.890   9.299 -0.7906  1.5565  1.5709
  109OSM   C13F11269   6.712   6.857   9.277  0.0990  0.0075 -0.1131
  109OSM   H13F11270   6.696   6.966   9.295  1.5213  0.7050 -2.5323
  109OSM   H13G11271   6.633   6.797   9.326  0.4496  0.1782  0.6797
  109OSM   C14F11272   6.698   6.847   9.134 -0.1601  0.0410  0.3287
  109OSM   H14F11273   6.784   6.892   9.081  0.5582 -1.1862  0.4079
  109OSM   H14G11274   6.610   6.910   9.109  0.4656  0.8586  0.1750
  109OSM   C15F11275   6.678   6.705   9.085  0.2856  0.5273 -0.0788
  109OSM   H15F11276   6.605   6.663   9.158 -0.2326  3.8152  1.5000
  109OSM   H15G11277   6.776   6.657   9.103 -0.0920 -0.4352 -0.5019
  109OSM   C16F11278   6.630   6.689   8.939 -0.1903 -0.2780 -0.0907
  109OSM   H16F11279   6.525   6.724   8.944  0.3996  1.4780  0.9952
  109OSM   H16G11280   6.627   6.584   8.902  0.4512 -0.5208  0.5101
  109OSM   C17F11281   6.715   6.760   8.833 -0.0785 -0.5288 -0.2899
  109OSM   H17F11282   6.820   6.771   8.868 -0.6529  0.0699  1.3316
  109OSM   H17G11283   6.666   6.857   8.811  0.0106 -0.4490 -0.1319
  109OSM   C18F11284   6.729   6.683   8.698  0.9337  0.1157 -0.3956
  109OSM   H18F11285   6.783   6.587   8.711 -1.7532 -1.2709  1.2567
  109OSM   H18G11286   6.788   6.742   8.624 -0.1379  0.3489 -1.0848
  109OSM   H18H11287   6.632   6.663   8.648  1.8100 -1.0478 -1.7224
  110OSM      N11288   0.982   4.810  11.088 -0.2077  0.4202  0.6052
  110OSM    C1511289   1.083   4.724  11.157  0.6258  0.0326  0.0968
  110OSM   H15A11290   1.037   4.647  11.217 -0.9785  0.1338 -0.9351
  110OSM   H15B11291   1.146   4.771  11.230 -1.2755  0.9132  1.2290
  110OSM   H15C11292   1.148   4.678  11.084  0.3751 -0.2595  0.0544
  110OSM    C1411293   0.894   4.732  10.998  0.0367 -0.1779  0.4256
  110OSM   H14A11294   0.841   4.662  11.061 -0.5241  1.2192  1.5676
  110OSM   H14B11295   0.946   4.681  10.918  0.3816  1.8596 -0.6897
  110OSM   H14C11296   0.821   4.799  10.956  0.5964 -0.4496 -1.0189
  110OSM    C1311297   0.913   4.886  11.199  0.1675  0.2085  0.4915
  110OSM   H13A11298   0.859   4.828  11.272  2.0068 -0.0377  1.7104
  110OSM   H13B11299   0.855   4.969  11.163 -1.7192 -1.3057 -0.1256
  110OSM   H13C11300   0.986   4.939  11.258  0.1162 -1.2457  1.9356
  110OSM    C1211301   1.063   4.909  11.006 -0.5284 -0.0072  0.4653
  110OSM   H12A11302   1.131   4.862  10.936 -0.5246  1.9050 -0.8983
  110OSM   H12B11303   1.133   4.963  11.068 -0.8375  0.4873  0.3964
  110OSM    C1111304   0.978   5.016  10.920  0.1255 -0.2781 -0.4145
  110OSM   H11A11305   0.915   4.966  10.844  0.1311 -2.1754  0.7859
  110OSM   H11B11306   1.054   5.076  10.866 -0.9932  1.0114 -0.6183
  110OSM      P11307   0.829   5.223  10.984 -0.6036 -0.1581  0.0283
  110OSM    O1311308   0.698   5.209  11.054 -0.1464  0.3388 -0.2622
  110OSM    O1411309   0.920   5.330  11.038  0.3662 -0.5396  0.7583
  110OSM    O1111310   0.821   5.214  10.823 -0.3412 -0.1075 -0.7911
  110OSM    O1211311   0.912   5.095  11.013 -0.6475  0.6462  0.5009
  110OSM    C1S11312   0.725   5.292  10.753  0.0790 -0.3669 -0.6135
  110OSM    H1S11313   0.738   5.396  10.789  0.7934 -0.5373 -0.3566
  110OSM    H1T11314   0.622   5.252  10.760  0.0376 -0.2785 -0.7293
  110OSM     NF11315   0.688   5.391  10.529  0.1587 -0.2444  0.1764
  110OSM    HNF11316   0.598   5.367  10.493  0.4663 -2.0784  0.5062
  110OSM    C2S11317   0.757   5.286  10.604 -0.1882 -0.4010  0.8278
  110OSM    H2S11318   0.865   5.305  10.585 -0.1095 -0.7224  0.9389
  110OSM    C3S11319   0.727   5.141  10.558 -0.8053  0.0044 -0.1961
  110OSM    H3S11320   0.617   5.126  10.563 -0.7525 -0.2817  0.1334
  110OSM     O311321   0.780   5.033  10.637  0.1285 -0.3830 -0.0700
  110OSM    HO311322   0.807   5.078  10.717 -1.2233  1.7940 -0.7732
  110OSM    C4S11323   0.766   5.127  10.421 -0.6524 -0.1127 -0.2925
  110OSM    H4S11324   0.875   5.132  10.410 -0.5843 -1.2403 -0.1993
  110OSM    C5S11325   0.681   5.114  10.315 -0.0803  0.8221 -0.1504
  110OSM    H5S11326   0.576   5.092  10.339  0.0589  1.3941  1.0719
  110OSM    C6S11327   0.724   5.100  10.170  1.4257 -0.3934  0.0764
  110OSM    H6S11328   0.664   5.178  10.118 -0.2010 -1.5403  0.1739
  110OSM    H6T11329   0.679   5.006  10.132  1.5306 -0.9959  1.4030
  110OSM    C7S11330   0.868   5.100  10.136  0.2919 -0.2333 -0.2180
  110OSM    H7S11331   0.932   5.033  10.198  4.1687  3.9541  0.8225
  110OSM    H7T11332   0.904   5.203  10.155  2.5546 -0.6386 -1.8668
  110OSM    C8S11333   0.883   5.074   9.983  0.0661  0.3379  0.7146
  110OSM    H8S11334   0.817   5.147   9.931  0.1093  0.7972  1.2931
  110OSM    H8T11335   0.850   4.970   9.962 -0.8742  0.3897  1.8100
  110OSM    C9S11336   1.023   5.078   9.928 -0.3373  0.3353  0.1293
  110OSM    H9S11337   1.082   5.009   9.992  2.3057  1.3369 -1.0877
  110OSM    H9T11338   1.062   5.180   9.947  0.4655  0.2922 -1.1497
  110OSM   C10S11339   1.028   5.034   9.776 -0.0817 -0.9782  0.2221
  110OSM   H10S11340   1.134   5.047   9.746 -0.4270 -0.1454 -0.6683
  110OSM   H10T11341   0.965   5.108   9.722 -0.7463 -1.2181  0.6439
  110OSM   C11S11342   0.980   4.896   9.731  0.4229 -0.4470  0.0394
  110OSM   H11S11343   0.870   4.891   9.742  0.4665  1.0220  1.5784
  110OSM   H11T11344   1.013   4.822   9.807 -0.3870  0.2232  1.0628
  110OSM   C12S11345   1.038   4.851   9.601 -0.0464 -0.0014 -0.4123
  110OSM   H12S11346   1.019   4.744   9.581 -0.1735  0.1517 -1.1267
  110OSM   H12T11347   1.147   4.868   9.617 -0.2347  2.1217 -1.0286
  110OSM   C13S11348   0.995   4.951   9.493 -0.5773 -0.1133  0.4100
  110OSM   H13S11349   1.031   5.053   9.518  0.6113 -0.0232 -1.4710
  110OSM   H13T11350   0.887   4.959   9.469 -0.4417  0.8293  0.0478
  110OSM   C14S11351   1.063   4.924   9.359  0.6208 -0.1669  0.0153
  110OSM   H14S11352   1.047   4.814   9.349 -1.4725 -0.0634  1.3633
  110OSM   H14T11353   1.171   4.947   9.359  1.4111 -3.3067  1.7904
  110OSM   C15S11354   0.997   4.993   9.247 -1.0423 -0.1723  0.6161
  110OSM   H15S11355   1.032   5.098   9.255 -1.0582 -0.0414 -0.7765
  110OSM   H15T11356   0.887   4.993   9.265 -1.1660  0.9511 -0.0157
  110OSM   C16S11357   1.036   4.940   9.113 -0.0537 -0.0234  0.3925
  110OSM   H16S11358   1.048   4.829   9.107  3.4682  0.2221  0.4992
  110OSM   H16T11359   1.141   4.971   9.091 -0.1817 -1.4497 -2.9246
  110OSM   C17S11360   0.942   5.005   9.015 -0.1611  0.3012  0.2767
  110OSM   H17S11361   0.839   4.985   9.052 -0.1764 -1.3066 -0.5516
  110OSM   H17T11362   0.944   4.951   8.918 -1.3868  0.8308 -0.0687
  110OSM   C18S11363   0.949   5.149   8.994  0.7552  0.0667  0.3714
  110OSM   H18S11364   0.852   5.187   8.956  0.7136 -1.4167 -1.1693
  110OSM   H18T11365   1.022   5.180   8.916  1.6021  2.0552  1.8598
  110OSM   H18U11366   0.986   5.213   9.076  1.7540  2.1498 -1.5783
  110OSM    C1F11367   0.726   5.518  10.532  0.2079  0.6966  0.5827
  110OSM     OF11368   0.825   5.561  10.591  0.1936 -0.4669 -0.0710
  110OSM    C2F11369   0.622   5.616  10.482 -0.8459 -0.0953 -0.4242
  110OSM    H2F11370   0.597   5.675  10.573  3.4853 -0.7007  1.4041
  110OSM    H2G11371   0.541   5.555  10.437  0.0058 -1.1679 -0.5426
  110OSM    C3F11372   0.678   5.721  10.384  0.2594 -0.1222 -0.0861
  110OSM    H3F11373   0.721   5.671  10.295  0.6025  0.1861 -0.0941
  110OSM    H3G11374   0.763   5.776  10.431  1.6893 -1.8198 -0.5501
  110OSM    C4F11375   0.563   5.815  10.328 -0.0057 -0.1024 -0.4455
  110OSM    H4F11376   0.626   5.902  10.299 -1.1920  0.6797 -0.7892
  110OSM    H4G11377   0.507   5.851  10.417  0.3279 -1.9912  0.5720
  110OSM    C5F11378   0.494   5.769  10.201  0.3778 -0.4471 -0.3138
  110OSM    H5F11379   0.427   5.685  10.230  0.0572  0.2248  0.9388
  110OSM    H5G11380   0.567   5.729  10.128 -1.0851 -2.2972 -0.8315
  110OSM    C6F11381   0.403   5.886  10.142  0.6908  0.1862  0.5611
  110OSM    H6F11382   0.475   5.967  10.119  1.7604 -0.8049  0.2825
  110OSM    H6G11383   0.333   5.919  10.221 -0.6623 -2.1996  0.4602
  110OSM    C7F11384   0.329   5.848  10.022  0.4954  0.8758 -0.3688
  110OSM    H7F11385   0.221   5.854  10.047  0.5775  1.5983 -0.1857
  110OSM    H7G11386   0.360   5.746   9.990 -0.4271  1.1549 -2.3529
  110OSM    C8F11387   0.354   5.934   9.894 -0.3154 -0.8863 -1.2308
  110OSM    H8F11388   0.298   5.879   9.815 -2.0352 -1.1116  0.1099
  110OSM    H8G11389   0.458   5.946   9.857 -0.3169 -0.5666 -1.1341
  110OSM    C9F11390   0.292   6.069   9.923  0.1442 -0.2765  0.0394
  110OSM    H9F11391   0.322   6.113  10.020 -2.0169 -0.9296  1.0617
  110OSM   C10F11392   0.218   6.141   9.842 -0.2758 -0.4719  0.2553
  110OSM   H10F11393   0.177   6.241   9.857 -0.6520 -0.1086 -2.5312
  110OSM   C11F11394   0.172   6.098   9.707 -0.6562 -0.5505 -0.0932
  110OSM   H11F11395   0.063   6.111   9.694 -0.4219  0.4797 -1.2897
  110OSM   H11G11396   0.214   6.001   9.672  0.1971  0.7539 -3.0063
  110OSM   C12F11397   0.225   6.211   9.598  0.6587  0.0298 -0.2178
  110OSM   H12F11398   0.335   6.202   9.592  0.5428 -1.0219 -1.2237
  110OSM   H12G11399   0.199   6.311   9.638  1.3896  1.8519 -3.8788
  110OSM   C13F11400   0.159   6.185   9.467  0.7390 -0.0831 -0.1153
  110OSM   H13F11401   0.051   6.167   9.484  0.9931 -3.2502 -1.2567
  110OSM   H13G11402   0.194   6.086   9.430 -0.7778 -0.3263 -0.9731
  110OSM   C14F11403   0.186   6.296   9.359  0.5676  1.3312 -0.0356
  110OSM   H14F11404   0.295   6.318   9.360  0.4731  1.7934  0.3365
  110OSM   H14G11405   0.145   6.382   9.415  1.6817  0.5706  2.0866
  110OSM   C15F11406   0.130   6.273   9.225 -0.8535  0.2826  0.0822
  110OSM   H15F11407   0.028   6.230   9.234  0.6049 -3.3043  1.8143
  110OSM   H15G11408   0.188   6.189   9.180 -1.4680 -0.1500  0.0816
  110OSM   C16F11409   0.129   6.399   9.138 -0.5329 -0.1724 -0.0482
  110OSM   H16F11410   0.224   6.453   9.158 -1.4048  0.7588  1.8319
  110OSM   H16G11411   0.054   6.475   9.170  0.9769  1.4209 -0.1849
  110OSM   C17F11412   0.118   6.378   8.981  0.2302  0.6475 -0.8181
  110OSM   H17F11413   0.197   6.306   8.949 -1.0616 -0.8566 -0.7857
  110OSM   H17G11414   0.153   6.479   8.951  1.5912  0.5942  0.4312
  110OSM   C18F11415  -0.020   6.346   8.920 -0.3254 -0.1819  0.0213
  110OSM   H18F11416  -0.021   6.385   8.816 -0.1266 -1.7602 -0.6023
  110OSM   H18G11417  -0.101   6.406   8.967  2.2172  2.2623  1.6364
  110OSM   H18H11418  -0.035   6.236   8.912  1.3279 -0.3684 -1.0878
  111OSM      N11419   4.389   3.028  10.966 -0.0371  0.1462 -0.4634
  111OSM    C1511420   4.336   2.934  11.071 -0.3584 -0.2470 -0.1072
  111OSM   H15A11421   4.297   2.987  11.157  0.5726 -0.5958  0.5406
  111OSM   H15B11422   4.410   2.869  11.116 -0.7254 -1.1138 -0.7307
  111OSM   H15C11423   4.260   2.866  11.035  1.3385 -2.1345 -0.2707
  111OSM    C1411424   4.508   3.104  11.026 -0.3366 -0.1441  0.0568
  111OSM   H14A11425   4.595   3.044  11.051  1.2283  1.9296 -0.1951
  111OSM   H14B11426   4.472   3.146  11.119 -1.5292 -0.2415 -0.3411
  111OSM   H14C11427   4.534   3.177  10.952  0.1006 -0.6534 -0.3035
  111OSM    C1311428   4.432   2.935  10.853  0.3733 -0.1049 -0.1909
  111OSM   H13A11429   4.352   2.894  10.793  1.9039 -0.9942 -1.7016
  111OSM   H13B11430   4.487   2.851  10.892  1.8876  0.0968 -1.7531
  111OSM   H13C11431   4.507   2.983  10.791  0.5976 -0.2530 -0.0346
  111OSM    C1211432   4.283   3.125  10.916  0.1166  0.9835 -0.2916
  111OSM   H12A11433   4.327   3.179  10.833  0.7729  2.7728  1.1533
  111OSM   H12B11434   4.263   3.190  11.000 -0.5462  0.5531 -0.1043
  111OSM    C1111435   4.150   3.071  10.868  0.2407 -0.1113 -0.4904
  111OSM   H11A11436   4.097   3.158  10.824  1.1331  0.7938  0.1767
  111OSM   H11B11437   4.090   3.044  10.957 -0.8069 -1.0226 -1.4477
  111OSM      P11438   4.125   2.967  10.629  0.1290  0.2887 -0.2861
  111OSM    O1311439   4.178   2.849  10.557 -0.0370  0.0621 -0.1731
  111OSM    O1411440   3.979   2.989  10.609  0.2181  0.0801 -0.1565
  111OSM    O1111441   4.206   3.100  10.586 -0.0121 -0.1651  0.6940
  111OSM    O1211442   4.153   2.957  10.781  0.1017  0.6674 -0.6091
  111OSM    C1S11443   4.256   3.130  10.457  0.1473 -0.4488 -0.5090
  111OSM    H1S11444   4.230   3.049  10.386  1.5219 -1.3989  0.0255
  111OSM    H1T11445   4.367   3.132  10.465  0.1778 -1.5230 -0.5651
  111OSM     NF11446   4.291   3.301  10.279  0.1528  0.4134 -0.2233
  111OSM    HNF11447   4.373   3.357  10.287 -1.0225  2.2420 -0.3576
  111OSM    C2S11448   4.226   3.273  10.404 -0.8658 -0.1192  0.3376
  111OSM    H2S11449   4.115   3.269  10.390 -0.6882 -2.1008 -0.8084
  111OSM    C3S11450   4.249   3.379  10.519  0.8839  0.6476 -0.0739
  111OSM    H3S11451   4.354   3.376  10.552  1.7073  1.2626 -2.4187
  111OSM     O311452   4.177   3.354  10.641  0.2682  0.5656  0.0046
  111OSM    HO311453   4.138   3.266  10.638  0.6202  0.4122 -0.2156
  111OSM    C4S11454   4.221   3.518  10.459  0.5414 -0.4803 -0.1907
  111OSM    H4S11455   4.307   3.563  10.407  0.5397  0.2727  0.4493
  111OSM    C5S11456   4.107   3.593  10.466  0.0791  0.3858  0.0722
  111OSM    H5S11457   4.027   3.547  10.526  1.0913 -1.4672  0.0784
  111OSM    C6S11458   4.082   3.740  10.406 -0.3448 -0.0441 -0.6529
  111OSM    H6S11459   4.077   3.818  10.484 -1.6764 -0.1381 -0.6247
  111OSM    H6T11460   3.978   3.747  10.366 -1.3650  1.2297  2.0049
  111OSM    C7S11461   4.177   3.780  10.295  0.3910  0.2888  0.2713
  111OSM    H7S11462   4.286   3.786  10.312  0.3137  0.2864  0.7755
  111OSM    H7T11463   4.142   3.883  10.273  0.1177  0.1607  0.0964
  111OSM    C8S11464   4.160   3.700  10.157  0.1421 -0.0977 -1.0423
  111OSM    H8S11465   4.051   3.683  10.138  0.1126 -1.8695  0.4244
  111OSM    H8T11466   4.209   3.601  10.172 -0.0747  0.0608  0.9281
  111OSM    C9S11467   4.229   3.777  10.049 -0.5782  0.9752 -0.4044
  111OSM    H9S11468   4.335   3.787  10.081 -0.1820 -1.6571 -0.7190
  111OSM    H9T11469   4.185   3.879  10.039  0.4311  1.4428 -0.2715
  111OSM   C10S11470   4.225   3.713   9.907  0.3356  0.0608  0.3224
  111OSM   H10S11471   4.116   3.711   9.884  0.4590 -2.1964 -0.3275
  111OSM   H10T11472   4.262   3.609   9.920  2.0024  0.6134  0.1482
  111OSM   C11S11473   4.297   3.797   9.796  0.5869  0.2663 -0.1423
  111OSM   H11S11474   4.404   3.800   9.824  0.4086 -0.4147  0.6353
  111OSM   H11T11475   4.260   3.902   9.792  2.5706  1.0422  0.7581
  111OSM   C12S11476   4.289   3.741   9.653 -0.2127 -0.1244 -0.0660
  111OSM   H12S11477   4.182   3.718   9.632 -0.1288  0.0709 -0.7431
  111OSM   H12T11478   4.344   3.645   9.640 -0.1971  0.1427 -2.3673
  111OSM   C13S11479   4.348   3.830   9.544  0.0762  0.9346  0.0927
  111OSM   H13S11480   4.459   3.826   9.550  0.1471 -1.2387 -1.4808
  111OSM   H13T11481   4.309   3.931   9.568 -0.8738  0.0677  2.5342
  111OSM   C14S11482   4.322   3.799   9.398 -0.1774  0.0890  0.0330
  111OSM   H14S11483   4.212   3.807   9.391 -0.1872  2.2226  1.5992
  111OSM   H14T11484   4.360   3.698   9.372 -0.0716 -1.2855  4.6368
  111OSM   C15S11485   4.390   3.898   9.298 -0.4015  0.2115 -0.7181
  111OSM   H15S11486   4.500   3.890   9.309 -0.4906 -0.3508 -0.1176
  111OSM   H15T11487   4.361   4.003   9.323 -1.3785 -0.6253  2.0953
  111OSM   C16S11488   4.360   3.860   9.150 -0.5127  0.4282 -0.1331
  111OSM   H16S11489   4.257   3.817   9.151 -1.0456  1.6836 -0.1935
  111OSM   H16T11490   4.431   3.782   9.114 -2.1023 -0.4430 -1.5572
  111OSM   C17S11491   4.365   3.979   9.063  0.1053 -0.3721 -0.5954
  111OSM   H17S11492   4.470   4.014   9.055 -0.6172  1.9596 -0.6611
  111OSM   H17T11493   4.300   4.058   9.106 -0.2807 -1.4962  0.9566
  111OSM   C18S11494   4.319   3.946   8.930 -0.0383  0.1406 -0.0467
  111OSM   H18S11495   4.403   3.897   8.876  1.8080  2.0623  0.9981
  111OSM   H18T11496   4.295   4.031   8.863  0.0763 -1.3405 -2.0779
  111OSM   H18U11497   4.239   3.868   8.927  0.3811 -0.2822 -0.6808
  111OSM    C1F11498   4.253   3.258  10.155  0.0330 -0.8409  0.0229
  111OSM     OF11499   4.171   3.166  10.154  0.1302  0.4185  0.3145
  111OSM    C2F11500   4.301   3.328  10.032 -0.0949  0.3987  0.8117
  111OSM    H2F11501   4.411   3.319  10.031 -0.1908 -1.2133  1.3801
  111OSM    H2G11502   4.268   3.432  10.050 -1.1679 -0.1522  2.2845
  111OSM    C3F11503   4.254   3.265   9.898  0.3674  0.0724 -0.0683
  111OSM    H3F11504   4.143   3.271   9.897  0.3916  0.5182 -1.0362
  111OSM    H3G11505   4.254   3.154   9.895 -1.4912  0.0496 -0.7837
  111OSM    C4F11506   4.313   3.319   9.767  0.5453 -0.1879 -0.2651
  111OSM    H4F11507   4.420   3.291   9.760  0.4213 -0.6935 -0.1740
  111OSM    H4G11508   4.296   3.428   9.771  1.4029 -0.0835  1.3289
  111OSM    C5F11509   4.231   3.286   9.641 -0.1394  0.6097 -0.0401
  111OSM    H5F11510   4.126   3.323   9.649 -0.2457  0.6451 -1.3692
  111OSM    H5G11511   4.228   3.175   9.642 -0.1228  0.5764 -1.5473
  111OSM    C6F11512   4.304   3.330   9.511  0.0714 -0.7300 -0.4484
  111OSM    H6F11513   4.413   3.317   9.527  0.1370 -2.5269 -2.0442
  111OSM    H6G11514   4.270   3.435   9.493 -0.4997 -1.3216 -3.2481
  111OSM    C7F11515   4.267   3.246   9.391  0.0696 -0.3787 -0.3281
  111OSM    H7F11516   4.157   3.243   9.400  0.0079  0.5150 -0.7498
  111OSM    H7G11517   4.297   3.139   9.399  0.5379 -0.2632 -0.4705
  111OSM    C8F11518   4.314   3.317   9.267  0.5318  0.4669  0.1873
  111OSM    H8F11519   4.424   3.321   9.281  0.7361 -0.9821 -0.6945
  111OSM    H8G11520   4.272   3.419   9.279 -0.6151 -0.0331  0.6370
  111OSM    C9F11521   4.279   3.273   9.126 -0.0184  0.3222  0.1823
  111OSM    H9F11522   4.185   3.217   9.119  0.7887 -1.2444  1.2082
  111OSM   C10F11523   4.361   3.276   9.010  0.3571  0.4402 -0.0237
  111OSM   H10F11524   4.324   3.249   8.910  0.1386  2.9778 -0.6828
  111OSM   C11F11525   4.506   3.314   9.006  0.2097  0.6174  0.0183
  111OSM   H11F11526   4.554   3.259   8.922 -0.9284 -1.2745  0.5392
  111OSM   H11G11527   4.555   3.268   9.095 -2.0938 -2.4516 -0.1095
  111OSM   C12F11528   4.514   3.466   8.992 -0.2998 -0.0014  0.5828
  111OSM   H12F11529   4.457   3.515   9.074 -1.0622  0.2300 -0.0763
  111OSM   H12G11530   4.452   3.491   8.903 -0.9350  0.1126  1.0485
  111OSM   C13F11531   4.651   3.525   8.975  0.4554 -0.2773  0.0787
  111OSM   H13F11532   4.725   3.477   8.906  1.0112 -0.0265  0.4919
  111OSM   H13G11533   4.700   3.529   9.075  0.4256  2.0236  0.0605
  111OSM   C14F11534   4.655   3.665   8.929  0.6822  0.1134 -0.0966
  111OSM   H14F11535   4.607   3.731   9.005  0.5138  0.3957 -0.4480
  111OSM   H14G11536   4.607   3.667   8.829 -1.0129  2.5099  0.6549
  111OSM   C15F11537   4.796   3.731   8.920 -0.0934  0.3446 -0.0964
  111OSM   H15F11538   4.862   3.665   8.859  1.8194  2.3998 -0.3531
  111OSM   H15G11539   4.851   3.753   9.014  1.6155  0.6962 -1.1400
  111OSM   C16F11540   4.802   3.868   8.855 -0.6859  0.0619  0.2870
  111OSM   H16F11541   4.910   3.894   8.854 -0.4663 -0.8341 -0.1816
  111OSM   H16G11542   4.753   3.943   8.921 -0.3708  0.8366 -0.3450
  111OSM   C17F11543   4.751   3.869   8.715 -0.2001  0.0706  0.1257
  111OSM   H17F11544   4.642   3.853   8.724 -0.0286 -1.0479  0.3665
  111OSM   H17G11545   4.798   3.784   8.661  0.8068 -0.7695  2.2275
  111OSM   C18F11546   4.777   4.001   8.628 -0.6716 -0.0327 -0.0256
  111OSM   H18F11547   4.759   4.089   8.694 -2.0243 -0.6296  0.4397
  111OSM   H18G11548   4.708   4.002   8.541 -1.4281 -0.6432  0.5555
  111OSM   H18H11549   4.884   3.999   8.597 -0.1932  0.3163  1.4995
  112OSM      N11550   1.598   1.862  10.988 -0.1561  0.5197  0.1512
  112OSM    C1511551   1.615   1.743  11.073  0.1043 -0.1275  0.2507
  112OSM   H15A11552   1.548   1.748  11.157 -1.0172 -1.1422 -0.5580
  112OSM   H15B11553   1.717   1.725  11.104  0.1156  0.4541  0.5709
  112OSM   H15C11554   1.574   1.662  11.015  1.7826  0.0429 -1.2532
  112OSM    C1411555   1.476   1.847  10.900  0.5924  0.0938 -0.1550
  112OSM   H14A11556   1.395   1.833  10.970  0.1230  2.1736 -0.2238
  112OSM   H14B11557   1.473   1.755  10.842  0.8827 -0.2661  0.3989
  112OSM   H14C11558   1.473   1.921  10.822 -1.5701 -0.8837 -1.1132
  112OSM    C1311559   1.584   1.986  11.074  0.3681  0.3723  0.2546
  112OSM   H13A11560   1.675   2.018  11.122  2.0247 -1.2046 -1.6771
  112OSM   H13B11561   1.505   1.954  11.141 -1.0036 -0.5490 -1.6784
  112OSM   H13C11562   1.560   2.071  11.012  1.0262  0.1273 -0.3408
  112OSM    C1211563   1.709   1.877  10.888 -0.8721  0.3167  0.0373
  112OSM   H12A11564   1.722   1.782  10.838  2.0474  0.7164 -0.1428
  112OSM   H12B11565   1.802   1.889  10.943  0.6234  0.3008 -2.3394
  112OSM    C1111566   1.715   1.992  10.784  0.1412  0.1425  0.2980
  112OSM   H11A11567   1.820   2.016  10.757  0.0867 -0.5300 -0.5662
  112OSM   H11B11568   1.665   2.081  10.828 -0.6788  0.3987 -1.0981
  112OSM      P11569   1.663   1.842  10.569  0.0173  0.2280 -0.3585
  112OSM    O1311570   1.692   1.720  10.646  0.7251 -0.2708  0.1316
  112OSM    O1411571   1.558   1.841  10.464  0.3905  0.0449 -0.5099
  112OSM    O1111572   1.803   1.890  10.511  0.3890 -0.1205 -0.1177
  112OSM    O1211573   1.629   1.950  10.678  0.4483 -0.2874  0.0636
  112OSM    C1S11574   1.879   1.822  10.408  0.0008  0.2627 -0.1231
  112OSM    H1S11575   1.815   1.770  10.333  0.1322  0.6388 -0.5046
  112OSM    H1T11576   1.946   1.749  10.458  1.1982  0.6408 -1.1108
  112OSM     NF11577   2.027   1.831  10.213  0.0921 -0.0055 -0.1409
  112OSM    HNF11578   2.127   1.820  10.214  0.4534  2.5941  1.8739
  112OSM    C2S11579   1.977   1.911  10.322 -0.2685  0.2782  0.1442
  112OSM    H2S11580   1.904   1.985  10.283 -1.3775 -0.4832  0.7055
  112OSM    C3S11581   2.082   1.992  10.405  0.0506 -0.5614  0.1779
  112OSM    H3S11582   2.162   1.929  10.452  2.3456  3.7639  2.6786
  112OSM     O311583   2.023   2.059  10.520 -0.5462 -0.0287 -0.1195
  112OSM    HO311584   1.936   2.017  10.521 -1.4302  1.7316  0.5209
  112OSM    C4S11585   2.155   2.090  10.315 -0.1001 -0.1945  0.3165
  112OSM    H4S11586   2.246   2.044  10.275 -0.9159 -2.3731  0.8101
  112OSM    C5S11587   2.126   2.214  10.276 -0.3066 -0.0553 -0.0661
  112OSM    H5S11588   2.038   2.268  10.313  0.6098 -1.2880  4.5828
  112OSM    C6S11589   2.212   2.294  10.171  0.6083 -1.2847  0.0525
  112OSM    H6S11590   2.277   2.365  10.226 -2.3298 -0.0986  2.3001
  112OSM    H6T11591   2.142   2.349  10.104  2.8444  0.6967 -0.7917
  112OSM    C7S11592   2.304   2.218  10.069 -0.1049 -0.4496 -0.7332
  112OSM    H7S11593   2.378   2.164  10.131  0.7365  1.2875 -0.1582
  112OSM    H7T11594   2.361   2.289  10.006 -1.4683  0.6150 -0.8208
  112OSM    C8S11595   2.225   2.130   9.974  0.4236  0.4902  0.5200
  112OSM    H8S11596   2.142   2.196   9.943 -0.5975 -0.4735  1.1318
  112OSM    H8T11597   2.182   2.039  10.022 -0.9601  0.7361 -0.2317
  112OSM    C9S11598   2.293   2.099   9.839 -0.2016  0.5683 -0.2488
  112OSM    H9S11599   2.263   2.003   9.791  1.8757 -0.4399  0.3087
  112OSM    H9T11600   2.400   2.075   9.859  0.2284  0.9073 -1.9881
  112OSM   C10S11601   2.264   2.206   9.733  0.7017  0.5609 -0.4587
  112OSM   H10S11602   2.310   2.303   9.763  0.9510  0.3541 -0.1580
  112OSM   H10T11603   2.153   2.209   9.734  0.7258  2.3751  0.4741
  112OSM   C11S11604   2.312   2.163   9.594 -0.4770 -0.1882 -0.1734
  112OSM   H11S11605   2.280   2.059   9.572 -0.3949  0.0370 -1.4321
  112OSM   H11T11606   2.423   2.157   9.606  0.0205  3.2471 -1.8040
  112OSM   C12S11607   2.290   2.262   9.483 -0.5440  1.1442  1.1506
  112OSM   H12S11608   2.350   2.356   9.485 -2.4787  2.4220  1.2729
  112OSM   H12T11609   2.187   2.301   9.493 -0.4024  2.0806 -0.5475
  112OSM   C13S11610   2.317   2.199   9.343  0.3525 -0.0101 -0.3369
  112OSM   H13S11611   2.274   2.098   9.326  0.8951 -1.0036  3.3520
  112OSM   H13T11612   2.427   2.185   9.338  0.5226  1.3774 -0.9778
  112OSM   C14S11613   2.263   2.294   9.233 -0.0515  0.2149  0.1974
  112OSM   H14S11614   2.328   2.384   9.229 -0.5547  0.5902  0.3337
  112OSM   H14T11615   2.168   2.347   9.256 -0.2544  1.4024 -2.9318
  112OSM   C15S11616   2.241   2.218   9.101 -1.0314 -0.3362  0.3334
  112OSM   H15S11617   2.196   2.286   9.026 -0.8003 -2.1192 -1.4805
  112OSM   H15T11618   2.173   2.131   9.111  0.4771 -1.5004  0.8561
  112OSM   C16S11619   2.375   2.173   9.040  0.0723 -0.0010 -0.0348
  112OSM   H16S11620   2.422   2.098   9.107 -2.1874  0.7650  2.5949
  112OSM   H16T11621   2.447   2.258   9.036  1.7056 -1.3099  0.4217
  112OSM   C17S11622   2.356   2.119   8.895 -0.4175  0.2418 -0.2377
  112OSM   H17S11623   2.302   2.196   8.836  0.0045  1.6788  1.1735
  112OSM   H17T11624   2.281   2.037   8.902  2.0226 -1.9867  2.0943
  112OSM   C18S11625   2.480   2.079   8.816  0.2031  0.0057 -0.9341
  112OSM   H18S11626   2.458   2.056   8.710  1.1983 -0.0150 -1.1478
  112OSM   H18T11627   2.526   1.991   8.868  0.0916  0.7574  0.4824
  112OSM   H18U11628   2.558   2.157   8.809  0.7876 -0.5618 -0.8865
  112OSM    C1F11629   1.959   1.798  10.101 -0.5632 -0.2749  0.6148
  112OSM     OF11630   1.836   1.820  10.099 -0.2314  0.2956 -0.1182
  112OSM    C2F11631   2.029   1.733   9.986  1.0203 -0.1922  0.1276
  112OSM    H2F11632   1.989   1.630   9.969  0.9483 -0.1813  0.2303
  112OSM    H2G11633   2.131   1.730  10.028  0.8215  1.5391  0.8157
  112OSM    C3F11634   2.012   1.816   9.857 -0.3535  0.9069 -0.3185
  112OSM    H3F11635   2.036   1.918   9.893  0.2058 -0.7969  4.8866
  112OSM    H3G11636   1.903   1.815   9.834 -0.7674  0.1539  1.4910
  112OSM    C4F11637   2.084   1.754   9.737  0.5238 -0.4174  0.2382
  112OSM    H4F11638   2.043   1.652   9.720  1.5038 -0.3901 -2.8646
  112OSM    H4G11639   2.193   1.737   9.744  0.1775 -2.7354  1.0949
  112OSM    C5F11640   2.049   1.842   9.619  0.0044 -0.5144  0.3450
  112OSM    H5F11641   2.094   1.943   9.631 -0.6119 -0.0224 -1.2380
  112OSM    H5G11642   1.940   1.852   9.604  0.3465  0.6085 -1.8554
  112OSM    C6F11643   2.103   1.789   9.493  0.9148  0.9516  0.0846
  112OSM    H6F11644   2.072   1.682   9.490  0.3732  1.1271 -1.1671
  112OSM    H6G11645   2.213   1.789   9.504  0.7444  1.6111  2.3011
  112OSM    C7F11646   2.057   1.847   9.356  0.3007  0.1441 -0.9655
  112OSM    H7F11647   2.063   1.958   9.351 -0.8466  0.2122 -1.1460
  112OSM    H7G11648   1.947   1.830   9.348  0.3528 -1.1014  0.5713
  112OSM    C8F11649   2.135   1.781   9.234  0.1432 -0.8588 -0.0961
  112OSM    H8F11650   2.100   1.676   9.232 -0.7282 -0.6049  0.8813
  112OSM    H8G11651   2.241   1.784   9.266 -0.3576  1.3896  1.7136
  112OSM    C9F11652   2.120   1.860   9.104 -0.8005 -0.2103 -0.0091
  112OSM    H9F11653   2.215   1.903   9.068 -1.0610  0.1219 -0.3065
  112OSM   C10F11654   2.014   1.875   9.029  0.3939  0.1879 -0.1014
  112OSM   H10F11655   2.023   1.941   8.941  2.3257  1.5598  1.0688
  112OSM   C11F11656   1.887   1.806   9.066  0.6065  0.7217 -0.4048
  112OSM   H11F11657   1.809   1.879   9.100 -0.4569 -0.9010  0.7813
  112OSM   H11G11658   1.899   1.739   9.154  2.1985  0.8259 -0.5234
  112OSM   C12F11659   1.835   1.718   8.954 -0.1970  0.2412 -0.1208
  112OSM   H12F11660   1.744   1.675   9.001 -1.6032  2.8871 -0.2064
  112OSM   H12G11661   1.900   1.641   8.907  0.3725  0.8586 -0.3643
  112OSM   C13F11662   1.785   1.810   8.839 -0.2535 -0.5948 -0.4780
  112OSM   H13F11663   1.874   1.815   8.773  0.6116 -0.1963  0.6852
  112OSM   H13G11664   1.756   1.913   8.867 -2.8202 -0.1832 -3.9201
  112OSM   C14F11665   1.665   1.751   8.770 -0.0644 -0.6591  0.6635
  112OSM   H14F11666   1.584   1.745   8.847 -0.9250 -1.3928 -0.2689
  112OSM   H14G11667   1.682   1.646   8.739 -0.9323 -0.5327 -0.3165
  112OSM   C15F11668   1.599   1.836   8.661 -0.1664  0.0571  0.9566
  112OSM   H15F11669   1.577   1.937   8.701 -5.8054 -0.2222 -0.5955
  112OSM   H15G11670   1.505   1.784   8.630  0.0908  0.0748  0.1227
  112OSM   C16F11671   1.668   1.828   8.521 -0.0865  0.4141 -0.7999
  112OSM   H16F11672   1.759   1.891   8.531 -0.3632  0.7784 -0.5229
  112OSM   H16G11673   1.608   1.895   8.456 -1.3682 -1.3218 -1.4860
  112OSM   C17F11674   1.677   1.689   8.470 -0.4968 -0.3318 -0.3870
  112OSM   H17F11675   1.575   1.650   8.449 -0.5837  0.4684 -1.5684
  112OSM   H17G11676   1.730   1.619   8.537 -0.5574  1.0141  1.1220
  112OSM   C18F11677   1.759   1.691   8.343 -0.1023  0.2070  0.1641
  112OSM   H18F11678   1.721   1.767   8.272  1.4662 -0.8446 -1.9145
  112OSM   H18G11679   1.763   1.588   8.301  0.8578  0.0277  0.6533
  112OSM   H18H11680   1.864   1.708   8.375 -0.3762 -0.5118  1.5249
  113OSM      N11681   0.974   2.135  10.921  0.4208  0.0432  0.3057
  113OSM    C1511682   0.959   2.095  10.778  0.4756 -0.1061 -0.1953
  113OSM   H15A11683   1.049   2.036  10.765  0.0917 -1.2302  1.7807
  113OSM   H15B11684   0.958   2.172  10.702 -0.7418 -0.9073 -1.0395
  113OSM   H15C11685   0.876   2.027  10.769  0.1107  0.2401  0.4693
  113OSM    C1411686   1.081   2.242  10.910 -0.1043  0.0703 -0.2613
  113OSM   H14A11687   1.062   2.309  10.828  1.1461 -0.2639 -0.8547
  113OSM   H14B11688   1.164   2.177  10.887  0.6671  0.6525  0.8011
  113OSM   H14C11689   1.101   2.304  10.997 -1.6114  2.8081 -1.7454
  113OSM    C1311690   0.848   2.205  10.966 -0.4781 -0.1181 -0.5449
  113OSM   H13A11691   0.846   2.220  11.073  0.4984 -2.5531 -0.1369
  113OSM   H13B11692   0.760   2.143  10.956 -0.0993 -1.1249  1.7304
  113OSM   H13C11693   0.834   2.297  10.911  0.3420  0.6406  0.4691
  113OSM    C1211694   1.008   2.017  11.003 -0.2747 -0.1033 -0.0133
  113OSM   H12A11695   0.923   1.951  11.011  0.3082 -0.7007  1.5095
  113OSM   H12B11696   1.016   2.065  11.099 -0.9689  0.6118 -0.2993
  113OSM    C1111697   1.141   1.954  10.962  0.5583 -0.2058 -1.3547
  113OSM   H11A11698   1.182   1.911  11.056  2.6279  1.4541 -1.4205
  113OSM   H11B11699   1.219   2.033  10.952 -0.9660  1.5809  0.1945
  113OSM      P11700   1.109   1.730  10.859 -0.1991  0.3463 -0.1994
  113OSM    O1311701   1.207   1.672  10.953 -0.0018  0.1654  0.2974
  113OSM    O1411702   0.972   1.700  10.896  0.5249 -0.5514  0.2276
  113OSM    O1111703   1.139   1.664  10.720 -0.3314 -0.2360 -0.7096
  113OSM    O1211704   1.137   1.880  10.840  0.0877  0.0695 -0.0458
  113OSM    C1S11705   1.223   1.718  10.616  0.3327  0.5142 -0.6946
  113OSM    H1S11706   1.325   1.674  10.611  1.0522  2.0507 -0.0788
  113OSM    H1T11707   1.240   1.825  10.640  0.2372 -0.0474  2.1991
  113OSM     NF11708   1.259   1.692  10.369 -0.3517 -0.0993 -0.2343
  113OSM    HNF11709   1.270   1.777  10.319 -1.8462  0.6083  0.5820
  113OSM    C2S11710   1.159   1.696  10.474  0.6848  0.2562  0.5139
  113OSM    H2S11711   1.116   1.594  10.480  0.5333  0.3172  0.4679
  113OSM    C3S11712   1.046   1.803  10.442  0.1829 -0.4021 -0.3218
  113OSM    H3S11713   1.104   1.895  10.421 -0.6488  0.5362  1.3633
  113OSM     O311714   0.954   1.831  10.548  0.1686 -0.2432  0.3145
  113OSM    HO311715   0.975   1.758  10.608  0.8357 -0.9733 -0.7624
  113OSM    C4S11716   0.960   1.759  10.319 -0.3841 -0.2024  0.1275
  113OSM    H4S11717   0.877   1.691  10.344 -2.1116  2.4247  2.1028
  113OSM    C5S11718   0.977   1.791  10.189 -0.2294 -0.2218 -0.2511
  113OSM    H5S11719   1.063   1.854  10.163  0.0740 -0.4715  0.1397
  113OSM    C6S11720   0.895   1.726  10.078  0.3004  0.0425 -0.3117
  113OSM    H6S11721   0.795   1.693  10.115 -0.5546  0.6061 -1.9949
  113OSM    H6T11722   0.951   1.638  10.038  0.8892  0.6291 -0.7855
  113OSM    C7S11723   0.876   1.825   9.963 -0.0383  0.7926  0.1670
  113OSM    H7S11724   0.973   1.860   9.921  0.1456  0.7890  0.5751
  113OSM    H7T11725   0.817   1.917   9.981  0.3286  1.3570 -1.4437
  113OSM    C8S11726   0.794   1.765   9.839  0.0741  0.4556 -0.3272
  113OSM    H8S11727   0.742   1.847   9.784 -0.5467 -1.1159 -2.2073
  113OSM    H8T11728   0.717   1.696   9.879  0.1464  0.0409 -0.8986
  113OSM    C9S11729   0.869   1.694   9.729 -0.0933  0.6755 -0.6386
  113OSM    H9S11730   0.895   1.592   9.765 -0.8730 -0.3719 -2.8466
  113OSM    H9T11731   0.966   1.739   9.699  0.8774 -0.5764  0.5172
  113OSM   C10S11732   0.786   1.660   9.604 -0.6148  0.5135 -0.5840
  113OSM   H10S11733   0.721   1.745   9.573  0.6266  1.4145 -0.8008
  113OSM   H10T11734   0.721   1.572   9.621  1.3594 -0.9794 -0.4763
  113OSM   C11S11735   0.884   1.621   9.485 -0.6703  0.3344  0.8158
  113OSM   H11S11736   0.951   1.538   9.515 -1.5508 -1.7815 -2.5611
  113OSM   H11T11737   0.942   1.714   9.464 -0.6260  0.1420  0.0687
  113OSM   C12S11738   0.804   1.578   9.354 -0.8297 -0.5278 -0.0019
  113OSM   H12S11739   0.743   1.665   9.324 -1.1436 -1.1826 -1.3603
  113OSM   H12T11740   0.751   1.482   9.375 -1.2296 -0.3789 -0.3159
  113OSM   C13S11741   0.902   1.557   9.233  0.1048  0.7174  0.7582
  113OSM   H13S11742   0.951   1.458   9.246 -2.7513 -0.6699  1.6809
  113OSM   H13T11743   0.986   1.631   9.232  0.3603  0.4631 -1.1181
  113OSM   C14S11744   0.824   1.565   9.098 -0.7756  0.3121 -0.4323
  113OSM   H14S11745   0.766   1.659   9.113  1.5214  1.8125 -0.5176
  113OSM   H14T11746   0.750   1.482   9.092 -2.5222  1.6681  1.0465
  113OSM   C15S11747   0.909   1.586   8.973  0.8364 -0.4056  0.4315
  113OSM   H15S11748   0.941   1.692   8.970  0.8695 -0.4437 -0.7246
  113OSM   H15T11749   0.853   1.563   8.880  1.6505 -0.7304  0.0074
  113OSM   C16S11750   1.033   1.494   8.964  0.4295 -0.0148 -0.1429
  113OSM   H16S11751   0.994   1.390   8.972  0.5874 -0.1386 -0.9715
  113OSM   H16T11752   1.107   1.515   9.045 -0.1057  0.9229  0.1176
  113OSM   C17S11753   1.098   1.508   8.828 -0.5742 -0.4007 -0.0540
  113OSM   H17S11754   1.023   1.499   8.747 -1.2215  1.7032  0.2597
  113OSM   H17T11755   1.158   1.416   8.810 -1.8972 -0.9051 -2.2460
  113OSM   C18S11756   1.189   1.628   8.819 -0.6414  0.3364 -0.1639
  113OSM   H18S11757   1.123   1.716   8.831 -0.4088  0.3510  1.2488
  113OSM   H18T11758   1.255   1.628   8.730  2.6373 -2.2716  1.9836
  113OSM   H18U11759   1.264   1.618   8.901  0.7954  0.5723 -1.4142
  113OSM    C1F11760   1.348   1.593  10.358 -0.2755  0.4137 -0.0581
  113OSM     OF11761   1.338   1.486  10.421 -0.7057 -0.9780 -0.2546
  113OSM    C2F11762   1.467   1.617  10.275  0.3167  1.0114 -0.3328
  113OSM    H2F11763   1.558   1.589  10.332 -0.1976  1.0754  0.5443
  113OSM    H2G11764   1.468   1.722  10.239 -1.6508  0.6135 -1.7765
  113OSM    C3F11765   1.462   1.525  10.145  0.7495 -0.1949  0.0799
  113OSM    H3F11766   1.370   1.542  10.086 -0.9128  0.0202  2.6187
  113OSM    H3G11767   1.463   1.416  10.168 -0.2769 -0.8110 -2.4727
  113OSM    C4F11768   1.578   1.561  10.047  0.0832  0.4223 -0.8577
  113OSM    H4F11769   1.681   1.539  10.082  0.7923  0.8065 -2.5809
  113OSM    H4G11770   1.586   1.671  10.037 -0.3048  0.3306 -2.4342
  113OSM    C5F11771   1.566   1.489   9.913  0.2072 -0.0364  0.1570
  113OSM    H5F11772   1.474   1.518   9.858  0.2745 -0.6303 -0.2731
  113OSM    H5G11773   1.561   1.380   9.930 -0.5959  0.2420  1.9060
  113OSM    C6F11774   1.680   1.513   9.810  0.3170  0.2597 -0.6036
  113OSM    H6F11775   1.772   1.470   9.855 -0.8726 -0.8506  0.8823
  113OSM    H6G11776   1.680   1.623   9.792  0.7697  0.1569 -1.2646
  113OSM    C7F11777   1.652   1.452   9.672  0.8879  0.3618 -0.1457
  113OSM    H7F11778   1.580   1.523   9.627 -0.2077  0.5160  1.7341
  113OSM    H7G11779   1.593   1.358   9.676  0.8413  0.4288  1.2167
  113OSM    C8F11780   1.782   1.455   9.589  0.1159  0.1939  0.1833
  113OSM    H8F11781   1.846   1.372   9.626 -0.9926 -0.0223  1.6730
  113OSM    H8G11782   1.830   1.549   9.624  2.6355 -1.3736  1.1935
  113OSM    C9F11783   1.757   1.443   9.445 -0.1602  0.0953 -0.3462
  113OSM    H9F11784   1.691   1.520   9.403 -0.1063 -1.6959 -4.1444
  113OSM   C10F11785   1.808   1.351   9.360  0.3526 -0.1048 -0.6449
  113OSM   H10F11786   1.784   1.367   9.253 -0.5813 -1.4957 -0.6684
  113OSM   C11F11787   1.896   1.233   9.383  0.1251  0.4758  0.2957
  113OSM   H11F11788   1.913   1.214   9.491  1.6257 -1.4844 -0.2159
  113OSM   H11G11789   1.994   1.259   9.336 -0.6647 -1.2265 -2.5678
  113OSM   C12F11790   1.843   1.104   9.325 -0.1310  1.2650 -0.1308
  113OSM   H12F11791   1.808   1.122   9.221 -1.6132 -0.5505  0.0012
  113OSM   H12G11792   1.758   1.071   9.389  0.1712 -0.8037 -0.7155
  113OSM   C13F11793   1.946   0.979   9.344  0.9675  0.1934  0.8212
  113OSM   H13F11794   1.884   0.893   9.312  1.9620  0.2341 -1.4150
  113OSM   H13G11795   1.977   0.972   9.450  0.0975 -3.7858  0.9668
  113OSM   C14F11796   2.067   0.978   9.250 -0.3882  0.2835  1.6585
  113OSM   H14F11797   2.141   0.902   9.282  1.3423  1.4057  0.4794
  113OSM   H14G11798   2.119   1.076   9.253 -3.5239  2.2760 -1.1979
  113OSM   C15F11799   2.027   0.959   9.102 -0.1986 -0.0378 -0.5452
  113OSM   H15F11800   1.972   1.054   9.082 -1.8659 -0.6570  0.9009
  113OSM   H15G11801   1.981   0.861   9.076 -0.6562  0.4607 -1.7118
  113OSM   C16F11802   2.147   0.966   9.014 -0.0165 -0.3060  0.5694
  113OSM   H16F11803   2.210   0.875   9.022  0.0060 -0.3871 -0.4692
  113OSM   H16G11804   2.191   1.059   9.058 -0.1140  0.0051  0.0232
  113OSM   C17F11805   2.120   1.002   8.868  0.8754 -0.4206  0.3393
  113OSM   H17F11806   2.060   1.095   8.875 -0.6440 -1.3474  0.0189
  113OSM   H17G11807   2.052   0.928   8.821 -1.6076  0.2929  2.5595
  113OSM   C18F11808   2.234   1.031   8.777 -0.3609  0.5635 -0.2792
  113OSM   H18F11809   2.201   1.064   8.676 -0.8656  0.5788 -0.1140
  113OSM   H18G11810   2.292   0.937   8.762 -1.4360 -0.3766  1.1294
  113OSM   H18H11811   2.296   1.112   8.819 -0.2861  0.4780 -0.2261
  114OSM      N11812   3.708   6.131  11.285 -0.3408  0.2766 -0.9750
  114OSM    C1511813   3.760   6.201  11.172  0.6105  0.1299  0.2673
  114OSM   H15A11814   3.751   6.307  11.191  0.9682  0.3278 -0.6243
  114OSM   H15B11815   3.703   6.178  11.083 -1.4358 -0.1929  1.5983
  114OSM   H15C11816   3.867   6.196  11.164  0.6422  0.3681  0.5082
  114OSM    C1411817   3.792   6.150  11.407 -0.3185 -0.3750 -0.7410
  114OSM   H14A11818   3.804   6.257  11.419 -1.8925 -0.2511  0.0397
  114OSM   H14B11819   3.894   6.115  11.402 -0.5097 -0.8752 -4.6540
  114OSM   H14C11820   3.736   6.114  11.492 -1.8112  2.6554 -0.3019
  114OSM    C1311821   3.569   6.188  11.324  0.1373 -0.2630  0.4024
  114OSM   H13A11822   3.561   6.290  11.357  0.9267 -0.2547  0.5855
  114OSM   H13B11823   3.536   6.131  11.409  0.7031  0.7903  1.3492
  114OSM   H13C11824   3.498   6.173  11.244  1.8477 -2.1530 -0.8669
  114OSM    C1211825   3.703   5.977  11.266  0.1735 -0.3027  0.4506
  114OSM   H12A11826   3.659   5.925  11.349  1.9273 -0.4382  1.3533
  114OSM   H12B11827   3.801   5.931  11.260 -0.8232 -3.2781  3.8697
  114OSM    C1111828   3.618   5.933  11.141 -0.0933 -0.0341 -0.0026
  114OSM   H11A11829   3.624   5.824  11.124  0.0601 -0.5240  2.7009
  114OSM   H11B11830   3.658   5.981  11.049 -1.1331  1.3118  0.2052
  114OSM      P11831   3.394   5.883  11.257  0.1748  0.3836  0.0779
  114OSM    O1311832   3.467   5.864  11.382  0.0783 -0.6714 -0.4479
  114OSM    O1411833   3.264   5.944  11.257 -0.2852 -0.6078 -0.3609
  114OSM    O1111834   3.375   5.735  11.184  0.0082  0.2645 -0.1015
  114OSM    O1211835   3.483   5.968  11.155  0.5566  0.5347 -0.2932
  114OSM    C1S11836   3.308   5.735  11.058  0.1795 -0.0436 -0.0793
  114OSM    H1S11837   3.243   5.823  11.040  0.0423 -0.0176  0.5309
  114OSM    H1T11838   3.241   5.648  11.042 -1.1286  0.8607  0.3181
  114OSM     NF11839   3.332   5.749  10.821  0.0089  0.0379  0.9860
  114OSM    HNF11840   3.306   5.668  10.768  1.9552 -1.9646  2.8433
  114OSM    C2S11841   3.408   5.728  10.936  0.1964  0.0442  0.2833
  114OSM    H2S11842   3.479   5.810  10.957 -0.2428 -0.0919  2.6360
  114OSM    C3S11843   3.488   5.591  10.953 -0.1287  0.3267  0.5468
  114OSM    H3S11844   3.414   5.508  10.962  1.2585 -1.0883 -0.6446
  114OSM     O311845   3.570   5.584  11.070 -0.1605  0.4114 -0.2051
  114OSM    HO311846   3.514   5.629  11.133 -0.3432  1.4493 -1.0942
  114OSM    C4S11847   3.570   5.570  10.831  0.5000 -0.2383 -0.0136
  114OSM    H4S11848   3.518   5.521  10.747  2.5204  0.7296 -1.9110
  114OSM    C5S11849   3.694   5.609  10.814 -0.1154  0.1531 -0.7342
  114OSM    H5S11850   3.747   5.673  10.887  0.0657  0.3267 -1.0154
  114OSM    C6S11851   3.769   5.581  10.686  0.1745 -0.0019  0.2076
  114OSM    H6S11852   3.728   5.491  10.635 -2.8595  1.1965  0.3638
  114OSM    H6T11853   3.873   5.549  10.708  0.3270  0.8383  0.7231
  114OSM    C7S11854   3.760   5.713  10.611 -0.7524  0.3856  0.2112
  114OSM    H7S11855   3.807   5.802  10.658  1.1801 -0.5576  0.1970
  114OSM    H7T11856   3.654   5.730  10.585 -0.6179 -1.6895 -2.0741
  114OSM    C8S11857   3.835   5.705  10.473 -0.1207 -0.5488 -0.0599
  114OSM    H8S11858   3.805   5.628  10.398  1.1310 -0.2742 -0.8659
  114OSM    H8T11859   3.941   5.690  10.502 -0.7296 -0.2672  2.4929
  114OSM    C9S11860   3.815   5.842  10.395  0.3072 -0.8188 -0.1875
  114OSM    H9S11861   3.867   5.921  10.453  0.2746 -1.3028  0.5133
  114OSM    H9T11862   3.711   5.876  10.412  1.0610  0.3615  2.7447
  114OSM   C10S11863   3.865   5.844  10.251  0.9341 -0.1709 -0.4295
  114OSM   H10S11864   3.812   5.762  10.198  0.4431 -0.4300  0.4459
  114OSM   H10T11865   3.975   5.837  10.261  1.2416  1.4084 -2.0497
  114OSM   C11S11866   3.830   5.963  10.163 -0.2054  0.3217  0.3842
  114OSM   H11S11867   3.902   6.047  10.173  0.1782  0.5261 -2.9299
  114OSM   H11T11868   3.731   6.002  10.195 -0.7972  0.5293 -1.5149
  114OSM   C12S11869   3.843   5.909  10.016  0.5362 -0.4114 -0.1275
  114OSM   H12S11870   3.770   5.831   9.985 -0.6840  0.5692  0.2124
  114OSM   H12T11871   3.949   5.875  10.006  1.7864  2.6837  1.5361
  114OSM   C13S11872   3.812   6.022   9.919 -0.0492 -0.4036  0.4596
  114OSM   H13S11873   3.846   6.120   9.958 -2.0103 -0.0842  1.4768
  114OSM   H13T11874   3.701   6.027   9.920 -0.1186 -1.3760 -0.4449
  114OSM   C14S11875   3.846   5.994   9.764 -0.5289 -0.0697 -0.8824
  114OSM   H14S11876   3.813   5.890   9.748 -1.7709 -0.2147  2.0687
  114OSM   H14T11877   3.953   5.990   9.735 -0.5523 -0.1588 -0.9551
  114OSM   C15S11878   3.760   6.069   9.658 -0.2094 -0.5792  0.6826
  114OSM   H15S11879   3.773   6.179   9.669 -1.9894 -0.2393 -0.1800
  114OSM   H15T11880   3.651   6.060   9.682 -0.7206  2.8018  0.2626
  114OSM   C16S11881   3.793   6.026   9.519 -0.5967 -0.8792 -0.0664
  114OSM   H16S11882   3.794   5.914   9.518  1.1553 -0.8951 -1.0376
  114OSM   H16T11883   3.894   6.050   9.480  0.0559 -1.2577  1.3333
  114OSM   C17S11884   3.698   6.082   9.412 -0.2997 -0.3469 -0.3834
  114OSM   H17S11885   3.596   6.039   9.427  0.1571 -1.8178 -1.3374
  114OSM   H17T11886   3.737   6.046   9.315  0.6293  0.5232 -0.3495
  114OSM   C18S11887   3.688   6.231   9.401 -0.2732  0.1772 -0.7017
  114OSM   H18S11888   3.789   6.269   9.376  0.3173 -0.4470  0.6408
  114OSM   H18T11889   3.661   6.276   9.499 -0.2117 -0.1645 -0.5277
  114OSM   H18U11890   3.604   6.261   9.334 -1.7629 -1.5675  0.2793
  114OSM    C1F11891   3.310   5.872  10.772  0.4177  0.0786 -0.0637
  114OSM     OF11892   3.320   5.972  10.843  0.3128 -0.1122  0.0287
  114OSM    C2F11893   3.255   5.877  10.632 -0.1341 -0.6154 -0.4399
  114OSM    H2F11894   3.144   5.874  10.631 -0.2095  1.0243 -1.0268
  114OSM    H2G11895   3.291   5.783  10.586  1.2849 -1.0999  1.5100
  114OSM    C3F11896   3.309   6.001  10.558 -0.3508  0.1548  0.2073
  114OSM    H3F11897   3.420   5.998  10.559 -0.3674 -0.6008 -0.0210
  114OSM    H3G11898   3.282   6.097  10.607 -0.4754  0.3641 -0.2728
  114OSM    C4F11899   3.258   6.021  10.414 -0.3969  0.6868  0.8880
  114OSM    H4F11900   3.147   6.026  10.412 -0.4458  0.2042 -2.0037
  114OSM    H4G11901   3.304   5.930  10.370 -0.7224  0.8417  0.2172
  114OSM    C5F11902   3.308   6.151  10.359 -0.0015 -0.0558 -0.1839
  114OSM    H5F11903   3.279   6.239  10.420  1.1821  0.3062 -0.1200
  114OSM    H5G11904   3.266   6.158  10.257  0.7468 -2.1809 -0.6945
  114OSM    C6F11905   3.460   6.147  10.327  0.3627 -0.6306 -0.2583
  114OSM    H6F11906   3.485   6.069  10.253  1.4067  0.5932 -1.2455
  114OSM    H6G11907   3.508   6.117  10.423 -0.6652 -1.2561  0.0762
  114OSM    C7F11908   3.510   6.284  10.284  0.1768  0.8905 -0.2995
  114OSM    H7F11909   3.461   6.356  10.354 -0.3036 -0.0671  0.3635
  114OSM    H7G11910   3.456   6.291  10.187 -1.1562 -4.1803 -0.1871
  114OSM    C8F11911   3.663   6.300  10.276  0.4344  0.3756 -0.3354
  114OSM    H8F11912   3.707   6.207  10.236  1.0778  0.7539 -0.5192
  114OSM    H8G11913   3.710   6.312  10.376 -0.1323  0.2541 -0.0536
  114OSM    C9F11914   3.694   6.438  10.211  0.4307  0.5512  0.1857
  114OSM    H9F11915   3.692   6.520  10.283  1.7386 -0.0695  0.9647
  114OSM   C10F11916   3.728   6.474  10.083 -0.2185 -0.4649  0.2678
  114OSM   H10F11917   3.746   6.580  10.062  0.9003 -0.7518 -0.2848
  114OSM   C11F11918   3.732   6.374   9.970 -0.8638 -0.6415  0.1924
  114OSM   H11F11919   3.695   6.273   9.999 -1.9374 -0.2967  0.0795
  114OSM   H11G11920   3.834   6.374   9.925 -0.3626 -1.7361  1.2746
  114OSM   C12F11921   3.627   6.424   9.864  0.2497  0.3456 -0.0258
  114OSM   H12F11922   3.520   6.429   9.893  0.1038 -0.5435 -0.3746
  114OSM   H12G11923   3.625   6.352   9.780 -1.1381 -1.5292  1.5055
  114OSM   C13F11924   3.663   6.561   9.799 -0.1992 -0.0537 -0.5444
  114OSM   H13F11925   3.661   6.636   9.881 -2.1925 -0.7971  0.1522
  114OSM   H13G11926   3.593   6.586   9.716 -0.1224  0.0999 -0.5635
  114OSM   C14F11927   3.803   6.556   9.734 -0.2107 -0.3583  0.3737
  114OSM   H14F11928   3.804   6.474   9.659 -0.1056  0.7471 -0.8893
  114OSM   H14G11929   3.881   6.529   9.808 -0.8469 -1.1437  0.7612
  114OSM   C15F11930   3.851   6.683   9.667 -0.2522 -0.3656  0.1424
  114OSM   H15F11931   3.769   6.748   9.628  1.2424  1.8473  0.4613
  114OSM   H15G11932   3.924   6.658   9.587 -0.6005  1.0461 -0.6508
  114OSM   C16F11933   3.922   6.779   9.774 -0.0832 -0.2696  0.3944
  114OSM   H16F11934   3.993   6.724   9.839  0.8303  1.5103  0.9621
  114OSM   H16G11935   3.842   6.811   9.844  0.1577  1.6303 -0.1477
  114OSM   C17F11936   3.981   6.915   9.727 -0.4305  0.6033  0.0832
  114OSM   H17F11937   3.906   6.972   9.667 -2.2336 -2.5550 -0.9118
  114OSM   H17G11938   4.067   6.888   9.662 -0.1133  0.1142  0.7023
  114OSM   C18F11939   4.031   6.992   9.845  0.1197  0.0275 -0.8043
  114OSM   H18F11940   4.062   7.095   9.818  1.4121 -0.0551  0.2233
  114OSM   H18G11941   4.122   6.945   9.889 -1.1449 -0.6212  1.2657
  114OSM   H18H11942   3.952   6.998   9.923 -0.4640 -1.6648 -1.2278
  115OSM      N11943   5.463   0.174   6.095 -0.9333 -0.1697  0.6655
  115OSM    C1511944   5.364   0.081   6.047  0.1076 -0.0866 -0.6084
  115OSM   H15A11945   5.334   0.026   6.135  1.7181  1.8929  1.3107
  115OSM   H15B11946   5.396   0.010   5.972 -1.0702  0.4821 -1.6909
  115OSM   H15C11947   5.276   0.132   6.009  2.2507  3.4535 -1.3275
  115OSM    C1411948   5.578   0.099   6.151 -0.1757  0.4987 -0.3397
  115OSM   H14A11949   5.659   0.166   6.174  0.5999  0.0189 -1.5288
  115OSM   H14B11950   5.619   0.027   6.081 -0.0997  0.1222  0.0861
  115OSM   H14C11951   5.550   0.043   6.239  0.8293  0.9108  0.2528
  115OSM    C1311952   5.531   0.252   5.987 -0.3535 -0.1225  0.2528
  115OSM   H13A11953   5.617   0.298   6.032 -0.8713  0.5318  0.5844
  115OSM   H13B11954   5.475   0.333   5.943  0.2338 -0.4484 -1.1419
  115OSM   H13C11955   5.564   0.185   5.909  4.8970  0.7228  1.4168
  115OSM    C1211956   5.401   0.269   6.197  0.2489 -0.2194 -0.1640
  115OSM   H12A11957   5.365   0.213   6.282 -0.7651 -0.6401 -0.8529
  115OSM   H12B11958   5.314   0.303   6.144  1.2909 -1.0650 -2.5670
  115OSM    C1111959   5.488   0.375   6.265  0.2745  0.2716 -0.3185
  115OSM   H11A11960   5.577   0.328   6.312 -1.3954  0.7385  3.7255
  115OSM   H11B11961   5.430   0.428   6.344  1.1911  1.8022 -0.6329
  115OSM      P11962   5.521   0.634   6.184 -0.1957  0.0203  0.1622
  115OSM    O1311963   5.619   0.696   6.087  0.5791 -0.1933  0.2463
  115OSM    O1411964   5.379   0.680   6.188 -0.9723  0.1882  0.2844
  115OSM    O1111965   5.578   0.640   6.331  0.0030 -0.5261 -0.3677
  115OSM    O1211966   5.517   0.474   6.167  0.1462 -0.5457  0.0677
  115OSM    C1S11967   5.718   0.672   6.345  0.2694  0.7177  0.0372
  115OSM    H1S11968   5.732   0.774   6.303 -0.1366  1.7953  2.3260
  115OSM    H1T11969   5.780   0.589   6.305 -1.0005  0.4348 -1.3970
  115OSM     NF11970   5.862   0.788   6.517  0.0125 -0.5689  0.1658
  115OSM    HNF11971   5.954   0.751   6.527  0.3808  0.5591  1.1974
  115OSM    C2S11972   5.755   0.684   6.499 -0.1496  0.4206 -0.7355
  115OSM    H2S11973   5.668   0.727   6.553 -2.4184 -1.9382 -2.2909
  115OSM    C3S11974   5.801   0.543   6.559  0.5567  0.5619 -0.0499
  115OSM    H3S11975   5.882   0.500   6.497  0.7793  0.3918  0.3550
  115OSM     O311976   5.689   0.450   6.538  0.0092 -0.2624 -0.4904
  115OSM    HO311977   5.631   0.495   6.477 -0.2412 -0.4362 -0.3854
  115OSM    C4S11978   5.833   0.554   6.700 -0.5608  0.1215  0.5038
  115OSM    H4S11979   5.932   0.601   6.710  0.0969 -1.4557  1.8407
  115OSM    C5S11980   5.775   0.503   6.814 -0.0945 -0.0448  0.2129
  115OSM    H5S11981   5.688   0.435   6.807 -0.8415  0.8616  0.5884
  115OSM    C6S11982   5.826   0.519   6.952 -0.3038 -0.1978  0.1208
  115OSM    H6S11983   5.745   0.504   7.026  1.1178  1.2283  2.0500
  115OSM    H6T11984   5.857   0.623   6.972  2.4593 -0.7436 -0.8939
  115OSM    C7S11985   5.943   0.423   6.986  0.7622 -1.2474  0.4631
  115OSM    H7S11986   6.008   0.423   6.896 -2.3783 -0.8406 -1.9929
  115OSM    H7T11987   5.898   0.321   6.987 -0.8053 -0.6346 -1.0730
  115OSM    C8S11988   6.037   0.469   7.105 -0.0087 -0.0137 -0.2479
  115OSM    H8S11989   6.070   0.575   7.100  0.3925 -0.1967 -2.1556
  115OSM    H8T11990   6.130   0.408   7.101  0.2867  0.4672 -0.8587
  115OSM    C9S11991   5.967   0.466   7.246 -0.5288 -0.4787  0.2440
  115OSM    H9S11992   5.952   0.356   7.258 -0.9048 -0.3722  0.7579
  115OSM    H9T11993   5.877   0.529   7.257 -1.3265 -1.5207 -0.0872
  115OSM   C10S11994   6.066   0.497   7.366  0.2700  0.5051 -0.2086
  115OSM   H10S11995   6.104   0.601   7.375 -1.3610  1.2570 -1.5079
  115OSM   H10T11996   6.152   0.432   7.341 -2.3317 -2.5717 -2.0313
  115OSM   C11S11997   6.004   0.439   7.495 -0.5319  0.8540  0.4060
  115OSM   H11S11998   5.985   0.329   7.494 -1.4607  0.9957  1.0451
  115OSM   H11T11999   5.907   0.487   7.521 -1.2653  0.3339 -1.2519
  115OSM   C12S12000   6.097   0.454   7.626  0.6627  0.2558 -0.3130
  115OSM   H12S12001   6.200   0.413   7.615  0.5808  0.0188 -0.2016
  115OSM   H12T12002   6.042   0.405   7.709 -0.2969  0.0795 -1.0351
  115OSM   C13S12003   6.114   0.606   7.656  0.2834 -0.4402 -0.2440
  115OSM   H13S12004   6.016   0.658   7.642  0.1738 -0.5802  0.0102
  115OSM   H13T12005   6.189   0.650   7.587 -2.0020  1.5924 -1.6058
  115OSM   C14S12006   6.168   0.624   7.803  0.6778 -0.3755 -1.0691
  115OSM   H14S12007   6.255   0.559   7.826  2.1818  1.3495 -1.7017
  115OSM   H14T12008   6.079   0.594   7.863 -0.1418 -0.6153 -2.3619
  115OSM   C15S12009   6.188   0.772   7.849 -0.3061  0.1663  0.4305
  115OSM   H15S12010   6.115   0.853   7.829  2.1609  2.0241 -1.7608
  115OSM   H15T12011   6.276   0.824   7.804 -2.0653  3.1055  0.1792
  115OSM   C16S12012   6.213   0.779   8.001 -0.5155  1.1560  0.1970
  115OSM   H16S12013   6.287   0.697   8.017 -2.5758 -0.8338 -0.0004
  115OSM   H16T12014   6.119   0.751   8.052 -0.9186 -0.9280 -1.5332
  115OSM   C17S12015   6.264   0.918   8.043  0.1861  0.4391  0.1809
  115OSM   H17S12016   6.191   0.976   8.104 -0.3623 -0.3977  0.3277
  115OSM   H17T12017   6.284   0.975   7.949 -0.6956  1.0816  0.3708
  115OSM   C18S12018   6.394   0.913   8.124  0.5112 -0.2253  0.9872
  115OSM   H18S12019   6.359   0.886   8.226 -0.8562 -0.2451  0.5335
  115OSM   H18T12020   6.449   1.009   8.128  2.2549 -1.0879 -0.6423
  115OSM   H18U12021   6.461   0.830   8.093 -0.2988 -1.0533  1.3684
  115OSM    C1F12022   5.852   0.919   6.523 -0.0479  0.0384  0.1072
  115OSM     OF12023   5.742   0.972   6.517 -0.1705 -0.3352 -0.0039
  115OSM    C2F12024   5.976   1.008   6.529  0.3383  0.3776 -0.0743
  115OSM    H2F12025   5.950   1.100   6.473 -2.5514  1.3989  2.6305
  115OSM    H2G12026   6.062   0.955   6.484  1.2038  3.0633 -1.7785
  115OSM    C3F12027   6.007   1.052   6.678 -0.4966 -0.1942  0.2614
  115OSM    H3F12028   5.917   1.095   6.728 -0.8423 -0.6431  0.0272
  115OSM    H3G12029   6.080   1.136   6.677 -0.6316 -0.0737 -1.1844
  115OSM    C4F12030   6.062   0.944   6.777 -0.2111 -0.1146  0.6154
  115OSM    H4F12031   6.161   0.922   6.732 -0.1576  3.3143 -1.3007
  115OSM    H4G12032   5.989   0.861   6.786 -2.2079  1.7125  2.4292
  115OSM    C5F12033   6.072   0.997   6.919  0.4490 -1.2353 -0.1667
  115OSM    H5F12034   5.966   1.019   6.943  0.2622  0.3658 -2.1743
  115OSM    H5G12035   6.133   1.089   6.930 -0.2268 -1.0685  3.3939
  115OSM    C6F12036   6.132   0.897   7.016  0.1202 -0.2713  0.3465
  115OSM    H6F12037   6.230   0.855   6.985 -0.2865 -0.7812 -0.2898
  115OSM    H6G12038   6.069   0.806   7.022  0.8530 -0.8807 -0.7616
  115OSM    C7F12039   6.156   0.961   7.155  0.1361  0.1494 -0.4380
  115OSM    H7F12040   6.064   1.021   7.175  1.6601  1.6870  2.6605
  115OSM    H7G12041   6.246   1.025   7.148 -0.9956  1.6310 -2.3523
  115OSM    C8F12042   6.172   0.854   7.268 -0.5224 -0.4425 -0.3904
  115OSM    H8F12043   6.249   0.785   7.230  0.3642 -0.1909  0.9041
  115OSM    H8G12044   6.077   0.796   7.268  0.4176 -2.2015 -3.3022
  115OSM    C9F12045   6.202   0.904   7.413  0.4178 -0.5048  0.9232
  115OSM    H9F12046   6.117   0.933   7.477 -0.4639 -0.1606 -0.3731
  115OSM   C10F12047   6.325   0.926   7.467  0.7617 -0.3411 -0.0731
  115OSM   H10F12048   6.331   0.972   7.566  0.5384  0.4797 -0.4286
  115OSM   C11F12049   6.454   0.889   7.400 -0.8471 -0.1930 -0.3318
  115OSM   H11F12050   6.496   0.984   7.359 -1.3521 -0.1753 -0.8164
  115OSM   H11G12051   6.435   0.802   7.334  0.8676 -0.3883 -0.6195
  115OSM   C12F12052   6.563   0.850   7.507 -0.1617 -0.0135  0.5860
  115OSM   H12F12053   6.582   0.939   7.572  0.4064  0.5142 -0.2774
  115OSM   H12G12054   6.655   0.828   7.449 -0.9645  0.0711 -0.7538
  115OSM   C13F12055   6.512   0.739   7.606  0.2025 -0.3368 -0.4938
  115OSM   H13F12056   6.469   0.652   7.551 -0.9300 -0.9816  1.3626
  115OSM   H13G12057   6.434   0.769   7.678 -0.8930 -0.2415 -1.6750
  115OSM   C14F12058   6.633   0.692   7.677  0.0878  0.2169 -0.0597
  115OSM   H14F12059   6.684   0.782   7.719 -1.0852  1.0123 -0.2951
  115OSM   H14G12060   6.705   0.641   7.611 -1.7764 -1.2128 -1.0844
  115OSM   C15F12061   6.610   0.597   7.787  1.0835 -0.5159 -0.3390
  115OSM   H15F12062   6.573   0.499   7.749  0.3019 -1.0493  1.6576
  115OSM   H15G12063   6.537   0.626   7.865  2.9754 -0.0592  1.3491
  115OSM   C16F12064   6.733   0.572   7.877  0.4367 -0.8193  0.3754
  115OSM   H16F12065   6.773   0.673   7.903 -2.0598  0.3432  0.0239
  115OSM   H16G12066   6.799   0.506   7.817 -1.3220 -1.7719 -0.5971
  115OSM   C17F12067   6.704   0.479   7.998  0.7949  0.2261  0.1491
  115OSM   H17F12068   6.803   0.468   8.048  1.0259 -1.9446 -0.6909
  115OSM   H17G12069   6.670   0.382   7.955 -3.7244  1.2105  0.9654
  115OSM   C18F12070   6.598   0.531   8.093 -0.4038  0.4271  0.6072
  115OSM   H18F12071   6.502   0.539   8.038 -0.7725 -0.9379  1.0113
  115OSM   H18G12072   6.632   0.630   8.131 -0.0309  0.4273  0.2749
  115OSM   H18H12073   6.581   0.469   8.184  0.9989 -0.9703 -0.0401
  116OSM      N12074   6.158   4.093   6.457  0.0973  0.0543 -0.0036
  116OSM    C1512075   6.067   4.104   6.576  0.0634 -0.0268 -0.1463
  116OSM   H15A12076   6.076   4.204   6.614  0.3428  0.2495 -0.9206
  116OSM   H15B12077   6.093   4.031   6.652  1.6911  0.4792 -0.1720
  116OSM   H15C12078   5.961   4.097   6.556 -0.3309  0.1686  1.6819
  116OSM    C1412079   6.293   4.119   6.506 -0.4345 -0.1111 -0.2632
  116OSM   H14A12080   6.364   4.109   6.425 -2.4806 -1.9069 -1.9447
  116OSM   H14B12081   6.327   4.053   6.584 -1.8322  3.0591  3.3788
  116OSM   H14C12082   6.307   4.223   6.533 -1.4590  0.2357 -1.0104
  116OSM    C1312083   6.150   3.950   6.400  0.1211 -0.1487 -0.3650
  116OSM   H13A12084   6.186   3.885   6.478 -1.7875  1.1968  1.7623
  116OSM   H13B12085   6.210   3.939   6.311 -0.3027 -1.3808 -0.5188
  116OSM   H13C12086   6.050   3.914   6.384  0.4846 -0.1022 -3.2936
  116OSM    C1212087   6.121   4.185   6.349  1.3564 -0.2905  0.2543
  116OSM   H12A12088   6.037   4.136   6.301  2.3728 -0.1322 -1.8243
  116OSM   H12B12089   6.193   4.192   6.268  0.4055 -0.0812 -0.5902
  116OSM    C1112090   6.076   4.332   6.377 -0.3296 -0.4722 -0.0358
  116OSM   H11A12091   6.080   4.389   6.282 -2.5647  0.7640  0.5439
  116OSM   H11B12092   6.155   4.388   6.432 -0.1189  0.1690 -0.9831
  116OSM      P12093   5.814   4.303   6.376 -0.4728  0.1254 -0.0849
  116OSM    O1312094   5.798   4.372   6.245 -0.3308  0.0649  0.7056
  116OSM    O1412095   5.802   4.152   6.378 -0.3977 -0.6859 -0.2929
  116OSM    O1112096   5.719   4.363   6.486  0.0067 -0.0798 -0.0656
  116OSM    O1212097   5.954   4.343   6.453  0.0351 -0.0607 -0.7503
  116OSM    C1S12098   5.614   4.285   6.540 -0.4560  0.1982 -0.4145
  116OSM    H1S12099   5.651   4.184   6.569 -0.3691 -0.1060 -1.5160
  116OSM    H1T12100   5.541   4.254   6.461 -3.0077  0.4779  1.6974
  116OSM     NF12101   5.455   4.263   6.721  0.1660  0.2345  0.0727
  116OSM    HNF12102   5.358   4.277   6.737 -0.1673 -2.0565  0.4829
  116OSM    C2S12103   5.535   4.361   6.648 -0.5802  0.5696 -0.0020
  116OSM    H2S12104   5.615   4.400   6.714  2.0111 -1.1478 -1.9064
  116OSM    C3S12105   5.453   4.477   6.596  0.1897 -0.7339  1.0059
  116OSM    H3S12106   5.375   4.444   6.525 -0.4922 -0.9088  1.8213
  116OSM     O312107   5.533   4.572   6.516  0.2624 -0.1348  0.8904
  116OSM    HO312108   5.611   4.519   6.501 -0.3097 -0.9572  0.7840
  116OSM    C4S12109   5.388   4.559   6.710 -0.0632 -0.5420  0.0386
  116OSM    H4S12110   5.280   4.553   6.725  0.1737 -2.2116  1.4461
  116OSM    C5S12111   5.441   4.640   6.801  0.1478 -0.6509 -0.8785
  116OSM    H5S12112   5.549   4.657   6.802  0.2842 -1.3998  0.6032
  116OSM    C6S12113   5.362   4.712   6.912 -0.1917 -0.3133 -0.1295
  116OSM    H6S12114   5.429   4.800   6.927  0.2876 -0.9809  2.0050
  116OSM    H6T12115   5.368   4.651   7.005 -2.1408 -0.4234 -0.0331
  116OSM    C7S12116   5.220   4.761   6.886  0.4407  0.3189 -0.3116
  116OSM    H7S12117   5.152   4.675   6.869 -1.4548  0.8220  3.6338
  116OSM    H7T12118   5.230   4.825   6.795  2.0748  0.2405 -0.2247
  116OSM    C8S12119   5.165   4.843   7.006  0.4932  0.1866 -0.3281
  116OSM    H8S12120   5.191   4.777   7.092 -0.3858  0.1214 -0.1071
  116OSM    H8T12121   5.055   4.854   6.994  0.1942 -1.6218  0.3664
  116OSM    C9S12122   5.243   4.968   7.029  0.0213 -0.5992  0.8269
  116OSM    H9S12123   5.174   5.054   7.020 -0.7683 -1.4086 -1.7015
  116OSM    H9T12124   5.310   4.990   6.943 -0.5415  2.4466  1.0419
  116OSM   C10S12125   5.329   4.977   7.149 -0.1443 -0.6020  0.0852
  116OSM   H10S12126   5.399   5.063   7.152 -2.7276  1.5771  0.6952
  116OSM   H10T12127   5.398   4.890   7.159  0.4561 -0.1539 -0.1257
  116OSM   C11S12128   5.261   4.978   7.280 -0.0378  0.0924 -0.3671
  116OSM   H11S12129   5.167   4.919   7.276 -0.6827  1.0114  0.6152
  116OSM   H11T12130   5.231   5.083   7.302 -3.4270 -0.1672 -2.9020
  116OSM   C12S12131   5.347   4.912   7.393  0.5543  0.4041  0.1605
  116OSM   H12S12132   5.436   4.978   7.394  0.5532  0.3927  0.9111
  116OSM   H12T12133   5.369   4.808   7.361 -2.3033  0.1991 -1.4537
  116OSM   C13S12134   5.300   4.915   7.530  0.2346  0.2906 -0.2179
  116OSM   H13S12135   5.204   4.861   7.535  0.8065 -1.0622 -2.1608
  116OSM   H13T12136   5.292   5.018   7.570 -1.6209 -0.0598  0.3933
  116OSM   C14S12137   5.386   4.829   7.626  0.4142 -0.6467 -0.5558
  116OSM   H14S12138   5.490   4.867   7.616 -0.1154  1.3250  0.9247
  116OSM   H14T12139   5.379   4.719   7.608  2.4255 -1.5394  3.1315
  116OSM   C15S12140   5.328   4.861   7.763  0.1130 -1.0275 -0.0490
  116OSM   H15S12141   5.219   4.842   7.755  0.1253 -0.5921 -1.5238
  116OSM   H15T12142   5.349   4.968   7.786  2.2391 -0.6904 -3.0184
  116OSM   C16S12143   5.391   4.774   7.873 -0.0893  0.9392 -0.2130
  116OSM   H16S12144   5.500   4.798   7.871  0.0021  0.5670 -2.8919
  116OSM   H16T12145   5.380   4.665   7.855 -1.9885  0.9017  0.9857
  116OSM   C17S12146   5.343   4.809   8.016 -0.3473 -0.2587 -0.0517
  116OSM   H17S12147   5.361   4.718   8.077  2.2748 -0.2673 -0.6869
  116OSM   H17T12148   5.234   4.826   8.012 -0.0414  1.8204 -2.3200
  116OSM   C18S12149   5.411   4.935   8.083  0.3692  0.6748  0.1082
  116OSM   H18S12150   5.517   4.906   8.099  0.4000 -2.3388 -3.8923
  116OSM   H18T12151   5.360   4.958   8.179 -0.8001  0.0798 -0.3426
  116OSM   H18U12152   5.413   5.026   8.020 -1.8769  0.3686 -0.4878
  116OSM    C1F12153   5.510   4.159   6.786 -0.0294 -0.0766 -0.0110
  116OSM     OF12154   5.632   4.160   6.810  0.0117 -0.3765  0.0369
  116OSM    C2F12155   5.408   4.056   6.838  0.0093  0.1874 -0.2011
  116OSM    H2F12156   5.324   4.060   6.765 -0.4381 -1.1130  0.2172
  116OSM    H2G12157   5.362   4.097   6.931 -0.5144  1.1411 -0.8561
  116OSM    C3F12158   5.459   3.912   6.845  0.2919 -0.1265  0.1972
  116OSM    H3F12159   5.544   3.924   6.916  1.5980  1.4679 -1.5503
  116OSM    H3G12160   5.494   3.868   6.749 -1.0483  0.8092 -0.7497
  116OSM    C4F12161   5.351   3.815   6.900  0.3293 -0.7456 -0.8857
  116OSM    H4F12162   5.260   3.809   6.837 -0.3973 -1.8331  0.2298
  116OSM    H4G12163   5.311   3.874   6.985  0.1497 -0.9874 -0.8010
  116OSM    C5F12164   5.398   3.675   6.936  0.2993 -0.2911  0.5021
  116OSM    H5F12165   5.501   3.659   6.896 -0.0763  1.0704 -1.1177
  116OSM    H5G12166   5.333   3.609   6.874  0.0541 -0.6035  1.0852
  116OSM    C6F12167   5.396   3.637   7.081  0.5088  0.0521  0.1913
  116OSM    H6F12168   5.415   3.527   7.079  3.0417  0.4451 -1.9984
  116OSM    H6G12169   5.295   3.647   7.126  0.1434  0.5485 -0.7166
  116OSM    C7F12170   5.508   3.704   7.161  0.1052  0.2433 -0.1975
  116OSM    H7F12171   5.500   3.814   7.152  1.3524  0.2503 -1.5128
  116OSM    H7G12172   5.603   3.677   7.111 -0.1549  3.3305 -2.6241
  116OSM    C8F12173   5.511   3.665   7.311  0.0969 -0.0169 -0.0990
  116OSM    H8F12174   5.594   3.717   7.365  0.4510 -1.0759  0.3984
  116OSM    H8G12175   5.541   3.558   7.306 -1.2867 -0.3486 -2.6755
  116OSM    C9F12176   5.379   3.678   7.379  1.0010 -0.2476  0.0966
  116OSM    H9F12177   5.318   3.768   7.365  0.7580 -0.8240 -3.3186
  116OSM   C10F12178   5.323   3.583   7.456  0.5797  0.1220 -1.3645
  116OSM   H10F12179   5.218   3.603   7.481  0.8976  1.5631 -1.0545
  116OSM   C11F12180   5.380   3.451   7.498 -0.4480 -0.6113 -0.3557
  116OSM   H11F12181   5.490   3.440   7.493 -0.2618 -0.0685  1.7563
  116OSM   H11G12182   5.337   3.371   7.435  0.6724 -0.8634 -0.8225
  116OSM   C12F12183   5.348   3.418   7.642 -0.8205  0.2883  0.1636
  116OSM   H12F12184   5.239   3.408   7.660 -0.6238  1.5971  2.4447
  116OSM   H12G12185   5.389   3.490   7.716  1.5453 -0.9589  0.1568
  116OSM   C13F12186   5.410   3.282   7.683  0.2256 -0.1146 -0.4616
  116OSM   H13F12187   5.501   3.257   7.625  1.0755  0.6007  0.5339
  116OSM   H13G12188   5.335   3.200   7.689 -1.1215  1.1404  0.6419
  116OSM   C14F12189   5.493   3.304   7.817 -0.3764  0.0753  0.8039
  116OSM   H14F12190   5.422   3.335   7.897 -0.8210  0.8603  0.1217
  116OSM   H14G12191   5.563   3.389   7.800 -0.9567  0.5002  0.5164
  116OSM   C15F12192   5.568   3.178   7.870  0.6196  0.1929 -0.3027
  116OSM   H15F12193   5.648   3.168   7.794  1.6299 -0.3656  0.7860
  116OSM   H15G12194   5.498   3.092   7.876 -0.0909  0.7636 -0.2961
  116OSM   C16F12195   5.632   3.203   8.004  0.2323  1.1986  0.2399
  116OSM   H16F12196   5.566   3.247   8.081  0.3992 -0.0319  1.1051
  116OSM   H16G12197   5.706   3.283   7.984 -1.2756  2.3387 -1.0108
  116OSM   C17F12198   5.715   3.082   8.063  0.2194 -0.6422  0.0178
  116OSM   H17F12199   5.789   3.118   8.138 -0.9810 -0.0330  0.9443
  116OSM   H17G12200   5.778   3.041   7.981 -2.2036 -0.8559 -1.8526
  116OSM   C18F12201   5.621   2.981   8.131 -0.0856  0.7965  0.1903
  116OSM   H18F12202   5.559   2.961   8.042  1.5066  0.4618 -0.8990
  116OSM   H18G12203   5.561   3.033   8.209 -1.8805 -0.9897  0.0527
  116OSM   H18H12204   5.668   2.888   8.171  0.8381  0.0504 -2.4462
  117OSM      N12205   5.033   0.852   5.976 -0.2127 -0.5401 -0.5358
  117OSM    C1512206   4.909   0.760   5.950 -0.6173 -0.3875  0.2599
  117OSM   H15A12207   4.939   0.672   5.895  1.5040  1.2495 -1.3658
  117OSM   H15B12208   4.828   0.812   5.902  0.5477  0.9766 -0.2971
  117OSM   H15C12209   4.869   0.729   6.046  0.6343  0.7228  1.1848
  117OSM    C1412210   5.141   0.764   6.022  0.1949  0.6367 -0.9694
  117OSM   H14A12211   5.125   0.738   6.125 -1.8957  4.5011 -0.1292
  117OSM   H14B12212   5.243   0.797   6.006  0.8946 -0.8196  0.3116
  117OSM   H14C12213   5.142   0.675   5.961  1.3657 -0.0106 -0.0623
  117OSM    C1312214   5.068   0.919   5.851  0.2361  0.1070  0.0129
  117OSM   H13A12215   5.102   0.854   5.772  1.2700 -0.2097  0.6965
  117OSM   H13B12216   5.144   0.995   5.860 -0.7393  1.0354  0.6224
  117OSM   H13C12217   4.979   0.967   5.814 -0.2843 -0.0571  1.0029
  117OSM    C1212218   4.997   0.955   6.086  0.0308  0.0024  0.2433
  117OSM   H12A12219   4.932   1.025   6.036  0.6881  0.8227  0.5094
  117OSM   H12B12220   5.080   1.017   6.119 -0.9574  0.8038  1.3102
  117OSM    C1112221   4.936   0.903   6.218  0.1736  0.3431 -0.1289
  117OSM   H11A12222   4.838   0.863   6.185 -0.0804  1.0095 -0.2108
  117OSM   H11B12223   4.922   0.992   6.282 -1.1757  0.1749 -0.1638
  117OSM      P12224   4.953   0.713   6.389 -0.2855  0.3789  0.3271
  117OSM    O1312225   4.927   0.798   6.507  1.2414  0.2403 -0.5093
  117OSM    O1412226   4.839   0.639   6.326  0.0388  0.1299  0.0914
  117OSM    O1112227   5.068   0.598   6.417 -0.0541 -0.3224 -0.1385
  117OSM    O1212228   5.017   0.804   6.279  0.0334  0.1690  0.2662
  117OSM    C1S12229   5.189   0.619   6.495 -0.9331  0.1518  0.6898
  117OSM    H1S12230   5.203   0.727   6.514  0.0589  0.4776 -1.5062
  117OSM    H1T12231   5.267   0.600   6.417 -0.6934 -0.6035  1.1048
  117OSM     NF12232   5.331   0.558   6.696  0.3218 -0.0351  0.4642
  117OSM    HNF12233   5.395   0.483   6.709  0.8398  0.1430 -0.8638
  117OSM    C2S12234   5.203   0.532   6.626 -0.8019 -0.3134 -0.1199
  117OSM    H2S12235   5.121   0.567   6.692  0.0031 -1.2579  1.4310
  117OSM    C3S12236   5.179   0.382   6.591 -0.6579 -0.2691  0.6299
  117OSM    H3S12237   5.271   0.349   6.537 -0.5667  0.4891  0.3008
  117OSM     O312238   5.073   0.364   6.503 -0.1364  0.0885 -0.0953
  117OSM    HO312239   5.055   0.448   6.459  0.2117  0.9328  1.3146
  117OSM    C4S12240   5.160   0.293   6.712 -0.2961  0.0643 -0.1126
  117OSM    H4S12241   5.248   0.243   6.755 -1.9982 -0.9405  2.4085
  117OSM    C5S12242   5.044   0.264   6.781 -0.3063 -0.4029 -0.7063
  117OSM    H5S12243   4.947   0.293   6.738 -1.2008 -1.9549  0.2008
  117OSM    C6S12244   5.041   0.180   6.904  0.4639  0.1613  0.5849
  117OSM    H6S12245   5.125   0.108   6.909  0.4309 -0.0065 -0.8467
  117OSM    H6T12246   4.949   0.119   6.912  0.9011 -0.7933 -1.2431
  117OSM    C7S12247   5.059   0.260   7.036  0.3059 -0.2352 -0.2950
  117OSM    H7S12248   4.973   0.330   7.045  2.4745  2.5735 -0.0378
  117OSM    H7T12249   5.151   0.322   7.026 -0.3178  0.5149 -1.7378
  117OSM    C8S12250   5.073   0.172   7.160  0.3771  0.1940 -0.3353
  117OSM    H8S12251   5.166   0.111   7.169  0.5853  0.6833  1.3545
  117OSM    H8T12252   4.994   0.095   7.152 -0.2732  0.9226 -1.0097
  117OSM    C9S12253   5.069   0.249   7.296  0.9603 -0.1963 -0.1384
  117OSM    H9S12254   4.984   0.320   7.301  0.3264 -0.9899  0.5280
  117OSM    H9T12255   5.155   0.318   7.307  1.5846 -1.1979  1.8563
  117OSM   C10S12256   5.057   0.147   7.416 -0.7264 -0.6243  0.0088
  117OSM   H10S12257   4.968   0.080   7.408 -0.0711 -1.4650 -0.3777
  117OSM   H10T12258   5.040   0.207   7.508  0.1444  1.0047 -0.8433
  117OSM   C11S12259   5.194   0.065   7.425 -0.9137 -0.0174 -0.3323
  117OSM   H11S12260   5.270   0.134   7.382 -2.2413  1.9913  0.3863
  117OSM   H11T12261   5.190  -0.028   7.365  0.7369  0.3435 -1.0708
  117OSM   C12S12262   5.247   0.043   7.569  0.6219 -0.0629 -0.4619
  117OSM   H12S12263   5.331  -0.030   7.572  1.9465  1.3156 -1.8722
  117OSM   H12T12264   5.170   0.010   7.642  0.4072  0.8267 -0.2751
  117OSM   C13S12265   5.293   0.177   7.632  0.4144  0.3560 -0.2955
  117OSM   H13S12266   5.227   0.256   7.591 -0.4538  0.9087  2.0345
  117OSM   H13T12267   5.394   0.213   7.604  0.7607 -2.1854 -2.7497
  117OSM   C14S12268   5.267   0.180   7.784 -0.3203 -0.3672  0.3583
  117OSM   H14S12269   5.299   0.082   7.826  0.5012 -0.0359  0.5179
  117OSM   H14T12270   5.159   0.179   7.811 -0.1999 -0.9801  0.8362
  117OSM   C15S12271   5.337   0.293   7.861  0.2906 -0.1640  0.0725
  117OSM   H15S12272   5.314   0.390   7.812 -3.5304 -0.9425  0.0168
  117OSM   H15T12273   5.447   0.286   7.850  0.2896  0.6643 -0.5292
  117OSM   C16S12274   5.310   0.293   8.011 -0.7276 -0.3725  0.1089
  117OSM   H16S12275   5.204   0.315   8.035 -0.7825 -1.3332  0.7819
  117OSM   H16T12276   5.377   0.372   8.052  0.1951 -1.7091  1.2773
  117OSM   C17S12277   5.355   0.170   8.088 -0.2513  0.3893  0.1204
  117OSM   H17S12278   5.349   0.075   8.030  2.5333 -1.0962  2.0508
  117OSM   H17T12279   5.279   0.162   8.169 -0.3960 -0.0221 -0.0537
  117OSM   C18S12280   5.492   0.180   8.158 -0.2062  0.3766 -0.2122
  117OSM   H18S12281   5.499   0.265   8.229  1.9417 -1.7842  2.3876
  117OSM   H18T12282   5.574   0.177   8.083  0.4977  0.3661  0.5491
  117OSM   H18U12283   5.504   0.089   8.220  3.0932 -0.9376 -2.4667
  117OSM    C1F12284   5.348   0.673   6.759  0.2921  0.5258 -0.2299
  117OSM     OF12285   5.258   0.755   6.756 -0.3896  0.3792  0.2676
  117OSM    C2F12286   5.464   0.697   6.851  0.0879 -0.2157  0.1568
  117OSM    H2F12287   5.510   0.798   6.843  0.8887 -0.4467  1.5207
  117OSM    H2G12288   5.539   0.621   6.819 -0.3335 -0.1698 -0.9715
  117OSM    C3F12289   5.419   0.685   7.006  0.3388 -0.2230  0.6798
  117OSM    H3F12290   5.344   0.766   7.019  0.4352  0.1032 -0.7171
  117OSM    H3G12291   5.508   0.712   7.067 -1.1627  1.6758  2.1687
  117OSM    C4F12292   5.363   0.547   7.040  0.1187 -0.1699  0.0923
  117OSM    H4F12293   5.423   0.465   6.995  0.6506  1.2883 -1.9799
  117OSM    H4G12294   5.259   0.549   7.001 -0.9866  1.4787  2.8016
  117OSM    C5F12295   5.356   0.525   7.197 -0.2763 -0.1617 -0.1255
  117OSM    H5F12296   5.267   0.461   7.213  0.0796 -0.4607  0.7170
  117OSM    H5G12297   5.337   0.626   7.240 -2.2322  0.2165 -1.7204
  117OSM    C6F12298   5.493   0.465   7.251  0.5466  0.2550  0.1784
  117OSM    H6F12299   5.575   0.525   7.206 -0.9734  0.6586 -2.2719
  117OSM    H6G12300   5.501   0.364   7.205 -0.5906  0.3044 -0.1693
  117OSM    C7F12301   5.498   0.459   7.402  0.5391 -0.2452 -0.2721
  117OSM    H7F12302   5.414   0.391   7.429 -0.2691  1.0244  0.4812
  117OSM    H7G12303   5.478   0.557   7.450 -0.9926 -2.1030  3.3373
  117OSM    C8F12304   5.630   0.398   7.465 -0.2233  0.1207 -0.2806
  117OSM    H8F12305   5.714   0.451   7.415  0.6472 -2.4490 -1.7097
  117OSM    H8G12306   5.627   0.289   7.443 -0.1703 -0.3321  1.7338
  117OSM    C9F12307   5.651   0.425   7.608  0.6080  0.5006  0.0763
  117OSM    H9F12308   5.642   0.533   7.625  0.8920  0.4496  0.5834
  117OSM   C10F12309   5.670   0.345   7.716 -0.1878 -0.1805  0.5552
  117OSM   H10F12310   5.694   0.392   7.812  0.5014  0.9157 -0.1252
  117OSM   C11F12311   5.672   0.195   7.706  0.0677  0.4269 -0.2464
  117OSM   H11F12312   5.638   0.163   7.606 -1.6283  0.8796  0.1503
  117OSM   H11G12313   5.601   0.155   7.782 -0.1325  2.0948  0.4971
  117OSM   C12F12314   5.806   0.128   7.734  0.4197 -0.0996 -0.0768
  117OSM   H12F12315   5.876   0.143   7.649  0.8529  2.6987  0.6806
  117OSM   H12G12316   5.778   0.020   7.739  1.4380 -0.3811 -0.2403
  117OSM   C13F12317   5.879   0.161   7.868  0.2027 -0.1446  0.2016
  117OSM   H13F12318   5.799   0.175   7.943 -0.3899  0.9430 -0.6006
  117OSM   H13G12319   5.928   0.260   7.857 -1.0248  0.3637 -0.9932
  117OSM   C14F12320   5.987   0.060   7.922  0.1493 -0.4700 -0.1519
  117OSM   H14F12321   6.069   0.061   7.846  0.3738  1.7711  0.0552
  117OSM   H14G12322   5.948  -0.044   7.921 -1.5658  0.1189  0.7164
  117OSM   C15F12323   6.062   0.102   8.053 -0.6060  0.5630  0.4575
  117OSM   H15F12324   6.138   0.179   8.028 -1.2564  0.2027 -3.1797
  117OSM   H15G12325   6.120   0.013   8.082  0.7659  1.6139  1.0331
  117OSM   C16F12326   5.958   0.128   8.163  0.2639  0.0271 -0.1026
  117OSM   H16F12327   5.865   0.071   8.143  0.2703 -0.5313  1.3828
  117OSM   H16G12328   5.935   0.237   8.172  0.4346 -0.0220  1.0079
  117OSM   C17F12329   6.019   0.096   8.298 -0.8565 -0.7087 -0.5372
  117OSM   H17F12330   5.939   0.109   8.374  0.6103  0.2279  0.9098
  117OSM   H17G12331   6.027  -0.015   8.307 -3.7215 -0.9393  0.4575
  117OSM   C18F12332   6.155   0.165   8.338  0.2355  0.1344 -0.4706
  117OSM   H18F12333   6.196   0.144   8.439 -1.9273  1.8501  0.8462
  117OSM   H18G12334   6.133   0.274   8.343  3.1114  0.7879 -0.4751
  117OSM   H18H12335   6.227   0.135   8.258 -0.2278  1.0784 -1.2606
  118OSM      N12336   5.380   1.017   6.374  0.5934 -0.0908  0.8173
  118OSM    C1512337   5.434   1.152   6.414 -0.1335  0.2856 -0.6680
  118OSM   H15A12338   5.428   1.165   6.521  1.7290  2.2135 -0.7146
  118OSM   H15B12339   5.377   1.230   6.366 -1.2327  0.4369  0.8050
  118OSM   H15C12340   5.534   1.157   6.374 -1.2102 -0.5389 -3.6875
  118OSM    C1412341   5.429   0.908   6.465  0.0272 -0.2329  0.4467
  118OSM   H14A12342   5.529   0.932   6.497 -0.9791  0.7287  3.1707
  118OSM   H14B12343   5.428   0.811   6.419  2.9462  0.2067 -0.7433
  118OSM   H14C12344   5.381   0.905   6.562 -0.4786 -3.9275  0.2215
  118OSM    C1312345   5.232   1.015   6.382 -0.6015 -0.5460 -0.5026
  118OSM   H13A12346   5.188   1.089   6.316  0.8510  0.0505 -0.8496
  118OSM   H13B12347   5.192   1.024   6.482 -2.1227 -3.2968 -0.7513
  118OSM   H13C12348   5.193   0.923   6.341 -0.1724 -0.9513 -0.0096
  118OSM    C1212349   5.415   0.980   6.233 -0.4443  0.3616  0.1976
  118OSM   H12A12350   5.372   0.884   6.209 -0.2073 -0.0211  1.2269
  118OSM   H12B12351   5.521   0.964   6.225 -0.0379  1.4457  2.4469
  118OSM    C1112352   5.381   1.089   6.124 -0.0160 -0.0865 -0.1689
  118OSM   H11A12353   5.403   1.043   6.024 -0.6881 -1.8327  0.4367
  118OSM   H11B12354   5.452   1.170   6.149 -0.1729  0.6719 -2.0251
  118OSM      P12355   5.215   1.282   6.080  0.2148 -0.2408 -0.0421
  118OSM    O1312356   5.322   1.330   5.985 -0.2065 -0.0917  0.0790
  118OSM    O1412357   5.078   1.303   6.025 -0.3256  0.2633 -0.0800
  118OSM    O1112358   5.227   1.364   6.219 -0.0244 -0.7093  0.2594
  118OSM    O1212359   5.240   1.132   6.121 -0.4848  0.0759  0.1725
  118OSM    C1S12360   5.114   1.377   6.305  0.6395 -0.3268  0.1567
  118OSM    H1S12361   5.108   1.283   6.363 -0.4279 -1.4262 -1.6344
  118OSM    H1T12362   5.017   1.399   6.254  0.9221  2.1686  0.5616
  118OSM     NF12363   5.037   1.499   6.500  0.2326 -0.5004 -0.7411
  118OSM    HNF12364   4.949   1.543   6.480  0.4135 -0.4146 -1.3855
  118OSM    C2S12365   5.143   1.498   6.401  0.8342  0.0970 -0.5506
  118OSM    H2S12366   5.241   1.474   6.447  1.0333  0.4880 -0.7661
  118OSM    C3S12367   5.157   1.635   6.321  0.3018  0.7494 -0.1807
  118OSM    H3S12368   5.059   1.654   6.272  0.4405  0.4252 -0.5898
  118OSM     O312369   5.244   1.621   6.210  0.7519 -0.1072  0.6995
  118OSM    HO312370   5.284   1.534   6.203  3.1340  0.9879 -0.2479
  118OSM    C4S12371   5.178   1.745   6.418  0.2156  0.4238  0.0873
  118OSM    H4S12372   5.265   1.728   6.484 -0.2225 -0.1567  0.5293
  118OSM    C5S12373   5.107   1.857   6.438  0.0796 -0.4949  0.2711
  118OSM    H5S12374   5.017   1.875   6.377  0.0873  4.2529  1.2347
  118OSM    C6S12375   5.136   1.970   6.541  0.5131  0.0104 -0.3512
  118OSM    H6S12376   5.164   2.058   6.479  0.4259 -2.0884 -3.6211
  118OSM    H6T12377   5.226   1.948   6.603  0.0104  1.2342  0.8930
  118OSM    C7S12378   5.015   2.001   6.632  0.6830  0.3846 -0.0392
  118OSM    H7S12379   4.923   2.005   6.570  0.9831  0.3567 -0.4898
  118OSM    H7T12380   5.029   2.101   6.678 -2.7222  0.8544  0.2156
  118OSM    C8S12381   4.976   1.890   6.738 -0.1595  0.4001 -0.0590
  118OSM    H8S12382   4.968   1.790   6.690 -1.0359  0.5471 -0.2216
  118OSM    H8T12383   4.874   1.914   6.772  0.5030  1.3189  1.3675
  118OSM    C9S12384   5.053   1.875   6.865 -0.1378  0.0734  0.2322
  118OSM    H9S12385   5.037   1.972   6.917 -0.0355  0.2216 -0.0115
  118OSM    H9T12386   5.157   1.852   6.833  0.2207  3.3338 -1.4032
  118OSM   C10S12387   4.997   1.788   6.968 -0.1571  0.3100  0.2615
  118OSM   H10S12388   5.019   1.681   6.949 -2.4932  0.1098 -1.7314
  118OSM   H10T12389   4.887   1.793   6.975 -0.3662 -1.4307 -1.0363
  118OSM   C11S12390   5.054   1.815   7.108  0.5525  0.8026  0.1638
  118OSM   H11S12391   5.024   1.917   7.142  1.0183  0.6895  0.9528
  118OSM   H11T12392   5.165   1.814   7.099  0.4459  1.2149 -1.4973
  118OSM   C12S12393   5.008   1.719   7.224  0.1164  0.2971  0.2654
  118OSM   H12S12394   5.034   1.614   7.200 -1.2494 -0.3011  1.3096
  118OSM   H12T12395   4.900   1.733   7.244  0.2273  1.8527 -0.0899
  118OSM   C13S12396   5.084   1.753   7.346 -0.1113 -0.2263  0.1728
  118OSM   H13S12397   5.017   1.736   7.433  1.8887  0.2401  1.9008
  118OSM   H13T12398   5.111   1.861   7.341  2.9203 -0.9118 -0.5913
  118OSM   C14S12399   5.213   1.673   7.361  0.3738  0.2611 -0.2400
  118OSM   H14S12400   5.286   1.714   7.287 -1.3528 -0.4405 -2.4407
  118OSM   H14T12401   5.196   1.569   7.327  0.1600  0.2932 -0.2359
  118OSM   C15S12402   5.279   1.679   7.498  0.0890  0.0280 -0.8863
  118OSM   H15S12403   5.192   1.674   7.568  0.2223 -0.6805 -0.7616
  118OSM   H15T12404   5.334   1.774   7.517 -0.3112  0.2033 -0.5840
  118OSM   C16S12405   5.366   1.557   7.535  0.8080  0.3012  0.3363
  118OSM   H16S12406   5.452   1.556   7.465  1.8222 -1.5108  1.4990
  118OSM   H16T12407   5.309   1.463   7.521  0.7876  0.3425  0.1389
  118OSM   C17S12408   5.416   1.557   7.681 -0.2750  0.2789  0.4981
  118OSM   H17S12409   5.323   1.543   7.739 -2.0980 -1.5869 -2.5639
  118OSM   H17T12410   5.461   1.657   7.698 -0.5014  0.4506  0.1156
  118OSM   C18S12411   5.511   1.443   7.713 -0.2488 -0.3772  0.4395
  118OSM   H18S12412   5.505   1.360   7.639 -1.0077 -2.8990  3.1513
  118OSM   H18T12413   5.489   1.391   7.809 -2.0810  2.8351  1.9089
  118OSM   H18U12414   5.618   1.473   7.721 -0.0102 -0.5067 -1.7792
  118OSM    C1F12415   5.040   1.420   6.608 -0.4641  0.0623  0.7590
  118OSM     OF12416   5.142   1.356   6.629  0.4913  0.1691 -0.1820
  118OSM    C2F12417   4.922   1.424   6.691 -0.1301  1.0503 -0.5898
  118OSM    H2F12418   4.845   1.370   6.631  1.1842 -0.3557 -1.0684
  118OSM    H2G12419   4.886   1.529   6.700  0.0099  0.9400  1.8244
  118OSM    C3F12420   4.949   1.365   6.832  0.0414  0.2784  0.2018
  118OSM    H3F12421   5.022   1.422   6.893 -1.4794  1.2483  1.1718
  118OSM    H3G12422   4.989   1.261   6.822  1.8087  0.8625  0.7952
  118OSM    C4F12423   4.813   1.333   6.893 -0.5133 -0.2215 -0.7399
  118OSM    H4F12424   4.754   1.270   6.823  0.0343  0.2028 -1.6082
  118OSM    H4G12425   4.760   1.430   6.907  2.8978  1.6191  0.5502
  118OSM    C5F12426   4.840   1.261   7.032  0.5337 -0.0202 -0.2049
  118OSM    H5F12427   4.948   1.281   7.049  0.2872 -0.3063  2.0225
  118OSM    H5G12428   4.827   1.151   7.030  2.7482 -0.3284 -1.8042
  118OSM    C6F12429   4.752   1.330   7.147 -0.4888  0.5871  0.2529
  118OSM    H6F12430   4.645   1.329   7.117 -0.5495  0.0439  0.4590
  118OSM    H6G12431   4.790   1.432   7.165  1.4643 -0.0756  0.1001
  118OSM    C7F12432   4.754   1.255   7.280  0.2420  0.7071  0.5585
  118OSM    H7F12433   4.690   1.164   7.283  0.7614  0.1033 -2.7586
  118OSM    H7G12434   4.719   1.330   7.354 -1.5553  0.3591  0.0958
  118OSM    C8F12435   4.892   1.216   7.322  0.3925 -0.2694 -0.5495
  118OSM    H8F12436   4.941   1.152   7.246 -0.2462  0.0752 -1.2611
  118OSM    H8G12437   4.882   1.149   7.411  0.6399  1.4118  0.7861
  118OSM    C9F12438   4.982   1.335   7.353  0.3422 -0.0426 -0.0792
  118OSM    H9F12439   4.989   1.408   7.271 -0.8890  0.0271 -0.1471
  118OSM   C10F12440   5.031   1.360   7.478 -0.1509  0.4559  0.0557
  118OSM   H10F12441   5.106   1.439   7.491  1.2150 -0.7261 -0.3809
  118OSM   C11F12442   5.007   1.278   7.607 -0.5111  1.1180  0.4724
  118OSM   H11F12443   4.963   1.178   7.590 -0.1199  0.8523  0.9837
  118OSM   H11G12444   4.931   1.331   7.668 -0.6069  1.7330 -0.1634
  118OSM   C12F12445   5.132   1.250   7.702 -0.4908 -0.0574 -0.5762
  118OSM   H12F12446   5.224   1.309   7.686 -0.1015 -0.1384  1.1703
  118OSM   H12G12447   5.147   1.141   7.688 -0.8056  0.1521 -2.8884
  118OSM   C13F12448   5.105   1.255   7.858  0.0635 -0.2332  0.1592
  118OSM   H13F12449   5.020   1.193   7.895  0.5963 -0.9853  0.1617
  118OSM   H13G12450   5.078   1.358   7.888 -0.2024  0.2447 -1.6276
  118OSM   C14F12451   5.224   1.209   7.941  0.2704  0.3377  0.4338
  118OSM   H14F12452   5.314   1.258   7.899  2.6713 -1.1994  3.4639
  118OSM   H14G12453   5.241   1.101   7.926  1.5486  0.5224  0.4911
  118OSM   C15F12454   5.218   1.242   8.088 -0.3001 -0.5764  0.1553
  118OSM   H15F12455   5.123   1.195   8.120 -0.4369 -0.5396 -0.2023
  118OSM   H15G12456   5.205   1.352   8.102 -2.5933 -0.9429  1.4650
  118OSM   C16F12457   5.346   1.193   8.161 -0.4560 -0.5231  0.2517
  118OSM   H16F12458   5.436   1.257   8.143  0.4018 -2.1088 -1.4545
  118OSM   H16G12459   5.372   1.087   8.140 -2.6286 -0.7813 -1.4414
  118OSM   C17F12460   5.332   1.190   8.311  0.8678  0.5304 -0.6121
  118OSM   H17F12461   5.258   1.109   8.328  1.3582 -0.2514 -2.0269
  118OSM   H17G12462   5.276   1.282   8.338  0.1960  1.2817 -4.1188
  118OSM   C18F12463   5.457   1.162   8.401  1.1141  0.1841 -0.1349
  118OSM   H18F12464   5.429   1.140   8.506  0.7267 -0.6079 -0.3962
  118OSM   H18G12465   5.520   1.252   8.386 -0.1394  1.1820  0.4483
  118OSM   H18H12466   5.514   1.075   8.361  0.8381  0.7277 -1.8103
  119OSM      N12467   1.089   2.134   5.860  0.4885 -0.1107  0.0471
  119OSM    C1512468   1.081   2.283   5.846 -0.6884 -0.6828 -0.1828
  119OSM   H15A12469   1.146   2.315   5.767 -0.3239  0.6454  0.6163
  119OSM   H15B12470   1.104   2.339   5.936 -0.9289 -0.2730 -0.3717
  119OSM   H15C12471   0.980   2.313   5.820 -0.0939  0.3456 -1.3966
  119OSM    C1412472   1.014   2.102   5.987 -0.4225  0.5317 -0.4492
  119OSM   H14A12473   1.045   2.004   6.020 -0.3752 -0.2180 -2.5903
  119OSM   H14B12474   0.907   2.108   5.972 -0.3092 -0.3115 -1.7256
  119OSM   H14C12475   1.047   2.156   6.075  1.4070 -0.8040 -0.2638
  119OSM    C1312476   1.037   2.075   5.737 -0.3789  0.5722 -0.4147
  119OSM   H13A12477   1.054   1.968   5.734 -0.1737  0.5824  0.2658
  119OSM   H13B12478   1.076   2.116   5.645  1.0029 -0.3678 -0.2785
  119OSM   H13C12479   0.929   2.086   5.733 -0.2474  1.7995 -1.2088
  119OSM    C1212480   1.231   2.090   5.878  0.4250  0.0838  0.5026
  119OSM   H12A12481   1.281   2.154   5.950  1.4591 -0.1591  0.0158
  119OSM   H12B12482   1.283   2.101   5.784 -1.1649 -1.2086 -0.5829
  119OSM    C1112483   1.252   1.943   5.919 -0.0491  0.2566 -0.6093
  119OSM   H11A12484   1.202   1.875   5.847  0.3268 -1.1834  0.4403
  119OSM   H11B12485   1.214   1.914   6.019 -1.4543  2.3326 -0.4898
  119OSM      P12486   1.496   1.954   6.009 -0.1609  0.4702  0.4597
  119OSM    O1312487   1.620   1.881   5.977  0.0331  0.1844  0.5548
  119OSM    O1412488   1.508   2.097   6.008 -0.1365 -0.6366  0.6035
  119OSM    O1112489   1.444   1.907   6.145 -0.3272  0.1442  0.1870
  119OSM    O1212490   1.389   1.910   5.905  0.0047  0.1276  0.2579
  119OSM    C1S12491   1.412   1.771   6.174 -0.0880 -0.0587  0.3657
  119OSM    H1S12492   1.494   1.704   6.141 -0.4434  0.6149 -2.0526
  119OSM    H1T12493   1.321   1.734   6.122  2.0621 -1.7370 -2.4934
  119OSM     NF12494   1.352   1.616   6.348  0.0993 -0.3256 -0.1106
  119OSM    HNF12495   1.269   1.571   6.315 -0.4270  1.5501 -1.4749
  119OSM    C2S12496   1.372   1.762   6.321  0.7088 -0.3202 -0.0833
  119OSM    H2S12497   1.450   1.808   6.385 -0.9160 -0.1068  1.8610
  119OSM    C3S12498   1.249   1.848   6.348 -0.3266  1.2162 -0.0376
  119OSM    H3S12499   1.163   1.804   6.293 -0.8811  2.6653 -0.3864
  119OSM     O312500   1.248   1.981   6.301  0.3087  0.4619 -0.5432
  119OSM    HO312501   1.320   2.000   6.241 -1.8183  0.8801 -3.2072
  119OSM    C4S12502   1.208   1.819   6.485  0.1585  0.1416 -0.5856
  119OSM    H4S12503   1.153   1.724   6.488  1.7701 -0.9428 -2.5561
  119OSM    C5S12504   1.232   1.889   6.600  0.6683 -0.0190  0.2344
  119OSM    H5S12505   1.284   1.984   6.582  0.1547  0.1284 -0.5055
  119OSM    C6S12506   1.194   1.853   6.745  0.3429  1.4005 -0.0160
  119OSM    H6S12507   1.113   1.913   6.791  0.1097 -0.7504  2.6265
  119OSM    H6T12508   1.278   1.882   6.812  0.4165 -1.5615  1.3423
  119OSM    C7S12509   1.148   1.705   6.766  0.3094  0.1170  0.0913
  119OSM    H7S12510   1.223   1.629   6.735  0.9776  1.3219 -1.4034
  119OSM    H7T12511   1.060   1.677   6.705 -0.0501  1.4532 -0.0497
  119OSM    C8S12512   1.120   1.687   6.911  0.6527 -0.5389  0.0208
  119OSM    H8S12513   1.049   1.603   6.923 -1.0753 -0.5271 -6.2769
  119OSM    H8T12514   1.069   1.780   6.945  0.7228 -0.4769 -0.0436
  119OSM    C9S12515   1.246   1.680   7.010  0.6049 -0.1072 -0.0358
  119OSM    H9S12516   1.291   1.779   6.987 -2.6413  1.2131 -1.4133
  119OSM    H9T12517   1.314   1.598   6.977  3.0661 -0.1657  4.4240
  119OSM   C10S12518   1.219   1.677   7.164  0.1806 -0.9492  1.1241
  119OSM   H10S12519   1.161   1.585   7.190 -0.3776 -1.1067 -0.5036
  119OSM   H10T12520   1.147   1.756   7.192 -0.2962  0.7119 -3.7615
  119OSM   C11S12521   1.342   1.697   7.239  0.2889 -0.1066 -0.4661
  119OSM   H11S12522   1.380   1.801   7.223 -0.0987  0.5825  2.5442
  119OSM   H11T12523   1.421   1.626   7.208  0.3505  0.0281 -0.6242
  119OSM   C12S12524   1.319   1.678   7.395  0.3095 -1.3941  0.7145
  119OSM   H12S12525   1.261   1.584   7.411  1.7701 -2.4508  0.1216
  119OSM   H12T12526   1.256   1.760   7.434  0.9523 -0.7110  0.3316
  119OSM   C13S12527   1.438   1.684   7.495  0.3430 -0.0807 -0.4103
  119OSM   H13S12528   1.493   1.781   7.493 -1.1635  0.8077  0.0784
  119OSM   H13T12529   1.507   1.603   7.462  0.8358  0.5630 -0.9833
  119OSM   C14S12530   1.397   1.677   7.643 -0.0554 -0.0624 -0.1995
  119OSM   H14S12531   1.345   1.581   7.661 -0.8891  0.0767 -1.6463
  119OSM   H14T12532   1.330   1.763   7.663 -0.9442  0.3752 -4.2242
  119OSM   C15S12533   1.515   1.686   7.741  0.1699  0.2320 -0.5261
  119OSM   H15S12534   1.526   1.793   7.767 -1.3913  1.1192 -3.1564
  119OSM   H15T12535   1.600   1.646   7.682  0.2992 -2.0827  1.0895
  119OSM   C16S12536   1.489   1.584   7.860  0.2964 -0.1647 -0.2169
  119OSM   H16S12537   1.467   1.486   7.813 -0.9529  0.2824 -0.6210
  119OSM   H16T12538   1.400   1.619   7.917  1.1785  0.0201  1.0944
  119OSM   C17S12539   1.609   1.574   7.956 -0.7469 -0.3765 -0.2017
  119OSM   H17S12540   1.688   1.504   7.924  0.9087  1.3058  0.0364
  119OSM   H17T12541   1.555   1.550   8.050 -1.3321  1.4648 -0.0178
  119OSM   C18S12542   1.682   1.707   7.993 -0.0074  0.3155  0.1356
  119OSM   H18S12543   1.614   1.791   8.020 -2.3698 -2.2434  2.6768
  119OSM   H18T12544   1.740   1.758   7.912 -0.3446  1.5185  0.6299
  119OSM   H18U12545   1.755   1.699   8.076 -1.4751  1.1160  1.5699
  119OSM    C1F12546   1.454   1.537   6.367  0.4175  0.0546 -0.2879
  119OSM     OF12547   1.569   1.580   6.363 -0.1490  0.0523 -0.6402
  119OSM    C2F12548   1.424   1.387   6.378  0.4146  0.2587  0.1318
  119OSM    H2F12549   1.455   1.340   6.282  1.0888  2.0765 -0.5823
  119OSM    H2G12550   1.319   1.367   6.406  0.5222 -2.5516 -1.0627
  119OSM    C3F12551   1.510   1.318   6.485  0.2209  0.2475 -0.3686
  119OSM    H3F12552   1.619   1.321   6.464  0.2850 -0.7681 -0.2293
  119OSM    H3G12553   1.492   1.209   6.490  2.4135 -0.1393 -0.0829
  119OSM    C4F12554   1.484   1.384   6.625  0.3204  0.0682 -0.5277
  119OSM    H4F12555   1.377   1.412   6.631  0.6777  1.6799 -1.1946
  119OSM    H4G12556   1.543   1.478   6.628 -1.1133  1.0961 -2.4158
  119OSM    C5F12557   1.528   1.294   6.743  0.1516  0.3465 -0.0736
  119OSM    H5F12558   1.638   1.286   6.755 -0.0670 -4.9415  0.7684
  119OSM    H5G12559   1.496   1.191   6.717  0.2824 -0.2610  2.0480
  119OSM    C6F12560   1.460   1.332   6.876 -0.0479  0.4323 -0.8302
  119OSM    H6F12561   1.354   1.364   6.860 -0.0622  1.1405  0.5532
  119OSM    H6G12562   1.499   1.424   6.924  0.0287 -0.0051 -0.0253
  119OSM    C7F12563   1.465   1.209   6.973 -0.2494  0.2508  0.3388
  119OSM    H7F12564   1.568   1.167   6.973 -0.0533  0.7206  0.0908
  119OSM    H7G12565   1.399   1.128   6.934  0.0779  0.4340 -0.6228
  119OSM    C8F12566   1.411   1.241   7.111  0.7148 -0.1770  0.1796
  119OSM    H8F12567   1.371   1.149   7.160  0.9784  0.4776  1.7016
  119OSM    H8G12568   1.331   1.317   7.102  1.2498  0.3203 -0.4117
  119OSM    C9F12569   1.511   1.298   7.205 -0.6522  0.5338 -0.4165
  119OSM    H9F12570   1.605   1.332   7.159  0.3274  0.2374  1.2804
  119OSM   C10F12571   1.503   1.294   7.338  0.7521 -0.0582 -0.6025
  119OSM   H10F12572   1.582   1.336   7.402 -1.3603  0.8324  1.5640
  119OSM   C11F12573   1.387   1.225   7.422  0.0136 -0.3134 -0.0275
  119OSM   H11F12574   1.334   1.148   7.361  0.4431  0.1544 -1.0007
  119OSM   H11G12575   1.299   1.289   7.444 -0.5316 -1.7115  2.2406
  119OSM   C12F12576   1.434   1.151   7.549 -0.2177 -0.7282  0.1771
  119OSM   H12F12577   1.528   1.096   7.529  0.8035  0.9347  0.1748
  119OSM   H12G12578   1.362   1.070   7.570 -1.6511  0.4138 -0.1581
  119OSM   C13F12579   1.466   1.238   7.673 -0.5205 -0.0579  0.0980
  119OSM   H13F12580   1.377   1.297   7.704 -1.5318 -1.5406  0.1099
  119OSM   H13G12581   1.541   1.315   7.646 -0.6337 -0.2265 -0.7171
  119OSM   C14F12582   1.507   1.152   7.792 -0.2061  0.1893 -0.7351
  119OSM   H14F12583   1.606   1.113   7.760 -0.3197 -0.2720 -0.5355
  119OSM   H14G12584   1.435   1.072   7.819 -1.6035  2.1900  1.9021
  119OSM   C15F12585   1.510   1.235   7.923  0.1759  0.0294  0.3996
  119OSM   H15F12586   1.405   1.264   7.943  0.6373  0.3934  2.5257
  119OSM   H15G12587   1.578   1.321   7.905  0.3232 -0.2597 -0.4427
  119OSM   C16F12588   1.558   1.156   8.045 -0.0633 -0.4183  0.5298
  119OSM   H16F12589   1.652   1.103   8.018  0.7071  0.6057  1.0776
  119OSM   H16G12590   1.492   1.075   8.081  0.6810 -0.6432  1.4451
  119OSM   C17F12591   1.606   1.252   8.158 -0.0075 -0.4024 -0.3353
  119OSM   H17F12592   1.619   1.189   8.249 -0.6320 -1.8803 -1.2363
  119OSM   H17G12593   1.530   1.331   8.171  0.6207  0.3573 -1.1700
  119OSM   C18F12594   1.749   1.305   8.140 -0.1353 -0.1915 -0.0050
  119OSM   H18F12595   1.779   1.355   8.234  0.0447  0.5362 -0.4373
  119OSM   H18G12596   1.754   1.381   8.058 -1.2252  0.6857  0.7086
  119OSM   H18H12597   1.822   1.223   8.122  0.8099  0.7396 -0.5587
  120OSM      N12598   5.790   5.547   6.120  0.2308 -0.3747 -0.5905
  120OSM    C1512599   5.748   5.471   6.238  0.1205  0.6241  0.2268
  120OSM   H15A12600   5.650   5.433   6.212  0.3519  0.5046 -0.4875
  120OSM   H15B12601   5.754   5.525   6.331  0.5794 -1.4382  1.4452
  120OSM   H15C12602   5.809   5.383   6.246 -1.1215 -0.5266 -1.9861
  120OSM    C1412603   5.934   5.574   6.137  0.5286  0.3723  0.2826
  120OSM   H14A12604   5.942   5.628   6.230 -0.2352  1.6156 -0.3406
  120OSM   H14B12605   5.974   5.644   6.065 -1.4111  0.0866 -1.1529
  120OSM   H14C12606   5.993   5.484   6.140 -0.1051 -0.0909 -0.6109
  120OSM    C1312607   5.767   5.463   5.995 -0.2619 -0.5099 -0.8876
  120OSM   H13A12608   5.835   5.379   6.003 -0.5290 -0.6074  0.6199
  120OSM   H13B12609   5.794   5.517   5.905  0.6580  3.1792  1.3699
  120OSM   H13C12610   5.666   5.429   5.982 -1.1876  1.9582 -0.7866
  120OSM    C1212611   5.719   5.680   6.099 -0.3642 -0.2753  0.2026
  120OSM   H12A12612   5.619   5.673   6.058  0.1094  0.7696 -1.2102
  120OSM   H12B12613   5.769   5.735   6.021 -0.7660  0.5589  0.5247
  120OSM    C1112614   5.702   5.778   6.225  0.0181 -0.0946 -1.0892
  120OSM   H11A12615   5.627   5.728   6.290  1.6397 -2.7353 -1.0941
  120OSM   H11B12616   5.647   5.872   6.204  0.2072  1.5634  4.3901
  120OSM      P12617   5.830   5.908   6.408  0.2096  0.5231 -0.2379
  120OSM    O1312618   5.950   5.889   6.486  0.8758  0.2399 -0.2254
  120OSM    O1412619   5.809   6.039   6.344 -0.1679  0.1008  0.4373
  120OSM    O1112620   5.705   5.878   6.498  0.1954 -0.2932  0.9739
  120OSM    O1212621   5.829   5.796   6.290  0.9052  0.4594 -0.5108
  120OSM    C1S12622   5.683   5.751   6.554 -0.8104 -0.3579 -0.1267
  120OSM    H1S12623   5.723   5.665   6.495  0.3758 -1.6509  2.3829
  120OSM    H1T12624   5.574   5.733   6.563 -0.0516 -5.5408  2.4157
  120OSM     NF12625   5.710   5.605   6.761  0.0607  0.9096  0.3077
  120OSM    HNF12626   5.641   5.603   6.833 -0.5226 -0.0373 -0.2384
  120OSM    C2S12627   5.732   5.741   6.706  0.2112  0.6187 -0.3655
  120OSM    H2S12628   5.841   5.756   6.721  0.2882 -0.2151 -0.0304
  120OSM    C3S12629   5.675   5.855   6.794 -0.1569  0.1098  0.3764
  120OSM    H3S12630   5.564   5.854   6.794 -0.2254  1.7439 -1.3759
  120OSM     O312631   5.708   5.988   6.745 -0.2159  0.6216 -0.0262
  120OSM    HO312632   5.761   5.961   6.671 -1.6461 -0.1287 -0.8141
  120OSM    C4S12633   5.714   5.850   6.938 -0.4166 -0.0776  0.4306
  120OSM    H4S12634   5.660   5.772   6.995 -2.1637  0.8875  0.1734
  120OSM    C5S12635   5.822   5.903   7.004 -0.1470  0.4119 -0.3198
  120OSM    H5S12636   5.896   5.958   6.944 -0.4373 -1.5118 -2.5886
  120OSM    C6S12637   5.849   5.884   7.153 -0.8302  0.0641 -0.4757
  120OSM    H6S12638   5.929   5.950   7.193  1.8137 -0.9450 -3.6278
  120OSM    H6T12639   5.884   5.780   7.168  0.6914  0.6173  0.0179
  120OSM    C7S12640   5.722   5.916   7.236  0.5040  0.4823  0.1742
  120OSM    H7S12641   5.639   5.848   7.206 -0.0648  1.1023  0.3238
  120OSM    H7T12642   5.686   6.021   7.229  2.3667  1.0792 -0.9201
  120OSM    C8S12643   5.747   5.891   7.390 -0.9380 -0.7633  0.8670
  120OSM    H8S12644   5.791   5.985   7.430 -1.5021  0.2838 -0.8889
  120OSM    H8T12645   5.812   5.802   7.403 -0.6509 -0.7515 -0.3476
  120OSM    C9S12646   5.614   5.863   7.457 -0.1996 -0.6066  0.4004
  120OSM    H9S12647   5.568   5.766   7.430 -2.1363  0.2240  0.5455
  120OSM    H9T12648   5.552   5.952   7.433  0.6908  0.7381  2.6646
  120OSM   C10S12649   5.622   5.859   7.609 -0.2236  0.1470 -1.1131
  120OSM   H10S12650   5.528   5.869   7.667 -0.9107  0.5752 -2.2718
  120OSM   H10T12651   5.683   5.949   7.633 -1.2082  0.9887 -1.6829
  120OSM   C11S12652   5.693   5.742   7.668 -0.3863  0.2761 -0.3434
  120OSM   H11S12653   5.794   5.731   7.624 -0.2424  0.5098 -0.0741
  120OSM   H11T12654   5.643   5.643   7.655  0.3923 -0.1083 -0.4545
  120OSM   C12S12655   5.710   5.761   7.819  0.0748 -0.0670 -0.0452
  120OSM   H12S12656   5.746   5.864   7.838  1.6339 -0.7966  1.1635
  120OSM   H12T12657   5.793   5.691   7.841  1.7271  1.2661 -1.8030
  120OSM   C13S12658   5.585   5.742   7.905  0.0333 -0.6692  0.2985
  120OSM   H13S12659   5.518   5.675   7.847 -1.6003  0.5585  0.7108
  120OSM   H13T12660   5.539   5.843   7.906 -0.4526 -0.8416  2.8968
  120OSM   C14S12661   5.602   5.686   8.045  0.0874  0.1726 -0.5058
  120OSM   H14S12662   5.664   5.594   8.045  0.0282  0.1342 -0.9354
  120OSM   H14T12663   5.504   5.639   8.069  0.0827  0.5245  0.2191
  120OSM   C15S12664   5.633   5.782   8.157  0.3390  0.5731 -0.4374
  120OSM   H15S12665   5.557   5.862   8.171 -1.3761 -1.0511 -0.0353
  120OSM   H15T12666   5.734   5.826   8.144  0.8926 -0.2364  0.9411
  120OSM   C16S12667   5.625   5.702   8.298 -0.1228 -0.4469  0.7494
  120OSM   H16S12668   5.701   5.622   8.305 -1.3094 -2.0405 -2.5809
  120OSM   H16T12669   5.523   5.657   8.300 -1.1756  1.7123 -0.2283
  120OSM   C17S12670   5.649   5.801   8.414 -0.8484  0.2865 -0.1806
  120OSM   H17S12671   5.607   5.750   8.504  1.4534  0.3819  1.0178
  120OSM   H17T12672   5.587   5.891   8.396 -2.5108 -1.0342 -1.4596
  120OSM   C18S12673   5.797   5.837   8.435  0.6938  0.0227 -0.1410
  120OSM   H18S12674   5.848   5.871   8.342 -0.0174 -0.9725 -0.9254
  120OSM   H18T12675   5.860   5.753   8.471  0.6677  0.4648  0.9780
  120OSM   H18U12676   5.809   5.925   8.501  2.2891 -1.0442  1.0760
  120OSM    C1F12677   5.769   5.499   6.701  0.0862 -0.2853 -0.0258
  120OSM     OF12678   5.865   5.506   6.622 -0.3358 -0.4923  0.0443
  120OSM    C2F12679   5.702   5.370   6.710 -0.1677  0.4751  0.4123
  120OSM    H2F12680   5.766   5.314   6.781  0.6957  0.8192 -0.0787
  120OSM    H2G12681   5.713   5.322   6.611  1.5621  0.8446  0.3988
  120OSM    C3F12682   5.561   5.370   6.766  0.4563 -0.2816 -0.5224
  120OSM    H3F12683   5.493   5.429   6.700 -0.0960 -0.7160 -0.3482
  120OSM    H3G12684   5.566   5.417   6.867  0.9932  0.2265 -0.7814
  120OSM    C4F12685   5.494   5.230   6.791 -0.1105 -0.7903  0.0961
  120OSM    H4F12686   5.546   5.186   6.879 -0.6296  0.8291  1.2627
  120OSM    H4G12687   5.505   5.165   6.702  0.0241  1.0580 -1.2859
  120OSM    C5F12688   5.342   5.243   6.802 -0.2518 -0.3071  0.0195
  120OSM    H5F12689   5.300   5.140   6.808 -0.2206 -0.2543  1.9618
  120OSM    H5G12690   5.297   5.284   6.709  3.0839 -0.1488 -1.6440
  120OSM    C6F12691   5.296   5.339   6.915 -0.0067  0.7039  0.2960
  120OSM    H6F12692   5.324   5.441   6.881  1.0072  0.1624 -0.5364
  120OSM    H6G12693   5.337   5.318   7.016 -3.7430 -1.6251  1.5421
  120OSM    C7F12694   5.144   5.339   6.942  0.1699 -0.5442  0.3377
  120OSM    H7F12695   5.113   5.234   6.962  0.6446 -0.2021  3.3031
  120OSM    H7G12696   5.096   5.371   6.847  0.0539  0.0085  0.5769
  120OSM    C8F12697   5.093   5.420   7.064 -0.4043  0.3604 -0.5960
  120OSM    H8F12698   5.118   5.527   7.047  0.4333 -0.2368 -3.7417
  120OSM    H8G12699   5.143   5.378   7.154  0.9738 -0.4021 -1.6799
  120OSM    C9F12700   4.945   5.407   7.075  0.1494  0.0460  0.1500
  120OSM    H9F12701   4.884   5.484   7.025 -0.7723  0.4668  1.8654
  120OSM   C10F12702   4.877   5.313   7.146 -0.5302 -0.2890  0.0103
  120OSM   H10F12703   4.767   5.324   7.142 -0.4759 -0.0522 -1.5323
  120OSM   C11F12704   4.940   5.201   7.221 -1.1216 -0.1527 -0.2321
  120OSM   H11F12705   5.039   5.182   7.174 -1.2990  1.6315 -1.4175
  120OSM   H11G12706   4.884   5.106   7.209 -1.2026 -0.0007 -1.1137
  120OSM   C12F12707   4.958   5.245   7.366 -0.0374 -0.2312  0.2040
  120OSM   H12F12708   4.880   5.314   7.405 -0.5673 -1.7981  2.0670
  120OSM   H12G12709   5.061   5.287   7.369 -0.3473  0.6717 -1.0705
  120OSM   C13F12710   4.955   5.126   7.455  0.1190  0.1617  0.1772
  120OSM   H13F12711   5.027   5.050   7.417 -0.6365 -0.1194 -0.7297
  120OSM   H13G12712   4.851   5.092   7.472  0.2934 -0.5978 -0.2036
  120OSM   C14F12713   4.997   5.155   7.602 -0.1191 -0.6550  0.9460
  120OSM   H14F12714   4.917   5.221   7.643 -1.1204 -0.3603 -1.3373
  120OSM   H14G12715   5.092   5.211   7.616 -0.3185 -0.5830  2.1623
  120OSM   C15F12716   5.000   5.030   7.696  0.4762 -0.1511  0.5638
  120OSM   H15F12717   5.076   4.958   7.658  0.4075  0.2229 -0.2881
  120OSM   H15G12718   4.905   4.971   7.697 -0.6280  1.4713 -1.4096
  120OSM   C16F12719   5.024   5.065   7.851 -0.1908 -0.1311 -0.8717
  120OSM   H16F12720   5.113   5.125   7.878 -1.3478 -0.0583  3.3809
  120OSM   H16G12721   5.041   4.971   7.908  1.5493  1.0501  0.6475
  120OSM   C17F12722   4.907   5.151   7.905 -0.2795  0.3353 -0.2565
  120OSM   H17F12723   4.816   5.096   7.874 -0.6893  1.3202 -0.8529
  120OSM   H17G12724   4.917   5.247   7.850  0.8608 -0.9507 -2.4354
  120OSM   C18F12725   4.923   5.183   8.050  0.6937  0.4850 -0.4719
  120OSM   H18F12726   4.991   5.271   8.047  0.3150  0.8457  0.7718
  120OSM   H18G12727   4.975   5.105   8.109 -0.5814  0.4378  0.6475
  120OSM   H18H12728   4.831   5.216   8.103  1.1046 -3.1037  2.8613
  121OSM      N12729   0.861   0.673   6.379  1.1551 -0.0711  0.3044
  121OSM    C1512730   0.985   0.608   6.327  0.3260 -0.0658  0.3320
  121OSM   H15A12731   1.064   0.612   6.400  0.8088  0.8429 -0.2132
  121OSM   H15B12732   1.014   0.654   6.233 -0.3238  0.4464  0.3744
  121OSM   H15C12733   0.969   0.503   6.306 -0.0729  0.3192 -1.4430
  121OSM    C1412734   0.840   0.632   6.516 -0.1041 -0.8276  0.3469
  121OSM   H14A12735   0.914   0.674   6.583 -1.6635  1.9104  0.5147
  121OSM   H14B12736   0.842   0.524   6.523 -1.1616 -0.8804 -0.0603
  121OSM   H14C12737   0.750   0.679   6.552  2.1129  2.9112  1.5767
  121OSM    C1312738   0.889   0.819   6.367 -0.7109  0.4861 -0.4851
  121OSM   H13A12739   0.809   0.877   6.410  0.8516  1.3761  1.3803
  121OSM   H13B12740   0.881   0.841   6.261  0.2468  1.3901 -0.3894
  121OSM   H13C12741   0.985   0.842   6.412 -1.6657  1.6408  1.0419
  121OSM    C1212742   0.733   0.638   6.292 -0.0214 -0.0908  0.4862
  121OSM   H12A12743   0.644   0.672   6.343 -1.4121  2.0029 -2.9773
  121OSM   H12B12744   0.727   0.531   6.306 -0.7075 -0.0252  0.7515
  121OSM    C1112745   0.732   0.675   6.140  0.0455  0.7069  0.3381
  121OSM   H11A12746   0.634   0.639   6.101  0.1485  0.8701 -0.0814
  121OSM   H11B12747   0.802   0.617   6.077 -1.9409 -1.2126 -0.2334
  121OSM      P12748   0.611   0.910   6.126  0.3545  0.0917 -0.1442
  121OSM    O1312749   0.631   1.043   6.058 -0.1977 -0.0387  0.6543
  121OSM    O1412750   0.492   0.837   6.078 -0.1677 -0.4080 -0.6767
  121OSM    O1112751   0.596   0.947   6.277  0.0985 -0.2679 -0.5034
  121OSM    O1212752   0.735   0.815   6.119  0.1598  0.1758  0.4042
  121OSM    C1S12753   0.584   1.075   6.337 -0.4315  0.2812  0.8204
  121OSM    H1S12754   0.506   1.131   6.281  0.2674 -0.4093 -0.9350
  121OSM    H1T12755   0.681   1.128   6.339 -0.2909  0.0434  0.3567
  121OSM     NF12756   0.511   1.199   6.549  0.2113 -0.0128  0.5069
  121OSM    HNF12757   0.580   1.230   6.614 -1.3035 -2.0649  3.3065
  121OSM    C2S12758   0.532   1.069   6.490 -0.7984 -0.0909  0.0850
  121OSM    H2S12759   0.430   1.024   6.485  0.5476 -3.2032 -1.6738
  121OSM    C3S12760   0.620   0.978   6.572 -0.2749  0.0503 -0.4571
  121OSM    H3S12761   0.730   0.995   6.566  0.3840 -2.5564  1.9306
  121OSM     O312762   0.595   0.843   6.532 -0.2593 -1.0417  0.3262
  121OSM    HO312763   0.546   0.856   6.451  1.7721  1.1827 -0.6811
  121OSM    C4S12764   0.594   0.978   6.724 -0.0884  0.4244 -0.1366
  121OSM    H4S12765   0.492   0.949   6.750 -0.2856 -0.4756 -1.7399
  121OSM    C5S12766   0.685   1.020   6.816  0.3909 -0.2030  0.0015
  121OSM    H5S12767   0.772   1.079   6.783 -0.1427  1.3977  1.3013
  121OSM    C6S12768   0.653   1.022   6.961  0.6462  0.3126  0.2156
  121OSM    H6S12769   0.707   1.103   7.013 -0.7036  0.2754  1.7215
  121OSM    H6T12770   0.683   0.923   7.002 -1.1615 -0.8861 -1.2123
  121OSM    C7S12771   0.505   1.026   7.008  0.3320  0.1981 -0.5271
  121OSM    H7S12772   0.453   0.929   6.994 -0.3980  0.2198  1.7022
  121OSM    H7T12773   0.446   1.103   6.955 -0.8291  0.8995  1.6598
  121OSM    C8S12774   0.506   1.040   7.164 -0.8849  0.1674 -0.5980
  121OSM    H8S12775   0.397   1.034   7.182 -1.5559  0.6261 -3.9634
  121OSM    H8T12776   0.546   1.142   7.184  2.3296 -0.8824 -0.9908
  121OSM    C9S12777   0.566   0.934   7.254  0.8598  0.0487  0.5003
  121OSM    H9S12778   0.674   0.954   7.267  1.0448  0.1680 -1.0619
  121OSM    H9T12779   0.564   0.834   7.207  0.9144  0.2625  0.0416
  121OSM   C10S12780   0.495   0.916   7.390 -0.2317  0.0121 -0.1876
  121OSM   H10S12781   0.546   0.834   7.444 -1.2653  0.7084  1.9735
  121OSM   H10T12782   0.390   0.880   7.375 -0.1683  0.3164 -1.4139
  121OSM   C11S12783   0.509   1.036   7.478  0.4242 -0.7158  0.1042
  121OSM   H11S12784   0.431   1.110   7.453 -0.9729 -2.1761 -0.0469
  121OSM   H11T12785   0.608   1.076   7.447  0.7532 -2.0530 -0.6462
  121OSM   C12S12786   0.504   1.001   7.628 -0.5654 -0.2063 -0.4787
  121OSM   H12S12787   0.590   0.942   7.665 -2.0363 -1.8992  0.3855
  121OSM   H12T12788   0.418   0.935   7.648 -0.4961 -0.0830  0.2525
  121OSM   C13S12789   0.511   1.133   7.701 -0.4880 -0.3459 -0.2363
  121OSM   H13S12790   0.424   1.194   7.668 -0.7719 -1.0131 -0.7178
  121OSM   H13T12791   0.606   1.182   7.669 -1.6308  0.6772 -2.2593
  121OSM   C14S12792   0.510   1.111   7.852 -0.3872  0.1659 -0.5678
  121OSM   H14S12793   0.609   1.077   7.891 -2.2580 -1.6502  3.0638
  121OSM   H14T12794   0.432   1.034   7.868  1.2120 -1.7644 -1.6127
  121OSM   C15S12795   0.473   1.240   7.922 -0.0557 -0.5839 -0.3518
  121OSM   H15S12796   0.442   1.222   8.027 -0.6942  1.3609 -0.1647
  121OSM   H15T12797   0.391   1.298   7.874  1.1212 -0.0429 -1.7745
  121OSM   C16S12798   0.586   1.346   7.928 -0.2006  0.3039  0.4844
  121OSM   H16S12799   0.624   1.378   7.828  3.7897  0.2425  1.7985
  121OSM   H16T12800   0.675   1.308   7.982  0.2495  1.4800  0.5950
  121OSM   C17S12801   0.548   1.468   8.006  0.5732 -0.1507 -0.9365
  121OSM   H17S12802   0.497   1.429   8.096  2.6470 -0.9398 -0.0452
  121OSM   H17T12803   0.476   1.523   7.941 -0.9789 -0.0547  0.8053
  121OSM   C18S12804   0.670   1.550   8.050  0.5143  0.7878 -0.0855
  121OSM   H18S12805   0.729   1.484   8.117  1.3242 -0.8244 -2.2580
  121OSM   H18T12806   0.642   1.646   8.097 -0.8519  0.3532  0.0315
  121OSM   H18U12807   0.744   1.570   7.969 -1.1958 -1.6028 -2.4341
  121OSM    C1F12808   0.421   1.284   6.505  0.3812 -0.1119 -0.0335
  121OSM     OF12809   0.324   1.242   6.435  0.0218  0.2514 -0.1971
  121OSM    C2F12810   0.441   1.427   6.536  0.4390 -0.3384 -0.2557
  121OSM    H2F12811   0.391   1.487   6.457  1.4842  1.4880  0.3978
  121OSM    H2G12812   0.546   1.464   6.525  0.7576 -0.9239  0.6422
  121OSM    C3F12813   0.371   1.463   6.670 -0.1163 -0.8260  0.5589
  121OSM    H3F12814   0.269   1.418   6.673 -1.9748  2.9920  1.6843
  121OSM    H3G12815   0.366   1.574   6.669 -0.8826 -0.8526  0.1453
  121OSM    C4F12816   0.450   1.421   6.789  0.8900  0.3190  0.4444
  121OSM    H4F12817   0.555   1.449   6.765  0.8746 -0.6833 -0.9258
  121OSM    H4G12818   0.449   1.312   6.809  0.6781  0.2814  0.2344
  121OSM    C5F12819   0.390   1.483   6.913  0.1696  0.0723 -0.6788
  121OSM    H5F12820   0.288   1.442   6.930 -0.9902  2.3793 -1.6224
  121OSM    H5G12821   0.371   1.591   6.898 -0.0114 -0.1796 -2.6086
  121OSM    C6F12822   0.487   1.441   7.026 -0.1039 -0.0785 -0.5534
  121OSM    H6F12823   0.581   1.500   7.021  0.1031 -0.2203  1.1925
  121OSM    H6G12824   0.509   1.333   7.026  1.0466  0.0634  2.4125
  121OSM    C7F12825   0.427   1.477   7.162 -0.2757 -0.3336 -0.2368
  121OSM    H7F12826   0.336   1.416   7.182  1.2771 -2.4087  0.7235
  121OSM    H7G12827   0.387   1.581   7.157 -1.6455 -0.8901 -1.7960
  121OSM    C8F12828   0.518   1.470   7.290 -0.1727  0.2006  0.5202
  121OSM    H8F12829   0.590   1.555   7.286 -2.4003  2.3104  2.1255
  121OSM    H8G12830   0.575   1.375   7.280 -2.7524 -1.3907 -0.0216
  121OSM    C9F12831   0.463   1.479   7.428 -0.3627  0.9708 -0.3229
  121OSM    H9F12832   0.443   1.385   7.482 -0.6622  1.3374  0.2161
  121OSM   C10F12833   0.442   1.592   7.502 -0.3883 -0.3374  0.4199
  121OSM   H10F12834   0.392   1.584   7.600  1.0098 -1.5998  1.0661
  121OSM   C11F12835   0.464   1.735   7.458  0.4070 -0.5639  0.2214
  121OSM   H11F12836   0.399   1.753   7.369  0.5132  1.1835  0.4619
  121OSM   H11G12837   0.569   1.747   7.424 -0.2048  1.2020 -1.2792
  121OSM   C12F12838   0.428   1.850   7.555 -0.1792 -0.1420  0.8104
  121OSM   H12F12839   0.319   1.857   7.576 -0.4927 -0.0923 -0.7012
  121OSM   H12G12840   0.459   1.945   7.507 -1.8939 -0.1190 -0.3326
  121OSM   C13F12841   0.515   1.841   7.677 -0.1115 -0.9720 -0.1220
  121OSM   H13F12842   0.476   1.767   7.750  1.7579  0.4466  2.5053
  121OSM   H13G12843   0.508   1.942   7.724 -0.2141 -1.1697  0.2931
  121OSM   C14F12844   0.672   1.822   7.663  0.5426 -0.3276 -0.0813
  121OSM   H14F12845   0.703   1.885   7.577  0.4798  3.2794  2.2890
  121OSM   H14G12846   0.697   1.717   7.638 -1.3086 -1.0100  0.7426
  121OSM   C15F12847   0.746   1.874   7.785  0.0305 -0.3765  0.2269
  121OSM   H15F12848   0.738   1.797   7.865  1.1978 -2.2580 -1.3926
  121OSM   H15G12849   0.708   1.974   7.814  0.3691  0.5066 -2.1317
  121OSM   C16F12850   0.895   1.898   7.752  0.0838  0.4391 -0.3754
  121OSM   H16F12851   0.892   1.990   7.691  1.6271  1.4833  1.0183
  121OSM   H16G12852   0.940   1.811   7.700  0.0850 -0.0784  0.4679
  121OSM   C17F12853   0.973   1.919   7.881  0.1395 -0.9432  0.4188
  121OSM   H17F12854   0.909   1.960   7.962 -0.8568 -0.8584 -0.3946
  121OSM   H17G12855   1.060   1.987   7.871  1.5663 -2.8361 -0.4828
  121OSM   C18F12856   1.031   1.794   7.937 -0.4228 -0.5723 -0.1039
  121OSM   H18F12857   1.089   1.738   7.860 -0.7874  0.8238 -1.4442
  121OSM   H18G12858   0.956   1.727   7.984  0.7018 -1.0733  1.0383
  121OSM   H18H12859   1.107   1.811   8.016  0.8277 -1.8196 -0.9835
  122OSM      N12860   5.340   3.671   6.085 -0.0678 -0.0906 -0.5804
  122OSM    C1512861   5.463   3.699   6.164 -0.9893 -0.1583 -0.0404
  122OSM   H15A12862   5.508   3.614   6.213  0.4086  1.1385  1.0733
  122OSM   H15B12863   5.446   3.773   6.242 -1.4375  0.0113 -0.2956
  122OSM   H15C12864   5.534   3.760   6.110  0.2452 -1.7029 -0.2242
  122OSM    C1412865   5.273   3.801   6.059 -0.4397 -0.1453  0.8454
  122OSM   H14A12866   5.336   3.858   5.992 -1.5877  1.0285  0.7236
  122OSM   H14B12867   5.268   3.868   6.143 -0.7567 -0.3297  0.9723
  122OSM   H14C12868   5.173   3.784   6.022 -0.2395 -1.1466  0.7487
  122OSM    C1312869   5.372   3.610   5.954 -0.1431 -0.3234  0.6044
  122OSM   H13A12870   5.446   3.669   5.903  1.0027 -2.0386  0.1801
  122OSM   H13B12871   5.285   3.610   5.889  0.6613  0.6337 -0.5163
  122OSM   H13C12872   5.411   3.510   5.968 -0.9427 -0.9050 -1.0886
  122OSM    C1212873   5.248   3.583   6.176 -0.0010  0.3822 -0.0009
  122OSM   H12A12874   5.182   3.544   6.100  0.0215  2.5144 -1.1739
  122OSM   H12B12875   5.179   3.644   6.232 -0.3701  0.5215 -0.6104
  122OSM    C1112876   5.309   3.468   6.255 -0.3650 -0.7121  0.0463
  122OSM   H11A12877   5.236   3.422   6.325 -0.1552  1.5574  1.8939
  122OSM   H11B12878   5.384   3.512   6.324 -0.6840  3.4618 -1.9761
  122OSM      P12879   5.276   3.272   6.092  0.0241  0.0945  0.0901
  122OSM    O1312880   5.180   3.354   6.014 -0.2808  0.0454  0.1600
  122OSM    O1412881   5.352   3.176   6.011 -0.4412  0.7644 -0.0160
  122OSM    O1112882   5.207   3.201   6.219 -0.7223  0.3299 -0.1335
  122OSM    O1212883   5.372   3.375   6.169  0.1760 -0.5987  0.1148
  122OSM    C1S12884   5.278   3.080   6.265  0.1266 -0.3290  0.2193
  122OSM    H1S12885   5.385   3.108   6.276  0.2205 -0.8711  0.7406
  122OSM    H1T12886   5.267   2.992   6.200 -1.5361 -1.3526  1.7927
  122OSM     NF12887   5.320   2.934   6.464 -0.2422  0.2895  0.0845
  122OSM    HNF12888   5.292   2.839   6.476  3.2048 -0.7167  1.2544
  122OSM    C2S12889   5.231   3.039   6.404  0.6676  0.3809  0.3445
  122OSM    H2S12890   5.233   3.127   6.471 -2.7708  0.1790  0.9399
  122OSM    C3S12891   5.079   2.990   6.404  0.0309  1.1337  0.9626
  122OSM    H3S12892   5.088   2.889   6.358  1.8394  1.8612 -0.4116
  122OSM     O312893   4.990   3.060   6.311  0.1219  0.1001  0.0441
  122OSM    HO312894   5.043   3.120   6.257 -1.5739  2.6112  0.9645
  122OSM    C4S12895   5.030   2.975   6.536 -0.0764 -0.1658 -0.3509
  122OSM    H4S12896   5.048   2.878   6.584  0.3019 -0.2450 -0.6413
  122OSM    C5S12897   4.954   3.062   6.610 -0.2567  0.0880 -0.1126
  122OSM    H5S12898   4.916   3.158   6.571 -1.4333  0.5697  2.0760
  122OSM    C6S12899   4.902   3.055   6.754  0.0040 -0.0182  0.1051
  122OSM    H6S12900   4.792   3.063   6.761 -0.0147  0.4345 -0.6328
  122OSM    H6T12901   4.947   3.138   6.812  0.4864 -0.1112 -0.1259
  122OSM    C7S12902   4.946   2.939   6.850 -0.1144 -0.5490 -0.7279
  122OSM    H7S12903   5.054   2.950   6.872 -0.5434  1.3129  0.6901
  122OSM    H7T12904   4.931   2.843   6.796 -0.2506 -1.1614  0.3731
  122OSM    C8S12905   4.868   2.921   6.978  0.2190  0.1076  0.0303
  122OSM    H8S12906   4.758   2.916   6.965 -0.1990  2.1755  2.1732
  122OSM    H8T12907   4.884   3.016   7.032  0.2878 -0.4564  1.0279
  122OSM    C9S12908   4.920   2.811   7.071  0.8974 -0.3289 -0.2296
  122OSM    H9S12909   5.029   2.824   7.092  0.5671  0.2593  1.2269
  122OSM    H9T12910   4.915   2.706   7.034  2.1231  0.6156 -3.4568
  122OSM   C10S12911   4.846   2.819   7.205  0.3821  0.5080  0.1977
  122OSM   H10S12912   4.737   2.828   7.185 -0.3495 -2.0631  2.4178
  122OSM   H10T12913   4.875   2.911   7.259  1.5332  0.3735 -0.1650
  122OSM   C11S12914   4.859   2.689   7.291  0.6896  0.5001  0.3273
  122OSM   H11S12915   4.968   2.668   7.295  0.6040  0.2415  2.0743
  122OSM   H11T12916   4.807   2.604   7.241  0.5977  0.6347  0.1949
  122OSM   C12S12917   4.820   2.701   7.439 -0.6010  0.4241 -0.3505
  122OSM   H12S12918   4.729   2.763   7.455 -1.2641 -0.4854 -0.5302
  122OSM   H12T12919   4.908   2.758   7.475 -1.4815 -0.1834  3.2072
  122OSM   C13S12920   4.814   2.566   7.506 -0.5700  0.1156 -0.7238
  122OSM   H13S12921   4.903   2.502   7.487 -0.5476  0.2670 -1.1416
  122OSM   H13T12922   4.719   2.514   7.479 -1.1598 -0.3967  2.0233
  122OSM   C14S12923   4.809   2.578   7.664  0.1593 -0.8290 -0.0165
  122OSM   H14S12924   4.711   2.621   7.696  0.3999 -0.8643  0.8098
  122OSM   H14T12925   4.887   2.648   7.700  2.3509 -2.7826 -0.7362
  122OSM   C15S12926   4.833   2.451   7.750 -0.0818 -0.4230 -0.3085
  122OSM   H15S12927   4.929   2.402   7.722  1.4245  2.3333 -0.4596
  122OSM   H15T12928   4.753   2.378   7.727  0.5774 -1.3103  0.1405
  122OSM   C16S12929   4.838   2.484   7.899 -0.1723  0.4525  0.5179
  122OSM   H16S12930   4.743   2.535   7.926  0.4535  1.4746  0.8276
  122OSM   H16T12931   4.933   2.532   7.928 -0.5455  2.5693 -1.4222
  122OSM   C17S12932   4.845   2.358   7.982 -0.6072 -0.7451  0.0362
  122OSM   H17S12933   4.930   2.300   7.939  1.1206  1.5165  0.1654
  122OSM   H17T12934   4.749   2.304   7.968 -0.7701 -0.7682  1.1840
  122OSM   C18S12935   4.878   2.393   8.126 -0.1804  0.1199 -0.6228
  122OSM   H18S12936   4.971   2.448   8.151  1.7724 -3.1327 -0.0174
  122OSM   H18T12937   4.899   2.301   8.185 -1.1959 -0.4718 -1.1447
  122OSM   H18U12938   4.795   2.442   8.181  0.5095 -0.8931  1.4235
  122OSM    C1F12939   5.440   2.958   6.506 -0.2586  0.6723 -0.0381
  122OSM     OF12940   5.489   3.071   6.522 -0.0378 -0.1678 -0.2328
  122OSM    C2F12941   5.517   2.834   6.542 -0.1643 -0.4303 -0.2732
  122OSM    H2F12942   5.524   2.770   6.451  0.4503  2.6705 -2.6090
  122OSM    H2G12943   5.468   2.786   6.629 -1.2071 -0.3672 -0.8068
  122OSM    C3F12944   5.657   2.861   6.602  0.6055 -0.4565  0.5011
  122OSM    H3F12945   5.640   2.938   6.680  0.1619 -0.4480  0.4014
  122OSM    H3G12946   5.738   2.904   6.540  0.9919  1.0009  1.9456
  122OSM    C4F12947   5.718   2.739   6.669 -0.0082 -0.4641 -0.2573
  122OSM    H4F12948   5.823   2.770   6.687 -0.5758 -0.3517  3.6565
  122OSM    H4G12949   5.716   2.656   6.595 -0.6629  0.1782 -0.9891
  122OSM    C5F12950   5.656   2.703   6.799 -0.1129 -0.3372  0.1387
  122OSM    H5F12951   5.546   2.695   6.784 -0.0650  0.5041 -0.7373
  122OSM    H5G12952   5.671   2.787   6.870  0.8835  0.0908 -0.5715
  122OSM    C6F12953   5.720   2.573   6.853  0.4336  0.1073  0.0839
  122OSM    H6F12954   5.820   2.597   6.897  0.8221 -1.3538  0.0244
  122OSM    H6G12955   5.728   2.511   6.762 -1.9106 -0.1658  0.0004
  122OSM    C7F12956   5.645   2.493   6.965 -0.0934 -0.0479  0.5828
  122OSM    H7F12957   5.717   2.413   6.994 -0.7216 -0.6033  0.6576
  122OSM    H7G12958   5.557   2.441   6.921 -0.3930  1.6151 -0.8886
  122OSM    C8F12959   5.599   2.579   7.091  0.2335 -0.2167 -0.4722
  122OSM    H8F12960   5.527   2.516   7.148 -1.5161 -0.1781 -2.5063
  122OSM    H8G12961   5.544   2.666   7.051 -0.0820  0.3698  1.1819
  122OSM    C9F12962   5.717   2.626   7.175 -0.0141 -0.8002  0.5909
  122OSM    H9F12963   5.765   2.719   7.143 -0.3045 -1.3760 -1.7009
  122OSM   C10F12964   5.769   2.559   7.279 -0.0750  0.4091 -0.5667
  122OSM   H10F12965   5.854   2.608   7.328  0.7513 -1.1649 -0.3770
  122OSM   C11F12966   5.721   2.435   7.349  0.7172 -0.2522  0.0350
  122OSM   H11F12967   5.760   2.342   7.302  1.1128 -0.8279  1.4564
  122OSM   H11G12968   5.612   2.416   7.353  0.2779  2.2001  1.8466
  122OSM   C12F12969   5.755   2.429   7.500  0.3286 -0.1894 -0.1180
  122OSM   H12F12970   5.862   2.448   7.524  0.0839  1.8198 -0.4213
  122OSM   H12G12971   5.740   2.329   7.547  1.1364 -0.4525 -0.4010
  122OSM   C13F12972   5.667   2.527   7.586 -0.1099  1.0597  0.1817
  122OSM   H13F12973   5.560   2.499   7.578  0.2331  0.0272 -1.2065
  122OSM   H13G12974   5.690   2.631   7.554  1.7065  1.0768  1.4118
  122OSM   C14F12975   5.708   2.516   7.742 -0.0801  0.7418  0.2404
  122OSM   H14F12976   5.749   2.414   7.758  0.4370  1.1637  1.7572
  122OSM   H14G12977   5.617   2.519   7.806  0.6267 -2.0906  1.5245
  122OSM   C15F12978   5.817   2.610   7.781 -0.0001 -0.2719  0.1397
  122OSM   H15F12979   5.787   2.716   7.769 -1.7189 -0.7106  0.3091
  122OSM   H15G12980   5.907   2.588   7.720 -1.1479  2.7041 -2.9252
  122OSM   C16F12981   5.858   2.589   7.933  0.9025 -0.3392  0.2744
  122OSM   H16F12982   5.945   2.521   7.931  1.8763  0.8749  0.3807
  122OSM   H16G12983   5.769   2.548   7.986  1.7639 -3.2156 -0.3017
  122OSM   C17F12984   5.893   2.721   7.994 -0.2706 -0.2486  0.9000
  122OSM   H17F12985   5.798   2.778   8.005  0.3120  1.1486 -0.8560
  122OSM   H17G12986   5.954   2.778   7.921 -0.8069 -0.9986 -0.1646
  122OSM   C18F12987   5.970   2.702   8.120 -0.0391 -0.0260  0.3754
  122OSM   H18F12988   6.075   2.669   8.107  0.5527  2.0982 -0.7771
  122OSM   H18G12989   5.913   2.629   8.181 -0.8722 -3.4210 -3.9331
  122OSM   H18H12990   5.981   2.799   8.172 -0.6379 -0.2713  0.9767
  123OSM      N12991   4.911   5.448   6.537 -0.0659  0.7039 -0.0263
  123OSM    C1512992   4.780   5.364   6.537 -0.3353 -0.3264 -0.1118
  123OSM   H15A12993   4.758   5.329   6.636 -0.7879  0.5311  0.1000
  123OSM   H15B12994   4.792   5.279   6.472  0.6921 -0.6013  0.4207
  123OSM   H15C12995   4.700   5.415   6.484 -0.1442 -1.2004 -1.2900
  123OSM    C1412996   5.024   5.354   6.583 -0.2858 -0.5946 -0.5366
  123OSM   H14A12997   5.117   5.409   6.584 -1.3760  1.3347  1.0793
  123OSM   H14B12998   5.032   5.267   6.519 -0.9600  0.5703 -2.2658
  123OSM   H14C12999   5.004   5.321   6.684  1.2129  1.1044  0.3701
  123OSM    C1313000   4.946   5.490   6.400 -0.6347  0.2403  0.3539
  123OSM   H13A13001   5.038   5.548   6.400 -0.9011  0.7016 -1.3954
  123OSM   H13B13002   4.866   5.538   6.347 -0.3345 -0.9075 -1.1959
  123OSM   H13C13003   4.979   5.406   6.341 -2.1860  1.1361 -1.8977
  123OSM    C1213004   4.894   5.562   6.629 -0.3657  0.7205 -0.3033
  123OSM   H12A13005   4.840   5.521   6.713 -0.4183  0.9927 -0.2012
  123OSM   H12B13006   4.831   5.640   6.590  3.3228  4.4079  0.3724
  123OSM    C1113007   5.015   5.633   6.695 -0.2544  0.4852 -0.3181
  123OSM   H11A13008   5.057   5.562   6.769  0.1525  1.4068  0.3706
  123OSM   H11B13009   4.977   5.717   6.758 -2.2779  0.3273 -1.2513
  123OSM      P13010   5.254   5.659   6.608  0.0168  0.0318  0.3728
  123OSM    O1313011   5.276   5.515   6.586 -0.0553 -0.8388 -0.2237
  123OSM    O1413012   5.311   5.747   6.503  0.0689 -0.5423  0.1436
  123OSM    O1113013   5.286   5.707   6.753 -0.5113  0.3243 -0.1737
  123OSM    O1213014   5.102   5.681   6.595  0.3120 -0.4106  0.6409
  123OSM    C1S13015   5.264   5.841   6.783 -0.3970  0.8069 -0.8439
  123OSM    H1S13016   5.192   5.895   6.718  0.1618 -0.6497 -2.7760
  123OSM    H1T13017   5.363   5.891   6.772 -0.7336  1.5939 -0.3146
  123OSM     NF13018   5.153   5.976   6.981 -0.1137  0.4190 -0.7272
  123OSM    HNF13019   5.208   6.041   7.032 -0.7937  1.3354 -1.1407
  123OSM    C2S13020   5.221   5.847   6.937 -0.5553 -0.3814  0.0983
  123OSM    H2S13021   5.146   5.766   6.949 -1.4198  0.2286 -0.9346
  123OSM    C3S13022   5.343   5.808   7.029  0.4189 -0.4056 -0.2681
  123OSM    H3S13023   5.418   5.890   7.019  0.0418 -0.0949 -0.5506
  123OSM     O313024   5.408   5.681   6.999 -0.2054 -0.5326  0.0511
  123OSM    HO313025   5.376   5.655   6.913 -0.9476 -1.9967  0.7451
  123OSM    C4S13026   5.287   5.814   7.174  0.2959 -0.1560 -0.2766
  123OSM    H4S13027   5.249   5.911   7.210  2.1966  0.0010  1.4868
  123OSM    C5S13028   5.268   5.713   7.260  0.5624 -0.3455  0.0642
  123OSM    H5S13029   5.289   5.611   7.226 -0.0974 -0.1994 -0.8077
  123OSM    C6S13030   5.205   5.725   7.391 -0.1083  0.2064 -0.3911
  123OSM    H6S13031   5.184   5.833   7.407 -1.9438  0.3123 -2.8347
  123OSM    H6T13032   5.277   5.684   7.464 -2.7232  0.0159  2.2766
  123OSM    C7S13033   5.074   5.652   7.407 -0.2139 -0.0763 -0.4018
  123OSM    H7S13034   5.081   5.541   7.402 -1.2863 -0.1859  0.2991
  123OSM    H7T13035   5.008   5.691   7.326 -2.1576 -0.9066  0.7100
  123OSM    C8S13036   5.023   5.688   7.542 -0.3612 -0.4839  0.1152
  123OSM    H8S13037   5.006   5.794   7.569 -1.8993 -0.9112  1.0096
  123OSM    H8T13038   5.102   5.655   7.612 -0.4006  0.5661  0.6696
  123OSM    C9S13039   4.899   5.610   7.582 -0.4581  0.2606  0.0267
  123OSM    H9S13040   4.929   5.508   7.552 -0.6387 -0.1921  1.3411
  123OSM    H9T13041   4.812   5.652   7.526  0.1886  1.0282 -0.4340
  123OSM   C10S13042   4.878   5.627   7.738  0.3056  0.5322  0.5613
  123OSM   H10S13043   4.857   5.735   7.750  2.0399  0.9500  0.0490
  123OSM   H10T13044   4.977   5.619   7.788  0.3499  4.3670  1.3507
  123OSM   C11S13045   4.764   5.543   7.802 -0.2549  0.2750  0.3201
  123OSM   H11S13046   4.782   5.436   7.779  0.5673  0.3591  0.5443
  123OSM   H11T13047   4.669   5.566   7.750 -1.6459 -1.4086  1.9873
  123OSM   C12S13048   4.752   5.572   7.946 -0.1256  0.3579 -0.7553
  123OSM   H12S13049   4.733   5.678   7.971  3.3571  1.2097 -1.1896
  123OSM   H12T13050   4.848   5.550   7.997 -0.4825 -1.5384 -0.7998
  123OSM   C13S13051   4.650   5.476   8.020  0.7830  0.2169 -0.3872
  123OSM   H13S13052   4.723   5.397   8.047 -0.4682 -0.4132  1.3081
  123OSM   H13T13053   4.570   5.436   7.954  0.2947  1.6075 -0.6690
  123OSM   C14S13054   4.584   5.547   8.145 -0.3241  0.1081 -0.4512
  123OSM   H14S13055   4.520   5.630   8.107 -2.2798 -1.5723 -1.0007
  123OSM   H14T13056   4.675   5.589   8.193 -1.5756  3.8372 -1.0427
  123OSM   C15S13057   4.512   5.465   8.249  0.3444  0.1823 -0.7397
  123OSM   H15S13058   4.584   5.384   8.273  2.3076  1.8084 -0.7758
  123OSM   H15T13059   4.421   5.419   8.206 -0.6538  2.1365 -0.8213
  123OSM   C16S13060   4.479   5.546   8.378  0.0560  0.3280  0.1585
  123OSM   H16S13061   4.422   5.480   8.447  1.0202 -1.5047 -0.7436
  123OSM   H16T13062   4.412   5.631   8.353 -1.8393 -0.9136  0.7586
  123OSM   C17S13063   4.596   5.585   8.470  0.3073  0.5802 -0.6229
  123OSM   H17S13064   4.674   5.641   8.414  2.5401 -3.2486 -1.7575
  123OSM   H17T13065   4.624   5.490   8.520 -1.7682  0.8650  1.2312
  123OSM   C18S13066   4.534   5.664   8.587 -0.1534 -0.8378 -0.0873
  123OSM   H18S13067   4.444   5.618   8.632  0.8410 -1.3963  1.4244
  123OSM   H18T13068   4.502   5.768   8.565  0.8050 -0.9508 -2.2048
  123OSM   H18U13069   4.608   5.665   8.670 -0.4899 -1.7762  0.2390
  123OSM    C1F13070   5.030   6.018   6.939  0.2082 -0.6338  0.0680
  123OSM     OF13071   4.965   5.948   6.858  0.3677 -0.2439  0.0640
  123OSM    C2F13072   4.981   6.148   6.992  0.7227  0.5127  0.6664
  123OSM    H2F13073   5.016   6.159   7.097  1.0414 -2.7016  0.9964
  123OSM    H2G13074   4.870   6.140   6.993  0.6837 -2.9945 -3.5355
  123OSM    C3F13075   5.021   6.274   6.915 -0.2443  0.4307  0.2371
  123OSM    H3F13076   4.974   6.287   6.815 -1.1456 -1.5930  0.3569
  123OSM    H3G13077   5.132   6.272   6.909 -0.1231  0.9335  1.7334
  123OSM    C4F13078   4.986   6.401   6.985 -0.0723  0.0335  0.2487
  123OSM    H4F13079   4.879   6.384   7.011  0.2847  1.9614  3.6819
  123OSM    H4G13080   5.000   6.494   6.926 -0.4888 -1.8288 -3.0368
  123OSM    C5F13081   5.070   6.418   7.108 -0.4469  0.7123  0.1361
  123OSM    H5F13082   5.160   6.476   7.079 -1.5495  1.5622 -1.7627
  123OSM    H5G13083   5.105   6.324   7.157 -0.1932 -0.1192 -1.5641
  123OSM    C6F13084   4.991   6.471   7.228  0.2942  0.0372 -0.5832
  123OSM    H6F13085   4.904   6.411   7.262  1.2597 -0.9942  0.1470
  123OSM    H6G13086   4.940   6.564   7.194  1.8103  1.6836  1.3806
  123OSM    C7F13087   5.081   6.503   7.348  0.0157 -0.0972 -0.4825
  123OSM    H7F13088   5.161   6.568   7.308 -0.0260 -0.1323 -0.6223
  123OSM    H7G13089   5.122   6.409   7.392  0.0880  0.4872  0.7556
  123OSM    C8F13090   5.021   6.569   7.470  0.1920 -0.8272  0.2450
  123OSM    H8F13091   4.917   6.530   7.475 -1.0162  2.1325  0.7602
  123OSM    H8G13092   4.992   6.673   7.443 -1.8889 -1.7526 -1.3141
  123OSM    C9F13093   5.102   6.556   7.595  0.4784  0.3349 -0.0874
  123OSM    H9F13094   5.209   6.536   7.581  0.2693  0.7099 -2.7667
  123OSM   C10F13095   5.047   6.551   7.722 -0.7027 -0.8092  0.2076
  123OSM   H10F13096   5.114   6.531   7.806  0.2744 -1.6953 -0.7512
  123OSM   C11F13097   4.902   6.573   7.753  0.5263 -0.7100 -1.1287
  123OSM   H11F13098   4.872   6.477   7.802  2.7789 -0.7849  0.2437
  123OSM   H11G13099   4.846   6.585   7.658  0.1434  1.1381 -0.7057
  123OSM   C12F13100   4.850   6.696   7.833  0.2022 -0.3050 -0.4565
  123OSM   H12F13101   4.883   6.782   7.771  0.9242  1.2772  1.9795
  123OSM   H12G13102   4.906   6.685   7.929  0.1463  0.7060 -0.2954
  123OSM   C13F13103   4.702   6.697   7.855  0.2553  0.6326  0.1783
  123OSM   H13F13104   4.648   6.647   7.773  3.9805 -0.6085 -1.7671
  123OSM   H13G13105   4.666   6.802   7.851 -0.1246  0.4754 -0.5136
  123OSM   C14F13106   4.651   6.641   7.990  0.9276  0.6902  0.5621
  123OSM   H14F13107   4.708   6.553   8.028  0.0499 -0.4678 -0.7353
  123OSM   H14G13108   4.545   6.612   7.978  1.1144  0.1163  0.2737
  123OSM   C15F13109   4.634   6.758   8.092 -0.1529 -0.2903  0.5287
  123OSM   H15F13110   4.570   6.841   8.054 -1.2189 -1.1469  0.3943
  123OSM   H15G13111   4.731   6.811   8.099 -0.9417  1.2614  0.2728
  123OSM   C16F13112   4.592   6.712   8.237 -0.9918  0.0222  0.3185
  123OSM   H16F13113   4.654   6.625   8.267 -1.0013  0.2018  0.8766
  123OSM   H16G13114   4.488   6.672   8.239 -0.6945 -0.7928 -0.1138
  123OSM   C17F13115   4.616   6.811   8.347 -0.2966 -0.6366  0.5225
  123OSM   H17F13116   4.554   6.900   8.324 -0.5024 -1.4566 -2.5505
  123OSM   H17G13117   4.723   6.840   8.346  0.1158 -2.0207 -0.9682
  123OSM   C18F13118   4.574   6.758   8.489  0.2068  0.3427  0.3580
  123OSM   H18F13119   4.611   6.656   8.509 -1.8461 -0.7063 -0.8822
  123OSM   H18G13120   4.465   6.775   8.499  0.4951  2.4941  0.3554
  123OSM   H18H13121   4.618   6.823   8.568 -0.3779 -0.6711  1.5428
  124OSM      N13122   3.959   0.582   5.907 -0.6937 -0.0387 -0.0564
  124OSM    C1513123   3.847   0.493   5.933  0.0304 -0.0210 -0.2368
  124OSM   H15A13124   3.777   0.524   6.009  1.1294  3.9330 -0.6184
  124OSM   H15B13125   3.878   0.393   5.961  1.7503  0.9733  1.7010
  124OSM   H15C13126   3.781   0.484   5.848 -1.8412 -1.6399  1.2784
  124OSM    C1413127   4.063   0.512   5.820 -0.8166 -0.3450  0.0798
  124OSM   H14A13128   4.008   0.463   5.740 -2.5748 -2.1368  2.2488
  124OSM   H14B13129   4.102   0.432   5.881 -0.6356 -0.5934 -0.3530
  124OSM   H14C13130   4.142   0.571   5.776 -0.2207 -1.5945 -0.5864
  124OSM    C1313131   3.907   0.704   5.840 -0.3520  0.3166  0.1333
  124OSM   H13A13132   3.826   0.755   5.890 -0.4525  1.9861 -1.6173
  124OSM   H13B13133   3.865   0.674   5.745 -0.5587 -1.4989  0.7635
  124OSM   H13C13134   3.976   0.782   5.812 -0.1680  0.2595  0.4253
  124OSM    C1213135   4.027   0.615   6.037 -0.2307 -0.9839  0.1186
  124OSM   H12A13136   3.970   0.681   6.101  0.9792 -1.2785  1.5442
  124OSM   H12B13137   4.115   0.672   6.012 -0.2714 -0.9649  0.0211
  124OSM    C1113138   4.066   0.503   6.132 -0.6249  0.0340 -0.4392
  124OSM   H11A13139   3.977   0.457   6.178  1.3411 -2.1734  1.3543
  124OSM   H11B13140   4.112   0.553   6.220 -1.1634 -2.3161  1.2508
  124OSM      P13141   4.141   0.255   6.075  0.1814 -0.3748  0.0522
  124OSM    O1313142   4.048   0.203   5.975  0.1322  0.2451  0.0659
  124OSM    O1413143   4.276   0.202   6.064  0.1316 -0.0004 -0.0629
  124OSM    O1113144   4.083   0.218   6.214 -0.2140 -0.2280  0.2458
  124OSM    O1213145   4.150   0.413   6.077 -0.7963  0.6746  0.9605
  124OSM    C1S13146   4.140   0.261   6.331  0.2406  0.6658  0.0388
  124OSM    H1S13147   4.181   0.364   6.335  1.6316  0.1304  0.3560
  124OSM    H1T13148   4.218   0.192   6.372 -0.5642  0.9878  2.2849
  124OSM     NF13149   4.094   0.305   6.563 -0.0783 -0.5630  0.0293
  124OSM    HNF13150   4.108   0.236   6.633 -3.0494 -1.0896  0.2131
  124OSM    C2S13151   4.032   0.254   6.448  0.2546  0.5304  0.3860
  124OSM    H2S13152   3.938   0.310   6.428 -0.4149 -0.9465 -0.8135
  124OSM    C3S13153   3.980   0.105   6.461 -0.0832  0.0253 -0.9468
  124OSM    H3S13154   4.072   0.049   6.488  0.6554  0.9797 -1.4117
  124OSM     O313155   3.931   0.045   6.345  0.6483 -0.0487 -0.0371
  124OSM    HO313156   3.970   0.090   6.269  0.0434 -1.7070 -1.3877
  124OSM    C4S13157   3.876   0.090   6.572 -0.0734 -0.2166 -0.0277
  124OSM    H4S13158   3.907   0.024   6.654  1.9837 -0.3155 -0.8198
  124OSM    C5S13159   3.745   0.122   6.556  0.4391 -0.2792  0.0489
  124OSM    H5S13160   3.709   0.181   6.470 -1.7357 -0.5801  0.7006
  124OSM    C6S13161   3.636   0.084   6.655 -0.5953 -0.6308 -0.2247
  124OSM    H6S13162   3.566   0.004   6.621 -1.6862  0.8248 -1.5517
  124OSM    H6T13163   3.567   0.170   6.666 -0.5652 -0.4204 -1.5009
  124OSM    C7S13164   3.684   0.064   6.805  0.0911 -0.5483  0.6187
  124OSM    H7S13165   3.725   0.154   6.855  2.1309  0.7209 -2.8972
  124OSM    H7T13166   3.756  -0.020   6.806 -0.0213 -0.6991 -1.0570
  124OSM    C8S13167   3.566   0.019   6.895  0.5628  0.2101 -0.5013
  124OSM    H8S13168   3.502  -0.055   6.841  0.4324  0.8027 -1.1827
  124OSM    H8T13169   3.515   0.111   6.929  1.9050  0.4788  0.8784
  124OSM    C9S13170   3.612  -0.041   7.022 -0.2166  0.3869  0.0605
  124OSM    H9S13171   3.684   0.027   7.072  0.4921 -1.3180  1.4660
  124OSM    H9T13172   3.676  -0.130   7.004  0.3864  0.0843  3.1621
  124OSM   C10S13173   3.504  -0.087   7.117 -0.0634  0.5669  0.6364
  124OSM   H10S13174   3.434  -0.165   7.080 -1.9720  2.4634  0.0508
  124OSM   H10T13175   3.447   0.006   7.136 -0.7468  0.0564  1.1496
  124OSM   C11S13176   3.549  -0.145   7.248 -0.3667 -0.7758 -0.7074
  124OSM   H11S13177   3.600  -0.242   7.229  0.2641 -0.6940  0.5180
  124OSM   H11T13178   3.468  -0.169   7.319  0.7389 -1.4996  0.3319
  124OSM   C12S13179   3.645  -0.057   7.324 -0.0760 -0.4331  0.6403
  124OSM   H12S13180   3.591   0.036   7.353 -0.8413 -0.5803 -0.2991
  124OSM   H12T13181   3.731  -0.043   7.255 -1.7396 -0.7778 -1.5867
  124OSM   C13S13182   3.686  -0.121   7.458  0.7652  0.5955  0.1449
  124OSM   H13S13183   3.785  -0.170   7.450  0.7257  0.7346 -1.9389
  124OSM   H13T13184   3.615  -0.204   7.480  1.8863 -0.5387 -0.4253
  124OSM   C14S13185   3.684  -0.028   7.581  0.6192  0.0077 -0.0141
  124OSM   H14S13186   3.580   0.005   7.601 -0.6851 -3.0196 -1.2715
  124OSM   H14T13187   3.749   0.058   7.553 -0.4845  1.0579  0.5333
  124OSM   C15S13188   3.742  -0.089   7.705 -0.2023  0.4906  0.9869
  124OSM   H15S13189   3.848  -0.120   7.687 -0.1692  0.2846  1.5102
  124OSM   H15T13190   3.683  -0.179   7.732 -2.8283  1.9401  0.3872
  124OSM   C16S13191   3.745   0.007   7.829  0.1936  0.3098 -0.3682
  124OSM   H16S13192   3.644   0.052   7.838  1.0406  1.9460  1.8261
  124OSM   H16T13193   3.812   0.093   7.809 -1.3859  1.2463 -1.9901
  124OSM   C17S13194   3.764  -0.068   7.963  0.1990 -0.2064  0.2108
  124OSM   H17S13195   3.865  -0.115   7.965 -0.0233 -0.6612  1.3752
  124OSM   H17T13196   3.692  -0.152   7.958 -1.4489  1.2058 -0.8669
  124OSM   C18S13197   3.730   0.024   8.080 -0.3163  0.4107  0.6517
  124OSM   H18S13198   3.634   0.079   8.082 -0.3105  0.3960  2.3327
  124OSM   H18T13199   3.817   0.093   8.086 -0.4271  0.6045  0.0931
  124OSM   H18U13200   3.736  -0.036   8.173 -0.7082  0.5745  0.7816
  124OSM    C1F13201   4.113   0.434   6.589  0.3147 -0.2967 -0.7867
  124OSM     OF13202   4.100   0.527   6.514 -0.4966 -0.2588  0.7747
  124OSM    C2F13203   4.166   0.454   6.732  0.1436  0.3188 -0.7468
  124OSM    H2F13204   4.256   0.389   6.745  0.0931  0.1970 -0.9996
  124OSM    H2G13205   4.096   0.406   6.804  0.0522 -1.5954 -2.0226
  124OSM    C3F13206   4.204   0.594   6.778  0.0077 -0.4897  0.0148
  124OSM    H3F13207   4.116   0.661   6.773 -0.2345 -0.9136 -1.7947
  124OSM    H3G13208   4.277   0.626   6.701 -0.6209  1.2107  0.0891
  124OSM    C4F13209   4.273   0.607   6.910 -0.2326  0.5945  0.1754
  124OSM    H4F13210   4.326   0.705   6.916  2.3505 -0.5979 -1.3166
  124OSM    H4G13211   4.342   0.523   6.933  0.5872  0.9488 -0.9090
  124OSM    C5F13212   4.169   0.600   7.025 -0.3659  0.2540  0.1596
  124OSM    H5F13213   4.127   0.502   7.053  0.7957 -1.1119 -2.5099
  124OSM    H5G13214   4.077   0.652   6.989 -0.9061 -0.3900  0.6072
  124OSM    C6F13215   4.214   0.679   7.147  0.4282  0.0071  0.3335
  124OSM    H6F13216   4.239   0.783   7.121 -1.4209  0.5720  0.6641
  124OSM    H6G13217   4.308   0.625   7.175  0.8579  0.0809 -0.9076
  124OSM    C7F13218   4.116   0.687   7.265 -0.7312 -0.5901 -0.5228
  124OSM    H7F13219   4.116   0.589   7.318  0.8975 -0.6539 -0.5838
  124OSM    H7G13220   4.013   0.719   7.241 -0.6067  0.6550  0.4918
  124OSM    C8F13221   4.176   0.776   7.376  0.5367 -0.0225 -0.4460
  124OSM    H8F13222   4.116   0.759   7.468  3.0015  4.3340  2.3054
  124OSM    H8G13223   4.166   0.879   7.336  1.3534  0.3005  0.1431
  124OSM    C9F13224   4.323   0.762   7.419 -0.0171 -0.3394 -0.2170
  124OSM    H9F13225   4.404   0.791   7.351 -0.0280  1.8406  0.6176
  124OSM   C10F13226   4.370   0.708   7.535  0.1140  0.2298  0.6238
  124OSM   H10F13227   4.477   0.708   7.559  0.2641  1.0034 -0.0101
  124OSM   C11F13228   4.282   0.662   7.647 -0.1731 -0.3603  0.7735
  124OSM   H11F13229   4.239   0.560   7.636 -0.0611 -0.6184  2.3785
  124OSM   H11G13230   4.195   0.730   7.659 -1.6221 -1.4703 -2.3546
  124OSM   C12F13231   4.356   0.660   7.776 -0.3821  0.3717 -0.7320
  124OSM   H12F13232   4.392   0.763   7.799 -0.4431  0.2254  0.0274
  124OSM   H12G13233   4.441   0.589   7.767 -0.6010  0.1740 -1.3047
  124OSM   C13F13234   4.272   0.603   7.891  0.0853  0.3599 -0.6347
  124OSM   H13F13235   4.223   0.511   7.853 -2.9006  1.6530 -0.1220
  124OSM   H13G13236   4.177   0.659   7.903  0.6694  1.6886 -1.8101
  124OSM   C14F13237   4.341   0.586   8.032  0.5043  0.5052  0.1088
  124OSM   H14F13238   4.339   0.688   8.076  0.8425 -0.2486  1.9960
  124OSM   H14G13239   4.445   0.551   8.020  0.2940 -0.5011  1.0553
  124OSM   C15F13240   4.265   0.503   8.133 -0.8060  0.1724 -0.1717
  124OSM   H15F13241   4.236   0.408   8.085 -0.1070 -0.8268  1.3239
  124OSM   H15G13242   4.165   0.545   8.157 -1.9273 -1.7845 -1.1954
  124OSM   C16F13243   4.351   0.462   8.250 -0.2891  0.4410  0.0373
  124OSM   H16F13244   4.387   0.550   8.308  1.3533 -0.4325  0.3994
  124OSM   H16G13245   4.439   0.407   8.209  0.7233  2.0902 -0.0793
  124OSM   C17F13246   4.270   0.375   8.347  0.4063  0.0108 -0.2157
  124OSM   H17F13247   4.243   0.289   8.282 -0.9157  0.3042 -0.0923
  124OSM   H17G13248   4.169   0.418   8.367  0.9599  1.4819 -0.5081
  124OSM   C18F13249   4.346   0.333   8.469  0.1072 -0.2900  0.0476
  124OSM   H18F13250   4.349   0.410   8.550 -0.2493  0.7321 -0.8829
  124OSM   H18G13251   4.448   0.307   8.436 -0.3858 -0.7623 -1.1624
  124OSM   H18H13252   4.304   0.243   8.518 -1.1125 -0.4021 -1.1531
  125OSM      N13253   2.155   6.075   5.796  0.1869 -0.8941  0.0124
  125OSM    C1513254   2.228   6.018   5.676 -0.2577  0.3520  1.3527
  125OSM   H15A13255   2.227   5.910   5.676  1.6424  0.2939  1.5708
  125OSM   H15B13256   2.331   6.050   5.670 -0.2536  0.0914 -0.6016
  125OSM   H15C13257   2.179   6.034   5.582  0.1610 -0.1461  1.0461
  125OSM    C1413258   2.096   6.207   5.767 -0.3131  0.0524  0.1472
  125OSM   H14A13259   2.035   6.243   5.848 -0.8142 -0.7767  0.1446
  125OSM   H14B13260   2.029   6.206   5.682 -1.6436 -1.3968  1.1610
  125OSM   H14C13261   2.183   6.272   5.766  0.5951 -1.1323 -0.5601
  125OSM    C1313262   2.030   5.981   5.815 -0.4044  0.1772  0.6199
  125OSM   H13A13263   1.968   5.996   5.728  3.2954 -0.1642 -2.2987
  125OSM   H13B13264   1.971   6.018   5.898 -0.1062 -1.2292  1.4944
  125OSM   H13C13265   2.061   5.878   5.811  0.6409  0.4996  0.2908
  125OSM    C1213266   2.238   6.079   5.918 -0.1267  0.3219  0.2690
  125OSM   H12A13267   2.338   6.111   5.895  0.7404 -1.6675  1.0351
  125OSM   H12B13268   2.245   5.972   5.934  1.4478  0.2824 -0.5352
  125OSM    C1113269   2.180   6.147   6.047  0.6264 -0.4219 -0.4630
  125OSM   H11A13270   2.240   6.111   6.134  1.2712 -1.0250 -1.1417
  125OSM   H11B13271   2.084   6.094   6.062 -0.3432  1.9945  3.6254
  125OSM      P13272   2.053   6.376   6.085 -0.1747  0.0832 -0.1598
  125OSM    O1313273   2.099   6.512   6.078 -0.8196 -0.6894  0.6224
  125OSM    O1413274   1.935   6.341   6.007 -0.3602 -0.3535  0.1454
  125OSM    O1113275   2.030   6.342   6.243  0.1103 -0.3807  0.1568
  125OSM    O1213276   2.172   6.288   6.040  0.3804 -0.1532 -0.1627
  125OSM    C1S13277   2.139   6.325   6.334 -0.0984  0.1247 -0.6116
  125OSM    H1S13278   2.206   6.414   6.332 -0.3038  0.3232 -3.3375
  125OSM    H1T13279   2.214   6.248   6.304  1.8125  2.0192 -0.9514
  125OSM     NF13280   2.202   6.286   6.561 -0.2613  0.0793 -0.4795
  125OSM    HNF13281   2.240   6.195   6.578  0.9446  0.8162  1.0318
  125OSM    C2S13282   2.088   6.284   6.474  0.4880 -0.3486  0.2350
  125OSM    H2S13283   2.017   6.357   6.517 -0.3793 -0.9839 -0.0834
  125OSM    C3S13284   2.012   6.139   6.464 -0.9895 -0.1164  0.3085
  125OSM    H3S13285   2.091   6.070   6.427 -2.5174 -1.2486 -1.0013
  125OSM     O313286   1.903   6.133   6.372  0.1540  0.4105  0.0449
  125OSM    HO313287   1.917   6.211   6.319  2.0696 -0.1085 -0.2743
  125OSM    C4S13288   1.971   6.096   6.599  0.3288 -0.0121 -0.3182
  125OSM    H4S13289   2.023   6.002   6.625 -1.7558 -0.2513  3.8700
  125OSM    C5S13290   1.880   6.149   6.682  0.1256 -0.1432  0.2372
  125OSM    H5S13291   1.839   6.247   6.655  0.1368 -0.0464  0.5717
  125OSM    C6S13292   1.850   6.072   6.809 -0.5531 -0.2440 -0.0713
  125OSM    H6S13293   1.889   5.968   6.806 -0.0654 -0.0562 -0.2858
  125OSM    H6T13294   1.741   6.071   6.829 -0.2165  1.3219  2.2022
  125OSM    C7S13295   1.905   6.128   6.940 -0.5409  0.0933  0.2678
  125OSM    H7S13296   1.852   6.221   6.972 -0.1437  0.2882  0.3737
  125OSM    H7T13297   2.009   6.168   6.936 -1.4807  2.6185 -1.0338
  125OSM    C8S13298   1.900   6.034   7.057  0.3431 -0.2419 -0.5663
  125OSM    H8S13299   1.970   5.952   7.028  0.1290 -0.5476 -0.2289
  125OSM    H8T13300   1.798   5.994   7.075  0.2546  0.2176 -0.0281
  125OSM    C9S13301   1.961   6.098   7.185  0.3128  0.1330  0.2221
  125OSM    H9S13302   1.925   6.202   7.202 -0.8515 -0.2912  0.4186
  125OSM    H9T13303   2.072   6.090   7.184  0.2878 -0.2052 -1.0180
  125OSM   C10S13304   1.904   6.020   7.304 -0.4170  0.0890 -0.3752
  125OSM   H10S13305   1.918   5.911   7.286  0.3199  0.1553 -0.2199
  125OSM   H10T13306   1.794   6.037   7.309 -0.7339 -1.3400 -1.6789
  125OSM   C11S13307   1.968   6.067   7.439  0.2933 -0.4545  0.4944
  125OSM   H11S13308   1.945   6.174   7.454 -4.2471 -1.2014  0.3520
  125OSM   H11T13309   2.078   6.058   7.429  0.1084 -2.1459 -0.4458
  125OSM   C12S13310   1.901   5.994   7.558  0.6830 -0.5945  0.0144
  125OSM   H12S13311   1.920   5.884   7.552 -1.9534 -1.1308  0.0904
  125OSM   H12T13312   1.793   6.009   7.537  0.5509  0.1404  1.1495
  125OSM   C13S13313   1.939   6.058   7.692 -0.2798 -0.3482  0.0493
  125OSM   H13S13314   1.908   6.164   7.704 -0.9304 -0.5461  0.2021
  125OSM   H13T13315   2.047   6.058   7.717 -0.4438  2.1916  1.0267
  125OSM   C14S13316   1.865   5.983   7.798  0.0466  0.3738 -0.4372
  125OSM   H14S13317   1.875   5.873   7.796 -0.9746  0.2590  0.1003
  125OSM   H14T13318   1.758   5.994   7.771 -0.0573  0.4701  0.0135
  125OSM   C15S13319   1.896   6.031   7.939  1.3329  0.0967 -0.1837
  125OSM   H15S13320   2.006   6.025   7.951  1.3930  0.0619 -0.7648
  125OSM   H15T13321   1.835   5.963   8.003 -0.2769  2.0050  0.4290
  125OSM   C16S13322   1.842   6.168   7.979 -0.0416 -0.1792 -0.2704
  125OSM   H16S13323   1.736   6.165   7.947 -1.0022 -0.2463  2.5974
  125OSM   H16T13324   1.896   6.247   7.923 -0.3529 -0.1077 -0.4737
  125OSM   C17S13325   1.852   6.197   8.134 -0.0849 -0.1110  0.0297
  125OSM   H17S13326   1.827   6.304   8.155  0.0390 -0.4235  2.0011
  125OSM   H17T13327   1.961   6.182   8.153  0.1281 -1.5645 -2.0334
  125OSM   C18S13328   1.772   6.114   8.230 -0.1046  0.1215  0.5455
  125OSM   H18S13329   1.801   6.137   8.334  2.4693 -1.5862  0.2896
  125OSM   H18T13330   1.783   6.005   8.210 -1.4458  0.0847 -0.1950
  125OSM   H18U13331   1.665   6.134   8.207  0.5029  3.9014  0.3336
  125OSM    C1F13332   2.266   6.389   6.599 -0.2430  0.0145  0.5101
  125OSM     OF13333   2.229   6.503   6.573  0.4161  0.3830 -0.2038
  125OSM    C2F13334   2.387   6.362   6.682 -0.2160 -0.2449  0.4069
  125OSM    H2F13335   2.450   6.279   6.645  1.6421  1.2742 -0.0151
  125OSM    H2G13336   2.345   6.344   6.784 -1.6727 -3.3626 -0.6140
  125OSM    C3F13337   2.489   6.474   6.689  0.0718 -0.0580 -0.6414
  125OSM    H3F13338   2.435   6.569   6.706  0.2326 -0.0933  0.1008
  125OSM    H3G13339   2.552   6.487   6.599  3.2927  1.5589  1.6119
  125OSM    C4F13340   2.584   6.441   6.804  0.3876  0.1259 -0.6941
  125OSM    H4F13341   2.682   6.486   6.776 -0.2486  1.4279 -0.8932
  125OSM    H4G13342   2.593   6.332   6.826  0.0188  0.3359  0.5523
  125OSM    C5F13343   2.549   6.503   6.935  0.1258  0.4471  0.4813
  125OSM    H5F13344   2.447   6.472   6.966 -0.3508  2.7028  1.4047
  125OSM    H5G13345   2.547   6.613   6.916  2.8713  0.3469 -0.8638
  125OSM    C6F13346   2.636   6.477   7.057  0.3927 -0.2287  0.8463
  125OSM    H6F13347   2.738   6.474   7.013 -0.3866 -0.7113 -1.0318
  125OSM    H6G13348   2.614   6.385   7.115  1.1041 -1.8716 -1.3829
  125OSM    C7F13349   2.621   6.594   7.157  0.6066  0.2823 -0.1005
  125OSM    H7F13350   2.512   6.594   7.180  0.8316 -0.7342  1.0784
  125OSM    H7G13351   2.638   6.679   7.088  0.8801 -1.3519 -2.1466
  125OSM    C8F13352   2.699   6.582   7.287 -0.4343  0.1098  0.2373
  125OSM    H8F13353   2.808   6.596   7.270 -0.2217  1.7242  2.4899
  125OSM    H8G13354   2.683   6.482   7.332  1.2465 -0.5763 -0.6115
  125OSM    C9F13355   2.668   6.692   7.379  0.1632  0.3770  0.4001
  125OSM    H9F13356   2.718   6.785   7.346 -1.0017  0.6908 -0.5514
  125OSM   C10F13357   2.596   6.696   7.491  0.4351  0.1140 -0.3997
  125OSM   H10F13358   2.602   6.788   7.551  1.8891 -0.3229  0.1789
  125OSM   C11F13359   2.528   6.576   7.553  0.7789  0.4928  1.2400
  125OSM   H11F13360   2.584   6.479   7.554 -2.7954 -1.7888  0.1498
  125OSM   H11G13361   2.437   6.546   7.496  0.7255  1.8713  0.5632
  125OSM   C12F13362   2.504   6.605   7.704  0.3893  0.5513  0.0368
  125OSM   H12F13363   2.443   6.513   7.720  1.1492  0.0864  0.2935
  125OSM   H12G13364   2.441   6.696   7.719  0.7552  0.4120  3.0500
  125OSM   C13F13365   2.627   6.609   7.794  0.3185  0.1727 -0.1348
  125OSM   H13F13366   2.700   6.686   7.761  0.8561  0.3152  1.2928
  125OSM   H13G13367   2.683   6.514   7.783 -0.2678 -0.4633  1.9511
  125OSM   C14F13368   2.599   6.632   7.941  0.6140 -0.0066  0.1071
  125OSM   H14F13369   2.514   6.566   7.970 -2.8202  1.5515 -4.9724
  125OSM   H14G13370   2.569   6.737   7.964  0.7248 -0.0276  0.3474
  125OSM   C15F13371   2.722   6.603   8.030  0.4538  0.7538  0.1700
  125OSM   H15F13372   2.809   6.664   7.996  0.2385  0.4019 -1.0579
  125OSM   H15G13373   2.748   6.497   8.014 -0.4721  0.5809 -0.2420
  125OSM   C16F13374   2.699   6.614   8.183 -0.2961 -1.2229 -0.3617
  125OSM   H16F13375   2.618   6.546   8.219 -1.0181 -0.4593 -0.5347
  125OSM   H16G13376   2.669   6.720   8.194 -0.4127 -1.1770 -1.0791
  125OSM   C17F13377   2.826   6.580   8.267  0.0308  0.2554  0.3005
  125OSM   H17F13378   2.911   6.621   8.208  0.1419 -2.2995 -1.4869
  125OSM   H17G13379   2.855   6.473   8.257 -0.3508  0.0268  1.4845
  125OSM   C18F13380   2.836   6.618   8.416 -0.0954 -0.6061 -0.9644
  125OSM   H18F13381   2.935   6.599   8.462 -0.0386  2.3068  0.2921
  125OSM   H18G13382   2.767   6.553   8.475 -1.0993  0.7559 -0.5748
  125OSM   H18H13383   2.794   6.717   8.443 -2.7282 -1.5514 -1.2946
  126OSM      N13384   5.262   4.890   6.342 -0.1356 -0.1934 -0.0565
  126OSM    C1513385   5.255   4.973   6.458 -0.0098  0.0245  0.5288
  126OSM   H15A13386   5.332   4.954   6.531 -0.8936  2.8534  2.3325
  126OSM   H15B13387   5.159   4.953   6.503  0.0896 -1.5278  0.1142
  126OSM   H15C13388   5.237   5.078   6.441 -4.3801 -0.6754 -0.3335
  126OSM    C1413389   5.145   4.900   6.245  0.2206  0.8530  0.3120
  126OSM   H14A13390   5.054   4.866   6.293 -0.0634  1.6015  0.3115
  126OSM   H14B13391   5.163   4.836   6.160  2.6878  0.9202  0.7197
  126OSM   H14C13392   5.119   5.004   6.229 -1.8747  0.2664 -0.5300
  126OSM    C1313393   5.384   4.934   6.262  0.0839  0.5351  0.6556
  126OSM   H13A13394   5.391   5.041   6.257 -2.0975  0.7103  0.3152
  126OSM   H13B13395   5.377   4.905   6.159  0.7499  0.4110  0.6406
  126OSM   H13C13396   5.475   4.889   6.298 -0.0417 -0.5427 -0.3010
  126OSM    C1213397   5.270   4.741   6.385  0.4157 -0.4356  0.5759
  126OSM   H12A13398   5.372   4.722   6.414  0.5654  0.3842  0.6159
  126OSM   H12B13399   5.255   4.699   6.287 -0.8176  0.8358  0.1835
  126OSM    C1113400   5.165   4.689   6.481 -0.1510  0.3200  0.3386
  126OSM   H11A13401   5.180   4.739   6.580  1.2630 -0.5255  0.5804
  126OSM   H11B13402   5.192   4.582   6.492 -0.6753 -0.0722 -1.8342
  126OSM      P13403   4.925   4.772   6.526 -0.1762  0.0689 -0.6673
  126OSM    O1313404   4.960   4.917   6.542 -0.0201  0.1888 -0.1193
  126OSM    O1413405   4.790   4.746   6.469  0.2437  0.0981 -0.0120
  126OSM    O1113406   4.945   4.707   6.665  0.0361 -0.0655 -0.7196
  126OSM    O1213407   5.027   4.702   6.435 -0.1913 -0.2522  0.2568
  126OSM    C1S13408   4.882   4.579   6.684 -0.1455 -0.4884 -0.7456
  126OSM    H1S13409   4.951   4.499   6.650 -0.9555 -0.7623 -1.7949
  126OSM    H1T13410   4.779   4.569   6.644 -1.6739  1.3209  2.3722
  126OSM     NF13411   4.786   4.426   6.865  0.1198  0.3779 -0.0674
  126OSM    HNF13412   4.687   4.427   6.873  0.2482 -1.2122  2.4515
  126OSM    C2S13413   4.853   4.555   6.836 -0.4278  0.4424  0.3295
  126OSM    H2S13414   4.948   4.544   6.892 -1.2608 -3.4264  1.2170
  126OSM    C3S13415   4.774   4.676   6.905 -0.0741  0.1402  0.9204
  126OSM    H3S13416   4.665   4.667   6.887  0.0130 -0.4360  0.6647
  126OSM     O313417   4.812   4.808   6.869  0.1465 -0.1249 -0.5716
  126OSM    HO313418   4.887   4.801   6.810 -0.1438  1.1008 -1.1261
  126OSM    C4S13419   4.780   4.651   7.058  0.1299  0.1098  0.9585
  126OSM    H4S13420   4.736   4.557   7.094 -0.0233 -1.3360 -2.6415
  126OSM    C5S13421   4.845   4.719   7.157  0.7500 -0.2881 -0.9297
  126OSM    H5S13422   4.911   4.801   7.130  1.3864 -0.7417 -0.7819
  126OSM    C6S13423   4.849   4.680   7.307  1.2114  0.0986  0.0841
  126OSM    H6S13424   4.950   4.648   7.341  1.7083  0.4489 -1.0023
  126OSM    H6T13425   4.774   4.599   7.315 -0.4174  1.4747 -0.7151
  126OSM    C7S13426   4.795   4.795   7.395 -0.2417  0.5724  1.0497
  126OSM    H7S13427   4.701   4.842   7.358  0.4919  1.2827  0.0513
  126OSM    H7T13428   4.874   4.873   7.389  2.5665 -2.1646 -0.7031
  126OSM    C8S13429   4.769   4.746   7.533 -0.1501  0.0163 -0.6387
  126OSM    H8S13430   4.700   4.659   7.525  0.7326 -0.6888 -0.7781
  126OSM    H8T13431   4.723   4.828   7.592  0.9764  1.3750 -1.5581
  126OSM    C9S13432   4.889   4.696   7.613 -0.4272  0.2460 -0.6075
  126OSM    H9S13433   4.970   4.770   7.631  0.1525 -1.1983  3.8089
  126OSM    H9T13434   4.929   4.614   7.550 -0.8880 -0.5740  0.1567
  126OSM   C10S13435   4.851   4.623   7.745  0.4905  1.1706 -0.3669
  126OSM   H10S13436   4.947   4.585   7.786 -0.1273  2.4146  2.4695
  126OSM   H10T13437   4.779   4.541   7.727  2.8063 -0.8545 -0.9398
  126OSM   C11S13438   4.805   4.726   7.850 -0.0170  0.1370 -0.1429
  126OSM   H11S13439   4.717   4.786   7.818  0.5991  2.1977  1.7349
  126OSM   H11T13440   4.882   4.806   7.845  0.0842 -0.0447 -2.9056
  126OSM   C12S13441   4.768   4.662   7.985 -0.2671  0.5340  0.6038
  126OSM   H12S13442   4.854   4.604   8.026 -0.0301 -0.2169 -0.8683
  126OSM   H12T13443   4.687   4.587   7.975  0.9403 -0.7971  0.3189
  126OSM   C13S13444   4.736   4.765   8.090 -0.4362 -0.1739 -0.2287
  126OSM   H13S13445   4.650   4.828   8.060  0.6672  2.5111  1.8482
  126OSM   H13T13446   4.816   4.836   8.118 -0.4269 -0.7841  1.4048
  126OSM   C14S13447   4.705   4.699   8.223 -0.4099 -0.6129  0.1990
  126OSM   H14S13448   4.801   4.677   8.275 -0.2181 -0.0671  0.0784
  126OSM   H14T13449   4.662   4.597   8.210  0.3342 -0.8786 -0.2554
  126OSM   C15S13450   4.610   4.783   8.305  0.2447 -0.2004  0.0069
  126OSM   H15S13451   4.521   4.788   8.238 -0.5704 -0.8170  1.0155
  126OSM   H15T13452   4.641   4.889   8.321  1.7867 -0.6819  0.3477
  126OSM   C16S13453   4.573   4.720   8.446  0.1476 -0.0609 -0.3512
  126OSM   H16S13454   4.554   4.611   8.436  0.6243 -0.0405 -1.6569
  126OSM   H16T13455   4.482   4.767   8.487 -0.4377 -1.1242 -0.3909
  126OSM   C17S13456   4.685   4.744   8.553  0.0674 -0.5961 -0.4904
  126OSM   H17S13457   4.711   4.851   8.567 -1.3414 -0.2252 -0.5708
  126OSM   H17T13458   4.782   4.692   8.535  1.2014  1.2049  0.1670
  126OSM   C18S13459   4.635   4.700   8.693 -0.3574 -0.0943 -0.0145
  126OSM   H18S13460   4.530   4.732   8.708 -0.1157  0.2975  0.8801
  126OSM   H18T13461   4.692   4.757   8.769  0.3167  0.6027 -1.0184
  126OSM   H18U13462   4.641   4.590   8.708 -0.9972 -0.4270 -1.9093
  126OSM    C1F13463   4.848   4.314   6.845 -1.0161  0.8668 -0.4135
  126OSM     OF13464   4.968   4.311   6.834 -0.1954 -0.3299 -0.4793
  126OSM    C2F13465   4.769   4.189   6.841  0.3980  0.0999 -0.5647
  126OSM    H2F13466   4.716   4.187   6.744  0.0002 -2.6493 -0.3685
  126OSM    H2G13467   4.694   4.204   6.922  0.0061 -0.6004 -0.7908
  126OSM    C3F13468   4.842   4.053   6.870 -0.0852  0.1911  0.1206
  126OSM    H3F13469   4.915   4.030   6.790  2.0559  1.1010  1.7072
  126OSM    H3G13470   4.770   3.969   6.868 -0.2602  0.3361 -2.2303
  126OSM    C4F13471   4.919   4.043   7.004  0.1589  0.1963  0.3793
  126OSM    H4F13472   4.977   4.133   7.035 -0.3138  0.4498  0.5510
  126OSM    H4G13473   4.992   3.962   6.986  0.8337  1.2942 -2.3044
  126OSM    C5F13474   4.846   3.982   7.123  0.5416  0.1385 -0.9635
  126OSM    H5F13475   4.775   3.906   7.086 -2.0070  1.7381  0.4025
  126OSM    H5G13476   4.776   4.063   7.154  0.5147  0.5379 -2.0281
  126OSM    C6F13477   4.920   3.944   7.248  0.2062 -0.2629 -0.9560
  126OSM    H6F13478   4.943   4.035   7.309  0.8253 -1.0276 -0.0168
  126OSM    H6G13479   5.016   3.898   7.216  0.6393  0.3998 -0.6415
  126OSM    C7F13480   4.857   3.843   7.344 -0.0360  0.1481  0.3851
  126OSM    H7F13481   4.804   3.770   7.278  0.2211 -0.4632  0.8387
  126OSM    H7G13482   4.773   3.876   7.409 -1.2195 -3.7244  1.1098
  126OSM    C8F13483   4.964   3.767   7.420  0.5753 -0.3775 -0.2874
  126OSM    H8F13484   5.050   3.755   7.351  0.0013  1.7495 -1.4409
  126OSM    H8G13485   4.941   3.663   7.451  1.0695  0.3770  2.9252
  126OSM    C9F13486   5.009   3.849   7.534 -0.3383 -0.5681 -0.8248
  126OSM    H9F13487   5.029   3.955   7.513  0.5382 -0.6626 -0.4822
  126OSM   C10F13488   5.017   3.809   7.663 -0.3920  0.2491 -0.2432
  126OSM   H10F13489   5.058   3.877   7.740  0.7351 -1.9864  1.2261
  126OSM   C11F13490   4.982   3.681   7.722  0.5554  0.3020  0.1974
  126OSM   H11F13491   5.040   3.655   7.813 -0.4507 -1.0577  0.4819
  126OSM   H11G13492   5.002   3.593   7.657 -0.0539 -0.8608  1.5287
  126OSM   C12F13493   4.838   3.678   7.779  0.6019 -0.0967 -0.3009
  126OSM   H12F13494   4.787   3.580   7.771 -1.1423  0.3315  3.4727
  126OSM   H12G13495   4.775   3.753   7.726  0.1845 -1.5389 -1.9208
  126OSM   C13F13496   4.823   3.718   7.933 -0.7077 -0.2373  0.5818
  126OSM   H13F13497   4.884   3.811   7.942 -2.1566  0.8497 -0.2984
  126OSM   H13G13498   4.853   3.627   7.989 -0.1541 -1.2611 -1.2766
  126OSM   C14F13499   4.681   3.738   7.979 -0.1296  0.3506  0.0320
  126OSM   H14F13500   4.619   3.649   7.956  0.4766 -0.7323  2.3152
  126OSM   H14G13501   4.647   3.829   7.924 -0.3661 -0.5497 -1.3508
  126OSM   C15F13502   4.673   3.764   8.123  0.6670  0.0303 -0.5898
  126OSM   H15F13503   4.737   3.854   8.133 -1.1719  1.2788  0.9036
  126OSM   H15G13504   4.720   3.680   8.180  0.9947 -1.2809 -2.7055
  126OSM   C16F13505   4.528   3.788   8.179  0.2278 -0.0231  0.3869
  126OSM   H16F13506   4.454   3.708   8.158 -0.6496  0.0919  2.7094
  126OSM   H16G13507   4.483   3.868   8.116  2.0662 -1.7336 -3.3962
  126OSM   C17F13508   4.544   3.801   8.326 -0.1592  0.1355 -1.0861
  126OSM   H17F13509   4.650   3.804   8.359 -0.8568 -1.2105  1.5675
  126OSM   H17G13510   4.508   3.710   8.378 -1.6505  0.2465 -1.8760
  126OSM   C18F13511   4.476   3.923   8.381  0.3347 -0.5314 -0.2805
  126OSM   H18F13512   4.534   4.014   8.355  1.2322 -1.3643 -1.2992
  126OSM   H18G13513   4.464   3.925   8.492  1.9691  0.7660 -0.0875
  126OSM   H18H13514   4.372   3.935   8.345 -0.3543  0.2502  1.8013
  127OSM      N13515   4.019   2.811   6.024  0.2788 -0.8152  0.5088
  127OSM    C1513516   3.897   2.874   5.971  0.5415  0.5738  0.2188
  127OSM   H15A13517   3.892   2.977   6.005 -0.1974  0.3427  0.8530
  127OSM   H15B13518   3.812   2.819   6.009  2.6968 -1.2601  2.7483
  127OSM   H15C13519   3.889   2.867   5.864  0.4974  2.8424  0.0135
  127OSM    C1413520   4.038   2.673   5.961 -0.5807  0.1601 -0.2696
  127OSM   H14A13521   4.138   2.635   5.970  0.4620  2.1482 -2.4819
  127OSM   H14B13522   4.015   2.672   5.855 -0.3999  2.2805 -0.3774
  127OSM   H14C13523   3.968   2.602   6.003 -1.1761  2.7108  3.5364
  127OSM    C1313524   4.134   2.893   5.968 -0.4204 -0.0009 -0.8419
  127OSM   H13A13525   4.227   2.843   5.990  0.2798  1.5446 -0.0707
  127OSM   H13B13526   4.135   2.995   6.003 -0.5776  0.2881 -1.6729
  127OSM   H13C13527   4.128   2.900   5.861  3.2018 -0.4929 -1.2009
  127OSM    C1213528   4.013   2.798   6.172 -0.3227 -0.4398  0.0666
  127OSM   H12A13529   4.012   2.901   6.207  0.9072 -0.8331  1.3498
  127OSM   H12B13530   4.108   2.759   6.205  0.5667 -1.3345 -3.1465
  127OSM    C1113531   3.901   2.729   6.252 -0.8123 -0.2137  1.1214
  127OSM   H11A13532   3.933   2.703   6.356  0.5890 -3.5961 -0.0186
  127OSM   H11B13533   3.887   2.631   6.203 -0.2211  0.7799 -1.1368
  127OSM      P13534   3.650   2.722   6.313 -0.6140 -0.2774  0.1167
  127OSM    O1313535   3.531   2.809   6.299 -0.1633 -0.6893 -0.4164
  127OSM    O1413536   3.644   2.584   6.263 -0.4948  0.7333 -0.0772
  127OSM    O1113537   3.683   2.725   6.472 -0.4071 -0.0755 -0.2180
  127OSM    O1213538   3.775   2.796   6.248  0.2058  0.4301  0.3710
  127OSM    C1S13539   3.726   2.854   6.523  0.0230  0.3973  0.0972
  127OSM    H1S13540   3.667   2.936   6.478 -1.9612 -1.1158 -0.2266
  127OSM    H1T13541   3.835   2.870   6.507 -0.1250  0.2027 -1.2830
  127OSM     NF13542   3.763   3.002   6.711 -0.1685 -0.2769  0.3479
  127OSM    HNF13543   3.857   3.004   6.743  0.4254  1.5284 -1.3473
  127OSM    C2S13544   3.714   2.871   6.674  0.5804 -0.7997 -0.0887
  127OSM    H2S13545   3.611   2.876   6.716  1.2057  3.4357  1.4536
  127OSM    C3S13546   3.786   2.753   6.746 -0.7233 -0.4177 -0.4185
  127OSM    H3S13547   3.893   2.762   6.718 -0.7175  0.8657 -0.0730
  127OSM     O313548   3.744   2.626   6.710  0.2007  0.7375  0.1495
  127OSM    HO313549   3.702   2.649   6.627  1.7984  1.6433 -0.4652
  127OSM    C4S13550   3.793   2.770   6.902 -0.0131 -0.8429 -0.4775
  127OSM    H4S13551   3.892   2.774   6.949 -0.4061 -1.0860  0.3879
  127OSM    C5S13552   3.684   2.772   6.985  0.4575  0.6482  0.4070
  127OSM    H5S13553   3.584   2.757   6.942  1.4568 -0.0125 -1.7876
  127OSM    C6S13554   3.699   2.771   7.135  0.3947  0.3077  0.1525
  127OSM    H6S13555   3.668   2.868   7.180 -1.5716  0.2450 -0.9752
  127OSM    H6T13556   3.799   2.737   7.170  0.2369 -1.6847 -1.2190
  127OSM    C7S13557   3.611   2.658   7.194  0.2435 -0.3590 -0.1499
  127OSM    H7S13558   3.635   2.554   7.164  1.0964 -0.3681  0.5242
  127OSM    H7T13559   3.506   2.686   7.169 -0.4723 -2.1609  0.6140
  127OSM    C8S13560   3.621   2.663   7.351 -0.0091  0.5313 -0.2054
  127OSM    H8S13561   3.586   2.763   7.385  0.1176  0.7299 -0.6568
  127OSM    H8T13562   3.726   2.650   7.383 -0.1418 -0.1282 -0.0307
  127OSM    C9S13563   3.536   2.551   7.418  0.0033 -0.2792  1.1358
  127OSM    H9S13564   3.553   2.560   7.528  1.8655  0.3237  0.8476
  127OSM    H9T13565   3.575   2.457   7.375  0.2860  0.3741 -0.0856
  127OSM   C10S13566   3.386   2.561   7.403  0.5706 -0.4239 -0.7222
  127OSM   H10S13567   3.360   2.563   7.295  2.8010 -0.4785 -1.3103
  127OSM   H10T13568   3.338   2.656   7.433  0.9743  0.1032 -1.6931
  127OSM   C11S13569   3.305   2.453   7.479  0.2583  0.7706 -0.1775
  127OSM   H11S13570   3.326   2.356   7.430 -0.1506 -0.0253  1.1762
  127OSM   H11T13571   3.197   2.475   7.465  0.3904  0.3569 -2.0755
  127OSM   C12S13572   3.322   2.468   7.627 -0.5870  0.0116  0.6228
  127OSM   H12S13573   3.300   2.572   7.657 -0.7592  0.4712 -1.0120
  127OSM   H12T13574   3.427   2.439   7.648 -0.2520 -0.4859 -1.4766
  127OSM   C13S13575   3.224   2.375   7.710  0.0332 -0.1194 -0.2420
  127OSM   H13S13576   3.240   2.269   7.681 -2.1421 -0.7422  0.6255
  127OSM   H13T13577   3.120   2.395   7.677 -1.3623 -3.2025  1.7940
  127OSM   C14S13578   3.236   2.388   7.861 -0.2205 -0.3597  0.3587
  127OSM   H14S13579   3.223   2.497   7.880  0.1544  0.1754 -2.1152
  127OSM   H14T13580   3.340   2.362   7.889 -0.2663  0.6544  1.5726
  127OSM   C15S13581   3.135   2.316   7.956  0.2514 -0.1848  0.7012
  127OSM   H15S13582   3.111   2.214   7.918 -0.9727  0.6897 -0.9841
  127OSM   H15T13583   3.050   2.384   7.977  1.1178  1.2634 -0.3487
  127OSM   C16S13584   3.201   2.297   8.093  0.3118 -0.0651  0.1852
  127OSM   H16S13585   3.229   2.397   8.133 -1.3406  0.0629  1.0892
  127OSM   H16T13586   3.288   2.227   8.089  0.3205 -0.0523  0.1561
  127OSM   C17S13587   3.107   2.242   8.207 -0.2907  0.1965  0.5098
  127OSM   H17S13588   3.041   2.163   8.166 -0.2301  1.0232 -1.2867
  127OSM   H17T13589   3.042   2.324   8.245 -1.2501 -1.0402  1.6621
  127OSM   C18S13590   3.177   2.187   8.336 -0.0618 -0.3463  0.2525
  127OSM   H18S13591   3.252   2.261   8.372 -0.2011 -0.9340  1.7837
  127OSM   H18T13592   3.222   2.086   8.320 -0.1398 -0.2914 -0.3574
  127OSM   H18U13593   3.098   2.170   8.411  0.4937  0.3431  1.0149
  127OSM    C1F13594   3.693   3.114   6.705 -0.0334  0.3247 -0.0659
  127OSM     OF13595   3.575   3.101   6.672 -1.1332 -0.8239 -0.0947
  127OSM    C2F13596   3.744   3.246   6.732 -0.5518 -0.2557  0.0551
  127OSM    H2F13597   3.688   3.314   6.664 -1.3277 -1.6994 -0.8003
  127OSM    H2G13598   3.854   3.255   6.721 -0.6745  0.8214 -0.4952
  127OSM    C3F13599   3.721   3.292   6.881 -0.7290 -0.5979 -0.7841
  127OSM    H3F13600   3.612   3.310   6.893 -0.5806  1.8047 -2.2877
  127OSM    H3G13601   3.768   3.393   6.885 -0.4151 -0.7757  0.4392
  127OSM    C4F13602   3.776   3.197   6.989 -0.2775 -0.3048 -0.7124
  127OSM    H4F13603   3.887   3.198   6.994 -0.2877  1.7653 -0.3669
  127OSM    H4G13604   3.740   3.094   6.968 -2.5760  0.2098  0.4753
  127OSM    C5F13605   3.739   3.234   7.138 -0.2556  0.3466 -0.2493
  127OSM    H5F13606   3.765   3.342   7.148 -2.9176  0.9797  0.6284
  127OSM    H5G13607   3.809   3.178   7.204  0.2434 -1.6752 -2.3993
  127OSM    C6F13608   3.587   3.216   7.187  0.1987  0.4816  0.3254
  127OSM    H6F13609   3.548   3.120   7.147  0.8739 -0.4329  1.7696
  127OSM    H6G13610   3.536   3.313   7.166  0.9328  1.1735  1.5838
  127OSM    C7F13611   3.589   3.199   7.344  0.1854 -0.2143  0.0633
  127OSM    H7F13612   3.613   3.295   7.396 -0.7163  0.2955 -0.4394
  127OSM    H7G13613   3.676   3.132   7.358  0.8484  0.6267  0.0814
  127OSM    C8F13614   3.458   3.141   7.392  0.4424  0.1517  0.4555
  127OSM    H8F13615   3.465   3.034   7.362  0.1564  0.8545 -2.3115
  127OSM    H8G13616   3.372   3.191   7.342  0.1952 -0.4294  0.2875
  127OSM    C9F13617   3.434   3.149   7.539  0.1516  0.3604 -0.6542
  127OSM    H9F13618   3.362   3.225   7.572  0.9164  0.2378  1.4139
  127OSM   C10F13619   3.487   3.079   7.642  0.3554 -0.3430  0.5013
  127OSM   H10F13620   3.458   3.109   7.744  3.2918 -0.2852  1.4032
  127OSM   C11F13621   3.589   2.968   7.618 -0.0737  0.8092 -0.0582
  127OSM   H11F13622   3.689   3.003   7.653  0.7344 -1.4191  0.0552
  127OSM   H11G13623   3.610   2.947   7.511 -1.0941 -1.4017  0.1232
  127OSM   C12F13624   3.552   2.831   7.691 -0.5463  0.5005  0.2225
  127OSM   H12F13625   3.626   2.757   7.652 -1.4668 -0.8877  1.0433
  127OSM   H12G13626   3.455   2.795   7.651  1.0420 -4.1507 -0.1267
  127OSM   C13F13627   3.557   2.823   7.842 -0.8741  0.6294  0.3164
  127OSM   H13F13628   3.475   2.882   7.888 -3.9963 -2.4092 -0.8902
  127OSM   H13G13629   3.658   2.856   7.875 -0.5749  1.9879 -1.7755
  127OSM   C14F13630   3.544   2.675   7.883 -0.0516  0.1987  0.4140
  127OSM   H14F13631   3.637   2.620   7.856 -0.5452 -0.3554 -0.1938
  127OSM   H14G13632   3.451   2.638   7.835 -0.0812 -0.0604  0.6694
  127OSM   C15F13633   3.527   2.646   8.034 -1.0398  0.0298  0.2963
  127OSM   H15F13634   3.620   2.659   8.092 -0.6137  2.9251 -0.8434
  127OSM   H15G13635   3.492   2.542   8.051  0.8362 -0.3608  2.1107
  127OSM   C16F13636   3.426   2.749   8.088  0.5321 -0.3647 -0.2074
  127OSM   H16F13637   3.336   2.750   8.022  0.1783  0.4190  0.2744
  127OSM   H16G13638   3.476   2.848   8.090 -1.1064  0.5273  1.9947
  127OSM   C17F13639   3.364   2.725   8.228 -0.0367 -0.1155  0.2083
  127OSM   H17F13640   3.329   2.619   8.234 -3.2345  0.7813 -0.4392
  127OSM   H17G13641   3.275   2.789   8.244  0.2033  0.3502 -0.2993
  127OSM   C18F13642   3.471   2.742   8.341  0.5688 -0.5300  0.2845
  127OSM   H18F13643   3.554   2.670   8.325  1.0907  0.2190 -0.4817
  127OSM   H18G13644   3.422   2.729   8.440 -2.2181  0.7889 -0.8111
  127OSM   H18H13645   3.515   2.843   8.337 -0.0072 -0.2507  0.7959
  128OSM      N13646   2.190   3.054   6.448 -0.0700  0.0087  0.0489
  128OSM    C1513647   2.248   2.949   6.533 -0.6198 -0.6197 -0.1794
  128OSM   H15A13648   2.320   2.892   6.476  0.4887  1.1841 -0.6610
  128OSM   H15B13649   2.159   2.899   6.570 -0.2131 -0.7824  0.6087
  128OSM   H15C13650   2.296   2.991   6.620  0.5051 -0.1565 -1.0042
  128OSM    C1413651   2.301   3.129   6.388 -0.2393 -0.1304  0.2509
  128OSM   H14A13652   2.370   3.071   6.328  0.5131 -0.8231  1.7399
  128OSM   H14B13653   2.362   3.179   6.462 -0.4579  0.9155 -0.2496
  128OSM   H14C13654   2.263   3.200   6.316 -0.0417  0.1586  0.4284
  128OSM    C1313655   2.120   2.993   6.330 -0.3134 -0.5941  0.5789
  128OSM   H13A13656   2.020   2.957   6.351 -0.3116 -0.1487  1.3936
  128OSM   H13B13657   2.174   2.906   6.296  0.2044 -0.0113 -0.1049
  128OSM   H13C13658   2.118   3.054   6.241  0.1259 -2.4657 -0.7751
  128OSM    C1213659   2.098   3.160   6.517 -1.1334  0.9981 -0.4123
  128OSM   H12A13660   2.092   3.239   6.444  0.5695  2.7299  1.2088
  128OSM   H12B13661   2.151   3.186   6.608  1.4040 -1.3420 -1.0879
  128OSM    C1113662   1.970   3.102   6.583  0.5609 -0.8235  1.2435
  128OSM   H11A13663   1.919   3.187   6.633  0.1670  0.4070 -1.0745
  128OSM   H11B13664   2.003   3.019   6.649  2.5587 -2.3801 -1.4617
  128OSM      P13665   1.802   3.143   6.388 -0.3270  0.3199  0.1381
  128OSM    O1313666   1.896   3.201   6.295 -0.7411 -0.0177  0.5549
  128OSM    O1413667   1.682   3.075   6.335  0.7348  0.8164  0.2244
  128OSM    O1113668   1.750   3.261   6.481  0.2652  0.2704 -0.4168
  128OSM    O1213669   1.879   3.046   6.483  0.7578 -0.2464 -0.0049
  128OSM    C1S13670   1.613   3.246   6.541  0.0662  0.2608 -0.3106
  128OSM    H1S13671   1.594   3.144   6.582  0.3294  0.1768 -0.3918
  128OSM    H1T13672   1.533   3.279   6.472 -0.9065 -0.5242  0.4269
  128OSM     NF13673   1.473   3.312   6.732  0.0352 -0.1207  0.4160
  128OSM    HNF13674   1.387   3.357   6.711  0.4036 -0.4723 -2.1382
  128OSM    C2S13675   1.594   3.344   6.656  0.2450 -0.9970  0.1577
  128OSM    H2S13676   1.684   3.339   6.722 -0.5201  0.4372  1.3571
  128OSM    C3S13677   1.596   3.486   6.599  0.4946 -0.1377 -0.8573
  128OSM    H3S13678   1.508   3.489   6.532 -0.0703  0.3511 -0.1005
  128OSM     O313679   1.703   3.526   6.519  0.2969  0.6072  0.0173
  128OSM    HO313680   1.724   3.444   6.475 -1.0369 -0.6450  1.5965
  128OSM    C4S13681   1.565   3.595   6.710  0.7057  0.6990  1.7425
  128OSM    H4S13682   1.463   3.634   6.702 -0.5312 -2.3166  1.5126
  128OSM    C5S13683   1.646   3.650   6.799 -0.4144 -0.3488 -0.4396
  128OSM    H5S13684   1.753   3.628   6.789 -0.0706  2.1933 -4.8378
  128OSM    C6S13685   1.599   3.764   6.891 -0.3469 -0.3113 -0.3360
  128OSM    H6S13686   1.514   3.819   6.847 -0.8474 -0.6205  0.2348
  128OSM    H6T13687   1.685   3.835   6.887  0.2159 -1.0133 -1.3828
  128OSM    C7S13688   1.570   3.703   7.031  0.0552 -0.1293  0.3416
  128OSM    H7S13689   1.661   3.649   7.066  0.5257  1.0878  1.0833
  128OSM    H7T13690   1.479   3.640   7.037 -0.1616  0.2640  1.6065
  128OSM    C8S13691   1.555   3.825   7.127  0.1800 -0.1202  1.4761
  128OSM    H8S13692   1.498   3.912   7.088  3.2063  0.0045 -3.4390
  128OSM    H8T13693   1.647   3.880   7.158  1.3813 -1.9586  1.3483
  128OSM    C9S13694   1.486   3.767   7.248 -0.4933  0.4871  0.1156
  128OSM    H9S13695   1.544   3.682   7.290 -1.0071  0.6597  1.2030
  128OSM    H9T13696   1.388   3.723   7.217  0.4312 -1.8710  0.3409
  128OSM   C10S13697   1.452   3.864   7.361 -0.0532 -0.0939 -0.0856
  128OSM   H10S13698   1.417   3.957   7.311 -3.2209 -1.3617 -0.4988
  128OSM   H10T13699   1.539   3.882   7.428 -1.2200  1.9787  0.9924
  128OSM   C11S13700   1.327   3.825   7.439  0.1624  0.2961  0.0662
  128OSM   H11S13701   1.241   3.781   7.384  0.4230 -1.3343  0.8818
  128OSM   H11T13702   1.290   3.920   7.481 -0.2105  0.2299 -0.1110
  128OSM   C12S13703   1.345   3.722   7.560  0.0582 -0.6562  0.8343
  128OSM   H12S13704   1.385   3.631   7.510  1.5968  0.6880 -0.5193
  128OSM   H12T13705   1.247   3.698   7.606 -0.6349 -1.7105 -1.0792
  128OSM   C13S13706   1.450   3.769   7.661 -0.3467  0.3639 -0.4397
  128OSM   H13S13707   1.415   3.860   7.713 -0.0123  0.7980 -0.9522
  128OSM   H13T13708   1.539   3.795   7.599  1.0271 -0.3872  1.1555
  128OSM   C14S13709   1.493   3.659   7.758  0.8149  0.5252 -0.5469
  128OSM   H14S13710   1.574   3.692   7.827  0.7978 -0.3997 -0.0835
  128OSM   H14T13711   1.528   3.573   7.698  1.0903  1.5127 -1.8613
  128OSM   C15S13712   1.372   3.607   7.843  0.0026 -0.1979 -0.5707
  128OSM   H15S13713   1.291   3.558   7.785 -1.1205  1.1348 -0.1667
  128OSM   H15T13714   1.320   3.699   7.877 -0.5571 -0.8343  0.3292
  128OSM   C16S13715   1.439   3.513   7.944  0.5556  0.0966  0.1854
  128OSM   H16S13716   1.523   3.577   7.980 -0.3743  0.3842  1.9220
  128OSM   H16T13717   1.491   3.423   7.903  1.0821  0.2228  0.5590
  128OSM   C17S13718   1.354   3.493   8.065 -0.4586 -0.3968  0.8568
  128OSM   H17S13719   1.302   3.396   8.051 -0.8448 -0.1468  0.5352
  128OSM   H17T13720   1.283   3.576   8.084 -1.6329 -1.5903  1.8195
  128OSM   C18S13721   1.430   3.483   8.199  0.2626 -0.2327  0.5852
  128OSM   H18S13722   1.494   3.393   8.215  1.1083  0.1576 -0.4473
  128OSM   H18T13723   1.357   3.493   8.282 -1.4948 -1.4443 -0.7564
  128OSM   H18U13724   1.493   3.573   8.216 -1.2121  0.6326  1.7097
  128OSM    C1F13725   1.485   3.213   6.824 -0.4093  0.4610 -0.1052
  128OSM     OF13726   1.584   3.141   6.818  0.1143  0.1256 -0.3497
  128OSM    C2F13727   1.377   3.191   6.924  0.0834 -0.3853  0.5202
  128OSM    H2F13728   1.309   3.107   6.899 -1.9261  1.0706  0.8102
  128OSM    H2G13729   1.307   3.277   6.936  0.6617  0.0946  0.5391
  128OSM    C3F13730   1.441   3.147   7.055  0.2889 -0.0101  0.2152
  128OSM    H3F13731   1.493   3.232   7.105 -0.0140  1.1672 -1.3839
  128OSM    H3G13732   1.501   3.054   7.049  0.5114  0.0599  1.1563
  128OSM    C4F13733   1.337   3.105   7.162  0.0670  0.0001  0.4017
  128OSM    H4F13734   1.386   3.047   7.243  0.9077 -4.1244 -2.7312
  128OSM    H4G13735   1.271   3.041   7.099  0.8983  0.2739 -0.7748
  128OSM    C5F13736   1.245   3.213   7.232 -0.5510 -1.1715  0.3990
  128OSM    H5F13737   1.160   3.158   7.277 -0.9465 -0.5063  0.4655
  128OSM    H5G13738   1.199   3.285   7.161 -2.2158 -2.1389  0.4407
  128OSM    C6F13739   1.327   3.296   7.334  0.4191 -0.6024  0.6588
  128OSM    H6F13740   1.400   3.351   7.271 -0.6236 -1.9108 -1.8325
  128OSM    H6G13741   1.372   3.225   7.407 -1.2163 -0.4153  1.9273
  128OSM    C7F13742   1.242   3.396   7.415 -0.4563  0.1454 -0.9346
  128OSM    H7F13743   1.192   3.473   7.353 -0.0631  0.4369 -0.8943
  128OSM    H7G13744   1.306   3.439   7.495 -0.7523 -1.0476 -0.0242
  128OSM    C8F13745   1.125   3.324   7.483 -0.1459 -1.0388  0.2314
  128OSM    H8F13746   1.164   3.239   7.541  0.9113 -1.1290 -0.5801
  128OSM    H8G13747   1.072   3.279   7.396  0.5386 -0.5415 -0.4571
  128OSM    C9F13748   1.033   3.413   7.559  0.4154  0.2008  0.4787
  128OSM    H9F13749   0.996   3.501   7.505 -3.3705 -0.9517  0.9397
  128OSM   C10F13750   0.995   3.408   7.685 -0.2002  0.2508  0.3216
  128OSM   H10F13751   0.913   3.477   7.707 -0.7494 -0.8766  1.9990
  128OSM   C11F13752   1.034   3.302   7.785  0.3034  0.3078 -0.6890
  128OSM   H11F13753   1.128   3.334   7.835 -0.0841 -1.2862  1.1784
  128OSM   H11G13754   1.050   3.207   7.731 -0.8951 -0.7184  0.6857
  128OSM   C12F13755   0.918   3.280   7.885  0.0057 -0.5427  0.1247
  128OSM   H12F13756   0.826   3.258   7.827 -0.5630  2.9630 -0.5252
  128OSM   H12G13757   0.893   3.371   7.945  1.5214 -0.8003  1.1835
  128OSM   C13F13758   0.951   3.172   7.990 -0.1303 -0.1080  0.2020
  128OSM   H13F13759   1.032   3.210   8.055  0.2024  1.7450 -1.1999
  128OSM   H13G13760   0.984   3.078   7.941  0.1517 -1.0431  2.1234
  128OSM   C14F13761   0.829   3.150   8.078  0.0553 -0.8423  0.3989
  128OSM   H14F13762   0.731   3.143   8.026  0.0259  0.5707  0.2176
  128OSM   H14G13763   0.800   3.247   8.125  0.9139  0.3691 -1.4683
  128OSM   C15F13764   0.827   3.030   8.170 -0.0205  0.9093 -0.6014
  128OSM   H15F13765   0.854   2.937   8.115  0.2754 -0.1987  1.3069
  128OSM   H15G13766   0.720   3.017   8.197  0.2847 -1.4153 -0.3089
  128OSM   C16F13767   0.929   3.040   8.290  0.7040  0.0002  0.0230
  128OSM   H16F13768   1.024   3.068   8.240 -0.6326  1.4155 -1.8759
  128OSM   H16G13769   0.929   2.934   8.322  0.2035 -1.5305 -4.4255
  128OSM   C17F13770   0.887   3.129   8.410  0.2078  0.1415  0.0139
  128OSM   H17F13771   0.897   3.239   8.394 -2.0897  0.4614  0.4312
  128OSM   H17G13772   0.950   3.106   8.498 -1.3038  1.0813  1.4005
  128OSM   C18F13773   0.742   3.101   8.450 -0.1376 -1.3080  0.4133
  128OSM   H18F13774   0.671   3.152   8.382  0.1091 -1.2620  0.1877
  128OSM   H18G13775   0.719   3.148   8.548 -1.8250 -0.8806 -0.1545
  128OSM   H18H13776   0.719   2.992   8.452  1.6573 -1.7619 -0.9786
  129OSM      N13777   1.583   4.046   5.858  0.1397 -0.5178  0.3626
  129OSM    C1513778   1.711   3.979   5.856  0.0258 -0.0118  0.1538
  129OSM   H15A13779   1.785   4.007   5.930  1.2565 -3.5100  0.4632
  129OSM   H15B13780   1.752   3.980   5.756 -1.3847  2.3801 -0.4705
  129OSM   H15C13781   1.683   3.876   5.874 -3.0193  1.1404  3.0357
  129OSM    C1413782   1.598   4.195   5.815  0.1302 -0.2798 -0.0132
  129OSM   H14A13783   1.499   4.238   5.826  0.6045  0.4816  1.5720
  129OSM   H14B13784   1.614   4.204   5.709  1.2649  1.6945  0.2693
  129OSM   H14C13785   1.668   4.248   5.878 -2.4718  0.6513  2.3552
  129OSM    C1313786   1.490   3.987   5.758 -0.3369 -0.5634  0.1212
  129OSM   H13A13787   1.405   4.053   5.751  0.1792 -0.0233 -1.4424
  129OSM   H13B13788   1.464   3.886   5.786  0.1405 -0.4527  1.0072
  129OSM   H13C13789   1.527   3.981   5.657 -0.3939 -0.3810  0.0891
  129OSM    C1213790   1.504   4.027   5.990  0.3401 -0.1484  0.0739
  129OSM   H12A13791   1.487   3.921   5.996 -2.4149  0.1201 -1.3335
  129OSM   H12B13792   1.405   4.070   5.985  0.2882 -0.2394  0.3313
  129OSM    C1113793   1.569   4.075   6.125 -0.7853  0.3250 -0.6298
  129OSM   H11A13794   1.676   4.043   6.130 -0.9771 -0.2603 -0.2065
  129OSM   H11B13795   1.517   4.016   6.203  0.5665 -2.6398 -1.7838
  129OSM      P13796   1.433   4.288   6.171  0.2453 -0.1116  0.2506
  129OSM    O1313797   1.465   4.429   6.154  0.2579  0.2859 -0.1204
  129OSM    O1413798   1.314   4.243   6.095  0.3033 -0.2303 -0.5317
  129OSM    O1113799   1.430   4.247   6.321  0.1389 -0.0988 -0.3936
  129OSM    O1213800   1.561   4.217   6.120  0.9212  0.3531  0.7014
  129OSM    C1S13801   1.548   4.245   6.404  0.5284 -0.1358 -0.1564
  129OSM    H1S13802   1.610   4.335   6.385  1.4520 -0.6680  0.2629
  129OSM    H1T13803   1.598   4.147   6.387 -0.5012 -0.4353 -1.6937
  129OSM     NF13804   1.640   4.276   6.627  0.4041  0.5479 -0.4270
  129OSM    HNF13805   1.686   4.207   6.681  0.2681  0.1219 -0.8499
  129OSM    C2S13806   1.513   4.251   6.559 -0.6721  0.0092  0.6436
  129OSM    H2S13807   1.439   4.332   6.574  1.1870  1.9581 -0.1214
  129OSM    C3S13808   1.450   4.116   6.610 -0.8364 -0.0981  0.3504
  129OSM    H3S13809   1.529   4.042   6.586 -0.2797  0.2271  1.1329
  129OSM     O313810   1.334   4.076   6.535  0.2580 -0.0097 -0.4605
  129OSM    HO313811   1.333   4.131   6.456 -0.8004  0.1216 -0.3766
  129OSM    C4S13812   1.430   4.131   6.757  1.5709  0.1438 -0.7506
  129OSM    H4S13813   1.524   4.118   6.813  1.0523  0.5654  0.2466
  129OSM    C5S13814   1.318   4.170   6.830 -0.4242  0.3415  0.1869
  129OSM    H5S13815   1.220   4.193   6.784  0.2179 -0.8270 -1.8990
  129OSM    C6S13816   1.315   4.189   6.981  0.2191  0.6036  0.0280
  129OSM    H6S13817   1.420   4.172   7.014  0.5340  1.6524 -0.3956
  129OSM    H6T13818   1.255   4.109   7.030  0.6312 -0.4930 -1.2105
  129OSM    C7S13819   1.274   4.328   7.049  0.0858  0.4122 -0.0238
  129OSM    H7S13820   1.172   4.345   7.009 -0.0163  0.9969  0.4626
  129OSM    H7T13821   1.341   4.415   7.030  3.3012 -1.8404  0.2519
  129OSM    C8S13822   1.253   4.314   7.200 -0.2376 -0.1755 -0.5118
  129OSM    H8S13823   1.348   4.288   7.251 -0.6913 -1.5209 -0.3133
  129OSM    H8T13824   1.178   4.235   7.222 -0.1642 -1.0778 -3.0947
  129OSM    C9S13825   1.199   4.444   7.271 -0.2875  0.2977  0.1124
  129OSM    H9S13826   1.095   4.456   7.232  0.1283 -0.6342 -1.3275
  129OSM    H9T13827   1.259   4.529   7.232  1.2133 -2.0225 -3.0019
  129OSM   C10S13828   1.200   4.439   7.424 -0.1632  0.0117  0.1936
  129OSM   H10S13829   1.170   4.541   7.455 -1.1802 -0.3168  0.3280
  129OSM   H10T13830   1.293   4.413   7.479  0.9215  2.1960 -0.4726
  129OSM   C11S13831   1.083   4.360   7.486  0.2297  0.3928  0.1519
  129OSM   H11S13832   1.089   4.250   7.476  1.1251  0.5719 -1.6873
  129OSM   H11T13833   0.997   4.382   7.420 -0.0056 -0.7315  0.0658
  129OSM   C12S13834   1.043   4.394   7.626 -0.1115  0.2233  0.1597
  129OSM   H12S13835   0.932   4.397   7.618 -0.1715 -2.5498 -1.0326
  129OSM   H12T13836   1.093   4.490   7.650 -2.0886  1.7329 -1.4215
  129OSM   C13S13837   1.077   4.292   7.728  0.1459  0.1856  0.5356
  129OSM   H13S13838   1.185   4.306   7.750 -0.0907  4.7555 -0.2241
  129OSM   H13T13839   1.040   4.193   7.697  3.0562 -1.7690  2.7162
  129OSM   C14S13840   1.012   4.333   7.859 -0.1078 -0.2059  0.0868
  129OSM   H14S13841   0.907   4.355   7.831 -0.9879 -2.8409  0.9292
  129OSM   H14T13842   1.051   4.431   7.893  1.8050 -0.3884 -1.4388
  129OSM   C15S13843   1.005   4.211   7.958 -0.1805 -0.4511 -0.3735
  129OSM   H15S13844   1.110   4.197   7.991 -0.2150  1.4365  0.7145
  129OSM   H15T13845   0.973   4.122   7.900 -0.1104  1.3100 -3.3365
  129OSM   C16S13846   0.910   4.229   8.076  0.2615 -0.1124  0.0574
  129OSM   H16S13847   0.835   4.303   8.040 -0.5994 -1.2569 -0.5746
  129OSM   H16T13848   0.958   4.288   8.157  1.5717 -2.0427  0.7607
  129OSM   C17S13849   0.845   4.102   8.127  0.7919  0.2367 -0.0178
  129OSM   H17S13850   0.922   4.023   8.133  1.2330  0.7534  1.6074
  129OSM   H17T13851   0.783   4.061   8.045  0.4960  1.9871 -0.7147
  129OSM   C18S13852   0.780   4.117   8.270  0.0138 -0.1044  0.5128
  129OSM   H18S13853   0.850   4.146   8.351 -0.5243  2.9800  0.0283
  129OSM   H18T13854   0.719   4.030   8.304 -0.7583  0.7436  1.3920
  129OSM   H18U13855   0.710   4.204   8.273 -0.4379 -0.4637  0.4822
  129OSM    C1F13856   1.683   4.397   6.638  0.1687 -0.6560  0.0191
  129OSM     OF13857   1.635   4.487   6.573  0.2407  0.1547  0.1358
  129OSM    C2F13858   1.806   4.420   6.727 -0.3488  0.3520 -0.5502
  129OSM    H2F13859   1.810   4.527   6.757 -1.8650 -0.4477  3.0321
  129OSM    H2G13860   1.897   4.402   6.666 -0.6715 -0.0078 -0.9327
  129OSM    C3F13861   1.821   4.334   6.858 -0.4666 -0.6538  0.1822
  129OSM    H3F13862   1.919   4.350   6.908 -0.3117 -0.7814 -0.0772
  129OSM    H3G13863   1.811   4.228   6.827 -0.0497 -0.6360 -0.0170
  129OSM    C4F13864   1.713   4.352   6.967 -0.2684  0.0739  0.1872
  129OSM    H4F13865   1.610   4.324   6.939 -1.3098  2.0467  1.7202
  129OSM    H4G13866   1.712   4.462   6.988  3.5432  0.3596 -0.4530
  129OSM    C5F13867   1.755   4.266   7.087  0.2207  0.1609 -0.5056
  129OSM    H5F13868   1.857   4.293   7.119  0.7634 -0.5951 -1.5366
  129OSM    H5G13869   1.762   4.161   7.050  2.2184 -0.5043  1.5167
  129OSM    C6F13870   1.655   4.264   7.204  0.5848 -0.6352  0.5290
  129OSM    H6F13871   1.556   4.245   7.158  1.3430 -0.0731 -1.4341
  129OSM    H6G13872   1.657   4.354   7.268 -2.0917 -0.1283  0.0111
  129OSM    C7F13873   1.679   4.145   7.307 -0.0080  0.2544 -0.3342
  129OSM    H7F13874   1.783   4.112   7.287  0.7659  1.0827  1.9586
  129OSM    H7G13875   1.613   4.056   7.300  0.8842 -0.3197 -2.0189
  129OSM    C8F13876   1.686   4.190   7.460 -0.2681 -0.3506  0.3073
  129OSM    H8F13877   1.764   4.269   7.457  0.0196 -0.6502 -0.2737
  129OSM    H8G13878   1.719   4.107   7.524 -0.5833  0.7339  1.9350
  129OSM    C9F13879   1.551   4.237   7.499  0.4005 -0.1476  0.6406
  129OSM    H9F13880   1.496   4.278   7.414  1.0726  0.8756  0.6813
  129OSM   C10F13881   1.495   4.235   7.630 -0.1836 -0.1121  0.3594
  129OSM   H10F13882   1.390   4.261   7.645 -0.2078  0.8353 -1.2719
  129OSM   C11F13883   1.572   4.191   7.752 -0.2889 -0.2062  0.0256
  129OSM   H11F13884   1.678   4.225   7.742 -0.2043 -0.8721 -1.5441
  129OSM   H11G13885   1.571   4.080   7.760 -0.4447 -0.0996  2.1724
  129OSM   C12F13886   1.520   4.255   7.886  0.7562  0.4274  0.5059
  129OSM   H12F13887   1.411   4.235   7.890  0.8793 -1.1201 -1.7224
  129OSM   H12G13888   1.530   4.366   7.892 -2.0964  0.8387 -0.7547
  129OSM   C13F13889   1.596   4.205   8.010  0.0066  0.1019 -0.5196
  129OSM   H13F13890   1.704   4.210   7.985 -0.2572  0.2050 -1.6743
  129OSM   H13G13891   1.572   4.100   8.037  1.1054  0.1053  0.5807
  129OSM   C14F13892   1.569   4.294   8.129 -0.3833 -0.2742 -0.4694
  129OSM   H14F13893   1.463   4.326   8.139  0.1142  0.6363  4.3922
  129OSM   H14G13894   1.634   4.382   8.109  0.5716 -1.0815 -1.0043
  129OSM   C15F13895   1.621   4.222   8.255 -0.1092  0.0916  0.0027
  129OSM   H15F13896   1.635   4.301   8.332  0.5508  0.4955 -0.5220
  129OSM   H15G13897   1.724   4.184   8.238 -0.7682 -2.1455  0.5412
  129OSM   C16F13898   1.510   4.132   8.325  0.2391 -0.3421  0.0466
  129OSM   H16F13899   1.504   4.042   8.260  4.4523 -0.4140 -0.5297
  129OSM   H16G13900   1.416   4.190   8.315  0.1420 -0.4668  0.2439
  129OSM   C17F13901   1.534   4.092   8.471 -0.2927 -0.0821  0.0956
  129OSM   H17F13902   1.441   4.041   8.502  0.0547 -0.3917  0.6524
  129OSM   H17G13903   1.559   4.183   8.530  0.1155  0.6751 -1.2196
  129OSM   C18F13904   1.647   3.986   8.484  0.1378 -0.2209 -0.2637
  129OSM   H18F13905   1.663   3.957   8.590  0.1229 -1.2834 -0.5399
  129OSM   H18G13906   1.743   4.022   8.442  0.4496 -0.2765  0.3963
  129OSM   H18H13907   1.610   3.893   8.436  1.0343  0.2998 -2.0738
  130OSM      N13908   1.788   6.629   6.325  0.5485 -0.4714 -0.8962
  130OSM    C1513909   1.744   6.500   6.271  0.5046  0.0318 -0.2898
  130OSM   H15A13910   1.717   6.508   6.167 -1.1150  0.9499  0.1704
  130OSM   H15B13911   1.650   6.466   6.312  1.5983 -1.6519  1.0234
  130OSM   H15C13912   1.805   6.411   6.287 -0.3189 -0.9166 -2.1275
  130OSM    C1413913   1.764   6.639   6.476  0.2543  0.0139  0.1017
  130OSM   H14A13914   1.665   6.600   6.494 -0.1239  1.2107  0.7651
  130OSM   H14B13915   1.775   6.737   6.520  0.9246  0.1909 -0.4544
  130OSM   H14C13916   1.819   6.568   6.536 -1.3818 -0.4773  1.0885
  130OSM    C1313917   1.933   6.644   6.305 -0.0155  0.0485  0.8603
  130OSM   H13A13918   1.971   6.730   6.358  0.4567  0.1414  0.3687
  130OSM   H13B13919   1.970   6.645   6.204  1.7620 -1.3793  1.4542
  130OSM   H13C13920   1.992   6.565   6.349  2.4795  0.7662 -0.9526
  130OSM    C1213921   1.708   6.739   6.270  0.3085 -0.7615 -0.1752
  130OSM   H12A13922   1.750   6.832   6.306  0.2241 -1.6335  2.3858
  130OSM   H12B13923   1.606   6.736   6.306  0.0504  0.5053 -0.7559
  130OSM    C1113924   1.696   6.755   6.116 -0.0244  0.2802 -0.1705
  130OSM   H11A13925   1.790   6.746   6.057  0.2674  0.5889  0.2401
  130OSM   H11B13926   1.668   6.861   6.100 -0.6124  0.3853  1.4029
  130OSM      P13927   1.456   6.677   6.082 -0.0977  0.7277  0.1180
  130OSM    O1313928   1.405   6.809   6.028 -0.5562  0.4035  0.0366
  130OSM    O1413929   1.395   6.553   6.024 -0.2531 -0.1583 -0.4855
  130OSM    O1113930   1.449   6.678   6.238 -0.2537  0.7530  0.2542
  130OSM    O1213931   1.610   6.659   6.056  0.5319 -0.3181 -0.0781
  130OSM    C1S13932   1.329   6.625   6.304  0.3940  0.1723  0.2880
  130OSM    H1S13933   1.341   6.515   6.313  1.7971  0.3655  1.0371
  130OSM    H1T13934   1.233   6.646   6.252  0.7919  2.3055  0.3230
  130OSM     NF13935   1.188   6.599   6.520 -0.5844 -0.2361 -0.4133
  130OSM    HNF13936   1.102   6.648   6.532 -0.0894  0.2516  1.4484
  130OSM    C2S13937   1.302   6.678   6.454 -0.2852  0.6848 -0.2654
  130OSM    H2S13938   1.389   6.647   6.516  0.3417 -1.8242 -2.2347
  130OSM    C3S13939   1.287   6.834   6.457 -0.2908  0.1100 -0.7624
  130OSM    H3S13940   1.183   6.860   6.425 -1.0059 -0.2438  1.1573
  130OSM     O313941   1.369   6.906   6.364  0.5032 -0.4511 -0.3915
  130OSM    HO313942   1.413   6.839   6.311  2.9457  0.3260  0.5305
  130OSM    C4S13943   1.306   6.898   6.596 -0.3685 -0.2382  0.1705
  130OSM    H4S13944   1.228   6.891   6.673  0.8341  1.1722  1.5774
  130OSM    C5S13945   1.418   6.960   6.638  0.2442 -0.9186  0.1137
  130OSM    H5S13946   1.511   6.963   6.578 -1.1150  0.2287 -2.0539
  130OSM    C6S13947   1.441   7.016   6.779 -0.0140 -0.3796 -0.1452
  130OSM    H6S13948   1.340   7.053   6.808 -0.7697 -0.9683 -1.9054
  130OSM    H6T13949   1.503   7.107   6.765 -0.9415 -0.1367 -3.2550
  130OSM    C7S13950   1.499   6.914   6.880  0.1290  0.6627 -0.2999
  130OSM    H7S13951   1.599   6.870   6.856  0.4953  2.0009 -1.3921
  130OSM    H7T13952   1.415   6.842   6.888 -2.3861  3.2414 -1.6084
  130OSM    C8S13953   1.507   6.998   7.012 -0.2460 -0.2253 -0.3108
  130OSM    H8S13954   1.415   7.056   7.035  0.5670  0.0959  2.4621
  130OSM    H8T13955   1.581   7.081   7.005 -0.2249 -0.0349  1.6176
  130OSM    C9S13956   1.521   6.921   7.145 -0.2063 -0.4476 -0.0964
  130OSM    H9S13957   1.612   6.859   7.128  1.7844  2.2338  0.1634
  130OSM    H9T13958   1.433   6.858   7.168 -0.1338 -0.3601  0.4252
  130OSM   C10S13959   1.530   7.017   7.262 -0.0025 -0.0892 -0.1780
  130OSM   H10S13960   1.448   7.091   7.268  2.6025  2.9110  2.4718
  130OSM   H10T13961   1.626   7.073   7.256 -0.3257  0.4871  0.0154
  130OSM   C11S13962   1.546   6.941   7.401  0.4797 -0.3567  0.2287
  130OSM   H11S13963   1.632   6.871   7.398 -0.3777 -1.4104 -0.4769
  130OSM   H11T13964   1.452   6.884   7.411 -0.1652  0.8496  1.3131
  130OSM   C12S13965   1.568   7.037   7.517 -0.5377 -0.0896 -0.3258
  130OSM   H12S13966   1.473   7.095   7.522  0.0691  0.9726 -0.8065
  130OSM   H12T13967   1.656   7.104   7.509  0.9422 -0.5825  6.2876
  130OSM   C13S13968   1.578   6.956   7.647 -0.9072  0.2319 -0.4773
  130OSM   H13S13969   1.668   6.891   7.638 -0.3343  1.0708 -1.0261
  130OSM   H13T13970   1.499   6.880   7.664  1.4818 -2.2807  0.0340
  130OSM   C14S13971   1.579   7.059   7.762 -0.5748  0.3133  0.1140
  130OSM   H14S13972   1.481   7.109   7.776 -1.4782 -1.1553 -0.6771
  130OSM   H14T13973   1.658   7.134   7.742  0.9397 -0.1031  3.7997
  130OSM   C15S13974   1.619   6.991   7.896 -0.7442  0.1444  0.3069
  130OSM   H15S13975   1.719   6.944   7.887 -0.7375 -0.1857  1.8582
  130OSM   H15T13976   1.539   6.915   7.911  0.1423 -0.4747  2.2205
  130OSM   C16S13977   1.610   7.077   8.024  0.2963 -0.0527 -0.0749
  130OSM   H16S13978   1.501   7.087   8.041  0.0007 -1.1377 -1.2022
  130OSM   H16T13979   1.651   7.179   8.004 -1.0557  1.0610  2.4052
  130OSM   C17S13980   1.670   7.012   8.159  0.1280  0.0437 -0.0395
  130OSM   H17S13981   1.681   7.092   8.234 -1.7289  1.3398 -1.0628
  130OSM   H17T13982   1.770   6.970   8.134  0.9198  1.5138  0.6041
  130OSM   C18S13983   1.575   6.903   8.211 -0.5866 -0.0069  1.1777
  130OSM   H18S13984   1.526   6.848   8.127  0.6674  2.1069 -1.0564
  130OSM   H18T13985   1.500   6.946   8.281  0.5198 -0.0470  2.4284
  130OSM   H18U13986   1.638   6.836   8.274 -0.3732 -2.5161 -1.4587
  130OSM    C1F13987   1.186   6.470   6.549  0.5706 -0.6236 -1.0421
  130OSM     OF13988   1.276   6.396   6.525 -0.4920 -0.3770  0.2223
  130OSM    C2F13989   1.059   6.440   6.638 -0.2228 -0.6158  0.2805
  130OSM    H2F13990   0.970   6.413   6.578 -1.7875  0.0850  2.2118
  130OSM    H2G13991   1.042   6.525   6.707  1.6127  0.9312 -1.0586
  130OSM    C3F13992   1.084   6.311   6.719 -0.8351  0.1284  0.3792
  130OSM    H3F13993   1.188   6.294   6.754 -1.3682 -4.0072  0.4357
  130OSM    H3G13994   1.081   6.238   6.635  0.8378  1.3100 -0.7611
  130OSM    C4F13995   0.975   6.255   6.816 -0.2652 -0.7663  0.0794
  130OSM    H4F13996   0.999   6.146   6.824  1.5531 -0.5380 -1.5398
  130OSM    H4G13997   0.873   6.247   6.773  0.0375  2.9156 -1.7028
  130OSM    C5F13998   0.970   6.329   6.951 -0.2510 -0.3413 -0.5245
  130OSM    H5F13999   0.971   6.439   6.937 -1.7205 -0.3291 -0.7724
  130OSM    H5G14000   1.063   6.306   7.007 -0.5138  0.3477  0.2104
  130OSM    C6F14001   0.862   6.278   7.053  0.0630  0.2723 -0.6005
  130OSM    H6F14002   0.880   6.169   7.057  3.4592  0.7600 -0.0945
  130OSM    H6G14003   0.757   6.290   7.019 -1.7099  2.0453  4.5813
  130OSM    C7F14004   0.869   6.336   7.190  0.5796 -0.5538  0.3026
  130OSM    H7F14005   0.799   6.272   7.249  1.1228 -1.1063  0.3609
  130OSM    H7G14006   0.837   6.442   7.186  3.2453  0.3189 -0.1378
  130OSM    C8F14007   1.003   6.340   7.264 -0.1468 -0.2145 -0.2333
  130OSM    H8F14008   0.983   6.393   7.359  2.5631 -0.3676  0.5222
  130OSM    H8G14009   1.080   6.404   7.215 -0.5068  0.9286  0.6567
  130OSM    C9F14010   1.077   6.206   7.281  0.5569 -0.2228  0.0266
  130OSM    H9F14011   1.150   6.184   7.201  0.4507  1.8340 -0.6796
  130OSM   C10F14012   1.059   6.123   7.376  0.6808  0.4044 -0.7853
  130OSM   H10F14013   1.112   6.027   7.372  1.0327  0.5672 -0.1457
  130OSM   C11F14014   0.957   6.129   7.490  0.0772  0.3452  0.2952
  130OSM   H11F14015   0.862   6.073   7.476 -0.7874  1.5896  0.9917
  130OSM   H11G14016   0.913   6.229   7.510  0.4272  0.8956 -1.4866
  130OSM   C12F14017   1.029   6.067   7.618  0.9011  0.0890 -0.2187
  130OSM   H12F14018   1.128   6.113   7.638  0.8857  0.2206 -0.4461
  130OSM   H12G14019   1.045   5.960   7.594 -2.5362 -0.9446  1.3799
  130OSM   C13F14020   0.936   6.057   7.745  0.0389 -0.5214  0.0221
  130OSM   H13F14021   0.865   5.972   7.736 -0.0136 -0.3409 -1.5375
  130OSM   H13G14022   0.892   6.153   7.779  0.0274 -1.0503  1.5629
  130OSM   C14F14023   1.022   6.006   7.865 -0.2148 -0.7810 -0.4449
  130OSM   H14F14024   1.118   6.061   7.868 -0.8724  0.4224  3.0618
  130OSM   H14G14025   1.032   5.896   7.854 -0.0143 -0.7716 -0.3470
  130OSM   C15F14026   0.953   6.044   7.993  0.3599 -0.0579  0.3419
  130OSM   H15F14027   0.846   6.017   7.984  0.0475  1.1672  0.1973
  130OSM   H15G14028   0.965   6.154   7.996  0.0141  0.1188 -2.3640
  130OSM   C16F14029   1.021   5.991   8.124  0.2995 -0.4896 -0.4885
  130OSM   H16F14030   1.119   6.043   8.122  0.5287 -0.8146 -3.9028
  130OSM   H16G14031   1.044   5.883   8.115 -2.0663 -1.1312  0.3539
  130OSM   C17F14032   0.926   6.003   8.256 -0.1097 -0.1859  0.0950
  130OSM   H17F14033   0.844   5.929   8.240 -0.5280 -0.2529  2.2634
  130OSM   H17G14034   0.890   6.108   8.256 -0.4847 -0.2819  1.7911
  130OSM   C18F14035   0.999   5.972   8.382 -0.0108 -0.1771  0.4423
  130OSM   H18F14036   0.933   5.948   8.468 -0.8188 -2.1595 -0.6559
  130OSM   H18G14037   1.071   6.054   8.400  2.4045 -1.4331 -2.5673
  130OSM   H18H14038   1.069   5.888   8.363  0.8644  0.6937 -0.2755
  131OSM      N14039   2.695   5.535   5.973  0.4955 -0.0790 -0.8087
  131OSM    C1514040   2.586   5.535   5.861  0.1586  0.0819 -0.0041
  131OSM   H15A14041   2.639   5.545   5.767 -0.6207 -1.3542 -0.6268
  131OSM   H15B14042   2.518   5.617   5.874  0.8231  0.8002 -0.9236
  131OSM   H15C14043   2.526   5.445   5.862  0.0517  0.1554  0.2405
  131OSM    C1414044   2.782   5.418   5.948  0.2363 -0.2982  0.3762
  131OSM   H14A14045   2.733   5.322   5.946  2.2619 -1.3999 -2.0667
  131OSM   H14B14046   2.864   5.415   6.019  0.6762 -1.3505 -0.1517
  131OSM   H14C14047   2.829   5.419   5.851 -0.3887 -0.9119  0.0546
  131OSM    C1314048   2.761   5.666   5.961 -0.5650  0.8690 -0.5900
  131OSM   H13A14049   2.771   5.690   5.856  0.3253 -5.4474 -2.3624
  131OSM   H13B14050   2.851   5.677   6.020 -0.0819  1.0607 -1.3362
  131OSM   H13C14051   2.698   5.745   5.999 -0.4946  0.2016  0.9766
  131OSM    C1214052   2.631   5.523   6.106  0.2858  0.0543  0.1825
  131OSM   H12A14053   2.709   5.546   6.178  0.3526 -1.1724  0.5196
  131OSM   H12B14054   2.609   5.422   6.134 -0.7036  0.6406  1.6606
  131OSM    C1114055   2.505   5.603   6.146 -0.0935  0.1825 -0.1159
  131OSM   H11A14056   2.477   5.569   6.248  1.1998 -0.6993 -0.0293
  131OSM   H11B14057   2.424   5.584   6.073 -0.4485 -0.5441  0.4469
  131OSM      P14058   2.440   5.854   6.154  0.9021 -0.1114 -0.6126
  131OSM    O1314059   2.506   5.989   6.179  0.2134  0.1448  0.2767
  131OSM    O1414060   2.359   5.841   6.030  0.6976 -0.0663 -0.0898
  131OSM    O1114061   2.350   5.823   6.277  0.3114 -0.6285  0.0334
  131OSM    O1214062   2.549   5.741   6.157 -0.2819  0.3389 -0.4736
  131OSM    C1S14063   2.398   5.815   6.413 -0.0252  0.4749  1.0309
  131OSM    H1S14064   2.448   5.910   6.442 -0.2655  0.7647  0.5157
  131OSM    H1T14065   2.472   5.734   6.429  0.5421  1.3641  3.1362
  131OSM     NF14066   2.316   5.816   6.642 -0.1551 -0.7288 -0.2223
  131OSM    HNF14067   2.327   5.748   6.714 -1.6128  0.6917  1.4210
  131OSM    C2S14068   2.287   5.786   6.506  0.1541 -0.6124 -0.2936
  131OSM    H2S14069   2.204   5.852   6.472 -0.9119 -0.6024  2.1358
  131OSM    C3S14070   2.229   5.644   6.493  0.0729 -0.8418 -0.6785
  131OSM    H3S14071   2.308   5.571   6.519  2.4828  0.8062 -2.9176
  131OSM     O314072   2.175   5.608   6.371  0.3945 -0.3527  0.3770
  131OSM    HO314073   2.200   5.679   6.311  0.9870 -1.0915 -0.2673
  131OSM    C4S14074   2.111   5.634   6.592  0.2425  0.0897  0.5058
  131OSM    H4S14075   2.133   5.571   6.680  0.5700 -1.3084 -0.5449
  131OSM    C5S14076   1.990   5.687   6.587 -0.5036 -0.2292 -0.3030
  131OSM    H5S14077   1.971   5.755   6.503  0.6748  0.3888 -0.0924
  131OSM    C6S14078   1.885   5.663   6.694 -0.4468 -1.2340  0.3422
  131OSM    H6S14079   1.818   5.579   6.663 -1.2281 -0.3236 -0.5104
  131OSM    H6T14080   1.825   5.755   6.706  0.9784 -0.1634 -0.4219
  131OSM    C7S14081   1.941   5.638   6.840 -0.1913 -0.2637  0.3601
  131OSM    H7S14082   2.018   5.716   6.860 -0.8214  0.8484 -1.3449
  131OSM    H7T14083   1.995   5.542   6.850  0.3514 -0.2639 -2.1260
  131OSM    C8S14084   1.832   5.657   6.945 -0.3286  0.4822 -0.3107
  131OSM    H8S14085   1.746   5.586   6.937  0.4711 -0.3794 -1.5992
  131OSM    H8T14086   1.799   5.763   6.938  0.3748  0.7106 -0.2186
  131OSM    C9S14087   1.891   5.631   7.083 -0.3122 -0.5412 -0.0234
  131OSM    H9S14088   1.968   5.709   7.096 -0.1486 -0.8707  1.1325
  131OSM    H9T14089   1.946   5.535   7.075  0.9771  0.2861 -1.6087
  131OSM   C10S14090   1.777   5.640   7.193 -0.1558  0.1575 -0.7217
  131OSM   H10S14091   1.692   5.572   7.169 -0.1903 -0.8993  1.9550
  131OSM   H10T14092   1.736   5.742   7.203  1.1927  0.7106 -0.6870
  131OSM   C11S14093   1.838   5.603   7.331 -0.3990  0.4644 -0.5778
  131OSM   H11S14094   1.925   5.672   7.336 -1.4537  1.8017  0.4053
  131OSM   H11T14095   1.880   5.501   7.338 -0.6825  0.3541 -0.4538
  131OSM   C12S14096   1.749   5.623   7.449 -0.0600  0.3157 -0.2635
  131OSM   H12S14097   1.660   5.562   7.424  0.0871  0.7846 -2.0702
  131OSM   H12T14098   1.700   5.723   7.455 -2.0275 -0.6041 -0.1622
  131OSM   C13S14099   1.802   5.569   7.579  0.9515 -0.6079  0.3755
  131OSM   H13S14100   1.907   5.600   7.598  1.1796 -0.4044 -1.1390
  131OSM   H13T14101   1.800   5.459   7.565 -0.6716 -0.3903 -1.4405
  131OSM   C14S14102   1.710   5.612   7.693  0.0095 -0.7101  0.2648
  131OSM   H14S14103   1.602   5.598   7.671 -0.4229  1.9739  0.4034
  131OSM   H14T14104   1.718   5.723   7.687 -1.0422 -0.6737 -1.0080
  131OSM   C15S14105   1.753   5.544   7.823 -0.0827 -0.8993 -0.0749
  131OSM   H15S14106   1.864   5.535   7.829  0.4163  3.1428 -0.2389
  131OSM   H15T14107   1.707   5.444   7.810 -0.5180 -0.7456  0.2748
  131OSM   C16S14108   1.701   5.617   7.944  0.1225  0.4051 -0.1678
  131OSM   H16S14109   1.590   5.610   7.945  0.2283 -2.8327  1.2719
  131OSM   H16T14110   1.731   5.724   7.935 -0.0499  0.3442 -1.8301
  131OSM   C17S14111   1.750   5.539   8.073  0.4160 -0.0394  0.4941
  131OSM   H17S14112   1.740   5.430   8.052 -2.4973  0.5326 -1.6948
  131OSM   H17T14113   1.679   5.575   8.150 -1.0403  1.2770 -1.3669
  131OSM   C18S14114   1.891   5.566   8.121  0.3890  0.0572 -0.1721
  131OSM   H18S14115   1.904   5.528   8.224 -0.3977  0.6274  0.1480
  131OSM   H18T14116   1.904   5.674   8.141  0.9786 -0.4227  2.2972
  131OSM   H18U14117   1.977   5.544   8.054  1.7968 -1.4925  2.0138
  131OSM    C1F14118   2.338   5.945   6.679  0.3836 -0.2532 -0.0787
  131OSM     OF14119   2.320   6.032   6.594  0.5219  0.2607  0.6003
  131OSM    C2F14120   2.380   5.984   6.820 -1.0845 -0.2810 -0.4222
  131OSM    H2F14121   2.467   6.050   6.800 -0.3873 -1.0203  0.1397
  131OSM    H2G14122   2.405   5.892   6.877  3.0071  2.0233  1.9438
  131OSM    C3F14123   2.268   6.067   6.882  0.4075 -0.5850  0.2471
  131OSM    H3F14124   2.181   5.998   6.887  0.4241 -0.5840  0.6571
  131OSM    H3G14125   2.236   6.153   6.820 -0.7161 -2.3945 -1.8078
  131OSM    C4F14126   2.310   6.140   7.016 -0.2125  0.1540  0.1739
  131OSM    H4F14127   2.219   6.184   7.061 -1.2738 -0.5361 -1.2236
  131OSM    H4G14128   2.384   6.218   6.985 -0.8128  0.2030 -1.2447
  131OSM    C5F14129   2.371   6.035   7.112 -0.0470 -0.1195  0.3993
  131OSM    H5F14130   2.466   6.006   7.061  0.0003  0.1957  0.3048
  131OSM    H5G14131   2.295   5.956   7.128  0.6625 -0.9134 -0.0544
  131OSM    C6F14132   2.403   6.086   7.258  0.7456 -0.1089  0.5979
  131OSM    H6F14133   2.307   6.082   7.314  0.0892  1.0607 -0.3906
  131OSM    H6G14134   2.442   6.190   7.265  1.6475 -0.3429 -0.5742
  131OSM    C7F14135   2.480   5.976   7.336 -0.4336 -0.9355  0.1619
  131OSM    H7F14136   2.589   5.974   7.313  0.1290 -2.4286  2.5658
  131OSM    H7G14137   2.444   5.877   7.302  2.1042 -2.1091  0.6486
  131OSM    C8F14138   2.477   5.988   7.495 -0.9348  0.5115 -0.0436
  131OSM    H8F14139   2.555   5.918   7.533 -1.3933 -1.0713 -1.8710
  131OSM    H8G14140   2.378   5.942   7.517 -1.4054  0.7299 -1.5781
  131OSM    C9F14141   2.502   6.131   7.544 -0.8174 -0.1215  0.6987
  131OSM    H9F14142   2.590   6.173   7.494 -0.6574 -1.1000  0.1163
  131OSM   C10F14143   2.422   6.212   7.615  0.1911 -0.5797  0.3603
  131OSM   H10F14144   2.458   6.314   7.634  1.6742 -0.9963 -0.0660
  131OSM   C11F14145   2.288   6.175   7.679  0.0236  0.7551  0.4379
  131OSM   H11F14146   2.284   6.065   7.692 -1.3319  0.5352 -1.3725
  131OSM   H11G14147   2.219   6.197   7.594  0.9740 -2.3301 -1.2734
  131OSM   C12F14148   2.248   6.237   7.814  0.3776  0.4796 -0.4057
  131OSM   H12F14149   2.143   6.223   7.846  0.2254  1.1487 -0.5997
  131OSM   H12G14150   2.260   6.346   7.793 -0.8371  0.3931 -1.6630
  131OSM   C13F14151   2.355   6.210   7.921 -0.7524  0.7491  0.4327
  131OSM   H13F14152   2.455   6.239   7.884  0.0537 -1.4606  0.7037
  131OSM   H13G14153   2.352   6.101   7.943 -4.4159  0.8791  1.1894
  131OSM   C14F14154   2.341   6.295   8.051 -0.0062 -0.5924  0.3627
  131OSM   H14F14155   2.248   6.268   8.105 -1.1636  1.3260 -0.5539
  131OSM   H14G14156   2.325   6.396   8.008  0.1537 -0.3179  0.9430
  131OSM   C15F14157   2.460   6.302   8.136  0.6531  0.1335  0.0581
  131OSM   H15F14158   2.542   6.368   8.101  0.5455  1.3080  1.8650
  131OSM   H15G14159   2.499   6.201   8.159  0.3324  0.0461  0.2276
  131OSM   C16F14160   2.411   6.355   8.274 -0.4553 -0.1380  0.4810
  131OSM   H16F14161   2.308   6.334   8.308 -0.7971  0.8445  0.0777
  131OSM   H16G14162   2.413   6.466   8.261  1.4146 -0.3699 -1.9672
  131OSM   C17F14163   2.508   6.332   8.386 -0.6292 -0.1316 -0.3584
  131OSM   H17F14164   2.604   6.385   8.372 -0.9653  0.5802 -0.0006
  131OSM   H17G14165   2.540   6.225   8.384  0.1518  0.0995 -0.4339
  131OSM   C18F14166   2.443   6.367   8.518  0.2258  0.8742  0.5875
  131OSM   H18F14167   2.513   6.391   8.601  0.3126 -0.0696  0.7981
  131OSM   H18G14168   2.390   6.277   8.553  1.6194 -1.2785 -2.3578
  131OSM   H18H14169   2.384   6.461   8.512  2.1496  2.1100 -0.3463
  132OSM      N14170   4.825   1.584   5.958 -0.3007  0.3307  0.0319
  132OSM    C1514171   4.972   1.579   5.987  0.4794 -0.3244 -0.1824
  132OSM   H15A14172   5.021   1.621   5.900 -0.0605  0.9069  0.0865
  132OSM   H15B14173   5.018   1.482   5.993  1.4249  0.2058  1.7452
  132OSM   H15C14174   4.997   1.645   6.068  0.1071 -1.4448  0.8729
  132OSM    C1414175   4.804   1.482   5.848  0.5372  0.2976  0.1765
  132OSM   H14A14176   4.813   1.377   5.875  2.6867  0.0838 -1.1521
  132OSM   H14B14177   4.872   1.496   5.766 -0.3865 -2.1069 -1.1236
  132OSM   H14C14178   4.702   1.484   5.811  0.8003  0.1536 -0.5595
  132OSM    C1314179   4.743   1.547   6.079 -0.8494 -0.2483 -0.4755
  132OSM   H13A14180   4.641   1.531   6.047 -1.0342  1.2079 -0.6705
  132OSM   H13B14181   4.762   1.623   6.153 -1.3121 -0.7318  0.1566
  132OSM   H13C14182   4.783   1.456   6.123 -0.6392 -0.4253 -1.0218
  132OSM    C1214183   4.798   1.720   5.904  0.0943  0.2213  0.0451
  132OSM   H12A14184   4.696   1.719   5.869  0.8905 -0.5510 -2.4204
  132OSM   H12B14185   4.868   1.733   5.823 -0.8048 -2.2506 -1.2379
  132OSM    C1114186   4.813   1.845   5.998 -0.0175  0.1629 -0.0631
  132OSM   H11A14187   4.816   1.931   5.927  0.7459 -0.2494 -0.5405
  132OSM   H11B14188   4.912   1.854   6.048  0.6530 -1.4839 -1.0026
  132OSM      P14189   4.564   1.887   6.069 -0.5877 -0.4535  0.0565
  132OSM    O1314190   4.562   2.016   5.994 -0.0749  0.2165 -0.6275
  132OSM    O1414191   4.495   1.771   6.007  0.1860 -0.0970  0.3878
  132OSM    O1114192   4.503   1.920   6.210  0.2534  0.0867  0.6771
  132OSM    O1214193   4.711   1.852   6.103 -0.5320 -0.0438  0.1029
  132OSM    C1S14194   4.513   1.809   6.310  0.6272 -0.8907  0.1969
  132OSM    H1S14195   4.619   1.784   6.332  1.3254  0.7449 -1.1129
  132OSM    H1T14196   4.459   1.716   6.281 -2.1468  1.3530 -2.5980
  132OSM     NF14197   4.475   1.755   6.556  0.4138  0.0006  0.3255
  132OSM    HNF14198   4.398   1.704   6.592  0.8970 -2.0070 -1.2622
  132OSM    C2S14199   4.446   1.848   6.449  0.6718 -0.5137  0.0483
  132OSM    H2S14200   4.499   1.943   6.473  0.8689 -0.4510 -0.6100
  132OSM    C3S14201   4.286   1.869   6.433 -0.4375 -0.6370 -0.1089
  132OSM    H3S14202   4.238   1.769   6.424 -0.8784 -0.4709  0.3414
  132OSM     O314203   4.263   1.955   6.328  0.3510 -0.2841 -0.1114
  132OSM    HO314204   4.345   1.957   6.278  0.5749 -0.7201  0.2297
  132OSM    C4S14205   4.232   1.931   6.563 -0.0879  0.5500  0.8263
  132OSM    H4S14206   4.281   2.027   6.582  1.1572  0.3524 -1.1799
  132OSM    C5S14207   4.149   1.876   6.655  0.3037 -0.2206  0.4880
  132OSM    H5S14208   4.107   1.776   6.642  0.0852  0.0520 -1.1638
  132OSM    C6S14209   4.109   1.946   6.778 -0.3075 -0.9410 -0.1543
  132OSM    H6S14210   4.000   1.961   6.790 -0.6513 -3.8671  1.2692
  132OSM    H6T14211   4.151   2.048   6.786 -0.2282 -0.9681 -0.2122
  132OSM    C7S14212   4.140   1.871   6.911  0.7451  0.5445  0.9253
  132OSM    H7S14213   4.249   1.853   6.904  0.4967 -0.6183 -0.4857
  132OSM    H7T14214   4.089   1.773   6.896  0.0056  1.4226 -3.5770
  132OSM    C8S14215   4.101   1.938   7.036  0.2405  0.7957 -0.4065
  132OSM    H8S14216   3.993   1.937   7.062 -0.1099  0.4506 -1.7894
  132OSM    H8T14217   4.124   2.047   7.030  0.4890  0.7111 -1.0884
  132OSM    C9S14218   4.175   1.890   7.163  0.5675 -0.5116  0.1432
  132OSM    H9S14219   4.283   1.893   7.137  0.2095  0.4680 -1.3749
  132OSM    H9T14220   4.144   1.786   7.185 -0.8474 -0.3438 -0.8998
  132OSM   C10S14221   4.148   1.981   7.283  0.4004 -0.0524  0.0073
  132OSM   H10S14222   4.040   2.007   7.280  0.7174  1.1935 -1.9433
  132OSM   H10T14223   4.210   2.069   7.256 -0.8231  1.2112  1.1567
  132OSM   C11S14224   4.191   1.923   7.418  0.6597  0.2095  0.7559
  132OSM   H11S14225   4.299   1.896   7.420  0.0329 -2.6243  0.9646
  132OSM   H11T14226   4.132   1.832   7.441 -0.1652  0.8772  1.3401
  132OSM   C12S14227   4.170   2.030   7.524 -0.1506  0.0605 -0.1440
  132OSM   H12S14228   4.063   2.060   7.526  0.5549  2.9666 -0.9699
  132OSM   H12T14229   4.217   2.126   7.496  3.7498 -1.4627  0.5502
  132OSM   C13S14230   4.210   1.990   7.665  0.5565  0.1686  0.2124
  132OSM   H13S14231   4.140   1.909   7.695  1.7213 -0.6056  0.9435
  132OSM   H13T14232   4.181   2.070   7.736 -0.9597 -0.3914  0.2485
  132OSM   C14S14233   4.353   1.957   7.683 -0.3835  0.7013 -0.0973
  132OSM   H14S14234   4.404   2.052   7.656 -0.7492  1.4267  1.5845
  132OSM   H14T14235   4.382   1.872   7.619  0.3354  0.4436  0.5610
  132OSM   C15S14236   4.384   1.914   7.832  0.0919 -0.2841 -0.3050
  132OSM   H15S14237   4.375   1.804   7.840 -0.5686 -0.2698 -0.8052
  132OSM   H15T14238   4.315   1.971   7.897 -1.0785 -0.0990 -1.6572
  132OSM   C16S14239   4.529   1.955   7.878  0.0108  0.2428 -0.8504
  132OSM   H16S14240   4.538   2.066   7.873  0.6962  0.2965  0.9411
  132OSM   H16T14241   4.602   1.907   7.809  0.1931 -2.4179  1.0673
  132OSM   C17S14242   4.573   1.920   8.018 -0.8325  0.4983 -0.3343
  132OSM   H17S14243   4.595   1.812   8.032 -1.1163  0.4825  0.0356
  132OSM   H17T14244   4.484   1.939   8.082 -2.0318 -1.2089 -1.4238
  132OSM   C18S14245   4.683   2.015   8.064  0.3599  0.6187  0.0638
  132OSM   H18S14246   4.720   1.995   8.167  0.0541 -0.0655  0.0418
  132OSM   H18T14247   4.641   2.118   8.069 -0.4220  0.3579 -0.7214
  132OSM   H18U14248   4.769   2.030   7.996 -1.6372  0.4723 -2.7024
  132OSM    C1F14249   4.598   1.742   6.600 -0.6689 -0.2513 -0.0956
  132OSM     OF14250   4.689   1.804   6.553 -0.5279 -0.1495 -0.0061
  132OSM    C2F14251   4.617   1.661   6.732 -0.3664 -0.0772 -0.7791
  132OSM    H2F14252   4.723   1.668   6.764 -1.5869 -1.1528  4.4470
  132OSM    H2G14253   4.594   1.555   6.706 -1.1050 -0.0587 -0.2553
  132OSM    C3F14254   4.527   1.700   6.847 -0.2270 -0.5917  0.3115
  132OSM    H3F14255   4.420   1.693   6.817  0.2546 -0.4949 -1.5738
  132OSM    H3G14256   4.545   1.809   6.864  0.9113 -0.2981 -2.1609
  132OSM    C4F14257   4.558   1.621   6.974 -0.0091  0.4386  0.6278
  132OSM    H4F14258   4.668   1.635   6.977  0.3717 -0.8858 -2.7070
  132OSM    H4G14259   4.536   1.512   6.968  0.8812  0.1928  1.6057
  132OSM    C5F14260   4.496   1.681   7.105  0.2875  0.0866  0.1589
  132OSM    H5F14261   4.386   1.679   7.089  0.6906 -1.1589 -3.3947
  132OSM    H5G14262   4.528   1.785   7.123  1.2766 -0.2938  0.6752
  132OSM    C6F14263   4.546   1.596   7.220  0.7676 -0.1269 -0.5978
  132OSM    H6F14264   4.655   1.610   7.235  0.5892 -0.2262  0.8891
  132OSM    H6G14265   4.521   1.491   7.194 -0.4892 -0.0590  0.2567
  132OSM    C7F14266   4.481   1.630   7.358 -0.5097 -0.0086  0.5920
  132OSM    H7F14267   4.374   1.604   7.344 -1.2431  1.8393  2.3089
  132OSM    H7G14268   4.485   1.740   7.374 -2.0223 -0.0920  1.6701
  132OSM    C8F14269   4.536   1.547   7.478 -0.0312 -0.1813  0.1464
  132OSM    H8F14270   4.540   1.443   7.440  2.7307 -0.8047  1.8582
  132OSM    H8G14271   4.455   1.560   7.552 -0.9620  1.4070 -1.0812
  132OSM    C9F14272   4.674   1.580   7.533  0.0087 -0.5420 -0.5447
  132OSM    H9F14273   4.738   1.613   7.450 -2.1148  1.0090 -1.6932
  132OSM   C10F14274   4.715   1.585   7.656  0.3696 -0.4480 -0.7099
  132OSM   H10F14275   4.816   1.614   7.687  0.7394 -2.3313 -0.0088
  132OSM   C11F14276   4.622   1.560   7.778  0.9441 -0.1649 -0.1284
  132OSM   H11F14277   4.548   1.486   7.742  1.0268 -0.5202  0.4203
  132OSM   H11G14278   4.576   1.660   7.797 -1.0267 -0.9895 -0.3026
  132OSM   C12F14279   4.706   1.496   7.894 -0.1302 -0.3879 -0.3333
  132OSM   H12F14280   4.777   1.578   7.919  0.6105 -1.3966  0.9741
  132OSM   H12G14281   4.769   1.414   7.852  0.2660  0.0734 -0.6570
  132OSM   C13F14282   4.626   1.450   8.018  0.1230  0.2150  0.6109
  132OSM   H13F14283   4.542   1.403   7.964  1.2742 -1.1274 -0.0767
  132OSM   H13G14284   4.582   1.536   8.074 -0.2604  0.5678 -0.2213
  132OSM   C14F14285   4.696   1.353   8.111  0.5338  0.3083  0.3430
  132OSM   H14F14286   4.728   1.265   8.050 -0.6241 -0.5854  0.9716
  132OSM   H14G14287   4.615   1.306   8.170 -0.2127 -1.8783 -2.1896
  132OSM   C15F14288   4.818   1.404   8.187 -0.5141 -0.3421  0.3219
  132OSM   H15F14289   4.794   1.496   8.245  3.0550  1.9793 -1.4884
  132OSM   H15G14290   4.890   1.445   8.112 -1.2571  2.0022  0.7954
  132OSM   C16F14291   4.875   1.302   8.283 -0.2264 -0.0495 -0.5867
  132OSM   H16F14292   4.903   1.212   8.223 -5.9319 -2.6862  0.0497
  132OSM   H16G14293   4.789   1.273   8.346  0.8662 -0.0748  0.9687
  132OSM   C17F14294   4.985   1.351   8.375  0.0231 -0.5149 -0.3903
  132OSM   H17F14295   4.951   1.444   8.424 -1.2639  0.7062 -3.3793
  132OSM   H17G14296   5.067   1.392   8.312  0.4002 -1.4165 -0.5135
  132OSM   C18F14297   5.036   1.241   8.472  0.0453  0.6782  0.1333
  132OSM   H18F14298   5.067   1.149   8.418  0.9936  1.1962 -0.2238
  132OSM   H18G14299   4.957   1.223   8.548  0.4323  1.0309  0.6262
  132OSM   H18H14300   5.116   1.293   8.529  1.8110  0.0475 -1.6293
  133SAPE     N14301   4.032   1.592  10.846 -0.3773 -0.1511 -0.4810
  133SAPE   HN114302   4.083   1.531  10.913 -0.8202 -0.3690 -0.3364
  133SAPE   HN214303   4.097   1.617  10.768 -1.5022 -0.3209 -1.5009
  133SAPE   HN314304   3.998   1.673  10.901  1.2388  1.0161 -1.1098
  133SAPE   C1214305   3.932   1.498  10.784 -0.8489  0.2617 -0.0627
  133SAPE  H12A14306   3.849   1.558  10.743  0.1689  2.4285  0.8694
  133SAPE  H12B14307   3.878   1.445  10.865  0.0513 -1.0010 -0.2616
  133SAPE   C1114308   3.998   1.388  10.698 -0.4503  0.8591 -0.0558
  133SAPE  H11A14309   3.970   1.425  10.597 -2.0708 -0.7007 -0.2400
  133SAPE  H11B14310   3.959   1.284  10.700  0.7366  0.3972 -0.1940
  133SAPE     P14311   4.219   1.268  10.613 -0.2709 -0.2019 -0.1795
  133SAPE   O1314312   4.367   1.271  10.641  0.1115 -0.6252 -0.2629
  133SAPE   O1414313   4.163   1.130  10.618  0.0849  0.3056 -0.2075
  133SAPE   O1214314   4.139   1.372  10.701  0.2188  0.1330  0.8568
  133SAPE   O1114315   4.192   1.332  10.470 -0.5618  0.1969 -0.0830
  133SAPE    C114316   4.260   1.455  10.439 -0.1175  0.5334  0.5242
  133SAPE    HA14317   4.301   1.511  10.526  1.8706  0.8186 -0.5239
  133SAPE    HB14318   4.340   1.432  10.366 -0.0853 -0.1273  0.7673
  133SAPE    C214319   4.163   1.550  10.383 -0.6867 -0.1775 -0.9680
  133SAPE    HS14320   4.078   1.543  10.454 -0.6038 -2.1229 -1.0064
  133SAPE   O2114321   4.115   1.497  10.255 -0.5805  0.5919  0.1612
  133SAPE   C2114322   3.990   1.542  10.210 -0.5569 -0.1765  0.7701
  133SAPE   O2214323   3.922   1.623  10.269 -0.0453 -0.4452 -0.1125
  133SAPE   C2214324   3.963   1.466  10.083  0.6102 -0.0180 -0.1750
  133SAPE   H2R14325   4.044   1.396  10.051  1.3965  1.2799 -1.1624
  133SAPE   H2S14326   3.881   1.396  10.106  1.5246 -0.3802  2.1821
  133SAPE    C314327   4.220   1.697  10.368 -0.3759 -0.3048 -0.0502
  133SAPE    HX14328   4.231   1.742  10.469  0.4927 -1.8464  0.5755
  133SAPE    HY14329   4.144   1.755  10.311  1.6341 -0.1839 -2.8194
  133SAPE   O3114330   4.357   1.696  10.315  0.1846 -0.0085 -0.0213
  133SAPE   C3114331   4.372   1.752  10.198 -0.3751 -0.6865 -0.1325
  133SAPE   O3214332   4.289   1.810  10.131  0.1889 -0.2607  0.2344
  133SAPE   C3214333   4.515   1.727  10.151  0.0224  0.0965  0.5309
  133SAPE   H2X14334   4.522   1.619  10.127 -1.2020  0.0565  0.3127
  133SAPE   H2Y14335   4.590   1.746  10.231 -0.8954 -0.6500  1.6014
  133SAPE   C2314336   3.942   1.554   9.957  0.0166  0.7381 -0.5164
  133SAPE   H3R14337   3.862   1.628   9.977 -1.1251 -0.3751 -0.8645
  133SAPE   H3S14338   3.904   1.485   9.878 -0.9529 -2.3862  2.4368
  133SAPE   C2414339   4.060   1.627   9.902 -1.0999 -0.5249  1.0592
  133SAPE   H4R14340   4.151   1.564   9.909 -1.1897 -0.8258 -0.1806
  133SAPE   H4S14341   4.089   1.709   9.970 -1.7107  2.2681 -1.7767
  133SAPE   C2514342   4.030   1.690   9.763 -0.0254  0.7021  0.6878
  133SAPE   H5R14343   3.921   1.705   9.752 -0.0561 -0.7320 -1.4304
  133SAPE   C2614344   4.121   1.712   9.674 -0.0476 -0.2061  0.5700
  133SAPE   H6R14345   4.083   1.753   9.579 -0.5274 -1.4787  0.1910
  133SAPE   C2714346   4.272   1.692   9.663 -0.6359  0.0402  0.0792
  133SAPE   H7R14347   4.288   1.610   9.590  1.9157 -0.1743  0.7675
  133SAPE   H7S14348   4.319   1.649   9.754  0.5800 -1.3235 -1.1336
  133SAPE   C2814349   4.367   1.807   9.629  0.0407  0.3074  0.1338
  133SAPE   H8R14350   4.369   1.892   9.698 -0.1195  2.6149 -2.5439
  133SAPE   C2914351   4.427   1.822   9.511  0.6664  0.4773 -0.3974
  133SAPE   H9R14352   4.491   1.911   9.504  0.8241  0.7005  2.5930
  133SAPE  C21014353   4.422   1.737   9.380 -0.0255 -0.1565  0.3634
  133SAPE  H10R14354   4.396   1.631   9.400  2.0432 -1.0802 -1.4013
  133SAPE  H10S14355   4.523   1.726   9.334 -0.5864 -2.1562 -0.5104
  133SAPE  C21114356   4.328   1.798   9.283 -0.3331 -0.0898 -0.2292
  133SAPE  H11R14357   4.234   1.835   9.326  1.0759  2.8180  0.5462
  133SAPE  C21214358   4.354   1.836   9.156  0.6736 -0.8647  0.4257
  133SAPE  H12R14359   4.272   1.878   9.096  1.9223 -0.5742 -1.1712
  133SAPE  C21314360   4.475   1.810   9.069  0.2839 -0.7469  0.0055
  133SAPE  H13R14361   4.445   1.740   8.989 -0.0437  0.2362 -0.7528
  133SAPE  H13S14362   4.548   1.757   9.134 -1.9862 -1.6469  1.9223
  133SAPE  C21414363   4.530   1.932   9.001 -0.4683 -0.1535 -1.1216
  133SAPE  H14R14364   4.592   1.996   9.064 -0.7781 -1.9464  1.1191
  133SAPE  C21514365   4.520   1.967   8.867 -0.6640 -0.1251  0.0218
  133SAPE  H15R14366   4.565   2.064   8.841 -0.4686  0.2989  1.7968
  133SAPE  C21614367   4.455   1.892   8.756  0.4813  0.4077  1.1128
  133SAPE  H16R14368   4.373   1.949   8.707  0.4516  0.5000  1.2723
  133SAPE  H16S14369   4.409   1.798   8.793 -1.2557  0.0506 -1.6203
  133SAPE  C21714370   4.561   1.861   8.644  0.6311  0.3294  0.2020
  133SAPE  H17R14371   4.637   1.795   8.690 -0.4632 -2.3149 -1.5449
  133SAPE  H17S14372   4.605   1.959   8.617 -2.6895  1.0280 -3.6689
  133SAPE  C21814373   4.510   1.796   8.513  0.2725  0.7465 -0.4300
  133SAPE  H18R14374   4.420   1.846   8.470  0.4290 -1.2703 -3.3382
  133SAPE  H18S14375   4.480   1.692   8.534  0.7782  0.2915 -1.8395
  133SAPE  C21914376   4.625   1.773   8.413  0.4425 -0.5916  0.1181
  133SAPE  H19R14377   4.710   1.724   8.464  0.3521  0.3302  1.1983
  133SAPE  H19S14378   4.662   1.868   8.368 -0.7635  0.0564  0.4556
  133SAPE  C22014379   4.589   1.683   8.297  0.3071  0.1788 -0.0536
  133SAPE  H20R14380   4.495   1.722   8.253  0.4795 -1.0859 -1.6579
  133SAPE  H20S14381   4.579   1.578   8.333  1.0056  1.0511  2.9436
  133SAPE  H20T14382   4.669   1.695   8.221 -0.2527 -1.4277 -0.9415
  133SAPE   C3314383   4.552   1.806  10.021 -0.3193  0.7598  0.2273
  133SAPE   H3X14384   4.530   1.915  10.028 -2.2168  0.4323 -0.1245
  133SAPE   H3Y14385   4.480   1.776   9.942  1.1516 -1.5996 -0.3092
  133SAPE   C3414386   4.694   1.794   9.966 -0.2435 -0.5946  0.6122
  133SAPE   H4X14387   4.718   1.696   9.921  0.0862 -0.2613  0.0552
  133SAPE   H4Y14388   4.771   1.812  10.044  0.1576  0.5192 -0.0130
  133SAPE   C3514389   4.721   1.880   9.848  0.0180 -0.1115 -0.1565
  133SAPE   H5X14390   4.698   1.987   9.869 -0.2426 -0.1332 -0.3174
  133SAPE   H5Y14391   4.646   1.854   9.770 -0.9806 -0.3762  0.8721
  133SAPE   C3614392   4.865   1.851   9.799  0.2426 -0.2963  0.2587
  133SAPE   H6X14393   4.869   1.742   9.782 -2.8463 -0.5112  0.2211
  133SAPE   H6Y14394   4.948   1.867   9.870 -0.4349 -0.8625  1.1996
  133SAPE   C3714395   4.889   1.918   9.666  0.2192 -1.0154 -0.2590
  133SAPE   H7X14396   4.998   1.907   9.648  0.2702 -2.9567  0.9521
  133SAPE   H7Y14397   4.864   2.026   9.665 -1.5623 -1.3978  0.0997
  133SAPE   C3814398   4.825   1.851   9.543 -0.0696  0.1095 -0.1077
  133SAPE   H8X14399   4.714   1.857   9.544 -0.1252  1.4229 -3.3089
  133SAPE   H8Y14400   4.839   1.741   9.549 -2.4333 -0.3076 -1.1939
  133SAPE   C3914401   4.885   1.896   9.408  0.2831  0.2450  0.7498
  133SAPE   H9X14402   4.989   1.859   9.415  0.7748  1.2395 -0.8864
  133SAPE   H9Y14403   4.880   2.007   9.414 -0.6619  0.1465  3.0797
  133SAPE  C31014404   4.821   1.839   9.277  0.1874  0.6083 -0.5852
  133SAPE  H10X14405   4.716   1.876   9.272  0.2124  0.4784 -2.7387
  133SAPE  H10Y14406   4.812   1.729   9.287  0.4134  0.7956  3.0025
  133SAPE  C31114407   4.890   1.876   9.139 -0.0654  0.7931 -0.0911
  133SAPE  H11X14408   4.815   1.852   9.060  1.6416 -1.7686 -1.0551
  133SAPE  H11Y14409   4.975   1.805   9.130 -0.2406  0.0217  3.2101
  133SAPE  C31214410   4.943   2.016   9.143  0.5960 -0.0715  0.4127
  133SAPE  H12X14411   5.017   2.045   9.220 -1.0332  2.1680  1.2619
  133SAPE  H12Y14412   4.861   2.076   9.189 -2.2481 -4.7171  2.1294
  133SAPE  C31314413   4.983   2.070   9.007 -0.2738  0.5836  0.0011
  133SAPE  H13X14414   5.031   2.170   9.012 -1.0936  1.0142 -0.5360
  133SAPE  H13Y14415   4.891   2.078   8.945 -1.0121  1.1765  1.1354
  133SAPE  C31414416   5.094   1.984   8.944 -0.5831  0.3415 -0.5354
  133SAPE  H14X14417   5.078   1.876   8.963  3.0978 -0.2467 -0.1080
  133SAPE  H14Y14418   5.195   2.000   8.989 -0.0458 -1.9322 -0.8114
  133SAPE  C31514419   5.096   1.999   8.791  0.1602 -0.2657 -0.1062
  133SAPE  H15X14420   5.152   2.092   8.767  0.4388 -0.5674 -0.6543
  133SAPE  H15Y14421   4.994   2.013   8.751  0.1521  1.1200  0.3494
  133SAPE  C31614422   5.192   1.901   8.717  0.0103 -0.5079 -0.1101
  133SAPE  H16X14423   5.154   1.797   8.726 -1.4634 -0.0511 -0.8735
  133SAPE  H16Y14424   5.291   1.914   8.767  0.0954 -0.4368 -0.2979
  133SAPE  C31714425   5.194   1.924   8.564 -0.0687  0.5581  0.1005
  133SAPE  H17X14426   5.283   1.870   8.527 -0.9360  0.1208 -1.4119
  133SAPE  H17Y14427   5.214   2.029   8.536  0.7207  0.2241 -0.6322
  133SAPE  C31814428   5.069   1.865   8.496  0.2703  0.6891  0.1216
  133SAPE  H18X14429   5.066   1.759   8.531  0.9026  0.8615  0.7218
  133SAPE  H18Y14430   5.074   1.870   8.385  0.5464 -0.3983  0.0700
  133SAPE  H18Z14431   4.984   1.919   8.542 -0.4536 -0.0671 -0.3126
  134SAPE     N14432   2.239   2.591  10.575 -1.0778 -0.4779 -0.2102
  134SAPE   HN114433   2.213   2.504  10.626 -1.2967 -0.0286  0.4507
  134SAPE   HN214434   2.168   2.610  10.502 -1.1434 -0.4423 -0.1380
  134SAPE   HN314435   2.331   2.569  10.532 -0.5969  1.4225 -0.2313
  134SAPE   C1214436   2.258   2.706  10.660 -0.7219 -1.1944  0.0552
  134SAPE  H12A14437   2.340   2.686  10.732 -0.7781 -1.5826  0.0170
  134SAPE  H12B14438   2.165   2.733  10.713 -0.6765  0.0008 -0.4459
  134SAPE   C1114439   2.301   2.834  10.578 -0.2443 -0.3320 -0.3303
  134SAPE  H11A14440   2.235   2.857  10.492 -0.1995 -0.9680 -0.5350
  134SAPE  H11B14441   2.406   2.833  10.541 -0.1021  1.2878 -0.0436
  134SAPE     P14442   2.174   3.019  10.715  0.5077  0.0655  0.2146
  134SAPE   O1314443   2.069   2.925  10.770  0.2227 -0.1028  0.1956
  134SAPE   O1414444   2.222   3.129  10.805  0.2492  0.8971 -0.0034
  134SAPE   O1214445   2.303   2.937  10.672 -0.8615 -0.1265 -0.0881
  134SAPE   O1114446   2.102   3.078  10.588 -0.4618 -0.4451 -0.4375
  134SAPE    C114447   2.180   3.152  10.489 -0.2704  0.5235 -0.7401
  134SAPE    HA14448   2.213   3.248  10.534  0.4690  0.5674 -1.3499
  134SAPE    HB14449   2.267   3.096  10.449 -0.0827 -0.3688  0.8499
  134SAPE    C214450   2.094   3.186  10.357  0.0269  0.0228  0.1095
  134SAPE    HS14451   1.998   3.231  10.390  0.5519  0.9035  0.4464
  134SAPE   O2114452   2.088   3.072  10.272 -0.5485  0.1267  0.4219
  134SAPE   C2114453   1.979   3.074  10.192  0.0020  0.5081  0.1292
  134SAPE   O2214454   1.878   3.144  10.210 -0.2922  0.0650  0.3115
  134SAPE   C2214455   1.993   2.973  10.081 -0.6045  0.1952 -0.9631
  134SAPE   H2R14456   2.080   2.908  10.102 -1.3269 -1.0886 -1.8464
  134SAPE   H2S14457   1.903   2.908  10.087 -1.1797  0.9857 -0.8442
  134SAPE    C314458   2.162   3.304  10.278 -0.1120 -0.7373  0.0760
  134SAPE    HX14459   2.254   3.257  10.239 -1.7260 -2.2628 -2.1116
  134SAPE    HY14460   2.192   3.391  10.341  3.2961 -1.4720 -0.3177
  134SAPE   O3114461   2.089   3.345  10.162  0.1175 -0.1027 -0.0138
  134SAPE   C3114462   2.008   3.453  10.184 -0.0974 -0.8683 -0.7129
  134SAPE   O3214463   2.021   3.531  10.277  0.2046 -0.1796 -0.2582
  134SAPE   C3214464   1.910   3.465  10.070  0.7013 -0.7450  0.4920
  134SAPE   H2X14465   1.835   3.543  10.094 -1.6057 -2.9610  0.9341
  134SAPE   H2Y14466   1.858   3.367  10.064 -1.0626 -0.0074  2.5547
  134SAPE   C2314467   2.017   3.046   9.949  0.0717 -0.4689 -0.2352
  134SAPE   H3R14468   1.962   3.142   9.953  0.0540 -0.5198  1.3280
  134SAPE   H3S14469   1.962   2.989   9.871  0.0708  1.8282 -2.0314
  134SAPE   C2414470   2.166   3.057   9.912  0.4579 -0.0929  0.2410
  134SAPE   H4R14471   2.203   2.952   9.904  1.8982  0.5055 -1.4672
  134SAPE   H4S14472   2.215   3.099  10.003 -2.3350  0.9271  1.4043
  134SAPE   C2514473   2.189   3.133   9.783  0.2877  0.1485  0.8528
  134SAPE   H5R14474   2.146   3.234   9.790  0.4971  0.3017  0.0767
  134SAPE   C2614475   2.244   3.085   9.671  0.1745 -0.1631  0.6025
  134SAPE   H6R14476   2.251   3.158   9.589  0.2371  2.9436  3.1750
  134SAPE   C2714477   2.288   2.943   9.650  0.4847  0.2165 -0.0107
  134SAPE   H7R14478   2.214   2.891   9.586  0.7381 -1.4648  0.9930
  134SAPE   H7S14479   2.299   2.887   9.745  2.4371  0.2071 -0.2059
  134SAPE   C2814480   2.425   2.937   9.584  0.5592  0.3725 -0.3098
  134SAPE   H8R14481   2.498   3.006   9.629 -1.1755  0.8955  1.8310
  134SAPE   C2914482   2.462   2.858   9.475 -0.7346 -0.7156 -0.0338
  134SAPE   H9R14483   2.571   2.853   9.462 -0.4798  1.5593  0.9028
  134SAPE  C21014484   2.368   2.762   9.393 -0.8967 -0.6783  0.1881
  134SAPE  H10R14485   2.267   2.803   9.371 -0.1275  0.0831 -2.1633
  134SAPE  H10S14486   2.357   2.670   9.454  1.6049  0.4363  2.5581
  134SAPE  C21114487   2.448   2.742   9.268  0.9076  0.4564  0.4526
  134SAPE  H11R14488   2.551   2.781   9.274  0.7034  0.8371  1.5948
  134SAPE  C21214489   2.394   2.711   9.151 -0.2691  0.8055  0.7024
  134SAPE  H12R14490   2.452   2.692   9.059 -1.8335 -1.4521  0.0923
  134SAPE  C21314491   2.250   2.679   9.112  0.3518 -1.0640  0.5664
  134SAPE  H13R14492   2.180   2.656   9.195 -1.7467 -0.2214 -0.8908
  134SAPE  H13S14493   2.248   2.588   9.048  1.7498 -0.4121 -0.4640
  134SAPE  C21414494   2.195   2.790   9.032 -0.2896 -0.6927  1.0746
  134SAPE  H14R14495   2.199   2.893   9.070  0.4175  0.4609 -1.8320
  134SAPE  C21514496   2.138   2.769   8.918  0.1877 -0.0996 -0.2500
  134SAPE  H15R14497   2.094   2.846   8.853  0.8215  0.6472  0.1839
  134SAPE  C21614498   2.118   2.628   8.866  0.4181  0.6299  0.2715
  134SAPE  H16R14499   2.071   2.563   8.943 -1.0848 -2.3473 -2.8985
  134SAPE  H16S14500   2.213   2.578   8.839 -1.1819 -2.1258 -0.5758
  134SAPE  C21714501   2.048   2.630   8.734 -0.1280 -0.0478 -0.0592
  134SAPE  H17R14502   1.948   2.672   8.759 -0.1746 -0.1211 -0.1226
  134SAPE  H17S14503   2.047   2.522   8.708 -0.2789 -0.1613  0.4005
  134SAPE  C21814504   2.117   2.703   8.620 -0.2326  0.1721  0.1922
  134SAPE  H18R14505   2.224   2.674   8.629  0.0217  0.8804 -0.4822
  134SAPE  H18S14506   2.109   2.814   8.633 -0.3349  0.1067  0.7309
  134SAPE  C21914507   2.068   2.667   8.478  0.6989 -0.4296  0.4030
  134SAPE  H19R14508   1.958   2.654   8.479  0.7684 -1.0601  0.0149
  134SAPE  H19S14509   2.119   2.571   8.456 -0.1371 -0.1975 -3.2023
  134SAPE  C22014510   2.103   2.781   8.382  0.0919 -0.2879  0.2413
  134SAPE  H20R14511   2.204   2.819   8.406  1.0206 -1.7913 -1.1072
  134SAPE  H20S14512   2.030   2.865   8.391  0.3352 -0.0149 -0.3584
  134SAPE  H20T14513   2.103   2.756   8.274 -2.7693  0.0826  0.0615
  134SAPE   C3314514   1.993   3.492   9.940 -0.6446  0.7050  0.5567
  134SAPE   H3X14515   2.054   3.401   9.926 -0.9110  0.6166 -0.0234
  134SAPE   H3Y14516   2.071   3.568   9.961 -0.4041  0.4809  0.4713
  134SAPE   C3414517   1.912   3.528   9.820 -0.1752 -0.2930 -0.5408
  134SAPE   H4X14518   1.850   3.619   9.838 -0.7406  0.0542 -3.6038
  134SAPE   H4Y14519   1.846   3.446   9.784 -0.1465 -0.8692  0.6757
  134SAPE   C3514520   2.008   3.575   9.709 -0.1867 -0.8335 -0.2099
  134SAPE   H5X14521   2.043   3.487   9.651 -3.0412 -2.2010 -0.0443
  134SAPE   H5Y14522   2.094   3.633   9.749  0.8200 -1.2733 -1.6492
  134SAPE   C3614523   1.932   3.653   9.604 -0.0205  0.7000 -0.0716
  134SAPE   H6X14524   1.886   3.739   9.658 -0.8801  0.2859 -0.1289
  134SAPE   H6Y14525   1.850   3.592   9.562  0.7041  0.2572 -0.8849
  134SAPE   C3714526   2.025   3.703   9.488 -0.0279 -0.4805  0.5583
  134SAPE   H7X14527   2.100   3.628   9.456  0.5569 -0.1617  1.1409
  134SAPE   H7Y14528   2.091   3.784   9.526  0.5416 -0.7839  0.2315
  134SAPE   C3814529   1.944   3.773   9.380  0.1094 -0.4344  0.3861
  134SAPE   H8X14530   1.868   3.841   9.422 -0.4530 -0.7224 -0.1386
  134SAPE   H8Y14531   1.881   3.692   9.337 -0.3924  0.9951 -1.7388
  134SAPE   C3914532   2.031   3.817   9.258 -0.0031  0.4205 -0.2907
  134SAPE   H9X14533   2.067   3.719   9.219 -0.3120  0.0405  0.3600
  134SAPE   H9Y14534   2.112   3.888   9.282  0.2151  0.2520 -0.5273
  134SAPE  C31014535   1.946   3.876   9.149  0.3784 -0.5786  0.6660
  134SAPE  H10X14536   1.940   3.986   9.165  0.6388 -0.6608  1.3734
  134SAPE  H10Y14537   1.840   3.845   9.143  0.9903 -2.5153 -2.1541
  134SAPE  C31114538   2.004   3.855   9.005  0.1239 -0.9452 -0.0946
  134SAPE  H11X14539   2.054   3.758   8.984  0.6904 -0.4482 -1.0842
  134SAPE  H11Y14540   2.089   3.925   9.002 -1.8929  1.6344 -1.4733
  134SAPE  C31214541   1.895   3.882   8.903 -0.5607 -0.1890 -0.2735
  134SAPE  H12X14542   1.822   3.956   8.943 -2.1440 -2.5753  1.6017
  134SAPE  H12Y14543   1.828   3.793   8.897  1.4366 -1.9298  1.4830
  134SAPE  C31314544   1.945   3.919   8.760  0.1596  1.3166 -0.0205
  134SAPE  H13X14545   1.857   3.927   8.693  0.7612 -1.6572 -1.3069
  134SAPE  H13Y14546   1.993   3.826   8.722  0.5465  1.2208  0.6846
  134SAPE  C31414547   2.042   4.040   8.755  0.4578 -0.2406 -0.5826
  134SAPE  H14X14548   2.136   4.020   8.811  0.5484 -0.2401 -0.7344
  134SAPE  H14Y14549   1.991   4.128   8.800 -1.1995 -2.5370  2.4111
  134SAPE  C31514550   2.079   4.084   8.612 -0.3744  0.6737  0.4955
  134SAPE  H15X14551   1.984   4.091   8.556 -0.4670 -2.5547  0.0855
  134SAPE  H15Y14552   2.136   3.995   8.580 -1.0494  0.1039  0.8487
  134SAPE  C31614553   2.160   4.210   8.588  0.4789  0.0151  0.1607
  134SAPE  H16X14554   2.133   4.300   8.648  0.6824  0.5437 -0.5340
  134SAPE  H16Y14555   2.143   4.225   8.479 -0.4188 -3.6323 -0.3290
  134SAPE  C31714556   2.310   4.181   8.608 -0.3661 -0.2864  0.2861
  134SAPE  H17X14557   2.337   4.102   8.534  0.0467  1.0342 -1.0207
  134SAPE  H17Y14558   2.319   4.140   8.711  0.3095 -1.8204 -0.3599
  134SAPE  C31814559   2.405   4.294   8.586  0.2267 -0.5781 -0.2105
  134SAPE  H18X14560   2.514   4.272   8.586  0.0086 -1.7532 -0.8324
  134SAPE  H18Y14561   2.391   4.375   8.661 -0.6876 -2.0280  1.2468
  134SAPE  H18Z14562   2.378   4.341   8.489  0.3986  0.2015  0.1140
  135SAPE     N14563   0.620   0.860  10.404 -0.1360  0.2892 -0.0611
  135SAPE   HN114564   0.558   0.812  10.336 -0.1650  1.1928 -0.6823
  135SAPE   HN214565   0.721   0.838  10.394  0.3963  0.6761  3.2684
  135SAPE   HN314566   0.596   0.832  10.502 -0.8205 -0.7827 -0.5152
  135SAPE   C1214567   0.620   1.011  10.385  0.7705 -0.1673  0.1551
  135SAPE  H12A14568   0.660   1.032  10.284  1.7426  1.7417  0.8991
  135SAPE  H12B14569   0.696   1.046  10.458  1.6778 -2.2963  0.3053
  135SAPE   C1114570   0.485   1.072  10.432 -0.1377 -0.2365 -0.9138
  135SAPE  H11A14571   0.492   1.177  10.395  0.5250 -0.7284 -2.2531
  135SAPE  H11B14572   0.468   1.079  10.541 -0.2844 -1.2892 -0.8585
  135SAPE     P14573   0.225   1.065  10.416 -0.0827 -0.1839  0.4022
  135SAPE   O1314574   0.173   0.989  10.530 -0.1434 -0.0219  0.4800
  135SAPE   O1414575   0.223   1.212  10.434  0.6485 -0.0876  0.2533
  135SAPE   O1214576   0.371   1.011  10.368 -0.3030 -0.2649  0.4268
  135SAPE   O1114577   0.142   1.047  10.282  0.6400  0.0481 -0.4033
  135SAPE    C114578   0.174   1.008  10.153  0.1318  0.0381 -0.6571
  135SAPE    HA14579   0.255   1.074  10.114 -0.4099  0.3972 -1.2027
  135SAPE    HB14580   0.213   0.905  10.156  0.2699  0.1190  1.0934
  135SAPE    C214581   0.063   1.014  10.052  0.0862 -0.6521  0.2706
  135SAPE    HS14582   0.105   0.983   9.954 -0.1018 -0.0203 -0.0158
  135SAPE   O2114583   0.005   1.149  10.048 -0.4920  0.1516  0.0266
  135SAPE   C2114584   0.069   1.234   9.982 -0.1903 -0.2518  0.1972
  135SAPE   O2214585   0.154   1.211   9.899 -0.3721 -0.9663 -0.5124
  135SAPE   C2214586  -0.008   1.365  10.002  1.0992  0.6681 -0.1919
  135SAPE   H2R14587  -0.114   1.342   9.978  1.8816 -2.3581 -1.1830
  135SAPE   H2S14588   0.011   1.381  10.110 -1.3357 -0.1878  0.4344
  135SAPE    C314589  -0.050   0.921  10.088 -0.6169 -0.5081 -0.4547
  135SAPE    HX14590  -0.119   0.964  10.163  0.1375  1.4609 -0.8302
  135SAPE    HY14591  -0.005   0.829  10.133  0.0227 -0.2681 -0.5871
  135SAPE   O3114592  -0.133   0.895   9.976 -0.0414  0.0005  0.5526
  135SAPE   C3114593  -0.103   0.785   9.897 -0.2593  0.3110  0.0386
  135SAPE   O3214594  -0.005   0.719   9.914  0.3497  0.0863 -0.3720
  135SAPE   C3214595  -0.226   0.757   9.816 -0.3635 -0.6465  0.1471
  135SAPE   H2X14596  -0.289   0.848   9.805  0.7313  0.2589  1.1795
  135SAPE   H2Y14597  -0.288   0.681   9.868  0.6523 -1.0219  0.8294
  135SAPE   C2314598   0.048   1.474   9.911 -0.7714  0.6752  0.6407
  135SAPE   H3R14599   0.044   1.428   9.810 -1.3118  0.3631  0.8038
  135SAPE   H3S14600   0.158   1.482   9.929  0.0985 -4.2256 -0.9519
  135SAPE   C2414601  -0.029   1.606   9.924 -0.5545 -0.4412  0.4843
  135SAPE   H4R14602  -0.139   1.600   9.906 -0.6897  1.6210  0.4483
  135SAPE   H4S14603   0.011   1.666   9.840 -3.1608 -2.1368 -2.1909
  135SAPE   C2514604  -0.036   1.678  10.057  0.3442 -0.1669  0.0489
  135SAPE   H5R14605  -0.086   1.625  10.139 -1.4551 -0.8872 -1.4428
  135SAPE   C2614606  -0.003   1.805  10.083  0.5830 -0.2002  0.8680
  135SAPE   H6R14607  -0.024   1.846  10.184 -1.5177  0.9025  0.0514
  135SAPE   C2714608   0.042   1.912   9.979  0.1410 -0.0261 -0.5852
  135SAPE   H7R14609   0.104   1.867   9.899  1.7199  0.6547  0.2120
  135SAPE   H7S14610   0.112   1.978  10.036  0.4851 -1.1970  0.3865
  135SAPE   C2814611  -0.079   1.985   9.932  0.9537 -0.4051 -0.3116
  135SAPE   H8R14612  -0.159   2.013  10.003  1.1477 -1.3821  0.3191
  135SAPE   C2914613  -0.100   2.019   9.803 -0.1891 -0.4284 -0.0006
  135SAPE   H9R14614  -0.197   2.065   9.778 -0.4586 -0.2979  1.2315
  135SAPE  C21014615  -0.009   1.987   9.683  0.5804 -0.7467  0.2014
  135SAPE  H10R14616   0.031   1.884   9.696  0.4563 -1.1946 -2.4793
  135SAPE  H10S14617   0.083   2.048   9.685 -0.0489  0.2558 -0.7217
  135SAPE  C21114618  -0.077   1.996   9.548 -0.0710 -0.0510  0.7488
  135SAPE  H11R14619  -0.181   1.962   9.562 -0.2464  0.7937  1.6028
  135SAPE  C21214620  -0.034   2.019   9.429 -0.4392 -0.4931  0.7670
  135SAPE  H12R14621  -0.097   2.020   9.340  0.2232  0.0067  0.2950
  135SAPE  C21314622   0.111   2.036   9.405  0.5065 -0.5703  0.4936
  135SAPE  H13R14623   0.174   2.066   9.492  1.5886 -2.9020  0.6108
  135SAPE  H13S14624   0.140   2.109   9.327  2.0309 -2.4632 -0.8031
  135SAPE  C21414625   0.156   1.897   9.367  0.6535  0.1180  0.7619
  135SAPE  H14R14626   0.206   1.834   9.442  2.1262 -1.6051 -1.5314
  135SAPE  C21514627   0.141   1.842   9.243 -0.6417 -0.2331  0.2388
  135SAPE  H15R14628   0.159   1.734   9.228 -1.5457 -0.4162  0.3649
  135SAPE  C21614629   0.079   1.916   9.121  0.2479 -0.1164  0.1591
  135SAPE  H16R14630   0.026   2.007   9.156  1.0972  0.8241 -0.8958
  135SAPE  H16S14631   0.013   1.839   9.077  0.2846  0.4405 -0.9198
  135SAPE  C21714632   0.171   1.958   9.014 -0.7905  0.3456 -0.3145
  135SAPE  H17R14633   0.229   1.870   8.980 -0.1475  0.6725 -0.0657
  135SAPE  H17S14634   0.247   2.025   9.059 -1.5923  0.8550  0.3228
  135SAPE  C21814635   0.107   2.034   8.893 -0.0506 -0.4308  0.3785
  135SAPE  H18R14636   0.082   2.140   8.915  1.6056 -0.3621  2.1805
  135SAPE  H18S14637   0.004   1.993   8.895 -0.2910  0.1997  1.7655
  135SAPE  C21914638   0.170   2.017   8.753 -0.0976  0.3685  0.2242
  135SAPE  H19R14639   0.216   1.917   8.740  1.1295  1.1497 -2.2038
  135SAPE  H19S14640   0.260   2.083   8.749 -0.5760  1.0807  0.8553
  135SAPE  C22014641   0.070   2.025   8.629  0.2532  0.2565  0.3678
  135SAPE  H20R14642   0.112   1.984   8.534 -1.4382 -0.3630 -0.1462
  135SAPE  H20S14643   0.030   2.126   8.607 -1.2946  0.2308  2.8215
  135SAPE  H20T14644  -0.025   1.968   8.633 -0.3907  1.2274 -0.5735
  135SAPE   C3314645  -0.207   0.693   9.670 -0.0008  0.5979 -0.6035
  135SAPE   H3X14646  -0.303   0.643   9.644  1.3514 -1.7847 -1.3228
  135SAPE   H3Y14647  -0.132   0.611   9.685 -2.1637 -1.0062  2.5167
  135SAPE   C3414648  -0.171   0.805   9.572  0.7113  0.2704  0.6578
  135SAPE   H4X14649  -0.109   0.876   9.631  0.5368  0.7405  0.2764
  135SAPE   H4Y14650  -0.260   0.871   9.563 -0.5659 -1.1772  2.0673
  135SAPE   C3514651  -0.115   0.756   9.439  0.1504 -0.2859 -0.1835
  135SAPE   H5X14652  -0.174   0.673   9.395 -1.6840  0.8030  0.1326
  135SAPE   H5Y14653  -0.023   0.704   9.474  0.2481 -0.4630 -0.6969
  135SAPE   C3614654  -0.086   0.857   9.335  1.1368 -0.5382 -0.1176
  135SAPE   H6X14655  -0.025   0.794   9.266  0.8968 -0.7801 -0.1080
  135SAPE   H6Y14656  -0.021   0.942   9.364  0.5959  0.7794 -2.5078
  135SAPE   C3714657  -0.213   0.928   9.279  0.6296  0.1962  0.0241
  135SAPE   H7X14658  -0.255   1.001   9.351 -1.3811 -0.6396 -0.2451
  135SAPE   H7Y14659  -0.289   0.848   9.269 -0.1435  1.1247 -2.3571
  135SAPE   C3814660  -0.170   0.998   9.148 -0.2575  0.1163  0.3265
  135SAPE   H8X14661  -0.105   0.921   9.101 -2.7861 -0.9682 -1.6316
  135SAPE   H8Y14662  -0.124   1.094   9.181 -0.7459 -0.2405  2.1622
  135SAPE   C3914663  -0.288   1.031   9.055 -0.3966 -0.4036  0.0079
  135SAPE   H9X14664  -0.338   0.939   9.019  0.0309 -2.9141  4.9828
  135SAPE   H9Y14665  -0.245   1.074   8.963  0.5300 -3.1871 -0.9318
  135SAPE  C31014666  -0.377   1.144   9.109  0.0609  0.3122  1.0832
  135SAPE  H10X14667  -0.404   1.201   9.017 -0.2761 -0.5155  0.6559
  135SAPE  H10Y14668  -0.327   1.205   9.187  0.7448 -1.1616  1.8415
  135SAPE  C31114669  -0.502   1.098   9.180 -0.1638 -0.5836 -0.0975
  135SAPE  H11X14670  -0.482   1.056   9.281 -0.2083  0.8141  0.5136
  135SAPE  H11Y14671  -0.545   1.013   9.123 -2.3576 -0.6579  1.5108
  135SAPE  C31214672  -0.602   1.217   9.192  0.1988 -0.1876 -1.1758
  135SAPE  H12X14673  -0.619   1.268   9.094  0.6126  1.6504 -0.3352
  135SAPE  H12Y14674  -0.569   1.302   9.255  1.4745 -0.6693 -1.1549
  135SAPE  C31314675  -0.733   1.173   9.245 -0.5101 -0.1172 -0.3730
  135SAPE  H13X14676  -0.776   1.081   9.199 -1.1428  0.1073 -0.2410
  135SAPE  H13Y14677  -0.811   1.252   9.242 -0.1179  0.3021  0.2209
  135SAPE  C31414678  -0.725   1.134   9.394 -0.1096  0.2436 -0.2765
  135SAPE  H14X14679  -0.707   1.229   9.449  0.6756 -0.2042  0.2505
  135SAPE  H14Y14680  -0.649   1.055   9.412 -1.6225 -1.0816  0.5894
  135SAPE  C31514681  -0.864   1.070   9.435 -0.0483 -0.1424  0.0288
  135SAPE  H15X14682  -0.897   0.996   9.359 -2.1095  0.0015  0.7365
  135SAPE  H15Y14683  -0.941   1.149   9.425  1.5252  1.4238 -0.2376
  135SAPE  C31614684  -0.868   1.012   9.576  0.3923  0.5542  0.7048
  135SAPE  H16X14685  -0.823   1.094   9.635  0.3923  0.5092  0.7671
  135SAPE  H16Y14686  -0.805   0.922   9.592 -0.1570 -0.2152 -1.2138
  135SAPE  C31714687  -1.010   0.973   9.618 -0.1091 -0.1092  0.1257
  135SAPE  H17X14688  -1.049   0.891   9.554 -0.5947 -0.0604  0.3558
  135SAPE  H17Y14689  -1.082   1.057   9.611 -0.0146  0.0994  1.4155
  135SAPE  C31814690  -1.017   0.914   9.758  0.0914 -0.0822  0.5658
  135SAPE  H18X14691  -1.127   0.913   9.777 -0.6704  1.7019 -2.9238
  135SAPE  H18Y14692  -0.961   0.986   9.822 -0.1451  2.3194 -1.7649
  135SAPE  H18Z14693  -0.978   0.810   9.753 -0.3203 -0.2261  0.3673
  136SAPE     N14694   2.632   0.774  10.599  0.7512  0.1054  0.2572
  136SAPE   HN114695   2.539   0.757  10.643 -0.4813 -0.8020 -2.5071
  136SAPE   HN214696   2.614   0.764  10.497 -0.5391 -0.6135  0.5298
  136SAPE   HN314697   2.683   0.687  10.624  0.7312 -0.0285 -0.1625
  136SAPE   C1214698   2.724   0.886  10.641  0.0723  0.1708 -0.4216
  136SAPE  H12A14699   2.670   0.981  10.624  1.3886  0.9808 -0.2631
  136SAPE  H12B14700   2.814   0.883  10.576  0.9636 -2.2575  0.7902
  136SAPE   C1114701   2.766   0.869  10.792 -0.5884  0.6110  0.1342
  136SAPE  H11A14702   2.804   0.768  10.818  1.0701  1.3387  0.7091
  136SAPE  H11B14703   2.670   0.880  10.846 -0.6218 -1.5704  0.6103
  136SAPE     P14704   3.010   0.933  10.821 -0.0812 -0.1357  0.6856
  136SAPE   O1314705   3.089   1.052  10.858 -0.4708 -0.1647 -0.0298
  136SAPE   O1414706   3.016   0.816  10.909 -0.1077 -0.2646 -0.1938
  136SAPE   O1214707   2.858   0.980  10.818 -0.4043 -0.3142 -0.5750
  136SAPE   O1114708   3.036   0.895  10.667 -0.6710  0.1986  0.6537
  136SAPE    C114709   3.164   0.851  10.624  0.8351 -0.3259 -0.8514
  136SAPE    HA14710   3.228   0.940  10.606 -0.9829  2.0104  2.9719
  136SAPE    HB14711   3.216   0.789  10.700 -0.7820  1.1931  1.6214
  136SAPE    C214712   3.146   0.770  10.495 -0.0733 -0.6033 -0.5152
  136SAPE    HS14713   3.234   0.706  10.473 -0.0376 -1.2149  1.2474
  136SAPE   O2114714   3.117   0.852  10.379  0.0517 -0.2623  0.7557
  136SAPE   C2114715   3.224   0.912  10.327  0.0355 -0.6523  0.1872
  136SAPE   O2214716   3.340   0.907  10.372 -0.2995  0.1633 -0.1022
  136SAPE   C2214717   3.181   0.981  10.199  0.1548  0.4883  0.6917
  136SAPE   H2R14718   3.235   0.933  10.114  1.3228  0.9817  1.1256
  136SAPE   H2S14719   3.071   0.968  10.191  0.2010  0.1768  0.5119
  136SAPE    C314720   3.034   0.666  10.519 -0.2411  0.2685  0.3741
  136SAPE    HX14721   2.941   0.719  10.547  0.3994 -0.1537  3.6605
  136SAPE    HY14722   3.068   0.605  10.605 -0.6309 -4.1648 -2.3125
  136SAPE   O3114723   3.024   0.572  10.409 -0.0104  0.5726 -0.3161
  136SAPE   C3114724   2.925   0.588  10.327  0.2593  0.4726 -0.0906
  136SAPE   O3214725   2.827   0.661  10.341  0.0025 -0.4482 -0.1369
  136SAPE   C3214726   2.948   0.506  10.195 -0.6347 -0.7333 -0.9013
  136SAPE   H2X14727   2.849   0.466  10.162 -0.9587 -1.8327  1.2409
  136SAPE   H2Y14728   3.003   0.417  10.232  2.1261  0.7817 -1.1658
  136SAPE   C2314729   3.224   1.134  10.199 -0.0882 -0.1616 -0.5732
  136SAPE   H3R14730   3.327   1.139  10.239 -0.3812  0.7346  0.1051
  136SAPE   H3S14731   3.156   1.191  10.267  0.1286  1.9479 -2.0420
  136SAPE   C2414732   3.220   1.206  10.065  0.3792  1.0688  0.7547
  136SAPE   H4R14733   3.287   1.157   9.992  2.7912  1.6046  2.4874
  136SAPE   H4S14734   3.247   1.312  10.085  1.1963  0.9077  0.5092
  136SAPE   C2514735   3.078   1.210  10.016 -0.2179  0.6472  0.1253
  136SAPE   H5R14736   3.020   1.282  10.076  0.9491 -0.1207  2.2807
  136SAPE   C2614737   3.019   1.136   9.917 -0.2194 -0.1726  0.8903
  136SAPE   H6R14738   2.910   1.133   9.899 -0.0814 -1.0643  0.1679
  136SAPE   C2714739   3.082   1.033   9.820 -0.2477  0.0969 -0.9899
  136SAPE   H7R14740   3.006   0.952   9.805  0.9707 -1.3965  0.5349
  136SAPE   H7S14741   3.167   0.979   9.867  0.0336  0.1007 -1.4861
  136SAPE   C2814742   3.119   1.092   9.693  0.8460  0.3582  0.1029
  136SAPE   H8R14743   3.221   1.133   9.696  1.8069 -1.8667 -0.0432
  136SAPE   C2914744   3.048   1.089   9.576  0.0306  0.5548 -0.6242
  136SAPE   H9R14745   3.093   1.115   9.480  1.5266  0.9464  0.1491
  136SAPE  C21014746   2.907   1.033   9.568 -0.3007  0.5308  0.0212
  136SAPE  H10R14747   2.836   1.101   9.516 -1.6193 -1.7236 -1.2872
  136SAPE  H10S14748   2.869   1.015   9.671 -0.8679 -0.6177 -0.3773
  136SAPE  C21114749   2.903   0.909   9.490 -0.4482  0.2709 -0.1267
  136SAPE  H11R14750   2.954   0.823   9.535 -0.0506  0.0763 -0.9402
  136SAPE  C21214751   2.865   0.898   9.361  0.5610 -0.3674 -0.5535
  136SAPE  H12R14752   2.879   0.803   9.308  0.7268  0.4374 -2.0066
  136SAPE  C21314753   2.808   1.010   9.286 -1.0948 -0.5505  0.8657
  136SAPE  H13R14754   2.869   1.101   9.306  1.1424 -1.8069  0.1057
  136SAPE  H13S14755   2.703   1.032   9.317 -1.2555  0.2143 -0.1478
  136SAPE  C21414756   2.798   0.985   9.138 -0.2658  0.2610  0.4935
  136SAPE  H14R14757   2.696   0.957   9.108 -0.2674  1.7233 -0.9791
  136SAPE  C21514758   2.893   1.009   9.045  0.3676  1.1567 -0.5814
  136SAPE  H15R14759   2.866   0.985   8.941  0.6130  0.2014 -0.4360
  136SAPE  C21614760   3.027   1.062   9.083 -0.2153  0.3337 -0.0950
  136SAPE  H16R14761   3.101   0.980   9.066  0.3859  0.9833 -0.6713
  136SAPE  H16S14762   3.043   1.098   9.187  0.4349  2.2692 -0.8265
  136SAPE  C21714763   3.064   1.181   8.991  0.2607 -0.4036  0.3279
  136SAPE  H17R14764   3.164   1.209   9.029 -0.1301  0.0409  1.0528
  136SAPE  H17S14765   2.989   1.261   9.011  1.2066  0.2600  1.3066
  136SAPE  C21814766   3.093   1.147   8.841  0.4152  0.0622  0.1476
  136SAPE  H18R14767   3.003   1.152   8.776 -0.6616  1.1388  1.6547
  136SAPE  H18S14768   3.124   1.040   8.839  0.0662 -0.0692  1.1011
  136SAPE  C21914769   3.206   1.238   8.786 -0.1188 -0.5310 -0.4776
  136SAPE  H19R14770   3.244   1.183   8.697 -2.5218  0.4499 -2.2060
  136SAPE  H19S14771   3.281   1.251   8.868 -1.9235 -0.9906  1.3313
  136SAPE  C22014772   3.140   1.368   8.736  0.2657  0.1752 -0.1971
  136SAPE  H20R14773   3.209   1.455   8.740 -0.0205  0.4819 -1.5028
  136SAPE  H20S14774   3.065   1.403   8.812 -3.0183 -3.0318 -1.6747
  136SAPE  H20T14775   3.096   1.362   8.634 -1.0204 -0.2231  0.3593
  136SAPE   C3314776   3.038   0.576  10.086  0.3893  0.1903 -0.6871
  136SAPE   H3X14777   3.144   0.581  10.120  0.1758  2.8208 -0.2347
  136SAPE   H3Y14778   3.008   0.682  10.077 -1.0826 -0.1332  0.0439
  136SAPE   C3414779   3.017   0.513   9.951 -0.4583  0.8986  0.3520
  136SAPE   H4X14780   2.920   0.559   9.923  0.1755  1.6330 -0.7108
  136SAPE   H4Y14781   3.009   0.402   9.949  0.5001  0.8272  0.0651
  136SAPE   C3514782   3.113   0.569   9.847 -0.0998 -0.2526  1.1527
  136SAPE   H5X14783   3.215   0.524   9.851 -0.0426 -0.1447  0.9197
  136SAPE   H5Y14784   3.128   0.675   9.877  1.7662 -0.1802  0.1257
  136SAPE   C3614785   3.057   0.586   9.700 -0.2560 -0.2154  0.3755
  136SAPE   H6X14786   3.136   0.646   9.651 -1.1364  0.4411 -0.2754
  136SAPE   H6Y14787   2.968   0.652   9.700  1.2194  1.8479  0.1839
  136SAPE   C3714788   3.028   0.451   9.630  0.2039 -0.2269 -0.0585
  136SAPE   H7X14789   2.961   0.390   9.694 -0.0789  0.0162 -0.1232
  136SAPE   H7Y14790   3.122   0.391   9.624  0.1999 -0.2514  0.1310
  136SAPE   C3814791   2.958   0.463   9.490 -0.2867 -0.5218 -0.5201
  136SAPE   H8X14792   2.862   0.518   9.495 -0.6693 -1.1777 -0.4634
  136SAPE   H8Y14793   2.938   0.360   9.453  1.3443 -0.9256 -0.3835
  136SAPE   C3914794   3.043   0.540   9.394  0.2737 -0.1355 -0.2527
  136SAPE   H9X14795   3.150   0.518   9.415  0.0234  0.1926  1.5540
  136SAPE   H9Y14796   3.039   0.648   9.419  1.2306  0.4598 -2.4442
  136SAPE  C31014797   3.007   0.520   9.247  0.7012 -0.1341  0.7865
  136SAPE  H10X14798   2.897   0.527   9.232  0.9985  0.2270 -1.7100
  136SAPE  H10Y14799   3.028   0.412   9.227 -0.9854 -0.5663  1.1910
  136SAPE  C31114800   3.085   0.612   9.151  0.5512 -0.0549  0.2767
  136SAPE  H11X14801   3.193   0.591   9.165 -0.0382 -2.7741  1.2871
  136SAPE  H11Y14802   3.066   0.717   9.184 -1.0099  0.4456 -1.9423
  136SAPE  C31214803   3.044   0.592   9.009 -0.1497  0.4082 -0.3024
  136SAPE  H12X14804   2.943   0.639   9.004  0.3625  1.5120 -0.6570
  136SAPE  H12Y14805   3.028   0.489   8.971 -0.9267 -0.2969  1.8028
  136SAPE  C31314806   3.137   0.670   8.919  0.2147  0.1114 -0.3720
  136SAPE  H13X14807   3.229   0.609   8.911  0.0903 -0.5008  2.1264
  136SAPE  H13Y14808   3.155   0.762   8.979 -1.1250  0.2195 -0.1085
  136SAPE  C31414809   3.090   0.714   8.784 -0.4825  0.7487 -0.1085
  136SAPE  H14X14810   3.178   0.749   8.725  0.7471 -1.6292  0.1614
  136SAPE  H14Y14811   3.013   0.793   8.794 -1.4475 -0.1087 -0.5316
  136SAPE  C31514812   3.012   0.610   8.698 -0.3544 -0.6760  0.1689
  136SAPE  H15X14813   2.915   0.585   8.746  0.2075  0.8558  2.2417
  136SAPE  H15Y14814   3.079   0.523   8.682 -0.1239 -0.3857 -0.4861
  136SAPE  C31614815   2.980   0.663   8.558 -0.6845  0.0726  0.2805
  136SAPE  H16X14816   3.081   0.700   8.528 -0.3521 -0.2218  0.9958
  136SAPE  H16Y14817   2.913   0.751   8.552 -1.8805 -0.8969 -2.1346
  136SAPE  C31714818   2.919   0.553   8.467 -0.0345 -0.0729  0.2911
  136SAPE  H17X14819   2.816   0.533   8.501 -0.0692  2.3793  1.9059
  136SAPE  H17Y14820   2.975   0.457   8.476 -1.0366 -0.6736  0.2166
  136SAPE  C31814821   2.907   0.596   8.314 -0.1665  0.0975 -0.0769
  136SAPE  H18X14822   3.006   0.630   8.278  0.9691 -1.5907  1.2657
  136SAPE  H18Y14823   2.842   0.684   8.293  2.5282  1.8601 -1.5769
  136SAPE  H18Z14824   2.878   0.502   8.262  5.2767 -2.1087  0.1901
  137SAPE     N14825   1.682   4.288  11.001 -0.1646  0.3690  0.0057
  137SAPE   HN114826   1.632   4.342  11.074  0.0695 -0.5019  0.8361
  137SAPE   HN214827   1.730   4.205  11.042  3.2755  2.2083  0.0121
  137SAPE   HN314828   1.753   4.354  10.964 -0.0870  0.5943  0.5537
  137SAPE   C1214829   1.598   4.244  10.879  0.4122  0.4192  0.5899
  137SAPE  H12A14830   1.513   4.179  10.909  0.7471  0.1616  1.0027
  137SAPE  H12B14831   1.664   4.179  10.817  0.3075 -0.5743  1.4783
  137SAPE   C1114832   1.548   4.359  10.801 -0.4962 -0.2814 -0.3938
  137SAPE  H11A14833   1.495   4.312  10.716  0.3779 -1.3205 -0.3818
  137SAPE  H11B14834   1.632   4.426  10.772  0.0461 -1.2563 -1.1219
  137SAPE     P14835   1.450   4.595  10.886 -0.3831  0.3619  0.2678
  137SAPE   O1314836   1.337   4.643  10.971  0.2924  0.4393 -0.6621
  137SAPE   O1414837   1.584   4.651  10.907 -0.3650  0.0403 -0.6175
  137SAPE   O1214838   1.463   4.431  10.900 -0.1560  0.4093 -0.0009
  137SAPE   O1114839   1.417   4.616  10.737  0.2444 -0.3825 -0.8625
  137SAPE    C114840   1.476   4.718  10.663 -0.3296 -0.2194  0.4496
  137SAPE    HA14841   1.483   4.816  10.716 -0.1280  0.2724 -0.4704
  137SAPE    HB14842   1.583   4.693  10.642 -0.7232  0.2008 -2.5026
  137SAPE    C214843   1.421   4.732  10.521 -0.3731  0.2164  0.2973
  137SAPE    HS14844   1.496   4.792  10.466  3.5964 -1.7828  3.0305
  137SAPE   O2114845   1.289   4.797  10.517 -0.0917  0.3528  0.8206
  137SAPE   C2114846   1.289   4.930  10.522  0.1126 -0.3498 -0.5098
  137SAPE   O2214847   1.386   5.004  10.522  0.7663  0.0186  0.3019
  137SAPE   C2214848   1.145   4.968  10.528  0.0389  0.3378 -0.3358
  137SAPE   H2R14849   1.096   4.942  10.432  2.7215 -1.7975 -1.2359
  137SAPE   H2S14850   1.102   4.915  10.616 -0.3743 -1.3809 -1.5410
  137SAPE    C314851   1.412   4.601  10.440  0.4188 -0.1312 -0.9297
  137SAPE    HX14852   1.341   4.529  10.488 -0.3304 -0.0335 -1.8606
  137SAPE    HY14853   1.511   4.552  10.449  1.5447  2.2658  0.6006
  137SAPE   O3114854   1.378   4.633  10.310  1.0126  0.2283  0.5325
  137SAPE   C3114855   1.472   4.678  10.223 -0.0078 -0.2384  0.2044
  137SAPE   O3214856   1.593   4.659  10.242  0.2343 -0.3475 -0.0745
  137SAPE   C3214857   1.404   4.732  10.096 -0.0111  0.8449  0.0794
  137SAPE   H2X14858   1.452   4.830  10.072  1.4993  0.0836 -0.1628
  137SAPE   H2Y14859   1.297   4.751  10.118 -0.2958 -3.7085  4.1803
  137SAPE   C2314860   1.128   5.122  10.547 -0.7295  0.9159 -0.3593
  137SAPE   H3R14861   1.185   5.159  10.635 -0.4234  1.2049 -0.6786
  137SAPE   H3S14862   1.020   5.143  10.566 -0.9094 -1.3048  1.4429
  137SAPE   C2414863   1.151   5.207  10.421  0.3950 -0.8693 -0.2940
  137SAPE   H4R14864   1.071   5.182  10.347  0.8774 -0.9041 -0.8050
  137SAPE   H4S14865   1.248   5.171  10.382 -0.4260 -1.3744 -1.9801
  137SAPE   C2514866   1.145   5.358  10.465 -0.4622 -0.3017  0.0963
  137SAPE   H5R14867   1.208   5.380  10.552  0.9664 -4.1104  0.2184
  137SAPE   C2614868   1.076   5.455  10.400 -0.2509 -0.1217  0.3832
  137SAPE   H6R14869   1.085   5.558  10.438 -0.8205 -0.7854  2.4383
  137SAPE   C2714870   0.996   5.452  10.274 -0.1706 -0.4913  0.5434
  137SAPE   H7R14871   0.890   5.450  10.308 -0.0123  0.8906  1.1930
  137SAPE   H7S14872   1.006   5.352  10.228 -0.6537 -0.1139 -0.4032
  137SAPE   C2814873   1.024   5.564  10.169 -0.2693 -0.3841 -0.3855
  137SAPE   H8R14874   1.107   5.633  10.188 -0.8440  0.3394 -0.4753
  137SAPE   C2914875   0.954   5.556  10.056  0.5240 -0.1883  0.8805
  137SAPE   H9R14876   0.975   5.639   9.987  0.1082 -1.2897 -0.6294
  137SAPE  C21014877   0.838   5.465  10.023  0.2766 -0.1405  0.2975
  137SAPE  H10R14878   0.785   5.443  10.118  0.7941 -0.6507  0.4681
  137SAPE  H10S14879   0.881   5.370   9.984  2.6427  0.7330  0.6238
  137SAPE  C21114880   0.749   5.524   9.914 -0.2719 -0.0612  0.0240
  137SAPE  H11R14881   0.657   5.566   9.955  0.1052  2.8532 -1.8281
  137SAPE  C21214882   0.766   5.526   9.782 -0.2275 -0.2305 -0.0580
  137SAPE  H12R14883   0.682   5.570   9.727  0.6121 -0.7136 -1.7726
  137SAPE  C21314884   0.891   5.479   9.703  0.2349  0.1283  0.5966
  137SAPE  H13R14885   0.977   5.466   9.773 -1.0162  0.9807  2.3898
  137SAPE  H13S14886   0.920   5.559   9.632  0.7445 -1.4830 -1.0629
  137SAPE  C21414887   0.840   5.351   9.635  0.5255  0.3452 -0.3698
  137SAPE  H14R14888   0.771   5.290   9.696  0.4320  0.0857 -0.7320
  137SAPE  C21514889   0.865   5.310   9.512  0.8557 -0.5682 -0.4327
  137SAPE  H15R14890   0.824   5.212   9.484  0.3849 -0.4606 -0.1478
  137SAPE  C21614891   0.954   5.384   9.411 -0.1003  0.3365  0.7061
  137SAPE  H16R14892   1.043   5.326   9.378 -1.3753 -0.8613 -0.7591
  137SAPE  H16S14893   0.997   5.473   9.462  0.8593 -0.8625  2.1031
  137SAPE  C21714894   0.878   5.426   9.286 -0.6908 -0.1092 -0.0508
  137SAPE  H17R14895   0.783   5.472   9.319 -0.1043  1.7063 -0.7921
  137SAPE  H17S14896   0.857   5.335   9.227  0.4365  0.5898 -1.5836
  137SAPE  C21814897   0.971   5.513   9.203 -0.2367 -0.4802  0.4093
  137SAPE  H18R14898   1.056   5.457   9.159 -0.0750 -1.0249  1.3857
  137SAPE  H18S14899   1.010   5.596   9.266 -1.3860 -0.1765  0.7487
  137SAPE  C21914900   0.889   5.583   9.085 -0.3182  0.8641  0.2232
  137SAPE  H19R14901   0.805   5.643   9.125 -0.1125  1.2486  0.0784
  137SAPE  H19S14902   0.848   5.496   9.029  0.9430 -0.2704  0.9944
  137SAPE  C22014903   0.972   5.660   8.990  0.0813 -1.4252 -0.3761
  137SAPE  H20R14904   0.924   5.746   8.940 -1.4311 -2.2899 -0.5015
  137SAPE  H20S14905   0.999   5.586   8.912 -0.9728 -2.2424 -0.0104
  137SAPE  H20T14906   1.065   5.692   9.040 -0.6548 -3.5735  2.7082
  137SAPE   C3314907   1.417   4.650   9.971  0.1751  0.1024  0.1408
  137SAPE   H3X14908   1.352   4.560   9.984 -2.1684  1.2780 -2.4827
  137SAPE   H3Y14909   1.522   4.615   9.959  0.4876  0.4407  1.6589
  137SAPE   C3414910   1.376   4.721   9.838  0.2157 -0.5813  0.4808
  137SAPE   H4X14911   1.443   4.803   9.805 -1.1030 -0.0295 -0.9815
  137SAPE   H4Y14912   1.282   4.776   9.861  0.9130  0.5530  0.6754
  137SAPE   C3514913   1.356   4.611   9.732 -0.3679  0.1573 -0.0277
  137SAPE   H5X14914   1.252   4.579   9.754 -1.0165  1.7381 -0.6182
  137SAPE   H5Y14915   1.423   4.525   9.753 -0.5162  0.1406  0.3903
  137SAPE   C3614916   1.370   4.663   9.596 -0.3613 -0.3941  0.3854
  137SAPE   H6X14917   1.470   4.699   9.564 -0.0634  0.0665  1.7850
  137SAPE   H6Y14918   1.293   4.743   9.587 -0.4979 -0.6639 -1.3411
  137SAPE   C3714919   1.340   4.549   9.494 -0.2144 -0.0174 -0.4956
  137SAPE   H7X14920   1.255   4.493   9.537  1.3695 -0.3872  2.3787
  137SAPE   H7Y14921   1.429   4.482   9.491 -0.2208 -0.3906  3.4081
  137SAPE   C3814922   1.319   4.618   9.357 -0.2032  0.9657  0.1932
  137SAPE   H8X14923   1.417   4.661   9.326  1.2744 -2.6481 -0.7023
  137SAPE   H8Y14924   1.241   4.697   9.367 -2.3306 -0.9847 -0.1610
  137SAPE   C3914925   1.274   4.511   9.251 -0.1898  0.6353 -0.4055
  137SAPE   H9X14926   1.198   4.465   9.318  0.8385  0.6244  0.7745
  137SAPE   H9Y14927   1.356   4.438   9.233 -1.0135 -0.8333  1.4409
  137SAPE  C31014928   1.212   4.555   9.118 -0.5301 -0.4436  0.5953
  137SAPE  H10X14929   1.121   4.615   9.140 -1.5460 -2.1384  1.1929
  137SAPE  H10Y14930   1.173   4.477   9.049  0.6760  0.3194 -1.0337
  137SAPE  C31114931   1.314   4.644   9.033 -0.2155  0.1511 -0.0785
  137SAPE  H11X14932   1.403   4.581   9.017  0.4716  1.2235 -0.5684
  137SAPE  H11Y14933   1.344   4.735   9.090 -0.2089  0.0026  0.1569
  137SAPE  C31214934   1.241   4.683   8.898 -0.2374 -0.5687 -0.7413
  137SAPE  H12X14935   1.286   4.770   8.847  0.4109  0.2831  1.1769
  137SAPE  H12Y14936   1.141   4.724   8.924 -1.1205 -2.0849 -1.5917
  137SAPE  C31314937   1.228   4.567   8.793 -0.2015 -0.1851 -0.0459
  137SAPE  H13X14938   1.164   4.486   8.834  0.5668  0.0801  1.7911
  137SAPE  H13Y14939   1.327   4.525   8.765 -1.1639 -0.0850 -4.0910
  137SAPE  C31414940   1.159   4.623   8.665  0.2986 -0.3354 -0.0592
  137SAPE  H14X14941   1.215   4.717   8.644 -1.4659  1.7406  3.5659
  137SAPE  H14Y14942   1.061   4.669   8.689 -0.4538 -2.7094  1.8288
  137SAPE  C31514943   1.158   4.522   8.557  0.0570  0.6207  0.1798
  137SAPE  H15X14944   1.113   4.423   8.580  1.0241 -0.0714 -0.7975
  137SAPE  H15Y14945   1.261   4.507   8.518 -0.3372  1.3999 -1.2555
  137SAPE  C31614946   1.086   4.578   8.436 -0.3929  0.1929  0.5137
  137SAPE  H16X14947   1.129   4.675   8.405  0.7165 -0.4106  0.1165
  137SAPE  H16Y14948   0.978   4.599   8.453 -0.7472  3.3226 -4.0205
  137SAPE  C31714949   1.087   4.480   8.316 -0.1411  0.2206 -0.0917
  137SAPE  H17X14950   1.023   4.505   8.229 -0.0114  2.9545  0.5337
  137SAPE  H17Y14951   1.025   4.396   8.353 -0.5102  0.7376  0.4601
  137SAPE  C31814952   1.221   4.422   8.253  0.5533 -0.0453  0.2987
  137SAPE  H18X14953   1.270   4.350   8.322 -0.8738 -1.2084  0.1319
  137SAPE  H18Y14954   1.287   4.511   8.243  0.9583  0.0328  2.8829
  137SAPE  H18Z14955   1.200   4.372   8.156  0.6768  0.0388  0.2268
  138SAPE     N14956   3.833   5.251  11.135 -0.0562  0.2002  0.1224
  138SAPE   HN114957   3.737   5.213  11.148 -0.4188  0.7301 -0.9504
  138SAPE   HN214958   3.901   5.218  11.207  0.1721 -1.9930 -1.0217
  138SAPE   HN314959   3.815   5.352  11.149  0.8430  0.6397 -1.5614
  138SAPE   C1214960   3.866   5.196  11.000 -0.1845 -0.2376 -0.2110
  138SAPE  H12A14961   3.854   5.086  10.994 -0.0349 -0.2165 -0.9684
  138SAPE  H12B14962   3.970   5.221  10.971 -0.0936  0.4351  0.6583
  138SAPE   C1114963   3.779   5.258  10.890 -0.1287 -0.4416  0.3357
  138SAPE  H11A14964   3.781   5.205  10.793 -1.4768 -1.7065  0.9641
  138SAPE  H11B14965   3.816   5.362  10.873  0.6202 -1.0081 -1.8475
  138SAPE     P14966   3.549   5.148  10.906  0.0785 -0.3973 -0.2714
  138SAPE   O1314967   3.618   5.020  10.929  0.0717 -0.8322 -0.0244
  138SAPE   O1414968   3.431   5.174  10.990 -0.7691  0.2052  0.7448
  138SAPE   O1214969   3.645   5.264  10.938  0.2520 -0.0150 -0.0899
  138SAPE   O1114970   3.518   5.174  10.749  0.0145 -0.2087 -0.4845
  138SAPE    C114971   3.388   5.197  10.695  0.8868 -0.3471  0.2672
  138SAPE    HA14972   3.314   5.117  10.715 -3.7895  2.4499 -3.7202
  138SAPE    HB14973   3.340   5.281  10.750  0.9946 -0.2942  0.2817
  138SAPE    C214974   3.379   5.209  10.539  0.2863 -0.0278 -0.3457
  138SAPE    HS14975   3.292   5.275  10.524  1.1105  1.4518  1.0412
  138SAPE   O2114976   3.383   5.075  10.487  0.5744  0.1193  0.0256
  138SAPE   C2114977   3.289   5.057  10.392 -0.2413 -0.0189  0.5653
  138SAPE   O2214978   3.200   5.131  10.360 -0.1137 -0.0235 -0.2049
  138SAPE   C2214979   3.326   4.935  10.316 -0.8099  0.4541 -0.0422
  138SAPE   H2R14980   3.413   4.959  10.251  1.0210 -0.8936  1.7640
  138SAPE   H2S14981   3.368   4.855  10.382 -0.8850 -0.3282 -0.9189
  138SAPE    C314982   3.502   5.293  10.480 -0.4876 -0.2229  0.3843
  138SAPE    HX14983   3.591   5.250  10.532 -0.2941 -0.6810 -0.3161
  138SAPE    HY14984   3.492   5.401  10.505 -0.2553  0.3479 -1.8017
  138SAPE   O3114985   3.513   5.271  10.338 -0.1465 -0.3015 -0.2686
  138SAPE   C3114986   3.414   5.325  10.260  0.6932 -0.7704  0.1022
  138SAPE   O3214987   3.338   5.413  10.299 -0.1442 -0.0101 -1.0562
  138SAPE   C3214988   3.425   5.263  10.128  0.2031  0.7592  0.5509
  138SAPE   H2X14989   3.422   5.154  10.148 -0.1313  0.2327 -1.9918
  138SAPE   H2Y14990   3.522   5.292  10.082  0.0223 -2.1896 -1.9648
  138SAPE   C2314991   3.216   4.865  10.226  0.0337  0.1407 -0.0905
  138SAPE   H3R14992   3.137   4.829  10.295 -1.6893 -0.5619 -2.3139
  138SAPE   H3S14993   3.261   4.773  10.181 -1.1667 -0.5040 -0.0113
  138SAPE   C2414994   3.148   4.950  10.123  0.1018 -0.2123  0.6016
  138SAPE   H4R14995   3.224   4.995  10.055  2.2551 -5.0756 -0.6594
  138SAPE   H4S14996   3.100   5.040  10.168  0.2515  1.2219 -1.8896
  138SAPE   C2514997   3.037   4.876  10.056  0.1012 -0.3526 -0.3440
  138SAPE   H5R14998   2.943   4.866  10.113  1.0025 -3.1581  0.8064
  138SAPE   C2614999   3.040   4.838   9.923  0.4909 -0.4039  0.0273
  138SAPE   H6R15000   2.947   4.791   9.889  0.3441 -1.5507  1.8939
  138SAPE   C2715001   3.150   4.846   9.823 -0.0182  0.0085  0.1592
  138SAPE   H7R15002   3.197   4.746   9.813  0.3575  0.2587 -0.6484
  138SAPE   H7S15003   3.231   4.918   9.850  1.7302 -1.1648 -1.7019
  138SAPE   C2815004   3.092   4.872   9.690 -0.2222  0.0328  0.4260
  138SAPE   H8R15005   3.037   4.787   9.646 -2.4068  2.1926 -1.3528
  138SAPE   C2915006   3.100   4.983   9.611 -0.8396  0.1737  0.3344
  138SAPE   H9R15007   3.042   4.992   9.519  0.3883  0.5278 -0.4226
  138SAPE  C21015008   3.170   5.113   9.640  0.3703 -0.4668  0.5084
  138SAPE  H10R15009   3.225   5.143   9.548 -2.1276  0.4087 -0.7778
  138SAPE  H10S15010   3.255   5.105   9.711  1.6175 -2.7604 -1.0910
  138SAPE  C21115011   3.066   5.217   9.675  0.3718  0.1277 -1.0715
  138SAPE  H11R15012   3.019   5.194   9.771 -0.4806  1.5513 -1.1170
  138SAPE  C21215013   3.020   5.330   9.608  0.1549  0.7684 -0.6226
  138SAPE  H12R15014   2.950   5.400   9.657 -0.3279 -1.1224  1.5736
  138SAPE  C21315015   3.079   5.366   9.475 -0.5364  0.0813  0.0547
  138SAPE  H13R15016   3.019   5.320   9.394 -1.3998 -1.1122  1.3302
  138SAPE  H13S15017   3.184   5.330   9.468 -0.8671 -1.1332  0.9619
  138SAPE  C21415018   3.086   5.523   9.458 -0.2480  0.3785 -0.7090
  138SAPE  H14R15019   3.077   5.580   9.552 -1.0303 -1.7234  0.5509
  138SAPE  C21515020   3.094   5.584   9.339  0.2152 -0.2797  0.0254
  138SAPE  H15R15021   3.128   5.689   9.336 -0.2448 -0.1335 -2.1743
  138SAPE  C21615022   3.090   5.507   9.209 -0.3139 -0.2835  0.5729
  138SAPE  H16R15023   2.985   5.505   9.172 -0.2161  0.6237  0.2189
  138SAPE  H16S15024   3.122   5.401   9.204  0.7507 -0.0103  1.2182
  138SAPE  C21715025   3.179   5.582   9.097  0.7601  0.8031 -0.3818
  138SAPE  H17R15026   3.281   5.566   9.139 -0.1289 -1.5203  1.0581
  138SAPE  H17S15027   3.155   5.691   9.092 -0.2705  0.6376  0.5472
  138SAPE  C21815028   3.155   5.511   8.957 -0.4498  0.2763  0.1802
  138SAPE  H18R15029   3.056   5.536   8.915 -1.1578 -0.5531  1.2695
  138SAPE  H18S15030   3.160   5.401   8.976 -2.0094  0.1304 -0.1122
  138SAPE  C21915031   3.263   5.558   8.854 -0.6552 -0.7825 -0.1837
  138SAPE  H19R15032   3.363   5.515   8.875  1.7150  4.0038 -0.3767
  138SAPE  H19S15033   3.271   5.669   8.857  2.1989 -0.8541 -2.0896
  138SAPE  C22015034   3.236   5.518   8.706 -0.7972  0.4854 -0.7769
  138SAPE  H20R15035   3.328   5.549   8.651  0.0456 -0.9111 -0.2144
  138SAPE  H20S15036   3.144   5.555   8.656 -1.6132  1.3159  1.2255
  138SAPE  H20T15037   3.231   5.407   8.703  2.5968  0.1948 -0.1107
  138SAPE   C3315038   3.308   5.299  10.028  0.2875  0.2680  0.0347
  138SAPE   H3X15039   3.213   5.270  10.077 -0.4219  0.4302 -1.2045
  138SAPE   H3Y15040   3.315   5.234   9.939  0.5243 -1.0823  1.0102
  138SAPE   C3415041   3.300   5.449   9.988  0.3571 -0.3310 -0.9447
  138SAPE   H4X15042   3.398   5.495   9.965  0.5328  1.1213  2.2281
  138SAPE   H4Y15043   3.268   5.515  10.072 -0.6938 -0.6112 -1.1068
  138SAPE   C3515044   3.211   5.477   9.863  0.1750 -0.3353 -0.4521
  138SAPE   H5X15045   3.105   5.453   9.887  0.2815  0.3967  0.8429
  138SAPE   H5Y15046   3.241   5.408   9.781 -2.7515 -3.8525  1.1388
  138SAPE   C3615047   3.227   5.628   9.826  0.1893 -0.3603  0.4541
  138SAPE   H6X15048   3.205   5.701   9.907 -1.1493 -0.5709  0.3165
  138SAPE   H6Y15049   3.160   5.665   9.745  0.5151  1.5637  1.0220
  138SAPE   C3715050   3.366   5.668   9.768  0.7205  0.9786  0.2955
  138SAPE   H7X15051   3.393   5.595   9.689 -1.1763  2.0257 -1.3938
  138SAPE   H7Y15052   3.442   5.679   9.849  1.4874 -1.2350 -0.0294
  138SAPE   C3815053   3.360   5.805   9.696  0.1516 -0.7679 -0.3276
  138SAPE   H8X15054   3.465   5.842   9.686 -0.4085  0.5583 -1.7467
  138SAPE   H8Y15055   3.307   5.873   9.766 -0.8142 -2.0698  0.2394
  138SAPE   C3915056   3.284   5.811   9.556  0.8293  0.0236 -0.7096
  138SAPE   H9X15057   3.177   5.782   9.570  0.0879  2.2239 -1.3745
  138SAPE   H9Y15058   3.329   5.723   9.505  2.5256  1.0728 -1.0777
  138SAPE  C31015059   3.314   5.942   9.495 -0.3498  0.1004  0.5383
  138SAPE  H10X15060   3.423   5.955   9.511  0.3665 -0.2103 -3.1757
  138SAPE  H10Y15061   3.254   6.025   9.539  3.3935  3.4065 -0.0470
  138SAPE  C31115062   3.285   5.944   9.344 -0.0700 -0.0288  0.1957
  138SAPE  H11X15063   3.178   5.926   9.323 -0.2937  1.2102  0.1624
  138SAPE  H11Y15064   3.333   5.857   9.294 -0.7768 -1.7944  2.4467
  138SAPE  C31215065   3.321   6.076   9.280  0.9134  0.0107  0.0187
  138SAPE  H12X15066   3.428   6.106   9.273  0.6527  0.5413 -2.8256
  138SAPE  H12Y15067   3.267   6.154   9.339 -0.9151 -0.6467 -0.7154
  138SAPE  C31315068   3.273   6.098   9.137  0.5482  0.1029  0.2263
  138SAPE  H13X15069   3.165   6.075   9.131  0.2531  1.6940 -1.4571
  138SAPE  H13Y15070   3.329   6.025   9.075 -0.0304 -1.7491  1.8038
  138SAPE  C31415071   3.305   6.239   9.097 -0.9388 -0.3550  0.5577
  138SAPE  H14X15072   3.415   6.247   9.105 -0.7718 -1.7218 -0.1773
  138SAPE  H14Y15073   3.262   6.313   9.169 -0.4310  1.0632 -0.5400
  138SAPE  C31515074   3.257   6.266   8.963  0.2389  0.7282 -0.5572
  138SAPE  H15X15075   3.224   6.372   8.973 -1.4233  0.0165  3.0148
  138SAPE  H15Y15076   3.161   6.213   8.944  0.6998 -0.3943  0.1167
  138SAPE  C31615077   3.359   6.249   8.847  0.5875  0.6286  0.1567
  138SAPE  H16X15078   3.322   6.255   8.742  1.4942  0.7439 -0.1674
  138SAPE  H16Y15079   3.390   6.142   8.852  0.9872  0.6551 -1.2643
  138SAPE  C31715080   3.487   6.331   8.857 -0.2394 -0.7662  0.2591
  138SAPE  H17X15081   3.542   6.314   8.952 -0.4587  3.3694  1.3430
  138SAPE  H17Y15082   3.460   6.439   8.852  0.7869 -0.5563 -1.7634
  138SAPE  C31815083   3.587   6.293   8.749 -0.2440 -0.3569  0.0979
  138SAPE  H18X15084   3.546   6.325   8.651  0.7724 -1.8492 -0.8653
  138SAPE  H18Y15085   3.605   6.183   8.743 -0.7355 -0.5882  2.1871
  138SAPE  H18Z15086   3.687   6.339   8.762  0.0135 -0.5779 -0.9842
  139SAPE     N15087   4.984   3.412  10.515 -0.7282  0.5114 -0.6860
  139SAPE   HN115088   4.982   3.421  10.412  0.7695 -0.4244 -0.8281
  139SAPE   HN215089   4.884   3.417  10.546 -1.0481  1.4163 -1.8130
  139SAPE   HN315090   5.036   3.493  10.555  0.5559 -0.1535 -0.9649
  139SAPE   C1215091   5.043   3.272  10.539  0.1801 -0.3172  0.5469
  139SAPE  H12A15092   5.079   3.270  10.644  0.6333 -1.4749  0.3858
  139SAPE  H12B15093   5.128   3.261  10.469  0.3579  0.6654  0.5892
  139SAPE   C1115094   4.933   3.158  10.512 -0.0951  0.1153  0.1815
  139SAPE  H11A15095   4.977   3.059  10.534 -1.1825 -0.1821  1.0699
  139SAPE  H11B15096   4.907   3.164  10.404  2.8456  0.5863 -0.5790
  139SAPE     P15097   4.679   3.226  10.553  0.4392 -0.1323  0.1094
  139SAPE   O1315098   4.599   3.233  10.677 -0.0845 -0.0732  0.4844
  139SAPE   O1415099   4.705   3.346  10.480  0.3980  0.5653  0.1951
  139SAPE   O1215100   4.819   3.173  10.598  0.5670  0.5872 -0.1118
  139SAPE   O1115101   4.623   3.116  10.453  0.4888  0.0167  0.2320
  139SAPE    C115102   4.611   3.136  10.315 -0.0522  0.2911  0.7048
  139SAPE    HA15103   4.505   3.156  10.289 -0.3766 -0.6602  1.2711
  139SAPE    HB15104   4.680   3.215  10.277  0.3058 -0.4632 -0.2574
  139SAPE    C215105   4.660   3.011  10.243 -0.2148 -0.2473  0.6226
  139SAPE    HS15106   4.731   2.962  10.313  0.0616 -0.7578 -0.0003
  139SAPE   O2115107   4.720   3.051  10.122 -0.3747 -0.5020 -0.2843
  139SAPE   C2115108   4.759   2.951  10.043 -0.5999 -0.0568 -0.1239
  139SAPE   O2215109   4.754   2.834  10.072 -0.0542 -0.2330 -0.6876
  139SAPE   C2215110   4.828   3.007   9.913  0.3161 -0.4541 -0.2085
  139SAPE   H2R15111   4.928   3.049   9.940  0.0245 -0.5431  1.0969
  139SAPE   H2S15112   4.859   2.917   9.855 -1.3934 -1.2350  0.0460
  139SAPE    C315113   4.539   2.910  10.225  0.0339 -0.7732  1.1497
  139SAPE    HX15114   4.477   2.917  10.317 -1.1979 -1.8650  0.4475
  139SAPE    HY15115   4.571   2.804  10.218 -1.5636 -1.2850  1.1845
  139SAPE   O3115116   4.455   2.947  10.111 -0.2097  0.1580 -0.4820
  139SAPE   C3115117   4.360   2.858  10.091 -1.0324  0.4576  0.6439
  139SAPE   O3215118   4.324   2.766  10.161 -0.1297 -0.1622  0.1725
  139SAPE   C3215119   4.278   2.871   9.958  0.1986 -0.1235  0.3138
  139SAPE   H2X15120   4.310   2.965   9.907  1.4767 -0.5974  0.2179
  139SAPE   H2Y15121   4.172   2.888   9.987 -0.2372  0.8090 -1.6878
  139SAPE   C2315122   4.732   3.106   9.838  0.5008 -0.3353  0.2224
  139SAPE   H3R15123   4.760   3.205   9.881  2.5526 -2.3576  4.0971
  139SAPE   H3S15124   4.626   3.088   9.863  0.1763  0.0354 -0.8208
  139SAPE   C2415125   4.753   3.112   9.693  0.9313 -0.1721 -0.1870
  139SAPE   H4R15126   4.863   3.127   9.685  1.4769 -2.5092  1.6903
  139SAPE   H4S15127   4.689   3.190   9.646  2.2654 -0.0569 -1.9248
  139SAPE   C2515128   4.713   2.989   9.622 -0.4222  0.5054  1.4464
  139SAPE   H5R15129   4.673   2.903   9.679 -0.8730 -2.4742 -2.9038
  139SAPE   C2615130   4.700   2.986   9.484  0.5602  0.1829  1.0688
  139SAPE   H6R15131   4.669   2.893   9.433 -2.4315  0.9565  1.2560
  139SAPE   C2715132   4.727   3.092   9.377  0.4444 -0.5675 -0.7654
  139SAPE   H7R15133   4.836   3.082   9.361  0.5448  0.8277 -1.0631
  139SAPE   H7S15134   4.707   3.191   9.424 -0.5822 -1.1003 -0.0345
  139SAPE   C2815135   4.650   3.068   9.252  0.6864 -1.4323  0.2750
  139SAPE   H8R15136   4.541   3.055   9.265  0.4479 -1.3977 -1.4428
  139SAPE   C2915137   4.707   3.064   9.128 -0.0346 -0.9593  0.3474
  139SAPE   H9R15138   4.650   3.043   9.037  2.0069  0.1638 -1.2867
  139SAPE  C21015139   4.851   3.086   9.098  0.5754 -0.8384  0.4622
  139SAPE  H10R15140   4.880   3.024   9.010  1.8885 -0.8758  0.8964
  139SAPE  H10S15141   4.921   3.050   9.176  0.4082 -0.1937  0.9093
  139SAPE  C21115142   4.878   3.235   9.082 -0.1507  0.6064  0.9190
  139SAPE  H11R15143   4.828   3.301   9.155  0.7029  1.6298  0.6015
  139SAPE  C21215144   4.950   3.298   8.993  0.1970 -0.3647  1.1764
  139SAPE  H12R15145   4.965   3.407   8.997 -1.1621 -0.0550 -0.7696
  139SAPE  C21315146   5.018   3.234   8.872 -0.0123 -0.8929 -0.4655
  139SAPE  H13R15147   5.045   3.133   8.908  1.8396  0.0285  0.9109
  139SAPE  H13S15148   5.102   3.296   8.835 -1.0487  0.0209 -1.3387
  139SAPE  C21415149   4.922   3.214   8.759  0.8103 -0.1654 -0.0253
  139SAPE  H14R15150   4.872   3.117   8.773 -0.0453  0.5507  2.4475
  139SAPE  C21515151   4.892   3.294   8.659 -0.1316 -0.2292  0.3268
  139SAPE  H15R15152   4.812   3.270   8.587 -2.6751  1.0972  2.5602
  139SAPE  C21615153   4.950   3.432   8.638  0.1242 -0.6514  0.7951
  139SAPE  H16R15154   5.048   3.444   8.688  1.0662 -2.2737 -0.5327
  139SAPE  H16S15155   4.890   3.514   8.682 -1.5846 -0.8456 -1.0043
  139SAPE  C21715156   4.976   3.451   8.483 -0.0452  0.4334 -0.8932
  139SAPE  H17R15157   4.879   3.429   8.433  0.9326 -0.0014 -2.7029
  139SAPE  H17S15158   5.047   3.382   8.433  1.7026  2.1779 -0.9466
  139SAPE  C21815159   5.036   3.581   8.445 -0.1131 -0.6338  0.1562
  139SAPE  H18R15160   5.146   3.586   8.460  0.3059 -4.7077 -0.4007
  139SAPE  H18S15161   4.996   3.665   8.506 -2.2606  0.1876 -2.1822
  139SAPE  C21915162   4.997   3.626   8.297  0.3947  0.2370 -1.2309
  139SAPE  H19R15163   4.890   3.656   8.295  0.0807 -0.8175 -0.9114
  139SAPE  H19S15164   4.999   3.535   8.234  3.0563 -1.4377  1.0465
  139SAPE  C22015165   5.086   3.740   8.234  0.3421  0.8920 -0.3364
  139SAPE  H20R15166   5.047   3.753   8.132 -1.5883 -0.1544  0.2271
  139SAPE  H20S15167   5.191   3.703   8.235 -0.2473 -0.9736  1.6547
  139SAPE  H20T15168   5.067   3.838   8.282 -0.3907  1.4657 -1.7764
  139SAPE   C3315169   4.285   2.755   9.859 -0.3947  0.4161  0.1066
  139SAPE   H3X15170   4.221   2.770   9.769  1.6705 -1.6015 -1.8242
  139SAPE   H3Y15171   4.262   2.657   9.905  0.2404 -0.4093 -1.2761
  139SAPE   C3415172   4.425   2.740   9.790 -0.3759 -0.5772 -0.5658
  139SAPE   H4X15173   4.490   2.684   9.860 -0.4300  0.9466  0.7570
  139SAPE   H4Y15174   4.477   2.834   9.762  0.9476 -1.4693 -1.2071
  139SAPE   C3515175   4.413   2.665   9.651  0.9119  0.5223 -0.4446
  139SAPE   H5X15176   4.345   2.580   9.676  1.1640  0.3928 -0.1831
  139SAPE   H5Y15177   4.507   2.618   9.614 -1.1116 -2.4122 -2.2057
  139SAPE   C3615178   4.362   2.746   9.530  1.0179 -0.6880  0.5614
  139SAPE   H6X15179   4.423   2.837   9.508  0.4635 -0.1865  1.0864
  139SAPE   H6Y15180   4.261   2.788   9.549  0.7342 -0.7714 -0.6463
  139SAPE   C3715181   4.360   2.668   9.397  0.6721 -0.1489  0.4891
  139SAPE   H7X15182   4.274   2.598   9.394  1.1042 -0.7683  1.7268
  139SAPE   H7Y15183   4.455   2.610   9.387  0.7381  0.2532 -1.4869
  139SAPE   C3815184   4.345   2.772   9.272 -0.0737 -0.3879  0.5856
  139SAPE   H8X15185   4.425   2.848   9.263 -1.1874  0.8401  0.7025
  139SAPE   H8Y15186   4.251   2.826   9.296  1.2424  1.2900  2.2559
  139SAPE   C3915187   4.334   2.688   9.142 -0.3254  0.0283  0.1171
  139SAPE   H9X15188   4.246   2.621   9.152 -0.5476  0.2605 -0.2939
  139SAPE   H9Y15189   4.439   2.652   9.132  0.1716  1.7214 -1.3143
  139SAPE  C31015190   4.315   2.780   9.018  0.3716 -0.5698  0.2922
  139SAPE  H10X15191   4.235   2.853   9.041 -0.7202 -2.3385  2.4833
  139SAPE  H10Y15192   4.283   2.721   8.930 -1.3879  0.2506  0.3375
  139SAPE  C31115193   4.437   2.855   8.967 -0.0766 -0.0311 -0.0047
  139SAPE  H11X15194   4.509   2.779   8.931 -0.7017 -0.5058 -0.2854
  139SAPE  H11Y15195   4.466   2.929   9.045  0.0522 -0.8065  0.6954
  139SAPE  C31215196   4.401   2.936   8.835  0.2115  0.0825  0.1128
  139SAPE  H12X15197   4.365   3.034   8.873 -0.8865 -1.4284  3.3465
  139SAPE  H12Y15198   4.329   2.880   8.771  1.2707  0.0272 -1.0879
  139SAPE  C31315199   4.528   2.946   8.747 -0.2609  0.0923 -1.3005
  139SAPE  H13X15200   4.568   2.844   8.728 -0.0280 -0.1403  0.3014
  139SAPE  H13Y15201   4.602   3.004   8.807  1.6063 -1.6976 -1.7503
  139SAPE  C31415202   4.507   3.028   8.619 -0.0105 -0.1497  0.2229
  139SAPE  H14X15203   4.603   3.059   8.573 -0.1856  0.6626  0.4010
  139SAPE  H14Y15204   4.472   3.132   8.636  0.5329  0.0317  0.2401
  139SAPE  C31515205   4.410   2.959   8.526  0.0812 -0.2682  0.6748
  139SAPE  H15X15206   4.303   2.949   8.553 -0.6607 -0.1929 -1.9072
  139SAPE  H15Y15207   4.434   2.850   8.521 -1.2127 -0.5443 -2.5217
  139SAPE  C31615208   4.426   3.033   8.389  0.2733 -0.3939 -0.3084
  139SAPE  H16X15209   4.398   3.139   8.406 -1.0573 -0.9668  1.4027
  139SAPE  H16Y15210   4.531   3.033   8.355  0.7603  1.0423  1.0663
  139SAPE  C31715211   4.338   2.968   8.281  0.1490  0.8348  0.4838
  139SAPE  H17X15212   4.358   3.022   8.186  0.7896 -2.7544 -1.5899
  139SAPE  H17Y15213   4.230   2.986   8.301  0.0183 -0.3480  0.9089
  139SAPE  C31815214   4.368   2.820   8.252 -0.6639 -0.2843  0.9708
  139SAPE  H18X15215   4.332   2.761   8.340  0.0036 -1.6038  0.3952
  139SAPE  H18Y15216   4.477   2.811   8.232 -0.8117  1.1623 -0.7069
  139SAPE  H18Z15217   4.309   2.775   8.169 -0.1207 -1.2894  1.1073
  140SAPE     N15218   4.568   1.144  10.751 -0.1012 -0.6544 -0.4131
  140SAPE   HN115219   4.648   1.196  10.791 -1.3575 -0.3808  1.9885
  140SAPE   HN215220   4.486   1.202  10.722 -0.6108 -0.9178  0.4321
  140SAPE   HN315221   4.525   1.099  10.835  1.7840  0.1200  1.0128
  140SAPE   C1215222   4.613   1.046  10.652  0.0644 -0.0627  0.2253
  140SAPE  H12A15223   4.653   1.104  10.566 -0.8708  0.0275 -0.1615
  140SAPE  H12B15224   4.532   0.975  10.624  1.1734 -1.0820 -0.5072
  140SAPE   C1115225   4.730   0.967  10.707  0.2021 -0.8014 -0.0477
  140SAPE  H11A15226   4.806   1.039  10.745 -0.6871 -0.2101  0.6408
  140SAPE  H11B15227   4.770   0.895  10.632  1.0706  0.0201 -0.3915
  140SAPE     P15228   4.761   0.784  10.893 -0.0935 -0.0712 -0.3273
  140SAPE   O1315229   4.835   0.865  10.996  0.5637 -0.1845  0.1010
  140SAPE   O1415230   4.683   0.668  10.935 -0.5518 -0.4786 -0.1024
  140SAPE   O1215231   4.672   0.883  10.804 -0.1270  0.1014 -0.0124
  140SAPE   O1115232   4.860   0.739  10.780  0.0052  0.5230  0.2113
  140SAPE    C115233   4.995   0.757  10.800  0.5428 -0.2617 -0.9626
  140SAPE    HA15234   5.021   0.855  10.845 -0.5956  0.6849 -2.2786
  140SAPE    HB15235   5.030   0.672  10.863 -0.9095  0.7734  1.3736
  140SAPE    C215236   5.085   0.757  10.666  0.4387  0.3366 -0.5020
  140SAPE    HS15237   5.190   0.734  10.693  0.1760 -1.6176 -0.9948
  140SAPE   O2115238   5.073   0.877  10.596 -0.0812  0.0220  0.4429
  140SAPE   C2115239   5.172   0.925  10.527  0.3429  0.3215  0.0550
  140SAPE   O2215240   5.285   0.877  10.516  0.0587 -0.0270 -0.1989
  140SAPE   C2215241   5.130   1.059  10.480  0.1155  0.0714  0.1014
  140SAPE   H2R15242   5.070   1.120  10.552  1.1948 -0.8733  1.8716
  140SAPE   H2S15243   5.220   1.119  10.455  0.7417  0.0625  2.1368
  140SAPE    C315244   5.037   0.638  10.575 -0.0988 -0.3028 -0.0540
  140SAPE    HX15245   4.948   0.670  10.517  0.2053 -0.2614 -0.5029
  140SAPE    HY15246   5.011   0.557  10.646  0.4345 -0.0631  0.4216
  140SAPE   O3115247   5.140   0.597  10.475  0.8386  0.4552 -0.4511
  140SAPE   C3115248   5.233   0.515  10.521 -0.1171 -0.1717 -0.1570
  140SAPE   O3215249   5.238   0.475  10.638  0.4477 -1.0033  0.1747
  140SAPE   C3215250   5.344   0.493  10.414 -0.6814 -0.1200 -0.4877
  140SAPE   H2X15251   5.369   0.384  10.414  0.0476  0.0448 -0.7964
  140SAPE   H2Y15252   5.438   0.543  10.445 -0.5133 -0.8167  0.1591
  140SAPE   C2315253   5.056   1.034  10.349  0.3446  0.6700 -0.2524
  140SAPE   H3R15254   5.021   1.128  10.301  0.6450  0.0953 -1.6342
  140SAPE   H3S15255   4.962   0.978  10.367  1.5834 -2.4615 -2.4984
  140SAPE   C2415256   5.134   0.967  10.247  0.2462  0.1211  0.6353
  140SAPE   H4R15257   5.150   0.864  10.286  2.5776 -0.4980 -1.7187
  140SAPE   H4S15258   5.235   1.009  10.232 -0.3848  1.2926 -0.4931
  140SAPE   C2515259   5.072   0.944  10.108 -0.3577  0.1031 -0.2193
  140SAPE   H5R15260   5.031   0.843  10.096  2.1982 -1.2747  1.5719
  140SAPE   C2615261   5.092   1.031  10.008 -0.0431  0.1540  0.2147
  140SAPE   H6R15262   5.029   1.021   9.918  1.9789  1.0254 -1.3856
  140SAPE   C2715263   5.174   1.155  10.008 -0.0320  0.0923 -0.1850
  140SAPE   H7R15264   5.282   1.138   9.985 -0.1628 -0.3896 -0.4463
  140SAPE   H7S15265   5.171   1.185  10.115 -0.8001  1.2803 -0.5176
  140SAPE   C2815266   5.126   1.277   9.923 -0.1685  0.1282  0.0917
  140SAPE   H8R15267   5.097   1.360   9.990 -0.6587 -2.3736  3.2414
  140SAPE   C2915268   5.123   1.278   9.789 -0.4953 -0.4239 -0.5659
  140SAPE   H9R15269   5.088   1.370   9.739  0.1911  0.7407  1.0207
  140SAPE  C21015270   5.146   1.175   9.687  0.2656 -0.2890 -0.6278
  140SAPE  H10R15271   5.158   1.079   9.743  0.6407 -0.0479 -0.2920
  140SAPE  H10S15272   5.235   1.192   9.623 -0.0428  0.8920 -0.7586
  140SAPE  C21115273   5.023   1.163   9.598 -0.1305 -1.2349  0.3514
  140SAPE  H11R15274   4.931   1.127   9.646 -1.6760 -0.7902 -2.1059
  140SAPE  C21215275   5.031   1.190   9.464  0.1708 -0.0321  0.9233
  140SAPE  H12R15276   4.940   1.171   9.405  1.1923  1.3238 -1.2011
  140SAPE  C21315277   5.153   1.238   9.386  0.2007 -0.0361  0.5188
  140SAPE  H13R15278   5.250   1.197   9.420 -0.1776  0.6080  2.4804
  140SAPE  H13S15279   5.153   1.349   9.387 -2.2635  0.1091 -2.0540
  140SAPE  C21415280   5.135   1.206   9.236  0.2079  0.6682  0.0587
  140SAPE  H14R15281   5.161   1.101   9.215 -2.7513 -0.6836  2.3394
  140SAPE  C21515282   5.108   1.295   9.137  0.4317  0.1644  0.6002
  140SAPE  H15R15283   5.064   1.248   9.048  1.2244  0.8792 -0.1895
  140SAPE  C21615284   5.087   1.438   9.176  0.1464  0.1172  0.5410
  140SAPE  H16R15285   5.164   1.476   9.247 -1.5646 -1.8300  3.6815
  140SAPE  H16S15286   4.987   1.444   9.224  0.1051  2.0634  0.2756
  140SAPE  C21715287   5.089   1.534   9.054  0.3297  0.3097 -0.1347
  140SAPE  H17R15288   5.186   1.519   9.002  1.1202 -1.8299  1.7855
  140SAPE  H17S15289   5.086   1.642   9.078 -2.8933  0.5258 -1.0603
  140SAPE  C21815290   4.959   1.518   8.973  0.3336  0.0335  0.4148
  140SAPE  H18R15291   4.865   1.523   9.033  0.7079 -1.2280  1.1568
  140SAPE  H18S15292   4.964   1.420   8.920 -1.9931  1.1007 -2.0203
  140SAPE  C21915293   4.954   1.606   8.845 -0.4904 -0.0190 -0.2299
  140SAPE  H19R15294   5.053   1.595   8.796 -1.5720  1.2509 -2.9652
  140SAPE  H19S15295   4.953   1.715   8.868  3.2576  0.0308  0.2192
  140SAPE  C22015296   4.853   1.579   8.737 -0.2196 -0.0478 -0.7503
  140SAPE  H20R15297   4.755   1.603   8.783  1.4169  1.6049  2.2011
  140SAPE  H20S15298   4.867   1.474   8.704  1.2124 -0.1838  0.1781
  140SAPE  H20T15299   4.869   1.655   8.657  2.1104  1.1915  0.7771
  140SAPE   C3315300   5.315   0.555  10.277 -0.2016 -0.2015 -0.3673
  140SAPE   H3X15301   5.407   0.556  10.215 -0.6521  2.3889 -1.1381
  140SAPE   H3Y15302   5.275   0.659  10.279 -0.4668 -0.1188 -4.0389
  140SAPE   C3415303   5.219   0.460  10.204  0.0569 -0.4265 -0.2119
  140SAPE   H4X15304   5.128   0.451  10.268  0.4877  2.0835  0.8501
  140SAPE   H4Y15305   5.256   0.355  10.197 -0.3302 -0.7066  1.4334
  140SAPE   C3515306   5.166   0.528  10.074  0.0529  0.0280 -0.1078
  140SAPE   H5X15307   5.266   0.543  10.029  0.0970  1.8148  0.4768
  140SAPE   H5Y15308   5.124   0.628  10.099 -0.2723 -0.4795  1.5441
  140SAPE   C3615309   5.069   0.443   9.996 -0.1876  0.2094  0.5370
  140SAPE   H6X15310   4.974   0.439  10.052 -0.2398  2.3144  0.6913
  140SAPE   H6Y15311   5.108   0.339   9.991 -1.4997 -0.2425 -2.2605
  140SAPE   C3715312   5.054   0.490   9.847  0.2825  0.5201 -0.4288
  140SAPE   H7X15313   4.980   0.572   9.858 -0.7757 -0.6626  1.9807
  140SAPE   H7Y15314   5.003   0.403   9.800 -0.4057  0.7158 -0.0500
  140SAPE   C3815315   5.177   0.523   9.771 -0.8056  0.5485  0.4197
  140SAPE   H8X15316   5.249   0.439   9.777 -1.7690 -0.3977 -0.6856
  140SAPE   H8Y15317   5.230   0.614   9.806 -1.2705  0.3787  1.6345
  140SAPE   C3915318   5.151   0.528   9.616  0.5730 -0.2160 -0.6782
  140SAPE   H9X15319   5.249   0.526   9.563 -0.1565  1.0100 -2.1269
  140SAPE   H9Y15320   5.115   0.630   9.594  1.7404  0.3374 -0.1212
  140SAPE  C31015321   5.044   0.428   9.552 -0.3541  0.1584 -0.4584
  140SAPE  H10X15322   4.949   0.448   9.607  0.6757  1.6092  0.8798
  140SAPE  H10Y15323   5.083   0.326   9.573 -1.5327 -0.3341 -0.5867
  140SAPE  C31115324   5.001   0.447   9.411  0.3756  0.1968  0.0637
  140SAPE  H11X15325   5.056   0.372   9.349 -2.2952 -1.3459 -0.6245
  140SAPE  H11Y15326   5.041   0.547   9.385  1.3185 -0.0563  0.4816
  140SAPE  C31215327   4.851   0.451   9.371 -0.2996 -0.4428  0.0022
  140SAPE  H12X15328   4.805   0.552   9.379 -1.5821 -0.7066 -2.7983
  140SAPE  H12Y15329   4.808   0.377   9.441  0.2066 -1.5911 -0.8779
  140SAPE  C31315330   4.834   0.379   9.231 -0.5243  0.2837 -0.5036
  140SAPE  H13X15331   4.890   0.288   9.262 -1.8616 -0.2828  0.3102
  140SAPE  H13Y15332   4.889   0.445   9.161 -0.1372  0.6188  0.1009
  140SAPE  C31415333   4.694   0.348   9.184  0.6498  0.2543 -0.2609
  140SAPE  H14X15334   4.649   0.445   9.153  2.9147  0.9930 -1.4854
  140SAPE  H14Y15335   4.637   0.324   9.276 -2.9693  2.7004 -1.6178
  140SAPE  C31515336   4.692   0.252   9.059 -0.3056 -0.3948  0.0389
  140SAPE  H15X15337   4.593   0.204   9.047 -2.0383  2.9590 -0.2041
  140SAPE  H15Y15338   4.769   0.174   9.078  0.0929  0.3705  1.8816
  140SAPE  C31615339   4.725   0.310   8.922 -0.3584 -0.7541 -0.1406
  140SAPE  H16X15340   4.833   0.322   8.901  0.2877 -3.4345  1.2465
  140SAPE  H16Y15341   4.666   0.402   8.903 -0.7606 -1.0452 -0.3266
  140SAPE  C31715342   4.669   0.230   8.804  0.5088  0.3836 -0.2687
  140SAPE  H17X15343   4.558   0.222   8.801  0.3089  2.7171 -2.4175
  140SAPE  H17Y15344   4.703   0.124   8.810 -1.2269 -0.5299 -3.9003
  140SAPE  C31815345   4.710   0.288   8.666 -0.1774  0.0081 -0.5524
  140SAPE  H18X15346   4.804   0.346   8.677 -0.8101  0.5854  3.3911
  140SAPE  H18Y15347   4.633   0.358   8.626  0.2534 -0.2771 -1.9283
  140SAPE  H18Z15348   4.725   0.203   8.596 -1.0852 -0.5617 -0.0743
  141SAPE     N15349   1.815   2.896  10.888 -0.1804 -0.4620 -0.1217
  141SAPE   HN115350   1.803   2.814  10.950  0.0414  0.6532  1.4362
  141SAPE   HN215351   1.905   2.901  10.836  0.2990 -0.4182  0.6959
  141SAPE   HN315352   1.824   2.977  10.952 -0.9611  0.0496 -0.6392
  141SAPE   C1215353   1.713   2.897  10.779  0.0688  0.0744 -0.0507
  141SAPE  H12A15354   1.732   2.986  10.715  0.6211 -1.1112 -1.6077
  141SAPE  H12B15355   1.613   2.890  10.826  0.7622 -1.1927  1.3248
  141SAPE   C1115356   1.739   2.766  10.697  0.1224  0.0769  0.2242
  141SAPE  H11A15357   1.840   2.760  10.651 -0.0112  3.1749 -0.7178
  141SAPE  H11B15358   1.664   2.750  10.617 -1.5355  1.0592  1.5122
  141SAPE     P15359   1.642   2.529  10.774  0.0067  0.3502 -0.3372
  141SAPE   O1315360   1.638   2.452  10.907  0.1586  0.2029 -0.4573
  141SAPE   O1415361   1.507   2.566  10.727  0.2078 -0.1455 -0.0837
  141SAPE   O1215362   1.732   2.661  10.797 -0.1825  0.3751  0.2600
  141SAPE   O1115363   1.722   2.442  10.664  0.4584 -0.3672 -0.1413
  141SAPE    C115364   1.671   2.335  10.594  0.0546  0.0485  0.1149
  141SAPE    HA15365   1.701   2.238  10.640 -0.2745  0.4493  1.1833
  141SAPE    HB15366   1.561   2.329  10.588  0.0087  0.0975  0.8654
  141SAPE    C215367   1.728   2.325  10.455  0.1592 -0.0779  1.1320
  141SAPE    HS15368   1.839   2.326  10.453  0.1868 -2.0171  0.5093
  141SAPE   O2115369   1.664   2.434  10.385  0.5378 -0.0376 -0.1212
  141SAPE   C2115370   1.740   2.514  10.304 -0.5404 -0.2970  1.0025
  141SAPE   O2215371   1.860   2.518  10.297 -0.2875  0.0580  0.3452
  141SAPE   C2215372   1.646   2.621  10.240  0.6874 -0.0599 -0.6362
  141SAPE   H2R15373   1.634   2.578  10.138  1.2263 -0.0847 -0.6871
  141SAPE   H2S15374   1.546   2.611  10.287  1.0774 -2.0840 -0.1181
  141SAPE    C315375   1.692   2.195  10.380  0.3312 -0.0090  0.3594
  141SAPE    HX15376   1.582   2.192  10.366  0.3990  3.0562 -1.6656
  141SAPE    HY15377   1.722   2.115  10.451 -0.8975 -1.7854 -1.0200
  141SAPE   O3115378   1.766   2.176  10.256 -0.0485 -0.0510  0.3014
  141SAPE   C3115379   1.715   2.216  10.146 -0.0834 -0.7267  0.2310
  141SAPE   O3215380   1.610   2.278  10.126 -0.6975  0.4107  0.0699
  141SAPE   C3215381   1.808   2.177  10.039 -0.3832 -0.0387  0.0804
  141SAPE   H2X15382   1.794   2.067  10.030  1.8328 -0.5152  1.7482
  141SAPE   H2Y15383   1.913   2.179  10.076 -1.2806  0.1766  2.8028
  141SAPE   C2315384   1.709   2.762  10.230  0.4104  0.0429 -0.5346
  141SAPE   H3R15385   1.814   2.750  10.193 -0.7597 -2.6432 -3.4727
  141SAPE   H3S15386   1.713   2.795  10.336  1.0131 -1.3197 -0.1077
  141SAPE   C2415387   1.635   2.868  10.149  0.0702  0.2690 -0.5123
  141SAPE   H4R15388   1.657   2.845  10.042 -2.3157 -0.1728 -0.9606
  141SAPE   H4S15389   1.691   2.962  10.170  2.0846 -0.7912 -0.8857
  141SAPE   C2515390   1.488   2.878  10.191  0.3064 -0.6586  0.0233
  141SAPE   H5R15391   1.468   2.939  10.280  0.8786  1.1170 -1.0172
  141SAPE   C2615392   1.381   2.816  10.127  0.1004 -0.5092 -0.4339
  141SAPE   H6R15393   1.284   2.818  10.178  1.4107  0.9062  2.2256
  141SAPE   C2715394   1.382   2.737  10.004  0.0836  0.7621 -0.2558
  141SAPE   H7R15395   1.323   2.648  10.037  0.9278  0.1627 -0.3436
  141SAPE   H7S15396   1.481   2.694   9.982 -0.8451 -1.5193 -0.2765
  141SAPE   C2815397   1.305   2.812   9.898  0.4559  0.1814 -0.1907
  141SAPE   H8R15398   1.222   2.871   9.940  2.3423  1.2135  2.3308
  141SAPE   C2915399   1.318   2.799   9.766  0.0639 -1.0098  1.2657
  141SAPE   H9R15400   1.253   2.851   9.694  1.5579  1.5583  1.6757
  141SAPE  C21015401   1.418   2.698   9.705 -0.4896 -0.0410 -0.2734
  141SAPE  H10R15402   1.417   2.606   9.767 -1.5122 -0.7378 -1.2935
  141SAPE  H10S15403   1.514   2.751   9.727  1.5199 -3.4576 -0.1454
  141SAPE  C21115404   1.410   2.647   9.560  0.3145 -0.3802 -0.0226
  141SAPE  H11R15405   1.414   2.538   9.547  1.9251 -0.1543 -1.8617
  141SAPE  C21215406   1.394   2.721   9.445 -0.0630 -0.7142  0.0822
  141SAPE  H12R15407   1.405   2.675   9.346  0.1301  0.1300 -0.3010
  141SAPE  C21315408   1.400   2.872   9.452  0.0828 -0.2262  0.5938
  141SAPE  H13R15409   1.501   2.893   9.411  1.2199 -2.8030  1.8361
  141SAPE  H13S15410   1.411   2.916   9.553  3.0498  1.8817 -0.5092
  141SAPE  C21415411   1.292   2.963   9.387 -0.1821  0.1746  0.8047
  141SAPE  H14R15412   1.201   2.985   9.445 -0.7467 -2.1615  0.9097
  141SAPE  C21515413   1.298   3.017   9.262  0.5341  0.0747 -0.4319
  141SAPE  H15R15414   1.213   3.073   9.221  1.7359  1.0485 -1.7230
  141SAPE  C21615415   1.408   3.002   9.158 -0.4711 -0.7495 -1.0695
  141SAPE  H16R15416   1.460   2.904   9.158  2.8529  0.8301  0.7492
  141SAPE  H16S15417   1.484   3.075   9.193 -0.8224 -0.2918 -1.2551
  141SAPE  C21715418   1.355   3.043   9.023 -0.4195 -0.0172  0.0952
  141SAPE  H17R15419   1.440   3.059   8.954 -1.7132  0.0128 -1.5415
  141SAPE  H17S15420   1.297   3.137   9.033 -3.6571 -1.9607  0.9393
  141SAPE  C21815421   1.260   2.937   8.968 -0.4446  0.4201 -0.1393
  141SAPE  H18R15422   1.159   2.937   9.012 -1.3184 -0.6069 -2.0123
  141SAPE  H18S15423   1.313   2.839   8.976 -0.9732  0.2376  1.3411
  141SAPE  C21915424   1.248   2.965   8.817  0.3584  1.3150  0.2976
  141SAPE  H19R15425   1.212   2.875   8.763  0.1818  1.9143 -0.6178
  141SAPE  H19S15426   1.352   2.965   8.779  0.4135 -1.3874  0.2482
  141SAPE  C22015427   1.174   3.098   8.771  0.0548  0.4884 -0.0530
  141SAPE  H20R15428   1.235   3.185   8.802 -0.2835  0.6086  0.2926
  141SAPE  H20S15429   1.078   3.099   8.828  0.4325  0.6565  0.5945
  141SAPE  H20T15430   1.153   3.096   8.662  3.2228 -1.0302 -0.7529
  141SAPE   C3315431   1.766   2.252   9.908 -0.0559 -1.1113  0.9475
  141SAPE   H3X15432   1.785   2.361   9.904 -0.4329 -1.0579 -1.7250
  141SAPE   H3Y15433   1.659   2.229   9.890  0.2424 -2.3481  0.5917
  141SAPE   C3415434   1.847   2.192   9.791 -0.2291  0.1146 -0.2175
  141SAPE   H4X15435   1.811   2.090   9.764 -0.7757  0.5224 -1.0967
  141SAPE   H4Y15436   1.956   2.195   9.808 -0.0098  2.6310 -1.5199
  141SAPE   C3515437   1.828   2.269   9.656 -0.2836 -0.4040 -0.9321
  141SAPE   H5X15438   1.864   2.371   9.682 -1.1819 -0.1926 -0.5065
  141SAPE   H5Y15439   1.723   2.275   9.620  0.1817 -0.0247 -2.3139
  141SAPE   C3615440   1.906   2.212   9.534 -0.3664 -0.2460 -0.5236
  141SAPE   H6X15441   1.858   2.114   9.512 -0.0953 -0.7818  1.1468
  141SAPE   H6Y15442   2.009   2.189   9.568 -1.9419 -1.2461  4.3689
  141SAPE   C3715443   1.893   2.292   9.406  0.5422  0.0352 -0.5116
  141SAPE   H7X15444   1.970   2.372   9.399  1.5205 -0.4788  2.6023
  141SAPE   H7Y15445   1.796   2.346   9.407 -0.4222 -1.6460  0.5515
  141SAPE   C3815446   1.904   2.213   9.274  0.1429  0.4423 -0.4789
  141SAPE   H8X15447   1.857   2.112   9.277  0.2801  0.3875 -0.1910
  141SAPE   H8Y15448   2.009   2.179   9.265  0.8494  2.1715  0.8101
  141SAPE   C3915449   1.873   2.297   9.148 -0.1502  0.3826 -0.2231
  141SAPE   H9X15450   1.955   2.366   9.119  0.4113  0.0204  0.4769
  141SAPE   H9Y15451   1.791   2.365   9.179 -0.5836 -1.4413  3.0760
  141SAPE  C31015452   1.836   2.215   9.020 -0.3845 -0.2448  0.2133
  141SAPE  H10X15453   1.750   2.145   9.015 -0.6483  0.1004 -0.1344
  141SAPE  H10Y15454   1.914   2.136   9.010 -1.3750 -1.2617  0.3588
  141SAPE  C31115455   1.821   2.311   8.895  1.0036 -0.6424  0.1960
  141SAPE  H11X15456   1.903   2.386   8.903 -1.2063  2.0734 -1.0272
  141SAPE  H11Y15457   1.731   2.374   8.908  2.3140  1.2761  0.4018
  141SAPE  C31215458   1.838   2.253   8.754 -0.4982  0.1694  0.8418
  141SAPE  H12X15459   1.822   2.336   8.681  0.5737 -0.9343 -0.7222
  141SAPE  H12Y15460   1.764   2.174   8.730  0.4805 -0.6499  0.4238
  141SAPE  C31315461   1.974   2.196   8.727 -0.3389  0.4600  0.1364
  141SAPE  H13X15462   1.991   2.105   8.787 -0.6823  0.6861  0.5801
  141SAPE  H13Y15463   2.062   2.258   8.756  0.3637 -0.5675  0.2367
  141SAPE  C31415464   2.000   2.170   8.578  0.0016 -0.0620 -0.5825
  141SAPE  H14X15465   2.030   2.263   8.526  0.0347 -0.0299 -0.5074
  141SAPE  H14Y15466   1.904   2.141   8.532 -0.0153 -2.4658  0.7520
  141SAPE  C31515467   2.098   2.055   8.548 -0.3309  0.5256 -0.2566
  141SAPE  H15X15468   2.073   1.953   8.584  0.9125 -0.4371 -1.9342
  141SAPE  H15Y15469   2.197   2.077   8.594 -1.7892  2.0060  2.3938
  141SAPE  C31615470   2.112   2.046   8.398 -0.0678 -0.5648  0.8480
  141SAPE  H16X15471   2.202   1.983   8.381 -0.0247  0.1127 -2.0148
  141SAPE  H16Y15472   2.131   2.146   8.352 -1.3766 -1.1705 -1.1618
  141SAPE  C31715473   1.999   1.979   8.323  0.3653 -0.4531  0.3023
  141SAPE  H17X15474   1.900   2.015   8.359  2.0100  3.6452  1.2997
  141SAPE  H17Y15475   2.004   1.872   8.352  5.4335  0.0321  2.3579
  141SAPE  C31815476   1.998   1.989   8.168 -0.0656  0.0301 -0.2764
  141SAPE  H18X15477   1.904   1.945   8.128  1.2782 -1.8731 -1.5436
  141SAPE  H18Y15478   2.076   1.928   8.117 -0.4637 -1.0988  0.4199
  141SAPE  H18Z15479   2.005   2.093   8.131 -1.7205 -0.2557 -1.5380
  142SAPE     N15480   1.626   0.390  11.105 -0.2143 -0.6573  0.3999
  142SAPE   HN115481   1.701   0.349  11.165  1.0423  1.6466  0.5226
  142SAPE   HN215482   1.552   0.429  11.166  0.5913  0.0036  0.9933
  142SAPE   HN315483   1.580   0.313  11.052 -0.3355 -0.7704  0.6710
  142SAPE   C1215484   1.674   0.491  11.007 -0.7233  0.1100  0.0585
  142SAPE  H12A15485   1.730   0.447  10.922  0.0332  1.3030 -0.0696
  142SAPE  H12B15486   1.736   0.565  11.061  0.3328  0.2130 -1.2379
  142SAPE   C1115487   1.550   0.568  10.947 -0.0993  0.0017 -0.2779
  142SAPE  H11A15488   1.591   0.629  10.864  1.1612 -0.4970 -0.0460
  142SAPE  H11B15489   1.524   0.648  11.020  0.3192  1.3815 -1.5917
  142SAPE     P15490   1.341   0.555  10.825 -0.1905  0.0625 -0.2172
  142SAPE   O1315491   1.212   0.487  10.826  0.0826  0.5883 -0.4567
  142SAPE   O1415492   1.340   0.695  10.861  0.1909 -0.5735  0.1361
  142SAPE   O1215493   1.440   0.482  10.915  0.1796  0.0360  0.4868
  142SAPE   O1115494   1.404   0.541  10.674  0.3177  1.0618 -0.6225
  142SAPE    C115495   1.480   0.420  10.648  0.2207  0.3605  0.6398
  142SAPE    HA15496   1.580   0.429  10.696  1.0893 -3.3953 -0.1310
  142SAPE    HB15497   1.435   0.334  10.701 -0.5728  1.7821  2.3579
  142SAPE    C215498   1.507   0.382  10.504  0.0779  0.1963  0.3197
  142SAPE    HS15499   1.587   0.307  10.491 -0.5823 -0.6551  0.9875
  142SAPE   O2115500   1.532   0.498  10.422 -0.5414  0.1031  0.2734
  142SAPE   C2115501   1.658   0.542  10.418 -0.0145 -0.3523  0.9489
  142SAPE   O2215502   1.754   0.494  10.468 -0.2951 -0.1246 -0.4962
  142SAPE   C2215503   1.666   0.674  10.335 -0.3303  0.5936 -0.1896
  142SAPE   H2R15504   1.611   0.752  10.391 -1.1991 -1.7248  2.4142
  142SAPE   H2S15505   1.772   0.705  10.334  0.0236 -0.5327  0.8284
  142SAPE    C315506   1.378   0.315  10.440 -0.4713  0.1669  0.3962
  142SAPE    HX15507   1.307   0.400  10.427  1.1598  1.1983 -2.8500
  142SAPE    HY15508   1.344   0.239  10.513  2.1589 -2.0307 -0.5227
  142SAPE   O3115509   1.417   0.265  10.311  0.9592  0.0739  0.2409
  142SAPE   C3115510   1.306   0.217  10.240 -1.5813  0.4281 -0.2757
  142SAPE   O3215511   1.195   0.223  10.287  0.4053 -0.4528 -0.2009
  142SAPE   C3215512   1.341   0.169  10.100 -0.2712  0.0908 -0.5694
  142SAPE   H2X15513   1.259   0.216  10.043  0.4417  3.7771  1.1805
  142SAPE   H2Y15514   1.331   0.058  10.107  0.1622  0.0599 -0.3901
  142SAPE   C2315515   1.599   0.669  10.194 -0.4339  0.2534 -0.1125
  142SAPE   H3R15516   1.596   0.777  10.168 -2.1103  0.1823 -0.2977
  142SAPE   H3S15517   1.496   0.627  10.200  0.4229 -2.2165 -1.5186
  142SAPE   C2415518   1.682   0.587  10.094 -0.3808 -0.4508  0.6524
  142SAPE   H4R15519   1.671   0.481  10.125 -0.4984 -0.3733  0.8818
  142SAPE   H4S15520   1.786   0.623  10.084  0.0046 -1.9129 -1.0179
  142SAPE   C2515521   1.604   0.609   9.960  0.0537  0.1509 -0.7774
  142SAPE   H5R15522   1.506   0.659   9.961 -0.9258 -1.5973 -2.4989
  142SAPE   C2615523   1.666   0.578   9.840 -0.2448 -0.1557  0.0581
  142SAPE   H6R15524   1.620   0.603   9.743  1.4982  2.3104 -0.2307
  142SAPE   C2715525   1.807   0.522   9.830 -0.1475  0.0043  0.4085
  142SAPE   H7R15526   1.799   0.453   9.743  0.0135  1.5307 -0.8592
  142SAPE   H7S15527   1.832   0.461   9.919  0.5051 -2.3731 -1.2913
  142SAPE   C2815528   1.906   0.624   9.793 -0.2457 -0.3572 -0.3966
  142SAPE   H8R15529   1.898   0.711   9.861  0.9155  0.1549 -0.8777
  142SAPE   C2915530   1.997   0.623   9.695 -0.5385  0.3430 -0.2443
  142SAPE   H9R15531   2.062   0.709   9.675  2.5052 -1.6839  0.2962
  142SAPE  C21015532   2.024   0.507   9.595  0.0381  0.1482  0.0076
  142SAPE  H10R15533   1.940   0.434   9.592  0.3868 -0.2589 -0.0186
  142SAPE  H10S15534   2.103   0.441   9.638 -0.0444 -0.9454 -1.4149
  142SAPE  C21115535   2.056   0.555   9.453 -0.0343  0.4197 -0.1357
  142SAPE  H11R15536   2.166   0.567   9.448  0.2308 -0.3933  2.3996
  142SAPE  C21215537   1.965   0.586   9.362  0.7616 -0.5248 -0.5098
  142SAPE  H12R15538   1.993   0.611   9.259  1.5240 -1.6064 -0.5820
  142SAPE  C21315539   1.818   0.567   9.373 -0.3320  0.0418  0.6783
  142SAPE  H13R15540   1.768   0.649   9.317  0.1833 -0.7527 -0.9969
  142SAPE  H13S15541   1.773   0.577   9.475  2.0245  0.5788  1.7429
  142SAPE  C21415542   1.780   0.431   9.322 -0.1829  1.1504  0.1121
  142SAPE  H14R15543   1.811   0.360   9.400 -0.0638  0.6087 -0.4178
  142SAPE  C21515544   1.718   0.395   9.208  0.0797  0.1381 -0.3878
  142SAPE  H15R15545   1.696   0.290   9.184  1.0008 -0.0206 -0.5532
  142SAPE  C21615546   1.677   0.487   9.098  0.1559  0.5837  0.3326
  142SAPE  H16R15547   1.698   0.592   9.129  2.4769  0.4017 -0.4491
  142SAPE  H16S15548   1.568   0.492   9.075  0.6367  4.1250 -1.9092
  142SAPE  C21715549   1.763   0.454   8.979  0.1750 -0.5148  0.0875
  142SAPE  H17R15550   1.741   0.494   8.878  1.0117 -2.2000 -0.8152
  142SAPE  H17S15551   1.771   0.344   8.966  0.0152 -0.6215  0.8677
  142SAPE  C21815552   1.912   0.497   9.007  0.0903  0.2306  0.2163
  142SAPE  H18R15553   1.959   0.439   9.090  0.1340  2.2826  1.7147
  142SAPE  H18S15554   1.918   0.598   9.054 -1.0300  1.1728 -1.5568
  142SAPE  C21915555   2.000   0.489   8.885  0.2831 -0.3873 -0.5898
  142SAPE  H19R15556   1.962   0.534   8.790  2.2158 -0.5986 -1.5119
  142SAPE  H19S15557   2.024   0.385   8.857  1.9034  0.3933 -2.3646
  142SAPE  C22015558   2.131   0.562   8.911 -0.2906  0.1263  0.4607
  142SAPE  H20R15559   2.113   0.667   8.941  0.9010  0.6227 -0.5069
  142SAPE  H20S15560   2.191   0.566   8.818 -1.1839  1.5356 -0.0828
  142SAPE  H20T15561   2.195   0.514   8.988 -1.8826 -0.1705  1.6565
  142SAPE   C3315562   1.481   0.214  10.066 -0.6090 -0.5973 -0.2502
  142SAPE   H3X15563   1.545   0.164  10.142  1.2331  0.0119 -1.3514
  142SAPE   H3Y15564   1.514   0.319  10.079 -0.9253 -0.6948  1.7469
  142SAPE   C3415565   1.531   0.163   9.934 -0.5064 -0.3992  0.3571
  142SAPE   H4X15566   1.507   0.055   9.941  0.7803 -0.7258 -0.0532
  142SAPE   H4Y15567   1.640   0.178   9.919 -0.9112  3.0161 -0.1467
  142SAPE   C3515568   1.455   0.225   9.815 -0.5060 -0.8444 -0.8721
  142SAPE   H5X15569   1.456   0.335   9.833  1.0385 -1.2634  2.4105
  142SAPE   H5Y15570   1.356   0.175   9.809 -1.9441  1.5753  0.7152
  142SAPE   C3615571   1.526   0.196   9.683 -0.1791 -0.2814 -0.5428
  142SAPE   H6X15572   1.572   0.095   9.684  1.0269  0.2516 -0.3014
  142SAPE   H6Y15573   1.606   0.272   9.673  0.6359 -1.2552 -1.7186
  142SAPE   C3715574   1.444   0.209   9.558  0.0282  0.5115  0.4873
  142SAPE   H7X15575   1.353   0.145   9.562  1.4549 -1.6721 -0.2982
  142SAPE   H7Y15576   1.495   0.162   9.471 -0.7967 -0.3958  0.4798
  142SAPE   C3815577   1.402   0.351   9.533 -0.5169 -0.0592 -0.4064
  142SAPE   H8X15578   1.496   0.410   9.525  0.1824 -0.7103  2.1585
  142SAPE   H8Y15579   1.349   0.391   9.622  1.2672 -0.3717  0.8584
  142SAPE   C3915580   1.325   0.369   9.402  0.4409  0.3856 -0.7047
  142SAPE   H9X15581   1.231   0.309   9.402 -0.9112  2.3989 -1.5822
  142SAPE   H9Y15582   1.388   0.330   9.320 -2.4073 -0.7117 -2.5391
  142SAPE  C31015583   1.289   0.506   9.350 -0.0485 -0.0037 -0.1306
  142SAPE  H10X15584   1.378   0.561   9.312 -1.6485  3.1703  0.4159
  142SAPE  H10Y15585   1.243   0.570   9.428  0.9681  0.7071 -0.0904
  142SAPE  C31115586   1.182   0.517   9.233 -0.1516 -0.0219  0.3599
  142SAPE  H11X15587   1.172   0.626   9.212 -0.5692  0.3591  2.2900
  142SAPE  H11Y15588   1.082   0.487   9.273 -0.0458  0.8875  1.3699
  142SAPE  C31215589   1.223   0.445   9.104 -0.1148  0.6728 -0.4929
  142SAPE  H12X15590   1.236   0.337   9.123  1.5572  0.7539 -0.9998
  142SAPE  H12Y15591   1.322   0.491   9.080 -0.1504  0.4262 -1.1143
  142SAPE  C31315592   1.126   0.479   8.995  0.3371  0.1280 -0.2952
  142SAPE  H13X15593   1.128   0.587   8.969  0.8716  0.5644  1.3957
  142SAPE  H13Y15594   1.026   0.453   9.035  0.5015  1.8261  1.4089
  142SAPE  C31415595   1.139   0.397   8.859 -0.0777  0.6183  0.3548
  142SAPE  H14X15596   1.052   0.416   8.791  0.5068 -1.1517 -0.9796
  142SAPE  H14Y15597   1.137   0.287   8.874  1.3900  0.5491  0.1962
  142SAPE  C31515598   1.257   0.431   8.770  0.0399 -0.1478  0.6508
  142SAPE  H15X15599   1.348   0.414   8.831  0.6251 -1.4405 -0.5237
  142SAPE  H15Y15600   1.251   0.539   8.745  0.0027 -0.7905 -2.5560
  142SAPE  C31615601   1.251   0.354   8.638 -0.1896  0.4070  0.9179
  142SAPE  H16X15602   1.165   0.396   8.581 -0.1738 -0.8562 -0.0715
  142SAPE  H16Y15603   1.218   0.249   8.655 -1.0140  0.6835  1.0744
  142SAPE  C31715604   1.375   0.377   8.558 -0.0546 -0.2043  0.0132
  142SAPE  H17X15605   1.466   0.340   8.609  0.8854  0.3015 -1.2282
  142SAPE  H17Y15606   1.385   0.487   8.544 -2.0776 -0.0379 -0.5195
  142SAPE  C31815607   1.379   0.316   8.418  0.0917  0.0414 -0.4225
  142SAPE  H18X15608   1.472   0.349   8.368  0.8739 -0.7513  0.4536
  142SAPE  H18Y15609   1.293   0.352   8.358 -0.3946  0.3575  0.4431
  142SAPE  H18Z15610   1.387   0.205   8.421 -0.6888 -0.0167  1.8528
  143SAPE     N15611   2.236   0.036  11.201 -0.4137  0.7154 -0.0700
  143SAPE   HN115612   2.155  -0.026  11.218 -0.3660  0.9241  0.9932
  143SAPE   HN215613   2.327  -0.015  11.199 -0.1950  1.0768  0.4750
  143SAPE   HN315614   2.243   0.101  11.282 -2.0979  1.9300 -0.8301
  143SAPE   C1215615   2.211   0.107  11.073  0.4332  0.4252  0.8249
  143SAPE  H12A15616   2.293   0.167  11.030  0.2801 -0.5677 -0.9566
  143SAPE  H12B15617   2.125   0.177  11.076  0.3028  0.4929 -1.8159
  143SAPE   C1115618   2.193   0.012  10.953  0.1755  0.0652 -0.4512
  143SAPE  H11A15619   2.182   0.066  10.856 -0.9008  0.6299 -0.0323
  143SAPE  H11B15620   2.095  -0.040  10.961 -1.3592  2.9165  0.7188
  143SAPE     P15621   2.316  -0.199  10.855  0.5573 -0.3954 -0.1407
  143SAPE   O1315622   2.461  -0.198  10.822  0.0097 -0.2631 -0.0772
  143SAPE   O1415623   2.244  -0.318  10.902  0.0920 -0.4133 -0.2812
  143SAPE   O1215624   2.289  -0.086  10.959  0.1342 -0.1433  0.0701
  143SAPE   O1115625   2.243  -0.140  10.731  0.4352 -0.4182  0.5943
  143SAPE    C115626   2.104  -0.178  10.698 -0.7232 -0.6667  0.0237
  143SAPE    HA15627   2.046  -0.224  10.781 -0.4492 -0.6434  0.2302
  143SAPE    HB15628   2.052  -0.084  10.668  2.3975  0.9753 -0.6775
  143SAPE    C215629   2.103  -0.274  10.570  0.1225  0.0397 -0.6991
  143SAPE    HS15630   2.183  -0.350  10.585 -0.6254 -0.4137  1.2796
  143SAPE   O2115631   2.109  -0.187  10.449 -0.6637  0.2373  0.6608
  143SAPE   C2115632   2.223  -0.174  10.395  0.7168 -0.1144 -0.0968
  143SAPE   O2215633   2.325  -0.235  10.425  0.2258  0.3637  0.1014
  143SAPE   C2215634   2.217  -0.059  10.289 -0.1704 -0.3582  0.7640
  143SAPE   H2R15635   2.121  -0.058  10.234  0.3527 -0.6137 -0.1836
  143SAPE   H2S15636   2.229   0.037  10.344  0.6016 -1.0975  1.9255
  143SAPE    C315637   1.972  -0.355  10.563 -0.3731  0.0753  0.2438
  143SAPE    HX15638   1.887  -0.286  10.586 -0.6017 -0.1224  0.0063
  143SAPE    HY15639   1.987  -0.429  10.644  0.9853 -1.3549 -1.2466
  143SAPE   O3115640   1.960  -0.437  10.438 -0.1725 -0.2686  0.1601
  143SAPE   C3115641   1.873  -0.381  10.352  0.2401  0.1023  0.7557
  143SAPE   O3215642   1.811  -0.279  10.370 -0.5222  0.2988 -0.2366
  143SAPE   C3215643   1.890  -0.450  10.221  0.4774  0.1572  0.2951
  143SAPE   H2X15644   1.828  -0.542  10.222  0.6293  0.0393 -0.5577
  143SAPE   H2Y15645   1.990  -0.497  10.212  0.1905 -0.6258  1.0738
  143SAPE   C2315646   2.338  -0.083  10.195 -0.4488 -0.7477  0.1728
  143SAPE   H3R15647   2.425  -0.068  10.263 -0.6734  3.3179 -0.1838
  143SAPE   H3S15648   2.342   0.000  10.122  0.2598 -0.5756  0.3927
  143SAPE   C2415649   2.353  -0.218  10.130 -0.4573 -0.0349  0.7440
  143SAPE   H4R15650   2.364  -0.302  10.202 -0.4183 -0.9237 -0.2828
  143SAPE   H4S15651   2.452  -0.224  10.080 -1.4807 -1.4271 -1.2322
  143SAPE   C2515652   2.237  -0.243  10.033  0.3458  0.1789 -0.2745
  143SAPE   H5R15653   2.145  -0.280  10.079 -0.5488  1.5636 -0.8677
  143SAPE   C2615654   2.233  -0.235   9.897  0.2501  0.0149 -0.3023
  143SAPE   H6R15655   2.140  -0.269   9.849 -1.3502 -0.3529  2.7629
  143SAPE   C2715656   2.349  -0.193   9.812 -0.0344 -0.0100 -0.3223
  143SAPE   H7R15657   2.431  -0.151   9.874  0.4822  0.8367 -1.5334
  143SAPE   H7S15658   2.318  -0.102   9.756  2.3791  1.1989  0.1706
  143SAPE   C2815659   2.390  -0.302   9.717  0.0524 -0.4702 -0.5815
  143SAPE   H8R15660   2.460  -0.375   9.760 -0.5089  0.3432  1.8805
  143SAPE   C2915661   2.341  -0.320   9.592 -0.6511 -0.2160 -0.5519
  143SAPE   H9R15662   2.396  -0.397   9.536 -1.8059  0.1960 -2.3392
  143SAPE  C21015663   2.257  -0.228   9.511 -0.5362  0.4495  0.9012
  143SAPE  H10R15664   2.224  -0.135   9.561  1.8227  1.2697  1.0579
  143SAPE  H10S15665   2.161  -0.276   9.484  1.5632 -1.6533 -4.0397
  143SAPE  C21115666   2.328  -0.190   9.381  0.5867 -0.1041 -0.9390
  143SAPE  H11R15667   2.424  -0.140   9.400  0.2829  0.1990 -0.1024
  143SAPE  C21215668   2.298  -0.228   9.260 -0.1367 -0.0608  0.1039
  143SAPE  H12R15669   2.343  -0.168   9.180 -3.6744  0.4241 -1.7566
  143SAPE  C21315670   2.193  -0.324   9.211 -0.3186 -0.2307  0.6527
  143SAPE  H13R15671   2.097  -0.279   9.177  1.0466  1.5165 -1.0714
  143SAPE  H13S15672   2.175  -0.390   9.299 -0.0534 -0.4424  0.5493
  143SAPE  C21415673   2.235  -0.421   9.100  0.2330  0.4208 -0.4900
  143SAPE  H14R15674   2.225  -0.526   9.133  2.5083 -0.1346 -1.3331
  143SAPE  C21515675   2.284  -0.395   8.978  0.2399  0.2929  0.5785
  143SAPE  H15R15676   2.325  -0.476   8.915  2.0065  2.6240 -1.4808
  143SAPE  C21615677   2.307  -0.255   8.922 -0.0572  0.2772  0.2838
  143SAPE  H16R15678   2.238  -0.189   8.980  0.9531  0.0898  1.7383
  143SAPE  H16S15679   2.279  -0.252   8.814  2.4079 -1.6006 -0.4953
  143SAPE  C21715680   2.454  -0.203   8.934  0.3663 -0.2237 -0.0573
  143SAPE  H17R15681   2.521  -0.264   8.869 -0.4447  0.5716 -1.6922
  143SAPE  H17S15682   2.476  -0.211   9.043  0.0476  2.4115  0.2546
  143SAPE  C21815683   2.477  -0.056   8.897 -0.5775 -0.1556  0.6594
  143SAPE  H18R15684   2.582  -0.024   8.908 -1.1339  2.6096 -1.0042
  143SAPE  H18S15685   2.408   0.008   8.956 -0.5100  0.2437  0.3070
  143SAPE  C21915686   2.439  -0.025   8.758  0.4412  1.2642  0.2319
  143SAPE  H19R15687   2.337  -0.065   8.738  2.2305 -3.3278 -0.9581
  143SAPE  H19S15688   2.500  -0.088   8.690 -0.6029 -0.1325  0.5359
  143SAPE  C22015689   2.445   0.120   8.731 -0.0238  0.2070  0.1131
  143SAPE  H20R15690   2.450   0.132   8.620  1.5321 -0.6745  0.0679
  143SAPE  H20S15691   2.533   0.173   8.772 -1.2752  1.9939  0.6179
  143SAPE  H20T15692   2.363   0.179   8.777  0.1823  0.6304 -0.0509
  143SAPE   C3315693   1.853  -0.365  10.102 -0.4612 -1.3564 -0.0404
  143SAPE   H3X15694   1.912  -0.271  10.098 -2.6244  0.0428 -0.3675
  143SAPE   H3Y15695   1.748  -0.331  10.096  0.5527  1.8938 -2.3523
  143SAPE   C3415696   1.878  -0.439   9.971  0.1257  0.1096 -0.0759
  143SAPE   H4X15697   1.812  -0.528   9.983 -0.5628  0.7942  1.5780
  143SAPE   H4Y15698   1.987  -0.457   9.976  0.1215 -0.8855 -2.3115
  143SAPE   C3515699   1.836  -0.354   9.848  0.0258  0.8248  0.3677
  143SAPE   H5X15700   1.903  -0.266   9.857 -0.7993  1.3378  1.9085
  143SAPE   H5Y15701   1.728  -0.329   9.856 -0.1111  0.0880  0.9548
  143SAPE   C3615702   1.875  -0.418   9.711  0.1823 -0.1865 -0.5952
  143SAPE   H6X15703   1.855  -0.527   9.719  2.5540 -0.6785 -0.8329
  143SAPE   H6Y15704   1.983  -0.397   9.701 -0.0855  2.2245  0.6323
  143SAPE   C3715705   1.794  -0.355   9.587 -0.1618  0.0488 -0.3662
  143SAPE   H7X15706   1.789  -0.245   9.595 -1.0921  0.1158 -1.5622
  143SAPE   H7Y15707   1.687  -0.382   9.600 -0.5967  2.3060  1.2879
  143SAPE   C3815708   1.852  -0.408   9.456 -0.1342  0.0315 -0.4301
  143SAPE   H8X15709   1.859  -0.519   9.454 -1.2980 -0.0528 -0.5743
  143SAPE   H8Y15710   1.958  -0.376   9.444  0.3366 -1.5467 -0.6523
  143SAPE   C3915711   1.772  -0.364   9.334 -0.6826  0.3143  0.1749
  143SAPE   H9X15712   1.770  -0.253   9.331 -0.1692  0.3179 -0.2204
  143SAPE   H9Y15713   1.668  -0.396   9.355 -0.6061  0.4667  0.8222
  143SAPE  C31015714   1.824  -0.427   9.204  0.1350  0.5473  0.2883
  143SAPE  H10X15715   1.773  -0.526   9.197 -3.5155  2.2351  1.0745
  143SAPE  H10Y15716   1.934  -0.422   9.216  0.2429  2.5406 -1.0225
  143SAPE  C31115717   1.793  -0.346   9.079  0.4114 -0.3722 -0.7433
  143SAPE  H11X15718   1.793  -0.236   9.096 -1.0853 -0.4775  0.0748
  143SAPE  H11Y15719   1.693  -0.364   9.035  2.0675 -1.3778 -4.5294
  143SAPE  C31215720   1.892  -0.375   8.957  0.5355  0.2015 -0.5406
  143SAPE  H12X15721   1.989  -0.382   9.010  0.2651  2.4076  0.3633
  143SAPE  H12Y15722   1.893  -0.286   8.890  2.8021  1.0341  0.4875
  143SAPE  C31315723   1.860  -0.498   8.880  0.7042  0.7758  0.1527
  143SAPE  H13X15724   1.775  -0.482   8.810  0.8169  2.9672  0.4625
  143SAPE  H13Y15725   1.818  -0.569   8.955  0.4758  1.4845  0.7159
  143SAPE  C31415726   1.983  -0.546   8.802 -0.2594 -0.3252 -0.3298
  143SAPE  H14X15727   1.953  -0.644   8.760  0.9608 -1.0027  0.3527
  143SAPE  H14Y15728   2.069  -0.566   8.869 -1.9041 -0.0296  1.9537
  143SAPE  C31515729   2.023  -0.453   8.687  0.0654 -0.0846  0.1409
  143SAPE  H15X15730   2.114  -0.493   8.638  0.2892  0.0071  0.4798
  143SAPE  H15Y15731   2.059  -0.357   8.728 -0.8166 -0.2583  1.3643
  143SAPE  C31615732   1.919  -0.415   8.584 -0.1037 -0.2743 -0.7103
  143SAPE  H16X15733   1.856  -0.327   8.611  1.4842  0.5486  0.6007
  143SAPE  H16Y15734   1.852  -0.500   8.564 -0.4829 -0.2125  0.2453
  143SAPE  C31715735   1.983  -0.385   8.455 -0.1511 -0.0714 -0.3592
  143SAPE  H17X15736   2.020  -0.474   8.400  2.8563  0.5553  0.5123
  143SAPE  H17Y15737   2.069  -0.317   8.472 -1.0970  0.6460  1.9656
  143SAPE  C31815738   1.886  -0.312   8.363 -0.0708  0.1338  0.4966
  143SAPE  H18X15739   1.945  -0.277   8.276 -1.3051 -1.2130 -0.9429
  143SAPE  H18Y15740   1.845  -0.218   8.405  0.1131 -0.6128  2.4355
  143SAPE  H18Z15741   1.808  -0.380   8.323 -0.1840  1.8491 -2.4266
  144SAPE     N15742   5.528   4.345  10.509 -0.0280 -0.0171 -0.1480
  144SAPE   HN115743   5.495   4.351  10.411  0.6732  0.9972 -0.3356
  144SAPE   HN215744   5.455   4.279  10.545 -0.5883 -0.3701 -1.8673
  144SAPE   HN315745   5.528   4.434  10.562 -0.9331 -1.7253  2.9914
  144SAPE   C1215746   5.660   4.280  10.514 -0.2124  0.7286 -0.1249
  144SAPE  H12A15747   5.739   4.345  10.472 -2.0821  0.8737 -3.8557
  144SAPE  H12B15748   5.653   4.190  10.450 -0.2844  0.6268  0.0244
  144SAPE   C1115749   5.690   4.244  10.658 -0.1547 -0.0907  0.0404
  144SAPE  H11A15750   5.771   4.170  10.671 -0.1189  0.2439  2.0250
  144SAPE  H11B15751   5.608   4.187  10.707  1.3003 -0.6467  1.9432
  144SAPE     P15752   5.864   4.427  10.759 -0.1072 -0.5259  0.4245
  144SAPE   O1315753   5.848   4.556  10.833 -0.3511 -0.5864  0.5354
  144SAPE   O1415754   5.970   4.339  10.806  0.7486  0.6312 -0.0873
  144SAPE   O1215755   5.720   4.359  10.743  0.1711  0.1066 -0.6713
  144SAPE   O1115756   5.901   4.472  10.610  0.5553  0.0553  0.1434
  144SAPE    C115757   5.841   4.582  10.551  0.6286 -0.0062 -0.5952
  144SAPE    HA15758   5.731   4.591  10.560  0.8828  1.8567  1.0918
  144SAPE    HB15759   5.872   4.674  10.604  0.9985  0.4029 -1.4931
  144SAPE    C215760   5.879   4.594  10.399 -0.8371 -0.4934 -0.3695
  144SAPE    HS15761   5.839   4.696  10.379  0.7549  0.0573 -0.8947
  144SAPE   O2115762   5.821   4.485  10.328 -0.3362 -0.1371 -0.1123
  144SAPE   C2115763   5.781   4.513  10.204 -0.0500  0.2822 -0.8006
  144SAPE   O2215764   5.794   4.611  10.134 -0.2694  0.1052  0.6216
  144SAPE   C2215765   5.696   4.398  10.159 -0.4895 -0.4250 -0.2062
  144SAPE   H2R15766   5.642   4.363  10.249  0.6686 -2.3965 -0.2158
  144SAPE   H2S15767   5.622   4.427  10.081 -1.0770 -1.9938 -0.2597
  144SAPE    C315768   6.028   4.587  10.389 -0.4027  0.6325  0.0896
  144SAPE    HX15769   6.062   4.482  10.406  0.1386  0.8468  0.3823
  144SAPE    HY15770   6.085   4.651  10.461 -1.4856  1.0877  0.5579
  144SAPE   O3115771   6.063   4.613  10.258  0.0093 -0.0997  0.5053
  144SAPE   C3115772   6.077   4.750  10.236  0.4045 -0.4127  0.5199
  144SAPE   O3215773   6.046   4.838  10.312  0.1678  0.2382 -0.2939
  144SAPE   C3215774   6.125   4.763  10.091 -0.1471  0.6460  0.5563
  144SAPE   H2X15775   6.039   4.757  10.020 -0.2320  0.9429  0.6320
  144SAPE   H2Y15776   6.182   4.670  10.070  0.7633  1.3421 -0.1364
  144SAPE   C2315777   5.788   4.299  10.092  0.3887  0.5903  0.3531
  144SAPE   H3R15778   5.847   4.234  10.160  1.2409  0.5121 -0.4436
  144SAPE   H3S15779   5.860   4.346  10.022  1.2822 -1.6487 -0.3228
  144SAPE   C2415780   5.708   4.203   9.991 -0.0758 -0.1391 -0.3759
  144SAPE   H4R15781   5.662   4.135  10.066 -0.0338  0.6362  0.3721
  144SAPE   H4S15782   5.773   4.135   9.932  1.6538 -1.5165  2.8990
  144SAPE   C2515783   5.604   4.254   9.893  0.5960 -0.8302  0.5144
  144SAPE   H5R15784   5.502   4.227   9.925 -0.3145 -0.6836 -2.0310
  144SAPE   C2615785   5.618   4.325   9.778 -0.6412 -0.0603  0.1760
  144SAPE   H6R15786   5.527   4.351   9.721 -1.6742  0.2610  1.9174
  144SAPE   C2715787   5.745   4.366   9.700  0.3186 -0.9512 -0.3258
  144SAPE   H7R15788   5.719   4.359   9.592 -1.5626  1.5724 -0.1155
  144SAPE   H7S15789   5.827   4.295   9.724  2.0494  0.7313 -0.9396
  144SAPE   C2815790   5.792   4.501   9.740  0.0752  0.1136 -0.0870
  144SAPE   H8R15791   5.790   4.522   9.848  2.1549  0.2256 -0.0290
  144SAPE   C2915792   5.839   4.597   9.656 -0.3627 -0.2088  0.4081
  144SAPE   H9R15793   5.876   4.689   9.702 -0.9276 -0.1886  0.8176
  144SAPE  C21015794   5.832   4.599   9.507  0.7648  0.5615 -0.2484
  144SAPE  H10R15795   5.756   4.674   9.477 -1.0805 -0.5595  1.3418
  144SAPE  H10S15796   5.799   4.504   9.460  3.3508 -1.0691  0.9754
  144SAPE  C21115797   5.958   4.631   9.443  0.2905 -0.2933  0.3334
  144SAPE  H11R15798   6.052   4.622   9.499  1.0338  0.3583 -0.7595
  144SAPE  C21215799   5.970   4.667   9.313  0.0147 -0.6867  0.2909
  144SAPE  H12R15800   6.065   4.689   9.262 -0.6947  0.9873 -0.3528
  144SAPE  C21315801   5.855   4.672   9.208  0.2072  1.1073 -0.1561
  144SAPE  H13R15802   5.755   4.635   9.239 -0.6062  1.8589 -1.7648
  144SAPE  H13S15803   5.865   4.604   9.121 -0.5912  1.7506 -0.7616
  144SAPE  C21415804   5.819   4.811   9.163  0.4178 -0.2411  0.2222
  144SAPE  H14R15805   5.729   4.852   9.211  0.2405 -1.1238  0.6550
  144SAPE  C21515806   5.878   4.871   9.058  0.0628 -0.3698  0.6541
  144SAPE  H15R15807   5.839   4.967   9.021  0.9372 -1.1421 -2.5764
  144SAPE  C21615808   5.987   4.814   8.967  0.6027  0.4324 -0.4668
  144SAPE  H16R15809   6.043   4.730   9.013  2.4310  1.1600 -1.2702
  144SAPE  H16S15810   6.068   4.887   8.947 -0.8228  2.0593 -0.4819
  144SAPE  C21715811   5.934   4.750   8.833  0.8502 -0.9924 -0.4866
  144SAPE  H17R15812   5.851   4.681   8.857  1.0902 -0.9310  0.5578
  144SAPE  H17S15813   6.015   4.708   8.769  2.1942 -0.6799  0.9403
  144SAPE  C21815814   5.871   4.864   8.750  0.0543  0.2677 -0.0401
  144SAPE  H18R15815   5.943   4.949   8.751 -0.4759  0.7204  0.5793
  144SAPE  H18S15816   5.775   4.899   8.793  0.3174  0.3556  0.4863
  144SAPE  C21915817   5.848   4.831   8.599  0.4171 -0.5557  0.0643
  144SAPE  H19R15818   5.768   4.753   8.606 -1.6400  1.4421  0.0488
  144SAPE  H19S15819   5.948   4.805   8.560 -0.5363  0.7430 -3.6829
  144SAPE  C22015820   5.797   4.949   8.522 -0.0613 -0.3586 -0.5369
  144SAPE  H20R15821   5.876   5.026   8.508  0.2908 -0.5811  0.1953
  144SAPE  H20S15822   5.705   4.991   8.567 -0.1406 -0.4926 -0.5742
  144SAPE  H20T15823   5.755   4.923   8.423  0.4381  0.8639 -1.0968
  144SAPE   C3315824   6.223   4.877  10.061  0.1003  0.7982  0.1711
  144SAPE   H3X15825   6.316   4.853  10.117 -0.7207 -1.8259  0.5291
  144SAPE   H3Y15826   6.187   4.974  10.103 -1.1906  0.0355  0.8868
  144SAPE   C3415827   6.254   4.899   9.917  0.0440  0.7072  0.2082
  144SAPE   H4X15828   6.291   4.802   9.878 -1.0996  1.0922 -1.9865
  144SAPE   H4Y15829   6.336   4.969   9.888 -0.3551  0.3792 -1.8739
  144SAPE   C3515830   6.136   4.929   9.832  0.7333 -0.7386 -0.0259
  144SAPE   H5X15831   6.087   5.027   9.850 -0.9699 -1.3262 -1.1935
  144SAPE   H5Y15832   6.060   4.849   9.845  1.9509 -1.7232  1.4293
  144SAPE   C3615833   6.168   4.917   9.677  0.3979 -0.5193 -0.8503
  144SAPE   H6X15834   6.080   4.960   9.625 -0.3365 -1.0691 -0.1041
  144SAPE   H6Y15835   6.175   4.810   9.648 -1.2829 -1.0410  0.4810
  144SAPE   C3715836   6.302   4.975   9.624 -1.3266 -0.8246 -0.3028
  144SAPE   H7X15837   6.375   4.906   9.671 -0.4846  1.7465  2.4715
  144SAPE   H7Y15838   6.306   5.080   9.658 -1.3151 -1.6786  2.5849
  144SAPE   C3815839   6.312   4.968   9.474  0.4580 -0.4634  0.2868
  144SAPE   H8X15840   6.235   5.041   9.440  0.7106 -0.8766 -1.2634
  144SAPE   H8Y15841   6.285   4.871   9.426 -0.1222 -0.3295  0.3262
  144SAPE   C3915842   6.445   5.010   9.412 -0.2243  0.2872  0.6351
  144SAPE   H9X15843   6.510   4.920   9.412 -0.6782 -0.0523  1.2418
  144SAPE   H9Y15844   6.498   5.074   9.486 -1.3163  2.4200 -0.3708
  144SAPE  C31015845   6.428   5.089   9.285  0.0717 -0.2888  0.3223
  144SAPE  H10X15846   6.527   5.138   9.275 -0.9209  1.9803  0.9024
  144SAPE  H10Y15847   6.360   5.175   9.299  1.3002  0.6016  1.0171
  144SAPE  C31115848   6.368   4.995   9.176  0.4290 -0.7827  0.5199
  144SAPE  H11X15849   6.278   4.948   9.221 -2.6646  3.5481 -0.5407
  144SAPE  H11Y15850   6.437   4.913   9.147  1.3819  0.1853 -0.0266
  144SAPE  C31215851   6.326   5.072   9.052 -0.3864 -0.8451  0.3017
  144SAPE  H12X15852   6.261   5.161   9.068  0.6896  0.6470 -2.7262
  144SAPE  H12Y15853   6.255   5.011   8.990  0.7760 -0.3675 -1.5928
  144SAPE  C31315854   6.440   5.127   8.963  0.2816  0.2189  0.5857
  144SAPE  H13X15855   6.475   5.042   8.900  3.4283  1.7223  0.1513
  144SAPE  H13Y15856   6.531   5.168   9.011 -0.1166  0.4403  1.1624
  144SAPE  C31415857   6.381   5.237   8.868 -0.8897 -0.5594  0.4481
  144SAPE  H14X15858   6.368   5.333   8.922 -1.0742 -0.4247  0.1628
  144SAPE  H14Y15859   6.282   5.203   8.831  0.1043 -2.7146 -0.3623
  144SAPE  C31515860   6.472   5.262   8.750 -0.9230 -0.7619  0.5675
  144SAPE  H15X15861   6.486   5.183   8.673 -1.9076 -1.5838  1.2128
  144SAPE  H15Y15862   6.570   5.287   8.796 -1.1871 -0.6514  1.0763
  144SAPE  C31615863   6.421   5.384   8.670 -0.2495 -0.2810 -0.6735
  144SAPE  H16X15864   6.385   5.463   8.740  0.6889  0.0279 -0.5219
  144SAPE  H16Y15865   6.331   5.357   8.611 -1.0428  1.1883 -0.1792
  144SAPE  C31715866   6.524   5.426   8.568  0.0908  0.3425  0.7637
  144SAPE  H17X15867   6.551   5.337   8.506  0.8861 -1.1124  3.0824
  144SAPE  H17Y15868   6.616   5.475   8.607  1.1900 -0.3789 -0.7965
  144SAPE  C31815869   6.450   5.528   8.477  0.2222  0.3144  0.2309
  144SAPE  H18X15870   6.512   5.557   8.390 -0.7984  0.9844 -0.2889
  144SAPE  H18Y15871   6.412   5.619   8.529 -0.4294 -0.5502  1.3326
  144SAPE  H18Z15872   6.359   5.481   8.433  0.5496 -0.8420  0.7235
  145SAPE     N15873   1.024   6.058  10.744 -0.1689  0.2566 -0.6277
  145SAPE   HN115874   1.106   5.997  10.764 -1.4434 -1.4962 -0.5169
  145SAPE   HN215875   1.003   6.044  10.643  0.5969  0.7047 -0.8593
  145SAPE   HN315876   1.052   6.158  10.756 -1.6207  0.4094  2.4364
  145SAPE   C1215877   0.908   6.018  10.837  0.3881 -0.6303 -0.6873
  145SAPE  H12A15878   0.923   5.915  10.875 -1.7818 -1.1500 -1.1021
  145SAPE  H12B15879   0.816   6.022  10.774 -0.8487  1.6225  1.0970
  145SAPE   C1115880   0.900   6.117  10.947 -0.2683 -0.4166 -0.2572
  145SAPE  H11A15881   0.998   6.111  10.998  0.1969 -0.6372 -1.1566
  145SAPE  H11B15882   0.820   6.079  11.015  0.7347  0.0224  1.2154
  145SAPE     P15883   0.736   6.318  10.897 -0.0858 -0.0379 -0.1348
  145SAPE   O1315884   0.659   6.224  10.814  0.1431  0.5511 -0.2485
  145SAPE   O1415885   0.681   6.345  11.034 -0.1463  0.6498 -0.6408
  145SAPE   O1215886   0.883   6.256  10.909 -0.7675  0.4431 -0.2379
  145SAPE   O1115887   0.746   6.455  10.821  0.5121  0.2481  0.3058
  145SAPE    C115888   0.845   6.494  10.716  0.4742  0.1778 -0.0651
  145SAPE    HA15889   0.870   6.602  10.727  0.3639  0.3232 -1.1559
  145SAPE    HB15890   0.933   6.428  10.730  0.3069  0.1486  1.0102
  145SAPE    C215891   0.790   6.470  10.572  0.0666  0.0069 -0.1217
  145SAPE    HS15892   0.825   6.373  10.533  1.2550  0.1884  0.4460
  145SAPE   O2115893   0.851   6.569  10.483  0.5655  0.3764 -0.5878
  145SAPE   C2115894   0.978   6.579  10.470  0.3288 -0.0751 -0.1143
  145SAPE   O2215895   1.063   6.507  10.521 -0.4853 -0.2736 -0.4403
  145SAPE   C2215896   1.002   6.674  10.347 -0.1885  0.6876 -0.0526
  145SAPE   H2R15897   0.994   6.780  10.378  0.0524  0.5555  0.4945
  145SAPE   H2S15898   1.108   6.660  10.319 -0.2187 -1.6751  0.7686
  145SAPE    C315899   0.633   6.467  10.564 -0.6008 -0.3041  0.2785
  145SAPE    HX15900   0.596   6.556  10.620 -0.3456 -0.8800  1.3929
  145SAPE    HY15901   0.602   6.375  10.618  0.4166 -0.5453  0.4678
  145SAPE   O3115902   0.590   6.457  10.426 -0.0195 -0.2430 -0.4596
  145SAPE   C3115903   0.548   6.580  10.368  0.5870  0.6205  0.3960
  145SAPE   O3215904   0.550   6.687  10.418  0.4345  0.4461  0.1203
  145SAPE   C3215905   0.506   6.553  10.220 -0.6516 -0.2354  0.3067
  145SAPE   H2X15906   0.524   6.649  10.167 -0.5874  1.7472  3.6835
  145SAPE   H2Y15907   0.398   6.530  10.211 -0.2762 -1.3979 -2.3910
  145SAPE   C2315908   0.908   6.646  10.222 -0.1088  0.1151  0.1315
  145SAPE   H3R15909   0.804   6.636  10.258 -0.9383  1.7545 -1.5975
  145SAPE   H3S15910   0.943   6.553  10.173  3.2277  1.3117 -0.0348
  145SAPE   C2415911   0.910   6.759  10.114  0.1723 -0.1280 -0.8826
  145SAPE   H4R15912   0.888   6.848  10.177 -0.3181 -1.3425  0.7340
  145SAPE   H4S15913   0.817   6.761  10.052 -2.7439  3.1814  2.9781
  145SAPE   C2515914   1.047   6.769  10.049  0.6153 -0.6581 -0.6219
  145SAPE   H5R15915   1.131   6.779  10.119  0.4425 -0.3744 -0.4562
  145SAPE   C2615916   1.067   6.762   9.919 -0.4673  0.6552 -0.7897
  145SAPE   H6R15917   1.170   6.782   9.889 -0.1397 -2.1693 -1.8061
  145SAPE   C2715918   0.959   6.748   9.819 -0.3226 -0.2323 -0.0465
  145SAPE   H7R15919   0.943   6.853   9.785 -1.9704  0.3306  2.2469
  145SAPE   H7S15920   0.866   6.699   9.854 -0.5338  0.5905  0.5636
  145SAPE   C2815921   1.009   6.663   9.700 -1.0075 -0.0318 -0.2617
  145SAPE   H8R15922   1.038   6.560   9.728  2.1790  1.4802  2.8936
  145SAPE   C2915923   1.032   6.687   9.572 -0.8206 -0.3101  0.2220
  145SAPE   H9R15924   1.070   6.611   9.502 -1.5005 -0.9470  0.5338
  145SAPE  C21015925   1.000   6.821   9.501  0.5206 -0.4286 -0.2432
  145SAPE  H10R15926   1.078   6.845   9.426  1.0432  0.8212  0.6704
  145SAPE  H10S15927   1.005   6.902   9.578  0.7636 -0.3056 -0.3870
  145SAPE  C21115928   0.862   6.813   9.443  0.2055 -0.1777  0.2185
  145SAPE  H11R15929   0.788   6.745   9.487 -1.4117  1.0464 -0.4965
  145SAPE  C21215930   0.831   6.873   9.326  0.2650 -0.4262 -0.0136
  145SAPE  H12R15931   0.727   6.862   9.290  0.0265 -1.0201  0.8335
  145SAPE  C21315932   0.926   6.954   9.240 -0.8414 -0.4630  0.0904
  145SAPE  H13R15933   1.020   6.895   9.233 -1.0634 -0.9347  0.9068
  145SAPE  H13S15934   0.963   7.047   9.288  0.0025 -0.2930 -0.8537
  145SAPE  C21415935   0.871   6.981   9.108  0.2297  0.3574  0.1883
  145SAPE  H14R15936   0.792   7.057   9.099  0.2710  0.3811  0.0212
  145SAPE  C21515937   0.897   6.905   9.000 -0.2366  0.2984  0.3867
  145SAPE  H15R15938   0.842   6.941   8.912 -0.4321  1.9558  1.1586
  145SAPE  C21615939   0.984   6.779   8.984  0.2250  0.6436  0.3892
  145SAPE  H16R15940   0.916   6.694   8.963  1.1034 -0.1143  0.5351
  145SAPE  H16S15941   1.040   6.749   9.075  2.4791  1.8307 -0.5182
  145SAPE  C21715942   1.096   6.808   8.880  0.2015 -0.0867  0.2085
  145SAPE  H17R15943   1.172   6.727   8.886 -0.5902 -0.8660 -0.0635
  145SAPE  H17S15944   1.153   6.901   8.898  0.6625 -0.2064 -0.5822
  145SAPE  C21815945   1.038   6.786   8.736 -0.6148 -0.3248  0.1783
  145SAPE  H18R15946   0.959   6.863   8.719 -0.1586 -0.2002 -1.5394
  145SAPE  H18S15947   1.000   6.682   8.742  3.3094 -1.8622  1.4212
  145SAPE  C21915948   1.142   6.793   8.624  0.1478 -0.5138  0.0412
  145SAPE  H19R15949   1.215   6.875   8.636  0.3248 -0.5151 -0.9308
  145SAPE  H19S15950   1.098   6.829   8.528  1.7511 -0.7502 -0.8295
  145SAPE  C22015951   1.229   6.668   8.606 -0.4362  0.0293 -0.3314
  145SAPE  H20R15952   1.309   6.699   8.535  0.1305  0.8392  0.6455
  145SAPE  H20S15953   1.175   6.583   8.559  0.2641  0.4298 -1.9329
  145SAPE  H20T15954   1.273   6.635   8.702 -0.3436  0.1294 -0.3402
  145SAPE   C3315955   0.593   6.441  10.147  0.2080 -0.1357  0.1825
  145SAPE   H3X15956   0.599   6.348  10.208  0.1052 -1.2580 -1.4488
  145SAPE   H3Y15957   0.702   6.459  10.129  1.0444 -0.7073  3.8223
  145SAPE   C3415958   0.542   6.399  10.013  0.1802 -0.2327 -0.1388
  145SAPE   H4X15959   0.433   6.374  10.016  0.1228 -0.3559 -2.0774
  145SAPE   H4Y15960   0.589   6.301   9.989  2.1701  0.1149  1.9748
  145SAPE   C3515961   0.577   6.500   9.902  0.2987  0.9915  0.0852
  145SAPE   H5X15962   0.688   6.509   9.894  0.5053 -0.5631  0.8254
  145SAPE   H5Y15963   0.525   6.596   9.925 -0.7877  1.1602 -2.6489
  145SAPE   C3615964   0.535   6.458   9.767  0.0561 -0.2951  0.0271
  145SAPE   H6X15965   0.424   6.466   9.767  0.1357  1.1060  0.4134
  145SAPE   H6Y15966   0.570   6.355   9.744 -1.9675 -1.2886  1.1332
  145SAPE   C3715967   0.572   6.565   9.664 -0.3119 -0.3079 -0.7068
  145SAPE   H7X15968   0.679   6.551   9.636  0.5201 -1.5337  2.6016
  145SAPE   H7Y15969   0.570   6.665   9.713 -0.3115 -0.6891  0.0826
  145SAPE   C3815970   0.495   6.563   9.536  0.1437  0.0772  0.4660
  145SAPE   H8X15971   0.517   6.655   9.477  0.2410  1.0523  1.9903
  145SAPE   H8Y15972   0.384   6.558   9.544  0.0977  0.3694  0.0719
  145SAPE   C3915973   0.523   6.447   9.440 -0.7952 -0.0481 -0.2787
  145SAPE   H9X15974   0.453   6.362   9.454  0.2072 -1.2094 -1.8820
  145SAPE   H9Y15975   0.625   6.411   9.466 -0.5174  1.3811  0.7297
  145SAPE  C31015976   0.515   6.487   9.292 -0.0895 -0.1220 -0.5974
  145SAPE  H10X15977   0.601   6.557   9.280 -0.0208  0.1470  1.2038
  145SAPE  H10Y15978   0.420   6.541   9.272  0.9113  1.4472 -1.3272
  145SAPE  C31115979   0.518   6.376   9.186  0.1700  0.5658  0.0137
  145SAPE  H11X15980   0.512   6.429   9.088  2.3871 -1.6819 -1.4765
  145SAPE  H11Y15981   0.427   6.314   9.200  0.7206 -0.4260 -0.5972
  145SAPE  C31215982   0.630   6.269   9.205  0.1027  0.6572  0.5128
  145SAPE  H12X15983   0.645   6.247   9.313  1.3213 -1.9030 -0.0811
  145SAPE  H12Y15984   0.722   6.321   9.170 -1.8069  3.1555 -1.1249
  145SAPE  C31315985   0.607   6.130   9.131 -0.6021 -0.0015  0.4622
  145SAPE  H13X15986   0.698   6.068   9.117 -2.8440 -3.1786 -1.4506
  145SAPE  H13Y15987   0.587   6.162   9.026  1.1431  0.0088  0.0996
  145SAPE  C31415988   0.506   6.045   9.194 -0.0546 -0.1320 -0.9707
  145SAPE  H14X15989   0.476   5.963   9.125  0.6221 -0.5091 -0.8205
  145SAPE  H14Y15990   0.417   6.106   9.219 -0.9615 -1.6329 -0.4010
  145SAPE  C31515991   0.564   5.997   9.335  0.7337  0.5879  0.3269
  145SAPE  H15X15992   0.566   6.083   9.405  1.1871  0.2670  0.7108
  145SAPE  H15Y15993   0.669   5.967   9.318  0.9239  0.8491  1.0064
  145SAPE  C31615994   0.490   5.871   9.403  0.0684  0.0444  0.0722
  145SAPE  H16X15995   0.488   5.780   9.340 -1.3882 -1.1670  1.7675
  145SAPE  H16Y15996   0.384   5.900   9.420 -0.0614 -0.1778 -0.3670
  145SAPE  C31715997   0.551   5.843   9.541  0.6733  0.4395  0.8602
  145SAPE  H17X15998   0.558   5.934   9.605 -0.7859  0.7905  0.5668
  145SAPE  H17Y15999   0.654   5.815   9.511 -0.0300 -2.6727  1.0117
  145SAPE  C31816000   0.472   5.730   9.608  0.6556 -0.4320  0.2953
  145SAPE  H18X16001   0.510   5.713   9.711 -0.3245 -3.0055  0.3138
  145SAPE  H18Y16002   0.485   5.639   9.545 -0.4218 -1.0236  0.8972
  145SAPE  H18Z16003   0.367   5.760   9.628  0.6881 -0.4832  0.5358
  146SAPE     N16004   5.988   4.769  10.912  0.3296 -0.5639  1.1334
  146SAPE   HN116005   6.064   4.733  10.974  1.6659  1.5741  0.8223
  146SAPE   HN216006   5.923   4.823  10.973 -0.0861 -0.5068  0.6479
  146SAPE   HN316007   5.934   4.691  10.870 -0.3796 -0.3778  1.6677
  146SAPE   C1216008   6.040   4.859  10.804 -0.2751  0.2163  0.5283
  146SAPE  H12A16009   6.079   4.949  10.856 -0.0119 -1.4234  3.3813
  146SAPE  H12B16010   5.953   4.905  10.752 -0.1044  0.7043  0.6663
  146SAPE   C1116011   6.140   4.789  10.710 -0.3704 -0.3416 -0.2475
  146SAPE  H11A16012   6.157   4.854  10.622 -1.9649  1.0969  0.4564
  146SAPE  H11B16013   6.094   4.700  10.661  2.1423 -2.2952  0.6943
  146SAPE     P16014   6.357   4.657  10.724 -0.3647 -0.2069  0.0869
  146SAPE   O1316015   6.498   4.699  10.760  0.9729  0.4602  0.0786
  146SAPE   O1416016   6.305   4.525  10.765 -0.5639  0.0789  0.0416
  146SAPE   O1216017   6.254   4.756  10.792 -0.4900  0.3544 -0.3178
  146SAPE   O1116018   6.346   4.685  10.571  0.1751 -0.4663  0.0071
  146SAPE    C116019   6.348   4.578  10.478  0.0760  0.4955  0.3085
  146SAPE    HA16020   6.280   4.497  10.511 -1.5583  1.0806 -1.4197
  146SAPE    HB16021   6.310   4.612  10.380  0.8339  2.1655  0.5463
  146SAPE    C216022   6.487   4.512  10.462  0.3844 -0.4648  0.6466
  146SAPE    HS16023   6.502   4.452  10.554 -1.5376  0.6230  1.7234
  146SAPE   O2116024   6.590   4.614  10.448  0.2902  0.1809  0.0748
  146SAPE   C2116025   6.707   4.578  10.490  0.2318  0.2370 -0.0713
  146SAPE   O2216026   6.739   4.481  10.557  0.1251  0.0712  0.0514
  146SAPE   C2216027   6.807   4.695  10.456 -0.3254 -0.2882  0.2666
  146SAPE   H2R16028   6.810   4.708  10.346 -1.5259  0.0621  0.2654
  146SAPE   H2S16029   6.758   4.792  10.482 -0.0306 -0.5492  1.8791
  146SAPE    C316030   6.503   4.407  10.343 -0.4004 -0.6615 -0.0154
  146SAPE    HX16031   6.425   4.329  10.355 -1.5339  0.5612  0.8659
  146SAPE    HY16032   6.605   4.366  10.350  0.8109  1.6266 -2.3008
  146SAPE   O3116033   6.483   4.479  10.216 -0.1405 -0.2552  0.0526
  146SAPE   C3116034   6.593   4.539  10.163 -0.9503 -0.2609 -0.4464
  146SAPE   O3216035   6.709   4.521  10.198  0.2120 -0.1100 -0.1849
  146SAPE   C3216036   6.545   4.617  10.035 -0.8512  0.1409 -0.4234
  146SAPE   H2X16037   6.484   4.705  10.063  0.5116  0.4947  1.7197
  146SAPE   H2Y16038   6.497   4.543   9.968  0.4928 -1.2894  0.1276
  146SAPE   C2316039   6.954   4.676  10.517  0.2359  0.2688  0.2068
  146SAPE   H3R16040   6.999   4.575  10.507 -0.8367  0.0140 -4.2219
  146SAPE   H3S16041   6.938   4.697  10.625  0.2917  0.1439  0.2390
  146SAPE   C2416042   7.052   4.773  10.456  1.2248  0.8072  0.2451
  146SAPE   H4R16043   7.010   4.876  10.446 -0.8061 -0.1365 -1.8925
  146SAPE   H4S16044   7.076   4.747  10.351  2.1999  2.4451  0.0253
  146SAPE   C2516045   7.174   4.798  10.538 -0.3994  0.1928  0.4882
  146SAPE   H5R16046   7.142   4.826  10.640 -2.8713  1.1671 -0.4705
  146SAPE   C2616047   7.307   4.777  10.505 -0.1026 -1.1546 -0.0676
  146SAPE   H6R16048   7.388   4.799  10.576  1.8173  2.1837 -2.9436
  146SAPE   C2716049   7.357   4.727  10.370  0.2348  0.7205  0.3132
  146SAPE   H7R16050   7.454   4.778  10.350  0.4066  0.8313  1.3781
  146SAPE   H7S16051   7.292   4.763  10.287 -0.4133 -2.4757 -0.6885
  146SAPE   C2816052   7.393   4.585  10.341  0.5027  0.1306  0.7366
  146SAPE   H8R16053   7.344   4.509  10.403 -0.5705  0.2619  0.0757
  146SAPE   C2916054   7.463   4.538  10.237  0.4475 -0.0492  0.6185
  146SAPE   H9R16055   7.479   4.430  10.225  1.5055  0.1430  0.1487
  146SAPE  C21016056   7.522   4.616  10.118 -0.2165 -0.1938 -0.0925
  146SAPE  H10R16057   7.441   4.685  10.088  0.0339 -0.1754 -0.7540
  146SAPE  H10S16058   7.551   4.548  10.035  0.5867  0.5028 -0.4007
  146SAPE  C21116059   7.641   4.706  10.151  0.7637 -0.1677 -0.3712
  146SAPE  H11R16060   7.601   4.796  10.200 -2.3582 -0.4819 -2.0925
  146SAPE  C21216061   7.771   4.690  10.122 -0.5129  0.3921 -0.0436
  146SAPE  H12R16062   7.846   4.771  10.130  0.7252 -0.8826  2.2822
  146SAPE  C21316063   7.836   4.566  10.050 -0.4745  0.1857 -0.0338
  146SAPE  H13R16064   7.882   4.610   9.959  1.2977  0.4737  0.9567
  146SAPE  H13S16065   7.757   4.499  10.010  1.9751 -2.8934 -0.0531
  146SAPE  C21416066   7.939   4.482  10.129  0.4649  0.0650  0.3577
  146SAPE  H14R16067   7.965   4.518  10.230  0.0467 -1.2257  0.9523
  146SAPE  C21516068   7.994   4.362  10.091 -0.4555 -0.9091  0.1804
  146SAPE  H15R16069   8.070   4.316  10.156  2.2921  1.3717 -1.1935
  146SAPE  C21616070   7.954   4.285   9.964  0.8422  0.3948 -0.2121
  146SAPE  H16R16071   8.004   4.346   9.885 -0.2419  2.7957  0.8555
  146SAPE  H16S16072   7.847   4.285   9.937  0.3590 -1.4695  1.5291
  146SAPE  C21716073   8.002   4.135   9.954  0.0615  0.2709  0.6485
  146SAPE  H17R16074   7.956   4.069  10.031  0.3362 -0.2093  0.4037
  146SAPE  H17S16075   8.112   4.123   9.965  0.0998 -1.9717 -1.5043
  146SAPE  C21816076   7.967   4.082   9.813  0.1939  0.2937  0.3627
  146SAPE  H18R16077   7.858   4.097   9.802  0.2382  0.1201 -0.3833
  146SAPE  H18S16078   7.983   3.972   9.810  1.1681  0.3921  1.1651
  146SAPE  C21916079   8.047   4.138   9.695  0.1244 -0.3336  0.3406
  146SAPE  H19R16080   8.152   4.135   9.731  0.3437  0.1592 -0.2462
  146SAPE  H19S16081   8.029   4.247   9.680  1.7542 -0.0722  0.0249
  146SAPE  C22016082   8.031   4.076   9.562 -0.5536 -0.0839  0.2298
  146SAPE  H20R16083   8.042   4.155   9.485  1.5297 -0.0255  0.5473
  146SAPE  H20S16084   7.934   4.021   9.554 -1.1296  0.7353  1.3271
  146SAPE  H20T16085   8.112   4.008   9.529 -1.7654 -2.6672  2.2294
  146SAPE   C3316086   6.675   4.669   9.972  0.7645  0.1447 -0.3516
  146SAPE   H3X16087   6.751   4.592   9.947 -0.4807 -0.4190 -2.6307
  146SAPE   H3Y16088   6.724   4.741  10.041  0.6193  0.2065 -0.3115
  146SAPE   C3416089   6.651   4.746   9.849  0.3130  0.0322 -0.2166
  146SAPE   H4X16090   6.560   4.809   9.843  0.8370  0.7341 -1.2822
  146SAPE   H4Y16091   6.648   4.685   9.756  1.3213 -0.8103  0.2854
  146SAPE   C3516092   6.757   4.859   9.850  0.1079  0.2206  0.2170
  146SAPE   H5X16093   6.856   4.810   9.860 -0.1508 -0.0047  2.0583
  146SAPE   H5Y16094   6.751   4.919   9.943 -0.8354 -0.6270  0.7199
  146SAPE   C3616095   6.762   4.950   9.729  0.0779  0.0749 -0.1332
  146SAPE   H6X16096   6.834   5.030   9.754 -1.4695  0.5845  3.3199
  146SAPE   H6Y16097   6.669   5.010   9.717  0.8851  1.1315 -1.3893
  146SAPE   C3716098   6.800   4.879   9.597  0.7388 -0.0662 -0.1110
  146SAPE   H7X16099   6.724   4.804   9.566  1.0961 -0.2166 -0.6308
  146SAPE   H7Y16100   6.891   4.825   9.633  1.3117  0.0442 -1.3500
  146SAPE   C3816101   6.826   4.992   9.506  0.1607  0.3830  0.4941
  146SAPE   H8X16102   6.906   5.061   9.539 -1.4042  2.5356  0.0015
  146SAPE   H8Y16103   6.741   5.062   9.493  0.5009  0.9885  1.4716
  146SAPE   C3916104   6.847   4.943   9.366 -0.1815 -0.2111  0.2933
  146SAPE   H9X16105   6.787   4.852   9.346 -0.1390 -0.2003  0.1155
  146SAPE   H9Y16106   6.951   4.906   9.361 -1.3469 -4.3451  2.0758
  146SAPE  C31016107   6.827   5.049   9.253 -0.1465  0.4735 -0.1929
  146SAPE  H10X16108   6.890   5.135   9.284  1.1285 -0.9484  1.2729
  146SAPE  H10Y16109   6.720   5.079   9.240 -0.3115  0.5475  1.2566
  146SAPE  C31116110   6.890   4.999   9.116  0.0652  0.1687 -0.0831
  146SAPE  H11X16111   6.833   4.909   9.086  3.5149 -2.7475  1.4026
  146SAPE  H11Y16112   6.996   4.966   9.128 -0.7900 -3.1236 -0.8445
  146SAPE  C31216113   6.876   5.108   9.012  0.4705  0.1754  0.0863
  146SAPE  H12X16114   6.948   5.189   9.034  0.7399  0.0156 -0.1905
  146SAPE  H12Y16115   6.770   5.140   9.013 -0.1383 -1.6870 -0.6422
  146SAPE  C31316116   6.918   5.071   8.871  0.0912  0.4362 -0.5442
  146SAPE  H13X16117   6.889   4.966   8.850 -0.1443  0.2103  0.8118
  146SAPE  H13Y16118   7.029   5.067   8.869  0.1202 -1.0023  1.1706
  146SAPE  C31416119   6.866   5.172   8.765 -0.3622  0.0198  0.5799
  146SAPE  H14X16120   6.926   5.265   8.774 -0.2313 -0.1011  1.0001
  146SAPE  H14Y16121   6.762   5.194   8.799 -0.0882 -0.8485  2.0985
  146SAPE  C31516122   6.871   5.112   8.618 -0.0667  0.3195 -0.0872
  146SAPE  H15X16123   6.890   5.004   8.637  2.1128  0.7516  0.4021
  146SAPE  H15Y16124   6.959   5.158   8.571 -1.9011  2.1713 -1.8960
  146SAPE  C31616125   6.756   5.151   8.528  0.6737 -0.2906  0.6834
  146SAPE  H16X16126   6.744   5.259   8.551 -0.2076 -0.0184 -0.8977
  146SAPE  H16Y16127   6.672   5.085   8.559 -0.4076 -0.0142 -1.4614
  146SAPE  C31716128   6.770   5.121   8.379 -0.4823 -0.2580 -0.1051
  146SAPE  H17X16129   6.792   5.013   8.368  2.2432 -0.1471  2.7810
  146SAPE  H17Y16130   6.863   5.159   8.333 -0.2563  1.5084  1.6994
  146SAPE  C31816131   6.648   5.162   8.296 -0.2080 -1.0193 -0.0032
  146SAPE  H18X16132   6.555   5.144   8.355 -0.8030 -1.0471 -0.9214
  146SAPE  H18Y16133   6.639   5.093   8.209  0.6412 -2.7108  1.1717
  146SAPE  H18Z16134   6.654   5.271   8.281 -1.4030 -0.6255  2.0095
  147SAPE     N16135   6.221   6.540   6.483 -0.2231 -0.2879  0.3364
  147SAPE   HN116136   6.258   6.448   6.452  1.8035  0.3369  0.7258
  147SAPE   HN216137   6.286   6.583   6.552  0.0130  0.5464 -0.3866
  147SAPE   HN316138   6.124   6.537   6.520 -0.5502 -0.9140 -0.5330
  147SAPE   C1216139   6.208   6.635   6.366 -0.5702  0.1467  0.3513
  147SAPE  H12A16140   6.170   6.733   6.400  0.6645  1.2583 -1.3031
  147SAPE  H12B16141   6.145   6.595   6.283 -1.4837  0.7769  0.7290
  147SAPE   C1116142   6.345   6.663   6.299 -0.1845 -1.5436  0.2482
  147SAPE  H11A16143   6.313   6.731   6.218 -2.0782 -1.6938  0.8172
  147SAPE  H11B16144   6.388   6.571   6.254 -0.9443 -1.0306 -1.6190
  147SAPE     P16145   6.580   6.756   6.345 -0.0783  0.0738  0.1419
  147SAPE   O1316146   6.647   6.632   6.297 -0.0894  0.0416  0.5341
  147SAPE   O1416147   6.570   6.874   6.261 -0.0597  0.2573  0.8227
  147SAPE   O1216148   6.433   6.716   6.399  0.1756  0.0429 -0.7434
  147SAPE   O1116149   6.667   6.807   6.468  0.5660 -0.0978  0.4082
  147SAPE    C116150   6.593   6.872   6.576 -0.2218  0.1613  0.3227
  147SAPE    HA16151   6.560   6.975   6.552 -2.6340 -0.2214  1.7077
  147SAPE    HB16152   6.514   6.800   6.608  0.7376 -1.1918 -0.2137
  147SAPE    C216153   6.685   6.866   6.702 -0.3379  0.2775  0.1729
  147SAPE    HS16154   6.769   6.939   6.703  1.3609 -1.5826 -0.8997
  147SAPE   O2116155   6.726   6.731   6.721 -0.4909 -0.6947 -0.3330
  147SAPE   C2116156   6.855   6.714   6.718  0.0606  0.2404  0.0189
  147SAPE   O2216157   6.949   6.783   6.695  0.1241 -0.5829  1.1851
  147SAPE   C2216158   6.883   6.567   6.771 -0.6052  0.2598  0.5049
  147SAPE   H2R16159   6.785   6.514   6.774  0.1799 -1.2328  0.4857
  147SAPE   H2S16160   6.949   6.511   6.701  0.3839 -1.8957  2.9912
  147SAPE    C316161   6.596   6.919   6.821 -0.3541 -0.2329 -0.1482
  147SAPE    HX16162   6.500   6.863   6.812  0.1565 -1.5715  1.9351
  147SAPE    HY16163   6.573   7.027   6.807  0.1652  0.2986  2.4821
  147SAPE   O3116164   6.668   6.886   6.940  0.3365  0.2160  0.0455
  147SAPE   C3116165   6.685   6.989   7.029 -0.3311 -0.2630 -0.8759
  147SAPE   O3216166   6.637   7.100   7.023  0.3494 -0.1666 -0.1454
  147SAPE   C3216167   6.778   6.956   7.149 -0.6322  0.2304  0.5724
  147SAPE   H2X16168   6.878   6.917   7.118 -0.2139  0.3440  1.7279
  147SAPE   H2Y16169   6.722   6.887   7.216 -0.4503 -0.4235  0.0622
  147SAPE   C2316170   6.952   6.559   6.906  0.7643 -0.0699 -0.6073
  147SAPE   H3R16171   7.052   6.597   6.877  0.4023  0.5999 -1.0128
  147SAPE   H3S16172   6.971   6.450   6.914 -3.4409 -1.0731 -1.8951
  147SAPE   C2416173   6.886   6.622   7.031 -0.3942 -0.0170  0.0886
  147SAPE   H4R16174   6.794   6.575   7.072 -0.1328  0.4537  1.2572
  147SAPE   H4S16175   6.851   6.724   7.004 -1.4043  0.2255  2.1435
  147SAPE   C2516176   6.994   6.626   7.139 -0.1242 -0.4880 -0.0074
  147SAPE   H5R16177   7.060   6.715   7.138 -0.1737 -0.3512  2.2427
  147SAPE   C2616178   7.002   6.542   7.238  0.4405  0.6051  0.9093
  147SAPE   H6R16179   7.090   6.543   7.304  1.2167 -2.6391  0.1343
  147SAPE   C2716180   6.909   6.430   7.267  0.1306 -0.1221 -0.3070
  147SAPE   H7R16181   6.915   6.354   7.186 -1.3172  0.2712 -0.8203
  147SAPE   H7S16182   6.802   6.460   7.263  0.0859 -0.4362 -2.5288
  147SAPE   C2816183   6.935   6.345   7.394 -0.3909 -0.3214  0.5869
  147SAPE   H8R16184   6.939   6.238   7.367 -0.3814 -0.0884 -0.3687
  147SAPE   C2916185   6.959   6.374   7.518  0.2260 -0.1138 -0.2418
  147SAPE   H9R16186   6.987   6.294   7.589  1.8114  0.0382 -0.6449
  147SAPE  C21016187   6.969   6.508   7.578 -0.5860  0.5374 -0.3899
  147SAPE  H10R16188   6.881   6.533   7.640 -0.5956 -1.0025  0.2477
  147SAPE  H10S16189   6.965   6.582   7.495  1.7623  1.2468  0.0540
  147SAPE  C21116190   7.089   6.519   7.663 -0.3857  0.1213 -0.3341
  147SAPE  H11R16191   7.183   6.548   7.614 -0.2015  1.0406  0.5141
  147SAPE  C21216192   7.090   6.517   7.798 -0.3701 -0.1177  0.6836
  147SAPE  H12R16193   7.186   6.526   7.850 -0.5790 -0.9716  1.2283
  147SAPE  C21316194   6.976   6.492   7.893  0.4474 -0.0589 -0.1296
  147SAPE  H13R16195   6.883   6.468   7.837  0.3062 -2.7189  1.0912
  147SAPE  H13S16196   6.957   6.586   7.948 -0.9961 -2.0790  3.1275
  147SAPE  C21416197   7.000   6.366   7.973  0.6725  0.2776  0.3351
  147SAPE  H14R16198   7.028   6.281   7.909 -2.1570  0.3211 -1.0984
  147SAPE  C21516199   6.978   6.345   8.106 -0.0160 -0.1626 -0.3362
  147SAPE  H15R16200   7.010   6.247   8.146  1.2108 -1.0165 -3.1418
  147SAPE  C21616201   6.936   6.444   8.207  0.2421 -0.5268  0.6252
  147SAPE  H16R16202   6.861   6.384   8.262 -1.9945  0.7518 -0.8571
  147SAPE  H16S16203   6.888   6.535   8.165  3.7095  0.9942 -0.4076
  147SAPE  C21716204   7.062   6.484   8.299  0.2549  0.5103  0.7570
  147SAPE  H17R16205   7.146   6.531   8.244  1.1250 -0.9102  0.8153
  147SAPE  H17S16206   7.102   6.389   8.342 -1.3776 -0.1832  0.8126
  147SAPE  C21816207   7.032   6.579   8.420  0.1877  0.5110 -0.0388
  147SAPE  H18R16208   6.930   6.559   8.461  0.4706 -1.6076 -0.2556
  147SAPE  H18S16209   7.024   6.684   8.384  1.2392  0.0976 -1.5373
  147SAPE  C21916210   7.132   6.569   8.533  0.3231  0.7532  0.4071
  147SAPE  H19R16211   7.146   6.668   8.583  1.5945  0.1165  1.3674
  147SAPE  H19S16212   7.228   6.556   8.480  0.5886  2.6286  0.3633
  147SAPE  C22016213   7.109   6.453   8.632  0.5311  0.4839 -0.3623
  147SAPE  H20R16214   7.013   6.463   8.687  0.8066  0.0608  0.1982
  147SAPE  H20S16215   7.192   6.439   8.705  1.5098  3.0499 -0.8700
  147SAPE  H20T16216   7.095   6.358   8.577  0.3259  0.3922 -0.1492
  147SAPE   C3316217   6.802   7.082   7.234  0.4792  0.4429 -0.0547
  147SAPE   H3X16218   6.711   7.113   7.291 -1.6769 -0.8697 -2.5312
  147SAPE   H3Y16219   6.842   7.162   7.168  0.2799  1.0277  0.5167
  147SAPE   C3416220   6.915   7.075   7.343 -0.7380  0.9007 -0.2536
  147SAPE   H4X16221   6.960   7.174   7.361 -1.9878  1.3329  0.6621
  147SAPE   H4Y16222   6.996   7.014   7.296 -1.5542  1.9007 -3.1309
  147SAPE   C3516223   6.864   7.016   7.473  0.6704  0.4015 -0.2527
  147SAPE   H5X16224   6.794   6.930   7.461 -0.8157  1.8157 -2.4374
  147SAPE   H5Y16225   6.804   7.095   7.523  2.0757  0.0624  2.1176
  147SAPE   C3616226   6.976   6.977   7.575  0.2712  0.6797  0.6014
  147SAPE   H6X16227   7.039   7.068   7.588 -1.3035  1.9889 -0.4950
  147SAPE   H6Y16228   7.033   6.889   7.539  0.3051  0.3748  1.3833
  147SAPE   C3716229   6.926   6.938   7.714 -0.0468 -0.3093 -0.3737
  147SAPE   H7X16230   6.857   6.851   7.705 -0.1914 -0.3896  1.1875
  147SAPE   H7Y16231   6.867   7.023   7.754 -2.4682 -1.2221 -1.8061
  147SAPE   C3816232   7.040   6.919   7.809  0.3821  0.4616  0.0948
  147SAPE   H8X16233   7.102   7.011   7.810 -0.8859  1.3425  0.5151
  147SAPE   H8Y16234   7.105   6.839   7.766 -0.4723  0.9170 -2.2074
  147SAPE   C3916235   6.985   6.886   7.951  0.4113 -0.0117  0.2010
  147SAPE   H9X16236   6.939   6.785   7.947  0.7405 -0.2134  1.2218
  147SAPE   H9Y16237   6.904   6.961   7.963 -0.0938 -0.0471 -2.3330
  147SAPE  C31016238   7.081   6.870   8.073 -0.1511  0.3851  0.8493
  147SAPE  H10X16239   7.029   6.811   8.151  1.2486  0.3981  1.8209
  147SAPE  H10Y16240   7.093   6.973   8.113  0.6753  0.4002  0.5690
  147SAPE  C31116241   7.219   6.814   8.034  0.3507  0.6066 -0.2880
  147SAPE  H11X16242   7.268   6.883   7.961  0.6013  1.8615  1.0138
  147SAPE  H11Y16243   7.204   6.719   7.979 -0.6439 -0.1134  1.1708
  147SAPE  C31216244   7.294   6.782   8.164 -0.2176  0.2774  0.1291
  147SAPE  H12X16245   7.223   6.739   8.238 -1.3178  0.9714 -0.5093
  147SAPE  H12Y16246   7.329   6.879   8.206  0.7413 -0.4960  1.1830
  147SAPE  C31316247   7.422   6.690   8.151 -0.3955  0.3203  0.4538
  147SAPE  H13X16248   7.491   6.752   8.090  1.3796 -1.2843  0.7468
  147SAPE  H13Y16249   7.392   6.601   8.093  1.1811 -0.0640  0.1819
  147SAPE  C31416250   7.493   6.654   8.285 -0.6425  0.1239  0.1499
  147SAPE  H14X16251   7.424   6.604   8.357  0.0510 -0.1389  0.6444
  147SAPE  H14Y16252   7.537   6.745   8.331  3.6997 -1.5070 -0.3794
  147SAPE  C31516253   7.614   6.550   8.276  0.3109 -0.6237 -0.1584
  147SAPE  H15X16254   7.690   6.590   8.206 -0.1641  0.2681 -0.1723
  147SAPE  H15Y16255   7.575   6.453   8.238  0.7414 -1.2291  0.8771
  147SAPE  C31616256   7.684   6.526   8.408 -0.0174 -0.1867  0.6700
  147SAPE  H16X16257   7.603   6.524   8.483 -1.7548 -0.3256 -1.1296
  147SAPE  H16Y16258   7.730   6.623   8.437  0.1850 -0.3211  0.8083
  147SAPE  C31716259   7.774   6.406   8.391  0.3285  0.8573 -0.3918
  147SAPE  H17X16260   7.857   6.425   8.319 -0.5640  1.3825 -1.3060
  147SAPE  H17Y16261   7.716   6.317   8.360  2.5235 -0.5830 -0.6276
  147SAPE  C31816262   7.840   6.370   8.526  0.7927 -0.3259 -0.2861
  147SAPE  H18X16263   7.776   6.293   8.574 -1.3029  1.4280 -0.1153
  147SAPE  H18Y16264   7.861   6.457   8.592  2.3528 -0.6653 -0.3050
  147SAPE  H18Z16265   7.937   6.320   8.502  0.9638 -0.9059  1.4374
  148SAPE     N16266   5.587   6.193   6.277 -0.0594  0.0361  0.4034
  148SAPE   HN116267   5.684   6.168   6.252  0.5163  3.1744 -0.9976
  148SAPE   HN216268   5.534   6.116   6.323  1.9479 -2.7791 -1.6981
  148SAPE   HN316269   5.541   6.223   6.189  2.2576  0.0411 -0.8906
  148SAPE   C1216270   5.603   6.317   6.365  0.1079  0.5968 -0.4133
  148SAPE  H12A16271   5.631   6.406   6.304 -0.2591  0.4110 -0.8568
  148SAPE  H12B16272   5.687   6.303   6.436  0.3099  3.0407 -0.0793
  148SAPE   C1116273   5.475   6.348   6.447  0.1119 -0.5321  0.1966
  148SAPE  H11A16274   5.445   6.263   6.512  0.8415 -1.4309 -0.6159
  148SAPE  H11B16275   5.393   6.365   6.374  1.2535  3.0188 -0.4616
  148SAPE     P16276   5.373   6.495   6.630 -0.1686 -0.3499  0.2742
  148SAPE   O1316277   5.424   6.603   6.711  0.0229 -0.2818  0.1174
  148SAPE   O1416278   5.241   6.506   6.561  0.0936  0.3102  0.3609
  148SAPE   O1216279   5.484   6.469   6.520 -0.0615 -0.6107 -0.5337
  148SAPE   O1116280   5.375   6.362   6.702 -0.2309 -0.1191 -0.3540
  148SAPE    C116281   5.483   6.322   6.778 -0.5562 -0.0739  0.4327
  148SAPE    HA16282   5.513   6.220   6.746  0.8554  0.4370  0.0672
  148SAPE    HB16283   5.574   6.384   6.762 -2.6342  2.6513 -1.6567
  148SAPE    C216284   5.435   6.299   6.927  0.9278 -0.1620  0.0256
  148SAPE    HS16285   5.351   6.227   6.935  0.5901  0.1898 -0.2879
  148SAPE   O2116286   5.375   6.416   6.983 -0.6038  0.3038  0.0740
  148SAPE   C2116287   5.460   6.513   6.996  0.1954  0.5277  0.2864
  148SAPE   O2216288   5.571   6.514   6.953  0.5473  0.0298  0.3775
  148SAPE   C2216289   5.397   6.628   7.065 -0.1415  0.2724  0.3075
  148SAPE   H2R16290   5.290   6.639   7.037  0.1196  0.8055 -0.5191
  148SAPE   H2S16291   5.403   6.607   7.173 -0.8609  0.4106  0.3832
  148SAPE    C316292   5.543   6.234   7.020 -0.0131 -0.3041  0.7539
  148SAPE    HX16293   5.646   6.273   7.000  0.6366 -1.9353  0.7426
  148SAPE    HY16294   5.553   6.123   7.014 -2.1164 -0.4896 -0.1442
  148SAPE   O3116295   5.515   6.253   7.152 -0.0299  0.0587  0.2181
  148SAPE   C3116296   5.405   6.199   7.201  0.4216 -0.5929 -0.3673
  148SAPE   O3216297   5.322   6.134   7.140  0.3259  0.6871  0.1235
  148SAPE   C3216298   5.390   6.228   7.350  1.0521 -0.4194 -0.1313
  148SAPE   H2X16299   5.354   6.332   7.363 -1.1871 -0.9955 -1.1437
  148SAPE   H2Y16300   5.490   6.227   7.398 -0.0350 -0.3513  2.3239
  148SAPE   C2316301   5.462   6.770   7.034 -0.2105  0.2211 -0.2804
  148SAPE   H3R16302   5.380   6.841   7.012 -1.1484 -0.5378  0.6394
  148SAPE   H3S16303   5.534   6.771   6.949 -0.4669 -0.2490 -0.5045
  148SAPE   C2416304   5.535   6.818   7.158 -0.1177 -1.1076  0.0008
  148SAPE   H4R16305   5.462   6.806   7.240 -0.2672 -1.9282 -0.2483
  148SAPE   H4S16306   5.565   6.922   7.132  2.3723 -2.4817 -3.2915
  148SAPE   C2516307   5.657   6.741   7.196  0.0821  0.2457  0.7554
  148SAPE   H5R16308   5.723   6.727   7.109  0.3960  0.6113  0.9316
  148SAPE   C2616309   5.683   6.694   7.318  0.9279 -0.5443 -0.2839
  148SAPE   H6R16310   5.774   6.637   7.344  0.5205 -2.0544 -1.9518
  148SAPE   C2716311   5.599   6.716   7.451  0.4775  0.5588  1.1088
  148SAPE   H7R16312   5.519   6.791   7.434  0.0427 -0.2985 -0.9010
  148SAPE   H7S16313   5.669   6.737   7.535  0.1341 -0.0401  1.5619
  148SAPE   C2816314   5.523   6.594   7.494  0.0928 -0.3873 -0.4589
  148SAPE   H8R16315   5.496   6.533   7.407  1.4104 -1.3866 -0.2181
  148SAPE   C2916316   5.491   6.550   7.622  0.1752 -0.2852  1.0568
  148SAPE   H9R16317   5.447   6.449   7.620 -0.4454 -0.0095  0.3968
  148SAPE  C21016318   5.523   6.599   7.757  0.6105 -0.3163  0.4614
  148SAPE  H10R16319   5.446   6.585   7.836 -1.1402  1.1550 -0.9001
  148SAPE  H10S16320   5.523   6.710   7.760  0.4459 -0.3082  3.5095
  148SAPE  C21116321   5.665   6.557   7.801  0.2816  0.3529  0.0926
  148SAPE  H11R16322   5.733   6.550   7.715 -0.9798 -2.6299 -0.7982
  148SAPE  C21216323   5.710   6.503   7.914  0.4244 -0.5651  0.0873
  148SAPE  H12R16324   5.818   6.498   7.929  0.3840  0.9545  1.2180
  148SAPE  C21316325   5.619   6.484   8.029 -0.2577  0.5390 -0.4634
  148SAPE  H13R16326   5.673   6.414   8.097 -1.6044 -0.3716 -0.3071
  148SAPE  H13S16327   5.517   6.449   8.002  0.1087  0.6012 -1.9786
  148SAPE  C21416328   5.615   6.612   8.118 -0.0997  0.3904  0.3867
  148SAPE  H14R16329   5.711   6.667   8.121  0.0956  0.0992 -0.2840
  148SAPE  C21516330   5.516   6.653   8.206  0.2546 -0.2659  0.2189
  148SAPE  H15R16331   5.537   6.741   8.270  4.1060  2.1143 -3.7272
  148SAPE  C21616332   5.391   6.575   8.224 -0.0900 -0.3832 -0.1456
  148SAPE  H16R16333   5.381   6.527   8.324  4.2157 -0.2467  0.5448
  148SAPE  H16S16334   5.385   6.485   8.159 -2.3903 -0.3647 -0.0288
  148SAPE  C21716335   5.277   6.668   8.200 -0.1732 -0.1203  0.4124
  148SAPE  H17R16336   5.294   6.725   8.106  1.8101  0.1710  0.8854
  148SAPE  H17S16337   5.276   6.753   8.272 -0.7529  1.1975 -1.0860
  148SAPE  C21816338   5.140   6.601   8.188 -0.4969 -0.2668  0.3423
  148SAPE  H18R16339   5.149   6.520   8.113  0.6978  1.2716 -1.2821
  148SAPE  H18S16340   5.080   6.678   8.134 -0.4846 -1.6066 -1.6600
  148SAPE  C21916341   5.072   6.578   8.323 -0.0689  0.0384  1.0087
  148SAPE  H19R16342   5.079   6.677   8.374  0.9691  0.4168  0.1821
  148SAPE  H19S16343   5.132   6.516   8.394  0.5935 -0.3657  0.1244
  148SAPE  C22016344   4.927   6.536   8.322 -0.4369 -0.5918 -0.2279
  148SAPE  H20R16345   4.904   6.435   8.282  1.0060 -0.9844 -0.1283
  148SAPE  H20S16346   4.860   6.611   8.275 -0.8630 -1.6419 -1.3444
  148SAPE  H20T16347   4.896   6.536   8.429 -0.8255 -0.5908 -0.3397
  148SAPE   C3316348   5.293   6.129   7.419 -0.5974  0.6441 -0.6668
  148SAPE   H3X16349   5.338   6.028   7.410 -1.5812  0.1598 -0.2662
  148SAPE   H3Y16350   5.190   6.127   7.377 -0.9928 -1.5723  0.2836
  148SAPE   C3416351   5.276   6.173   7.564  0.0233 -0.1167 -0.1342
  148SAPE   H4X16352   5.175   6.137   7.593 -0.8337  1.3971 -1.1224
  148SAPE   H4Y16353   5.275   6.284   7.562 -0.1158 -0.1099  0.2687
  148SAPE   C3516354   5.391   6.126   7.658 -0.3631 -0.8771 -1.1018
  148SAPE   H5X16355   5.493   6.159   7.631  0.5896 -2.3726  0.4361
  148SAPE   H5Y16356   5.381   6.015   7.664 -1.9791 -0.6932  1.2583
  148SAPE   C3616357   5.356   6.185   7.795  0.1329  0.4260 -0.4614
  148SAPE   H6X16358   5.347   6.295   7.783  0.0013  0.5049  0.2675
  148SAPE   H6Y16359   5.441   6.155   7.860 -0.9344  1.8397  1.7408
  148SAPE   C3716360   5.229   6.138   7.865 -0.1715 -0.5882 -0.0036
  148SAPE   H7X16361   5.215   6.033   7.835 -3.3969  0.2485 -1.7965
  148SAPE   H7Y16362   5.145   6.194   7.820 -0.4667 -1.1548 -0.1575
  148SAPE   C3816363   5.223   6.154   8.023 -0.6915 -0.2389  0.4987
  148SAPE   H8X16364   5.118   6.133   8.051 -1.8696  3.7266 -0.3113
  148SAPE   H8Y16365   5.238   6.260   8.054 -0.7122  0.4697 -1.7148
  148SAPE   C3916366   5.304   6.056   8.104 -0.2448 -0.1126  0.1080
  148SAPE   H9X16367   5.408   6.054   8.065 -0.3632  0.0882 -0.2197
  148SAPE   H9Y16368   5.265   5.954   8.080 -0.8651 -0.0569  0.8460
  148SAPE  C31016369   5.307   6.070   8.258 -0.0056  0.2357 -0.2088
  148SAPE  H10X16370   5.375   5.988   8.291 -0.2915  0.1734  0.2334
  148SAPE  H10Y16371   5.207   6.046   8.301  0.8815  0.7528  2.3407
  148SAPE  C31116372   5.346   6.214   8.304 -0.0241  0.4667  0.0946
  148SAPE  H11X16373   5.261   6.276   8.270 -3.1207 -2.2072  2.2864
  148SAPE  H11Y16374   5.438   6.242   8.249 -0.5140 -0.3345 -1.1608
  148SAPE  C31216375   5.367   6.229   8.448 -0.3038  0.0096  0.6114
  148SAPE  H12X16376   5.292   6.167   8.502 -1.6760  0.3112 -0.8951
  148SAPE  H12Y16377   5.358   6.333   8.487  1.8002 -0.1123  1.5662
  148SAPE  C31316378   5.509   6.177   8.494 -0.2328 -0.1023 -0.9597
  148SAPE  H13X16379   5.586   6.227   8.431 -0.3617  1.3020 -0.0493
  148SAPE  H13Y16380   5.515   6.068   8.470 -0.7112  0.0078 -1.5793
  148SAPE  C31416381   5.518   6.190   8.643 -0.1350 -0.0358  0.0814
  148SAPE  H14X16382   5.428   6.141   8.686 -0.3433  0.7793  0.6107
  148SAPE  H14Y16383   5.516   6.297   8.676 -0.4685 -0.6980  2.4027
  148SAPE  C31516384   5.650   6.135   8.693 -0.2344  0.2595  0.2689
  148SAPE  H15X16385   5.692   6.051   8.635 -0.4949  0.5571 -0.3571
  148SAPE  H15Y16386   5.640   6.105   8.800 -1.0349 -0.2166  0.0685
  148SAPE  C31616387   5.765   6.239   8.684  0.5110  0.3178  0.1018
  148SAPE  H16X16388   5.722   6.326   8.739  0.1789  0.5461 -0.5078
  148SAPE  H16Y16389   5.788   6.260   8.577  1.2308 -0.6053  0.0673
  148SAPE  C31716390   5.896   6.186   8.749 -0.0608  0.3712  0.8333
  148SAPE  H17X16391   5.927   6.089   8.703  0.1412  1.1409 -0.7046
  148SAPE  H17Y16392   5.890   6.155   8.856  3.6395 -0.4249  0.9513
  148SAPE  C31816393   6.018   6.283   8.740 -0.2539 -0.3042  0.3540
  148SAPE  H18X16394   6.049   6.297   8.635 -0.3723 -4.6434 -0.4688
  148SAPE  H18Y16395   6.102   6.244   8.802  0.4667  0.6211 -0.0265
  148SAPE  H18Z16396   5.980   6.380   8.777  1.1422  0.3547  0.1156
  149SAPE     N16397   0.319   0.627   6.082 -0.6272 -0.3518  0.3431
  149SAPE   HN116398   0.267   0.646   5.994  0.2670 -0.6954 -0.2663
  149SAPE   HN216399   0.393   0.699   6.093  0.3180 -1.2646  0.0677
  149SAPE   HN316400   0.379   0.542   6.073 -1.0721 -0.8037  1.3917
  149SAPE   C1216401   0.233   0.630   6.201 -0.1083  0.3026  0.3783
  149SAPE  H12A16402   0.290   0.600   6.291 -1.3172 -1.9227  0.4904
  149SAPE  H12B16403   0.159   0.550   6.181 -0.0709  0.4907 -0.5462
  149SAPE   C1116404   0.162   0.769   6.219 -0.1256  0.0185 -0.5513
  149SAPE  H11A16405   0.235   0.849   6.241  0.3184 -0.3202 -0.7913
  149SAPE  H11B16406   0.095   0.767   6.308  1.6165 -0.2022  0.8157
  149SAPE     P16407  -0.072   0.776   6.084  0.5058  0.1329  0.2875
  149SAPE   O1316408  -0.105   0.808   5.944  0.2761 -0.8191 -0.1318
  149SAPE   O1416409  -0.108   0.641   6.128 -0.3359  0.0794  0.0636
  149SAPE   O1216410   0.087   0.794   6.100 -0.0950  0.2355 -0.3923
  149SAPE   O1116411  -0.126   0.888   6.176 -0.0929 -0.2556  0.6558
  149SAPE    C116412  -0.175   0.856   6.306 -0.3639  0.0475  0.2923
  149SAPE    HA16413  -0.259   0.787   6.286  0.2920 -0.2411 -1.6356
  149SAPE    HB16414  -0.094   0.804   6.362 -1.8586 -1.8172  0.8391
  149SAPE    C216415  -0.226   0.973   6.395 -0.3820 -0.0201  0.0338
  149SAPE    HS16416  -0.299   1.023   6.328 -0.0660  0.6464  0.1755
  149SAPE   O2116417  -0.114   1.056   6.420 -0.3922 -0.3690  0.0771
  149SAPE   C2116418  -0.141   1.179   6.450 -1.0877 -0.4781  0.3385
  149SAPE   O2216419  -0.243   1.239   6.426  0.0495  0.1304  0.2623
  149SAPE   C2216420  -0.017   1.245   6.510 -0.3932 -0.0501 -0.3219
  149SAPE   H2R16421   0.069   1.176   6.503 -0.3376 -0.0790  0.5633
  149SAPE   H2S16422   0.006   1.337   6.452  0.5995  0.2140  0.4694
  149SAPE    C316423  -0.289   0.923   6.525 -0.3481  0.0398  0.4690
  149SAPE    HX16424  -0.215   0.851   6.567  1.4817  1.2657 -0.5381
  149SAPE    HY16425  -0.371   0.853   6.496 -0.7242  0.3688  0.7399
  149SAPE   O3116426  -0.328   1.017   6.633  0.1714  0.0407  0.3074
  149SAPE   C3116427  -0.451   1.072   6.612  0.2357  0.2523 -0.4709
  149SAPE   O3216428  -0.534   1.037   6.527 -0.2397 -0.0706 -0.1514
  149SAPE   C3216429  -0.456   1.193   6.698 -0.4933  0.0812 -0.1835
  149SAPE   H2X16430  -0.562   1.221   6.714  0.1507  1.1558  2.9817
  149SAPE   H2Y16431  -0.407   1.270   6.635 -1.2282 -0.0796 -0.9668
  149SAPE   C2316432  -0.037   1.284   6.654  0.5850 -1.6450  0.4384
  149SAPE   H3R16433  -0.132   1.338   6.675 -0.0894 -3.3493  2.0418
  149SAPE   H3S16434   0.048   1.353   6.673  0.1439 -0.9420 -0.0970
  149SAPE   C2416435  -0.028   1.167   6.749  0.8179  0.3165 -0.5086
  149SAPE   H4R16436  -0.091   1.082   6.715 -2.3709  2.2433  0.0996
  149SAPE   H4S16437  -0.089   1.202   6.835 -0.8395  1.4894 -2.0722
  149SAPE   C2516438   0.106   1.123   6.800  0.0354  0.1535 -0.0430
  149SAPE   H5R16439   0.184   1.085   6.732 -0.7294 -0.8318 -0.4026
  149SAPE   C2616440   0.145   1.145   6.928  0.5924  0.0880 -0.3091
  149SAPE   H6R16441   0.241   1.102   6.960  0.1293  0.1652  1.2812
  149SAPE   C2716442   0.053   1.204   7.035 -0.0348  0.0433 -0.3137
  149SAPE   H7R16443   0.004   1.299   7.002  1.0555  0.8113  0.1989
  149SAPE   H7S16444   0.126   1.238   7.111  2.9780 -1.4691 -2.3569
  149SAPE   C2816445  -0.043   1.099   7.085 -0.5115  0.2608  0.4124
  149SAPE   H8R16446  -0.097   1.042   7.007 -0.7992 -1.2947  1.7071
  149SAPE   C2916447  -0.036   1.028   7.195  0.2135 -0.6400 -0.0598
  149SAPE   H9R16448  -0.111   0.950   7.210  0.2475 -1.1391 -2.1482
  149SAPE  C21016449   0.065   1.057   7.301  0.2333  0.1491 -0.6647
  149SAPE  H10R16450   0.160   1.077   7.247  1.0803 -2.2852 -0.1856
  149SAPE  H10S16451   0.088   0.961   7.352 -1.8580 -0.9322 -1.6557
  149SAPE  C21116452   0.041   1.173   7.393 -0.3749  0.4413  0.4453
  149SAPE  H11R16453   0.017   1.266   7.340 -0.6423  1.0710  1.6249
  149SAPE  C21216454   0.038   1.179   7.528  0.1506 -0.5760  0.3242
  149SAPE  H12R16455   0.024   1.276   7.579  0.4162 -0.3526 -0.0318
  149SAPE  C21316456   0.051   1.058   7.619  0.1359  0.1263  0.1111
  149SAPE  H13R16457   0.084   0.965   7.569 -0.9067  1.4268 -3.2446
  149SAPE  H13S16458  -0.047   1.022   7.657  0.3352  1.1998  1.7385
  149SAPE  C21416459   0.137   1.099   7.740 -0.9570  0.3766 -1.1877
  149SAPE  H14R16460   0.206   1.183   7.725 -1.5224  0.8258 -1.3282
  149SAPE  C21516461   0.146   1.052   7.870  0.1429 -0.0525  0.3851
  149SAPE  H15R16462   0.203   1.112   7.943 -0.6498 -0.8455  1.6784
  149SAPE  C21616463   0.065   0.930   7.930 -0.0294 -0.1433  0.0160
  149SAPE  H16R16464   0.131   0.853   7.975 -1.4560 -2.6907 -1.9776
  149SAPE  H16S16465   0.022   0.874   7.845 -3.7995 -0.1378  1.7077
  149SAPE  C21716466  -0.060   0.958   8.023  0.2431  0.5156  0.3077
  149SAPE  H17R16467  -0.112   0.861   8.039  0.4697  0.4374  0.5558
  149SAPE  H17S16468  -0.129   1.034   7.979 -0.7984 -1.2489 -1.2811
  149SAPE  C21816469  -0.003   0.997   8.159 -0.2541 -0.7492 -0.4322
  149SAPE  H18R16470   0.072   1.076   8.145 -0.5514 -0.1047  1.3092
  149SAPE  H18S16471   0.031   0.909   8.218  1.7792  1.2207  1.4895
  149SAPE  C21916472  -0.108   1.046   8.264 -0.2467 -0.2272  0.2759
  149SAPE  H19R16473  -0.058   1.055   8.363 -1.1179 -0.2963  0.7236
  149SAPE  H19S16474  -0.186   0.968   8.271  2.3332 -3.1149 -0.5218
  149SAPE  C22016475  -0.148   1.186   8.225  0.6929 -0.5249 -0.5357
  149SAPE  H20R16476  -0.192   1.167   8.124  1.6454 -2.7479 -0.5821
  149SAPE  H20S16477  -0.063   1.257   8.229  0.6499 -0.5289  1.6292
  149SAPE  H20T16478  -0.236   1.219   8.285  1.5377 -1.4346  1.2750
  149SAPE   C3316479  -0.405   1.173   6.835  0.1346 -0.7761 -0.3340
  149SAPE   H3X16480  -0.298   1.143   6.845  1.0677  2.4320  0.5926
  149SAPE   H3Y16481  -0.475   1.091   6.861  0.0441 -0.5417  0.1688
  149SAPE   C3416482  -0.438   1.288   6.929  0.7065 -0.0513  0.3308
  149SAPE   H4X16483  -0.547   1.305   6.938  0.2260 -2.8805  0.6570
  149SAPE   H4Y16484  -0.394   1.381   6.888 -1.4594  0.6699 -0.4554
  149SAPE   C3516485  -0.383   1.264   7.071  0.2585  0.3624 -0.0522
  149SAPE   H5X16486  -0.272   1.255   7.066  0.4210  2.4072 -1.4588
  149SAPE   H5Y16487  -0.417   1.167   7.112  0.2824 -0.2551 -1.4500
  149SAPE   C3616488  -0.414   1.375   7.170 -0.0086  0.1099  0.5792
  149SAPE   H6X16489  -0.524   1.380   7.177 -0.4661 -1.1306 -3.1295
  149SAPE   H6Y16490  -0.373   1.473   7.137  0.4861 -0.7086 -1.3888
  149SAPE   C3716491  -0.370   1.330   7.311  0.7608  1.2165  0.3631
  149SAPE   H7X16492  -0.260   1.343   7.312  0.7900  1.0198  1.7345
  149SAPE   H7Y16493  -0.407   1.228   7.336 -1.8669  1.4318 -2.1575
  149SAPE   C3816494  -0.419   1.416   7.431 -0.6219  0.2919  0.3839
  149SAPE   H8X16495  -0.529   1.403   7.441 -0.3173 -2.2745  1.2654
  149SAPE   H8Y16496  -0.392   1.518   7.395  1.3458  0.2563  1.5815
  149SAPE   C3916497  -0.333   1.390   7.559 -0.6556  0.7353 -0.2716
  149SAPE   H9X16498  -0.361   1.474   7.626  0.9386 -0.2494  1.7545
  149SAPE   H9Y16499  -0.223   1.388   7.546 -0.6125 -1.0018  0.0896
  149SAPE  C31016500  -0.368   1.251   7.623  0.5071  0.0952  0.3155
  149SAPE  H10X16501  -0.316   1.174   7.563  1.2522  2.2780 -2.0336
  149SAPE  H10Y16502  -0.477   1.233   7.613  1.0959 -3.1292 -1.3624
  149SAPE  C31116503  -0.314   1.227   7.757  0.7152  0.2094 -0.1843
  149SAPE  H11X16504  -0.216   1.274   7.777  2.2736 -2.1774 -1.6562
  149SAPE  H11Y16505  -0.296   1.117   7.757  0.2470  0.0694 -2.4617
  149SAPE  C31216506  -0.412   1.258   7.878 -0.3842  0.5092  0.2597
  149SAPE  H12X16507  -0.371   1.205   7.967  3.9091 -1.9417 -2.8085
  149SAPE  H12Y16508  -0.500   1.198   7.844  2.3348 -3.3858 -0.6054
  149SAPE  C31316509  -0.461   1.405   7.889  0.3172  0.4853  0.0792
  149SAPE  H13X16510  -0.511   1.446   7.798 -0.2983  2.3295  1.1873
  149SAPE  H13Y16511  -0.372   1.467   7.912  0.1925  0.1657  1.5176
  149SAPE  C31416512  -0.564   1.414   8.010  0.4357  0.0392 -0.3716
  149SAPE  H14X16513  -0.651   1.347   7.993  1.4096 -1.4427  0.2585
  149SAPE  H14Y16514  -0.612   1.514   8.006  0.8765  0.2962  0.4970
  149SAPE  C31516515  -0.489   1.412   8.148  0.7855 -0.1130  0.2685
  149SAPE  H15X16516  -0.395   1.353   8.136  0.0850 -1.1576 -0.3165
  149SAPE  H15Y16517  -0.547   1.362   8.228 -2.2293  0.7034 -1.2701
  149SAPE  C31616518  -0.453   1.554   8.207 -0.1113  0.3969  0.7593
  149SAPE  H16X16519  -0.363   1.586   8.152 -0.6959 -1.6408 -1.5842
  149SAPE  H16Y16520  -0.426   1.537   8.313  2.0391  1.6421  0.4734
  149SAPE  C31716521  -0.562   1.663   8.203 -0.0259  0.6636 -0.1791
  149SAPE  H17X16522  -0.653   1.614   8.244 -0.1770 -0.0306 -1.3103
  149SAPE  H17Y16523  -0.595   1.689   8.100  0.6917  0.2368 -0.5258
  149SAPE  C31816524  -0.524   1.791   8.273 -0.6163  0.1535 -0.2297
  149SAPE  H18X16525  -0.492   1.777   8.378 -3.1641 -1.3131  0.4237
  149SAPE  H18Y16526  -0.621   1.839   8.296 -0.3637 -0.9678  4.0338
  149SAPE  H18Z16527  -0.444   1.841   8.214  0.9847  0.1601  1.8408
  150SAPE     N16528   4.901   6.232   6.429  0.2058  0.3277 -0.1278
  150SAPE   HN116529   4.985   6.186   6.468 -0.2259 -0.3477  0.0289
  150SAPE   HN216530   4.823   6.163   6.427 -1.1784  1.8036  0.4281
  150SAPE   HN316531   4.933   6.246   6.331 -1.3095 -1.1016 -0.8856
  150SAPE   C1216532   4.850   6.358   6.487 -0.0659  0.1044 -0.1704
  150SAPE  H12A16533   4.930   6.422   6.529  0.9291 -1.0211 -0.2951
  150SAPE  H12B16534   4.794   6.325   6.577  1.0351 -0.7431  0.2216
  150SAPE   C1116535   4.757   6.433   6.392  0.2725 -0.2009  0.1394
  150SAPE  H11A16536   4.709   6.511   6.455  2.4319  0.3059  1.2855
  150SAPE  H11B16537   4.684   6.369   6.339 -1.0973  1.2591  0.1845
  150SAPE     P16538   4.750   6.616   6.214 -0.3740 -0.1386 -0.2870
  150SAPE   O1316539   4.838   6.675   6.112  0.3666  0.7717  0.3392
  150SAPE   O1416540   4.622   6.561   6.160 -0.1731 -0.3572 -0.2650
  150SAPE   O1216541   4.831   6.504   6.291 -0.4803 -0.1172 -0.3659
  150SAPE   O1116542   4.720   6.722   6.336  0.3322  0.6738 -0.0305
  150SAPE    C116543   4.842   6.767   6.395 -0.4239  0.2952 -0.9897
  150SAPE    HA16544   4.906   6.684   6.432  0.7403  1.5383 -0.1289
  150SAPE    HB16545   4.901   6.829   6.324  1.4978  0.9268  1.0620
  150SAPE    C216546   4.818   6.865   6.512  0.6933 -0.1502 -0.8366
  150SAPE    HS16547   4.915   6.886   6.561  0.6163 -1.9870  0.1813
  150SAPE   O2116548   4.720   6.830   6.608 -0.6325  0.4219 -0.0930
  150SAPE   C2116549   4.736   6.719   6.678 -0.9793 -0.2827 -0.7260
  150SAPE   O2216550   4.834   6.650   6.675  0.0012  0.2892  0.6193
  150SAPE   C2216551   4.631   6.709   6.783 -0.1444  0.6727  0.0439
  150SAPE   H2R16552   4.674   6.749   6.878  1.8510 -0.5220 -0.3063
  150SAPE   H2S16553   4.533   6.749   6.748 -0.4936 -0.9175 -0.9100
  150SAPE    C316554   4.768   6.998   6.448  0.5128  0.6166  0.6756
  150SAPE    HX16555   4.686   6.975   6.377  1.7567 -1.1947 -0.2710
  150SAPE    HY16556   4.846   7.040   6.379 -0.3298 -0.3306 -0.9101
  150SAPE   O3116557   4.738   7.104   6.543  0.4439  0.4534 -0.1241
  150SAPE   C3116558   4.602   7.108   6.585  0.8838 -0.7131  0.5513
  150SAPE   O3216559   4.518   7.037   6.533  0.8283 -0.7308 -0.2141
  150SAPE   C3216560   4.574   7.223   6.684  0.2035 -0.9873 -0.2446
  150SAPE   H2X16561   4.491   7.290   6.652  0.3577  0.0987  1.4981
  150SAPE   H2Y16562   4.665   7.286   6.675 -0.7278  0.3731 -0.5258
  150SAPE   C2316563   4.602   6.562   6.819  0.3625  0.3241  0.2406
  150SAPE   H3R16564   4.697   6.512   6.848 -0.4342  0.0590  2.6770
  150SAPE   H3S16565   4.568   6.508   6.728  4.6928  0.3831 -1.6546
  150SAPE   C2416566   4.503   6.550   6.930  0.1366  0.1841  0.4222
  150SAPE   H4R16567   4.463   6.447   6.936 -3.1532  1.2913 -0.1481
  150SAPE   H4S16568   4.414   6.610   6.900  0.8792  1.6955  1.0965
  150SAPE   C2516569   4.550   6.593   7.068  0.1632  0.3991  0.2762
  150SAPE   H5R16570   4.600   6.690   7.053 -0.6497  0.9203  0.8920
  150SAPE   C2616571   4.561   6.528   7.183  0.6181  0.4715  0.5909
  150SAPE   H6R16572   4.592   6.586   7.271 -0.7759  1.3266  0.5552
  150SAPE   C2716573   4.506   6.391   7.224 -0.3491  0.0353 -0.2820
  150SAPE   H7R16574   4.399   6.388   7.194 -0.4174 -0.2809 -0.0125
  150SAPE   H7S16575   4.519   6.392   7.334  0.5610  1.2412 -0.3802
  150SAPE   C2816576   4.583   6.276   7.158 -0.7955 -0.6480  0.8201
  150SAPE   H8R16577   4.560   6.265   7.051  0.3821 -0.2860  0.5185
  150SAPE   C2916578   4.679   6.198   7.209  0.3937  0.6212  0.9192
  150SAPE   H9R16579   4.716   6.119   7.143 -0.6940  0.7453  0.1278
  150SAPE  C21016580   4.724   6.199   7.355  0.3499  0.1470 -0.7413
  150SAPE  H10R16581   4.641   6.190   7.429 -0.6917 -0.0689 -1.9129
  150SAPE  H10S16582   4.764   6.297   7.389 -0.6794  0.6101 -0.8296
  150SAPE  C21116583   4.828   6.099   7.373 -0.2252 -0.8071 -0.4099
  150SAPE  H11R16584   4.879   6.071   7.280  0.4329 -0.4712 -0.1615
  150SAPE  C21216585   4.868   6.045   7.490 -0.3806 -0.1479  0.0620
  150SAPE  H12R16586   4.949   5.972   7.502  1.2479  1.6759  0.5504
  150SAPE  C21316587   4.809   6.089   7.621 -0.0483  0.5921 -0.1736
  150SAPE  H13R16588   4.763   6.190   7.612  2.0711  1.4035 -3.5037
  150SAPE  H13S16589   4.892   6.113   7.691 -1.3639 -0.7500  1.9590
  150SAPE  C21416590   4.699   5.992   7.667 -1.0618  0.2183  0.0797
  150SAPE  H14R16591   4.634   5.964   7.583 -0.5155 -2.3659  0.4217
  150SAPE  C21516592   4.668   5.952   7.790 -0.2013  0.0834  0.7192
  150SAPE  H15R16593   4.584   5.883   7.809 -0.9438  1.3407  2.2114
  150SAPE  C21616594   4.735   5.990   7.917  0.1018 -0.4020 -0.7541
  150SAPE  H16R16595   4.810   6.070   7.896  0.7619 -1.1760 -1.3999
  150SAPE  H16S16596   4.787   5.905   7.964 -1.2573 -0.2035  1.2247
  150SAPE  C21716597   4.648   6.060   8.028  0.6397 -0.4521 -0.8808
  150SAPE  H17R16598   4.588   5.974   8.065  1.2233 -1.0540 -1.2854
  150SAPE  H17S16599   4.588   6.143   7.984  0.9324  2.0545  3.0058
  150SAPE  C21816600   4.732   6.117   8.147 -0.3077  1.0767 -0.3496
  150SAPE  H18R16601   4.672   6.172   8.223  1.0873  0.1923  1.4570
  150SAPE  H18S16602   4.813   6.187   8.120  2.7296 -2.9631 -2.9189
  150SAPE  C21916603   4.818   6.002   8.214 -0.3199  0.3275  0.7338
  150SAPE  H19R16604   4.916   5.998   8.164  1.0213  0.3553  3.1910
  150SAPE  H19S16605   4.779   5.898   8.204 -1.3350  0.5245  2.2041
  150SAPE  C22016606   4.851   6.026   8.360  0.7951  0.0745 -0.1293
  150SAPE  H20R16607   4.937   5.960   8.384 -0.7601 -3.1065 -2.4835
  150SAPE  H20S16608   4.759   5.990   8.412  0.8204 -0.8970 -0.7399
  150SAPE  H20T16609   4.861   6.134   8.383  3.1105 -0.3133  0.9238
  150SAPE   C3316610   4.555   7.166   6.824  0.0735 -0.4917 -0.5898
  150SAPE   H3X16611   4.523   7.060   6.829  0.0637 -0.4838 -0.4860
  150SAPE   H3Y16612   4.477   7.217   6.885  0.2244 -2.0196  0.9406
  150SAPE   C3416613   4.681   7.179   6.912 -0.2254 -0.6206  0.4960
  150SAPE   H4X16614   4.729   7.278   6.903 -1.4167 -0.1420 -1.1976
  150SAPE   H4Y16615   4.743   7.093   6.877  0.0863 -2.0021  4.0142
  150SAPE   C3516616   4.654   7.158   7.063  0.1031 -0.2880 -0.4106
  150SAPE   H5X16617   4.755   7.136   7.104  2.4004  0.1544 -5.1226
  150SAPE   H5Y16618   4.579   7.077   7.076  0.6537 -0.5271  1.6819
  150SAPE   C3616619   4.585   7.284   7.129  0.1166  0.1365  0.2758
  150SAPE   H6X16620   4.494   7.304   7.069  0.1048 -1.1449 -0.1775
  150SAPE   H6Y16621   4.658   7.367   7.123 -1.8327  1.9421  0.6883
  150SAPE   C3716622   4.551   7.248   7.275 -0.1359  1.0304  0.0373
  150SAPE   H7X16623   4.484   7.159   7.273  0.0736  0.8115 -3.0376
  150SAPE   H7Y16624   4.496   7.325   7.332 -0.0781  1.0728  0.0358
  150SAPE   C3816625   4.679   7.211   7.355  0.6623  0.2739  0.1095
  150SAPE   H8X16626   4.764   7.274   7.319  0.0926  0.6596 -0.5834
  150SAPE   H8Y16627   4.716   7.108   7.335  2.9639  1.2615 -1.1157
  150SAPE   C3916628   4.649   7.220   7.506  0.6774 -0.5923  0.0206
  150SAPE   H9X16629   4.576   7.142   7.536  1.7185 -0.7581  2.2935
  150SAPE   H9Y16630   4.595   7.310   7.540 -0.2702 -2.3601  3.6333
  150SAPE  C31016631   4.772   7.206   7.594 -0.5474  0.2268 -0.9682
  150SAPE  H10X16632   4.867   7.253   7.558 -0.9013  2.4718  0.8626
  150SAPE  H10Y16633   4.791   7.097   7.583  1.7071  0.3589  0.8821
  150SAPE  C31116634   4.744   7.235   7.741  0.0645 -0.1925  0.0557
  150SAPE  H11X16635   4.651   7.189   7.780  1.3142 -2.2898  0.7020
  150SAPE  H11Y16636   4.740   7.346   7.745  0.8048 -0.1790  0.6194
  150SAPE  C31216637   4.856   7.187   7.834 -0.2986  0.2499 -0.6767
  150SAPE  H12X16638   4.897   7.274   7.889 -3.0337  0.2533  1.6054
  150SAPE  H12Y16639   4.934   7.137   7.773  2.1180  1.0355  1.5751
  150SAPE  C31316640   4.809   7.077   7.937  0.0194 -0.5370  0.4936
  150SAPE  H13X16641   4.788   6.986   7.877 -0.9836  0.5796 -0.8973
  150SAPE  H13Y16642   4.714   7.103   7.988  0.2335  1.4861 -0.0838
  150SAPE  C31416643   4.909   7.040   8.044  0.1576  0.4882 -0.8581
  150SAPE  H14X16644   4.995   6.991   7.995  0.5421  1.0620 -0.7727
  150SAPE  H14Y16645   4.859   6.961   8.105  2.5038 -0.5908 -0.2233
  150SAPE  C31516646   4.941   7.155   8.143 -0.3201  0.0440  0.1499
  150SAPE  H15X16647   5.005   7.223   8.083  0.3795 -0.8993 -0.1931
  150SAPE  H15Y16648   4.998   7.116   8.231  2.0575  2.1241 -0.3386
  150SAPE  C31616649   4.816   7.213   8.202 -0.1316 -1.1257 -0.1697
  150SAPE  H16X16650   4.761   7.127   8.247  1.9440 -2.9967 -0.9944
  150SAPE  H16Y16651   4.766   7.256   8.113  3.8378  1.0425 -1.6001
  150SAPE  C31716652   4.825   7.335   8.286 -0.3785  0.0113  0.3579
  150SAPE  H17X16653   4.862   7.427   8.236  1.6617 -0.2619  1.2658
  150SAPE  H17Y16654   4.914   7.313   8.349  0.6022 -2.2237 -1.6479
  150SAPE  C31816655   4.702   7.372   8.375  0.0748 -0.4150 -0.2611
  150SAPE  H18X16656   4.686   7.290   8.447 -0.2836 -0.7854 -0.7571
  150SAPE  H18Y16657   4.612   7.374   8.310  0.5545 -1.7345 -0.9920
  150SAPE  H18Z16658   4.725   7.462   8.436  1.1518 -0.5557 -0.4303
  151SAPE     N16659   6.328   5.659   6.470 -0.8174 -0.4848 -0.3010
  151SAPE   HN116660   6.381   5.573   6.443 -0.6124 -0.5402  0.2529
  151SAPE   HN216661   6.239   5.608   6.485 -1.1375  0.3204  0.5782
  151SAPE   HN316662   6.320   5.716   6.384 -2.8633 -1.3143 -0.7007
  151SAPE   C1216663   6.377   5.726   6.603  0.8221  0.2385  0.2231
  151SAPE  H12A16664   6.414   5.654   6.678 -2.4171 -0.5105  1.2618
  151SAPE  H12B16665   6.293   5.779   6.654  2.1424  0.5563  2.1686
  151SAPE   C1116666   6.486   5.827   6.575 -0.1256 -0.4791 -0.4487
  151SAPE  H11A16667   6.532   5.843   6.675 -1.9895 -0.1653  0.3855
  151SAPE  H11B16668   6.434   5.923   6.558  0.9681  0.2342  0.1356
  151SAPE     P16669   6.716   5.859   6.443 -0.2668 -0.0416  0.5259
  151SAPE   O1316670   6.821   5.819   6.533  0.2692 -0.1056  0.2617
  151SAPE   O1416671   6.744   5.858   6.294 -0.1595 -0.3117 -0.0904
  151SAPE   O1216672   6.582   5.781   6.482  0.5456 -0.1344  0.3969
  151SAPE   O1116673   6.668   6.006   6.478  0.1984  0.4993 -0.5364
  151SAPE    C116674   6.775   6.104   6.502 -1.0359 -0.0195  0.1286
  151SAPE    HA16675   6.857   6.102   6.428  2.0969  0.9346  3.2860
  151SAPE    HB16676   6.735   6.206   6.483  0.8751  1.9174  4.9299
  151SAPE    C216677   6.829   6.101   6.641 -0.0073  0.3907 -0.4473
  151SAPE    HS16678   6.884   6.005   6.653 -1.6253 -0.8136 -2.1286
  151SAPE   O2116679   6.720   6.110   6.732 -0.0914  0.1164 -0.0874
  151SAPE   C2116680   6.723   6.048   6.852 -0.2764  0.2368  0.4721
  151SAPE   O2216681   6.807   5.964   6.884  0.4654  0.2149 -0.0750
  151SAPE   C2216682   6.607   6.088   6.942  0.0816 -0.5215  0.4831
  151SAPE   H2R16683   6.619   6.198   6.957  0.5488 -0.3993 -0.6676
  151SAPE   H2S16684   6.522   6.076   6.870  1.2217 -0.8364 -0.8499
  151SAPE    C316685   6.932   6.214   6.680  0.0883  0.1771  0.2504
  151SAPE    HX16686   6.868   6.306   6.678 -1.2451 -0.6967  1.2433
  151SAPE    HY16687   7.003   6.238   6.598  1.3229  2.8168  1.9475
  151SAPE   O3116688   6.985   6.210   6.810  0.0882 -0.4620  0.3789
  151SAPE   C3116689   7.095   6.141   6.831  0.3472 -0.2985 -0.1380
  151SAPE   O3216690   7.163   6.088   6.740  0.0471 -0.3878  0.0922
  151SAPE   C3216691   7.111   6.121   6.979  0.0820  0.3264 -0.5134
  151SAPE   H2X16692   7.123   6.013   7.003  2.4292  1.0252  1.8748
  151SAPE   H2Y16693   7.025   6.158   7.039  0.1968 -0.1954 -0.0200
  151SAPE   C2316694   6.581   5.993   7.066  0.0664 -0.3651 -0.3415
  151SAPE   H3R16695   6.518   6.046   7.140  0.5082 -3.3977  2.4238
  151SAPE   H3S16696   6.677   5.982   7.120  0.9572  2.9230 -0.9896
  151SAPE   C2416697   6.509   5.858   7.041 -0.6984 -0.1702 -0.3446
  151SAPE   H4R16698   6.526   5.805   7.137 -0.2267  1.8365  0.7292
  151SAPE   H4S16699   6.572   5.820   6.957  0.6418  2.7776 -0.7745
  151SAPE   C2516700   6.370   5.867   6.990 -0.3271  0.7478 -0.4014
  151SAPE   H5R16701   6.352   5.921   6.896  0.9790 -1.2927 -1.8824
  151SAPE   C2616702   6.264   5.834   7.062 -0.6840  0.4150 -0.2539
  151SAPE   H6R16703   6.172   5.822   7.003 -0.4821  0.5855 -0.6077
  151SAPE   C2716704   6.261   5.780   7.204  0.1565 -0.4705  0.7191
  151SAPE   H7R16705   6.362   5.789   7.248  1.3678 -2.3119 -1.4768
  151SAPE   H7S16706   6.236   5.672   7.208  1.0476 -0.7635 -0.8539
  151SAPE   C2816707   6.161   5.868   7.286 -0.0020  0.5180  0.3483
  151SAPE   H8R16708   6.132   5.968   7.251 -0.8935 -0.6126 -2.5288
  151SAPE   C2916709   6.092   5.824   7.397 -0.3617 -0.7622  0.4697
  151SAPE   H9R16710   6.030   5.904   7.439  1.4681  1.7005 -1.2336
  151SAPE  C21016711   6.104   5.687   7.465 -0.4641  0.4402 -0.0110
  151SAPE  H10R16712   6.044   5.705   7.557  1.2679  1.3259  1.0117
  151SAPE  H10S16713   6.211   5.685   7.495 -0.4585 -1.7999 -0.0456
  151SAPE  C21116714   6.072   5.560   7.395  0.7524  0.5296  0.4370
  151SAPE  H11R16715   6.062   5.572   7.287 -1.9396  1.2996  0.6914
  151SAPE  C21216716   6.035   5.445   7.460 -0.3557 -0.0170 -0.3124
  151SAPE  H12R16717   6.003   5.356   7.404  0.2098 -0.5162  0.1409
  151SAPE  C21316718   6.048   5.434   7.607 -0.2426 -0.7306  0.0595
  151SAPE  H13R16719   6.085   5.523   7.662  2.1038 -0.8500 -1.2064
  151SAPE  H13S16720   6.108   5.346   7.639 -0.8048 -1.5780 -1.1482
  151SAPE  C21416721   5.919   5.413   7.676 -0.4516  0.0364 -0.1149
  151SAPE  H14R16722   5.880   5.500   7.731  1.4209  0.2683  0.9137
  151SAPE  C21516723   5.850   5.301   7.688  0.0315 -0.2149  0.1926
  151SAPE  H15R16724   5.763   5.309   7.756 -1.3772 -1.6333 -1.3458
  151SAPE  C21616725   5.877   5.165   7.627  0.1551  0.7415  0.3049
  151SAPE  H16R16726   5.979   5.160   7.582 -0.2554  2.1240 -0.8773
  151SAPE  H16S16727   5.792   5.136   7.561  0.0456 -0.2573  0.8667
  151SAPE  C21716728   5.890   5.055   7.738  0.8665 -0.7637 -0.2111
  151SAPE  H17R16729   5.976   5.089   7.800  1.2714 -0.1026 -1.1090
  151SAPE  H17S16730   5.920   4.953   7.707  3.1739 -0.3076  0.2843
  151SAPE  C21816731   5.761   5.046   7.825 -0.7429 -0.4047  0.2776
  151SAPE  H18R16732   5.672   5.028   7.762  0.7086  0.1327 -2.0727
  151SAPE  H18S16733   5.751   5.145   7.874  3.1058  0.1306  0.3350
  151SAPE  C21916734   5.770   4.942   7.930 -0.0133  0.0265 -0.0533
  151SAPE  H19R16735   5.818   4.850   7.889 -0.6378 -0.3707  0.0910
  151SAPE  H19S16736   5.664   4.929   7.962 -1.1069  2.6309 -2.2378
  151SAPE  C22016737   5.845   4.986   8.060 -0.3512 -0.5214  0.0305
  151SAPE  H20R16738   5.851   4.907   8.137  2.2869 -0.2504  0.1843
  151SAPE  H20S16739   5.952   5.006   8.036 -1.0818  1.1846 -2.1549
  151SAPE  H20T16740   5.800   5.078   8.103  0.7343  0.2533 -0.4241
  151SAPE   C3316741   7.220   6.200   7.046 -0.0588 -0.5596  0.3575
  151SAPE   H3X16742   7.196   6.305   7.023 -1.7199 -0.8410  0.6244
  151SAPE   H3Y16743   7.317   6.169   7.002 -0.2376 -0.2085 -0.2958
  151SAPE   C3416744   7.223   6.174   7.195 -0.3380 -0.3962 -0.4665
  151SAPE   H4X16745   7.265   6.072   7.212  0.6141  0.3745  2.2146
  151SAPE   H4Y16746   7.124   6.191   7.241 -0.6404  0.2212 -1.3285
  151SAPE   C3516747   7.331   6.268   7.253 -0.3653 -0.4892  0.2628
  151SAPE   H5X16748   7.296   6.373   7.256 -1.2460 -0.7831  0.3272
  151SAPE   H5Y16749   7.415   6.257   7.181  0.2262 -1.0637  1.0165
  151SAPE   C3616750   7.406   6.236   7.385 -0.2032  0.1289  0.3375
  151SAPE   H6X16751   7.500   6.295   7.390  0.7778 -0.5680 -4.4360
  151SAPE   H6Y16752   7.455   6.137   7.377  0.9091  0.7594 -1.2764
  151SAPE   C3716753   7.317   6.232   7.508 -0.4210 -0.1913  0.0162
  151SAPE   H7X16754   7.239   6.158   7.481  1.0594 -0.9343 -2.6515
  151SAPE   H7Y16755   7.271   6.331   7.526 -1.3796 -0.5931 -0.1800
  151SAPE   C3816756   7.398   6.201   7.634 -0.5245 -0.2074  0.1981
  151SAPE   H8X16757   7.476   6.280   7.635 -0.0218 -0.6712  2.2870
  151SAPE   H8Y16758   7.436   6.098   7.619 -2.1372 -0.7235 -0.6470
  151SAPE   C3916759   7.311   6.208   7.756 -0.4564  0.3819  0.4171
  151SAPE   H9X16760   7.228   6.140   7.726 -0.2594  1.4192 -2.8774
  151SAPE   H9Y16761   7.253   6.303   7.763  0.8286  1.9313 -5.1420
  151SAPE  C31016762   7.389   6.171   7.886 -0.8129  0.0020 -0.0270
  151SAPE  H10X16763   7.479   6.235   7.894  0.4515 -1.6657 -0.3004
  151SAPE  H10Y16764   7.425   6.067   7.875 -2.2513 -0.3766 -1.5393
  151SAPE  C31116765   7.303   6.197   8.016  0.4374  0.0431  0.7358
  151SAPE  H11X16766   7.221   6.121   8.014 -3.5874  3.9001  2.3778
  151SAPE  H11Y16767   7.254   6.297   8.015 -0.9344 -0.5915  1.0134
  151SAPE  C31216768   7.379   6.177   8.146  0.0557 -0.2350 -0.2471
  151SAPE  H12X16769   7.414   6.280   8.167 -1.9280  0.5728 -0.6977
  151SAPE  H12Y16770   7.457   6.097   8.143  1.2678  0.8637  0.8640
  151SAPE  C31316771   7.278   6.137   8.259 -0.4732  0.9133 -0.1289
  151SAPE  H13X16772   7.240   6.035   8.238  1.6087  0.5093 -2.2457
  151SAPE  H13Y16773   7.195   6.211   8.261 -1.1939  0.1643  2.8661
  151SAPE  C31416774   7.331   6.134   8.408 -0.6501 -0.2315 -0.2464
  151SAPE  H14X16775   7.335   6.244   8.424  0.3051  0.0284 -1.9943
  151SAPE  H14Y16776   7.433   6.092   8.422 -1.1003 -0.9514  1.0076
  151SAPE  C31516777   7.248   6.048   8.516  0.3666 -0.1748 -1.4402
  151SAPE  H15X16778   7.240   5.939   8.497  0.9621 -0.9578  2.0132
  151SAPE  H15Y16779   7.145   6.088   8.511  0.5220  0.6257  0.6128
  151SAPE  C31616780   7.310   6.075   8.653  0.3907 -0.1543  0.1788
  151SAPE  H16X16781   7.303   6.184   8.674 -3.7290 -0.1026 -0.6197
  151SAPE  H16Y16782   7.417   6.047   8.662 -0.0548 -1.8506  0.6107
  151SAPE  C31716783   7.250   6.008   8.784  0.2379 -0.2560 -0.3058
  151SAPE  H17X16784   7.288   6.074   8.864  1.5711 -2.2218  0.7651
  151SAPE  H17Y16785   7.305   5.913   8.802 -0.8227 -0.4729  2.1215
  151SAPE  C31816786   7.096   5.998   8.790  0.5669  0.0471  0.0832
  151SAPE  H18X16787   7.064   5.912   8.727 -0.5341  0.0216  0.6482
  151SAPE  H18Y16788   7.030   6.077   8.750  1.0634 -0.7993 -2.6680
  151SAPE  H18Z16789   7.057   5.961   8.887 -0.3161 -2.4081 -1.1169
  152SAPE     N16790   2.695   6.089   6.330  0.1068 -0.4367 -0.8172
  152SAPE   HN116791   2.733   6.035   6.410 -0.7409 -0.0441 -0.1324
  152SAPE   HN216792   2.621   6.034   6.282 -0.9999  1.3943 -1.2923
  152SAPE   HN316793   2.771   6.118   6.265  0.2187  2.2181  0.3490
  152SAPE   C1216794   2.633   6.217   6.390 -0.2326 -0.0708  0.7235
  152SAPE  H12A16795   2.717   6.286   6.413 -1.0944  0.4396  2.5098
  152SAPE  H12B16796   2.582   6.198   6.487 -0.8567 -1.5067  0.1496
  152SAPE   C1116797   2.526   6.275   6.295 -0.6637 -0.7582  1.0001
  152SAPE  H11A16798   2.427   6.226   6.305 -1.2694 -0.2852 -1.7237
  152SAPE  H11B16799   2.560   6.263   6.190 -0.2526 -0.5122  1.1009
  152SAPE     P16800   2.579   6.527   6.253  0.1718  0.4539  0.2541
  152SAPE   O1316801   2.556   6.516   6.107 -0.1449 -0.9379 -0.0087
  152SAPE   O1416802   2.546   6.653   6.323  0.2990  0.7256  0.5335
  152SAPE   O1216803   2.500   6.410   6.328  0.0005  0.2825 -0.2050
  152SAPE   O1116804   2.733   6.488   6.273 -0.0228 -0.1102  0.5997
  152SAPE    C116805   2.816   6.503   6.390 -0.3070 -0.3501 -0.1715
  152SAPE    HA16806   2.756   6.496   6.484  0.4923 -1.3551  0.2760
  152SAPE    HB16807   2.882   6.414   6.396 -1.6125 -1.2963  0.6806
  152SAPE    C216808   2.900   6.637   6.379 -0.5952 -0.7147 -0.9726
  152SAPE    HS16809   2.969   6.636   6.466 -2.1798  0.4010  0.3477
  152SAPE   O2116810   2.800   6.739   6.385  0.8365 -0.3853 -0.0844
  152SAPE   C2116811   2.772   6.779   6.513  0.0548 -0.6287  0.0735
  152SAPE   O2216812   2.824   6.749   6.615  0.6287 -0.8220 -0.7516
  152SAPE   C2216813   2.660   6.894   6.501 -0.6726  0.1138 -0.0466
  152SAPE   H2R16814   2.695   6.959   6.418  0.1197  0.1697  0.3239
  152SAPE   H2S16815   2.566   6.845   6.468 -1.8084  2.0257  0.2126
  152SAPE    C316816   2.996   6.655   6.255  1.0666  0.5927  0.4949
  152SAPE    HX16817   3.023   6.762   6.241  0.6343  0.6906  0.4087
  152SAPE    HY16818   2.935   6.623   6.167  1.2022 -1.4580  1.0927
  152SAPE   O3116819   3.118   6.583   6.268  0.7890  0.2484 -0.0215
  152SAPE   C3116820   3.128   6.463   6.206 -1.1570 -1.0279  0.5251
  152SAPE   O3216821   3.051   6.417   6.126 -0.6451 -0.5964  0.1642
  152SAPE   C3216822   3.249   6.388   6.267  0.4720 -0.0683  0.5577
  152SAPE   H2X16823   3.331   6.463   6.261 -0.6776  1.3574  1.8253
  152SAPE   H2Y16824   3.267   6.304   6.196 -0.4438  1.7472 -1.9461
  152SAPE   C2316825   2.647   6.969   6.632 -0.3427 -0.5103  0.3149
  152SAPE   H3R16826   2.611   7.071   6.606 -1.1152 -1.5162 -3.1325
  152SAPE   H3S16827   2.746   6.989   6.678 -0.4021 -0.0601  0.2435
  152SAPE   C2416828   2.559   6.897   6.737 -0.0642  0.0886 -0.1500
  152SAPE   H4R16829   2.555   6.958   6.831 -0.8626  1.3927 -1.0009
  152SAPE   H4S16830   2.612   6.804   6.768 -0.0228  0.4332  0.8747
  152SAPE   C2516831   2.419   6.869   6.691 -0.0328 -0.2743 -0.7059
  152SAPE   H5R16832   2.416   6.789   6.616  3.6163 -1.6059  0.3531
  152SAPE   C2616833   2.308   6.928   6.740 -0.3140 -0.7126  0.2607
  152SAPE   H6R16834   2.220   6.891   6.685  1.3290  0.6938 -3.6347
  152SAPE   C2716835   2.293   7.048   6.834  0.0912  0.7095 -0.6526
  152SAPE   H7R16836   2.256   7.142   6.787  0.1704  0.1670 -1.8536
  152SAPE   H7S16837   2.392   7.076   6.874  0.9606 -0.9363 -1.5445
  152SAPE   C2816838   2.190   7.015   6.946 -0.1573  1.0095 -0.1057
  152SAPE   H8R16839   2.096   6.962   6.925 -1.2471  1.8790  2.2712
  152SAPE   C2916840   2.192   7.058   7.075  0.5957  0.2177 -0.1026
  152SAPE   H9R16841   2.103   7.024   7.130  0.1266 -1.2651 -1.7035
  152SAPE  C21016842   2.285   7.162   7.134 -0.1915  0.2467  0.1882
  152SAPE  H10R16843   2.221   7.248   7.163  0.3108  0.2204  1.4290
  152SAPE  H10S16844   2.341   7.203   7.048  0.3642 -1.5004 -0.3145
  152SAPE  C21116845   2.391   7.105   7.225  0.2109  0.0503 -0.5818
  152SAPE  H11R16846   2.465   7.040   7.176 -0.3809 -2.5905  1.8215
  152SAPE  C21216847   2.402   7.140   7.360 -0.0693  0.1402  0.4726
  152SAPE  H12R16848   2.481   7.091   7.420  2.4055  1.0382 -1.8455
  152SAPE  C21316849   2.301   7.236   7.430 -0.5894  0.1768 -0.5006
  152SAPE  H13R16850   2.281   7.179   7.523  0.2336 -0.6052 -0.7826
  152SAPE  H13S16851   2.207   7.248   7.373 -0.9436 -1.0311 -0.1953
  152SAPE  C21416852   2.359   7.368   7.463 -0.5534 -1.0417  0.0663
  152SAPE  H14R16853   2.330   7.451   7.396  2.5654  1.8788  1.9929
  152SAPE  C21516854   2.433   7.425   7.561 -0.1500  0.8853  0.1247
  152SAPE  H15R16855   2.459   7.531   7.559  1.5735  0.5391  1.5808
  152SAPE  C21616856   2.498   7.352   7.671  0.4445  0.0033  0.0935
  152SAPE  H16R16857   2.609   7.360   7.667  0.4720 -0.5911 -0.7823
  152SAPE  H16S16858   2.471   7.244   7.682 -0.7200  0.2023 -0.6159
  152SAPE  C21716859   2.449   7.424   7.802 -0.5886  0.1130 -0.5028
  152SAPE  H17R16860   2.338   7.421   7.810 -0.5396 -0.5874 -0.0109
  152SAPE  H17S16861   2.473   7.533   7.802  1.4345 -0.2990 -1.8413
  152SAPE  C21816862   2.499   7.352   7.929 -1.0704 -0.7123  0.3408
  152SAPE  H18R16863   2.610   7.351   7.923 -1.0252 -0.9326  1.0423
  152SAPE  H18S16864   2.479   7.242   7.928 -0.2913 -0.8744 -1.5004
  152SAPE  C21916865   2.474   7.428   8.061  0.9140 -0.3870  0.8174
  152SAPE  H19R16866   2.369   7.462   8.074  0.4015 -0.6703 -1.9423
  152SAPE  H19S16867   2.521   7.528   8.058  2.9615 -1.3040  0.1518
  152SAPE  C22016868   2.545   7.359   8.174  0.0959 -0.0455 -0.8377
  152SAPE  H20R16869   2.542   7.249   8.160  1.7213 -0.3011  0.5467
  152SAPE  H20S16870   2.501   7.400   8.267  1.1645 -0.4972 -0.1072
  152SAPE  H20T16871   2.653   7.384   8.165  0.5502 -1.8900 -0.8729
  152SAPE   C3316872   3.232   6.339   6.413  0.2228 -0.4082 -0.0052
  152SAPE   H3X16873   3.190   6.427   6.466  2.0409  0.1109  0.6236
  152SAPE   H3Y16874   3.336   6.319   6.447 -0.0274 -2.9446 -0.5472
  152SAPE   C3416875   3.150   6.210   6.424 -0.2996  0.0188  0.4446
  152SAPE   H4X16876   3.216   6.131   6.383  0.0068  1.2296 -1.4866
  152SAPE   H4Y16877   3.062   6.223   6.358  0.5471 -0.3348 -0.7871
  152SAPE   C3516878   3.102   6.166   6.562  0.5850 -0.3309 -0.6294
  152SAPE   H5X16879   3.184   6.160   6.637 -2.4018  2.0444  3.2133
  152SAPE   H5Y16880   3.036   6.078   6.556  0.4997 -0.6710  3.0870
  152SAPE   C3616881   3.009   6.275   6.623 -0.2103  0.2437 -0.0260
  152SAPE   H6X16882   2.910   6.283   6.575 -0.5249  1.5596  0.7812
  152SAPE   H6Y16883   3.056   6.375   6.608  0.4315 -0.1215 -0.4930
  152SAPE   C3716884   2.989   6.273   6.773 -1.0760 -0.4794 -0.5146
  152SAPE   H7X16885   2.941   6.365   6.814 -3.7016 -2.1739  0.4408
  152SAPE   H7Y16886   3.094   6.274   6.810 -1.0607  1.3610 -0.4903
  152SAPE   C3816887   2.928   6.142   6.829  0.4990 -0.0538  0.2911
  152SAPE   H8X16888   2.963   6.054   6.772  1.0991  0.7090 -0.5445
  152SAPE   H8Y16889   2.817   6.143   6.831  0.4997  0.9551  0.7151
  152SAPE   C3916890   2.974   6.112   6.977 -0.0377  0.2315 -0.2925
  152SAPE   H9X16891   3.085   6.116   6.985 -0.0887 -0.2378  0.7307
  152SAPE   H9Y16892   2.953   6.004   6.992 -0.7792  0.1001 -2.0369
  152SAPE  C31016893   2.919   6.213   7.075 -0.3898 -0.1068  0.1347
  152SAPE  H10X16894   2.813   6.188   7.097 -0.3421  1.5629  2.6780
  152SAPE  H10Y16895   2.928   6.314   7.030  0.4558 -0.6022 -0.8566
  152SAPE  C31116896   2.974   6.196   7.215 -0.1146 -0.5548  0.1505
  152SAPE  H11X16897   3.080   6.228   7.220 -0.1246 -0.0302 -1.8372
  152SAPE  H11Y16898   2.975   6.087   7.234 -0.7636 -0.4237  0.9867
  152SAPE  C31216899   2.892   6.267   7.330 -0.0503 -0.0724  0.8821
  152SAPE  H12X16900   2.785   6.240   7.320 -0.0393 -0.5008  1.8428
  152SAPE  H12Y16901   2.897   6.370   7.290  1.1236  0.1043  1.4448
  152SAPE  C31316902   2.939   6.247   7.475 -0.6584 -0.3605  0.4184
  152SAPE  H13X16903   3.050   6.249   7.470 -0.6416 -0.2032  0.8205
  152SAPE  H13Y16904   2.924   6.146   7.519  0.2712 -0.1671  1.2226
  152SAPE  C31416905   2.872   6.356   7.561 -0.1565  0.0430  0.3197
  152SAPE  H14X16906   2.762   6.345   7.564 -0.3089  1.1849 -0.4387
  152SAPE  H14Y16907   2.897   6.455   7.517  0.9318 -0.5756 -0.4909
  152SAPE  C31516908   2.932   6.367   7.704  0.0595 -0.3047  0.3672
  152SAPE  H15X16909   2.885   6.460   7.743 -0.4822 -0.1278 -0.6814
  152SAPE  H15Y16910   3.038   6.393   7.684 -0.2720  1.6308  0.9009
  152SAPE  C31616911   2.914   6.243   7.795  0.7366 -0.7184  0.0567
  152SAPE  H16X16912   2.966   6.261   7.891 -1.5931 -1.1619  1.4902
  152SAPE  H16Y16913   2.945   6.145   7.753 -1.9728 -1.9384  0.6766
  152SAPE  C31716914   2.765   6.220   7.834 -0.2407  0.4572 -0.2883
  152SAPE  H17X16915   2.717   6.199   7.737  3.5600 -1.0362 -2.0354
  152SAPE  H17Y16916   2.715   6.314   7.867 -0.9666  0.4771 -1.3822
  152SAPE  C31816917   2.751   6.113   7.941  1.0969  0.5426 -0.3201
  152SAPE  H18X16918   2.810   6.022   7.917  0.8788 -0.1785  1.6958
  152SAPE  H18Y16919   2.648   6.075   7.956  1.0552  1.2843  1.5978
  152SAPE  H18Z16920   2.789   6.138   8.042  0.6835 -2.9698  0.8392
  153SAPE     N16921   5.237   2.508   6.136 -0.7091  0.2882  0.3722
  153SAPE   HN116922   5.143   2.545   6.163 -1.0225  0.5628 -1.0169
  153SAPE   HN216923   5.306   2.586   6.130  1.0021 -1.2590 -0.9923
  153SAPE   HN316924   5.227   2.462   6.044  1.8056  2.1288 -0.9381
  153SAPE   C1216925   5.283   2.397   6.237 -0.3882  0.1684  0.0301
  153SAPE  H12A16926   5.190   2.370   6.291 -2.2562  3.4786 -1.2401
  153SAPE  H12B16927   5.358   2.439   6.308 -0.8498  0.2952  0.4436
  153SAPE   C1116928   5.340   2.281   6.162  0.3513  0.5178  0.3188
  153SAPE  H11A16929   5.261   2.231   6.102 -0.8884  2.2897  0.3995
  153SAPE  H11B16930   5.377   2.209   6.239  3.2883  0.1570 -1.3001
  153SAPE     P16931   5.581   2.360   6.116  0.2392  0.1086  0.2968
  153SAPE   O1316932   5.672   2.280   6.030  0.1510 -0.0758 -0.3552
  153SAPE   O1416933   5.588   2.510   6.109 -0.0385  0.1199 -1.1422
  153SAPE   O1216934   5.441   2.328   6.067 -0.0704 -0.1791 -0.3888
  153SAPE   O1116935   5.598   2.311   6.269 -0.1607 -0.8820 -0.0741
  153SAPE    C116936   5.644   2.407   6.372 -0.4694  0.2779 -0.2769
  153SAPE    HA16937   5.587   2.502   6.371  0.7553  1.0343 -0.8395
  153SAPE    HB16938   5.626   2.363   6.473  1.5634  0.4123  0.1914
  153SAPE    C216939   5.802   2.427   6.368 -0.0883  0.3994  0.0178
  153SAPE    HS16940   5.847   2.354   6.297  1.2301  2.2618 -1.1598
  153SAPE   O2116941   5.850   2.421   6.501  0.1444 -0.2394  0.0745
  153SAPE   C2116942   5.977   2.365   6.518  0.7237  0.6735  0.2009
  153SAPE   O2216943   6.042   2.305   6.437  0.5326  0.2215 -0.0480
  153SAPE   C2216944   6.027   2.397   6.662  0.9724 -0.0130  0.3430
  153SAPE   H2R16945   5.955   2.467   6.710  1.2471  1.1252 -0.8693
  153SAPE   H2S16946   6.027   2.298   6.713  0.5040  1.1028  2.6343
  153SAPE    C316947   5.829   2.573   6.313  0.4360 -0.2585  0.3444
  153SAPE    HX16948   5.787   2.633   6.398  1.8995 -0.7467  1.4483
  153SAPE    HY16949   5.765   2.605   6.228 -0.4301  0.8685  1.3710
  153SAPE   O3116950   5.968   2.608   6.309 -0.1445  0.7016  0.3901
  153SAPE   C3116951   6.026   2.588   6.189 -0.1589 -0.1795  0.3902
  153SAPE   O3216952   5.971   2.532   6.095  0.0414 -0.2810  0.2557
  153SAPE   C3216953   6.170   2.637   6.193 -0.4609 -0.0427 -0.3216
  153SAPE   H2X16954   6.193   2.664   6.299 -1.5233 -1.5212  0.3216
  153SAPE   H2Y16955   6.177   2.726   6.127  0.7962  0.3275  0.2702
  153SAPE   C2316956   6.167   2.457   6.675 -0.3488 -0.3978 -0.1699
  153SAPE   H3R16957   6.175   2.564   6.646 -0.8803 -1.0759 -3.1454
  153SAPE   H3S16958   6.231   2.424   6.591  1.4321 -0.4722  1.1571
  153SAPE   C2416959   6.245   2.452   6.812 -0.2832  0.0782  0.7752
  153SAPE   H4R16960   6.186   2.513   6.884  0.5037 -0.1558  1.6371
  153SAPE   H4S16961   6.344   2.501   6.805 -0.5476  0.5741  0.4262
  153SAPE   C2516962   6.262   2.309   6.853  0.0904  0.6001 -0.3577
  153SAPE   H5R16963   6.299   2.244   6.773 -0.5544  1.2145 -1.1829
  153SAPE   C2616964   6.246   2.256   6.976  0.4636 -0.5628  0.6168
  153SAPE   H6R16965   6.255   2.147   6.984 -2.0627 -1.0601 -1.6858
  153SAPE   C2716966   6.213   2.321   7.104 -1.3773  0.5291  0.2310
  153SAPE   H7R16967   6.106   2.305   7.130 -1.6623  1.2792 -0.4272
  153SAPE   H7S16968   6.241   2.429   7.107  1.7265 -0.2022  0.6766
  153SAPE   C2816969   6.300   2.255   7.209 -0.1482  0.1243  1.2975
  153SAPE   H8R16970   6.401   2.231   7.173  0.0403 -0.7885  2.3647
  153SAPE   C2916971   6.282   2.249   7.334  1.2348 -0.7889  0.2105
  153SAPE   H9R16972   6.366   2.203   7.389  1.4268 -2.8382 -1.6560
  153SAPE  C21016973   6.160   2.296   7.403  0.0283 -0.4515  0.1656
  153SAPE  H10R16974   6.074   2.290   7.333 -1.2976  1.0687  1.5804
  153SAPE  H10S16975   6.171   2.405   7.424  0.0990  0.1608 -2.6581
  153SAPE  C21116976   6.120   2.230   7.531  0.5411 -0.2879 -1.1031
  153SAPE  H11R16977   6.049   2.146   7.531  1.6220 -1.5090  3.4791
  153SAPE  C21216978   6.169   2.258   7.651 -0.5354 -0.3327 -0.2396
  153SAPE  H12R16979   6.144   2.202   7.742 -0.1541 -1.4051 -0.7810
  153SAPE  C21316980   6.263   2.375   7.685  0.1817  0.2616  0.5831
  153SAPE  H13R16981   6.202   2.451   7.739  0.0330  0.6426 -0.1077
  153SAPE  H13S16982   6.290   2.430   7.593 -1.5289  1.9493  1.0116
  153SAPE  C21416983   6.391   2.331   7.764  0.8364  0.3604  0.4750
  153SAPE  H14R16984   6.467   2.276   7.706 -1.5499 -0.1460 -2.4421
  153SAPE  C21516985   6.399   2.331   7.900 -0.5629 -0.1440  0.6564
  153SAPE  H15R16986   6.495   2.295   7.941 -0.7984 -3.0991 -1.0727
  153SAPE  C21616987   6.299   2.376   7.994  0.6258 -0.3972 -0.3860
  153SAPE  H16R16988   6.260   2.472   7.955 -1.0350 -0.6587  0.5662
  153SAPE  H16S16989   6.354   2.384   8.090  2.1357 -2.2566 -1.0177
  153SAPE  C21716990   6.181   2.278   8.025  0.3478  0.0481 -0.1116
  153SAPE  H17R16991   6.224   2.191   8.079 -2.7233 -1.2799  0.4297
  153SAPE  H17S16992   6.140   2.247   7.927  0.3020 -0.6400  0.1225
  153SAPE  C21816993   6.066   2.332   8.120  0.3996 -0.7320 -0.6793
  153SAPE  H18R16994   6.042   2.436   8.089  0.3109 -0.2452  0.9820
  153SAPE  H18S16995   6.095   2.331   8.227  0.1560 -1.5240 -0.6137
  153SAPE  C21916996   5.945   2.235   8.125 -0.6758 -0.6796 -0.3632
  153SAPE  H19R16997   5.865   2.278   8.189 -0.7653 -0.2172 -0.7762
  153SAPE  H19S16998   5.972   2.135   8.165 -1.5490 -1.2981 -1.2697
  153SAPE  C22016999   5.869   2.214   7.992 -0.3256 -0.3312 -0.9093
  153SAPE  H20R17000   5.922   2.134   7.936 -0.3914 -1.1419  0.1530
  153SAPE  H20S17001   5.857   2.308   7.934  1.4105  0.5285  0.0354
  153SAPE  H20T17002   5.769   2.172   8.012 -0.9311  1.9675  1.4432
  153SAPE   C3317003   6.268   2.526   6.140  0.2909 -0.2794  0.3079
  153SAPE   H3X17004   6.358   2.569   6.092  0.2249  1.5429  1.7255
  153SAPE   H3Y17005   6.220   2.475   6.054  1.2452 -0.0439 -0.3781
  153SAPE   C3417006   6.334   2.449   6.254  0.7747 -0.5332 -0.4307
  153SAPE   H4X17007   6.266   2.377   6.304 -1.2715  0.6650 -1.3495
  153SAPE   H4Y17008   6.349   2.526   6.332 -1.2422 -0.4143 -0.1047
  153SAPE   C3517009   6.465   2.390   6.208  0.4858  0.0447 -0.3452
  153SAPE   H5X17010   6.527   2.478   6.181 -1.1656  0.5725 -2.8041
  153SAPE   H5Y17011   6.447   2.341   6.109  0.2192  1.7425 -1.1674
  153SAPE   C3617012   6.541   2.307   6.315 -0.5504  0.2462  0.3137
  153SAPE   H6X17013   6.610   2.239   6.261 -2.5193 -0.6845 -1.1308
  153SAPE   H6Y17014   6.481   2.229   6.365  0.8908 -0.9455  0.2437
  153SAPE   C3717015   6.588   2.392   6.434 -0.6325 -0.2608  0.1564
  153SAPE   H7X17016   6.504   2.437   6.491  0.4840  1.6760  0.3613
  153SAPE   H7Y17017   6.636   2.482   6.390  1.9018 -1.5057  0.2267
  153SAPE   C3817018   6.692   2.321   6.518 -0.0481 -0.3343 -0.0183
  153SAPE   H8X17019   6.770   2.391   6.557 -1.8554  1.6759  0.1465
  153SAPE   H8Y17020   6.746   2.245   6.457 -1.6177  0.3606 -2.4287
  153SAPE   C3917021   6.643   2.239   6.637 -0.2468 -0.3340 -0.2190
  153SAPE   H9X17022   6.609   2.137   6.609 -1.0279 -0.3441  0.6956
  153SAPE   H9Y17023   6.556   2.298   6.674  0.1241 -1.7588  3.3975
  153SAPE  C31017024   6.747   2.232   6.755  0.6239  0.2239 -0.4022
  153SAPE  H10X17025   6.760   2.337   6.789  1.7350  0.4997 -1.6022
  153SAPE  H10Y17026   6.837   2.192   6.704  0.5322  0.4164 -0.7155
  153SAPE  C31117027   6.709   2.129   6.857 -0.1180  0.0351  0.2860
  153SAPE  H11X17028   6.698   2.032   6.803  1.5106  0.2447 -0.5111
  153SAPE  H11Y17029   6.613   2.156   6.904  0.2334 -1.1145  1.7348
  153SAPE  C31217030   6.823   2.119   6.962 -0.4735  0.4465  0.6672
  153SAPE  H12X17031   6.830   2.221   7.006  2.3793  1.1862 -1.2492
  153SAPE  H12Y17032   6.916   2.103   6.904 -0.8713  2.5806 -0.6462
  153SAPE  C31317033   6.806   2.001   7.057 -0.1662  0.0768  0.2666
  153SAPE  H13X17034   6.807   1.911   6.992 -0.0869  1.6933 -2.0946
  153SAPE  H13Y17035   6.700   2.016   7.086 -0.1699 -1.2313  0.9692
  153SAPE  C31417036   6.907   1.989   7.169  0.0564 -0.6854 -0.0374
  153SAPE  H14X17037   7.008   2.007   7.127 -0.5823  1.7089 -0.6615
  153SAPE  H14Y17038   6.910   1.890   7.221  1.4794 -0.4476  0.3713
  153SAPE  C31517039   6.892   2.101   7.283  0.2991  0.4195 -0.1654
  153SAPE  H15X17040   6.788   2.085   7.319  0.0420 -1.1225 -1.4865
  153SAPE  H15Y17041   6.903   2.201   7.237  2.5047  0.3261  0.0463
  153SAPE  C31617042   6.990   2.060   7.394  0.1162  0.2173 -0.8141
  153SAPE  H16X17043   7.095   2.056   7.357  0.0086 -2.0394 -1.0173
  153SAPE  H16Y17044   6.966   1.961   7.438  1.6833 -0.4567 -1.3821
  153SAPE  C31717045   6.979   2.171   7.500  0.0314 -0.3728  0.0890
  153SAPE  H17X17046   6.869   2.163   7.518  0.0290 -1.2958 -0.2591
  153SAPE  H17Y17047   7.003   2.274   7.466 -1.1568 -0.1926 -0.2505
  153SAPE  C31817048   7.063   2.145   7.624 -0.8552  0.2205  0.0118
  153SAPE  H18X17049   7.060   2.234   7.691 -1.9774 -1.3235  2.1454
  153SAPE  H18Y17050   7.170   2.129   7.598 -1.7100 -1.5915 -2.8590
  153SAPE  H18Z17051   7.032   2.063   7.692  2.0965 -1.4397 -0.4871
  154SAPE     N17052   4.668   2.228   5.860 -0.0562 -0.6596  0.4724
  154SAPE   HN117053   4.601   2.270   5.793 -0.6863  0.1901  1.6047
  154SAPE   HN217054   4.727   2.161   5.806 -2.5481  0.8257 -4.7239
  154SAPE   HN317055   4.604   2.183   5.928 -0.6995 -0.8059 -0.2217
  154SAPE   C1217056   4.758   2.341   5.903 -0.4174  0.5014 -0.1119
  154SAPE  H12A17057   4.831   2.367   5.823  0.6365 -0.6038  0.4469
  154SAPE  H12B17058   4.824   2.302   5.984  1.1932 -0.4504 -1.7908
  154SAPE   C1117059   4.684   2.474   5.935 -0.6461 -0.5659 -0.6656
  154SAPE  H11A17060   4.646   2.522   5.842 -0.3900 -0.6890 -0.8367
  154SAPE  H11B17061   4.759   2.548   5.969 -0.9954  0.7621 -2.6104
  154SAPE     P17062   4.597   2.453   6.190  0.4162  0.0095  0.2623
  154SAPE   O1317063   4.735   2.441   6.237  0.3109  0.0058 -0.1445
  154SAPE   O1417064   4.520   2.562   6.255 -0.0064 -0.2115 -0.1877
  154SAPE   O1217065   4.575   2.457   6.029  0.8467 -0.3079  0.0149
  154SAPE   O1117066   4.526   2.317   6.215 -0.5747  0.3982 -0.3909
  154SAPE    C117067   4.557   2.243   6.335 -1.1217  0.8828  0.3333
  154SAPE    HA17068   4.527   2.136   6.328 -2.7413  1.4022 -1.3291
  154SAPE    HB17069   4.666   2.232   6.354 -1.1885  0.9392  0.7767
  154SAPE    C217070   4.485   2.296   6.459  0.0164 -0.5888 -0.0574
  154SAPE    HS17071   4.527   2.397   6.477  1.6621 -1.0420 -1.1149
  154SAPE   O2117072   4.500   2.202   6.571  0.6443 -0.5073 -0.1805
  154SAPE   C2117073   4.615   2.216   6.630  0.1118 -0.0305  0.0736
  154SAPE   O2217074   4.701   2.301   6.619 -0.0577  0.3192  0.4274
  154SAPE   C2217075   4.619   2.091   6.725  0.8977 -0.2787  0.1567
  154SAPE   H2R17076   4.517   2.049   6.729  0.2466  0.9369 -2.0108
  154SAPE   H2S17077   4.689   2.021   6.675  1.5694 -0.5774  1.4659
  154SAPE    C317078   4.336   2.314   6.423  0.0423  0.1486  0.7083
  154SAPE    HX17079   4.313   2.223   6.365  2.3539  0.1934 -0.4050
  154SAPE    HY17080   4.321   2.396   6.349 -1.2907 -1.4207 -0.8566
  154SAPE   O3117081   4.255   2.333   6.539 -0.9359 -0.2678 -0.8025
  154SAPE   C3117082   4.246   2.460   6.582 -0.3541 -0.5495  0.0429
  154SAPE   O3217083   4.305   2.556   6.537  0.1352 -0.0222  0.2264
  154SAPE   C3217084   4.146   2.469   6.692  0.1589 -0.9048 -0.4282
  154SAPE   H2X17085   4.048   2.431   6.657 -1.1099  0.6896  1.1730
  154SAPE   H2Y17086   4.132   2.574   6.727  3.0429 -0.5250 -0.1543
  154SAPE   C2317087   4.669   2.133   6.864 -0.6171 -0.8730 -1.3060
  154SAPE   H3R17088   4.598   2.209   6.901  1.5950  1.5194 -1.6858
  154SAPE   H3S17089   4.771   2.171   6.843 -1.4464  1.1806 -1.8237
  154SAPE   C2417090   4.678   2.015   6.972  0.0439 -1.0010  0.2562
  154SAPE   H4R17091   4.720   1.920   6.932  0.4279  0.7738 -4.1034
  154SAPE   H4S17092   4.570   1.997   6.994 -0.4974  1.6477  0.1118
  154SAPE   C2517093   4.756   2.071   7.092 -0.3340  0.9294  0.1932
  154SAPE   H5R17094   4.852   2.117   7.064  0.4336  1.4327  3.3120
  154SAPE   C2617095   4.727   2.059   7.221  0.3131 -0.0292  0.2483
  154SAPE   H6R17096   4.807   2.103   7.283 -0.4608  2.3551 -0.3577
  154SAPE   C2717097   4.616   1.996   7.292 -0.4151 -0.2858 -0.9713
  154SAPE   H7R17098   4.641   1.889   7.304 -0.2325 -0.1888 -0.4725
  154SAPE   H7S17099   4.526   2.003   7.228 -0.0011  0.0766 -1.5248
  154SAPE   C2817100   4.592   2.063   7.429  0.3070 -0.0380 -0.1044
  154SAPE   H8R17101   4.506   2.130   7.437  0.3919  0.0362  0.1997
  154SAPE   C2917102   4.668   2.063   7.543 -0.7198  0.7410  0.3043
  154SAPE   H9R17103   4.620   2.109   7.631  1.4391 -0.1686  2.0389
  154SAPE  C21017104   4.787   1.979   7.560 -0.3162  0.3326  0.0029
  154SAPE  H10R17105   4.816   1.936   7.462  1.1087  1.5167 -0.1312
  154SAPE  H10S17106   4.760   1.893   7.625  0.4633  1.3960  1.8205
  154SAPE  C21117107   4.910   2.062   7.612  0.9576  0.2635  0.8324
  154SAPE  H11R17108   4.930   2.161   7.567 -1.2144  1.1371  1.6379
  154SAPE  C21217109   4.996   2.031   7.705  0.1251  0.5498 -0.9874
  154SAPE  H12R17110   5.063   2.113   7.735 -1.2012  1.3112 -0.0579
  154SAPE  C21317111   5.002   1.898   7.778  0.5476 -0.7415  0.5709
  154SAPE  H13R17112   4.931   1.824   7.737 -0.4958  0.0998  0.8159
  154SAPE  H13S17113   4.954   1.932   7.873 -0.1405 -1.0254  0.3296
  154SAPE  C21417114   5.136   1.842   7.803  0.0992 -0.6474  0.0397
  154SAPE  H14R17115   5.206   1.865   7.720 -0.0943 -0.1919  0.0009
  154SAPE  C21517116   5.170   1.751   7.895  0.0884 -0.4293 -0.0804
  154SAPE  H15R17117   5.276   1.725   7.909  0.3498  1.4393  1.9006
  154SAPE  C21617118   5.085   1.699   8.007 -1.1443 -0.0788 -0.8054
  154SAPE  H16R17119   5.009   1.624   7.974 -1.8227  0.0417  0.3986
  154SAPE  H16S17120   5.021   1.772   8.061 -1.6038 -2.3262  1.9309
  154SAPE  C21717121   5.170   1.637   8.118  0.4287 -0.3708  0.0828
  154SAPE  H17R17122   5.247   1.568   8.077  0.7244 -0.6799  1.1367
  154SAPE  H17S17123   5.100   1.597   8.194 -2.0358  3.0413 -0.1499
  154SAPE  C21817124   5.257   1.741   8.189  0.1394 -0.2897  0.4360
  154SAPE  H18R17125   5.192   1.819   8.233  0.3009 -0.0235  0.2071
  154SAPE  H18S17126   5.316   1.805   8.120  0.2958 -0.2558  0.6003
  154SAPE  C21917127   5.371   1.686   8.266  0.1006 -0.3444  0.2442
  154SAPE  H19R17128   5.426   1.771   8.313  0.8430 -0.2822 -0.7086
  154SAPE  H19S17129   5.438   1.635   8.194 -0.5985  0.9487 -1.3901
  154SAPE  C22017130   5.332   1.585   8.373  0.2316 -0.5800  0.2290
  154SAPE  H20R17131   5.292   1.495   8.321  2.1491 -2.0004  1.0546
  154SAPE  H20S17132   5.263   1.627   8.449  0.5721  1.2575 -0.4230
  154SAPE  H20T17133   5.427   1.559   8.425 -0.6437 -0.2298  2.1100
  154SAPE   C3317134   4.195   2.387   6.811 -0.4126 -0.1277  0.1670
  154SAPE   H3X17135   4.281   2.436   6.861 -0.4870  0.5095 -0.3206
  154SAPE   H3Y17136   4.234   2.291   6.771 -2.0497 -0.7299 -0.0523
  154SAPE   C3417137   4.088   2.359   6.910  0.2191 -0.0581  0.6545
  154SAPE   H4X17138   4.107   2.265   6.965  4.1562 -0.6389 -1.3565
  154SAPE   H4Y17139   3.994   2.348   6.852 -1.2776  2.9803  2.2883
  154SAPE   C3517140   4.047   2.479   7.000 -0.4516 -0.4148 -0.6190
  154SAPE   H5X17141   3.992   2.557   6.942 -0.0390  3.0152  3.1176
  154SAPE   H5Y17142   4.137   2.528   7.043 -0.4395 -1.4771  0.6121
  154SAPE   C3617143   3.951   2.435   7.121 -0.0726 -0.6098  0.1381
  154SAPE   H6X17144   3.859   2.399   7.071  0.4525  1.7901 -2.8368
  154SAPE   H6Y17145   3.936   2.535   7.166 -0.9763  0.8416 -3.1590
  154SAPE   C3717146   4.017   2.331   7.220 -0.1204 -0.8097 -0.4208
  154SAPE   H7X17147   4.125   2.357   7.217 -0.7766  2.2365 -0.5026
  154SAPE   H7Y17148   3.989   2.234   7.174 -1.1432 -0.4105 -0.6638
  154SAPE   C3817149   3.947   2.341   7.357  0.5210 -0.4330  0.1985
  154SAPE   H8X17150   3.981   2.250   7.413 -1.0307 -0.7099  0.7228
  154SAPE   H8Y17151   3.839   2.325   7.341  0.7076 -1.7482  0.1200
  154SAPE   C3917152   3.999   2.458   7.446  0.1183  0.4131 -0.3190
  154SAPE   H9X17153   3.940   2.542   7.404  0.4295  0.0131 -1.6011
  154SAPE   H9Y17154   4.108   2.463   7.429  0.3810 -2.4668 -0.0336
  154SAPE  C31017155   3.982   2.464   7.599  0.2721 -0.5104 -0.0131
  154SAPE  H10X17156   4.018   2.562   7.637 -1.0326 -0.2515  0.6007
  154SAPE  H10Y17157   4.040   2.381   7.646  2.8938  1.5186  0.6013
  154SAPE  C31117158   3.832   2.437   7.629 -0.3766 -0.1626  0.1084
  154SAPE  H11X17159   3.811   2.337   7.584  1.9505 -0.8063  0.3285
  154SAPE  H11Y17160   3.771   2.509   7.571  0.9213  0.9941  0.1414
  154SAPE  C31217161   3.794   2.419   7.773  0.5066 -0.4384 -0.8671
  154SAPE  H12X17162   3.686   2.410   7.796  0.5048 -0.2358 -0.7946
  154SAPE  H12Y17163   3.836   2.496   7.841  0.3059 -0.7104 -0.4282
  154SAPE  C31317164   3.853   2.280   7.822  0.1803 -0.1179  1.1144
  154SAPE  H13X17165   3.959   2.264   7.793 -0.8088 -1.3249 -2.2596
  154SAPE  H13Y17166   3.787   2.204   7.776 -1.1940 -0.0710  2.8800
  154SAPE  C31417167   3.871   2.266   7.975 -0.6066  0.1774  0.1376
  154SAPE  H14X17168   3.920   2.360   8.007  0.2813 -0.3250  0.2868
  154SAPE  H14Y17169   3.939   2.180   7.992  0.2871  0.5299 -1.4718
  154SAPE  C31517170   3.743   2.266   8.055  0.3408 -0.1157  0.1220
  154SAPE  H15X17171   3.691   2.169   8.037 -0.6122  0.2493  0.8288
  154SAPE  H15Y17172   3.671   2.340   8.015 -1.4379 -1.3156  0.9518
  154SAPE  C31617173   3.753   2.282   8.205 -0.4844 -0.5908  0.1107
  154SAPE  H16X17174   3.805   2.376   8.236  0.6873 -2.3437  4.0408
  154SAPE  H16Y17175   3.822   2.203   8.240  2.0377  1.4014 -0.0100
  154SAPE  C31717176   3.612   2.274   8.265  0.1798  0.8730  0.6244
  154SAPE  H17X17177   3.560   2.180   8.237 -0.2821  1.1924  0.4047
  154SAPE  H17Y17178   3.549   2.354   8.221  0.6831 -0.8298 -3.5896
  154SAPE  C31817179   3.614   2.265   8.419  0.1355  0.1621 -0.2504
  154SAPE  H18X17180   3.666   2.352   8.464  0.1376  1.3835 -2.4833
  154SAPE  H18Y17181   3.678   2.180   8.451 -0.7277 -0.2234  0.5096
  154SAPE  H18Z17182   3.513   2.252   8.465 -0.2375 -3.4686 -1.7757
  155SAPE     N17183   6.105   3.186   6.179  0.0826  0.1272 -0.5787
  155SAPE   HN117184   6.191   3.173   6.122  0.6302 -1.4208  0.5212
  155SAPE   HN217185   6.050   3.102   6.151  0.4848 -1.3686  2.6247
  155SAPE   HN317186   6.052   3.274   6.168  0.3801  0.5756  1.2912
  155SAPE   C1217187   6.151   3.170   6.323 -0.3107 -0.0867  0.1551
  155SAPE  H12A17188   6.156   3.064   6.354  0.1289 -0.1381 -0.0955
  155SAPE  H12B17189   6.067   3.208   6.385 -0.7352  1.6517 -1.3834
  155SAPE   C1117190   6.287   3.240   6.351 -1.2088 -0.4430 -0.2537
  155SAPE  H11A17191   6.364   3.212   6.277 -1.0438  1.0055 -0.6729
  155SAPE  H11B17192   6.343   3.200   6.438  0.3344  0.9881 -0.5515
  155SAPE     P17193   6.220   3.470   6.475  0.4838 -0.1742  0.4312
  155SAPE   O1317194   6.253   3.616   6.458  0.0143  0.5027  0.2014
  155SAPE   O1417195   6.077   3.429   6.484  0.2081  0.4900 -0.3623
  155SAPE   O1217196   6.281   3.384   6.353 -0.0406 -0.4897 -0.0477
  155SAPE   O1117197   6.296   3.408   6.597  0.4570  0.2963  0.8065
  155SAPE    C117198   6.438   3.409   6.606 -0.4832 -0.0404 -0.3418
  155SAPE    HA17199   6.460   3.326   6.675 -0.4294 -0.5326 -0.9462
  155SAPE    HB17200   6.494   3.397   6.511  1.8569 -2.6699  1.2328
  155SAPE    C217201   6.481   3.541   6.670 -0.2502  0.2039 -0.6896
  155SAPE    HS17202   6.440   3.630   6.617 -0.0818  0.3520 -0.5725
  155SAPE   O2117203   6.624   3.550   6.667 -0.4569 -0.1477  0.1557
  155SAPE   C2117204   6.688   3.660   6.666  0.4982 -0.3414 -0.2764
  155SAPE   O2217205   6.637   3.772   6.689 -0.2119  0.2960  0.3651
  155SAPE   C2217206   6.834   3.621   6.642 -0.0091  0.8233 -0.0244
  155SAPE   H2R17207   6.845   3.524   6.696 -3.2020  1.6730  2.4306
  155SAPE   H2S17208   6.863   3.623   6.534  2.3480 -1.0618  0.4792
  155SAPE    C317209   6.433   3.538   6.819 -0.4959  0.3878  0.4468
  155SAPE    HX17210   6.323   3.528   6.815 -0.5191  0.9430 -1.0527
  155SAPE    HY17211   6.457   3.641   6.856 -2.8456  1.2010 -0.1489
  155SAPE   O3117212   6.495   3.424   6.886 -0.0049  0.0387  0.3205
  155SAPE   C3117213   6.598   3.441   6.972 -0.8149 -0.1840  0.6119
  155SAPE   O3217214   6.649   3.549   6.998  0.0650  0.1625  0.0244
  155SAPE   C3217215   6.644   3.309   7.032 -1.3168  0.2231  0.4898
  155SAPE   H2X17216   6.687   3.241   6.956 -0.1774  0.8342  0.5755
  155SAPE   H2Y17217   6.554   3.261   7.078 -1.8482  1.2295  0.5306
  155SAPE   C2317218   6.934   3.717   6.710  0.4617  0.0919 -0.6100
  155SAPE   H3R17219   6.886   3.752   6.804 -0.1715 -1.7705 -0.1827
  155SAPE   H3S17220   6.953   3.803   6.642 -0.0802  0.4778 -0.2828
  155SAPE   C2417221   7.068   3.651   6.721 -0.6307 -0.8448 -0.5209
  155SAPE   H4R17222   7.113   3.627   6.622  0.8889  3.7831 -1.1754
  155SAPE   H4S17223   7.068   3.560   6.784 -0.8101 -1.2956 -1.1536
  155SAPE   C2517224   7.165   3.749   6.786 -0.8518 -0.0946  0.1263
  155SAPE   H5R17225   7.240   3.785   6.714  0.2643 -0.4320  1.1032
  155SAPE   C2617226   7.187   3.779   6.914 -0.1475 -0.1867  0.8309
  155SAPE   H6R17227   7.267   3.853   6.923  0.9028 -0.9154 -1.6453
  155SAPE   C2717228   7.113   3.727   7.033  0.0090 -0.4025 -0.3385
  155SAPE   H7R17229   7.072   3.626   7.011 -1.1197 -0.0299 -0.0348
  155SAPE   H7S17230   7.024   3.788   7.061  0.0126 -1.3957  2.1236
  155SAPE   C2817231   7.197   3.713   7.161 -0.0971  0.3816 -0.2583
  155SAPE   H8R17232   7.299   3.753   7.158  0.1010 -0.1610 -0.9574
  155SAPE   C2917233   7.133   3.676   7.279  0.3475  0.6728 -0.3584
  155SAPE   H9R17234   7.201   3.671   7.365  1.8193  0.1698 -1.5072
  155SAPE  C21017235   6.989   3.638   7.303 -0.3589 -0.6264  0.3871
  155SAPE  H10R17236   6.993   3.569   7.390  2.0851  0.7207  1.4357
  155SAPE  H10S17237   6.939   3.581   7.222 -0.7440 -0.0644  0.2219
  155SAPE  C21117238   6.898   3.757   7.319 -0.7014  0.0168 -0.1788
  155SAPE  H11R17239   6.843   3.795   7.231 -2.5120 -1.9166  0.0656
  155SAPE  C21217240   6.887   3.818   7.434  0.0147 -0.9677  0.1984
  155SAPE  H12R17241   6.826   3.909   7.444 -0.0609 -1.0933  0.9167
  155SAPE  C21317242   6.962   3.783   7.559  0.1848 -0.2599 -0.0902
  155SAPE  H13R17243   6.997   3.881   7.598  1.7605 -1.0759  0.6084
  155SAPE  H13S17244   7.051   3.720   7.538  2.2953  2.5696 -0.2990
  155SAPE  C21417245   6.872   3.701   7.646 -0.7236  0.1491  0.9547
  155SAPE  H14R17246   6.829   3.612   7.597  1.0401 -1.2300  1.8136
  155SAPE  C21517247   6.867   3.719   7.777  0.6253 -0.4854  0.3776
  155SAPE  H15R17248   6.787   3.663   7.828  0.8164 -0.7577  0.3801
  155SAPE  C21617249   6.939   3.818   7.867  0.5697  0.0899  0.6463
  155SAPE  H16R17250   6.955   3.912   7.811 -1.6441  0.6622  0.8656
  155SAPE  H16S17251   7.032   3.777   7.913  1.4707 -0.8438 -1.8380
  155SAPE  C21717252   6.851   3.880   7.984  1.1921 -0.3729  0.0525
  155SAPE  H17R17253   6.747   3.902   7.952  0.5309 -2.0750  0.9197
  155SAPE  H17S17254   6.901   3.973   8.018  1.7956 -1.1990  1.5161
  155SAPE  C21817255   6.848   3.779   8.104  0.2861  0.2990 -0.2768
  155SAPE  H18R17256   6.949   3.736   8.119 -0.3068 -1.5275 -1.1493
  155SAPE  H18S17257   6.788   3.697   8.058  1.8680 -0.2609 -1.4062
  155SAPE  C21917258   6.769   3.839   8.220 -0.0210 -0.3758  0.3700
  155SAPE  H19R17259   6.668   3.876   8.191 -0.3121 -0.6935  0.9616
  155SAPE  H19S17260   6.818   3.931   8.256 -1.0345  0.0960  0.5725
  155SAPE  C22017261   6.743   3.741   8.332 -0.0559 -0.0357  0.3090
  155SAPE  H20R17262   6.840   3.698   8.365 -0.2912 -3.1879 -2.5299
  155SAPE  H20S17263   6.681   3.658   8.290  1.1152 -0.6526 -0.2422
  155SAPE  H20T17264   6.688   3.787   8.417 -1.2163  1.0656 -0.9676
  155SAPE   C3317265   6.768   3.319   7.131 -0.7192  0.0921 -0.0320
  155SAPE   H3X17266   6.843   3.390   7.090  0.6057 -1.0830  0.2803
  155SAPE   H3Y17267   6.818   3.221   7.125  0.2605  0.6060 -0.4183
  155SAPE   C3417268   6.725   3.345   7.276  0.6717 -0.4156  0.8053
  155SAPE   H4X17269   6.820   3.363   7.333  1.0935  1.6309 -0.4643
  155SAPE   H4Y17270   6.673   3.257   7.321  1.1493 -0.1737  1.8725
  155SAPE   C3517271   6.643   3.473   7.306  0.3683  0.8846 -0.0202
  155SAPE   H5X17272   6.549   3.475   7.246 -1.8466 -2.1321  3.0178
  155SAPE   H5Y17273   6.697   3.569   7.291 -0.5242  1.5380  0.7876
  155SAPE   C3617274   6.593   3.465   7.452 -0.3757 -0.0053 -0.0252
  155SAPE   H6X17275   6.688   3.467   7.509  0.1763 -0.0456 -0.9305
  155SAPE   H6Y17276   6.559   3.359   7.461  0.4866 -0.1680  1.7016
  155SAPE   C3717277   6.503   3.578   7.490 -0.0749 -0.1663  0.0235
  155SAPE   H7X17278   6.429   3.582   7.407 -0.1896 -1.3859  0.0400
  155SAPE   H7Y17279   6.567   3.668   7.501  0.0313 -0.0370 -1.4361
  155SAPE   C3817280   6.437   3.546   7.625  0.4689 -0.2509 -0.0725
  155SAPE   H8X17281   6.391   3.445   7.613  0.7312 -0.3490 -0.2692
  155SAPE   H8Y17282   6.352   3.615   7.641  2.0196  1.5273  0.8238
  155SAPE   C3917283   6.543   3.580   7.739 -0.4702 -0.6239  0.6970
  155SAPE   H9X17284   6.578   3.685   7.730  0.6145 -1.1122 -1.2891
  155SAPE   H9Y17285   6.621   3.504   7.719 -0.2626  0.2294 -2.0591
  155SAPE  C31017286   6.491   3.579   7.884 -1.0279 -0.1222 -0.7172
  155SAPE  H10X17287   6.575   3.591   7.955 -1.7559 -0.5066  0.2327
  155SAPE  H10Y17288   6.450   3.477   7.897  0.6170 -0.7108  0.1368
  155SAPE  C31117289   6.373   3.672   7.917 -0.5061 -0.0411 -0.6287
  155SAPE  H11X17290   6.275   3.622   7.898  0.4831 -1.7658 -1.4196
  155SAPE  H11Y17291   6.388   3.756   7.845 -1.2113 -0.3721 -1.1813
  155SAPE  C31217292   6.388   3.730   8.056 -0.7836 -0.1830  1.0931
  155SAPE  H12X17293   6.465   3.809   8.067  0.1424 -0.6345 -1.5006
  155SAPE  H12Y17294   6.413   3.648   8.128  0.2649  0.1184  1.0976
  155SAPE  C31317295   6.257   3.798   8.105 -0.4319 -0.1402  0.5572
  155SAPE  H13X17296   6.177   3.721   8.106 -0.2479 -0.3391  0.2329
  155SAPE  H13Y17297   6.213   3.866   8.029 -1.7008 -1.1278  0.3582
  155SAPE  C31417298   6.270   3.883   8.239  0.3565  0.1343 -0.2547
  155SAPE  H14X17299   6.174   3.889   8.295  0.4378  0.4674 -0.1466
  155SAPE  H14Y17300   6.292   3.990   8.218 -0.3407  0.1794 -0.7951
  155SAPE  C31517301   6.364   3.845   8.348  0.3740  0.3826 -1.4531
  155SAPE  H15X17302   6.471   3.876   8.337  0.2970  1.9315  1.2320
  155SAPE  H15Y17303   6.351   3.736   8.368 -0.9588  0.8106  0.2406
  155SAPE  C31617304   6.326   3.892   8.486  0.0146  0.4173 -0.0605
  155SAPE  H16X17305   6.216   3.908   8.494  0.1222  2.3012 -1.5858
  155SAPE  H16Y17306   6.356   3.999   8.494  0.8050  0.3391 -1.5570
  155SAPE  C31717307   6.353   3.801   8.602  0.4239 -0.3778  0.3735
  155SAPE  H17X17308   6.454   3.756   8.615  0.1201 -0.8109  1.3312
  155SAPE  H17Y17309   6.290   3.710   8.590  0.9381 -0.6347 -0.5238
  155SAPE  C31817310   6.318   3.875   8.734  0.1966 -0.2810  0.3308
  155SAPE  H18X17311   6.376   3.969   8.743  0.1976 -0.3178  0.6990
  155SAPE  H18Y17312   6.340   3.805   8.818 -1.7252 -2.0134 -0.5135
  155SAPE  H18Z17313   6.209   3.893   8.730  0.2558  0.0865  0.3339
  156SAPE     N17314   2.323   1.809   6.490 -0.5212 -0.1727  0.3305
  156SAPE   HN117315   2.371   1.733   6.542  5.2665  2.0394 -1.0176
  156SAPE   HN217316   2.269   1.770   6.411  0.2635 -1.8493  0.5780
  156SAPE   HN317317   2.403   1.861   6.449  0.0134 -1.1392  0.1334
  156SAPE   C1217318   2.234   1.905   6.565 -0.1113 -0.2686 -0.6762
  156SAPE  H12A17319   2.291   1.958   6.644 -3.0315  1.3068  0.5144
  156SAPE  H12B17320   2.164   1.840   6.621  1.0282 -0.9079  0.0389
  156SAPE   C1117321   2.171   2.017   6.487 -0.8790 -0.1741  0.1390
  156SAPE  H11A17322   2.247   2.094   6.465 -0.6983  0.5345  2.9025
  156SAPE  H11B17323   2.093   2.064   6.551  0.6119  1.8699  0.5358
  156SAPE     P17324   2.031   2.045   6.274  0.2905  0.4377  0.2369
  156SAPE   O1317325   2.117   2.153   6.221  0.2035  0.2157 -0.2676
  156SAPE   O1417326   1.968   1.953   6.175  0.5130  0.1671 -0.1143
  156SAPE   O1217327   2.112   1.959   6.372 -0.2159 -0.0102 -0.0809
  156SAPE   O1117328   1.930   2.110   6.378 -0.1278  0.1359 -0.1898
  156SAPE    C117329   1.807   2.038   6.399  0.7739  0.1491 -0.9893
  156SAPE    HA17330   1.750   2.036   6.304  1.8043 -4.7766 -1.8044
  156SAPE    HB17331   1.814   1.930   6.423  0.0691 -0.1212 -1.9263
  156SAPE    C217332   1.718   2.115   6.498 -0.4080  0.1217 -0.1208
  156SAPE    HS17333   1.702   2.215   6.452 -1.3060  0.9741  1.8962
  156SAPE   O2117334   1.784   2.135   6.623 -0.3840 -0.2587 -0.0977
  156SAPE   C2117335   1.736   2.228   6.700  0.5336  0.2046 -0.0331
  156SAPE   O2217336   1.636   2.293   6.680  0.2519 -0.5499 -0.1423
  156SAPE   C2217337   1.829   2.245   6.823  0.6212 -0.1745  1.1085
  156SAPE   H2R17338   1.860   2.141   6.848  0.6166 -1.9878 -4.7520
  156SAPE   H2S17339   1.914   2.303   6.781  0.0340  1.0959  1.6328
  156SAPE    C317340   1.576   2.047   6.504 -0.2282  0.6790 -0.4948
  156SAPE    HX17341   1.542   2.048   6.399 -1.9679 -0.0520  0.0153
  156SAPE    HY17342   1.505   2.114   6.557  0.1564  0.8464 -0.1824
  156SAPE   O3117343   1.586   1.900   6.539 -0.0186 -0.3421 -0.0355
  156SAPE   C3117344   1.592   1.884   6.667 -0.2803 -0.9332 -0.1545
  156SAPE   O3217345   1.576   1.974   6.749 -0.3288  0.6509 -0.1960
  156SAPE   C3217346   1.604   1.738   6.706  0.3748 -0.5129 -0.1620
  156SAPE   H2X17347   1.582   1.682   6.613  0.6797 -0.2623 -0.3884
  156SAPE   H2Y17348   1.532   1.718   6.788 -0.0888  1.4060 -0.0429
  156SAPE   C2317349   1.758   2.326   6.932 -0.0531 -0.3630 -0.7339
  156SAPE   H3R17350   1.663   2.271   6.948  0.3800 -0.5602  1.5715
  156SAPE   H3S17351   1.744   2.430   6.896 -0.3225 -0.6131 -1.3718
  156SAPE   C2417352   1.841   2.314   7.062  0.0610 -0.4433 -0.7148
  156SAPE   H4R17353   1.868   2.208   7.080 -1.9408 -1.0697 -1.1989
  156SAPE   H4S17354   1.774   2.349   7.143  0.3792 -2.0004  0.2571
  156SAPE   C2517355   1.966   2.394   7.066 -0.6366  0.0239 -0.2422
  156SAPE   H5R17356   2.023   2.400   6.972 -1.6502 -3.4084 -1.2045
  156SAPE   C2617357   2.010   2.472   7.172 -0.2537  0.4018  0.0582
  156SAPE   H6R17358   2.112   2.513   7.172 -0.2834  0.8141  3.4941
  156SAPE   C2717359   1.935   2.495   7.299  0.1305 -0.1808  0.4027
  156SAPE   H7R17360   1.824   2.491   7.290  0.1625 -3.1516  0.3487
  156SAPE   H7S17361   1.955   2.600   7.330  1.2341 -0.3481  0.3190
  156SAPE   C2817362   1.974   2.403   7.416 -0.5524 -0.0349  0.2097
  156SAPE   H8R17363   2.047   2.324   7.392  0.9582  1.5736 -0.7933
  156SAPE   C2917364   1.949   2.427   7.551  0.0822  0.1134  0.3040
  156SAPE   H9R17365   1.957   2.348   7.627 -0.7531  0.2257  0.5243
  156SAPE  C21017366   1.866   2.547   7.604 -0.3328 -0.2069  0.5962
  156SAPE  H10R17367   1.791   2.513   7.679 -1.8077 -1.4038 -1.3424
  156SAPE  H10S17368   1.806   2.605   7.531  1.5655  0.8496 -0.1826
  156SAPE  C21117369   1.971   2.653   7.651 -0.3508  0.3488  0.3936
  156SAPE  H11R17370   2.069   2.640   7.604 -2.1203  1.4908 -4.1267
  156SAPE  C21217371   1.962   2.747   7.748 -0.6866  0.1202 -0.1271
  156SAPE  H12R17372   2.054   2.803   7.771 -0.7296  1.4373 -2.7590
  156SAPE  C21317373   1.839   2.772   7.830  0.6596 -0.1384  0.4054
  156SAPE  H13R17374   1.784   2.679   7.859 -1.4329  1.3248  1.4244
  156SAPE  H13S17375   1.757   2.818   7.772  1.1467  0.9557  0.5528
  156SAPE  C21417376   1.856   2.862   7.953 -0.7058  0.4838  0.6404
  156SAPE  H14R17377   1.912   2.956   7.940  1.1951 -0.6489  0.3086
  156SAPE  C21517378   1.814   2.832   8.078  0.0067  0.0252  0.1954
  156SAPE  H15R17379   1.838   2.903   8.159  1.1463 -0.6785  0.4973
  156SAPE  C21617380   1.748   2.700   8.118  0.4967  0.4625  0.3812
  156SAPE  H16R17381   1.674   2.664   8.043 -0.1080  0.3079  1.0452
  156SAPE  H16S17382   1.695   2.716   8.214 -0.2944 -1.0082  0.2209
  156SAPE  C21717383   1.849   2.593   8.147  0.4237 -0.8788  0.0505
  156SAPE  H17R17384   1.902   2.626   8.240 -2.6021 -1.3607  2.0780
  156SAPE  H17S17385   1.929   2.568   8.074  0.2219 -3.4287  0.6050
  156SAPE  C21817386   1.788   2.454   8.175 -0.3854  0.5104  0.1314
  156SAPE  H18R17387   1.869   2.381   8.193 -0.0091  0.6170 -1.0496
  156SAPE  H18S17388   1.730   2.407   8.092  0.8425  0.2417 -0.5908
  156SAPE  C21917389   1.708   2.437   8.304 -0.6173  0.5358 -0.4748
  156SAPE  H19R17390   1.619   2.504   8.304 -0.1402  1.2815 -3.0412
  156SAPE  H19S17391   1.781   2.470   8.381  0.1925 -1.2359 -0.4373
  156SAPE  C22017392   1.667   2.287   8.343 -0.3718 -0.3814 -0.0898
  156SAPE  H20R17393   1.571   2.259   8.296 -1.7539  1.7595  1.2733
  156SAPE  H20S17394   1.643   2.287   8.452 -1.2048 -0.9929 -0.2631
  156SAPE  H20T17395   1.756   2.224   8.321  1.2460  1.7920 -0.1156
  156SAPE   C3317396   1.750   1.702   6.756  0.2480  0.1285 -0.5164
  156SAPE   H3X17397   1.817   1.739   6.676 -0.5976  0.1677 -1.2147
  156SAPE   H3Y17398   1.769   1.592   6.762  4.6216  0.5771 -2.4012
  156SAPE   C3417399   1.786   1.767   6.892  0.1907  0.4062 -0.0111
  156SAPE   H4X17400   1.758   1.874   6.892  0.1594  0.4180  1.4594
  156SAPE   H4Y17401   1.896   1.753   6.902  0.1907  0.9087  0.7375
  156SAPE   C3517402   1.724   1.696   7.009  0.4459  0.4540  0.1851
  156SAPE   H5X17403   1.743   1.587   6.995 -1.6396  0.0330  0.3380
  156SAPE   H5Y17404   1.614   1.705   7.015  0.5352  0.8234  1.3273
  156SAPE   C3617405   1.770   1.745   7.146 -0.2533  0.4832 -0.1464
  156SAPE   H6X17406   1.880   1.734   7.146 -0.3530 -1.0359  1.8323
  156SAPE   H6Y17407   1.736   1.686   7.234  0.4737  1.7192  0.9954
  156SAPE   C3717408   1.719   1.886   7.184 -0.0415 -0.1161 -0.6140
  156SAPE   H7X17409   1.612   1.864   7.207  0.0883 -1.7551 -1.3977
  156SAPE   H7Y17410   1.711   1.949   7.092  2.2183 -1.0158 -1.4981
  156SAPE   C3817411   1.784   1.962   7.300  0.8127  0.2437  0.6419
  156SAPE   H8X17412   1.744   2.065   7.296  0.5870  0.1466  0.3791
  156SAPE   H8Y17413   1.890   1.974   7.268  0.6469 -1.4753 -0.7074
  156SAPE   C3917414   1.765   1.907   7.443  0.5802  0.5272 -0.1438
  156SAPE   H9X17415   1.807   1.804   7.438  1.5412  0.9544 -1.5946
  156SAPE   H9Y17416   1.660   1.911   7.477  0.3896 -1.4698 -0.3939
  156SAPE  C31017417   1.851   1.997   7.537 -0.1615  0.1117 -0.4932
  156SAPE  H10X17418   1.937   2.039   7.481  0.0789  0.2643 -0.0104
  156SAPE  H10Y17419   1.894   1.924   7.609 -1.6370  1.2975  1.7175
  156SAPE  C31117420   1.761   2.097   7.617 -0.4914  0.1058 -0.0258
  156SAPE  H11X17421   1.678   2.136   7.555  0.4699  1.7730 -0.3093
  156SAPE  H11Y17422   1.826   2.184   7.640  2.3699 -1.9908  0.3998
  156SAPE  C31217423   1.696   2.046   7.752  0.0045 -0.4105 -0.3402
  156SAPE  H12X17424   1.755   1.962   7.794 -0.2116  0.0721  0.9758
  156SAPE  H12Y17425   1.598   1.995   7.737  0.9266 -1.9957 -1.3377
  156SAPE  C31317426   1.695   2.158   7.858 -0.1354 -0.2919 -0.0871
  156SAPE  H13X17427   1.673   2.257   7.812  0.1980  1.2947  2.9062
  156SAPE  H13Y17428   1.798   2.172   7.897  0.0684 -1.4415 -0.1905
  156SAPE  C31417429   1.600   2.132   7.972  0.0652 -0.7892 -0.1083
  156SAPE  H14X17430   1.629   2.194   8.060  2.1877 -0.3791 -1.0481
  156SAPE  H14Y17431   1.594   2.028   8.011 -1.6837 -0.7370 -0.1524
  156SAPE  C31517432   1.455   2.173   7.944  0.2535  1.0894  0.8053
  156SAPE  H15X17433   1.422   2.109   7.859  2.7130 -1.8763  1.8606
  156SAPE  H15Y17434   1.448   2.280   7.919  0.0508  0.7707 -0.5798
  156SAPE  C31617435   1.352   2.157   8.066 -0.5738 -0.6574  0.3833
  156SAPE  H16X17436   1.381   2.218   8.154 -2.2990  0.8177 -0.0107
  156SAPE  H16Y17437   1.327   2.053   8.096 -0.7003 -0.5538  0.6341
  156SAPE  C31717438   1.211   2.214   8.030  0.0501 -0.5264 -0.6794
  156SAPE  H17X17439   1.154   2.140   7.969  2.0391 -2.2013 -0.5899
  156SAPE  H17Y17440   1.225   2.312   7.980  1.2176 -0.1152  0.4083
  156SAPE  C31817441   1.132   2.242   8.161 -0.0694 -0.6084  0.5953
  156SAPE  H18X17442   1.188   2.303   8.235 -3.5359  1.2158  1.9444
  156SAPE  H18Y17443   1.100   2.154   8.220 -0.0424 -0.8504  0.2533
  156SAPE  H18Z17444   1.036   2.295   8.143 -0.6286 -2.0623 -0.9562
  157SAPE     N17445   6.502   4.644   6.540  0.1453 -0.3465 -0.0054
  157SAPE   HN117446   6.581   4.702   6.576  0.2937 -0.5045 -0.0716
  157SAPE   HN217447   6.424   4.708   6.516 -0.1288 -1.2752 -1.7640
  157SAPE   HN317448   6.473   4.586   6.621  3.9625 -1.3128  0.8619
  157SAPE   C1217449   6.535   4.545   6.424 -0.3779 -0.1812  0.3487
  157SAPE  H12A17450   6.441   4.500   6.385  0.8743 -0.3564 -2.8326
  157SAPE  H12B17451   6.601   4.467   6.469  1.2546 -0.0852 -1.6773
  157SAPE   C1117452   6.603   4.619   6.307 -0.3278  0.2652 -0.0335
  157SAPE  H11A17453   6.546   4.705   6.267  0.7558  0.4210 -1.3034
  157SAPE  H11B17454   6.627   4.545   6.228 -0.2578 -4.2587  3.7630
  157SAPE     P17455   6.839   4.752   6.294  0.2381  0.3188 -0.2154
  157SAPE   O1317456   6.882   4.669   6.184  0.2054  0.2229 -0.6944
  157SAPE   O1417457   6.791   4.886   6.268  0.5150  0.9952 -0.5915
  157SAPE   O1217458   6.724   4.670   6.370  0.4588  0.1262  0.2598
  157SAPE   O1117459   6.953   4.761   6.406  0.1634  0.2887 -0.0794
  157SAPE    C117460   7.034   4.648   6.451 -0.8533  1.0523 -0.4478
  157SAPE    HA17461   7.056   4.568   6.378  0.3342  0.3903  0.5925
  157SAPE    HB17462   7.130   4.686   6.495  0.0106 -2.8927  1.6172
  157SAPE    C217463   6.965   4.571   6.562 -0.4099 -0.0763  0.2712
  157SAPE    HS17464   6.870   4.531   6.520  0.1165 -0.3525 -0.6996
  157SAPE   O2117465   6.940   4.650   6.669  0.2049 -0.0060 -0.1404
  157SAPE   C2117466   6.828   4.628   6.739 -0.5432  0.1981  0.3657
  157SAPE   O2217467   6.731   4.562   6.710 -0.3491  0.0361  0.6403
  157SAPE   C2217468   6.833   4.712   6.870  0.0572  0.2961  0.0433
  157SAPE   H2R17469   6.935   4.756   6.874  0.1829 -0.0432  0.7962
  157SAPE   H2S17470   6.754   4.790   6.861 -1.2786 -0.9417  0.5501
  157SAPE    C317471   7.051   4.452   6.617  0.1566  0.3629  0.6932
  157SAPE    HX17472   7.137   4.493   6.673  1.4499  0.7598 -1.4560
  157SAPE    HY17473   7.107   4.409   6.531 -0.0685  0.1227  0.6619
  157SAPE   O3117474   6.966   4.355   6.687 -0.7277 -0.0446 -0.1778
  157SAPE   C3117475   6.889   4.275   6.620 -0.3047  0.4304  0.1490
  157SAPE   O3217476   6.911   4.237   6.504  0.4188 -0.3123 -0.4104
  157SAPE   C3217477   6.771   4.224   6.698  0.1297 -1.2253 -0.2538
  157SAPE   H2X17478   6.679   4.229   6.637  1.1030 -0.4619 -1.7335
  157SAPE   H2Y17479   6.763   4.293   6.785  1.9475 -2.7526  1.2443
  157SAPE   C2317480   6.800   4.628   6.993  0.5921  0.0566 -0.6724
  157SAPE   H3R17481   6.698   4.585   6.985  0.6308 -0.3874  0.8625
  157SAPE   H3S17482   6.812   4.696   7.079  4.9712 -0.2763 -0.7789
  157SAPE   C2417483   6.904   4.516   7.022 -0.8471  0.0308  0.6282
  157SAPE   H4R17484   6.923   4.447   6.937 -0.9506  0.1270  0.5272
  157SAPE   H4S17485   6.868   4.455   7.108 -3.6417  0.3750 -0.2024
  157SAPE   C2517486   7.045   4.570   7.043 -0.5047 -0.3698  0.6288
  157SAPE   H5R17487   7.111   4.575   6.955 -1.1906 -2.0446 -0.0132
  157SAPE   C2617488   7.100   4.610   7.161  0.1924  0.3286 -0.3123
  157SAPE   H6R17489   7.208   4.629   7.170  0.0117  0.6681  1.5376
  157SAPE   C2717490   7.034   4.622   7.297 -0.1451 -0.2398  0.2532
  157SAPE   H7R17491   6.929   4.658   7.297 -0.7092 -1.8065 -0.1979
  157SAPE   H7S17492   7.088   4.702   7.353  0.0573 -0.4291  0.3309
  157SAPE   C2817493   7.034   4.499   7.376 -0.7783 -0.4431 -0.5382
  157SAPE   H8R17494   7.042   4.410   7.312 -0.9957  0.3018 -1.6149
  157SAPE   C2917495   7.041   4.481   7.511 -0.2649 -0.2080  0.1953
  157SAPE   H9R17496   7.030   4.378   7.549  0.9893 -0.1970  0.6278
  157SAPE  C21017497   7.047   4.600   7.615  0.5439 -0.1497  0.2339
  157SAPE  H10R17498   6.948   4.651   7.619  0.3870 -0.3663 -0.6927
  157SAPE  H10S17499   7.127   4.671   7.583  2.1362 -2.1690 -0.4575
  157SAPE  C21117500   7.080   4.550   7.750 -0.6342  0.3025 -0.9312
  157SAPE  H11R17501   7.143   4.460   7.759  0.8189  1.5029  3.6518
  157SAPE  C21217502   7.037   4.596   7.873  0.2571 -0.9751 -0.9319
  157SAPE  H12R17503   7.068   4.549   7.968 -0.4346 -0.2174 -0.3171
  157SAPE  C21317504   6.953   4.721   7.893  0.1229  0.3397 -0.1783
  157SAPE  H13R17505   6.846   4.696   7.882  0.7377 -2.0186 -1.6059
  157SAPE  H13S17506   6.981   4.799   7.820 -0.1319  0.4071 -0.2043
  157SAPE  C21417507   6.976   4.772   8.038 -0.0046 -0.1867  0.0364
  157SAPE  H14R17508   7.083   4.771   8.065  0.2641  1.1415 -0.8770
  157SAPE  C21517509   6.878   4.809   8.131 -0.0069 -0.3817 -0.5384
  157SAPE  H15R17510   6.913   4.850   8.227  0.0528  1.2671 -1.2283
  157SAPE  C21617511   6.729   4.810   8.105 -0.2068  0.2470 -0.2679
  157SAPE  H16R17512   6.700   4.797   7.999  0.8466  1.1207 -0.6841
  157SAPE  H16S17513   6.691   4.910   8.136  0.2166  0.8223 -1.5492
  157SAPE  C21717514   6.647   4.711   8.194 -0.3822  0.7832 -0.1410
  157SAPE  H17R17515   6.680   4.609   8.166 -2.2210 -0.4124  1.7882
  157SAPE  H17S17516   6.540   4.720   8.166 -0.4094 -1.9391 -1.2032
  157SAPE  C21817517   6.658   4.746   8.340  0.0479  0.5765  0.6754
  157SAPE  H18R17518   6.632   4.853   8.357 -0.5048  1.0259 -2.4346
  157SAPE  H18S17519   6.760   4.740   8.382 -0.7122  1.2322  2.7815
  157SAPE  C21917520   6.555   4.670   8.423  0.2578  0.5444  0.4364
  157SAPE  H19R17521   6.569   4.560   8.419  1.1525  0.6435 -3.4342
  157SAPE  H19S17522   6.457   4.680   8.371  0.6542 -0.6609 -0.5864
  157SAPE  C22017523   6.552   4.712   8.563  0.8410 -0.7203 -0.5567
  157SAPE  H20R17524   6.453   4.679   8.603  0.4090  2.8356  1.8372
  157SAPE  H20S17525   6.567   4.822   8.570  0.9345 -0.8207  1.4802
  157SAPE  H20T17526   6.635   4.674   8.626 -1.2700 -1.7779  1.7833
  157SAPE   C3317527   6.781   4.079   6.748  0.1582 -0.0239 -0.3306
  157SAPE   H3X17528   6.782   4.015   6.657 -1.4904  0.3894 -0.6637
  157SAPE   H3Y17529   6.691   4.047   6.805  1.1664 -0.4218  1.1069
  157SAPE   C3417530   6.902   4.036   6.835  0.4535 -0.3093  0.0655
  157SAPE   H4X17531   6.986   4.015   6.765 -0.5789  1.4021 -1.8024
  157SAPE   H4Y17532   6.886   3.940   6.887 -0.6488  0.1609  0.6248
  157SAPE   C3517533   6.947   4.141   6.939 -0.6380 -0.0343 -0.6977
  157SAPE   H5X17534   6.853   4.174   6.989 -0.7116  0.4813 -1.1698
  157SAPE   H5Y17535   6.980   4.236   6.892 -0.9263 -0.4785 -1.8401
  157SAPE   C3617536   7.047   4.082   7.041 -0.0823  0.3627 -0.4642
  157SAPE   H6X17537   7.125   4.038   6.976  0.5176  2.6725 -1.4120
  157SAPE   H6Y17538   6.989   4.010   7.104 -1.1193  1.0915 -0.5555
  157SAPE   C3717539   7.107   4.198   7.125  0.4219  0.0529 -0.6056
  157SAPE   H7X17540   7.036   4.269   7.172 -0.0837 -0.2158 -0.9559
  157SAPE   H7Y17541   7.179   4.253   7.061  0.8571  1.9356  1.4222
  157SAPE   C3817542   7.199   4.161   7.239 -0.1804 -0.4223 -0.1434
  157SAPE   H8X17543   7.251   4.252   7.277 -0.6181 -0.1791 -0.1259
  157SAPE   H8Y17544   7.282   4.096   7.204  0.3859  0.8325 -1.2146
  157SAPE   C3917545   7.135   4.100   7.362 -0.0232  0.1686  0.1703
  157SAPE   H9X17546   7.096   3.999   7.337 -0.2916 -0.2899  2.2653
  157SAPE   H9Y17547   7.049   4.157   7.401  1.1672  0.9187  1.8248
  157SAPE  C31017548   7.237   4.063   7.470 -0.4361 -0.3142  0.9797
  157SAPE  H10X17549   7.312   3.993   7.430 -1.7784 -0.3476 -1.6949
  157SAPE  H10Y17550   7.175   4.008   7.545 -1.8939  0.6757  0.5615
  157SAPE  C31117551   7.292   4.184   7.545  0.9240 -0.5830  0.0082
  157SAPE  H11X17552   7.205   4.251   7.564 -0.1160 -1.2588 -2.0513
  157SAPE  H11Y17553   7.359   4.242   7.479 -1.0586  0.6752 -1.0162
  157SAPE  C31217554   7.358   4.142   7.678 -0.7183 -0.1928  0.1646
  157SAPE  H12X17555   7.403   4.230   7.728  0.6939 -0.5443 -0.4607
  157SAPE  H12Y17556   7.441   4.073   7.654 -0.6527 -0.3834  0.9140
  157SAPE  C31317557   7.269   4.067   7.776 -0.5232 -0.3019 -0.1648
  157SAPE  H13X17558   7.248   3.967   7.733 -1.1472  0.5385 -1.9513
  157SAPE  H13Y17559   7.170   4.116   7.792 -0.7436 -1.1736  1.3000
  157SAPE  C31417560   7.334   4.039   7.913 -1.7408  0.1769 -0.1516
  157SAPE  H14X17561   7.359   4.142   7.945 -2.7849  0.8703 -1.4480
  157SAPE  H14Y17562   7.419   3.970   7.896 -2.5720 -0.8052 -0.4753
  157SAPE  C31517563   7.240   3.963   8.009 -0.3126 -0.0803  0.8088
  157SAPE  H15X17564   7.248   3.853   7.993  1.0082  0.2611 -1.3252
  157SAPE  H15Y17565   7.135   3.994   7.991  0.0759  1.4492  1.0566
  157SAPE  C31617566   7.284   3.992   8.156 -0.2824  0.0884 -0.7074
  157SAPE  H16X17567   7.320   4.097   8.164  0.9626 -0.2605 -1.4273
  157SAPE  H16Y17568   7.366   3.921   8.184 -0.1278 -0.0943 -1.5968
  157SAPE  C31717569   7.171   3.990   8.267  0.3715  0.5272 -0.3216
  157SAPE  H17X17570   7.080   4.027   8.215  0.7809 -0.2495 -1.6652
  157SAPE  H17Y17571   7.194   4.067   8.343 -0.5658 -0.5223  1.0815
  157SAPE  C31817572   7.138   3.865   8.339 -0.2626 -0.0918 -0.0449
  157SAPE  H18X17573   7.166   3.778   8.275  0.4537  1.0116 -1.2732
  157SAPE  H18Y17574   7.028   3.851   8.348 -0.5688 -0.4507 -3.1697
  157SAPE  H18Z17575   7.184   3.868   8.440 -0.1590  1.4852 -0.1245
  158SAPE     N17576   2.694   2.944   6.463 -0.4111 -0.2401 -0.0167
  158SAPE   HN117577   2.628   2.952   6.383  0.8380  0.1602 -1.0370
  158SAPE   HN217578   2.690   2.843   6.484  1.7190 -0.2029  0.7785
  158SAPE   HN317579   2.660   2.993   6.549  0.3274  1.7414 -0.7951
  158SAPE   C1217580   2.839   2.985   6.436  0.6456  0.3058 -0.8760
  158SAPE  H12A17581   2.887   2.902   6.380  1.1356  1.6362 -2.5268
  158SAPE  H12B17582   2.888   3.000   6.534 -1.5010  0.8899  0.1692
  158SAPE   C1117583   2.841   3.114   6.359  0.4042 -1.0403  0.2113
  158SAPE  H11A17584   2.774   3.104   6.271 -2.2132  0.7567  1.8901
  158SAPE  H11B17585   2.947   3.141   6.335 -0.1465  1.8618  0.6368
  158SAPE     P17586   2.751   3.358   6.383  0.5179  0.1201 -0.1105
  158SAPE   O1317587   2.811   3.388   6.252  0.3186 -0.1272 -0.3190
  158SAPE   O1417588   2.605   3.360   6.377  0.4213 -0.0521  0.1037
  158SAPE   O1217589   2.791   3.219   6.441 -0.2538 -0.0092  0.5410
  158SAPE   O1117590   2.804   3.458   6.495  0.1045  0.2770 -0.3006
  158SAPE    C117591   2.809   3.406   6.632  0.3541  0.2713 -0.5294
  158SAPE    HA17592   2.793   3.496   6.694  0.9855  0.1452 -0.1756
  158SAPE    HB17593   2.737   3.327   6.661  0.0231  0.0216 -1.9338
  158SAPE    C217594   2.951   3.353   6.663  0.6373 -0.1962  0.1048
  158SAPE    HS17595   2.964   3.270   6.590 -0.0957 -0.9749  0.8449
  158SAPE   O2117596   2.942   3.310   6.796 -0.5667 -0.0293 -0.4179
  158SAPE   C2117597   3.031   3.218   6.821  0.3687  0.4675 -0.4610
  158SAPE   O2217598   3.118   3.176   6.747  0.0496  0.3822  0.7356
  158SAPE   C2217599   3.008   3.174   6.970 -1.0126 -0.5988 -0.1640
  158SAPE   H2R17600   2.960   3.075   6.982 -1.1280 -0.5049  0.1666
  158SAPE   H2S17601   3.111   3.162   7.010 -0.4969 -0.0821 -1.3074
  158SAPE    C317602   3.060   3.454   6.637 -0.2440 -0.4440 -0.2973
  158SAPE    HX17603   3.072   3.473   6.529  1.8108 -0.4223 -0.0940
  158SAPE    HY17604   3.155   3.415   6.679  0.5267  0.6527 -0.9733
  158SAPE   O3117605   3.015   3.577   6.698 -0.2700  0.3596  0.1435
  158SAPE   C3117606   3.091   3.630   6.794  0.1250  0.2479  0.7745
  158SAPE   O3217607   3.189   3.579   6.840  0.0792  0.0225  0.0017
  158SAPE   C3217608   3.032   3.766   6.830 -0.4219 -0.6803  0.0579
  158SAPE   H2X17609   2.931   3.770   6.785 -0.3514  0.9494 -0.0334
  158SAPE   H2Y17610   3.094   3.850   6.792  0.7171 -1.4152  0.2385
  158SAPE   C2317611   2.935   3.285   7.055 -0.1607 -0.3825 -0.1684
  158SAPE   H3R17612   2.830   3.299   7.021  0.0216  2.5816  0.2154
  158SAPE   H3S17613   2.981   3.385   7.039 -3.1750  0.8209 -2.1753
  158SAPE   C2417614   2.928   3.247   7.208  0.2196  0.7917  0.4391
  158SAPE   H4R17615   2.911   3.138   7.220 -0.6585  0.6000 -2.0238
  158SAPE   H4S17616   2.830   3.287   7.240  0.3777  1.3442  0.2450
  158SAPE   C2517617   3.043   3.293   7.289 -0.3165  0.2496  0.4594
  158SAPE   H5R17618   3.129   3.320   7.226  0.3962  2.2822  2.2001
  158SAPE   C2617619   3.049   3.294   7.421 -0.4747 -0.6902 -0.2903
  158SAPE   H6R17620   3.142   3.327   7.470 -1.2225 -0.8710  1.3300
  158SAPE   C2717621   2.954   3.245   7.526 -0.0962 -0.1395 -0.2944
  158SAPE   H7R17622   3.012   3.182   7.597 -1.3829  0.5406  1.4290
  158SAPE   H7S17623   2.869   3.187   7.483 -1.2551  1.3002 -0.0166
  158SAPE   C2817624   2.892   3.363   7.599  0.5053  0.4968  0.7513
  158SAPE   H8R17625   2.838   3.434   7.534 -0.9915 -0.6415  0.6904
  158SAPE   C2917626   2.884   3.392   7.727  0.0061 -0.0019 -0.0311
  158SAPE   H9R17627   2.824   3.478   7.759 -1.3265 -0.6516 -0.7097
  158SAPE  C21017628   2.917   3.319   7.848  0.5644  0.4371 -0.0943
  158SAPE  H10R17629   2.873   3.218   7.845  1.2428  0.1269  0.1524
  158SAPE  H10S17630   2.883   3.375   7.939 -0.5507 -0.8554  0.3128
  158SAPE  C21117631   3.062   3.287   7.857 -0.6856  0.5716 -0.1024
  158SAPE  H11R17632   3.127   3.313   7.772 -0.8391  1.6254  0.0836
  158SAPE  C21217633   3.129   3.236   7.966  0.0782  0.0869  0.2629
  158SAPE  H12R17634   3.232   3.201   7.947  1.4005  2.9225  1.6148
  158SAPE  C21317635   3.057   3.205   8.091 -0.6373  0.1060 -0.0718
  158SAPE  H13R17636   2.947   3.214   8.079 -0.5492 -1.4999 -2.8622
  158SAPE  H13S17637   3.086   3.276   8.171 -3.2449  0.0946  0.9985
  158SAPE  C21417638   3.109   3.072   8.133  0.7220  0.0169 -1.0601
  158SAPE  H14R17639   3.182   3.070   8.216  1.1807  2.9896 -1.2781
  158SAPE  C21517640   3.048   2.954   8.105 -0.0504  0.3601  0.2963
  158SAPE  H15R17641   3.085   2.854   8.132 -1.5158 -0.7638 -1.5757
  158SAPE  C21617642   2.934   2.923   8.012  0.2030  0.4062  0.0501
  158SAPE  H16R17643   2.897   3.022   7.979 -1.3736 -0.0149  0.4861
  158SAPE  H16S17644   2.856   2.880   8.078  2.8402 -2.0362  1.8020
  158SAPE  C21717645   2.965   2.835   7.898 -0.5564  0.6105  0.2467
  158SAPE  H17R17646   2.871   2.788   7.864  0.0407  1.1051 -2.2987
  158SAPE  H17S17647   3.035   2.753   7.928  1.0936  2.0605  0.5458
  158SAPE  C21817648   3.037   2.905   7.775 -0.6280 -0.0076 -0.2196
  158SAPE  H18R17649   3.114   2.979   7.804  0.9954 -0.4312 -3.1451
  158SAPE  H18S17650   2.956   2.975   7.743 -0.7858  0.1758  0.5665
  158SAPE  C21917651   3.085   2.816   7.665  0.5724  0.1798  0.1991
  158SAPE  H19R17652   2.998   2.763   7.620  1.3220 -1.8168  0.9665
  158SAPE  H19S17653   3.150   2.749   7.725  0.9873 -0.0776 -0.5268
  158SAPE  C22017654   3.177   2.882   7.556  0.8234  0.4930  0.3064
  158SAPE  H20R17655   3.182   2.816   7.467 -0.1038  2.2448 -1.0998
  158SAPE  H20S17656   3.279   2.915   7.585 -0.0641  2.1478  1.7664
  158SAPE  H20T17657   3.116   2.967   7.518 -1.4850 -1.1376  0.1623
  158SAPE   C3317658   3.012   3.791   6.985 -0.1546  0.2615 -0.5989
  158SAPE   H3X17659   2.962   3.706   7.035  1.0508 -0.2277 -0.1849
  158SAPE   H3Y17660   2.955   3.886   6.997  0.3297  0.4595  0.2452
  158SAPE   C3417661   3.148   3.803   7.055  0.2351 -0.5326 -0.0591
  158SAPE   H4X17662   3.230   3.862   7.009  0.6182 -0.0820  1.1615
  158SAPE   H4Y17663   3.185   3.699   7.068  0.8562  0.0486  4.4328
  158SAPE   C3517664   3.133   3.867   7.197  0.4898 -0.4162 -0.2261
  158SAPE   H5X17665   3.096   3.970   7.180 -1.2302 -1.3328 -2.4760
  158SAPE   H5Y17666   3.235   3.873   7.243  0.1598 -0.1065  0.4846
  158SAPE   C3617667   3.026   3.794   7.281  0.0809  0.5622  0.7156
  158SAPE   H6X17668   3.044   3.684   7.271  1.3545  0.8910 -1.1059
  158SAPE   H6Y17669   2.931   3.818   7.227  0.0466  2.1048  1.4223
  158SAPE   C3717670   3.023   3.825   7.427 -0.5743  0.2382  0.0797
  158SAPE   H7X17671   3.120   3.797   7.474  0.4759  1.3812 -1.2963
  158SAPE   H7Y17672   3.042   3.934   7.421 -1.1180  0.3940  1.0066
  158SAPE   C3817673   2.896   3.817   7.504  0.3523 -0.5393  0.1607
  158SAPE   H8X17674   2.872   3.708   7.509  0.5429 -0.5593  0.7438
  158SAPE   H8Y17675   2.816   3.851   7.435  0.9999 -2.4613 -1.6613
  158SAPE   C3917676   2.911   3.870   7.642 -0.3797 -0.5399  0.3003
  158SAPE   H9X17677   2.813   3.860   7.693 -2.2403 -0.4589 -3.0306
  158SAPE   H9Y17678   2.945   3.976   7.644  0.5072 -0.8109  2.0784
  158SAPE  C31017679   3.012   3.790   7.730 -0.5270  0.2932 -0.4177
  158SAPE  H10X17680   3.112   3.786   7.683 -1.1395 -1.9481 -1.6885
  158SAPE  H10Y17681   2.975   3.686   7.745 -0.7104  0.0419 -2.4088
  158SAPE  C31117682   3.038   3.859   7.870 -0.1040  0.1318 -0.3221
  158SAPE  H11X17683   3.079   3.962   7.857  0.7351 -0.2786 -1.0375
  158SAPE  H11Y17684   3.126   3.811   7.917  0.3939  0.6821 -0.6756
  158SAPE  C31217685   2.924   3.855   7.972 -0.5894  0.8723 -0.2542
  158SAPE  H12X17686   2.832   3.895   7.924 -0.1188  1.6691 -0.5148
  158SAPE  H12Y17687   2.953   3.915   8.061  1.3680  1.4329 -1.2068
  158SAPE  C31317688   2.911   3.707   8.027 -0.5560 -0.4529  0.4067
  158SAPE  H13X17689   2.952   3.631   7.957 -1.9031  0.0815 -1.0392
  158SAPE  H13Y17690   2.802   3.687   8.015 -0.7358  0.1699  0.9229
  158SAPE  C31417691   2.960   3.680   8.164  0.1557 -0.1718 -0.3113
  158SAPE  H14X17692   3.051   3.739   8.185 -1.2775  1.6957  1.0470
  158SAPE  H14Y17693   2.970   3.570   8.179  1.7436 -0.0827 -0.5383
  158SAPE  C31517694   2.859   3.735   8.268 -0.4985 -0.2654  0.0543
  158SAPE  H15X17695   2.762   3.704   8.222 -0.0339  1.3354 -2.1634
  158SAPE  H15Y17696   2.851   3.846   8.279 -1.7154 -0.4605  1.6569
  158SAPE  C31617697   2.881   3.676   8.417  0.1134  0.2499 -0.4497
  158SAPE  H16X17698   2.983   3.706   8.448  0.4490  0.1607 -1.4261
  158SAPE  H16Y17699   2.880   3.565   8.403  2.2860 -0.0330  1.1753
  158SAPE  C31717700   2.767   3.724   8.510 -0.3268 -0.0885  0.0323
  158SAPE  H17X17701   2.758   3.834   8.513  1.3624  0.0867 -0.0698
  158SAPE  H17Y17702   2.792   3.688   8.613  1.6119 -0.5484 -0.5537
  158SAPE  C31817703   2.630   3.655   8.488 -0.6202 -0.4570  0.4490
  158SAPE  H18X17704   2.639   3.544   8.484  0.0491 -0.4438 -3.9194
  158SAPE  H18Y17705   2.595   3.686   8.387 -0.7902  0.9057  0.9066
  158SAPE  H18Z17706   2.545   3.691   8.549  0.0932  0.4317  0.9519
  159SAPE     N17707   1.585   4.605   6.324  0.2994 -0.3003 -0.1268
  159SAPE   HN117708   1.508   4.673   6.343  1.5281  0.9692  0.5373
  159SAPE   HN217709   1.539   4.531   6.267  2.7991 -1.6342 -0.5512
  159SAPE   HN317710   1.596   4.571   6.422  3.8556  2.8603  0.7893
  159SAPE   C1217711   1.709   4.658   6.257  0.6043  0.2450  0.1694
  159SAPE  H12A17712   1.679   4.667   6.150  0.9828  0.0903  0.0466
  159SAPE  H12B17713   1.781   4.574   6.266 -0.7003 -0.8958  0.2549
  159SAPE   C1117714   1.754   4.797   6.320  0.6006  0.1670  0.2478
  159SAPE  H11A17715   1.797   4.767   6.418 -1.0713 -3.1966  0.0683
  159SAPE  H11B17716   1.662   4.858   6.330 -0.0469 -0.3558 -2.0551
  159SAPE     P17717   1.998   4.870   6.276  0.3587  0.0484  0.1863
  159SAPE   O1317718   2.045   4.734   6.290 -0.2693  0.1571 -0.2152
  159SAPE   O1417719   2.071   4.966   6.187  0.4339  0.0011 -0.1130
  159SAPE   O1217720   1.845   4.867   6.238  0.2515  0.2273  0.4501
  159SAPE   O1117721   1.992   4.928   6.417 -0.6611  0.0424  0.0541
  159SAPE    C117722   1.973   5.059   6.462 -0.0805  0.4324  0.1595
  159SAPE    HA17723   1.902   5.120   6.402  0.2878  0.4632 -0.2507
  159SAPE    HB17724   1.912   5.058   6.555 -0.8208 -0.2596 -0.3222
  159SAPE    C217725   2.102   5.128   6.493  0.6840 -0.2966  0.3996
  159SAPE    HS17726   2.156   5.144   6.398 -1.2028 -2.0622 -1.0551
  159SAPE   O2117727   2.177   5.039   6.576  0.3360  0.1591  0.0345
  159SAPE   C2117728   2.310   5.055   6.570 -0.7104 -0.2602  0.0503
  159SAPE   O2217729   2.372   5.130   6.498 -0.4931  0.0865  0.2216
  159SAPE   C2217730   2.377   4.954   6.664  1.2028 -0.1409 -0.1770
  159SAPE   H2R17731   2.307   4.961   6.749 -1.6098 -0.2904 -2.3289
  159SAPE   H2S17732   2.372   4.857   6.609  0.9632 -1.4298  2.0381
  159SAPE    C317733   2.079   5.267   6.566  0.6867  0.2568  0.1104
  159SAPE    HX17734   2.030   5.340   6.498 -2.7745 -0.7639  1.2684
  159SAPE    HY17735   2.177   5.308   6.598  0.9594 -2.3215  3.0833
  159SAPE   O3117736   1.994   5.256   6.682  0.8679 -0.2634 -0.8930
  159SAPE   C3117737   2.052   5.239   6.793 -0.3183 -0.1182  0.3522
  159SAPE   O3217738   2.174   5.235   6.817 -0.5323  0.2287  0.7637
  159SAPE   C3217739   1.951   5.222   6.906  0.2319 -0.3411 -0.1544
  159SAPE   H2X17740   1.895   5.130   6.880 -0.5794 -0.3105  1.3792
  159SAPE   H2Y17741   1.879   5.306   6.892  0.4155 -0.1341  0.1425
  159SAPE   C2317742   2.524   4.983   6.678 -0.1451  0.5170  0.4882
  159SAPE   H3R17743   2.559   5.087   6.663  0.3301  0.7374  2.7871
  159SAPE   H3S17744   2.588   4.929   6.604  0.4695  0.8777  0.7533
  159SAPE   C2417745   2.580   4.950   6.826 -0.0689 -0.6233  0.8480
  159SAPE   H4R17746   2.496   4.988   6.888 -2.3696 -2.4621 -0.9500
  159SAPE   H4S17747   2.658   5.024   6.853 -0.1131 -0.0074 -0.6451
  159SAPE   C2517748   2.633   4.812   6.858 -0.3091 -0.9420 -0.3363
  159SAPE   H5R17749   2.700   4.774   6.778 -1.9404 -0.4557 -2.0019
  159SAPE   C2617750   2.595   4.734   6.959  0.1448 -0.1975 -0.0094
  159SAPE   H6R17751   2.640   4.635   6.976 -0.9979 -0.9871 -1.3738
  159SAPE   C2717752   2.494   4.784   7.066 -0.2602  0.2521 -0.2111
  159SAPE   H7R17753   2.529   4.879   7.111 -1.7508  0.4008  0.7092
  159SAPE   H7S17754   2.489   4.715   7.153  0.1030  0.0063 -0.3839
  159SAPE   C2817755   2.353   4.810   7.017 -0.4301 -0.3769 -0.8855
  159SAPE   H8R17756   2.325   4.816   6.911 -3.4845 -1.7402 -0.2605
  159SAPE   C2917757   2.258   4.839   7.097  0.4324 -0.9142 -0.0470
  159SAPE   H9R17758   2.154   4.844   7.060  0.2192 -1.6561  0.4345
  159SAPE  C21017759   2.254   4.845   7.249  0.1392  0.0202  1.0523
  159SAPE  H10R17760   2.286   4.745   7.284 -1.0127 -0.4391  0.8512
  159SAPE  H10S17761   2.148   4.842   7.280 -0.2337 -0.1285 -0.1644
  159SAPE  C21117762   2.324   4.959   7.304 -0.7696  0.7068  0.0427
  159SAPE  H11R17763   2.304   5.055   7.254  0.4969  0.1542 -1.6667
  159SAPE  C21217764   2.411   4.953   7.405 -0.5397  0.0319  0.2109
  159SAPE  H12R17765   2.471   5.040   7.435  0.4848 -0.2788 -0.8650
  159SAPE  C21317766   2.444   4.826   7.488 -0.4882 -0.1591  0.0125
  159SAPE  H13R17767   2.347   4.780   7.516  0.8535 -3.0883  0.1377
  159SAPE  H13S17768   2.495   4.857   7.582  0.0059  0.4598 -0.4496
  159SAPE  C21417769   2.527   4.715   7.426  0.2854  0.4642  0.5030
  159SAPE  H14R17770   2.594   4.758   7.350  0.4648  0.9810  0.9497
  159SAPE  C21517771   2.517   4.580   7.438  0.3239  0.4690  0.5075
  159SAPE  H15R17772   2.564   4.505   7.374  0.5662  1.3242 -0.3335
  159SAPE  C21617773   2.438   4.510   7.542  1.0226  0.7851  0.0273
  159SAPE  H16R17774   2.375   4.425   7.510  0.7590  0.0760  2.2369
  159SAPE  H16S17775   2.367   4.583   7.586  1.0961  0.7052  0.2840
  159SAPE  C21717776   2.525   4.463   7.659 -0.0419 -0.5416  0.5998
  159SAPE  H17R17777   2.454   4.420   7.733  0.4581  0.5223  1.7098
  159SAPE  H17S17778   2.569   4.552   7.707  0.7097  0.8543 -2.4272
  159SAPE  C21817779   2.631   4.358   7.628 -0.4764 -0.2005  0.0059
  159SAPE  H18R17780   2.702   4.384   7.546  0.0158 -0.8614  0.2194
  159SAPE  H18S17781   2.574   4.264   7.612 -0.6311 -0.1966  0.5164
  159SAPE  C21917782   2.727   4.344   7.736  0.3872 -0.5714 -0.2969
  159SAPE  H19R17783   2.671   4.318   7.829  1.1277 -1.1659 -0.0076
  159SAPE  H19S17784   2.781   4.438   7.761 -2.8041  1.6644 -1.1516
  159SAPE  C22017785   2.829   4.238   7.710 -0.4345  0.2501 -0.0269
  159SAPE  H20R17786   2.901   4.239   7.795 -0.5115 -0.1967  0.0435
  159SAPE  H20S17787   2.874   4.231   7.609 -2.3125 -2.6285 -0.7884
  159SAPE  H20T17788   2.779   4.140   7.724 -0.4145  0.2029 -0.2814
  159SAPE   C3317789   2.016   5.221   7.044 -0.4642  0.4170 -0.5787
  159SAPE   H3X17790   2.085   5.304   7.070 -1.1038  0.2853  1.7721
  159SAPE   H3Y17791   2.074   5.126   7.049 -0.2780  0.5819  1.1147
  159SAPE   C3417792   1.915   5.224   7.165  0.0871  0.2779 -0.6010
  159SAPE   H4X17793   1.842   5.140   7.159 -1.3129  1.0701  3.0729
  159SAPE   H4Y17794   1.858   5.318   7.147 -0.0389  0.4227  0.5189
  159SAPE   C3517795   1.983   5.210   7.301 -0.3258  0.6750  1.0665
  159SAPE   H5X17796   2.059   5.290   7.317 -0.3266  0.9916 -0.3557
  159SAPE   H5Y17797   2.040   5.115   7.293 -0.4519  0.7574 -2.2217
  159SAPE   C3617798   1.884   5.210   7.421  0.3460 -0.0864  0.4244
  159SAPE   H6X17799   1.822   5.120   7.404 -0.9141  1.3482 -4.5313
  159SAPE   H6Y17800   1.819   5.300   7.412  0.6235 -0.0589 -1.9162
  159SAPE   C3717801   1.963   5.199   7.554 -0.6548  0.0312  0.2900
  159SAPE   H7X17802   1.898   5.193   7.644  0.0850 -1.2603  0.7755
  159SAPE   H7Y17803   2.033   5.284   7.561  2.3211 -2.2612  0.6435
  159SAPE   C3817804   2.042   5.064   7.564  0.1585  0.6527 -0.5164
  159SAPE   H8X17805   2.126   5.047   7.494  0.2968  0.2281 -0.2561
  159SAPE   H8Y17806   1.962   4.986   7.555  0.6831 -0.1765  1.4211
  159SAPE   C3917807   2.090   5.033   7.707 -0.6350  0.4477 -0.9343
  159SAPE   H9X17808   2.009   5.047   7.782 -1.5479 -0.5275 -1.6988
  159SAPE   H9Y17809   2.153   5.122   7.728 -0.9814 -0.1037  3.0282
  159SAPE  C31017810   2.166   4.901   7.718  0.4335 -0.2117 -0.5382
  159SAPE  H10X17811   2.260   4.903   7.658  0.4656  0.0268 -0.4788
  159SAPE  H10Y17812   2.099   4.824   7.674 -0.0760 -0.5024  0.7018
  159SAPE  C31117813   2.198   4.854   7.860 -0.0876 -0.7538 -0.5463
  159SAPE  H11X17814   2.109   4.837   7.925 -1.0111  0.7233 -1.3535
  159SAPE  H11Y17815   2.254   4.937   7.908  1.4929 -1.0064 -1.8936
  159SAPE  C31217816   2.291   4.727   7.862  1.0277 -0.8432  0.0831
  159SAPE  H12X17817   2.379   4.755   7.800 -0.6918 -1.3520 -2.7594
  159SAPE  H12Y17818   2.227   4.658   7.803  1.2004 -1.1846  0.2945
  159SAPE  C31317819   2.333   4.693   8.004  0.3208 -0.1549  0.3459
  159SAPE  H13X17820   2.251   4.635   8.052  0.6785  0.0779  1.2623
  159SAPE  H13Y17821   2.347   4.777   8.076  0.6761 -1.6399  2.0787
  159SAPE  C31417822   2.450   4.598   8.017 -0.3693  0.1799  0.1332
  159SAPE  H14X17823   2.541   4.644   7.973 -0.8491  0.1907 -0.8559
  159SAPE  H14Y17824   2.441   4.516   7.943  2.5169 -0.5790  0.5158
  159SAPE  C31517825   2.488   4.534   8.156  0.3962 -0.4950 -0.2502
  159SAPE  H15X17826   2.423   4.444   8.164 -0.5021  0.1144 -0.6638
  159SAPE  H15Y17827   2.459   4.605   8.236  0.9092  2.1088 -2.2595
  159SAPE  C31617828   2.632   4.488   8.170 -0.1694 -0.3151 -0.2894
  159SAPE  H16X17829   2.664   4.417   8.090 -1.5878 -0.9562 -0.3211
  159SAPE  H16Y17830   2.634   4.426   8.262 -0.4939 -0.1402 -0.1616
  159SAPE  C31717831   2.737   4.605   8.172 -0.1256  0.3668 -0.3990
  159SAPE  H17X17832   2.762   4.639   8.069  4.3324  2.4613  1.0937
  159SAPE  H17Y17833   2.841   4.570   8.188 -0.6646 -0.1991  2.3539
  159SAPE  C31817834   2.703   4.720   8.257  0.1943  0.1624  0.3072
  159SAPE  H18X17835   2.673   4.684   8.358  0.2440 -0.4810  0.0987
  159SAPE  H18Y17836   2.626   4.781   8.206  0.9221  0.5079 -0.3989
  159SAPE  H18Z17837   2.787   4.789   8.276  0.9451 -1.0174  1.4107
  160SAPE     N17838   2.819   2.411   6.446 -0.1654 -0.0597 -0.0407
  160SAPE   HN117839   2.715   2.407   6.445 -0.2114 -1.5763  2.5414
  160SAPE   HN217840   2.856   2.497   6.399 -2.0159  0.3860 -0.7898
  160SAPE   HN317841   2.842   2.330   6.385  0.1507  0.4006 -0.5469
  160SAPE   C1217842   2.859   2.403   6.587  0.2781 -0.5028  0.2502
  160SAPE  H12A17843   2.806   2.330   6.652  1.1565  0.3731  2.0066
  160SAPE  H12B17844   2.838   2.505   6.626  2.9416  0.3119 -0.2461
  160SAPE   C1117845   3.011   2.391   6.614  0.1077 -0.1159 -0.4794
  160SAPE  H11A17846   3.034   2.284   6.592 -3.0145 -1.1989  0.8213
  160SAPE  H11B17847   3.027   2.395   6.723 -0.3225 -3.5405 -0.1717
  160SAPE     P17848   3.201   2.466   6.442 -0.7128 -0.4572 -0.5273
  160SAPE   O1317849   3.260   2.336   6.465  0.2667 -0.1003  0.0495
  160SAPE   O1417850   3.148   2.486   6.304  0.3486  0.0047 -0.6543
  160SAPE   O1217851   3.082   2.488   6.544 -0.3938 -0.0121  0.2597
  160SAPE   O1117852   3.297   2.585   6.484  0.2536  0.1146 -0.2607
  160SAPE    C117853   3.406   2.564   6.583 -0.5842  1.0741  0.2759
  160SAPE    HA17854   3.464   2.470   6.567 -0.8602  0.9811 -0.2287
  160SAPE    HB17855   3.484   2.643   6.583  2.3731 -1.6363 -0.1603
  160SAPE    C217856   3.349   2.557   6.726 -0.5161 -0.2352  0.0697
  160SAPE    HS17857   3.254   2.499   6.722  0.0911 -1.3166  0.8994
  160SAPE   O2117858   3.336   2.695   6.764  0.1739 -0.5239 -0.5425
  160SAPE   C2117859   3.239   2.727   6.840 -0.0130  0.0253 -0.2652
  160SAPE   O2217860   3.161   2.646   6.891  0.4013 -0.1150  0.2971
  160SAPE   C2217861   3.226   2.879   6.856 -0.9720  0.9637 -0.2276
  160SAPE   H2R17862   3.246   2.921   6.755  2.0557  1.0312  0.2999
  160SAPE   H2S17863   3.129   2.897   6.906 -0.1512 -0.5546  2.0564
  160SAPE    C317864   3.439   2.484   6.829  0.1716  0.4138 -0.5922
  160SAPE    HX17865   3.527   2.550   6.844  0.7407 -0.6086  0.8022
  160SAPE    HY17866   3.476   2.389   6.786  0.2990 -0.2648  0.9403
  160SAPE   O3117867   3.372   2.468   6.956 -0.2131 -0.1736 -0.2161
  160SAPE   C3117868   3.277   2.372   6.962 -0.0904  0.1439 -0.3286
  160SAPE   O3217869   3.253   2.294   6.871 -0.0274 -0.6073  0.3604
  160SAPE   C3217870   3.211   2.380   7.099  0.3144  0.2125  0.6949
  160SAPE   H2X17871   3.179   2.485   7.113 -0.5099 -0.1215  1.3727
  160SAPE   H2Y17872   3.294   2.366   7.170  1.2353 -1.5409 -0.6347
  160SAPE   C2317873   3.334   2.936   6.957  0.2897 -0.3887  1.5847
  160SAPE   H3R17874   3.325   3.047   6.952  1.3295 -0.3272  0.4886
  160SAPE   H3S17875   3.438   2.901   6.936 -0.0153  0.3856 -1.8702
  160SAPE   C2417876   3.314   2.895   7.100  0.5586 -0.5900  0.4302
  160SAPE   H4R17877   3.404   2.918   7.162 -0.7466  1.1054  1.7848
  160SAPE   H4S17878   3.301   2.785   7.092 -0.3219 -0.3682 -3.6663
  160SAPE   C2517879   3.201   2.953   7.177 -0.6920  0.1880 -0.2505
  160SAPE   H5R17880   3.229   3.051   7.217  1.1525 -0.8294  1.1221
  160SAPE   C2617881   3.089   2.889   7.227  0.5750 -0.0449  0.1564
  160SAPE   H6R17882   3.005   2.941   7.276  0.7668 -0.9955  1.5625
  160SAPE   C2717883   3.062   2.740   7.215  0.4484  0.2855  0.2148
  160SAPE   H7R17884   3.082   2.693   7.314 -1.8301 -1.3269 -0.0059
  160SAPE   H7S17885   3.125   2.687   7.140  0.1151  2.8705 -2.0456
  160SAPE   C2817886   2.918   2.720   7.176 -0.2172  0.3207  0.2551
  160SAPE   H8R17887   2.906   2.722   7.067  2.9723  2.8952 -0.1795
  160SAPE   C2917888   2.820   2.693   7.256  0.2487 -0.1772 -0.8098
  160SAPE   H9R17889   2.718   2.684   7.216 -0.3481 -1.4149  0.8740
  160SAPE  C21017890   2.824   2.682   7.404  0.2736  0.2118  0.6017
  160SAPE  H10R17891   2.727   2.708   7.450  1.3721  2.6568  1.6815
  160SAPE  H10S17892   2.888   2.764   7.442 -1.3555  1.2906  1.1146
  160SAPE  C21117893   2.874   2.546   7.448  0.9221 -0.1301 -0.1955
  160SAPE  H11R17894   2.949   2.507   7.378 -0.8912  1.8894 -3.5415
  160SAPE  C21217895   2.827   2.473   7.553 -0.2151 -0.5978 -0.2354
  160SAPE  H12R17896   2.872   2.373   7.558  0.4645 -0.2314  1.6449
  160SAPE  C21317897   2.727   2.530   7.645 -0.4273  0.4843 -0.0652
  160SAPE  H13R17898   2.644   2.563   7.579 -0.4609  1.7174  0.5622
  160SAPE  H13S17899   2.761   2.627   7.686 -1.4134  1.7407 -2.0383
  160SAPE  C21417900   2.685   2.435   7.751 -0.4844 -0.0577  0.1882
  160SAPE  H14R17901   2.718   2.461   7.853  1.1336  1.5289 -0.6876
  160SAPE  C21517902   2.603   2.329   7.723  0.2914 -0.1400 -0.6411
  160SAPE  H15R17903   2.563   2.277   7.812  2.9507  1.8837  1.9611
  160SAPE  C21617904   2.535   2.294   7.597 -0.3751  0.8749 -0.4000
  160SAPE  H16R17905   2.585   2.199   7.567  0.8728  0.7682  1.7791
  160SAPE  H16S17906   2.548   2.373   7.520 -0.5358  2.4935  1.1684
  160SAPE  C21717907   2.382   2.273   7.611 -0.7744  0.1388 -0.5257
  160SAPE  H17R17908   2.345   2.255   7.508 -0.3104 -2.3341 -0.3184
  160SAPE  H17S17909   2.339   2.370   7.643 -1.0307 -0.1769  0.1178
  160SAPE  C21817910   2.348   2.167   7.716  0.2423 -0.4651  0.0909
  160SAPE  H18R17911   2.363   2.215   7.815  1.4088 -0.3583 -0.1254
  160SAPE  H18S17912   2.422   2.084   7.722 -0.5881 -1.1192  1.7527
  160SAPE  C21917913   2.211   2.117   7.718  0.0077  0.2256  0.0976
  160SAPE  H19R17914   2.192   2.067   7.621  1.4315 -0.6489  0.2442
  160SAPE  H19S17915   2.139   2.202   7.727  0.8535  0.8254  1.6227
  160SAPE  C22017916   2.192   2.017   7.829 -0.1353  0.0936 -0.3467
  160SAPE  H20R17917   2.245   1.921   7.811 -2.2512 -1.0611 -0.7441
  160SAPE  H20S17918   2.085   1.998   7.854  0.3613  1.1624  3.3025
  160SAPE  H20T17919   2.227   2.061   7.925  0.4170 -1.5696  0.2478
  160SAPE   C3317920   3.106   2.268   7.110  0.1059  0.4376 -0.1399
  160SAPE   H3X17921   3.141   2.163   7.107 -0.4252  0.1955  1.4262
  160SAPE   H3Y17922   3.019   2.265   7.040  0.1823 -1.4326 -0.1913
  160SAPE   C3417923   3.045   2.263   7.252 -0.0387  0.3239  0.0433
  160SAPE   H4X17924   2.972   2.347   7.264 -0.2576 -0.0693  1.9199
  160SAPE   H4Y17925   3.121   2.279   7.331  0.7349  0.2343 -0.6773
  160SAPE   C3517926   2.958   2.137   7.274 -0.2048 -0.5815 -0.0376
  160SAPE   H5X17927   3.021   2.046   7.265  0.5245  0.0308 -1.4763
  160SAPE   H5Y17928   2.876   2.139   7.199  0.5635  1.0742 -0.8955
  160SAPE   C3617929   2.897   2.121   7.416  0.4999 -0.4562 -0.3030
  160SAPE   H6X17930   2.803   2.180   7.423  0.2307 -0.9441  0.2655
  160SAPE   H6Y17931   2.972   2.155   7.491 -0.3267 -1.5459  1.0735
  160SAPE   C3717932   2.854   1.976   7.444  0.8887 -0.1137 -0.2467
  160SAPE   H7X17933   2.939   1.916   7.405  0.2339 -1.5873  0.5199
  160SAPE   H7Y17934   2.764   1.950   7.384  0.9922  1.3942 -1.0875
  160SAPE   C3817935   2.813   1.927   7.587 -0.2035 -0.4904 -0.4791
  160SAPE   H8X17936   2.796   1.818   7.599 -1.0121 -0.2597  0.5943
  160SAPE   H8Y17937   2.712   1.969   7.604  0.1700  1.5719 -2.7734
  160SAPE   C3917938   2.915   1.979   7.685 -0.1740 -0.0361 -0.0603
  160SAPE   H9X17939   2.898   2.087   7.704  0.8519  0.3167 -1.0791
  160SAPE   H9Y17940   3.016   1.967   7.642 -0.4932 -0.2525 -0.7532
  160SAPE  C31017941   2.910   1.879   7.800  0.5828 -0.6097  0.1639
  160SAPE  H10X17942   2.972   1.790   7.781 -1.8994 -2.3156 -0.4755
  160SAPE  H10Y17943   2.801   1.865   7.819  0.5207  2.1655  2.5425
  160SAPE  C31117944   2.958   1.934   7.939 -0.1022 -0.4360  0.5427
  160SAPE  H11X17945   2.894   2.009   7.990  2.1498  1.4658  0.7279
  160SAPE  H11Y17946   3.057   1.983   7.931  0.6969 -2.2111 -1.8838
  160SAPE  C31217947   2.964   1.818   8.038  0.5005  0.2852 -0.0105
  160SAPE  H12X17948   3.036   1.737   8.013 -0.3445 -0.4177 -0.2104
  160SAPE  H12Y17949   2.868   1.763   8.038  0.2998  0.6290 -0.3990
  160SAPE  C31317950   3.002   1.869   8.169 -0.0408 -0.1909  0.2895
  160SAPE  H13X17951   2.923   1.939   8.203 -0.4785 -0.4523 -0.1972
  160SAPE  H13Y17952   3.095   1.928   8.156  1.2510 -2.5581 -2.4168
  160SAPE  C31417953   3.007   1.766   8.281  0.1276 -0.2699  0.1078
  160SAPE  H14X17954   3.091   1.696   8.263  1.3109  0.7078  1.4960
  160SAPE  H14Y17955   2.914   1.706   8.274 -1.5247  2.2141 -0.7553
  160SAPE  C31517956   3.046   1.823   8.414 -0.0312  0.3074 -0.0119
  160SAPE  H15X17957   2.973   1.903   8.437  0.7491  0.9845  0.1423
  160SAPE  H15Y17958   3.147   1.868   8.413 -0.2207  0.7295 -0.7536
  160SAPE  C31617959   3.042   1.723   8.535 -0.4363  0.0486  0.3613
  160SAPE  H16X17960   3.062   1.787   8.624  0.4606 -0.0867  0.2674
  160SAPE  H16Y17961   3.111   1.637   8.520 -2.5002 -1.2387 -2.6905
  160SAPE  C31717962   2.903   1.665   8.562  0.3143  0.9058 -0.5080
  160SAPE  H17X17963   2.904   1.556   8.537  0.0251  0.8490 -0.2881
  160SAPE  H17Y17964   2.838   1.707   8.482 -1.5801 -0.1816  0.3758
  160SAPE  C31817965   2.842   1.678   8.701  0.2370  0.4712  0.4233
  160SAPE  H18X17966   2.735   1.652   8.686  0.9680 -3.1601  0.5847
  160SAPE  H18Y17967   2.843   1.784   8.735  1.6499  0.1134  1.6307
  160SAPE  H18Z17968   2.885   1.614   8.781 -0.4296 -1.6875 -0.8576
  161SOPE     N17969   4.035   0.634  10.737 -0.7120 -0.0413 -0.2425
  161SOPE   HN117970   4.074   0.720  10.694 -0.0416  0.4070  1.1937
  161SOPE   HN217971   3.937   0.658  10.761 -0.3172  0.7439  0.6192
  161SOPE   HN317972   4.094   0.626  10.822  0.4765 -1.1985 -1.1357
  161SOPE   C1217973   4.062   0.527  10.630 -0.1510 -0.1661  0.3932
  161SOPE  H12A17974   4.004   0.545  10.537 -2.6537 -0.7566  1.7495
  161SOPE  H12B17975   4.024   0.430  10.668 -0.3718 -1.4265 -2.7597
  161SOPE   C1117976   4.205   0.522  10.599 -0.8078  0.7378  0.5528
  161SOPE  H11A17977   4.236   0.616  10.548 -1.9849  1.6088  1.4035
  161SOPE  H11B17978   4.237   0.444  10.527  1.1940  1.8759  0.1096
  161SOPE     P17979   4.363   0.375  10.756  0.1667 -0.3308  0.0720
  161SOPE   O1317980   4.286   0.261  10.706 -0.6616 -0.1517 -0.1633
  161SOPE   O1417981   4.397   0.377  10.897  0.0248  0.0005 -0.2847
  161SOPE   O1217982   4.289   0.510  10.713 -0.1469 -0.3415  0.4336
  161SOPE   O1117983   4.500   0.374  10.674 -0.1849 -0.1569 -0.7462
  161SOPE    C117984   4.569   0.499  10.669  0.2388 -0.0174  0.0446
  161SOPE    HA17985   4.675   0.473  10.688  0.2226 -0.5242 -0.5478
  161SOPE    HB17986   4.530   0.576  10.740 -2.0253  0.6126 -1.7547
  161SOPE    C217987   4.548   0.568  10.533 -0.0378  0.7607  0.6156
  161SOPE    HS17988   4.441   0.561  10.503  0.1359 -0.5051  0.1990
  161SOPE   O2117989   4.626   0.502  10.432 -0.4471  0.1015 -0.2472
  161SOPE   C2117990   4.578   0.402  10.360 -0.4193 -0.4252  0.2064
  161SOPE   O2217991   4.478   0.338  10.384  0.2402  0.1722 -0.1353
  161SOPE   C2217992   4.665   0.368  10.244  0.0991  0.5924 -0.2928
  161SOPE   H2R17993   4.695   0.264  10.267 -1.7640  0.0638 -0.0599
  161SOPE   H2S17994   4.757   0.430  10.249 -0.0563  0.7701  0.6274
  161SOPE    C317995   4.598   0.717  10.534 -0.1807  0.3314 -0.2731
  161SOPE    HX17996   4.707   0.711  10.558 -0.6428 -1.0109  1.7949
  161SOPE    HY17997   4.548   0.776  10.614 -1.1301 -0.8172  0.0108
  161SOPE   O3117998   4.587   0.765  10.398  0.6747 -0.2991 -0.2246
  161SOPE   C3117999   4.474   0.822  10.369  0.1937  0.5655  0.3669
  161SOPE   O3218000   4.371   0.828  10.440  0.3990 -0.2799  0.1658
  161SOPE   C3218001   4.498   0.903  10.236  0.0820  0.3682 -0.1647
  161SOPE   H2X18002   4.540   0.832  10.162  0.7067  0.4189  0.1324
  161SOPE   H2Y18003   4.588   0.963  10.258 -0.1043  0.7420 -0.4271
  161SOPE   C2318004   4.584   0.360  10.117 -0.2121  1.0681  0.5507
  161SOPE   H3R18005   4.488   0.309  10.137  0.8478 -0.7111  1.4289
  161SOPE   H3S18006   4.631   0.294  10.040 -0.5725 -1.4872  2.3843
  161SOPE   C2418007   4.558   0.497  10.050  0.6712  0.2212  0.0323
  161SOPE   H4R18008   4.449   0.500  10.027  0.2108  1.0744  2.1094
  161SOPE   H4S18009   4.571   0.592  10.106 -0.9371  2.5973 -3.2790
  161SOPE   C2518010   4.650   0.513   9.929  0.6710  0.3352  0.1038
  161SOPE   H5R18011   4.756   0.522   9.962  0.5731 -1.5829  1.0726
  161SOPE   H5S18012   4.644   0.418   9.873  0.4490 -0.0882  0.8371
  161SOPE   C2618013   4.609   0.619   9.832 -0.2900  0.5887  0.4110
  161SOPE   H6R18014   4.509   0.597   9.789  0.4811 -1.1590 -0.6010
  161SOPE   H6S18015   4.602   0.716   9.885 -0.6359  0.6196  0.3083
  161SOPE   C2718016   4.708   0.645   9.709 -0.2022 -0.4583  0.3522
  161SOPE   H7R18017   4.809   0.621   9.748  0.9392  0.9195 -1.5225
  161SOPE   H7S18018   4.674   0.577   9.628 -1.0116 -0.0056  0.3005
  161SOPE   C2818019   4.696   0.798   9.667  0.0071  0.5665  0.3430
  161SOPE   H8R18020   4.600   0.810   9.613  1.8741  1.3408 -3.1073
  161SOPE   H8S18021   4.687   0.869   9.751 -0.8197  0.3464  0.4464
  161SOPE   C2918022   4.818   0.823   9.578  0.8230  0.0694 -0.2862
  161SOPE   H9118023   4.917   0.820   9.626  1.2545 -1.6282 -1.1970
  161SOPE  C21018024   4.805   0.856   9.452  0.8574  1.0142 -0.0701
  161SOPE  H10118025   4.895   0.852   9.388  0.0602 -1.9045 -1.1836
  161SOPE  C21118026   4.682   0.850   9.374 -0.4764 -0.3951  0.0422
  161SOPE  H11R18027   4.658   0.959   9.369 -0.7916 -0.4376  0.6510
  161SOPE  H11S18028   4.596   0.796   9.417 -1.5032 -1.9318 -3.5269
  161SOPE  C21218029   4.712   0.808   9.227 -0.0229 -0.3938 -0.7711
  161SOPE  H12R18030   4.758   0.708   9.244  0.4616  0.3751  3.4162
  161SOPE  H12S18031   4.793   0.869   9.181 -0.6995  0.2349 -1.1502
  161SOPE  C21318032   4.589   0.812   9.136 -0.0215 -0.1704 -0.3880
  161SOPE  H13R18033   4.546   0.915   9.134 -0.2185 -0.2484 -2.1325
  161SOPE  H13S18034   4.515   0.748   9.190  0.0696 -0.6739 -0.8492
  161SOPE  C21418035   4.616   0.767   8.992 -0.9948  0.5440 -0.1035
  161SOPE  H14R18036   4.638   0.659   8.993  2.6370  1.1367 -2.0074
  161SOPE  H14S18037   4.708   0.818   8.956 -1.4545  2.6614  1.4871
  161SOPE  C21518038   4.504   0.788   8.889 -0.0723 -0.2004 -0.1679
  161SOPE  H15R18039   4.472   0.894   8.897  1.9818  0.3537  1.6207
  161SOPE  H15S18040   4.413   0.727   8.904 -0.6223  0.8277  0.8364
  161SOPE  C21618041   4.551   0.764   8.741 -0.3364 -0.2249 -0.9885
  161SOPE  H16R18042   4.603   0.667   8.727  0.9792  0.6337 -2.4053
  161SOPE  H16S18043   4.635   0.831   8.710  1.5178 -1.7649  0.5058
  161SOPE  C21718044   4.437   0.782   8.646 -0.5057  0.0468 -0.3127
  161SOPE  H17R18045   4.362   0.702   8.665 -0.1194  0.0146  1.1422
  161SOPE  H17S18046   4.480   0.767   8.544 -0.5654 -1.5993 -0.1241
  161SOPE  C21818047   4.362   0.913   8.653  0.2552  0.1249 -0.2006
  161SOPE  H18R18048   4.427   1.001   8.630 -0.9758  0.4011 -3.0306
  161SOPE  H18S18049   4.306   0.941   8.745  1.7923  0.2113  0.7377
  161SOPE  H18T18050   4.284   0.930   8.575 -3.1620  0.8696  3.0638
  161SOPE   C3318051   4.372   0.968  10.181  0.9629 -0.5203 -0.2657
  161SOPE   H3X18052   4.361   1.067  10.229  1.3005 -0.4653 -0.2948
  161SOPE   H3Y18053   4.287   0.905  10.214 -1.2628  2.3255 -0.1926
  161SOPE   C3418054   4.368   1.000  10.035  0.1195  0.1308  0.9145
  161SOPE   H4X18055   4.463   1.053  10.014  0.9051 -1.6398 -0.2116
  161SOPE   H4Y18056   4.289   1.074  10.012  0.3288  0.1918  0.3824
  161SOPE   C3518057   4.341   0.883   9.943 -0.4033  0.8263 -0.0768
  161SOPE   H5X18058   4.246   0.829   9.964 -0.4626 -0.2042 -2.6700
  161SOPE   H5Y18059   4.423   0.810   9.959  0.1617  1.5460  0.3433
  161SOPE   C3618060   4.337   0.927   9.795 -0.1736  0.1452  0.5011
  161SOPE   H6X18061   4.436   0.956   9.753  0.3181 -1.3162  0.5868
  161SOPE   H6Y18062   4.271   1.015   9.782  0.7410  0.8400  0.4947
  161SOPE   C3718063   4.308   0.802   9.700  0.4515 -0.7342  0.4885
  161SOPE   H7X18064   4.226   0.738   9.737  0.7524 -2.3640 -1.4926
  161SOPE   H7Y18065   4.398   0.737   9.697  1.2922  0.4282 -0.2873
  161SOPE   C3818066   4.285   0.829   9.551  0.8481 -0.1862  0.1503
  161SOPE   H8X18067   4.279   0.736   9.491 -2.5365 -0.8559  1.3162
  161SOPE   H8Y18068   4.361   0.902   9.515 -0.6664  0.7576 -1.2847
  161SOPE   C3918069   4.162   0.918   9.530 -0.1570  0.8007 -0.0384
  161SOPE   H9X18070   4.182   1.020   9.570  1.0279 -0.5355  3.1801
  161SOPE   H9Y18071   4.078   0.883   9.595 -1.6448 -0.5267 -2.5171
  161SOPE  C31018072   4.121   0.933   9.376 -0.0638  0.2066  0.0016
  161SOPE  H10X18073   4.059   1.025   9.366 -1.8257 -0.9058  0.1781
  161SOPE  H10Y18074   4.057   0.847   9.347 -0.4150  1.1255 -2.1578
  161SOPE  C31118075   4.243   0.936   9.281  0.8013 -0.3105  0.6258
  161SOPE  H11X18076   4.306   0.845   9.286  1.7801  0.2579 -0.6063
  161SOPE  H11Y18077   4.302   1.019   9.326  0.3369 -1.9473  4.6662
  161SOPE  C31218078   4.211   0.987   9.140 -0.2784  0.6452  0.6394
  161SOPE  H12X18079   4.291   0.984   9.063 -2.1950  3.0352 -1.6240
  161SOPE  H12Y18080   4.168   1.089   9.146  0.0174  0.7324  1.3998
  161SOPE  C31318081   4.098   0.904   9.071  0.0204  0.7162  0.4880
  161SOPE  H13X18082   4.006   0.896   9.132 -0.8988  1.1198 -0.8069
  161SOPE  H13Y18083   4.147   0.809   9.041 -0.3676  0.9650 -1.0416
  161SOPE  C31418084   4.048   0.964   8.940  0.1848  0.2287 -0.6011
  161SOPE  H14X18085   4.136   0.966   8.872  0.8539 -0.8253  0.2069
  161SOPE  H14Y18086   4.013   1.068   8.955 -0.7565  0.0446 -1.3891
  161SOPE  C31518087   3.938   0.897   8.863 -0.6038  0.1803  0.4437
  161SOPE  H15X18088   3.921   0.960   8.772  0.0271  1.3781  1.1275
  161SOPE  H15Y18089   3.848   0.899   8.929  0.1294 -0.1063  1.4733
  161SOPE  C31618090   3.971   0.754   8.823 -0.6874  0.2784 -0.0118
  161SOPE  H16X18091   3.998   0.699   8.915 -1.0772  2.0827  1.2474
  161SOPE  H16Y18092   4.065   0.751   8.765  0.4004 -1.3190  1.7289
  161SOPE  C31718093   3.862   0.673   8.753 -0.5421 -0.6742 -0.3817
  161SOPE  H17X18094   3.761   0.688   8.798 -0.4988 -0.6013 -0.3075
  161SOPE  H17Y18095   3.883   0.565   8.764  0.4668 -0.3204  1.5912
  161SOPE  C31818096   3.833   0.715   8.614 -0.0977  0.0770  0.4655
  161SOPE  H18X18097   3.927   0.693   8.558  0.0155 -0.4770  0.8693
  161SOPE  H18Y18098   3.790   0.818   8.609 -2.8046 -1.0157 -0.8168
  161SOPE  H18Z18099   3.745   0.653   8.587 -1.0697  0.6184  2.2335
  162SOPE     N18100   3.423   6.396  10.886  0.2826 -0.0516  0.2202
  162SOPE   HN118101   3.347   6.466  10.892  0.2484 -0.1795  1.4460
  162SOPE   HN218102   3.373   6.326  10.943  0.8838  0.0362  0.8631
  162SOPE   HN318103   3.502   6.430  10.945 -0.6222  0.9489  0.9024
  162SOPE   C1218104   3.435   6.362  10.735 -0.4623 -0.4047  0.1450
  162SOPE  H12A18105   3.335   6.334  10.695 -0.9467  0.9293  0.3759
  162SOPE  H12B18106   3.498   6.271  10.733  0.9065  0.4440  1.7894
  162SOPE   C1118107   3.503   6.478  10.655 -0.0669 -0.5011 -0.9144
  162SOPE  H11A18108   3.427   6.559  10.658  0.2798 -0.2010  0.3383
  162SOPE  H11B18109   3.511   6.450  10.548 -0.7498  1.7402 -1.6161
  162SOPE     P18110   3.768   6.476  10.648 -0.0680 -0.3092 -0.1967
  162SOPE   O1318111   3.765   6.330  10.655 -0.5663  0.7939  0.5663
  162SOPE   O1418112   3.876   6.539  10.730  0.5359 -0.2707  0.6266
  162SOPE   O1218113   3.632   6.520  10.708 -0.0151 -0.0909  0.0173
  162SOPE   O1118114   3.776   6.524  10.499 -0.2109  0.2303  0.3151
  162SOPE    C118115   3.805   6.660  10.467 -0.2383 -0.8539  0.2951
  162SOPE    HA18116   3.838   6.660  10.361 -0.9155  1.4384  0.0424
  162SOPE    HB18117   3.885   6.704  10.529 -0.0835  0.5885 -0.8867
  162SOPE    C218118   3.682   6.752  10.476  0.4713  0.1130  0.4146
  162SOPE    HS18119   3.656   6.766  10.583 -0.0262  1.3743  0.1516
  162SOPE   O2118120   3.567   6.691  10.424 -0.0803 -0.7787  0.0382
  162SOPE   C2118121   3.451   6.759  10.437 -0.4816  0.4247 -0.3188
  162SOPE   O2218122   3.434   6.860  10.504 -0.1292  0.3538  0.1902
  162SOPE   C2218123   3.335   6.669  10.376  0.0408 -0.7367  0.6518
  162SOPE   H2R18124   3.239   6.721  10.395  1.4762  2.2147  0.4249
  162SOPE   H2S18125   3.335   6.573  10.430 -0.4689 -1.4832 -0.6428
  162SOPE    C318126   3.709   6.888  10.403 -0.2206 -0.7966 -0.1982
  162SOPE    HX18127   3.810   6.912  10.442 -1.7487  1.9719  2.5586
  162SOPE    HY18128   3.639   6.966  10.439  0.8454  0.9724 -1.7798
  162SOPE   O3118129   3.697   6.863  10.260  0.0830  0.2677  0.6979
  162SOPE   C3118130   3.615   6.928  10.187 -0.1255 -0.4789 -0.4911
  162SOPE   O3218131   3.534   7.005  10.230 -0.1830  0.3797 -0.3132
  162SOPE   C3218132   3.632   6.895  10.036  0.3719 -0.4457 -0.3464
  162SOPE   H2X18133   3.549   6.823  10.019 -0.2382 -0.0792  0.9299
  162SOPE   H2Y18134   3.722   6.834  10.018  0.6630  0.1996 -1.1289
  162SOPE   C2318135   3.347   6.645  10.226  0.2909 -0.9037 -0.2991
  162SOPE   H3R18136   3.449   6.604  10.210  0.2872 -1.2932  0.6299
  162SOPE   H3S18137   3.337   6.743  10.174  1.7903  0.0010  1.0266
  162SOPE   C2418138   3.240   6.547  10.179 -0.0193 -0.0089  0.3414
  162SOPE   H4R18139   3.241   6.453  10.238 -0.1978  0.1882  0.6626
  162SOPE   H4S18140   3.142   6.595  10.200  0.9842  2.0718  0.5578
  162SOPE   C2518141   3.239   6.525  10.026 -0.3001  0.3163  0.3514
  162SOPE   H5R18142   3.227   6.620   9.969 -1.4450 -2.3419 -4.4427
  162SOPE   H5S18143   3.337   6.478  10.003 -0.7237 -1.5744  2.1595
  162SOPE   C2618144   3.131   6.428   9.976  0.0966 -0.5880  0.0544
  162SOPE   H6R18145   3.159   6.330  10.020  0.4534  0.1148  1.4409
  162SOPE   H6S18146   3.037   6.462  10.025 -1.0752  0.2208 -2.5529
  162SOPE   C2718147   3.114   6.416   9.827  0.5687 -0.7967  0.5556
  162SOPE   H7R18148   3.030   6.342   9.821 -0.1885 -0.0314  1.3221
  162SOPE   H7S18149   3.064   6.510   9.795 -1.2235 -0.9943  2.4832
  162SOPE   C2818150   3.247   6.370   9.767  0.7899 -0.1638  0.5786
  162SOPE   H8R18151   3.329   6.443   9.771 -0.8704  1.8889 -0.7979
  162SOPE   H8S18152   3.277   6.273   9.812 -0.2864 -0.9853 -0.4048
  162SOPE   C2918153   3.222   6.334   9.621  0.3616 -0.0136  0.8868
  162SOPE   H9118154   3.157   6.249   9.594 -2.7745  3.2076 -3.0161
  162SOPE  C21018155   3.285   6.395   9.520  0.4547  0.2442  0.1237
  162SOPE  H10118156   3.275   6.366   9.414  0.4995  0.4181  0.0728
  162SOPE  C21118157   3.385   6.506   9.527  0.0640  0.1901 -0.3634
  162SOPE  H11R18158   3.490   6.476   9.549  0.7058 -0.0597 -3.2673
  162SOPE  H11S18159   3.354   6.567   9.614 -0.9407 -0.8598  0.0381
  162SOPE  C21218160   3.394   6.588   9.400  0.4205  0.0991  0.0551
  162SOPE  H12R18161   3.430   6.692   9.418 -1.6124  0.3553  3.2858
  162SOPE  H12S18162   3.298   6.585   9.344  0.6055  1.3583 -0.3783
  162SOPE  C21318163   3.494   6.520   9.299  0.2442  0.9667 -0.5371
  162SOPE  H13R18164   3.467   6.413   9.283  2.2683  0.0730  1.5132
  162SOPE  H13S18165   3.595   6.522   9.345 -0.0115  3.0333  0.0297
  162SOPE  C21418166   3.506   6.594   9.173 -0.1055 -1.0788  0.6378
  162SOPE  H14R18167   3.593   6.564   9.111  1.0184  2.3666  0.3393
  162SOPE  H14S18168   3.526   6.698   9.206  2.3324 -1.4712  0.5452
  162SOPE  C21518169   3.375   6.609   9.094  0.1096 -0.3611 -0.1321
  162SOPE  H15R18170   3.283   6.619   9.155  0.2218  0.6948 -0.1153
  162SOPE  H15S18171   3.362   6.517   9.032  3.0506 -1.5548  0.8020
  162SOPE  C21618172   3.394   6.729   9.002  0.1925 -0.8131  0.3725
  162SOPE  H16R18173   3.480   6.705   8.936 -1.4183 -1.9825 -1.4264
  162SOPE  H16S18174   3.419   6.826   9.052 -1.7389 -0.4766  0.7718
  162SOPE  C21718175   3.280   6.765   8.917  0.7954  0.2686 -0.1088
  162SOPE  H17R18176   3.298   6.854   8.853 -0.6939 -1.3152 -2.9366
  162SOPE  H17S18177   3.210   6.811   8.991  0.2944 -0.1406 -0.3260
  162SOPE  C21818178   3.228   6.655   8.824 -0.0331 -0.2861 -0.1683
  162SOPE  H18R18179   3.293   6.644   8.735  1.3352 -0.4155  0.7990
  162SOPE  H18S18180   3.123   6.677   8.795 -0.3642 -2.0963 -0.4130
  162SOPE  H18T18181   3.239   6.559   8.878  0.1380  0.2831  0.8504
  162SOPE   C3318182   3.626   7.021   9.944 -0.7166  0.6484  0.2447
  162SOPE   H3X18183   3.716   7.087   9.942 -0.0989 -0.1849 -0.5048
  162SOPE   H3Y18184   3.535   7.074   9.980 -0.8338  1.7470 -1.5576
  162SOPE   C3418185   3.598   6.988   9.796  0.7065  0.2378 -0.5060
  162SOPE   H4X18186   3.528   6.904   9.807 -1.4342  1.8834 -0.9259
  162SOPE   H4Y18187   3.696   6.956   9.754 -0.2299 -0.1194 -2.5367
  162SOPE   C3518188   3.520   7.098   9.715  0.6076  0.1311 -0.3807
  162SOPE   H5X18189   3.570   7.197   9.715  0.5507  0.1584 -0.0907
  162SOPE   H5Y18190   3.421   7.122   9.759  0.3819 -0.6210 -0.4580
  162SOPE   C3618191   3.513   7.040   9.567  0.1050 -0.2685  0.1619
  162SOPE   H6X18192   3.452   6.947   9.573 -0.0100 -0.2071 -0.0359
  162SOPE   H6Y18193   3.609   7.011   9.520  0.0103  1.4325 -1.1778
  162SOPE   C3718194   3.434   7.135   9.480 -0.5315 -0.1735  0.1851
  162SOPE   H7X18195   3.461   7.242   9.492 -0.7631  0.4714 -3.7328
  162SOPE   H7Y18196   3.327   7.133   9.511 -0.4527 -2.2656  0.4781
  162SOPE   C3818197   3.442   7.113   9.331  0.5078 -1.2514  1.0985
  162SOPE   H8X18198   3.430   7.006   9.305  3.7257 -1.1136 -1.7867
  162SOPE   H8Y18199   3.547   7.129   9.296  0.4109 -1.5889  0.6454
  162SOPE   C3918200   3.337   7.187   9.235 -0.1072  0.8988 -1.0146
  162SOPE   H9X18201   3.357   7.295   9.243  1.7441  0.5356 -0.3814
  162SOPE   H9Y18202   3.233   7.168   9.270  0.2729 -2.1246 -1.2400
  162SOPE  C31018203   3.345   7.138   9.092 -0.1475 -0.5183  0.4166
  162SOPE  H10X18204   3.259   7.188   9.041 -0.8858  0.5419  2.5686
  162SOPE  H10Y18205   3.324   7.029   9.092  0.9372 -0.7450  1.4679
  162SOPE  C31118206   3.479   7.169   9.026  0.2209 -0.0482 -0.0801
  162SOPE  H11X18207   3.558   7.105   9.071  1.0895  0.9971 -0.0596
  162SOPE  H11Y18208   3.504   7.270   9.066  1.2656  0.0737 -1.0013
  162SOPE  C31218209   3.485   7.157   8.874  0.2971 -0.2708 -0.2082
  162SOPE  H12X18210   3.408   7.225   8.829 -0.8207  0.4108  2.5309
  162SOPE  H12Y18211   3.449   7.057   8.843 -0.3159  0.1037 -0.7477
  162SOPE  C31318212   3.628   7.162   8.817  0.3589 -0.8402  0.4739
  162SOPE  H13X18213   3.698   7.097   8.873  2.5912  1.3094  0.3721
  162SOPE  H13Y18214   3.664   7.263   8.848  1.4609 -0.4848 -1.7004
  162SOPE  C31418215   3.647   7.139   8.666  0.1341 -0.1062  0.6419
  162SOPE  H14X18216   3.616   7.034   8.646 -1.2313  0.5852 -1.1275
  162SOPE  H14Y18217   3.752   7.154   8.633 -0.5824 -0.6042 -2.1298
  162SOPE  C31518218   3.562   7.246   8.595  0.1247 -0.7491  0.3390
  162SOPE  H15X18219   3.590   7.346   8.635 -1.5837  0.7983 -2.0393
  162SOPE  H15Y18220   3.454   7.240   8.620 -0.5161  0.4686 -1.8503
  162SOPE  C31618221   3.580   7.249   8.441 -0.5149  0.3190 -0.2945
  162SOPE  H16X18222   3.569   7.144   8.408  0.7590 -0.2253  0.9257
  162SOPE  H16Y18223   3.686   7.273   8.421 -0.3355 -1.9237 -2.3502
  162SOPE  C31718224   3.489   7.354   8.374  0.1671  0.1614 -0.5153
  162SOPE  H17X18225   3.516   7.363   8.267 -2.2493  0.4820 -1.1558
  162SOPE  H17Y18226   3.485   7.445   8.438  0.0889 -1.0055  1.2276
  162SOPE  C31818227   3.334   7.326   8.370  0.3678  0.2270 -0.4938
  162SOPE  H18X18228   3.279   7.411   8.324 -1.2434 -1.2677 -1.4336
  162SOPE  H18Y18229   3.295   7.302   8.471 -2.1324  1.1787 -1.1486
  162SOPE  H18Z18230   3.306   7.239   8.307 -2.5698  0.2741  0.5992
  163SOPE     N18231   2.829   5.129  10.688 -0.2181  0.3980  0.0799
  163SOPE   HN118232   2.763   5.088  10.618 -1.1032  3.2407 -0.9205
  163SOPE   HN218233   2.877   5.199  10.628  0.9539 -0.7882 -0.3957
  163SOPE   HN318234   2.892   5.052  10.717 -1.5395 -0.8878 -0.3265
  163SOPE   C1218235   2.746   5.181  10.796  0.2190 -0.7156  0.0688
  163SOPE  H12A18236   2.804   5.243  10.868 -2.3705  3.1961 -0.8502
  163SOPE  H12B18237   2.712   5.088  10.845 -1.0824  0.1901  0.9443
  163SOPE   C1118238   2.625   5.261  10.739 -0.8408 -0.4747  0.0137
  163SOPE  H11A18239   2.576   5.298  10.832 -1.1555 -2.0124  0.4924
  163SOPE  H11B18240   2.562   5.180  10.696 -0.5434 -0.4480 -0.4774
  163SOPE     P18241   2.562   5.460  10.573 -0.0998 -0.5392  0.3099
  163SOPE   O1318242   2.519   5.572  10.660  0.0494 -0.0544 -0.5598
  163SOPE   O1418243   2.452   5.371  10.526 -0.5061  0.1460 -0.0681
  163SOPE   O1218244   2.664   5.368  10.648  0.4519  0.2500 -0.5594
  163SOPE   O1118245   2.652   5.514  10.451 -0.4010  0.3432 -0.3110
  163SOPE    C118246   2.720   5.419  10.366  0.1800  0.6249 -0.4131
  163SOPE    HA18247   2.649   5.362  10.303  1.0099 -2.1302  0.9751
  163SOPE    HB18248   2.779   5.344  10.422  1.2764 -0.3800 -2.7943
  163SOPE    C218249   2.807   5.489  10.266 -0.0433  0.1188 -0.1992
  163SOPE    HS18250   2.865   5.555  10.334  0.0410 -0.6390  0.4809
  163SOPE   O2118251   2.722   5.563  10.174  0.4128  0.1897  0.2631
  163SOPE   C2118252   2.778   5.635  10.082 -0.2447 -0.5698 -0.4462
  163SOPE   O2218253   2.893   5.650  10.052  0.1606 -0.2338  0.1260
  163SOPE   C2218254   2.667   5.714   9.999 -0.6903  0.2173  0.8124
  163SOPE   H2R18255   2.662   5.818  10.037  2.1143  1.2553 -1.2397
  163SOPE   H2S18256   2.565   5.676  10.020 -1.2950  1.2586 -0.1168
  163SOPE    C318257   2.903   5.387  10.199 -0.4792  0.2158 -0.0494
  163SOPE    HX18258   2.930   5.303  10.266 -0.7149  0.1568 -0.0253
  163SOPE    HY18259   2.994   5.448  10.181  0.2226  0.1569  2.8573
  163SOPE   O3118260   2.841   5.353  10.073  0.2241 -0.2920 -0.1375
  163SOPE   C3118261   2.789   5.230  10.057  0.0989  0.2679  0.0325
  163SOPE   O3218262   2.782   5.150  10.148  0.2960 -0.4854 -0.1675
  163SOPE   C3218263   2.723   5.210   9.919 -0.4087  0.5822 -0.1632
  163SOPE   H2X18264   2.786   5.269   9.849  0.3060  2.1739  1.7497
  163SOPE   H2Y18265   2.618   5.246   9.918 -0.8567 -0.6549 -1.0170
  163SOPE   C2318266   2.696   5.706   9.852  0.1718 -0.5833  0.4215
  163SOPE   H3R18267   2.806   5.698   9.839  0.0454 -1.5974 -0.0819
  163SOPE   H3S18268   2.656   5.803   9.814 -1.7562 -1.1390  0.8866
  163SOPE   C2418269   2.624   5.602   9.769  0.3269 -0.3359  0.8889
  163SOPE   H4R18270   2.649   5.497   9.796 -1.5981 -1.3871 -1.0770
  163SOPE   H4S18271   2.515   5.604   9.789 -0.0470  0.1899 -1.0063
  163SOPE   C2518272   2.647   5.627   9.621 -0.0182  0.8978 -0.0261
  163SOPE   H5R18273   2.578   5.704   9.581  0.9036  0.9284 -1.6377
  163SOPE   H5S18274   2.753   5.658   9.610 -0.2913  1.5845 -0.7870
  163SOPE   C2618275   2.611   5.498   9.540 -0.1989 -0.4437  0.4117
  163SOPE   H6R18276   2.655   5.413   9.596  0.4289 -0.7785 -0.5811
  163SOPE   H6S18277   2.502   5.476   9.534 -0.4432 -0.5397  3.4998
  163SOPE   C2718278   2.667   5.519   9.396  0.1273  0.2050  0.6541
  163SOPE   H7R18279   2.625   5.603   9.338  0.1823  0.6150  1.1997
  163SOPE   H7S18280   2.770   5.547   9.428  0.0443  0.4593  0.7011
  163SOPE   C2818281   2.664   5.387   9.315 -0.3871 -0.5047 -0.5370
  163SOPE   H8R18282   2.724   5.408   9.224  0.9456  0.0751  0.4571
  163SOPE   H8S18283   2.710   5.299   9.364 -0.6220 -0.3093  0.0430
  163SOPE   C2918284   2.517   5.358   9.264 -0.3489  0.2295 -0.4470
  163SOPE   H9118285   2.456   5.286   9.320 -1.1677  0.4084 -1.0859
  163SOPE  C21018286   2.466   5.402   9.153  0.1172  0.7499 -0.2466
  163SOPE  H10118287   2.366   5.365   9.125  0.5002  2.5807 -4.7509
  163SOPE  C21118288   2.535   5.495   9.060  0.1408 -0.6264  0.1564
  163SOPE  H11R18289   2.614   5.552   9.113  0.7660 -2.4453  1.3034
  163SOPE  H11S18290   2.462   5.572   9.026 -0.0838 -0.2658  1.4207
  163SOPE  C21218291   2.583   5.429   8.936  0.2639  0.4112  0.1587
  163SOPE  H12R18292   2.503   5.373   8.883  0.8034 -0.2759  0.0515
  163SOPE  H12S18293   2.667   5.358   8.953  0.0619  0.0857 -0.1913
  163SOPE  C21318294   2.644   5.540   8.835  0.1383  1.0235 -0.0234
  163SOPE  H13R18295   2.730   5.593   8.881 -0.1575  0.6954  0.9492
  163SOPE  H13S18296   2.555   5.602   8.809 -1.5295 -1.2756 -0.1794
  163SOPE  C21418297   2.685   5.477   8.703 -0.3084  0.7318  0.0849
  163SOPE  H14R18298   2.600   5.415   8.666 -0.7738  0.7284  1.1463
  163SOPE  H14S18299   2.771   5.408   8.713  0.6528  1.6716 -1.2590
  163SOPE  C21518300   2.716   5.586   8.599 -0.1357  0.1222  0.2692
  163SOPE  H15R18301   2.806   5.647   8.624 -0.5727  0.7768  0.2731
  163SOPE  H15S18302   2.632   5.658   8.596  0.1138  0.3946 -1.0124
  163SOPE  C21618303   2.723   5.536   8.451 -1.3526 -0.1911 -0.0501
  163SOPE  H16R18304   2.813   5.471   8.439 -1.1386  0.5309 -3.1269
  163SOPE  H16S18305   2.732   5.626   8.387 -3.1013 -0.9479 -1.4694
  163SOPE  C21718306   2.605   5.454   8.399 -0.1715 -0.0398 -0.5751
  163SOPE  H17R18307   2.511   5.497   8.440  0.9560 -0.3204  2.5596
  163SOPE  H17S18308   2.610   5.361   8.460 -0.5949 -0.2814 -0.9033
  163SOPE  C21818309   2.613   5.434   8.247 -0.3844  0.0779  0.2261
  163SOPE  H18R18310   2.605   5.527   8.187 -0.4589  0.9120  1.4910
  163SOPE  H18S18311   2.537   5.365   8.206 -0.9617  0.5265  0.5273
  163SOPE  H18T18312   2.714   5.396   8.221 -1.3987 -1.8975 -1.0196
  163SOPE   C3318313   2.728   5.058   9.885  0.5044 -0.3255  0.3870
  163SOPE   H3X18314   2.645   5.017   9.947  1.4713 -0.1609  1.8267
  163SOPE   H3Y18315   2.815   4.998   9.916  1.1810  1.7265  2.7913
  163SOPE   C3418316   2.692   5.039   9.740 -0.2403  0.1520 -0.6233
  163SOPE   H4X18317   2.761   5.093   9.671  0.5811 -1.7458 -1.3682
  163SOPE   H4Y18318   2.595   5.090   9.721 -1.4597 -1.3990  1.1056
  163SOPE   C3518319   2.671   4.890   9.693  0.6858 -0.2226 -0.5802
  163SOPE   H5X18320   2.596   4.839   9.757  0.4280  0.9368  0.0849
  163SOPE   H5Y18321   2.761   4.832   9.723  1.3513  0.8935 -0.3562
  163SOPE   C3618322   2.636   4.879   9.539  0.6075  0.6563 -0.5300
  163SOPE   H6X18323   2.550   4.949   9.529 -0.0849 -0.1609 -0.4519
  163SOPE   H6Y18324   2.608   4.777   9.506 -0.2635  0.0014  2.0001
  163SOPE   C3718325   2.758   4.906   9.452 -0.2487  0.5297  0.0961
  163SOPE   H7X18326   2.837   4.837   9.487 -1.1099 -0.0035  1.0574
  163SOPE   H7Y18327   2.802   5.006   9.473  2.0935 -0.1888 -1.0232
  163SOPE   C3818328   2.755   4.876   9.303 -0.7043 -0.1941  0.4447
  163SOPE   H8X18329   2.724   4.771   9.283 -3.4262  0.2209  1.8659
  163SOPE   H8Y18330   2.857   4.884   9.262 -1.1157 -0.6471 -0.7189
  163SOPE   C3918331   2.676   4.977   9.219  0.3193 -1.0072 -0.1156
  163SOPE   H9X18332   2.711   5.079   9.245  0.1041 -1.2045  1.0331
  163SOPE   H9Y18333   2.567   4.970   9.242 -0.4133  1.3145 -2.4434
  163SOPE  C31018334   2.687   4.949   9.075 -0.0167  0.0462 -0.0976
  163SOPE  H10X18335   2.640   4.853   9.046  1.7455 -1.1452  0.7898
  163SOPE  H10Y18336   2.796   4.939   9.054 -0.0217  0.4339 -0.3117
  163SOPE  C31118337   2.639   5.065   8.984  0.2657 -0.0876 -0.1023
  163SOPE  H11X18338   2.671   5.156   9.038 -2.4823  0.7418  0.2855
  163SOPE  H11Y18339   2.530   5.078   9.003  0.6978  1.3195  1.7196
  163SOPE  C31218340   2.673   5.062   8.833  0.3501 -0.0295 -0.6463
  163SOPE  H12X18341   2.782   5.066   8.812  0.9807  0.9975  2.3909
  163SOPE  H12Y18342   2.635   5.161   8.799  1.1933  0.4467 -0.2230
  163SOPE  C31318343   2.602   4.950   8.755  0.4661 -0.0803  0.0246
  163SOPE  H13X18344   2.495   4.936   8.780  0.2984 -0.4144 -0.8619
  163SOPE  H13Y18345   2.653   4.853   8.774 -1.3451 -1.0828  0.0055
  163SOPE  C31418346   2.619   4.971   8.606  0.3596  0.5479 -0.1075
  163SOPE  H14X18347   2.623   4.873   8.554 -0.1726  1.4825 -2.0251
  163SOPE  H14Y18348   2.717   5.019   8.585  0.1690  1.7280  1.5146
  163SOPE  C31518349   2.511   5.051   8.534 -0.2689 -0.3416 -0.8449
  163SOPE  H15X18350   2.501   5.146   8.589  0.7592 -1.8177  2.0846
  163SOPE  H15Y18351   2.425   4.988   8.566 -0.5662  0.3006 -0.3581
  163SOPE  C31618352   2.533   5.069   8.377  0.5550  0.2224 -0.2329
  163SOPE  H16X18353   2.560   4.975   8.323 -0.2392  0.3052 -0.8023
  163SOPE  H16Y18354   2.610   5.146   8.353 -1.3188  1.4817 -2.7534
  163SOPE  C31718355   2.412   5.106   8.298  0.4902  0.1839 -1.1246
  163SOPE  H17X18356   2.428   5.135   8.192 -0.4114  1.8715 -0.8385
  163SOPE  H17Y18357   2.363   5.176   8.369 -1.5518  0.3717 -2.6140
  163SOPE  C31818358   2.313   4.985   8.298  0.6025  0.4189  0.5307
  163SOPE  H18X18359   2.360   4.906   8.235  0.0312  0.0726  0.5291
  163SOPE  H18Y18360   2.222   5.016   8.244  1.3024 -1.9824 -2.3115
  163SOPE  H18Z18361   2.292   4.936   8.396 -0.8285 -0.5026 -0.2024
  164SOPE     N18362   4.367   2.678  10.615  0.0975 -0.7177 -0.1281
  164SOPE   HN118363   4.280   2.731  10.596  0.7832  0.9347  1.1650
  164SOPE   HN218364   4.358   2.630  10.707 -1.0292  0.4441  0.3984
  164SOPE   HN318365   4.441   2.750  10.629 -0.0301 -0.7382  0.6576
  164SOPE   C1218366   4.399   2.604  10.488 -0.1045  0.2909  0.0699
  164SOPE  H12A18367   4.424   2.678  10.410  2.5940 -0.6020 -0.0137
  164SOPE  H12B18368   4.306   2.548  10.464 -0.8601  1.2360  0.6971
  164SOPE   C1118369   4.518   2.499  10.502  0.4472 -0.0226  0.3013
  164SOPE  H11A18370   4.606   2.563  10.523  0.2679  0.4637 -0.3744
  164SOPE  H11B18371   4.534   2.452  10.402 -1.0355 -1.1770  0.5701
  164SOPE     P18372   4.394   2.287  10.601  0.2534  0.1819  0.1053
  164SOPE   O1318373   4.296   2.309  10.708  0.2148  0.4526 -0.0870
  164SOPE   O1418374   4.466   2.159  10.604  0.4272  0.3066 -0.1227
  164SOPE   O1218375   4.500   2.406  10.608  0.2928 -0.4320 -0.7729
  164SOPE   O1118376   4.329   2.302  10.459  0.1191  0.5189 -0.3945
  164SOPE    C118377   4.284   2.183  10.389  0.0421  0.4090 -0.3231
  164SOPE    HA18378   4.174   2.181  10.407  0.0093  3.2271  0.2928
  164SOPE    HB18379   4.326   2.087  10.425 -0.7197 -0.1122 -0.7983
  164SOPE    C218380   4.322   2.194  10.241 -0.2679  0.3191  0.4216
  164SOPE    HS18381   4.297   2.100  10.189 -0.6155  1.2497 -1.1458
  164SOPE   O2118382   4.464   2.235  10.217  0.7998 -0.3966  0.1948
  164SOPE   C2118383   4.552   2.158  10.264 -0.3235 -0.5554 -0.3694
  164SOPE   O2218384   4.542   2.046  10.302  0.0351 -0.2948  0.3659
  164SOPE   C2218385   4.684   2.236  10.277  0.4668 -0.1974  0.2480
  164SOPE   H2R18386   4.707   2.221  10.385  0.2164  0.9474  0.4696
  164SOPE   H2S18387   4.672   2.341  10.242 -1.5816 -0.0403  1.2799
  164SOPE    C318388   4.235   2.305  10.180 -0.6974  0.8731  0.1982
  164SOPE    HX18389   4.258   2.395  10.242  0.0143 -0.5368  2.0705
  164SOPE    HY18390   4.129   2.270  10.176 -0.4981  0.1711  0.8898
  164SOPE   O3118391   4.271   2.341  10.039 -0.5016  0.3318  0.3036
  164SOPE   C3118392   4.215   2.273   9.939 -0.3387  0.3124  0.2396
  164SOPE   O3218393   4.161   2.163   9.956 -0.7658  0.2908  0.3106
  164SOPE   C3218394   4.219   2.346   9.804 -0.5828  0.6858  0.0388
  164SOPE   H2X18395   4.325   2.329   9.774 -0.5356  1.3105 -0.1650
  164SOPE   H2Y18396   4.200   2.454   9.817 -2.7677  0.3547 -0.0933
  164SOPE   C2318397   4.797   2.167  10.197  0.4092  0.3134  0.6230
  164SOPE   H3R18398   4.799   2.059  10.225  0.2560  0.0571 -0.3093
  164SOPE   H3S18399   4.898   2.200  10.231 -0.4679  1.4150  2.2812
  164SOPE   C2418400   4.789   2.170  10.038 -0.3700 -0.0440 -0.0233
  164SOPE   H4R18401   4.849   2.090   9.990 -2.4538 -1.5615 -0.1985
  164SOPE   H4S18402   4.682   2.153  10.017 -0.3996 -1.8295  1.3829
  164SOPE   C2518403   4.830   2.308   9.976  0.0306  0.4155 -0.4897
  164SOPE   H5R18404   4.767   2.390  10.016  0.7140 -0.7595  3.3743
  164SOPE   H5S18405   4.936   2.322  10.004  0.5025 -4.9160  1.5198
  164SOPE   C2618406   4.801   2.309   9.824  0.3499 -0.4989 -0.5548
  164SOPE   H6R18407   4.871   2.377   9.773  0.6769  0.3193  0.9401
  164SOPE   H6S18408   4.824   2.208   9.784  0.4382 -0.4544 -0.6151
  164SOPE   C2718409   4.658   2.350   9.785 -0.4720 -0.0477  0.5020
  164SOPE   H7R18410   4.585   2.279   9.829 -0.5053 -1.4223 -1.6121
  164SOPE   H7S18411   4.642   2.451   9.828  0.5997  0.4607 -0.2251
  164SOPE   C2818412   4.637   2.361   9.634  0.3483 -0.3364  0.5711
  164SOPE   H8R18413   4.529   2.381   9.619  0.2669 -2.0720 -1.5531
  164SOPE   H8S18414   4.671   2.461   9.598 -0.9528  0.7752  2.2378
  164SOPE   C2918415   4.685   2.252   9.543 -0.1422  0.3102  0.5034
  164SOPE   H9118416   4.773   2.200   9.582  0.1055 -0.3387 -0.8584
  164SOPE  C21018417   4.614   2.201   9.441 -1.3192 -0.5567  0.0938
  164SOPE  H10118418   4.659   2.122   9.378 -2.3401 -0.7819 -0.3749
  164SOPE  C21118419   4.483   2.258   9.396  0.1982  0.3512 -0.0964
  164SOPE  H11R18420   4.474   2.366   9.417 -0.3835 -0.0696  2.0009
  164SOPE  H11S18421   4.401   2.211   9.454  2.9998 -1.5043  2.7044
  164SOPE  C21218422   4.457   2.242   9.249 -0.1480  0.2203 -0.4519
  164SOPE  H12R18423   4.346   2.242   9.240 -0.3025  0.6975  1.1356
  164SOPE  H12S18424   4.480   2.142   9.206  0.0240  0.2590 -0.4509
  164SOPE  C21318425   4.515   2.345   9.150 -0.0720  0.5748 -0.5188
  164SOPE  H13R18426   4.623   2.328   9.133 -0.1295 -0.4081  0.0403
  164SOPE  H13S18427   4.504   2.444   9.201  2.5516  1.0536 -0.7082
  164SOPE  C21418428   4.451   2.334   9.016 -0.9101 -0.1391  0.0707
  164SOPE  H14R18429   4.342   2.354   9.030 -1.0360 -1.3969  1.0163
  164SOPE  H14S18430   4.461   2.239   8.960 -0.2035  1.1364 -2.0929
  164SOPE  C21518431   4.514   2.418   8.905 -0.0850 -0.2784  0.0436
  164SOPE  H15R18432   4.609   2.370   8.872 -0.0053  0.7325 -1.2660
  164SOPE  H15S18433   4.549   2.512   8.954  1.4788 -1.1051  0.5976
  164SOPE  C21618434   4.416   2.445   8.796 -0.8971 -0.0677 -1.0057
  164SOPE  H16R18435   4.323   2.498   8.826 -1.1542 -0.3056 -1.3663
  164SOPE  H16S18436   4.378   2.352   8.748 -1.3831 -0.1627 -0.4362
  164SOPE  C21718437   4.476   2.538   8.683 -0.1868  0.6508 -0.2035
  164SOPE  H17R18438   4.564   2.483   8.642 -1.0891 -0.3692 -0.8446
  164SOPE  H17S18439   4.510   2.633   8.729  2.7634  0.1050 -1.0336
  164SOPE  C21818440   4.380   2.572   8.570 -0.6075  0.6719  0.7711
  164SOPE  H18R18441   4.290   2.634   8.586  0.1485  1.8421  0.6432
  164SOPE  H18S18442   4.340   2.482   8.518 -0.7289  0.7911  0.6594
  164SOPE  H18T18443   4.447   2.628   8.501 -0.6168 -1.6242 -1.2504
  164SOPE   C3318444   4.120   2.294   9.694 -0.0867  0.2329  0.1332
  164SOPE   H3X18445   4.016   2.326   9.718 -0.7772  0.3232 -2.6751
  164SOPE   H3Y18446   4.130   2.185   9.682 -2.1504  0.1557 -1.4062
  164SOPE   C3418447   4.147   2.365   9.561  0.0484 -0.0854  0.1754
  164SOPE   H4X18448   4.252   2.353   9.527  0.0225 -0.1027  0.0981
  164SOPE   H4Y18449   4.128   2.474   9.563 -1.5545 -0.3507  0.3509
  164SOPE   C3518450   4.042   2.324   9.450 -0.5173 -0.0872 -0.3413
  164SOPE   H5X18451   3.938   2.335   9.488  0.6354  1.6978  2.6808
  164SOPE   H5Y18452   4.053   2.220   9.415 -1.8841 -0.3357 -0.1032
  164SOPE   C3618453   4.059   2.422   9.332 -0.1295  0.2055  0.3879
  164SOPE   H6X18454   4.163   2.406   9.294 -0.4707 -0.5178 -0.2762
  164SOPE   H6Y18455   4.060   2.528   9.365  0.6390  0.0514  0.8910
  164SOPE   C3718456   3.971   2.402   9.209 -0.3430 -0.7240  0.4547
  164SOPE   H7X18457   3.965   2.499   9.155  0.7247 -0.4192  0.8633
  164SOPE   H7Y18458   3.872   2.368   9.245 -0.1417 -2.5166 -0.5743
  164SOPE   C3818459   4.029   2.302   9.105  0.4276 -0.4760  0.3046
  164SOPE   H8X18460   4.043   2.197   9.139 -1.1312 -1.5620 -2.0763
  164SOPE   H8Y18461   4.125   2.336   9.060  1.6205 -2.1548  1.5055
  164SOPE   C3918462   3.937   2.301   8.978 -0.3826 -0.5403  0.1728
  164SOPE   H9X18463   3.922   2.402   8.934  2.0569  0.1395  0.7469
  164SOPE   H9Y18464   3.838   2.261   9.007 -0.1314 -0.8856  0.5758
  164SOPE  C31018465   3.999   2.210   8.863  0.9485  0.0893  0.2534
  164SOPE  H10X18466   3.997   2.103   8.893 -1.7833 -1.1117 -3.5081
  164SOPE  H10Y18467   4.104   2.228   8.834 -0.1552  2.0109 -3.0718
  164SOPE  C31118468   3.914   2.200   8.740  0.4763 -0.3440 -0.6075
  164SOPE  H11X18469   3.985   2.209   8.654  0.0236  1.9605 -0.8153
  164SOPE  H11Y18470   3.854   2.293   8.729 -0.5971 -0.8588  0.6039
  164SOPE  C31218471   3.827   2.076   8.717 -0.1931 -0.2996 -0.4645
  164SOPE  H12X18472   3.758   2.081   8.631  2.6265 -0.4557 -2.8805
  164SOPE  H12Y18473   3.773   2.042   8.808  0.3157  1.8611  0.6996
  164SOPE  C31318474   3.914   1.952   8.677  0.3779  0.6770  0.0010
  164SOPE  H13X18475   3.869   1.863   8.726  0.0174  1.0379  0.3349
  164SOPE  H13Y18476   4.017   1.972   8.714  0.4946 -0.2386  0.1998
  164SOPE  C31418477   3.930   1.938   8.519  0.1519 -0.3802 -0.6304
  164SOPE  H14X18478   3.980   2.028   8.477 -0.1170  0.4205  0.7341
  164SOPE  H14Y18479   3.832   1.941   8.466  1.1887  0.1528 -2.6386
  164SOPE  C31518480   4.023   1.820   8.487  0.6618 -0.1676  0.1840
  164SOPE  H15X18481   3.976   1.721   8.507 -0.1875 -0.0992 -1.3592
  164SOPE  H15Y18482   4.115   1.818   8.550 -0.8078 -0.7184  2.4128
  164SOPE  C31618483   4.083   1.843   8.346  0.4909  0.2000 -0.4387
  164SOPE  H16X18484   4.174   1.784   8.323  0.6482  0.4239 -0.3872
  164SOPE  H16Y18485   4.108   1.951   8.345 -0.2585  0.3770 -1.2666
  164SOPE  C31718486   3.981   1.839   8.231 -0.1828  0.4111 -0.4228
  164SOPE  H17X18487   3.897   1.906   8.260 -0.5512  0.1745 -0.9164
  164SOPE  H17Y18488   3.943   1.735   8.222  1.1343 -0.4290  2.6681
  164SOPE  C31818489   4.036   1.878   8.092  0.3303 -0.6426 -0.9136
  164SOPE  H18X18490   3.971   1.844   8.008  0.1314 -0.2111 -0.9354
  164SOPE  H18Y18491   4.137   1.836   8.074  0.9666  0.5331 -0.2581
  164SOPE  H18Z18492   4.034   1.989   8.083 -3.2492 -0.5688 -0.7489
  165SOPE     N18493   5.866   1.730  10.599 -0.3914 -0.5073 -0.1247
  165SOPE   HN118494   5.893   1.764  10.693  0.8830 -1.2702 -0.1859
  165SOPE   HN218495   5.871   1.626  10.595 -0.3421 -0.4782 -3.2108
  165SOPE   HN318496   5.945   1.764  10.541  2.6625 -0.2835  3.7518
  165SOPE   C1218497   5.728   1.776  10.560 -0.7592  0.0734  0.0835
  165SOPE  H12A18498   5.667   1.766  10.652  0.0219 -2.0968  0.4357
  165SOPE  H12B18499   5.700   1.695  10.490  0.2782  1.0791 -1.5680
  165SOPE   C1118500   5.732   1.907  10.482  0.1743  0.5474  1.0188
  165SOPE  H11A18501   5.636   1.928  10.431  1.1239  3.4708  0.1931
  165SOPE  H11B18502   5.809   1.886  10.404  0.0966  1.0036  0.8161
  165SOPE     P18503   5.768   2.163  10.489 -0.1595  0.1393 -0.0428
  165SOPE   O1318504   5.890   2.176  10.408 -0.5984  0.0828 -0.0087
  165SOPE   O1418505   5.756   2.263  10.598  0.0714 -0.3503 -0.3886
  165SOPE   O1218506   5.769   2.021  10.557  0.0223  0.5140 -0.5369
  165SOPE   O1118507   5.637   2.171  10.409 -0.1419 -0.1397 -0.0396
  165SOPE    C118508   5.594   2.293  10.343  0.3650  0.2692 -0.0231
  165SOPE    HA18509   5.623   2.386  10.397  0.4061 -0.5368  1.4058
  165SOPE    HB18510   5.485   2.283  10.327  0.3290 -1.0048  0.8569
  165SOPE    C218511   5.664   2.298  10.203 -0.0201 -0.3332 -0.4535
  165SOPE    HS18512   5.773   2.313  10.213  0.1900 -2.1572  0.4805
  165SOPE   O2118513   5.612   2.405  10.125  0.0285  0.2676 -0.0542
  165SOPE   C2118514   5.639   2.529  10.162 -0.6554  0.1956  0.6469
  165SOPE   O2218515   5.708   2.551  10.261  0.4637 -0.1212 -0.6537
  165SOPE   C2218516   5.593   2.643  10.067 -0.6967 -0.2540  0.2269
  165SOPE   H2R18517   5.589   2.729  10.137 -2.0002 -1.1612  1.3212
  165SOPE   H2S18518   5.488   2.626  10.033 -0.6984  1.2799 -0.6043
  165SOPE    C318519   5.636   2.172  10.124 -0.4479 -0.1111  0.2498
  165SOPE    HX18520   5.528   2.150  10.112 -0.4752  0.9804 -2.0780
  165SOPE    HY18521   5.678   2.085  10.179 -1.6030 -1.5365 -1.0333
  165SOPE   O3118522   5.710   2.183   9.996  0.5812 -0.6230  0.3197
  165SOPE   C3118523   5.679   2.094   9.905 -0.6048 -0.8307 -0.1066
  165SOPE   O3218524   5.598   2.003   9.928 -0.2310  0.0802 -0.0784
  165SOPE   C3218525   5.770   2.116   9.784  0.1925 -0.3599  0.0649
  165SOPE   H2X18526   5.864   2.062   9.808  0.5517  0.5484  0.7923
  165SOPE   H2Y18527   5.797   2.224   9.790 -1.7486  0.2671 -1.4473
  165SOPE   C2318528   5.693   2.663   9.946  0.1610 -0.1127 -0.3181
  165SOPE   H3R18529   5.752   2.570   9.926  0.4038 -0.2807  1.0364
  165SOPE   H3S18530   5.763   2.732   9.999 -0.9272 -0.5656  1.8401
  165SOPE   C2418531   5.627   2.751   9.834 -0.5947 -0.0185 -0.0201
  165SOPE   H4R18532   5.553   2.682   9.790 -0.7765 -0.6253  1.1966
  165SOPE   H4S18533   5.578   2.843   9.874  1.1579  1.4835 -1.1425
  165SOPE   C2518534   5.739   2.797   9.734  0.3614  0.5573 -0.5234
  165SOPE   H5R18535   5.797   2.875   9.787  0.1852  0.1933  0.2094
  165SOPE   H5S18536   5.815   2.721   9.707  0.7059  0.5916  0.3204
  165SOPE   C2618537   5.688   2.858   9.607  0.2348 -0.3736 -0.4800
  165SOPE   H6R18538   5.632   2.780   9.551 -0.8000  0.1400 -0.1819
  165SOPE   H6S18539   5.613   2.937   9.630  1.0809  0.6494 -1.1514
  165SOPE   C2718540   5.807   2.915   9.524  0.7237 -0.4615 -0.8686
  165SOPE   H7R18541   5.859   2.988   9.589  2.1898 -3.8782  2.1093
  165SOPE   H7S18542   5.876   2.828   9.515 -0.9336 -1.8934 -0.3513
  165SOPE   C2818543   5.784   2.976   9.389  0.2023 -0.1336  0.5365
  165SOPE   H8R18544   5.745   2.897   9.321 -0.2155  1.2366 -0.8736
  165SOPE   H8S18545   5.704   3.053   9.380  0.4500 -0.1660 -3.6150
  165SOPE   C2918546   5.916   3.023   9.324 -0.4405  0.1645  0.3626
  165SOPE   H9118547   5.948   3.125   9.352 -1.2766  0.5630 -0.1262
  165SOPE  C21018548   5.999   2.944   9.246 -1.0289 -0.4182  0.2505
  165SOPE  H10118549   6.086   2.991   9.199 -0.0608 -2.3761 -0.0229
  165SOPE  C21118550   5.972   2.799   9.210 -0.5994  0.2913  0.3144
  165SOPE  H11R18551   5.916   2.751   9.293 -0.3604 -1.6450 -0.6070
  165SOPE  H11S18552   6.064   2.737   9.200 -1.4680 -1.1929  1.1518
  165SOPE  C21218553   5.892   2.777   9.075 -0.1547  0.5181 -0.4614
  165SOPE  H12R18554   5.802   2.841   9.081 -1.2384 -0.7961 -1.8124
  165SOPE  H12S18555   5.865   2.670   9.063  3.8849 -0.6663 -0.4696
  165SOPE  C21318556   5.975   2.818   8.953 -0.5591  1.0849  0.3888
  165SOPE  H13R18557   6.064   2.752   8.960 -2.5741 -2.0540 -1.1395
  165SOPE  H13S18558   6.009   2.921   8.976  2.1776  0.1291  0.9532
  165SOPE  C21418559   5.924   2.800   8.812  0.6130  0.3646  0.5649
  165SOPE  H14R18560   5.823   2.844   8.804  0.3208 -0.3328  0.3445
  165SOPE  H14S18561   5.916   2.690   8.800 -1.0997  0.3111  1.8576
  165SOPE  C21518562   6.014   2.855   8.705 -0.6464 -0.2528  0.2933
  165SOPE  H15R18563   6.102   2.788   8.698 -1.7872 -1.9336  1.4767
  165SOPE  H15S18564   6.039   2.960   8.732  1.0206 -0.2815 -0.9778
  165SOPE  C21618565   5.952   2.845   8.567 -0.0208  0.2214  0.8275
  165SOPE  H16R18566   5.859   2.905   8.567  0.2202  0.6023 -0.4147
  165SOPE  H16S18567   5.916   2.742   8.548 -0.8857  1.0340 -2.4964
  165SOPE  C21718568   6.030   2.896   8.438  0.1463  0.0576  0.5422
  165SOPE  H17R18569   5.964   2.891   8.349  0.8976  0.3599 -0.0365
  165SOPE  H17S18570   6.108   2.818   8.423 -1.1265 -0.8285 -1.8959
  165SOPE  C21818571   6.089   3.025   8.460 -0.3944 -0.1531  0.0610
  165SOPE  H18R18572   6.023   3.113   8.444  1.2692  0.8819 -1.3932
  165SOPE  H18S18573   6.167   3.035   8.382 -0.8686 -0.1085 -0.4185
  165SOPE  H18T18574   6.133   3.041   8.561  0.0126  0.1254 -0.1585
  165SOPE   C3318575   5.701   2.067   9.652 -0.3367 -0.2429 -0.6414
  165SOPE   H3X18576   5.614   2.134   9.634 -0.9106 -0.7758  0.1016
  165SOPE   H3Y18577   5.672   1.960   9.654  0.8459 -0.5622 -0.0691
  165SOPE   C3418578   5.792   2.075   9.527  0.0545  0.2094  0.0231
  165SOPE   H4X18579   5.869   1.996   9.542 -2.4539 -2.3294  0.4321
  165SOPE   H4Y18580   5.816   2.183   9.526  0.0530  0.2176  0.7119
  165SOPE   C3518581   5.721   2.041   9.390 -0.4286  0.0772  0.2083
  165SOPE   H5X18582   5.631   2.105   9.385 -0.2565  0.2448 -1.1821
  165SOPE   H5Y18583   5.684   1.937   9.391 -0.2870  0.0270  1.0167
  165SOPE   C3618584   5.811   2.058   9.272 -0.2649 -0.2684  0.0987
  165SOPE   H6X18585   5.910   2.012   9.289  0.5204  1.5601  0.7734
  165SOPE   H6Y18586   5.833   2.167   9.260 -0.9001 -0.0175  1.1383
  165SOPE   C3718587   5.753   2.013   9.138 -0.0717  0.1269 -0.4077
  165SOPE   H7X18588   5.663   2.068   9.105  0.4911  0.7491 -0.9305
  165SOPE   H7Y18589   5.721   1.907   9.151 -0.6631  0.4521  1.0381
  165SOPE   C3818590   5.853   2.034   9.029 -0.9772  0.1156 -0.1554
  165SOPE   H8X18591   5.940   1.969   9.053 -1.8186 -0.8072  0.5164
  165SOPE   H8Y18592   5.885   2.140   9.030 -0.9012  0.0938  0.5431
  165SOPE   C3918593   5.790   2.006   8.892 -0.0993 -0.3418 -0.4660
  165SOPE   H9X18594   5.709   2.080   8.871  0.6177  0.2860 -1.0478
  165SOPE   H9Y18595   5.743   1.905   8.895  0.9871 -0.8684 -0.6266
  165SOPE  C31018596   5.886   2.034   8.773 -0.0323  0.5051 -0.0787
  165SOPE  H10X18597   5.978   1.976   8.796 -1.1680 -1.7648 -0.9448
  165SOPE  H10Y18598   5.917   2.140   8.758 -0.7459  0.6007 -0.9648
  165SOPE  C31118599   5.830   1.971   8.645 -0.3689 -0.4493  0.0998
  165SOPE  H11X18600   5.822   1.861   8.656  0.6930 -0.5569 -0.1546
  165SOPE  H11Y18601   5.891   2.003   8.558  0.5009 -0.8582  0.5500
  165SOPE  C31218602   5.699   2.038   8.607  0.2977  0.1201 -0.5290
  165SOPE  H12X18603   5.711   2.146   8.630 -0.4456 -0.0966  0.9871
  165SOPE  H12Y18604   5.619   1.992   8.668 -1.1096  0.4336 -2.0687
  165SOPE  C31318605   5.663   2.022   8.458 -0.4689  0.2076 -0.3836
  165SOPE  H13X18606   5.638   1.917   8.432  2.8166 -0.6737 -0.3358
  165SOPE  H13Y18607   5.750   2.062   8.403  0.4835  1.8046  2.0926
  165SOPE  C31418608   5.526   2.098   8.429  0.5080 -0.3833 -0.6187
  165SOPE  H14X18609   5.535   2.207   8.449 -0.0757 -0.2933 -0.8313
  165SOPE  H14Y18610   5.444   2.065   8.496  0.6406 -0.0402 -0.2816
  165SOPE  C31518611   5.482   2.097   8.282  0.4232 -0.4698 -0.3781
  165SOPE  H15X18612   5.474   1.992   8.246  0.0291 -1.0577  1.3034
  165SOPE  H15Y18613   5.549   2.146   8.209  1.2954  1.1362  1.3947
  165SOPE  C31618614   5.337   2.157   8.267 -0.1460 -0.1941  0.7256
  165SOPE  H16X18615   5.323   2.260   8.308  2.8727  1.2641 -1.4993
  165SOPE  H16Y18616   5.267   2.089   8.319 -0.4654 -2.2090 -2.0989
  165SOPE  C31718617   5.292   2.151   8.118  0.3287 -0.3303 -0.6906
  165SOPE  H17X18618   5.308   2.047   8.082 -1.1565  0.0367 -2.5866
  165SOPE  H17Y18619   5.358   2.222   8.064  0.7423 -1.0726 -1.1891
  165SOPE  C31818620   5.151   2.194   8.091  0.0368 -0.4949  0.7218
  165SOPE  H18X18621   5.068   2.120   8.097 -0.3818 -0.1995 -0.9938
  165SOPE  H18Y18622   5.143   2.227   7.985  1.3142 -3.2256 -0.3149
  165SOPE  H18Z18623   5.123   2.272   8.166 -1.3901 -2.3383  2.1895
  166SOPE     N18624   1.855   5.109  10.717 -0.2219  0.8464 -0.2853
  166SOPE   HN118625   1.797   5.134  10.799  1.8406  1.8854  0.9418
  166SOPE   HN218626   1.827   5.170  10.638 -0.6916  1.5893  0.4432
  166SOPE   HN318627   1.834   5.011  10.688  2.4017  0.1731 -0.1974
  166SOPE   C1218628   2.007   5.108  10.747  0.9819 -0.3129 -0.2353
  166SOPE  H12A18629   2.027   5.200  10.806  1.2322  0.1885 -1.0838
  166SOPE  H12B18630   2.073   5.126  10.659 -0.4970 -0.1625 -1.3634
  166SOPE   C1118631   2.054   4.983  10.821  0.5542  0.4930 -0.7635
  166SOPE  H11A18632   2.017   4.893  10.767 -3.8254  0.2109  2.1886
  166SOPE  H11B18633   1.996   4.973  10.916  2.3753 -4.4680  0.1484
  166SOPE     P18634   2.293   4.912  10.742 -0.5015  0.5785  0.2186
  166SOPE   O1318635   2.393   4.821  10.803 -0.0537 -0.2004 -0.2015
  166SOPE   O1418636   2.348   5.031  10.669  0.0456  0.4546  0.3299
  166SOPE   O1218637   2.192   4.978  10.851 -0.0942  0.6471 -0.6780
  166SOPE   O1118638   2.207   4.823  10.649  0.1214  0.0573 -0.7926
  166SOPE    C118639   2.192   4.682  10.635  0.7785 -0.0434 -1.1232
  166SOPE    HA18640   2.113   4.651  10.708  1.7214  2.1992  1.0069
  166SOPE    HB18641   2.282   4.633  10.677  1.6463  1.3510 -1.2676
  166SOPE    C218642   2.174   4.605  10.493 -0.0121 -0.4942 -0.7980
  166SOPE    HS18643   2.231   4.510  10.501 -0.4930 -0.6823  1.1468
  166SOPE   O2118644   2.225   4.689  10.388  0.3174  0.0434 -0.0461
  166SOPE   C2118645   2.356   4.713  10.387  0.1480  0.2785 -0.0087
  166SOPE   O2218646   2.442   4.677  10.466  0.7072 -0.2697 -0.1185
  166SOPE   C2218647   2.384   4.784  10.258 -0.0260 -0.0469  1.0288
  166SOPE   H2R18648   2.465   4.860  10.266  0.4278 -0.3906 -0.1276
  166SOPE   H2S18649   2.304   4.854  10.224  1.7376  0.2086 -3.2952
  166SOPE    C318650   2.026   4.569  10.471 -0.2221  0.4600  0.1127
  166SOPE    HX18651   1.963   4.654  10.506  0.2788  1.2684 -0.9046
  166SOPE    HY18652   2.005   4.481  10.537  0.0664 -1.2166 -1.9286
  166SOPE   O3118653   2.003   4.527  10.332 -0.0346  0.5330 -0.6691
  166SOPE   C3118654   1.946   4.617  10.256 -0.7442  0.3790 -0.0676
  166SOPE   O3218655   1.924   4.733  10.294 -0.2626  0.1480 -0.2398
  166SOPE   C3218656   1.918   4.555  10.117 -0.2149  0.0212  0.3981
  166SOPE   H2X18657   1.840   4.475  10.121 -1.6502  1.3884  0.4143
  166SOPE   H2Y18658   2.018   4.517  10.085 -0.5861 -0.7105  0.0845
  166SOPE   C2318659   2.415   4.689  10.147  0.4693  0.1858  0.8182
  166SOPE   H3R18660   2.493   4.617  10.177  1.0709  0.1888 -0.6301
  166SOPE   H3S18661   2.446   4.737  10.052  0.2225 -1.9889 -0.4407
  166SOPE   C2418662   2.294   4.610  10.091  0.5185  0.3600  0.2926
  166SOPE   H4R18663   2.254   4.535  10.162 -0.3697  1.3222  0.8327
  166SOPE   H4S18664   2.205   4.673  10.067 -0.4498 -1.4444 -1.1047
  166SOPE   C2518665   2.327   4.548   9.953  0.4392 -0.9253 -0.1485
  166SOPE   H5R18666   2.421   4.492   9.963  1.5981  0.9143 -0.2000
  166SOPE   H5S18667   2.257   4.464   9.937 -1.1612  0.3439 -0.1575
  166SOPE   C2618668   2.314   4.639   9.821  0.8772 -0.2083 -0.4610
  166SOPE   H6R18669   2.216   4.690   9.810  0.9357  0.0088 -0.0035
  166SOPE   H6S18670   2.393   4.716   9.838 -0.2143  0.8086  0.0835
  166SOPE   C2718671   2.328   4.567   9.686  0.0548 -0.7403  1.3154
  166SOPE   H7R18672   2.422   4.507   9.689 -0.9203 -2.3053  2.1802
  166SOPE   H7S18673   2.242   4.497   9.674 -1.8030  1.6475 -0.1641
  166SOPE   C2818674   2.321   4.649   9.552 -0.1097  0.5461  0.1734
  166SOPE   H8R18675   2.225   4.705   9.553 -0.6473 -0.3265 -0.5880
  166SOPE   H8S18676   2.394   4.733   9.558 -1.4067  1.9555 -2.1104
  166SOPE   C2918677   2.330   4.565   9.426 -0.1851 -0.1308 -0.1178
  166SOPE   H9118678   2.313   4.457   9.440 -4.2930  0.3455 -0.5024
  166SOPE  C21018679   2.355   4.619   9.301  0.1805 -0.2956 -0.3848
  166SOPE  H10118680   2.376   4.538   9.231  0.6123 -1.1825  0.7393
  166SOPE  C21118681   2.378   4.760   9.250 -0.1745  0.2174 -0.1469
  166SOPE  H11R18682   2.460   4.756   9.175  1.7626  1.4402  1.7874
  166SOPE  H11S18683   2.404   4.825   9.337 -0.8577 -1.9866  1.8063
  166SOPE  C21218684   2.246   4.813   9.187  0.4199 -0.1936  0.2095
  166SOPE  H12R18685   2.162   4.801   9.258 -0.0874  0.3516 -0.2921
  166SOPE  H12S18686   2.217   4.755   9.096 -2.1980  1.5927 -0.1961
  166SOPE  C21318687   2.249   4.961   9.145  0.1325 -0.4255 -0.8219
  166SOPE  H13R18688   2.346   4.978   9.094  1.5283  1.0349  2.1034
  166SOPE  H13S18689   2.255   5.017   9.240 -1.4796  1.6584 -1.8734
  166SOPE  C21418690   2.131   5.019   9.066 -0.2987 -0.3467 -0.5892
  166SOPE  H14R18691   2.131   5.130   9.067  0.6688 -0.3291 -1.5483
  166SOPE  H14S18692   2.035   4.995   9.117 -0.5219  2.1973  0.3395
  166SOPE  C21518693   2.113   4.971   8.926 -0.1110 -0.7475 -0.1273
  166SOPE  H15R18694   2.108   4.860   8.920  2.4429 -0.9558  0.4709
  166SOPE  H15S18695   2.201   5.003   8.866  0.6043  1.8692  2.1337
  166SOPE  C21618696   1.988   5.026   8.859  0.4069 -0.1855 -0.7862
  166SOPE  H16R18697   1.981   5.136   8.866 -1.4297 -0.4008  2.6646
  166SOPE  H16S18698   1.898   4.985   8.910 -0.4718 -0.7617 -2.7025
  166SOPE  C21718699   1.991   4.995   8.707  0.4161  0.6079  0.2401
  166SOPE  H17R18700   2.070   5.059   8.661  1.3402 -0.8776 -0.3139
  166SOPE  H17S18701   1.901   5.040   8.661  0.7899 -1.0433 -2.3108
  166SOPE  C21818702   2.018   4.852   8.659 -0.0259 -0.1773  0.4133
  166SOPE  H18R18703   2.007   4.832   8.550 -0.8130 -2.0144  0.7708
  166SOPE  H18S18704   1.939   4.792   8.710 -1.5895  1.1343 -0.3829
  166SOPE  H18T18705   2.117   4.814   8.692 -0.3835 -0.7685  0.8305
  166SOPE   C3318706   1.864   4.654  10.008  0.3082  0.2186 -0.2056
  166SOPE   H3X18707   1.930   4.744  10.008  2.5755 -1.3498  0.3145
  166SOPE   H3Y18708   1.757   4.677  10.026  0.2887 -0.4478  0.5529
  166SOPE   C3418709   1.852   4.591   9.872 -0.7891  0.8899 -0.0538
  166SOPE   H4X18710   1.767   4.520   9.880  0.0730 -0.0421  1.2550
  166SOPE   H4Y18711   1.946   4.533   9.859 -0.5738  1.1051  0.5045
  166SOPE   C3518712   1.832   4.678   9.748 -0.2922 -0.3168 -0.0893
  166SOPE   H5X18713   1.901   4.760   9.774  0.1732 -1.0064  0.9357
  166SOPE   H5Y18714   1.728   4.717   9.741  0.2179  1.5552  1.8708
  166SOPE   C3618715   1.875   4.595   9.630  0.1446  0.3505  0.2483
  166SOPE   H6X18716   1.817   4.500   9.631 -0.6009  0.7874  2.2652
  166SOPE   H6Y18717   1.981   4.569   9.651  0.4744  1.1901 -0.3272
  166SOPE   C3718718   1.857   4.654   9.490  0.4884 -0.0310 -0.3544
  166SOPE   H7X18719   1.915   4.749   9.484 -1.9083  1.7100  1.7852
  166SOPE   H7Y18720   1.750   4.679   9.474 -0.2856 -2.9882 -0.3424
  166SOPE   C3818721   1.907   4.563   9.380 -0.6731 -0.1737 -0.0191
  166SOPE   H8X18722   1.858   4.464   9.364  0.7187 -0.9754  0.5018
  166SOPE   H8Y18723   2.017   4.548   9.377 -0.4047  1.6067 -2.8991
  166SOPE   C3918724   1.878   4.629   9.244  0.1162 -1.0163  0.0865
  166SOPE   H9X18725   1.936   4.724   9.240 -2.1998  0.3931 -1.7732
  166SOPE   H9Y18726   1.770   4.652   9.249  0.6725  2.2673 -0.7219
  166SOPE  C31018727   1.919   4.555   9.116  0.0013  1.0350  0.4557
  166SOPE  H10X18728   1.859   4.462   9.116  2.4923 -0.7061  3.3874
  166SOPE  H10Y18729   2.019   4.519   9.144 -1.0660  0.0311  3.2331
  166SOPE  C31118730   1.924   4.643   8.987 -1.0173  0.2111  0.4847
  166SOPE  H11X18731   1.941   4.580   8.896  0.8529  1.5615 -0.1448
  166SOPE  H11Y18732   2.006   4.717   8.991 -0.5391 -0.0622 -2.0670
  166SOPE  C31218733   1.794   4.722   8.954  0.2929 -0.2998  0.2915
  166SOPE  H12X18734   1.796   4.762   8.850  0.8338  3.0279  1.4363
  166SOPE  H12Y18735   1.790   4.810   9.022 -1.6312 -0.6714  0.7259
  166SOPE  C31318736   1.668   4.647   8.953 -0.6198 -0.3625 -0.0558
  166SOPE  H13X18737   1.587   4.721   8.936  1.1810  1.5105 -0.8327
  166SOPE  H13Y18738   1.647   4.597   9.050  1.3162  2.2198  1.8429
  166SOPE  C31418739   1.662   4.530   8.842 -0.1644 -0.2297 -0.1482
  166SOPE  H14X18740   1.568   4.472   8.855 -2.7085  3.6631  0.5157
  166SOPE  H14Y18741   1.748   4.464   8.863  1.5158  0.3717 -4.2915
  166SOPE  C31518742   1.681   4.576   8.697  0.1532  0.3419 -0.1286
  166SOPE  H15X18743   1.668   4.489   8.629 -0.6094  0.8244 -0.6191
  166SOPE  H15Y18744   1.788   4.600   8.683 -0.2111  0.8202 -2.3648
  166SOPE  C31618745   1.580   4.679   8.650 -0.1506 -0.1160  1.0253
  166SOPE  H16X18746   1.610   4.770   8.707  1.5231 -0.1741  0.3038
  166SOPE  H16Y18747   1.473   4.656   8.668 -0.0639 -3.3173 -1.6327
  166SOPE  C31718748   1.598   4.713   8.500  0.1110  0.6390 -0.2049
  166SOPE  H17X18749   1.698   4.760   8.491  0.3205  0.2658  0.1295
  166SOPE  H17Y18750   1.522   4.792   8.482 -1.3816 -1.0819 -1.9595
  166SOPE  C31818751   1.583   4.597   8.402 -0.3549  0.0349 -0.2643
  166SOPE  H18X18752   1.488   4.541   8.417 -1.4160  1.5316 -1.1352
  166SOPE  H18Y18753   1.676   4.538   8.415 -0.8233 -0.6756 -0.0654
  166SOPE  H18Z18754   1.583   4.631   8.296 -0.8239  0.2783 -0.1874
  167SOPE     N18755   4.267   4.273   6.347  0.3414 -0.0214 -0.0603
  167SOPE   HN118756   4.165   4.294   6.340  0.3335  0.0579  0.3038
  167SOPE   HN218757   4.289   4.172   6.334  1.3615 -0.0069  1.3284
  167SOPE   HN318758   4.305   4.308   6.437 -2.2367  0.3318  0.9718
  167SOPE   C1218759   4.325   4.353   6.234 -0.8195  0.3002  0.0234
  167SOPE  H12A18760   4.263   4.336   6.143  0.1550 -0.2380 -0.5621
  167SOPE  H12B18761   4.428   4.314   6.214 -0.4897  1.6502 -1.0830
  167SOPE   C1118762   4.331   4.506   6.266 -0.1910  0.4283 -0.0560
  167SOPE  H11A18763   4.385   4.550   6.180  0.1101 -0.2450 -0.2157
  167SOPE  H11B18764   4.392   4.519   6.358 -0.1184  0.0906 -0.0548
  167SOPE     P18765   4.206   4.726   6.284  0.0486 -0.3221 -0.1639
  167SOPE   O1318766   4.165   4.773   6.148 -0.2611 -0.6751 -0.0862
  167SOPE   O1418767   4.336   4.774   6.340  0.7377  0.2013  0.6601
  167SOPE   O1218768   4.204   4.564   6.287 -0.2181  0.2515 -0.0847
  167SOPE   O1118769   4.089   4.761   6.387  0.4263 -0.4379 -0.1392
  167SOPE    C118770   3.996   4.658   6.427 -0.5255  0.9687  0.4877
  167SOPE    HA18771   4.044   4.576   6.485  0.0967  2.2632  1.8750
  167SOPE    HB18772   3.940   4.620   6.339  2.5660 -3.0599 -0.1048
  167SOPE    C218773   3.883   4.700   6.527  0.2178  0.7714  0.4924
  167SOPE    HS18774   3.805   4.743   6.461 -1.2079 -1.2685  0.7381
  167SOPE   O2118775   3.930   4.797   6.624  0.0703  0.2762 -0.0590
  167SOPE   C2118776   4.018   4.759   6.719 -0.1887  0.6401  0.4878
  167SOPE   O2218777   4.068   4.652   6.721  0.3264  0.2326 -0.2378
  167SOPE   C2218778   4.045   4.863   6.821 -0.2331  0.5614 -0.9689
  167SOPE   H2R18779   3.961   4.935   6.814  0.5045  1.4477 -0.9426
  167SOPE   H2S18780   4.135   4.918   6.786  1.2402 -1.3970 -0.4400
  167SOPE    C318781   3.810   4.571   6.584 -0.1247 -0.3661 -0.4715
  167SOPE    HX18782   3.890   4.508   6.628 -0.2312  0.3803  0.8478
  167SOPE    HY18783   3.776   4.513   6.495  2.9103 -0.9361 -1.3863
  167SOPE   O3118784   3.716   4.616   6.685  0.2694 -0.5425 -0.0536
  167SOPE   C3118785   3.588   4.566   6.687  0.6763  0.0579  1.0666
  167SOPE   O3218786   3.542   4.501   6.594  0.2825  0.1222  0.5001
  167SOPE   C3218787   3.532   4.583   6.826 -0.3000 -0.2769  0.2093
  167SOPE   H2X18788   3.422   4.599   6.824  0.0597  2.6016 -1.0051
  167SOPE   H2Y18789   3.570   4.676   6.871  0.7087 -1.0371  0.9804
  167SOPE   C2318790   4.073   4.816   6.968 -0.0361  0.3722 -0.1084
  167SOPE   H3R18791   4.125   4.904   7.012 -1.9022  2.0066 -1.0105
  167SOPE   H3S18792   4.141   4.730   6.951 -0.9161 -0.2772 -0.4331
  167SOPE   C2418793   3.959   4.760   7.049  0.2464 -0.2920 -0.8528
  167SOPE   H4R18794   3.904   4.845   7.093  0.0349 -1.0662  0.4186
  167SOPE   H4S18795   3.883   4.726   6.975 -0.0020  0.1676 -0.8103
  167SOPE   C2518796   4.005   4.648   7.132  0.7781  1.2423 -0.5492
  167SOPE   H5R18797   4.069   4.574   7.078  0.4276  0.3496  0.2200
  167SOPE   H5S18798   4.067   4.678   7.219  1.5185 -1.7083  0.0619
  167SOPE   C2618799   3.891   4.566   7.186 -0.3353 -0.1599 -0.4910
  167SOPE   H6R18800   3.816   4.627   7.241  0.9134  2.1522 -1.2046
  167SOPE   H6S18801   3.836   4.519   7.102 -0.3942  0.0761 -0.5844
  167SOPE   C2718802   3.954   4.463   7.278  0.1648 -0.1846 -0.2661
  167SOPE   H7R18803   4.015   4.393   7.217  2.0110  1.2914 -0.1902
  167SOPE   H7S18804   4.025   4.503   7.354  0.4196 -2.0102  0.5035
  167SOPE   C2818805   3.837   4.382   7.342 -0.3228  0.1664 -0.6488
  167SOPE   H8R18806   3.777   4.326   7.268 -0.3876 -1.5443  0.6382
  167SOPE   H8S18807   3.895   4.311   7.404 -0.4304  0.4636 -0.2022
  167SOPE   C2918808   3.738   4.465   7.427  0.3233 -0.2533  0.1913
  167SOPE   H9118809   3.679   4.538   7.369 -2.2060 -1.2318  1.3827
  167SOPE  C21018810   3.717   4.446   7.557 -0.5243  0.4516 -0.1177
  167SOPE  H10118811   3.656   4.524   7.606 -0.2966  0.7286 -0.2680
  167SOPE  C21118812   3.789   4.353   7.648  0.5051 -0.1904 -0.1434
  167SOPE  H11R18813   3.870   4.301   7.592 -0.1301 -1.3056 -0.0589
  167SOPE  H11S18814   3.717   4.276   7.684  0.9090  0.0191  1.1949
  167SOPE  C21218815   3.878   4.414   7.755  0.1700  0.5073  0.4520
  167SOPE  H12R18816   3.936   4.495   7.704  1.9515 -1.3346 -0.6066
  167SOPE  H12S18817   3.944   4.330   7.787  1.1173  0.4835 -1.4195
  167SOPE  C21318818   3.807   4.464   7.881 -0.0120 -0.8870  0.1762
  167SOPE  H13R18819   3.717   4.519   7.845  1.9843  3.6471  1.4253
  167SOPE  H13S18820   3.875   4.545   7.914 -0.5964 -0.4766  0.3967
  167SOPE  C21418821   3.774   4.363   7.994 -0.2276 -0.1984 -0.4338
  167SOPE  H14R18822   3.761   4.422   8.087 -1.8463  0.3377 -0.9810
  167SOPE  H14S18823   3.865   4.299   8.000  0.4633  0.8555  1.4780
  167SOPE  C21518824   3.649   4.271   7.977 -0.1721 -0.9422  0.5864
  167SOPE  H15R18825   3.664   4.206   7.888  0.2467 -0.5942  0.3997
  167SOPE  H15S18826   3.562   4.339   7.960  0.1204 -0.2887  1.6643
  167SOPE  C21618827   3.618   4.184   8.099 -0.4453 -0.1499  0.4682
  167SOPE  H16R18828   3.589   4.257   8.178 -0.1409 -1.8373  2.2054
  167SOPE  H16S18829   3.710   4.128   8.124 -0.3870 -0.2934 -0.0516
  167SOPE  C21718830   3.502   4.093   8.072  0.5534  0.6023 -0.5959
  167SOPE  H17R18831   3.516   3.995   8.022 -1.1845 -0.6520  1.2126
  167SOPE  H17S18832   3.424   4.149   8.015 -1.5542  0.9401  2.3747
  167SOPE  C21818833   3.439   4.058   8.207  0.4844 -0.1523 -0.1326
  167SOPE  H18R18834   3.388   4.147   8.249 -1.3787 -2.9389  4.2568
  167SOPE  H18S18835   3.523   4.027   8.273 -0.2972 -0.5948  0.6800
  167SOPE  H18T18836   3.374   3.970   8.186 -0.6387  0.9558 -1.4619
  167SOPE   C3318837   3.576   4.463   6.911 -0.0817 -0.1419 -0.1765
  167SOPE   H3X18838   3.686   4.452   6.928 -0.4981 -0.7513  2.5007
  167SOPE   H3Y18839   3.551   4.375   6.849 -0.2367 -1.2825  1.4469
  167SOPE   C3418840   3.505   4.455   7.050 -0.7282 -0.0254  0.3681
  167SOPE   H4X18841   3.430   4.537   7.050  0.4919  1.2684 -3.3912
  167SOPE   H4Y18842   3.582   4.481   7.126  1.0060  0.4145 -1.4490
  167SOPE   C3518843   3.436   4.325   7.087  0.5088  0.3548 -0.1031
  167SOPE   H5X18844   3.512   4.244   7.082  0.5611  0.4365 -0.8148
  167SOPE   H5Y18845   3.359   4.295   7.012 -1.0177 -0.0252  1.5472
  167SOPE   C3618846   3.374   4.331   7.227  0.4387 -0.6571 -0.1949
  167SOPE   H6X18847   3.335   4.435   7.229 -0.2459 -0.8873  2.3013
  167SOPE   H6Y18848   3.446   4.311   7.309  0.6269  2.9099  0.6451
  167SOPE   C3718849   3.250   4.241   7.236  0.3209 -0.1862 -0.1140
  167SOPE   H7X18850   3.272   4.138   7.201  1.4038 -0.8541  2.3297
  167SOPE   H7Y18851   3.175   4.292   7.172  2.3170  1.7491 -1.0417
  167SOPE   C3818852   3.188   4.222   7.376 -0.0807  0.1266  0.2901
  167SOPE   H8X18853   3.087   4.176   7.366  0.6859 -1.8104  0.9090
  167SOPE   H8Y18854   3.177   4.323   7.420  1.7792  0.3990  0.1753
  167SOPE   C3918855   3.273   4.126   7.463 -0.4206 -0.2386  0.0241
  167SOPE   H9X18856   3.382   4.131   7.486 -0.9267 -1.3166  3.1981
  167SOPE   H9Y18857   3.281   4.028   7.412 -0.7427 -2.0971  3.2326
  167SOPE  C31018858   3.220   4.116   7.608  0.4346 -0.3546 -0.1380
  167SOPE  H10X18859   3.287   4.039   7.653  0.1136 -0.9345 -0.6371
  167SOPE  H10Y18860   3.115   4.079   7.606  0.7903 -1.4008 -0.2667
  167SOPE  C31118861   3.244   4.243   7.686 -0.8227  0.3984  0.1353
  167SOPE  H11X18862   3.188   4.329   7.646 -1.2874 -0.4687 -1.1304
  167SOPE  H11Y18863   3.351   4.268   7.701 -1.1051  0.1306  3.5700
  167SOPE  C31218864   3.184   4.215   7.829 -1.3110 -0.3635 -0.0637
  167SOPE  H12X18865   3.253   4.147   7.884  0.0313 -0.0672 -1.2940
  167SOPE  H12Y18866   3.086   4.164   7.817 -2.0298  1.2652 -1.6276
  167SOPE  C31318867   3.166   4.349   7.899 -0.6943  0.7728 -0.2537
  167SOPE  H13X18868   3.109   4.423   7.839  0.8065  0.7972 -1.7316
  167SOPE  H13Y18869   3.259   4.409   7.906  0.4888 -1.1847  2.0760
  167SOPE  C31418870   3.126   4.347   8.049  0.2074 -0.3469  0.0131
  167SOPE  H14X18871   3.097   4.450   8.077 -0.4436  0.4592 -3.1993
  167SOPE  H14Y18872   3.208   4.308   8.113  1.2174 -0.7283 -1.4562
  167SOPE  C31518873   3.004   4.249   8.081  0.5137  0.8420  0.0252
  167SOPE  H15X18874   3.042   4.145   8.065  2.4018  1.4659  0.1925
  167SOPE  H15Y18875   2.909   4.253   8.023  0.6856 -1.4356 -0.5284
  167SOPE  C31618876   2.961   4.241   8.231 -0.4396 -0.1305  0.1047
  167SOPE  H16X18877   2.915   4.338   8.262  1.2187  0.1983  1.6967
  167SOPE  H16Y18878   3.040   4.218   8.306 -1.1669 -0.9504  0.6433
  167SOPE  C31718879   2.856   4.127   8.253  0.8412 -0.1742 -0.2722
  167SOPE  H17X18880   2.919   4.035   8.246  3.1412  1.3731 -1.0267
  167SOPE  H17Y18881   2.782   4.130   8.170 -0.5685  2.1759  0.9542
  167SOPE  C31818882   2.786   4.135   8.394  0.7988  0.0131 -0.2323
  167SOPE  H18X18883   2.742   4.040   8.433 -0.4304 -0.3059 -2.2253
  167SOPE  H18Y18884   2.704   4.208   8.376 -1.4958 -2.2402  0.3630
  167SOPE  H18Z18885   2.848   4.175   8.477 -0.8591 -0.7055  1.4230
  168SOPE     N18886   6.655   5.664   6.138 -0.4368  1.0833 -0.2738
  168SOPE   HN118887   6.712   5.722   6.074  0.7043  3.9851  3.0277
  168SOPE   HN218888   6.556   5.658   6.106  0.0851 -1.8256 -1.7004
  168SOPE   HN318889   6.656   5.709   6.232  2.4489  1.2108 -0.2741
  168SOPE   C1218890   6.716   5.526   6.147 -0.1905  0.2848  0.3688
  168SOPE  H12A18891   6.787   5.522   6.061 -1.8543 -0.2817 -1.0233
  168SOPE  H12B18892   6.644   5.447   6.118  2.7213 -2.8602  1.1236
  168SOPE   C1118893   6.802   5.494   6.269 -0.3916 -0.0945  0.3865
  168SOPE  H11A18894   6.886   5.567   6.268  0.4775 -1.0573 -1.6894
  168SOPE  H11B18895   6.851   5.395   6.261  1.4345  0.9382 -3.4507
  168SOPE     P18896   6.634   5.390   6.430  0.3578  0.1423 -0.1317
  168SOPE   O1318897   6.693   5.266   6.384  0.6934 -0.1285 -0.1270
  168SOPE   O1418898   6.489   5.422   6.399 -0.1731 -0.2262 -0.3622
  168SOPE   O1218899   6.728   5.509   6.390 -0.3039  0.0727 -0.1808
  168SOPE   O1118900   6.648   5.392   6.586 -0.5254  0.2739  0.0753
  168SOPE    C118901   6.752   5.468   6.661  0.8083  0.1131  0.0001
  168SOPE    HA18902   6.719   5.573   6.648  0.5371  0.0779  0.3849
  168SOPE    HB18903   6.850   5.465   6.610  0.4905 -0.8235 -0.5906
  168SOPE    C218904   6.752   5.443   6.812  0.2879 -0.0928 -1.3690
  168SOPE    HS18905   6.824   5.514   6.858 -0.8199 -0.2569  0.7667
  168SOPE   O2118906   6.781   5.311   6.849 -0.1238  0.8707 -0.2847
  168SOPE   C2118907   6.896   5.258   6.822 -0.9839  0.3077  0.4318
  168SOPE   O2218908   6.996   5.316   6.779 -0.0031 -0.1122 -0.3140
  168SOPE   C2218909   6.895   5.108   6.840  0.1366 -0.2087 -0.8026
  168SOPE   H2R18910   6.999   5.075   6.819  0.5599  1.6101 -1.7410
  168SOPE   H2S18911   6.826   5.071   6.761  0.7797 -2.2517 -0.4796
  168SOPE    C318912   6.605   5.489   6.864  0.0833  0.3397  0.1253
  168SOPE    HX18913   6.538   5.422   6.806  0.7884 -0.7955  0.6004
  168SOPE    HY18914   6.606   5.594   6.826  0.5181  0.5945  0.8216
  168SOPE   O3118915   6.598   5.471   7.009  0.1054 -0.1341 -0.3380
  168SOPE   C3118916   6.534   5.367   7.050 -0.2211 -0.0857  0.5782
  168SOPE   O3218917   6.475   5.279   6.988  0.1261 -0.0506 -0.3412
  168SOPE   C3218918   6.559   5.366   7.201  0.0347 -0.7507 -0.8287
  168SOPE   H2X18919   6.670   5.363   7.206  0.0662 -0.6854 -1.5027
  168SOPE   H2Y18920   6.503   5.282   7.247  1.7381 -0.5041  1.9865
  168SOPE   C2318921   6.838   5.060   6.972 -0.4520  0.8204 -0.5023
  168SOPE   H3R18922   6.852   4.950   6.976  1.0170  0.9935 -0.4030
  168SOPE   H3S18923   6.728   5.066   6.983 -0.6015 -1.0750 -0.6795
  168SOPE   C2418924   6.912   5.114   7.095 -0.3371 -0.0203  0.0649
  168SOPE   H4R18925   7.019   5.083   7.090  0.1086  1.5783 -0.7051
  168SOPE   H4S18926   6.907   5.225   7.096  0.2943  0.0620 -2.0093
  168SOPE   C2518927   6.849   5.048   7.219 -0.0532 -0.3775  0.5356
  168SOPE   H5R18928   6.739   5.064   7.217  0.2451  1.8427 -0.9224
  168SOPE   H5S18929   6.874   4.942   7.197  2.0293  0.9194 -5.0479
  168SOPE   C2618930   6.903   5.094   7.356 -0.3757 -0.0987 -0.0332
  168SOPE   H6R18931   7.014   5.103   7.358 -0.4776  2.3543 -1.2830
  168SOPE   H6S18932   6.867   5.194   7.388  1.3835  1.0271 -1.3944
  168SOPE   C2718933   6.858   4.998   7.468 -0.4871 -1.0216  0.1524
  168SOPE   H7R18934   6.913   4.903   7.448  0.2309 -0.7536  0.7771
  168SOPE   H7S18935   6.913   5.025   7.560 -0.7128 -0.7772  0.2158
  168SOPE   C2818936   6.705   4.983   7.491  0.5283 -0.0505  0.1772
  168SOPE   H8R18937   6.675   5.088   7.510 -0.0651 -0.4709  1.6892
  168SOPE   H8S18938   6.665   4.949   7.393  2.1138 -3.6223  0.6081
  168SOPE   C2918939   6.674   4.885   7.599 -0.7883  0.9842  0.0433
  168SOPE   H9118940   6.725   4.788   7.597 -0.8618  0.9453  0.0476
  168SOPE  C21018941   6.597   4.908   7.703 -0.0092 -0.2688 -0.5107
  168SOPE  H10118942   6.597   4.836   7.786 -0.0550  0.3353  0.0262
  168SOPE  C21118943   6.520   5.031   7.738  0.2250  0.4301 -0.7581
  168SOPE  H11R18944   6.420   4.996   7.769 -0.0748 -1.5606 -3.5926
  168SOPE  H11S18945   6.493   5.104   7.658 -4.0428 -0.6421 -0.5030
  168SOPE  C21218946   6.582   5.100   7.865 -0.8268 -0.1025  0.2753
  168SOPE  H12R18947   6.601   5.014   7.933  1.5839  1.3750  1.6026
  168SOPE  H12S18948   6.513   5.174   7.911 -0.3946 -0.5508  1.7106
  168SOPE  C21318949   6.710   5.178   7.825 -0.3889  0.5481 -0.0904
  168SOPE  H13R18950   6.687   5.277   7.779  0.2077  0.1636 -1.2476
  168SOPE  H13S18951   6.773   5.126   7.750 -2.3090 -0.5860 -0.9915
  168SOPE  C21418952   6.794   5.208   7.951 -0.1630 -0.1504 -0.0808
  168SOPE  H14R18953   6.798   5.116   8.013 -2.2336  0.1248  0.5140
  168SOPE  H14S18954   6.743   5.285   8.013 -2.3348 -0.5553 -1.2627
  168SOPE  C21518955   6.932   5.240   7.904  0.6844 -0.0216 -0.5512
  168SOPE  H15R18956   6.924   5.338   7.852 -0.2038  0.6157  0.7379
  168SOPE  H15S18957   6.970   5.166   7.830  0.8352 -1.5470  0.9845
  168SOPE  C21618958   7.047   5.243   8.017  0.8848 -0.0017  0.0812
  168SOPE  H16R18959   7.145   5.221   7.971  0.6066 -0.3987 -0.3315
  168SOPE  H16S18960   7.025   5.162   8.089 -1.2006  1.0260  0.6954
  168SOPE  C21718961   7.078   5.381   8.087 -0.5731 -0.2476  0.1626
  168SOPE  H17R18962   7.149   5.437   8.022 -1.3088 -0.9391 -1.3054
  168SOPE  H17S18963   7.142   5.367   8.177 -0.0773  1.2824  0.0827
  168SOPE  C21818964   6.964   5.472   8.127 -0.1312 -1.0444 -0.0605
  168SOPE  H18R18965   6.989   5.580   8.135 -1.7502 -0.7399  1.4986
  168SOPE  H18S18966   6.912   5.448   8.222  0.5422  1.3531  0.9868
  168SOPE  H18T18967   6.885   5.465   8.048 -0.5668 -2.8755  0.4862
  168SOPE   C3318968   6.490   5.497   7.259 -0.2138 -0.1727 -0.0058
  168SOPE   H3X18969   6.382   5.494   7.236 -0.5338  0.9676  1.2584
  168SOPE   H3Y18970   6.537   5.580   7.202  2.3449  0.3981  2.6767
  168SOPE   C3418971   6.513   5.521   7.406 -0.0038  0.3342 -0.1554
  168SOPE   H4X18972   6.495   5.626   7.440 -1.4453  0.2901 -0.7325
  168SOPE   H4Y18973   6.621   5.502   7.422  0.1150  0.2272 -1.0783
  168SOPE   C3518974   6.420   5.419   7.494 -0.6049 -0.0217  0.3906
  168SOPE   H5X18975   6.436   5.317   7.454 -1.1288  0.3773 -0.9196
  168SOPE   H5Y18976   6.317   5.441   7.459 -0.8519 -0.2322  0.9772
  168SOPE   C3618977   6.440   5.408   7.645  0.0479 -0.2853 -0.5872
  168SOPE   H6X18978   6.522   5.336   7.667 -0.1762 -0.8618 -1.5771
  168SOPE   H6Y18979   6.343   5.381   7.693  0.0919  1.0354  0.2985
  168SOPE   C3718980   6.479   5.543   7.703 -0.5946 -0.2586  0.4500
  168SOPE   H7X18981   6.402   5.620   7.681  1.9950  2.1524 -0.8280
  168SOPE   H7Y18982   6.567   5.585   7.650 -1.5399  0.6253 -0.4709
  168SOPE   C3818983   6.503   5.547   7.859 -0.0248  0.1467 -0.0084
  168SOPE   H8X18984   6.514   5.653   7.887 -1.1185  0.1859  0.3359
  168SOPE   H8Y18985   6.591   5.491   7.897  0.1430  1.0015  0.9003
  168SOPE   C3918986   6.387   5.485   7.951 -0.5971  1.1097 -0.4377
  168SOPE   H9X18987   6.421   5.497   8.056  0.7615  1.0204 -0.8398
  168SOPE   H9Y18988   6.375   5.375   7.946  0.0704  1.0205 -0.1664
  168SOPE  C31018989   6.250   5.557   7.948  0.8822  0.7631  0.6757
  168SOPE  H10X18990   6.197   5.531   7.854 -0.2772  1.3959  1.1336
  168SOPE  H10Y18991   6.281   5.664   7.944  0.5103  0.9975  2.6549
  168SOPE  C31118992   6.161   5.543   8.076 -0.0406  0.8546  0.3171
  168SOPE  H11X18993   6.078   5.616   8.078 -0.0506  0.8425  0.3395
  168SOPE  H11Y18994   6.214   5.571   8.169  1.2226  0.6959 -0.3286
  168SOPE  C31218995   6.119   5.390   8.091 -0.3779  0.1588  0.6096
  168SOPE  H12X18996   6.143   5.343   7.993  0.0420 -0.8191  1.1597
  168SOPE  H12Y18997   6.011   5.382   8.118 -1.3335  0.9063 -2.5958
  168SOPE  C31318998   6.190   5.309   8.195  0.0303  0.1129 -0.5385
  168SOPE  H13X18999   6.160   5.356   8.292  0.0565  0.8523 -0.8807
  168SOPE  H13Y19000   6.301   5.312   8.187  0.0341  0.0352 -0.5157
  168SOPE  C31419001   6.150   5.160   8.213 -0.0057  0.0664  0.7310
  168SOPE  H14X19002   6.165   5.097   8.123 -1.1186  2.4689 -1.2684
  168SOPE  H14Y19003   6.044   5.158   8.248 -0.0619  2.6662  0.9098
  168SOPE  C31519004   6.230   5.101   8.334 -0.0031  0.3046 -0.6813
  168SOPE  H15X19005   6.202   5.165   8.420  2.4248 -0.4421  0.7503
  168SOPE  H15Y19006   6.339   5.122   8.326  0.6376 -1.9858  1.0556
  168SOPE  C31619007   6.202   4.951   8.368 -0.1435 -0.3406  0.2366
  168SOPE  H16X19008   6.228   4.880   8.287  1.6757  0.1663  0.3176
  168SOPE  H16Y19009   6.091   4.944   8.370 -0.4304  2.5469 -0.6210
  168SOPE  C31719010   6.250   4.903   8.503 -0.3682  0.4551 -0.1928
  168SOPE  H17X19011   6.360   4.915   8.493 -0.0411 -0.3031  1.9169
  168SOPE  H17Y19012   6.242   4.792   8.508  1.9931  0.1857 -1.1674
  168SOPE  C31819013   6.190   4.981   8.627  0.0609  0.7046 -0.7851
  168SOPE  H18X19014   6.194   4.918   8.719  0.8407  1.8680 -0.0006
  168SOPE  H18Y19015   6.083   5.007   8.611 -0.8944 -1.0903  1.8629
  168SOPE  H18Z19016   6.256   5.069   8.640 -0.5901  1.4627 -2.3623
  169SOPE     N19017   4.538   4.834   6.520 -0.3903 -0.5617  0.3616
  169SOPE   HN119018   4.475   4.791   6.449  0.6498 -1.2936 -0.1492
  169SOPE   HN219019   4.548   4.936   6.501 -0.0622 -1.0414 -2.5488
  169SOPE   HN319020   4.630   4.788   6.501  1.0414  1.3779  2.1466
  169SOPE   C1219021   4.484   4.800   6.654 -0.2940 -0.1183  0.4716
  169SOPE  H12A19022   4.405   4.874   6.679 -1.1078 -0.0747 -1.9590
  169SOPE  H12B19023   4.573   4.813   6.719  0.8061 -0.1190 -0.9945
  169SOPE   C1119024   4.434   4.656   6.664 -0.1539  0.4568  0.7443
  169SOPE  H11A19025   4.349   4.646   6.594  1.0131 -1.1567 -0.5326
  169SOPE  H11B19026   4.407   4.630   6.768 -1.1523 -1.8335 -0.0191
  169SOPE     P19027   4.508   4.404   6.633 -0.1018 -0.1189  0.0289
  169SOPE   O1319028   4.620   4.335   6.569 -0.4561 -0.1278  0.4772
  169SOPE   O1419029   4.373   4.374   6.578 -0.0603  0.2380  0.3275
  169SOPE   O1219030   4.533   4.562   6.621 -0.3169  0.0732 -0.4870
  169SOPE   O1119031   4.514   4.378   6.788 -0.1976  0.0766  0.0555
  169SOPE    C119032   4.399   4.344   6.867  0.1888 -0.3186 -0.1390
  169SOPE    HA19033   4.375   4.235   6.865 -3.1713  0.3347 -1.2835
  169SOPE    HB19034   4.308   4.394   6.827  1.3429  0.9239 -1.3020
  169SOPE    C219035   4.438   4.381   7.013  0.5125 -0.2875  1.1339
  169SOPE    HS19036   4.519   4.456   6.999 -2.6291  3.0119 -0.9198
  169SOPE   O2119037   4.466   4.265   7.094 -0.2875 -0.3396 -0.5890
  169SOPE   C2119038   4.564   4.274   7.194 -0.0192  0.0303  0.3984
  169SOPE   O2219039   4.649   4.361   7.197 -0.1029 -0.4192 -0.7121
  169SOPE   C2219040   4.526   4.164   7.295  0.2453  0.4747 -0.3659
  169SOPE   H2R19041   4.536   4.070   7.238  2.4896 -0.2798  1.1442
  169SOPE   H2S19042   4.417   4.182   7.311 -0.2977  0.3774 -3.3049
  169SOPE    C319043   4.311   4.451   7.070 -0.8141  0.3866 -0.1233
  169SOPE    HX19044   4.221   4.386   7.080 -0.4957  0.0746  0.7915
  169SOPE    HY19045   4.277   4.527   6.995 -1.1939 -0.8205 -1.2151
  169SOPE   O3119046   4.340   4.513   7.199  0.4841 -0.3234  0.6697
  169SOPE   C3119047   4.406   4.630   7.187 -0.0902 -0.1414  0.3243
  169SOPE   O3219048   4.421   4.694   7.082 -0.3903 -0.0533  0.3102
  169SOPE   C3219049   4.436   4.680   7.324  0.0768 -0.4148  0.9799
  169SOPE   H2X19050   4.427   4.791   7.317  0.0828 -0.5219 -1.2598
  169SOPE   H2Y19051   4.545   4.664   7.337  0.0213 -1.7043  0.0118
  169SOPE   C2319052   4.604   4.160   7.430 -0.1604 -0.2143 -0.5753
  169SOPE   H3R19053   4.587   4.254   7.487  0.7757 -1.3464  1.7022
  169SOPE   H3S19054   4.714   4.146   7.421 -0.1810 -0.4775 -0.4231
  169SOPE   C2419055   4.560   4.047   7.518 -0.2793  0.7269 -0.5880
  169SOPE   H4R19056   4.452   4.046   7.542 -0.9684  2.6356 -3.1362
  169SOPE   H4S19057   4.588   3.951   7.469 -0.5131 -0.1803  0.9864
  169SOPE   C2519058   4.638   4.050   7.657  0.0256  0.1270 -0.0101
  169SOPE   H5R19059   4.605   3.958   7.711 -0.2437  0.8922  1.1474
  169SOPE   H5S19060   4.749   4.049   7.647 -0.0173 -2.1604 -1.0705
  169SOPE   C2619061   4.609   4.172   7.749  0.1324  0.1109 -0.0369
  169SOPE   H6R19062   4.667   4.256   7.707  1.6862 -1.0971 -0.4247
  169SOPE   H6S19063   4.503   4.203   7.735  0.4037  0.4403 -1.4767
  169SOPE   C2719064   4.619   4.156   7.898  0.4042  0.4653  0.2779
  169SOPE   H7R19065   4.539   4.083   7.923  1.0802 -0.6800 -0.8078
  169SOPE   H7S19066   4.718   4.110   7.919  0.6397 -0.4504 -2.4540
  169SOPE   C2819067   4.593   4.281   7.985 -0.3416 -0.7423 -0.1066
  169SOPE   H8R19068   4.685   4.343   7.971  0.5438 -1.4323  2.1389
  169SOPE   H8S19069   4.505   4.343   7.959  1.7574  2.2578 -0.6481
  169SOPE   C2919070   4.586   4.240   8.129 -0.5946 -0.0510  0.0642
  169SOPE   H9119071   4.487   4.200   8.156 -0.5884 -1.4242 -1.7830
  169SOPE  C21019072   4.687   4.214   8.218 -0.1560 -0.4571 -0.1396
  169SOPE  H10119073   4.664   4.188   8.322  1.1219 -2.5941 -0.3161
  169SOPE  C21119074   4.828   4.242   8.193  0.3495 -0.1240  0.4111
  169SOPE  H11R19075   4.853   4.224   8.086 -1.0357 -1.7581  0.3048
  169SOPE  H11S19076   4.896   4.167   8.239 -0.9333 -1.7586 -0.2099
  169SOPE  C21219077   4.881   4.377   8.233  0.4402 -0.1678 -0.1102
  169SOPE  H12R19078   4.898   4.383   8.343  1.0825  2.1253 -0.2882
  169SOPE  H12S19079   4.816   4.457   8.193  0.5292 -0.0633 -0.0469
  169SOPE  C21319080   5.012   4.414   8.169 -1.3783 -0.0000  0.3400
  169SOPE  H13R19081   4.991   4.439   8.063  2.4227  0.8920 -0.3222
  169SOPE  H13S19082   5.082   4.328   8.167 -1.2985  0.0794 -0.3583
  169SOPE  C21419083   5.090   4.533   8.237  0.2518  1.2765 -0.3961
  169SOPE  H14R19084   5.015   4.615   8.244 -3.4943 -1.9705  2.4640
  169SOPE  H14S19085   5.174   4.562   8.171  0.2280  1.0215 -0.5423
  169SOPE  C21519086   5.152   4.480   8.365 -0.5024 -0.4068  0.4077
  169SOPE  H15R19087   5.230   4.406   8.335  0.0426  0.6305 -0.8559
  169SOPE  H15S19088   5.080   4.428   8.431  0.5279 -0.8127  1.2351
  169SOPE  C21619089   5.222   4.599   8.433  0.2067  0.6156 -0.0915
  169SOPE  H16R19090   5.272   4.556   8.523 -1.1435  3.7526  2.3486
  169SOPE  H16S19091   5.136   4.657   8.473 -0.4408  0.4958 -1.2681
  169SOPE  C21719092   5.322   4.690   8.347  0.1503  0.6001  0.1677
  169SOPE  H17R19093   5.260   4.751   8.279 -1.4121  1.9144  2.6173
  169SOPE  H17S19094   5.370   4.611   8.285  0.5911  0.5879  0.5241
  169SOPE  C21819095   5.414   4.786   8.418 -0.1249 -0.3786 -0.7441
  169SOPE  H18R19096   5.433   4.741   8.517  0.2281  0.2557 -0.5201
  169SOPE  H18S19097   5.371   4.887   8.440 -3.1157 -1.8289  0.6460
  169SOPE  H18T19098   5.511   4.800   8.366 -0.8898  3.6308 -1.4479
  169SOPE   C3319099   4.341   4.630   7.432  0.1036 -0.3480 -0.7165
  169SOPE   H3X19100   4.343   4.520   7.444 -1.6264 -0.4239 -0.9202
  169SOPE   H3Y19101   4.239   4.666   7.406  0.2552 -0.0770 -0.9450
  169SOPE   C3419102   4.370   4.700   7.563 -0.1316  0.0517  0.1489
  169SOPE   H4X19103   4.365   4.811   7.555  3.3564  0.2348 -0.8944
  169SOPE   H4Y19104   4.473   4.678   7.597 -0.9129 -0.7086  2.1958
  169SOPE   C3519105   4.281   4.649   7.668 -0.0269 -0.0435 -0.2399
  169SOPE   H5X19106   4.174   4.641   7.639 -0.8170  2.7798  1.5414
  169SOPE   H5Y19107   4.278   4.723   7.751 -1.4885 -1.9940  1.5866
  169SOPE   C3619108   4.318   4.520   7.738 -0.6381 -0.5190 -0.1115
  169SOPE   H6X19109   4.428   4.512   7.748 -0.4182  1.6065 -0.3215
  169SOPE   H6Y19110   4.278   4.440   7.672  0.4934  0.0639 -1.5719
  169SOPE   C3719111   4.267   4.492   7.881  0.2326 -0.0783  0.9093
  169SOPE   H7X19112   4.286   4.386   7.907  1.8005 -0.6090 -1.9544
  169SOPE   H7Y19113   4.160   4.524   7.880  0.4150  0.9799  4.1517
  169SOPE   C3819114   4.332   4.591   7.983  0.7537  0.5858 -0.0382
  169SOPE   H8X19115   4.440   4.570   7.967  0.3949  0.0901 -2.0663
  169SOPE   H8Y19116   4.298   4.686   7.937  0.8732  0.1022 -1.1509
  169SOPE   C3919117   4.284   4.578   8.130  0.3892 -0.3241  0.1807
  169SOPE   H9X19118   4.342   4.646   8.197  0.6784  0.3657 -0.7471
  169SOPE   H9Y19119   4.297   4.474   8.165 -0.3887  0.0376  1.6846
  169SOPE  C31019120   4.140   4.620   8.150 -0.4142  0.0216 -0.1187
  169SOPE  H10X19121   4.075   4.555   8.087 -0.1217  0.5965 -1.0357
  169SOPE  H10Y19122   4.125   4.728   8.128 -1.7577  0.2104  1.5648
  169SOPE  C31119123   4.102   4.609   8.300  1.1747 -0.1787  0.3317
  169SOPE  H11X19124   4.134   4.705   8.344 -2.1841  1.9697 -1.4647
  169SOPE  H11Y19125   4.159   4.523   8.341 -0.7124 -2.2951 -1.1689
  169SOPE  C31219126   3.955   4.575   8.323  0.1117 -0.1500  1.0033
  169SOPE  H12X19127   3.931   4.478   8.276 -0.7881  1.4723 -2.1498
  169SOPE  H12Y19128   3.898   4.652   8.266 -1.5232 -0.0199  2.6834
  169SOPE  C31319129   3.905   4.589   8.469 -0.9201  0.3931  0.6509
  169SOPE  H13X19130   3.944   4.682   8.515 -0.0166 -1.0262  2.9365
  169SOPE  H13Y19131   3.954   4.505   8.523 -0.5194  0.8327  0.9853
  169SOPE  C31419132   3.753   4.593   8.481  0.4819 -0.1493  0.7377
  169SOPE  H14X19133   3.717   4.494   8.446  1.2439  0.2453 -1.2665
  169SOPE  H14Y19134   3.705   4.673   8.420  0.0884 -0.5489  0.5245
  169SOPE  C31519135   3.713   4.611   8.627  0.2328  0.9830  0.3262
  169SOPE  H15X19136   3.747   4.705   8.674  1.6448  0.1242  1.0920
  169SOPE  H15Y19137   3.761   4.535   8.693 -0.3405  0.4115  0.0962
  169SOPE  C31619138   3.562   4.588   8.643 -0.0354  0.2861  0.0174
  169SOPE  H16X19139   3.528   4.512   8.570 -1.7407  0.5512  0.5011
  169SOPE  H16Y19140   3.517   4.685   8.612 -0.8225  0.0623  0.4410
  169SOPE  C31719141   3.525   4.544   8.788  0.6213 -1.0406 -0.2096
  169SOPE  H17X19142   3.572   4.610   8.863  1.2876 -2.1529  0.3807
  169SOPE  H17Y19143   3.557   4.440   8.810 -0.6941 -1.0321  2.0894
  169SOPE  C31819144   3.370   4.547   8.810 -0.0719  0.4675  0.4749
  169SOPE  H18X19145   3.322   4.471   8.744  0.0733  0.0640  0.8283
  169SOPE  H18Y19146   3.336   4.651   8.791  0.6590  1.0772  2.3247
  169SOPE  H18Z19147   3.338   4.509   8.909  0.7162 -1.2453  0.1091
  170SOPE     N19148   4.155   5.068   6.136 -0.0846  0.3338  0.0926
  170SOPE   HN119149   4.100   5.102   6.054  0.7703  1.9193  0.1267
  170SOPE   HN219150   4.256   5.074   6.112  0.5275 -0.0729  2.3060
  170SOPE   HN319151   4.133   4.967   6.140  2.0142 -0.1498  0.4204
  170SOPE   C1219152   4.133   5.167   6.255 -0.0919  0.3159  0.2201
  170SOPE  H12A19153   4.028   5.160   6.290  0.8936  0.3644  3.5205
  170SOPE  H12B19154   4.174   5.260   6.210  2.3883 -1.6391 -1.8998
  170SOPE   C1119155   4.225   5.136   6.373 -0.1489  0.1527  0.4034
  170SOPE  H11A19156   4.211   5.031   6.407 -0.3090 -0.5720 -1.7386
  170SOPE  H11B19157   4.186   5.199   6.456 -0.0881  1.7644 -0.7292
  170SOPE     P19158   4.475   5.202   6.440  0.2756  0.6228  0.1857
  170SOPE   O1319159   4.532   5.331   6.393  0.5827 -0.5000 -0.0088
  170SOPE   O1419160   4.570   5.086   6.452  0.4618 -0.3955  0.0956
  170SOPE   O1219161   4.366   5.152   6.342 -0.4311  0.1490  0.4684
  170SOPE   O1119162   4.389   5.224   6.572  0.5075  0.3553 -0.0162
  170SOPE    C119163   4.444   5.305   6.681 -0.3797 -0.8092 -0.0390
  170SOPE    HA19164   4.459   5.414   6.662 -0.7617 -0.2215  2.6353
  170SOPE    HB19165   4.544   5.275   6.717 -1.3728 -2.1248  1.8010
  170SOPE    C219166   4.356   5.301   6.811  0.6212 -0.5990  0.2100
  170SOPE    HS19167   4.385   5.388   6.874 -1.7577  0.9845 -0.7291
  170SOPE   O2119168   4.374   5.175   6.875 -0.1716  0.4966 -0.0226
  170SOPE   C2119169   4.494   5.166   6.940  0.5800  0.1816 -0.3823
  170SOPE   O2219170   4.570   5.257   6.953  0.1134  0.0192 -0.0950
  170SOPE   C2219171   4.498   5.031   7.019 -0.3237 -0.7682  0.5169
  170SOPE   H2R19172   4.595   4.980   7.004  0.6052  0.8278  0.7826
  170SOPE   H2S19173   4.442   4.957   6.958 -0.1277  0.0111 -0.6492
  170SOPE    C319174   4.205   5.330   6.772 -0.1580  0.3068  0.0137
  170SOPE    HX19175   4.146   5.241   6.740  1.1517 -0.3808 -0.6059
  170SOPE    HY19176   4.194   5.397   6.684 -2.0806 -0.4603 -0.3735
  170SOPE   O3119177   4.141   5.387   6.885  0.2361 -0.1681  0.1975
  170SOPE   C3119178   4.147   5.520   6.896  0.5320 -0.3960 -0.4992
  170SOPE   O3219179   4.204   5.598   6.821 -0.3907 -0.0722  0.1763
  170SOPE   C3219180   4.078   5.570   7.025  0.0947  0.4453 -0.0758
  170SOPE   H2X19181   3.971   5.553   7.001 -0.2591  1.0450  1.0051
  170SOPE   H2Y19182   4.102   5.678   7.037 -0.8597  0.6896 -0.2695
  170SOPE   C2319183   4.462   5.047   7.161  0.1019 -0.1014 -0.0610
  170SOPE   H3R19184   4.504   5.137   7.210  0.2602 -0.6667  0.8668
  170SOPE   H3S19185   4.497   4.957   7.217 -1.1632  0.5537  1.8732
  170SOPE   C2419186   4.306   5.053   7.180  0.1833 -0.0718 -0.5336
  170SOPE   H4R19187   4.266   5.151   7.147 -0.5596  0.0479  0.6618
  170SOPE   H4S19188   4.255   4.971   7.123 -0.3591 -2.0640  2.5970
  170SOPE   C2519189   4.264   5.050   7.324 -0.1983  0.7058 -0.1430
  170SOPE   H5R19190   4.331   4.975   7.371 -0.3773 -0.4545 -1.6390
  170SOPE   H5S19191   4.286   5.151   7.365 -0.8519 -0.0587  2.2275
  170SOPE   C2619192   4.115   5.021   7.331  0.3354  0.6470  0.1660
  170SOPE   H6R19193   4.083   5.110   7.273  0.2937  1.5531  1.5417
  170SOPE   H6S19194   4.076   4.929   7.283  0.9731  0.3834  0.1367
  170SOPE   C2719195   4.036   5.029   7.462 -0.4506 -0.1066  0.5561
  170SOPE   H7R19196   4.098   5.102   7.520 -0.8359  2.0748 -1.6215
  170SOPE   H7S19197   3.935   5.075   7.464 -0.1804  0.4921  2.0732
  170SOPE   C2819198   4.061   4.907   7.551  0.8088 -0.4838 -0.1651
  170SOPE   H8R19199   4.151   4.849   7.521  1.9257  1.5009 -0.8255
  170SOPE   H8S19200   4.086   4.943   7.653  0.7758  0.2810 -0.4221
  170SOPE   C2919201   3.940   4.814   7.549 -0.0047  0.1569 -0.3620
  170SOPE   H9119202   3.923   4.776   7.448  3.8171 -0.9777 -0.7270
  170SOPE  C21019203   3.870   4.781   7.657 -0.3002 -0.0198  0.1980
  170SOPE  H10119204   3.786   4.711   7.645 -0.0661 -0.4103  0.7797
  170SOPE  C21119205   3.887   4.816   7.804  0.9395 -0.6684 -0.4169
  170SOPE  H11R19206   3.995   4.829   7.829  0.2904  1.0309  1.8309
  170SOPE  H11S19207   3.842   4.740   7.871  0.3168  1.2554  1.4550
  170SOPE  C21219208   3.815   4.945   7.855  0.5099 -1.3552 -0.2637
  170SOPE  H12R19209   3.705   4.932   7.845  0.5943 -0.4372 -4.0827
  170SOPE  H12S19210   3.838   5.022   7.778  0.3881 -0.4802  0.5628
  170SOPE  C21319211   3.850   4.973   8.006 -0.2188 -0.5520 -0.0307
  170SOPE  H13R19212   3.957   5.005   8.008 -0.0667 -0.9368 -1.1387
  170SOPE  H13S19213   3.857   4.880   8.066  2.4548  0.9529  2.2357
  170SOPE  C21419214   3.763   5.075   8.078 -0.3869 -0.6742  0.4363
  170SOPE  H14R19215   3.657   5.050   8.056 -0.3161 -0.7214  0.1382
  170SOPE  H14S19216   3.773   5.178   8.039 -2.7591  0.6042  2.9323
  170SOPE  C21519217   3.785   5.087   8.231  0.5030  0.3621  0.4921
  170SOPE  H15R19218   3.721   5.166   8.276  0.3075  0.7231 -0.4053
  170SOPE  H15S19219   3.892   5.115   8.240  0.5529  0.9440 -1.3869
  170SOPE  C21619220   3.759   4.959   8.315  0.3213 -0.5929 -0.1018
  170SOPE  H16R19221   3.794   4.865   8.267 -1.6013 -0.2877 -2.3224
  170SOPE  H16S19222   3.653   4.934   8.337  0.1092  0.4533  0.0937
  170SOPE  C21719223   3.820   4.964   8.451  0.4122 -0.4257 -0.3794
  170SOPE  H17R19224   3.928   4.955   8.425  0.4652 -0.4682 -0.1419
  170SOPE  H17S19225   3.783   4.881   8.515  0.2054 -0.1553 -0.1494
  170SOPE  C21819226   3.783   5.095   8.526 -0.3743 -0.2674 -0.6514
  170SOPE  H18R19227   3.801   5.195   8.482  1.4875 -0.5565 -0.6308
  170SOPE  H18S19228   3.823   5.094   8.629  0.8242 -1.3435 -1.1033
  170SOPE  H18T19229   3.672   5.090   8.530 -0.5166  1.7364 -1.2122
  170SOPE   C3319230   4.124   5.482   7.147  0.2915 -1.1878  0.8425
  170SOPE   H3X19231   4.233   5.479   7.168  0.3517 -0.4085  0.6640
  170SOPE   H3Y19232   4.102   5.378   7.114 -0.6962 -0.7641  0.1079
  170SOPE   C3419233   4.048   5.515   7.277  0.0241 -0.0234  0.3579
  170SOPE   H4X19234   3.939   5.519   7.255  0.3554  0.2146 -1.4408
  170SOPE   H4Y19235   4.078   5.622   7.286  1.2737  0.1324 -3.5840
  170SOPE   C3519236   4.072   5.408   7.385 -0.8488 -0.4441  0.4247
  170SOPE   H5X19237   4.181   5.404   7.405 -1.1772 -0.8553  2.3211
  170SOPE   H5Y19238   4.046   5.312   7.334  1.8764 -0.2778 -1.4814
  170SOPE   C3619239   3.979   5.437   7.508 -0.9600  0.2151 -0.1557
  170SOPE   H6X19240   3.897   5.362   7.500  0.1788 -0.9445 -1.4054
  170SOPE   H6Y19241   3.927   5.535   7.504 -0.9325  0.2046 -0.8170
  170SOPE   C3719242   4.056   5.414   7.639 -0.2213  0.0049  0.6009
  170SOPE   H7X19243   4.142   5.485   7.635  0.1669 -0.4198  1.1635
  170SOPE   H7Y19244   4.099   5.311   7.636 -1.8135 -0.6794 -1.8376
  170SOPE   C3819245   3.966   5.441   7.761 -0.5044  0.0597 -0.4827
  170SOPE   H8X19246   3.874   5.378   7.758 -1.2439  1.1386 -1.1012
  170SOPE   H8Y19247   3.940   5.549   7.762 -1.7749 -0.2391  0.0886
  170SOPE   C3919248   4.045   5.424   7.891 -0.1905  0.5037  0.0046
  170SOPE   H9X19249   4.124   5.501   7.902 -0.4494  0.8376 -0.4314
  170SOPE   H9Y19250   4.087   5.323   7.872 -0.7933  0.3044 -0.2934
  170SOPE  C31019251   3.958   5.437   8.016  1.3664 -0.8052  0.6571
  170SOPE  H10X19252   3.873   5.367   8.003  0.7566 -0.2306  1.4184
  170SOPE  H10Y19253   3.918   5.541   8.016  1.8078 -0.6318  0.2954
  170SOPE  C31119254   4.033   5.402   8.146 -0.0213 -0.4203  0.1512
  170SOPE  H11X19255   4.119   5.470   8.161 -1.3726  1.1633  1.1228
  170SOPE  H11Y19256   4.069   5.297   8.139  2.3496  0.3684 -0.5243
  170SOPE  C31219257   3.936   5.418   8.265  0.0041  0.2904 -0.7937
  170SOPE  H12X19258   3.849   5.349   8.264 -0.8520  1.2859  0.9735
  170SOPE  H12Y19259   3.892   5.519   8.255 -0.2712  0.0663 -2.1503
  170SOPE  C31319260   4.010   5.395   8.401 -0.1089 -0.1750  0.1017
  170SOPE  H13X19261   4.116   5.420   8.381 -0.0064 -0.2353  0.5707
  170SOPE  H13Y19262   4.003   5.288   8.428  0.4777  0.2075  1.9104
  170SOPE  C31419263   3.958   5.483   8.515  0.2334 -0.0101 -0.2987
  170SOPE  H14X19264   3.847   5.498   8.515  0.2092 -0.1381  0.5494
  170SOPE  H14Y19265   4.004   5.584   8.505  0.6168 -0.2527 -0.9655
  170SOPE  C31519266   3.991   5.409   8.642 -0.1353  0.1080 -0.0745
  170SOPE  H15X19267   4.100   5.408   8.664 -0.6058 -0.5886  2.5778
  170SOPE  H15Y19268   3.950   5.306   8.641 -0.9734  0.4404 -0.4513
  170SOPE  C31619269   3.942   5.481   8.772  0.7659 -0.1991  0.0641
  170SOPE  H16X19270   3.831   5.476   8.769  0.6121 -3.5949  3.8577
  170SOPE  H16Y19271   3.986   5.583   8.781 -0.4427  0.3197  0.2310
  170SOPE  C31719272   3.970   5.413   8.905 -0.0045 -0.1123 -0.2852
  170SOPE  H17X19273   3.909   5.469   8.979  0.0204  2.5255 -2.1130
  170SOPE  H17Y19274   4.074   5.430   8.938 -0.6778 -1.7023  3.1474
  170SOPE  C31819275   3.922   5.264   8.918 -0.2854 -0.0921  0.5840
  170SOPE  H18X19276   3.986   5.200   8.852  0.4528  0.8232  0.3953
  170SOPE  H18Y19277   3.813   5.266   8.900 -0.7000 -2.4484  2.3250
  170SOPE  H18Z19278   3.939   5.233   9.023  0.2906 -2.0213 -0.0181
  171SOPE     N19279   4.139   1.339   6.111  0.3190  0.4082  0.2804
  171SOPE   HN119280   4.199   1.300   6.187 -0.3020 -0.4341  0.3505
  171SOPE   HN219281   4.067   1.268   6.091  0.0164 -0.7767  4.4865
  171SOPE   HN319282   4.204   1.337   6.030 -0.4692 -2.3833 -0.3785
  171SOPE   C1219283   4.085   1.473   6.133  0.7139 -1.1374 -0.2415
  171SOPE  H12A19284   4.010   1.489   6.052 -0.3009 -0.0119  0.8886
  171SOPE  H12B19285   4.166   1.549   6.139 -1.7047  1.7381 -0.9469
  171SOPE   C1119286   4.021   1.483   6.271  0.1446  0.3486 -0.2338
  171SOPE  H11A19287   3.987   1.589   6.272 -1.3050 -0.0919 -0.5869
  171SOPE  H11B19288   4.093   1.466   6.355 -2.0056 -0.2979  1.5669
  171SOPE     P19289   3.770   1.439   6.257  0.1796  0.2498  0.4026
  171SOPE   O1319290   3.679   1.328   6.217 -0.7697  0.1102 -0.3253
  171SOPE   O1419291   3.776   1.554   6.169 -0.5605 -0.0832 -0.2096
  171SOPE   O1219292   3.913   1.383   6.291 -0.4004 -0.0412  0.3215
  171SOPE   O1119293   3.727   1.496   6.393 -0.0245 -0.0126 -0.4446
  171SOPE    C119294   3.751   1.426   6.516  0.0501  0.7949 -0.1151
  171SOPE    HA19295   3.779   1.320   6.495  0.3228  0.6251  1.0232
  171SOPE    HB19296   3.663   1.424   6.584 -0.5520  0.5172 -0.8865
  171SOPE    C219297   3.862   1.495   6.601 -0.4948 -0.5020 -0.7402
  171SOPE    HS19298   3.952   1.493   6.535 -0.0535 -1.6407 -0.1318
  171SOPE   O2119299   3.889   1.414   6.717  0.1839  0.0293  0.2730
  171SOPE   C2119300   3.979   1.461   6.788  0.1347 -0.0649 -0.1864
  171SOPE   O2219301   4.063   1.545   6.755 -0.4752 -0.3970  0.4744
  171SOPE   C2219302   3.982   1.396   6.925 -0.0716 -0.3641  0.1447
  171SOPE   H2R19303   4.029   1.295   6.920  0.2191 -0.4459  2.8861
  171SOPE   H2S19304   3.879   1.379   6.962  0.7251 -1.2478  2.0775
  171SOPE    C319305   3.802   1.641   6.631  0.2802 -0.5289 -0.6489
  171SOPE    HX19306   3.792   1.696   6.535  1.0342 -0.4260 -0.6779
  171SOPE    HY19307   3.876   1.706   6.681  0.6209  0.4565 -2.3692
  171SOPE   O3119308   3.669   1.642   6.686 -0.1160  1.1163 -0.2557
  171SOPE   C3119309   3.662   1.620   6.815  0.5207  0.1316 -0.1136
  171SOPE   O3219310   3.753   1.615   6.896 -0.4873  0.3739  0.5183
  171SOPE   C3219311   3.510   1.586   6.851 -0.0061  0.2860 -0.6302
  171SOPE   H2X19312   3.465   1.559   6.753  0.6377 -2.8949 -0.1625
  171SOPE   H2Y19313   3.453   1.676   6.883  3.3672  1.6634  2.2319
  171SOPE   C2319314   4.063   1.472   7.041  0.6019 -0.1939 -0.8547
  171SOPE   H3R19315   4.056   1.581   7.025  1.4589  0.0261  0.1300
  171SOPE   H3S19316   4.172   1.450   7.047  0.6562 -0.4852 -2.5786
  171SOPE   C2419317   4.003   1.434   7.176 -0.3490 -0.2386  0.4385
  171SOPE   H4R19318   3.893   1.448   7.174 -0.2632  0.4132 -0.1778
  171SOPE   H4S19319   4.022   1.326   7.189 -0.0007 -0.3983 -1.1588
  171SOPE   C2519320   4.058   1.513   7.294 -0.1271  0.3386  0.1509
  171SOPE   H5R19321   4.168   1.500   7.306  0.1035  1.5101 -0.5073
  171SOPE   H5S19322   4.042   1.622   7.280  0.7739  0.1611 -3.1413
  171SOPE   C2619323   4.002   1.466   7.428  0.6195  0.3286  0.9927
  171SOPE   H6R19324   3.893   1.485   7.419  0.3908 -0.8500  1.1744
  171SOPE   H6S19325   4.028   1.359   7.435  0.8127  0.1910 -1.0950
  171SOPE   C2719326   4.080   1.522   7.543 -0.1876 -0.1546  0.1076
  171SOPE   H7R19327   4.185   1.490   7.525 -0.7855 -1.1014 -2.0106
  171SOPE   H7S19328   4.067   1.632   7.538  1.8855  0.2286  1.7935
  171SOPE   C2819329   4.018   1.477   7.672 -0.1504 -0.5363 -0.6091
  171SOPE   H8R19330   3.908   1.481   7.655  0.0666  2.6856 -1.8052
  171SOPE   H8S19331   4.047   1.373   7.699 -0.2855 -0.0916  1.3744
  171SOPE   C2919332   4.049   1.570   7.786  0.3574  0.4932  0.0701
  171SOPE   H9119333   3.994   1.665   7.791 -1.1463 -0.3917  1.4023
  171SOPE  C21019334   4.151   1.561   7.876 -0.2456 -0.0061 -0.5347
  171SOPE  H10119335   4.171   1.646   7.943  2.6406 -1.3603  0.5099
  171SOPE  C21119336   4.259   1.455   7.881 -0.1610 -0.5499  0.0501
  171SOPE  H11R19337   4.354   1.511   7.864 -0.8101  0.3615 -0.6787
  171SOPE  H11S19338   4.246   1.379   7.800 -0.4719 -0.8697  0.3979
  171SOPE  C21219339   4.237   1.378   8.014 -0.2673  0.9792 -0.1668
  171SOPE  H12R19340   4.298   1.286   8.000 -0.6344  0.3796  1.9152
  171SOPE  H12S19341   4.130   1.348   8.023  0.1600 -0.0028  2.6016
  171SOPE  C21319342   4.286   1.444   8.150  0.8696  0.4086  0.5232
  171SOPE  H13R19343   4.215   1.530   8.156 -0.1858 -0.3081 -1.0871
  171SOPE  H13S19344   4.393   1.464   8.131  0.9201  0.2426  0.6334
  171SOPE  C21419345   4.262   1.357   8.272 -0.5260  0.4223 -0.3401
  171SOPE  H14R19346   4.338   1.277   8.259 -0.8659 -0.0539  0.4788
  171SOPE  H14S19347   4.159   1.320   8.251 -0.9343  1.3471 -0.0414
  171SOPE  C21519348   4.279   1.431   8.408 -0.0713  0.3670 -0.6687
  171SOPE  H15R19349   4.208   1.516   8.404 -1.0963 -0.4893 -1.3938
  171SOPE  H15S19350   4.383   1.465   8.427 -0.1388 -0.2090  0.8494
  171SOPE  C21619351   4.239   1.358   8.542 -0.0639  0.9513 -0.3735
  171SOPE  H16R19352   4.266   1.431   8.620 -2.5892 -0.2166  1.7394
  171SOPE  H16S19353   4.307   1.270   8.550 -0.2384  0.7959 -0.5693
  171SOPE  C21719354   4.096   1.319   8.562  0.5737 -0.9557  0.0920
  171SOPE  H17R19355   4.077   1.227   8.503  1.9168 -1.5869  0.6025
  171SOPE  H17S19356   4.022   1.398   8.535 -1.2913 -1.6552  2.7628
  171SOPE  C21819357   4.068   1.281   8.713  0.7280 -0.2460  0.1616
  171SOPE  H18R19358   4.073   1.376   8.771  0.7589  0.2589 -0.6449
  171SOPE  H18S19359   4.153   1.228   8.759  2.6683  1.9529 -0.6705
  171SOPE  H18T19360   3.974   1.227   8.736  0.8900 -0.3546  0.5728
  171SOPE   C3319361   3.501   1.475   6.948  0.1762 -0.9738  0.1128
  171SOPE   H3X19362   3.577   1.397   6.924 -0.8190 -1.9705  0.1528
  171SOPE   H3Y19363   3.396   1.439   6.943  0.6633 -2.3451 -1.1753
  171SOPE   C3419364   3.521   1.520   7.096  0.1909 -0.6125 -0.2248
  171SOPE   H4X19365   3.470   1.614   7.123  1.6468 -0.6059  2.8815
  171SOPE   H4Y19366   3.626   1.554   7.109 -0.1067  0.8856 -1.4502
  171SOPE   C3519367   3.497   1.405   7.190  0.6532  0.0199  0.2462
  171SOPE   H5X19368   3.568   1.326   7.156 -0.5446 -0.4830 -1.2272
  171SOPE   H5Y19369   3.393   1.379   7.161  0.7313 -0.3989  0.3242
  171SOPE   C3619370   3.513   1.443   7.337 -0.1549  0.3525  0.4122
  171SOPE   H6X19371   3.451   1.534   7.347 -0.3842  0.2481 -0.0196
  171SOPE   H6Y19372   3.618   1.477   7.349  0.2552 -0.9084  0.5873
  171SOPE   C3719373   3.487   1.335   7.439 -0.1336 -0.2364 -0.9863
  171SOPE   H7X19374   3.548   1.244   7.421 -0.0775 -0.9545  2.2394
  171SOPE   H7Y19375   3.381   1.301   7.436  0.1690 -1.9345  2.3699
  171SOPE   C3819376   3.521   1.388   7.582  0.2110 -0.4206  0.2337
  171SOPE   H8X19377   3.469   1.484   7.606 -1.1288 -1.5788  2.2528
  171SOPE   H8Y19378   3.632   1.396   7.584  0.4929 -3.1836  2.9582
  171SOPE   C3919379   3.477   1.280   7.681  0.1761 -0.2265 -0.5560
  171SOPE   H9X19380   3.526   1.181   7.667  1.6450  0.2630  0.8450
  171SOPE   H9Y19381   3.368   1.261   7.676  0.3164 -1.4531  0.6292
  171SOPE  C31019382   3.501   1.326   7.828 -0.3916 -0.0495  0.1194
  171SOPE  H10X19383   3.450   1.258   7.899  1.9881 -1.0152  0.9852
  171SOPE  H10Y19384   3.452   1.426   7.836  1.8809  1.4741 -3.1452
  171SOPE  C31119385   3.647   1.333   7.866 -0.0743  0.1600 -0.9777
  171SOPE  H11X19386   3.699   1.414   7.809  1.6268 -0.4814 -0.4054
  171SOPE  H11Y19387   3.709   1.241   7.859 -0.9470 -0.5968  0.6744
  171SOPE  C31219388   3.674   1.350   8.013  0.4531  0.7841 -0.4364
  171SOPE  H12X19389   3.642   1.260   8.069  2.4679  1.4273  1.9210
  171SOPE  H12Y19390   3.623   1.442   8.050  0.7019  0.4513  0.7897
  171SOPE  C31319391   3.819   1.369   8.047 -0.5768 -0.4025 -0.4362
  171SOPE  H13X19392   3.863   1.452   7.987 -3.1551  1.8150  0.5293
  171SOPE  H13Y19393   3.869   1.279   8.005  1.9204  0.5803  0.2845
  171SOPE  C31419394   3.853   1.384   8.199 -0.0089  0.0652 -0.1286
  171SOPE  H14X19395   3.791   1.470   8.234  1.6677  1.1592  0.2746
  171SOPE  H14Y19396   3.960   1.406   8.221 -0.4645  1.1042  1.2622
  171SOPE  C31519397   3.818   1.264   8.282  0.0971  0.1764 -0.0652
  171SOPE  H15X19398   3.906   1.251   8.349  0.7574 -0.5343 -1.0444
  171SOPE  H15Y19399   3.815   1.172   8.220  0.1328  0.0156  0.1713
  171SOPE  C31619400   3.699   1.274   8.378  0.2070  0.2176 -0.4998
  171SOPE  H16X19401   3.600   1.289   8.330 -0.2038 -1.4982 -0.2710
  171SOPE  H16Y19402   3.728   1.356   8.447  0.8610 -1.5463  1.4601
  171SOPE  C31719403   3.692   1.148   8.463  0.2005  0.9822 -1.2252
  171SOPE  H17X19404   3.630   1.179   8.550  2.3744  2.8786 -0.2623
  171SOPE  H17Y19405   3.791   1.105   8.490 -0.9202 -1.9470 -1.3245
  171SOPE  C31819406   3.627   1.023   8.398  0.0293 -0.1797 -0.3128
  171SOPE  H18X19407   3.518   1.037   8.381 -0.3812 -3.1284 -0.6184
  171SOPE  H18Y19408   3.634   0.931   8.459 -0.1125 -1.3839 -2.0633
  171SOPE  H18Z19409   3.689   0.996   8.311  2.8523  1.5417  1.0237
  172SOPE     N19410   4.792   4.047   6.253 -0.4137  0.1197 -0.2871
  172SOPE   HN119411   4.852   4.127   6.226 -2.0481  2.4313  2.2807
  172SOPE   HN219412   4.800   3.990   6.166  2.0444 -2.0775  1.2229
  172SOPE   HN319413   4.704   4.094   6.284 -0.6424  0.9356 -2.0851
  172SOPE   C1219414   4.865   3.972   6.363  0.6305 -0.2972 -0.6414
  172SOPE  H12A19415   4.877   4.042   6.448  2.9206  1.4730 -2.2955
  172SOPE  H12B19416   4.963   3.934   6.327  1.0100 -0.7570  0.8142
  172SOPE   C1119417   4.776   3.852   6.414 -0.4037  0.4575  0.5666
  172SOPE  H11A19418   4.682   3.904   6.445 -1.1506  0.5716 -1.7222
  172SOPE  H11B19419   4.822   3.805   6.503  1.2572  0.1876 -0.4064
  172SOPE     P19420   4.800   3.611   6.312 -0.0785 -0.4148  0.0561
  172SOPE   O1319421   4.948   3.626   6.299  0.5132 -0.1502  0.0689
  172SOPE   O1419422   4.735   3.533   6.205  0.3249 -0.1489  0.0499
  172SOPE   O1219423   4.735   3.757   6.318 -0.2216 -0.1082 -0.4840
  172SOPE   O1119424   4.768   3.546   6.458  0.3285  0.4390 -0.3273
  172SOPE    C119425   4.635   3.566   6.511 -0.1682  0.0423  0.5791
  172SOPE    HA19426   4.559   3.532   6.438  1.9994 -1.1210 -1.2691
  172SOPE    HB19427   4.624   3.676   6.525  0.6012  0.3176 -0.8162
  172SOPE    C219428   4.630   3.496   6.651  0.5234  0.4759 -0.2015
  172SOPE    HS19429   4.545   3.543   6.706  0.2808 -0.2579  0.0645
  172SOPE   O2119430   4.759   3.506   6.718  0.4866 -0.0821  0.2503
  172SOPE   C2119431   4.798   3.629   6.741  0.4133 -0.5891 -0.2398
  172SOPE   O2219432   4.727   3.729   6.746  0.1169 -0.0470  0.5453
  172SOPE   C2219433   4.941   3.636   6.791  0.1437  0.4333 -0.5698
  172SOPE   H2R19434   4.985   3.728   6.748  0.3890  0.8936  0.6191
  172SOPE   H2S19435   4.992   3.543   6.759 -2.6469 -1.3904 -0.1104
  172SOPE    C319436   4.597   3.348   6.631 -0.2762 -0.0933  0.1492
  172SOPE    HX19437   4.660   3.325   6.543 -0.5952 -0.9333  0.1331
  172SOPE    HY19438   4.493   3.336   6.596 -0.3887  0.3505  0.3292
  172SOPE   O3119439   4.632   3.258   6.743 -0.2449  0.8190  0.1128
  172SOPE   C3119440   4.551   3.252   6.847 -1.1865  0.4149  0.3260
  172SOPE   O3219441   4.444   3.305   6.859 -0.3446  0.1521 -0.3800
  172SOPE   C3219442   4.612   3.165   6.959 -0.1244 -0.3540  1.2685
  172SOPE   H2X19443   4.719   3.194   6.963  0.6884 -2.8558 -0.2375
  172SOPE   H2Y19444   4.606   3.063   6.916 -1.1612  1.5248 -3.6987
  172SOPE   C2319445   4.954   3.637   6.942  0.3094 -0.8140 -0.4929
  172SOPE   H3R19446   4.883   3.704   6.994 -0.5246 -2.0827  0.0729
  172SOPE   H3S19447   5.050   3.678   6.978 -0.3581 -0.6855  1.2323
  172SOPE   C2419448   4.916   3.495   6.994  0.6320 -0.5980  0.3110
  172SOPE   H4R19449   4.806   3.481   6.980  0.9420 -0.5571 -2.8416
  172SOPE   H4S19450   4.984   3.430   6.936  1.3503  0.8771 -0.5516
  172SOPE   C2519451   4.954   3.481   7.147 -0.5061  0.1596 -0.0019
  172SOPE   H5R19452   5.054   3.531   7.141 -0.9398  0.9448 -1.1628
  172SOPE   H5S19453   4.889   3.546   7.209 -0.5687  0.7130 -0.6334
  172SOPE   C2619454   4.972   3.339   7.190  0.0953  0.5041 -0.6461
  172SOPE   H6R19455   4.878   3.287   7.217  1.2994 -1.9272 -0.8827
  172SOPE   H6S19456   5.010   3.272   7.110 -0.0487 -0.4510  0.0762
  172SOPE   C2719457   5.066   3.328   7.312  0.2710  0.1198 -0.2049
  172SOPE   H7R19458   5.116   3.233   7.285 -2.4584 -1.1097 -1.3029
  172SOPE   H7S19459   5.146   3.404   7.316  0.6775 -0.3381  1.1011
  172SOPE   C2819460   4.992   3.327   7.448  0.0961  0.2923 -0.2641
  172SOPE   H8R19461   5.072   3.347   7.523 -0.1100 -1.3604  0.4326
  172SOPE   H8S19462   4.936   3.423   7.442  0.4802  0.4977 -0.6025
  172SOPE   C2919463   4.908   3.204   7.493  0.0560 -1.0898 -0.7876
  172SOPE   H9119464   4.839   3.162   7.419  0.2040 -1.5062 -0.6903
  172SOPE  C21019465   4.889   3.171   7.616 -0.4778 -0.0837 -0.1219
  172SOPE  H10119466   4.840   3.073   7.629 -0.4167 -0.3728 -1.8182
  172SOPE  C21119467   4.959   3.237   7.731 -0.0176 -0.9800  0.4857
  172SOPE  H11R19468   4.961   3.348   7.720  0.8875 -0.9621  0.8053
  172SOPE  H11S19469   5.069   3.224   7.729  0.6736  3.2936  1.0513
  172SOPE  C21219470   4.895   3.209   7.863  1.1473  0.0743 -0.6114
  172SOPE  H12R19471   4.909   3.099   7.874  1.4445  0.0748 -0.9875
  172SOPE  H12S19472   4.786   3.234   7.864  1.6336  2.5832  1.9493
  172SOPE  C21319473   4.962   3.292   7.981  1.0916 -0.3904 -0.1440
  172SOPE  H13R19474   4.903   3.260   8.069 -3.4552 -0.5080 -2.9323
  172SOPE  H13S19475   4.932   3.397   7.962  0.4363 -0.7184 -0.9734
  172SOPE  C21419476   5.113   3.293   7.978  0.2323  0.4708 -0.2334
  172SOPE  H14R19477   5.149   3.365   8.054 -1.6704  0.2380  0.9573
  172SOPE  H14S19478   5.157   3.325   7.881 -1.5215  2.7414 -0.3489
  172SOPE  C21519479   5.174   3.155   8.008 -1.4063 -0.2160  0.5177
  172SOPE  H15R19480   5.282   3.158   7.980 -1.5618  0.8415 -0.0323
  172SOPE  H15S19481   5.124   3.084   7.939 -1.9208  0.6252  0.0063
  172SOPE  C21619482   5.160   3.105   8.147  0.0185 -0.0981 -0.3906
  172SOPE  H16R19483   5.185   2.996   8.142 -1.5508 -0.4742 -0.5961
  172SOPE  H16S19484   5.053   3.105   8.176 -0.2600  0.5035 -1.3732
  172SOPE  C21719485   5.260   3.174   8.237 -0.4721  0.4003  0.0223
  172SOPE  H17R19486   5.237   3.281   8.218  0.6964  0.5676 -0.5656
  172SOPE  H17S19487   5.362   3.155   8.198  0.1719 -2.1487  2.5664
  172SOPE  C21819488   5.251   3.149   8.387 -0.3841  0.3357 -0.2185
  172SOPE  H18R19489   5.148   3.174   8.422 -1.6467 -1.1383 -2.6208
  172SOPE  H18S19490   5.317   3.219   8.442 -1.1851  1.4619 -0.6532
  172SOPE  H18T19491   5.282   3.048   8.420  1.0923  1.3536  1.7366
  172SOPE   C3319492   4.539   3.180   7.092 -0.4694 -0.3298 -0.1360
  172SOPE   H3X19493   4.430   3.165   7.075 -0.4969  0.4999 -0.7033
  172SOPE   H3Y19494   4.559   3.281   7.133  0.3659  0.0608 -1.4540
  172SOPE   C3419495   4.580   3.068   7.194  0.0522  0.0862  0.5591
  172SOPE   H4X19496   4.691   3.064   7.191  0.3284  3.8839  0.3098
  172SOPE   H4Y19497   4.536   2.973   7.158 -1.8128  1.4787 -1.1164
  172SOPE   C3519498   4.517   3.104   7.328  0.1031  0.2458 -0.0650
  172SOPE   H5X19499   4.407   3.095   7.316  0.0052  0.2147  0.8329
  172SOPE   H5Y19500   4.541   3.203   7.372 -0.5185  0.2366  0.3072
  172SOPE   C3619501   4.561   2.991   7.428 -0.7434  0.1415 -0.3784
  172SOPE   H6X19502   4.671   2.981   7.417 -0.3215  2.4603  1.0313
  172SOPE   H6Y19503   4.515   2.891   7.416 -1.8244  0.2089  2.4020
  172SOPE   C3719504   4.511   3.012   7.576  1.1152 -0.0910 -0.0698
  172SOPE   H7X19505   4.401   3.020   7.562  1.3643  0.1351 -2.3153
  172SOPE   H7Y19506   4.542   3.113   7.608 -1.3301  1.0189 -0.9238
  172SOPE   C3819507   4.558   2.902   7.666  0.2126 -0.1105 -0.2510
  172SOPE   H8X19508   4.664   2.888   7.638  0.1711 -2.9626  0.7724
  172SOPE   H8Y19509   4.502   2.807   7.656 -0.1489 -0.0247  0.8457
  172SOPE   C3919510   4.569   2.946   7.815  0.1644 -0.2858  0.0336
  172SOPE   H9X19511   4.474   2.975   7.864 -0.0843 -2.6384  1.1003
  172SOPE   H9Y19512   4.628   3.040   7.815  2.2828 -1.5193 -1.5346
  172SOPE  C31019513   4.646   2.844   7.903 -0.2180 -0.0587  0.1695
  172SOPE  H10X19514   4.728   2.799   7.842 -1.5035 -1.0188 -0.8993
  172SOPE  H10Y19515   4.583   2.758   7.936 -0.0730 -0.0391  0.5027
  172SOPE  C31119516   4.713   2.906   8.028  0.0431 -0.2463  0.1995
  172SOPE  H11X19517   4.640   2.944   8.102 -1.1797  0.2927 -1.2191
  172SOPE  H11Y19518   4.772   2.993   7.991  0.3764 -1.3491 -2.0588
  172SOPE  C31219519   4.829   2.823   8.085 -0.4496 -0.6269  1.0219
  172SOPE  H12X19520   4.917   2.830   8.017 -0.3748  0.5807  1.2136
  172SOPE  H12Y19521   4.791   2.720   8.101 -0.5108 -0.7647  0.0529
  172SOPE  C31319522   4.869   2.862   8.225  0.1106  0.4945  0.5227
  172SOPE  H13X19523   4.826   2.957   8.264 -2.0360 -0.1731 -0.0673
  172SOPE  H13Y19524   4.980   2.861   8.218  0.0260 -0.5789 -1.4343
  172SOPE  C31419525   4.830   2.764   8.339  0.3492 -0.3102  0.0868
  172SOPE  H14X19526   4.871   2.662   8.331 -1.1578 -0.7844 -3.2245
  172SOPE  H14Y19527   4.722   2.743   8.328  0.1773 -0.2759  1.4819
  172SOPE  C31519528   4.865   2.825   8.477 -0.3370 -0.5569 -0.1765
  172SOPE  H15X19529   4.813   2.754   8.544  0.8999 -2.3250 -1.0201
  172SOPE  H15Y19530   4.817   2.924   8.494 -0.2930 -0.5125 -0.3061
  172SOPE  C31619531   5.016   2.828   8.510  0.2625 -0.3179 -0.3997
  172SOPE  H16X19532   5.075   2.880   8.431  0.3174  0.5926  0.2365
  172SOPE  H16Y19533   5.031   2.720   8.530 -1.6548 -0.5426  0.0365
  172SOPE  C31719534   5.047   2.883   8.654  1.0251 -0.7209  0.0068
  172SOPE  H17X19535   4.970   2.851   8.728 -2.2780  0.7193 -2.5514
  172SOPE  H17Y19536   5.036   2.993   8.651 -0.2637 -0.8369 -0.3718
  172SOPE  C31819537   5.189   2.857   8.700  0.3266  0.1829  0.7168
  172SOPE  H18X19538   5.211   2.921   8.789  0.2955  0.6752  0.3758
  172SOPE  H18Y19539   5.260   2.882   8.618  0.0922  1.0133  0.7529
  172SOPE  H18Z19540   5.192   2.748   8.720 -1.3742  0.1365  0.9272
  173SAPI   C1219541   5.140   2.396  10.828 -0.0683 -0.8983 -0.5566
  173SAPI    H219542   5.031   2.379  10.812 -0.8318  2.2762  0.4956
  173SAPI    O219543   5.154   2.458  10.956 -0.1159  0.8996 -0.0117
  173SAPI   HO219544   5.117   2.545  10.938 -1.9051  0.5515  1.6867
  173SAPI   C1319545   5.216   2.264  10.831 -0.9016  0.1801  0.3563
  173SAPI    H319546   5.201   2.218  10.730 -2.8736 -0.3752  0.8709
  173SAPI    O319547   5.177   2.173  10.936 -0.2350  0.3047  0.5010
  173SAPI   HO319548   5.164   2.235  11.008  0.8809 -2.3062  3.1824
  173SAPI   C1419549   5.369   2.284  10.850  0.3887 -0.3262  0.1494
  173SAPI    H419550   5.381   2.342  10.943  0.2629  3.0235 -1.7844
  173SAPI    O419551   5.446   2.161  10.845 -0.8820  0.0906  0.1103
  173SAPI   HO419552   5.522   2.175  10.903 -0.3325 -0.6888 -0.4018
  173SAPI   C1519553   5.415   2.377  10.736 -0.2551 -0.4105 -0.8040
  173SAPI    H519554   5.402   2.325  10.638  0.1165 -1.7045 -0.1875
  173SAPI    O519555   5.556   2.405  10.758  0.4481 -1.1879  0.3197
  173SAPI   HO519556   5.618   2.356  10.703  1.4082 -1.0924  1.2713
  173SAPI   C1619557   5.340   2.511  10.736  0.4529 -0.3812  0.3035
  173SAPI    H619558   5.355   2.573  10.828  0.9157  1.2248 -0.8038
  173SAPI    O619559   5.374   2.593  10.628 -0.1667  0.0909 -0.5737
  173SAPI   HO619560   5.423   2.670  10.658  0.2338  0.6298 -2.4928
  173SAPI   C1119561   5.194   2.494  10.726 -0.3184 -0.3900  0.1208
  173SAPI    H119562   5.171   2.459  10.623  0.0347  3.1240 -1.2859
  173SAPI     P19563   4.969   2.652  10.668  0.1143  0.2290 -0.2361
  173SAPI   O1319564   4.896   2.730  10.772  0.0349 -0.4678  0.0711
  173SAPI   O1419565   4.912   2.525  10.617 -0.2996  0.5593  0.3976
  173SAPI   O1219566   5.117   2.615  10.744  0.7868  0.0893 -0.0793
  173SAPI   O1119567   5.007   2.739  10.540 -0.0592 -0.0621  0.4093
  173SAPI    C119568   5.141   2.774  10.507  0.2893  0.2270  0.4491
  173SAPI    HA19569   5.191   2.838  10.582  1.3001  3.3325 -2.5974
  173SAPI    HB19570   5.199   2.681  10.492 -0.1569 -0.1218  0.8394
  173SAPI    C219571   5.144   2.853  10.377 -0.1526 -0.3163  0.6747
  173SAPI    HS19572   5.088   2.948  10.377  3.0909  1.7459  0.9025
  173SAPI   O2119573   5.114   2.761  10.274 -0.2111 -0.4584 -0.5507
  173SAPI   C2119574   5.075   2.810  10.157  0.1930  0.9261 -0.0369
  173SAPI   O2219575   5.051   2.926  10.132 -0.6498 -0.1842  0.3998
  173SAPI   C2219576   5.086   2.693  10.053  0.6222 -0.6377 -0.3294
  173SAPI   H2R19577   5.162   2.622  10.093  1.1916  0.0332 -0.1879
  173SAPI   H2S19578   4.986   2.645  10.048  0.6292 -1.1132  2.2666
  173SAPI    C319579   5.293   2.897  10.351  0.5229 -0.2720 -0.6896
  173SAPI    HX19580   5.362   2.814  10.379  0.3139 -0.5684 -1.0491
  173SAPI    HY19581   5.301   2.982  10.422 -1.9439  2.3041 -3.2038
  173SAPI   O3119582   5.318   2.947  10.219 -0.1538 -0.6737 -0.1423
  173SAPI   C3119583   5.321   3.082  10.200  0.4265  0.1935 -0.0444
  173SAPI   O3219584   5.298   3.162  10.287  0.1416  0.1000 -0.3339
  173SAPI   C3219585   5.340   3.102  10.049  0.3439 -0.1223 -0.2096
  173SAPI   H2X19586   5.308   3.018   9.984 -1.0458 -1.3951  1.9627
  173SAPI   H2Y19587   5.450   3.100  10.058  0.4026  1.5011 -0.3930
  173SAPI   C2319588   5.128   2.747   9.914 -0.5501  0.2459 -0.2273
  173SAPI   H3R19589   5.217   2.813   9.923 -0.5832  0.0916  1.4620
  173SAPI   H3S19590   5.044   2.802   9.866 -2.2498 -0.5341  1.6685
  173SAPI   C2419591   5.161   2.636   9.823 -0.5751 -0.1125 -0.1304
  173SAPI   H4R19592   5.065   2.579   9.830 -0.8139  0.2426 -0.4815
  173SAPI   H4S19593   5.236   2.583   9.885 -1.0594  2.6228  3.1042
  173SAPI   C2519594   5.198   2.670   9.679 -1.3593 -0.6441 -0.5218
  173SAPI   H5R19595   5.306   2.670   9.658 -1.5843 -1.0481 -1.7463
  173SAPI   C2619596   5.122   2.673   9.566 -0.2477 -0.4640 -0.4684
  173SAPI   H6R19597   5.164   2.725   9.478  1.1291  0.6934  0.8163
  173SAPI   C2719598   4.972   2.658   9.564 -0.1140  0.3145  0.2319
  173SAPI   H7R19599   4.959   2.755   9.511  1.9483  0.3821 -0.2302
  173SAPI   H7S19600   4.929   2.670   9.666 -1.8978 -1.0652 -0.3144
  173SAPI   C2819601   4.924   2.547   9.471  0.0832 -0.0137  0.0858
  173SAPI   H8R19602   4.907   2.451   9.521  2.1996  0.4952  1.9136
  173SAPI   C2919603   4.893   2.549   9.336  0.4252  0.6237  0.3500
  173SAPI   H9R19604   4.846   2.462   9.289 -0.6601  0.9867  0.7307
  173SAPI  C21019605   4.918   2.671   9.243 -0.5191 -0.2283 -0.1310
  173SAPI  H10R19606   5.008   2.645   9.184  0.3504 -0.1802  1.1262
  173SAPI  H10S19607   4.949   2.757   9.305 -0.1609 -0.7934  0.4915
  173SAPI  C21119608   4.818   2.708   9.136 -0.0964  1.0717 -0.4168
  173SAPI  H11R19609   4.764   2.798   9.169  0.6815  1.2909  0.2990
  173SAPI  C21219610   4.790   2.649   9.012 -0.0403  0.3567 -0.1892
  173SAPI  H12R19611   4.708   2.684   8.947 -0.7690 -1.6075 -0.3991
  173SAPI  C21319612   4.864   2.529   8.951 -0.2313 -0.2630 -0.1654
  173SAPI  H13R19613   4.815   2.495   8.858  0.9646 -0.9525 -0.5714
  173SAPI  H13S19614   4.866   2.440   9.018  0.5840  0.3328  0.6293
  173SAPI  C21419615   5.010   2.563   8.919 -0.4453 -0.4815 -0.1243
  173SAPI  H14R19616   5.044   2.651   8.974 -1.5935 -0.6946  0.9498
  173SAPI  C21519617   5.091   2.494   8.835  0.3734  0.9682  0.2300
  173SAPI  H15R19618   5.197   2.514   8.816  1.0302 -0.3367  2.2341
  173SAPI  C21619619   5.048   2.381   8.740  0.2988  0.2391 -0.0769
  173SAPI  H16R19620   4.970   2.314   8.783 -1.0231  0.5030 -1.9416
  173SAPI  H16S19621   5.131   2.311   8.715 -1.6254 -2.0942 -0.3868
  173SAPI  C21719622   4.991   2.440   8.608  0.0596  0.2787  0.0248
  173SAPI  H17R19623   5.058   2.515   8.562 -0.3189  2.0119  2.1244
  173SAPI  H17S19624   4.890   2.486   8.620  0.1609 -0.0375  2.5722
  173SAPI  C21819625   4.955   2.321   8.505 -0.3549 -0.2041  0.2654
  173SAPI  H18R19626   5.041   2.253   8.486 -0.7887 -0.4415 -0.9437
  173SAPI  H18S19627   4.934   2.374   8.409 -1.2523 -1.2423 -0.1156
  173SAPI  C21919628   4.824   2.240   8.518 -0.2361  0.2727 -1.0844
  173SAPI  H19R19629   4.730   2.298   8.521 -0.4954 -0.1618 -0.6291
  173SAPI  H19S19630   4.810   2.185   8.614  0.0263  1.9323 -0.0596
  173SAPI  C22019631   4.814   2.131   8.419  0.2456  0.3281  0.3870
  173SAPI  H20R19632   4.820   2.168   8.314 -0.6090  1.8379  0.8390
  173SAPI  H20S19633   4.721   2.072   8.423 -1.4542  2.6564 -1.5013
  173SAPI  H20T19634   4.905   2.068   8.418 -0.2058 -0.3401  0.8612
  173SAPI   C3319635   5.286   3.236   9.996 -0.7254 -0.5321  0.3379
  173SAPI   H3X19636   5.366   3.264   9.925  0.4424  1.0552  2.1737
  173SAPI   H3Y19637   5.293   3.310  10.079  1.1447  0.0936 -0.3153
  173SAPI   C3419638   5.154   3.256   9.914  0.2203  0.2139 -0.3981
  173SAPI   H4X19639   5.133   3.364   9.930  0.5282  0.6892 -2.8491
  173SAPI   H4Y19640   5.073   3.194   9.959  0.5119 -0.6506 -1.0441
  173SAPI   C3519641   5.188   3.242   9.765  0.3353 -0.1225  0.1960
  173SAPI   H5X19642   5.273   3.307   9.735 -0.4910  0.5877 -0.6698
  173SAPI   H5Y19643   5.101   3.289   9.714  0.7257  1.7097  1.1523
  173SAPI   C3619644   5.176   3.102   9.713  0.1837  0.9635 -0.6812
  173SAPI   H6X19645   5.097   3.041   9.763  0.7052  0.2208 -0.7339
  173SAPI   H6Y19646   5.272   3.053   9.740 -1.3715 -1.0242  1.7866
  173SAPI   C3719647   5.136   3.083   9.567 -0.0620  0.0653  0.7169
  173SAPI   H7X19648   5.042   3.125   9.526  0.6612  0.6458 -0.4183
  173SAPI   H7Y19649   5.130   2.977   9.533  1.2093  0.0327  0.5235
  173SAPI   C3819650   5.250   3.136   9.473 -0.5854 -0.2360 -0.0909
  173SAPI   H8X19651   5.335   3.070   9.499 -1.3362 -1.5223 -0.8173
  173SAPI   H8Y19652   5.267   3.238   9.514 -1.7076 -0.2574  0.4596
  173SAPI   C3919653   5.216   3.133   9.324  0.3101 -0.6075 -0.1701
  173SAPI   H9X19654   5.296   3.183   9.265  0.7103  0.7300  1.4477
  173SAPI   H9Y19655   5.130   3.202   9.313  0.0160 -0.7920  0.9169
  173SAPI  C31019656   5.187   2.995   9.260  0.0724  0.2642  0.8262
  173SAPI  H10X19657   5.168   3.020   9.154  0.9485  0.0168  0.6005
  173SAPI  H10Y19658   5.091   2.959   9.301 -2.4010  2.2500 -2.6769
  173SAPI  C31119659   5.302   2.890   9.264 -0.0756 -0.7238 -1.4169
  173SAPI  H11X19660   5.263   2.793   9.226  0.1436 -2.2008  1.7946
  173SAPI  H11Y19661   5.311   2.869   9.373 -0.7074 -1.0218 -1.4106
  173SAPI  C31219662   5.430   2.911   9.178 -0.4225 -0.2393 -0.0461
  173SAPI  H12X19663   5.506   2.832   9.198 -0.1407 -0.5916 -2.2797
  173SAPI  H12Y19664   5.467   3.011   9.211  0.8486 -1.3834  2.2370
  173SAPI  C31319665   5.404   2.920   9.025 -0.1490 -0.3286  0.2714
  173SAPI  H13X19666   5.333   3.004   9.010 -1.9504 -1.6710  0.8795
  173SAPI  H13Y19667   5.367   2.820   8.993 -1.8910  0.2359  0.4313
  173SAPI  C31419668   5.522   2.955   8.938  0.6409 -0.2246 -0.1897
  173SAPI  H14X19669   5.606   2.886   8.957  0.5091 -0.3561 -0.0845
  173SAPI  H14Y19670   5.554   3.055   8.975 -1.0525  0.4540 -0.4307
  173SAPI  C31519671   5.490   2.959   8.792 -0.3494 -0.6912 -0.4363
  173SAPI  H15X19672   5.397   3.020   8.783  0.7858  1.6814  2.2889
  173SAPI  H15Y19673   5.468   2.855   8.760 -2.2208  0.1238 -1.9712
  173SAPI  C31619674   5.608   3.033   8.713  0.1971 -0.1287  0.4300
  173SAPI  H16X19675   5.685   2.954   8.700  0.2412 -0.0879  0.4413
  173SAPI  H16Y19676   5.650   3.112   8.780  1.6272 -0.6476  0.1847
  173SAPI  C31719677   5.543   3.102   8.586  0.2448 -0.0670 -0.1507
  173SAPI  H17X19678   5.476   3.186   8.616 -0.1094 -0.3729 -0.0785
  173SAPI  H17Y19679   5.473   3.028   8.540 -1.9294  0.4924  2.0611
  173SAPI  C31819680   5.648   3.156   8.488  0.0878 -0.1516 -0.5483
  173SAPI  H18X19681   5.704   3.241   8.533 -0.1347  0.6976 -1.8166
  173SAPI  H18Y19682   5.588   3.191   8.401  0.3715  2.1900  0.1208
  173SAPI  H18Z19683   5.727   3.082   8.464 -0.8665 -0.9799 -1.1937
  174SAPI   C1219684   0.080   2.925  11.074  0.1098  0.0308 -0.3556
  174SAPI    H219685   0.066   2.823  11.034 -3.0426 -0.0125  0.6226
  174SAPI    O219686  -0.009   3.016  11.003 -0.1635  0.0143  0.1570
  174SAPI   HO219687  -0.035   2.975  10.920  1.6924 -1.6350  0.2992
  174SAPI   C1319688   0.037   2.907  11.223 -0.2625  0.3880  0.8525
  174SAPI    H319689   0.110   2.839  11.271  0.0753  0.2634  0.1786
  174SAPI    O319690  -0.098   2.855  11.236 -0.1890  0.0307  0.0690
  174SAPI   HO319691  -0.165   2.910  11.194 -2.0244 -3.4694 -2.0896
  174SAPI   C1419692   0.046   3.046  11.291 -0.3176 -0.1654 -0.9351
  174SAPI    H419693  -0.011   3.123  11.234 -1.9130  1.8773  3.0089
  174SAPI    O419694   0.001   3.040  11.423  0.3710  0.2514 -0.2319
  174SAPI   HO419695  -0.095   3.039  11.426  0.3943 -0.3612  0.7473
  174SAPI   C1519696   0.193   3.096  11.282  0.4313  0.1268  0.0648
  174SAPI    H519697   0.260   3.034  11.345  1.0865  0.5342 -0.2212
  174SAPI    O519698   0.199   3.233  11.330  0.3433  0.4523 -0.2257
  174SAPI   HO519699   0.265   3.232  11.399  0.9590  0.0350 -0.8056
  174SAPI   C1619700   0.247   3.096  11.141 -0.8253 -0.3109  0.0187
  174SAPI    H619701   0.184   3.165  11.081 -0.3071 -1.0991 -1.4921
  174SAPI    O619702   0.388   3.131  11.138 -0.4222  0.0459 -0.1573
  174SAPI   HO619703   0.388   3.224  11.115  0.1117 -0.0181 -0.4382
  174SAPI   C1119704   0.228   2.963  11.070  0.2806 -0.2065  0.0413
  174SAPI    H119705   0.285   2.890  11.131 -0.1037  0.3690  1.1216
  174SAPI     P19706   0.362   2.860  10.868  0.0106  0.1968  0.0391
  174SAPI   O1319707   0.461   2.807  10.964 -0.0556 -0.0132  0.0611
  174SAPI   O1419708   0.418   2.904  10.741 -0.4338 -0.4919 -0.3793
  174SAPI   O1219709   0.268   2.978  10.933  0.7435  0.2747 -0.2432
  174SAPI   O1119710   0.261   2.747  10.831 -0.4018  0.5213 -0.4711
  174SAPI    C119711   0.147   2.754  10.745  0.2744  0.0900  0.1937
  174SAPI    HA19712   0.053   2.730  10.799 -1.5026  0.9453 -2.3299
  174SAPI    HB19713   0.121   2.852  10.698 -0.7477 -0.6559 -0.8440
  174SAPI    C219714   0.150   2.653  10.632 -0.0776 -0.5073  0.2729
  174SAPI    HS19715   0.201   2.561  10.668 -1.3927 -0.5701  2.1258
  174SAPI   O2119716   0.230   2.716  10.529  0.3178  0.1219  0.4077
  174SAPI   C2119717   0.326   2.648  10.472 -0.5181 -0.6141  0.0510
  174SAPI   O2219718   0.352   2.534  10.497  1.0848 -0.2261 -1.4577
  174SAPI   C2219719   0.403   2.741  10.372  0.8732 -0.3362 -0.1308
  174SAPI   H2R19720   0.323   2.799  10.320 -0.1113 -0.5936  1.0484
  174SAPI   H2S19721   0.467   2.801  10.439  1.7597 -2.3673  0.9063
  174SAPI    C319722   0.004   2.623  10.583  0.4592  0.5584  0.2071
  174SAPI    HX19723  -0.051   2.712  10.544  0.6509  1.9402  2.8146
  174SAPI    HY19724  -0.055   2.588  10.670  1.3928 -0.3371  0.4910
  174SAPI   O3119725  -0.005   2.513  10.487 -0.3468 -0.4787 -0.5933
  174SAPI   C3119726   0.014   2.564  10.361  0.2399  0.7565  0.0034
  174SAPI   O3219727   0.048   2.675  10.327  0.1012 -0.0963  0.3518
  174SAPI   C3219728  -0.017   2.462  10.259 -0.1331 -0.5193  0.1910
  174SAPI   H2X19729  -0.107   2.491  10.201  0.0901  0.4113  0.3028
  174SAPI   H2Y19730  -0.050   2.366  10.305  0.6346 -0.6671  0.4551
  174SAPI   C2319731   0.508   2.666  10.288  0.5779 -0.8683  0.0564
  174SAPI   H3R19732   0.553   2.589  10.354  0.8718 -1.1954 -0.5138
  174SAPI   H3S19733   0.586   2.744  10.273  0.6725 -0.3721  2.6331
  174SAPI   C2419734   0.463   2.613  10.158  0.0489 -0.1737 -0.5800
  174SAPI   H4R19735   0.389   2.534  10.182  0.9163 -0.5120  1.1023
  174SAPI   H4S19736   0.551   2.561  10.115  2.0418  1.6161  1.0632
  174SAPI   C2519737   0.397   2.716  10.064 -0.6828 -1.1897  0.0994
  174SAPI   H5R19738   0.294   2.740  10.091 -0.1852 -1.6906  2.7839
  174SAPI   C2619739   0.470   2.770   9.960 -0.6563 -0.6425 -0.3040
  174SAPI   H6R19740   0.425   2.850   9.899  0.2327 -0.1869 -0.3765
  174SAPI   C2719741   0.618   2.738   9.926  0.1486  0.2035 -0.2810
  174SAPI   H7R19742   0.680   2.720  10.017 -0.4161 -0.9276 -0.1073
  174SAPI   H7S19743   0.661   2.837   9.902  1.6435 -0.2900  0.2310
  174SAPI   C2819744   0.624   2.636   9.820 -0.3162  0.3518 -0.0686
  174SAPI   H8R19745   0.583   2.541   9.858  0.5278 -0.4054 -1.0323
  174SAPI   C2919746   0.687   2.643   9.698  0.3268 -0.3703 -0.4837
  174SAPI   H9R19747   0.677   2.556   9.632 -1.1665 -0.2537 -0.4517
  174SAPI  C21019748   0.752   2.766   9.641  0.0864 -0.0199 -0.3275
  174SAPI  H10R19749   0.862   2.762   9.657  0.3140  0.4899 -1.5895
  174SAPI  H10S19750   0.704   2.853   9.689 -0.1255 -0.8043  0.9322
  174SAPI  C21119751   0.733   2.771   9.496 -0.2592  0.3204  0.5160
  174SAPI  H11R19752   0.671   2.696   9.445 -2.7354  1.6056  1.4668
  174SAPI  C21219753   0.782   2.867   9.418 -0.4985  0.1925  0.8465
  174SAPI  H12R19754   0.733   2.873   9.320 -0.1929 -2.2527  0.4771
  174SAPI  C21319755   0.861   2.994   9.466 -0.4297 -0.5375  0.8988
  174SAPI  H13R19756   0.970   2.984   9.452 -0.3396 -1.8420  2.2374
  174SAPI  H13S19757   0.856   3.006   9.577 -0.4209 -3.6309  1.3061
  174SAPI  C21419758   0.830   3.129   9.401 -0.2337  0.4676  0.6300
  174SAPI  H14R19759   0.779   3.198   9.469  1.9365  1.6290  1.1722
  174SAPI  C21519760   0.865   3.174   9.273 -0.4284  0.1796 -1.2754
  174SAPI  H15R19761   0.843   3.277   9.242  0.7727  0.7565 -0.3048
  174SAPI  C21619762   0.939   3.100   9.174 -0.7373 -0.2972 -0.2511
  174SAPI  H16R19763   0.986   3.009   9.217  0.8321  0.2228 -0.7836
  174SAPI  H16S19764   1.016   3.171   9.136  0.6181 -1.6150 -0.0506
  174SAPI  C21719765   0.842   3.052   9.070 -0.2459  0.4562 -0.0518
  174SAPI  H17R19766   0.794   2.960   9.109 -0.5201  1.3088  1.7172
  174SAPI  H17S19767   0.915   3.016   8.994  0.9409  1.3412  0.6400
  174SAPI  C21819768   0.745   3.140   9.000 -0.1137  0.1408  0.4595
  174SAPI  H18R19769   0.796   3.217   8.939 -1.0330 -0.1676 -0.7206
  174SAPI  H18S19770   0.691   3.196   9.080  3.5146  0.4769  2.9338
  174SAPI  C21919771   0.653   3.054   8.910 -0.1862  0.2722  0.9232
  174SAPI  H19R19772   0.563   3.108   8.873  0.4083  0.8324  0.2569
  174SAPI  H19S19773   0.606   2.976   8.974 -0.1732 -0.4273  0.0987
  174SAPI  C22019774   0.731   3.000   8.787  0.2357 -0.6298 -0.4260
  174SAPI  H20R19775   0.774   3.082   8.726  0.4488  0.9898  1.7743
  174SAPI  H20S19776   0.655   2.948   8.724 -0.1184 -1.2002  0.4557
  174SAPI  H20T19777   0.810   2.932   8.825  2.1467  0.3187 -2.4566
  174SAPI   C3319778   0.094   2.437  10.150  0.5562 -0.3654  0.4664
  174SAPI   H3X19779   0.181   2.383  10.194  3.5334  1.9468 -2.1906
  174SAPI   H3Y19780   0.148   2.530  10.123  1.2021 -0.6836  0.6362
  174SAPI   C3419781   0.046   2.377  10.015 -0.3220  0.7745  0.0392
  174SAPI   H4X19782  -0.036   2.450   9.999  0.9530  1.9032 -1.7049
  174SAPI   H4Y19783   0.012   2.276  10.046 -1.3312 -0.0601 -3.3279
  174SAPI   C3519784   0.140   2.364   9.898  0.7338  1.2204  0.0711
  174SAPI   H5X19785   0.105   2.283   9.831  2.0464 -0.6170  1.5297
  174SAPI   H5Y19786   0.243   2.334   9.927  0.4792 -0.1106 -0.3161
  174SAPI   C3619787   0.150   2.489   9.803  0.5328  0.4977  0.0585
  174SAPI   H6X19788   0.162   2.588   9.853 -2.1618  2.0099 -1.9819
  174SAPI   H6Y19789   0.056   2.491   9.743  0.3289  2.3524  0.3798
  174SAPI   C3719790   0.258   2.467   9.698 -0.1514 -0.5557 -0.0771
  174SAPI   H7X19791   0.235   2.369   9.651 -1.7202  0.1647 -0.9009
  174SAPI   H7Y19792   0.364   2.472   9.731 -0.0256  0.5424 -0.6047
  174SAPI   C3819793   0.253   2.569   9.584 -0.0758  0.1498  0.4436
  174SAPI   H8X19794   0.284   2.672   9.613  2.3995  0.2441 -2.0632
  174SAPI   H8Y19795   0.146   2.584   9.557 -0.2319  0.4395  1.1995
  174SAPI   C3919796   0.328   2.538   9.458 -0.0560  0.3213 -0.0579
  174SAPI   H9X19797   0.304   2.435   9.424  2.6952 -0.8024  1.0889
  174SAPI   H9Y19798   0.436   2.536   9.487  0.4450 -0.5796 -1.8398
  174SAPI  C31019799   0.309   2.649   9.345  0.3499 -0.1883  0.1216
  174SAPI  H10X19800   0.301   2.748   9.395  0.2133  0.0882 -0.4463
  174SAPI  H10Y19801   0.214   2.629   9.291  0.6011  0.1770 -0.4641
  174SAPI  C31119802   0.422   2.648   9.246  0.2437 -0.0529  0.7487
  174SAPI  H11X19803   0.526   2.651   9.286  0.1798  0.0123  0.9111
  174SAPI  H11Y19804   0.414   2.747   9.198 -0.1707 -0.3562  0.1866
  174SAPI  C31219805   0.400   2.537   9.138 -0.2701  0.1204 -0.0316
  174SAPI  H12X19806   0.296   2.550   9.100  0.1322  3.2343 -0.2933
  174SAPI  H12Y19807   0.399   2.436   9.185 -0.2817 -0.1887 -0.6787
  174SAPI  C31319808   0.495   2.528   9.021  0.2100 -0.2456 -0.3169
  174SAPI  H13X19809   0.585   2.471   9.050 -0.9264 -1.9782 -0.0553
  174SAPI  H13Y19810   0.524   2.631   8.990  1.4253 -0.6263 -0.5077
  174SAPI  C31419811   0.429   2.466   8.897 -0.2716  0.1078 -0.6109
  174SAPI  H14X19812   0.334   2.516   8.869  0.1651 -0.0395 -2.4798
  174SAPI  H14Y19813   0.405   2.359   8.914  0.0823  0.0287 -0.5912
  174SAPI  C31519814   0.528   2.458   8.784  0.2818 -0.4447 -0.4778
  174SAPI  H15X19815   0.626   2.409   8.805  0.0726 -0.4965  0.3967
  174SAPI  H15Y19816   0.535   2.560   8.742 -1.7949  0.8394  2.0231
  174SAPI  C31619817   0.470   2.371   8.665  0.0161  0.2657  0.5538
  174SAPI  H16X19818   0.370   2.410   8.637  0.9072  1.7688 -0.7046
  174SAPI  H16Y19819   0.464   2.266   8.703 -1.2386 -0.9700 -2.7185
  174SAPI  C31719820   0.550   2.384   8.534  0.0074  0.3013 -0.3285
  174SAPI  H17X19821   0.653   2.404   8.572 -0.9029  2.3028  1.3179
  174SAPI  H17Y19822   0.515   2.476   8.482  0.4165 -0.4281 -1.9521
  174SAPI  C31819823   0.545   2.264   8.442  0.0790  0.1520  0.2903
  174SAPI  H18X19824   0.612   2.271   8.354  1.2336  0.3762  1.1708
  174SAPI  H18Y19825   0.441   2.235   8.414 -1.5394  2.5775  3.2157
  174SAPI  H18Z19826   0.591   2.173   8.485 -0.1473  0.0347  0.2873
  175SAPI   C1219827   0.453   6.324   6.195 -0.5519  0.3143 -0.0760
  175SAPI    H219828   0.465   6.216   6.214  1.9705  0.5559 -0.0229
  175SAPI    O219829   0.385   6.339   6.077 -0.7417  0.0496 -0.2184
  175SAPI   HO219830   0.383   6.433   6.058 -3.2130  0.1628  0.3273
  175SAPI   C1319831   0.385   6.388   6.318 -0.6457 -0.2973  0.7630
  175SAPI    H319832   0.460   6.375   6.398 -1.3584 -0.1142  1.4682
  175SAPI    O319833   0.277   6.318   6.354  0.6416  0.4533 -0.1432
  175SAPI   HO319834   0.209   6.320   6.287 -1.0125  3.8926  1.4138
  175SAPI   C1419835   0.364   6.543   6.307  0.2633  0.2059 -0.1338
  175SAPI    H419836   0.298   6.567   6.221  1.1154  4.7254  0.2228
  175SAPI    O419837   0.294   6.589   6.423 -0.6896 -0.0021 -0.3130
  175SAPI   HO419838   0.216   6.535   6.438 -1.4775  1.1897  0.0298
  175SAPI   C1519839   0.496   6.610   6.280  0.0239  0.3990 -0.2158
  175SAPI    H519840   0.559   6.604   6.372 -1.1415 -1.3166  0.5235
  175SAPI    O519841   0.472   6.753   6.250 -0.1303  0.1412  0.1575
  175SAPI   HO519842   0.401   6.752   6.185  0.9990 -0.3103 -1.0986
  175SAPI   C1619843   0.577   6.549   6.171 -0.6454  0.4938  0.5485
  175SAPI    H619844   0.532   6.580   6.074  1.5196  0.3034 -0.5910
  175SAPI    O619845   0.703   6.618   6.179 -0.6990 -0.6431 -0.6633
  175SAPI   HO619846   0.777   6.557   6.169  1.0199  1.3302 -0.7022
  175SAPI   C1119847   0.593   6.392   6.180 -0.7159 -0.5466  0.4252
  175SAPI    H119848   0.655   6.379   6.271  0.7218 -0.5916 -0.5300
  175SAPI     P19849   0.754   6.204   6.081  0.1963 -0.3486  0.3305
  175SAPI   O1319850   0.830   6.185   5.952 -0.0429 -0.6346  0.5066
  175SAPI   O1419851   0.670   6.093   6.113 -0.5068  0.6446  0.3542
  175SAPI   O1219852   0.672   6.345   6.071  0.3449  0.1055 -0.2881
  175SAPI   O1119853   0.853   6.230   6.194 -0.1627 -0.0405 -0.4667
  175SAPI    C119854   0.917   6.126   6.274  1.3059 -0.6175  0.4100
  175SAPI    HA19855   0.944   6.034   6.218 -0.9551  0.4114 -2.5908
  175SAPI    HB19856   1.013   6.169   6.312 -0.0313  2.3227  0.7549
  175SAPI    C219857   0.831   6.057   6.386 -0.0237  0.3814  0.1334
  175SAPI    HS19858   0.753   5.997   6.336  0.8874  1.0212 -2.1640
  175SAPI   O2119859   0.771   6.159   6.475 -0.0805  0.7669 -0.1558
  175SAPI   C2119860   0.662   6.110   6.533  0.6532  0.0240 -0.2704
  175SAPI   O2219861   0.610   6.002   6.506  0.5747  0.1983  0.0450
  175SAPI   C2219862   0.600   6.218   6.627 -0.4437 -0.2109  0.8298
  175SAPI   H2R19863   0.493   6.233   6.599 -0.1598 -1.7611 -1.3484
  175SAPI   H2S19864   0.622   6.182   6.730 -0.4309 -0.7837  0.6333
  175SAPI    C319865   0.918   5.958   6.465  0.0307  0.4205  0.2541
  175SAPI    HX19866   0.926   5.861   6.411 -0.8282  0.7778 -0.5418
  175SAPI    HY19867   0.864   5.936   6.560  0.8820 -1.5861  0.3261
  175SAPI   O3119868   1.047   6.021   6.501 -0.1277  0.4056 -1.0023
  175SAPI   C3119869   1.155   5.943   6.507  0.0863 -0.1371  0.7180
  175SAPI   O3219870   1.150   5.827   6.474 -0.2518  0.6252 -0.2623
  175SAPI   C3219871   1.282   6.026   6.548 -0.1787  0.0292 -0.1574
  175SAPI   H2X19872   1.251   6.097   6.628  1.0092 -1.4308  1.6854
  175SAPI   H2Y19873   1.310   6.084   6.458 -1.1319  0.1820 -0.3625
  175SAPI   C2319874   0.667   6.359   6.605 -0.1639 -1.0871 -0.1490
  175SAPI   H3R19875   0.696   6.378   6.500  0.2537 -1.2063 -0.0577
  175SAPI   H3S19876   0.766   6.356   6.655  0.2339 -0.4810 -0.8929
  175SAPI   C2419877   0.591   6.480   6.673 -0.6456 -0.8612 -0.1888
  175SAPI   H4R19878   0.577   6.437   6.775 -0.8914 -1.1225 -0.3307
  175SAPI   H4S19879   0.492   6.503   6.627 -0.4152  1.6974  0.4319
  175SAPI   C2519880   0.673   6.612   6.671 -0.0657  0.1533 -0.4248
  175SAPI   H5R19881   0.699   6.657   6.574 -1.1617 -1.3336 -1.4572
  175SAPI   C2619882   0.702   6.677   6.790 -0.5543 -0.4598  0.1382
  175SAPI   H6R19883   0.750   6.776   6.791  1.2736 -1.3092  0.9323
  175SAPI   C2719884   0.679   6.633   6.933 -0.5306  0.6993 -0.3462
  175SAPI   H7R19885   0.755   6.691   6.989  0.9861 -0.7387 -0.8230
  175SAPI   H7S19886   0.687   6.524   6.949 -1.0330  0.4966 -1.3531
  175SAPI   C2819887   0.541   6.668   6.976  0.3604 -0.3095  0.4293
  175SAPI   H8R19888   0.459   6.624   6.917  0.7827 -0.4143 -0.0867
  175SAPI   C2919889   0.505   6.750   7.078  0.5155 -0.2208  0.1950
  175SAPI   H9R19890   0.400   6.782   7.087  0.3837 -0.0766 -1.4573
  175SAPI  C21019891   0.599   6.818   7.171 -0.5348 -0.2234 -0.2149
  175SAPI  H10R19892   0.564   6.914   7.215  1.5633  0.7178 -0.5085
  175SAPI  H10S19893   0.690   6.851   7.117  0.5336 -0.0618  1.5871
  175SAPI  C21119894   0.648   6.719   7.277  0.2617  0.1934 -0.6409
  175SAPI  H11R19895   0.713   6.640   7.236  0.8301 -0.4894  1.4460
  175SAPI  C21219896   0.629   6.717   7.413  0.0117 -0.4558  0.9971
  175SAPI  H12R19897   0.675   6.636   7.471 -0.4701  0.2713  2.4530
  175SAPI  C21319898   0.546   6.815   7.494 -0.9171  0.3648  0.3787
  175SAPI  H13R19899   0.439   6.809   7.462 -1.2639  0.8346  1.4040
  175SAPI  H13S19900   0.591   6.912   7.462  0.1166 -0.8747 -2.1979
  175SAPI  C21419901   0.539   6.800   7.641  0.3378 -0.9085 -0.0695
  175SAPI  H14R19902   0.441   6.835   7.677  0.9589 -0.1204  0.9212
  175SAPI  C21519903   0.630   6.770   7.737  0.6103 -0.3392  0.7141
  175SAPI  H15R19904   0.602   6.760   7.843  0.9201 -2.9419  0.5950
  175SAPI  C21619905   0.771   6.739   7.717 -0.0597  0.2838  0.5849
  175SAPI  H16R19906   0.837   6.810   7.772  1.2757 -0.0700 -0.5009
  175SAPI  H16S19907   0.795   6.755   7.609 -3.3934 -0.8463 -0.4549
  175SAPI  C21719908   0.790   6.593   7.757 -0.1013  0.2520  0.4658
  175SAPI  H17R19909   0.742   6.529   7.680  1.6941  0.8233 -1.2379
  175SAPI  H17S19910   0.742   6.581   7.856 -0.3961  3.3348  0.7748
  175SAPI  C21819911   0.943   6.561   7.781  0.5253 -0.2524  0.5008
  175SAPI  H18R19912   0.978   6.611   7.874 -2.0586  1.0503  0.8555
  175SAPI  H18S19913   1.003   6.597   7.695  0.9758  0.2345  1.0119
  175SAPI  C21919914   0.971   6.407   7.809 -0.2768 -0.0742  0.5869
  175SAPI  H19R19915   0.944   6.339   7.725  3.1892 -1.0768  0.1246
  175SAPI  H19S19916   0.916   6.385   7.903 -1.4612 -0.7436 -0.2338
  175SAPI  C22019917   1.118   6.366   7.831 -0.1630 -0.4172  0.0254
  175SAPI  H20R19918   1.127   6.268   7.883 -2.5105 -0.7843 -0.1154
  175SAPI  H20S19919   1.175   6.434   7.896  0.3123 -0.3763 -0.4313
  175SAPI  H20T19920   1.174   6.370   7.735 -1.4976  0.8024 -0.7403
  175SAPI   C3319921   1.388   5.920   6.608 -0.6810 -0.7946  0.1016
  175SAPI   H3X19922   1.489   5.966   6.602 -0.6045 -0.9950 -0.1528
  175SAPI   H3Y19923   1.396   5.830   6.545 -0.3434 -0.5331 -0.2372
  175SAPI   C3419924   1.356   5.896   6.754  0.1576 -0.1869 -0.0252
  175SAPI   H4X19925   1.271   5.828   6.775  0.4882 -0.2094  1.3890
  175SAPI   H4Y19926   1.339   5.991   6.809 -0.1255 -0.2876  0.0653
  175SAPI   C3519927   1.474   5.815   6.815  0.5922 -0.4369  0.2732
  175SAPI   H5X19928   1.572   5.861   6.791  0.3998 -0.7672 -1.2194
  175SAPI   H5Y19929   1.474   5.718   6.761  0.0876 -0.9092  1.0928
  175SAPI   C3619930   1.438   5.771   6.965 -0.6767  0.1776  0.4473
  175SAPI   H6X19931   1.500   5.682   6.989 -0.3545 -0.7018 -3.0340
  175SAPI   H6Y19932   1.332   5.736   6.966 -1.2550  1.7267 -1.0285
  175SAPI   C3719933   1.453   5.863   7.085 -0.0401  0.0403 -0.0419
  175SAPI   H7X19934   1.384   5.947   7.065 -1.5233 -1.0532  0.3150
  175SAPI   H7Y19935   1.556   5.901   7.107 -0.3694  0.6604  0.4844
  175SAPI   C3819936   1.411   5.788   7.212  0.2363  0.5569  0.5608
  175SAPI   H8X19937   1.467   5.694   7.198 -0.2188  0.5527 -1.4236
  175SAPI   H8Y19938   1.303   5.762   7.204  0.6984 -0.9068 -1.4383
  175SAPI   C3919939   1.443   5.855   7.339 -0.0910  0.5172 -0.0486
  175SAPI   H9X19940   1.389   5.950   7.360 -1.3164 -0.8304  3.9208
  175SAPI   H9Y19941   1.553   5.864   7.345 -0.1446  0.1447  3.4209
  175SAPI  C31019942   1.397   5.769   7.456  0.7462 -0.1479 -0.6528
  175SAPI  H10X19943   1.451   5.674   7.438  1.0497  0.4709 -3.4711
  175SAPI  H10Y19944   1.288   5.752   7.438  1.4985 -2.7058 -3.6838
  175SAPI  C31119945   1.409   5.804   7.606  0.4733  0.4538 -0.3894
  175SAPI  H11X19946   1.373   5.907   7.627  0.6783  0.4644 -0.0859
  175SAPI  H11Y19947   1.517   5.797   7.628  0.1929 -1.1515  0.6395
  175SAPI  C31219948   1.332   5.707   7.693  0.0568  0.6592  0.3127
  175SAPI  H12X19949   1.371   5.606   7.670  1.8918  1.1979  0.8847
  175SAPI  H12Y19950   1.223   5.703   7.671  0.4874 -1.6524 -1.7719
  175SAPI  C31319951   1.355   5.754   7.835 -0.0820  0.0951 -0.5741
  175SAPI  H13X19952   1.299   5.849   7.839 -0.3455  0.0519 -2.3277
  175SAPI  H13Y19953   1.466   5.762   7.843  0.0120 -1.2065 -0.2609
  175SAPI  C31419954   1.300   5.672   7.949 -0.0763  0.2395 -0.1560
  175SAPI  H14X19955   1.330   5.566   7.936 -0.2724  0.3868 -2.2014
  175SAPI  H14Y19956   1.191   5.681   7.930  0.0437 -1.0404 -1.6185
  175SAPI  C31519957   1.344   5.724   8.081 -0.4144  0.0325 -0.2168
  175SAPI  H15X19958   1.292   5.821   8.098 -1.0314 -0.2377 -0.5482
  175SAPI  H15Y19959   1.452   5.750   8.086 -0.4254  0.4524 -1.7006
  175SAPI  C31619960   1.320   5.632   8.200 -0.2994 -0.2427  0.0253
  175SAPI  H16X19961   1.364   5.682   8.289  0.8228  0.5872 -0.9705
  175SAPI  H16Y19962   1.359   5.529   8.191 -1.1502 -1.1352  4.4304
  175SAPI  C31719963   1.171   5.609   8.236  0.6590 -0.7536 -0.7732
  175SAPI  H17X19964   1.114   5.559   8.155 -0.0729 -1.3639  0.1033
  175SAPI  H17Y19965   1.142   5.716   8.237  0.0261 -0.9190 -1.0615
  175SAPI  C31819966   1.142   5.558   8.380 -0.3552 -0.1341  0.3670
  175SAPI  H18X19967   1.154   5.448   8.376 -0.3031 -0.1806  1.5057
  175SAPI  H18Y19968   1.042   5.575   8.424  0.3473  1.6005  1.3920
  175SAPI  H18Z19969   1.216   5.588   8.457 -0.9498  1.0526  0.5038
  176SAPI   C1219970   4.324   6.369   6.430 -0.2634 -0.3534  0.0028
  176SAPI    H219971   4.385   6.380   6.523 -0.4524 -0.9430  0.2004
  176SAPI    O219972   4.192   6.335   6.470 -0.2220 -0.5882 -0.3348
  176SAPI   HO219973   4.198   6.241   6.486  0.5614 -0.5195 -0.1420
  176SAPI   C1319974   4.332   6.514   6.357 -0.3510 -0.3738 -0.3833
  176SAPI    H319975   4.440   6.531   6.340 -0.1224 -1.2550  0.1249
  176SAPI    O319976   4.289   6.619   6.448  0.3822 -0.7196  0.3644
  176SAPI   HO319977   4.343   6.694   6.423  1.9594 -1.5330  1.1273
  176SAPI   C1419978   4.255   6.519   6.228 -0.6317  0.4678 -0.1955
  176SAPI    H419979   4.153   6.488   6.258 -0.3437  0.1929  0.5253
  176SAPI    O419980   4.260   6.644   6.164 -0.4684 -0.7694 -0.0309
  176SAPI   HO419981   4.350   6.675   6.166 -0.6266 -0.1364 -1.5415
  176SAPI   C1519982   4.314   6.407   6.136 -0.8244  0.3229 -0.6190
  176SAPI    H519983   4.419   6.441   6.123 -1.3284  1.8001 -1.0554
  176SAPI    O519984   4.245   6.406   6.009 -0.1127  0.1490  0.2719
  176SAPI   HO519985   4.155   6.387   6.037  0.3536 -0.9046  1.0978
  176SAPI   C1619986   4.315   6.267   6.201 -0.9686  0.5088  0.2292
  176SAPI    H619987   4.210   6.238   6.224 -0.4507  0.8377  3.4430
  176SAPI    O619988   4.379   6.180   6.114  0.0289 -0.2674 -0.0541
  176SAPI   HO619989   4.351   6.089   6.124 -0.5339 -0.4339 -2.5328
  176SAPI   C1119990   4.389   6.268   6.334  0.0576 -0.0721 -0.0650
  176SAPI    H119991   4.488   6.312   6.307  2.0132 -3.1218  1.5508
  176SAPI     P19992   4.528   6.091   6.487  0.0802  0.2865  0.2192
  176SAPI   O1319993   4.651   6.121   6.409  0.2540  0.6398 -0.1318
  176SAPI   O1419994   4.513   5.952   6.520  0.1087  0.5633 -0.1331
  176SAPI   O1219995   4.402   6.145   6.396 -1.0017  0.0894  0.6511
  176SAPI   O1119996   4.530   6.181   6.619 -0.0921  0.0509  0.4194
  176SAPI    C119997   4.427   6.154   6.714  0.6598  0.3105  0.0872
  176SAPI    HA19998   4.409   6.249   6.769  0.3979 -0.0023  0.5420
  176SAPI    HB19999   4.324   6.132   6.678 -0.5622  5.0962 -0.0737
  176SAPI    C220000   4.475   6.062   6.827  0.5166  1.0693 -0.4718
  176SAPI    HS20001   4.454   5.959   6.791 -1.6659  1.2431  0.1542
  176SAPI   O2120002   4.406   6.104   6.950  0.2200  0.3327  0.2571
  176SAPI   C2120003   4.357   5.996   7.021  0.2700 -1.2116  0.3080
  176SAPI   O2220004   4.357   5.880   6.983 -0.1706  0.4745 -0.0418
  176SAPI   C2220005   4.276   6.050   7.136  0.1821  0.2364  0.1008
  176SAPI   H2R20006   4.291   6.158   7.156 -0.4555  0.6770 -1.6442
  176SAPI   H2S20007   4.173   6.054   7.093 -0.1467 -0.6554  0.7695
  176SAPI    C320008   4.632   6.069   6.845 -0.0348 -0.1748  0.0003
  176SAPI    HX20009   4.656   6.176   6.866  0.2332 -0.2127 -0.1126
  176SAPI    HY20010   4.689   6.045   6.752  0.2234 -1.6960  0.5216
  176SAPI   O3120011   4.679   5.999   6.959 -0.0331  0.5081  0.1056
  176SAPI   C3120012   4.677   5.871   6.944 -0.8119 -0.4375  0.2069
  176SAPI   O3220013   4.647   5.811   6.842 -0.0006  0.3818 -0.0152
  176SAPI   C3220014   4.710   5.810   7.076  0.1746 -1.7366 -0.4539
  176SAPI   H2X20015   4.700   5.885   7.157 -3.5578 -2.8479  0.3052
  176SAPI   H2Y20016   4.818   5.784   7.076  1.7904  3.8260 -0.7605
  176SAPI   C2320017   4.274   5.964   7.251 -0.5085 -0.0046  0.4837
  176SAPI   H3R20018   4.266   5.856   7.224 -0.7573 -0.0594  0.7682
  176SAPI   H3S20019   4.184   5.985   7.312 -1.4549 -2.0496 -0.1051
  176SAPI   C2420020   4.400   5.981   7.345  0.2248 -0.0215  0.6905
  176SAPI   H4R20021   4.376   6.074   7.400  0.5488  1.2856 -1.2595
  176SAPI   H4S20022   4.492   6.007   7.289 -0.8116 -1.6656 -1.9532
  176SAPI   C2520023   4.432   5.859   7.429 -0.4348  0.2965 -0.7560
  176SAPI   H5R20024   4.490   5.792   7.363  0.3645  0.7543 -0.5319
  176SAPI   C2620025   4.397   5.822   7.552 -0.7097  0.0609  0.2960
  176SAPI   H6R20026   4.435   5.725   7.586 -1.1732  0.5361  2.3551
  176SAPI   C2720027   4.313   5.904   7.652  0.1385  1.1707 -0.1437
  176SAPI   H7R20028   4.255   5.983   7.599  0.3740 -0.2449 -2.6985
  176SAPI   H7S20029   4.376   5.955   7.727 -0.0176 -0.8379  1.4280
  176SAPI   C2820030   4.212   5.802   7.712  0.6544  0.4706  0.4144
  176SAPI   H8R20031   4.161   5.740   7.636  2.1200 -0.0127 -0.2088
  176SAPI   C2920032   4.188   5.782   7.839 -0.4781  0.3283  0.1083
  176SAPI   H9R20033   4.125   5.694   7.861 -1.1381  0.6398 -0.5149
  176SAPI  C21020034   4.241   5.856   7.960  0.0713 -0.2917  0.3707
  176SAPI  H10R20035   4.286   5.954   7.934 -0.6670  1.1883  4.0420
  176SAPI  H10S20036   4.316   5.807   8.026  1.5188  0.5380 -0.6127
  176SAPI  C21120037   4.119   5.905   8.037 -0.3065 -0.6328 -0.0913
  176SAPI  H11R20038   4.056   5.966   7.971  0.4818 -0.6790 -0.9178
  176SAPI  C21220039   4.077   5.886   8.161 -0.2709 -0.8686  0.2690
  176SAPI  H12R20040   3.991   5.942   8.200 -0.6465 -0.8858 -0.5294
  176SAPI  C21320041   4.153   5.805   8.269  0.2427  0.4148 -0.5714
  176SAPI  H13R20042   4.210   5.726   8.217 -0.7431  0.1195 -1.2337
  176SAPI  H13S20043   4.067   5.754   8.318  0.4529 -0.2960 -0.9313
  176SAPI  C21420044   4.231   5.895   8.367  0.2028 -0.4807  0.1425
  176SAPI  H14R20045   4.329   5.911   8.321  1.8381 -2.4728  2.6756
  176SAPI  C21520046   4.195   5.939   8.489  0.6419  0.1033  0.1068
  176SAPI  H15R20047   4.265   6.001   8.547 -1.4072  3.3697 -0.6011
  176SAPI  C21620048   4.058   5.909   8.564  0.2813 -0.2403 -0.2044
  176SAPI  H16R20049   4.013   5.822   8.510  2.0115  0.2038 -2.4969
  176SAPI  H16S20050   3.990   5.996   8.555 -0.0826 -0.6587 -1.7945
  176SAPI  C21720051   4.057   5.870   8.714  0.0232  0.2640 -0.7613
  176SAPI  H17R20052   4.111   5.774   8.728 -0.1545  0.1071 -1.1508
  176SAPI  H17S20053   3.953   5.850   8.744  0.4995  1.4989  2.0381
  176SAPI  C21820054   4.107   5.977   8.818 -0.7732  0.1051  0.0462
  176SAPI  H18R20055   4.209   5.990   8.776 -0.2488 -1.9793  0.5351
  176SAPI  H18S20056   4.107   5.961   8.928  0.9938 -0.1968  0.0405
  176SAPI  C21920057   4.025   6.109   8.805 -0.6695  0.5125  0.0338
  176SAPI  H19R20058   3.998   6.136   8.700 -0.4602  0.6835  0.0244
  176SAPI  H19S20059   4.083   6.197   8.841  1.2399 -0.8791  0.5258
  176SAPI  C22020060   3.913   6.119   8.910 -0.8187  0.4520  0.0828
  176SAPI  H20R20061   3.947   6.086   9.010 -2.5404  0.4854  0.7048
  176SAPI  H20S20062   3.828   6.049   8.895 -0.5446 -0.3218  1.9279
  176SAPI  H20T20063   3.883   6.222   8.935  3.2660  1.5793  1.1410
  176SAPI   C3320064   4.627   5.685   7.118 -0.1710 -0.5644  0.2211
  176SAPI   H3X20065   4.632   5.595   7.053  2.2121  0.3410 -0.9425
  176SAPI   H3Y20066   4.521   5.715   7.130 -0.0582 -0.7096  1.7675
  176SAPI   C3420067   4.664   5.637   7.256 -0.6329  1.1081 -0.1917
  176SAPI   H4X20068   4.668   5.713   7.337 -0.0946  0.3347  0.5212
  176SAPI   H4Y20069   4.763   5.587   7.253 -2.5466 -3.1470  0.4634
  176SAPI   C3520070   4.559   5.535   7.303 -0.3159 -0.5032  0.6722
  176SAPI   H5X20071   4.539   5.458   7.226 -3.4085  0.8175 -0.0066
  176SAPI   H5Y20072   4.459   5.583   7.308  0.0645  0.2311  1.9116
  176SAPI   C3620073   4.605   5.467   7.433 -0.1581 -0.1644 -0.7268
  176SAPI   H6X20074   4.611   5.547   7.510 -2.5100 -0.0034 -0.6417
  176SAPI   H6Y20075   4.706   5.423   7.419  0.1692  0.6464 -0.9944
  176SAPI   C3720076   4.506   5.358   7.478  0.1484 -0.0680  0.4903
  176SAPI   H7X20077   4.476   5.289   7.395  2.4434  0.6135 -1.0008
  176SAPI   H7Y20078   4.414   5.405   7.519  0.8501  1.6190  0.2130
  176SAPI   C3820079   4.568   5.269   7.581  0.5668 -0.0466 -0.2991
  176SAPI   H8X20080   4.587   5.337   7.667 -1.2263  0.0574  0.0555
  176SAPI   H8Y20081   4.660   5.213   7.555  0.3394 -0.2523 -0.6793
  176SAPI   C3920082   4.465   5.170   7.623 -0.5585 -0.4774 -0.3176
  176SAPI   H9X20083   4.437   5.107   7.536  0.1827 -1.0616 -0.1475
  176SAPI   H9Y20084   4.376   5.219   7.668  0.9547  0.9910  1.2673
  176SAPI  C31020085   4.509   5.072   7.735 -0.2383  0.3223 -0.1076
  176SAPI  H10X20086   4.534   5.130   7.827 -0.5193 -0.0272  0.1936
  176SAPI  H10Y20087   4.600   5.014   7.710 -0.4327 -0.3562  0.7223
  176SAPI  C31120088   4.396   4.973   7.779 -0.2275 -0.1877 -0.0279
  176SAPI  H11X20089   4.430   4.870   7.803 -0.4536  0.0840  1.5776
  176SAPI  H11Y20090   4.343   4.961   7.683  1.3701  2.6781 -1.3920
  176SAPI  C31220091   4.312   5.011   7.901  0.2191  0.0452 -0.6155
  176SAPI  H12X20092   4.226   4.942   7.914 -0.4335  1.0071  0.3532
  176SAPI  H12Y20093   4.273   5.112   7.876  0.0317 -0.2123 -1.4091
  176SAPI  C31320094   4.390   5.016   8.033  0.1317  0.2258 -0.2039
  176SAPI  H13X20095   4.486   5.071   8.020  0.0187  0.3898 -0.3634
  176SAPI  H13Y20096   4.412   4.912   8.063 -2.3665 -0.3154 -0.0428
  176SAPI  C31420097   4.300   5.085   8.141  0.3097  0.2868  0.9900
  176SAPI  H14X20098   4.204   5.031   8.142  0.7838 -0.5705  0.9347
  176SAPI  H14Y20099   4.287   5.193   8.117  1.1880 -0.2599 -2.4283
  176SAPI  C31520100   4.364   5.071   8.274  0.5267  0.3860  0.3967
  176SAPI  H15X20101   4.461   5.125   8.281  0.5179  0.2301  2.1291
  176SAPI  H15Y20102   4.390   4.963   8.280  0.6363  0.1177 -3.0217
  176SAPI  C31620103   4.270   5.113   8.388 -0.1079  0.2478  0.3890
  176SAPI  H16X20104   4.172   5.063   8.371  0.4608 -0.4239 -1.1309
  176SAPI  H16Y20105   4.268   5.224   8.381 -1.8360  0.4933  3.3217
  176SAPI  C31720106   4.337   5.094   8.530  0.3789  0.4235  0.3467
  176SAPI  H17X20107   4.438   5.140   8.520  2.3424 -3.6140 -0.3595
  176SAPI  H17Y20108   4.342   4.985   8.549 -0.2699  0.4003  0.4056
  176SAPI  C31820109   4.249   5.160   8.635  0.3757  0.9833 -0.1640
  176SAPI  H18X20110   4.153   5.106   8.653  0.3181  1.1616  0.0732
  176SAPI  H18Y20111   4.225   5.263   8.601 -0.1210  1.2971  1.0891
  176SAPI  H18Z20112   4.316   5.166   8.723  0.9816  1.2541 -0.6331
  177SLPC     N20113   2.631   4.131  10.943  0.2567  0.4669  0.3451
  177SLPC   C1320114   2.670   4.086  11.084  0.4421 -0.1857  0.4367
  177SLPC  H13A20115   2.612   4.139  11.159  0.9440  1.5154 -0.3184
  177SLPC  H13B20116   2.655   3.980  11.093 -0.2287 -0.1672 -0.2599
  177SLPC  H13C20117   2.775   4.109  11.090  0.7176 -0.3613 -2.2016
  177SLPC   C1420118   2.722   4.065  10.844  0.7528 -0.1104 -0.2484
  177SLPC  H14A20119   2.726   3.958  10.862  0.3663  0.0934  1.1230
  177SLPC  H14B20120   2.694   4.067  10.740 -1.2880 -4.4264 -0.0193
  177SLPC  H14C20121   2.824   4.102  10.843  0.9105 -0.5369 -1.2384
  177SLPC   C1520122   2.632   4.279  10.925 -0.1078 -0.3925 -0.3420
  177SLPC  H15A20123   2.543   4.318  10.972 -1.5498 -1.8685 -1.7110
  177SLPC  H15B20124   2.721   4.328  10.962 -0.2697  2.1701 -3.0013
  177SLPC  H15C20125   2.623   4.310  10.821  1.7265 -1.4591 -0.8686
  177SLPC   C1220126   2.490   4.086  10.920  0.5135 -0.8273 -0.6100
  177SLPC  H12A20127   2.489   3.978  10.920  1.2296 -0.8402  0.5209
  177SLPC  H12B20128   2.462   4.118  10.820 -1.8367  0.7691  0.4633
  177SLPC   C1120129   2.372   4.131  11.017 -0.5772  0.1571  0.1854
  177SLPC  H11A20130   2.374   4.104  11.125 -0.1056  0.2899  0.2136
  177SLPC  H11B20131   2.276   4.088  10.981  0.1250  0.1113 -1.7141
  177SLPC     P20132   2.252   4.335  10.909 -0.1478  0.0238  0.1502
  177SLPC   O1320133   2.118   4.326  10.967  0.2061 -0.2535  0.1057
  177SLPC   O1420134   2.310   4.463  10.866 -0.3084  0.0631  0.4884
  177SLPC   O1220135   2.357   4.274  11.018 -0.0338  0.1561  0.1903
  177SLPC   O1120136   2.268   4.233  10.790 -0.3624 -0.1004  0.2002
  177SLPC    C120137   2.163   4.206  10.696  0.1035  0.5804  0.4730
  177SLPC    HA20138   2.076   4.159  10.745  0.1022  1.6014  1.4891
  177SLPC    HB20139   2.126   4.302  10.652  0.2876  0.6485  0.4649
  177SLPC    C220140   2.219   4.116  10.580  0.0499 -0.5663  0.2760
  177SLPC    HS20141   2.286   4.041  10.626  1.0503 -1.4803 -2.4591
  177SLPC   O2120142   2.299   4.192  10.480 -0.1785 -0.2869 -0.1096
  177SLPC   C2120143   2.424   4.210  10.528 -0.8643  0.0042 -0.2657
  177SLPC   O2220144   2.476   4.154  10.626  0.1742  0.2740 -0.3937
  177SLPC   C2220145   2.500   4.295  10.424  0.0296 -0.5068  0.3435
  177SLPC   H2R20146   2.476   4.401  10.448 -1.7918 -0.5766 -1.0117
  177SLPC   H2S20147   2.607   4.267  10.434  0.0771 -0.9456 -1.2241
  177SLPC    C320148   2.103   4.044  10.512  0.5797  0.2675 -0.4318
  177SLPC    HX20149   2.056   3.972  10.581 -1.1832  1.6021 -0.1838
  177SLPC    HY20150   2.146   3.994  10.422  1.7450 -0.5662  0.5638
  177SLPC   O3120151   2.003   4.140  10.457  0.2805 -0.1496  0.3069
  177SLPC   C3120152   1.884   4.149  10.509 -0.3957 -0.5027  0.4132
  177SLPC   O3220153   1.846   4.089  10.610  0.1231  0.1997 -0.1046
  177SLPC   C3220154   1.792   4.251  10.420 -0.0761 -0.4958 -0.3024
  177SLPC   H2X20155   1.831   4.254  10.316 -0.7516  0.1521 -0.5421
  177SLPC   H2Y20156   1.821   4.349  10.462 -0.0626 -0.5008 -0.2993
  177SLPC   C2320157   2.457   4.288  10.274  1.2960 -0.2071  0.0819
  177SLPC   H3R20158   2.493   4.376  10.217  1.5291  1.0559  2.0996
  177SLPC   H3S20159   2.348   4.279  10.254  1.4250 -0.9693 -0.3204
  177SLPC   C2420160   2.522   4.175  10.195 -0.7026 -0.9787 -0.1076
  177SLPC   H4R20161   2.462   4.082  10.205 -0.8522 -0.9421 -0.6206
  177SLPC   H4S20162   2.623   4.159  10.239 -0.7274 -0.5634  0.0955
  177SLPC   C2520163   2.537   4.213  10.043 -0.0801  0.0025 -0.8364
  177SLPC   H5R20164   2.611   4.142  10.000  0.9353  0.4919  0.0660
  177SLPC   H5S20165   2.580   4.315  10.034  2.2268 -0.9309 -1.0872
  177SLPC   C2620166   2.398   4.209   9.982  0.5496 -0.1822 -0.0590
  177SLPC   H6R20167   2.333   4.279  10.039 -1.4090  0.1767 -2.5364
  177SLPC   H6S20168   2.363   4.103   9.981  0.7690 -0.2889  1.3732
  177SLPC   C2720169   2.413   4.252   9.837  0.4609 -0.6686 -0.6355
  177SLPC   H7R20170   2.480   4.340   9.827 -1.1740  0.6627 -0.3248
  177SLPC   H7S20171   2.310   4.283   9.808  0.6513  0.1352 -0.4701
  177SLPC   C2820172   2.455   4.140   9.736 -0.2715 -0.2035  0.0454
  177SLPC   H8R20173   2.382   4.058   9.747 -0.0432 -0.3467  0.5035
  177SLPC   H8S20174   2.556   4.111   9.772  1.4334  1.1867 -3.1430
  177SLPC   C2920175   2.473   4.194   9.598  0.4115 -0.0060  0.5185
  177SLPC   H9R20176   2.571   4.243   9.588  0.7782 -0.8881 -0.3989
  177SLPC  C21020177   2.388   4.194   9.491  0.6427  0.6504 -0.4618
  177SLPC  H10R20178   2.424   4.226   9.392  3.0730  1.8884  0.7217
  177SLPC  C21120179   2.253   4.133   9.484  0.6579  0.5049  0.3207
  177SLPC  H11R20180   2.239   4.092   9.382 -0.2077 -2.2094  1.4329
  177SLPC  H11S20181   2.260   4.049   9.556  0.0278 -0.7956 -1.0648
  177SLPC  C21220182   2.130   4.217   9.517  0.2130  0.0153  0.0482
  177SLPC  H12R20183   2.134   4.300   9.446  0.0904 -0.3798 -0.4271
  177SLPC  C21320184   2.029   4.189   9.604 -1.0728 -0.0946 -0.2698
  177SLPC  H13R20185   1.950   4.266   9.600 -0.8103  0.1413 -1.2509
  177SLPC  C21420186   2.014   4.069   9.691 -0.2453  0.3629 -0.8404
  177SLPC  H14R20187   2.110   4.013   9.690  0.0867  0.9335 -1.6435
  177SLPC  H14S20188   1.928   4.004   9.669  0.1568 -0.2534 -0.6209
  177SLPC  C21520189   1.993   4.121   9.839 -0.1941  0.2286  0.2270
  177SLPC  H15R20190   1.905   4.188   9.836  0.6604  1.6477  2.9795
  177SLPC  H15S20191   2.082   4.182   9.866  0.8701 -0.2579 -1.9301
  177SLPC  C21620192   1.970   4.004   9.937  0.2275 -0.0058  0.1104
  177SLPC  H16R20193   2.040   3.919   9.924  1.6017  1.0558  0.2229
  177SLPC  H16S20194   1.876   3.949   9.921 -0.4090 -0.2809  3.8323
  177SLPC  C21720195   1.965   4.059  10.083 -0.4240  0.5120  0.2205
  177SLPC  H17R20196   1.946   3.972  10.149  0.4372 -0.9102 -1.3396
  177SLPC  H17S20197   1.879   4.129  10.079 -1.7695 -1.1071 -3.4981
  177SLPC  C21820198   2.081   4.141  10.139  0.0963 -0.3682  0.1871
  177SLPC  H18R20199   2.081   4.245  10.099 -0.4195 -0.9614 -1.4378
  177SLPC  H18S20200   2.179   4.090  10.127 -0.1078 -0.8012  0.3258
  177SLPC  H18T20201   2.070   4.161  10.247  1.6972 -0.1549  0.3392
  177SLPC   C3320202   1.633   4.233  10.433 -0.1080  0.1144 -0.5440
  177SLPC   H3X20203   1.594   4.295  10.517 -0.9604  0.7093 -1.3582
  177SLPC   H3Y20204   1.614   4.124  10.441  0.4629  0.0756  0.4865
  177SLPC   C3420205   1.568   4.296  10.308 -0.3501 -0.6259 -1.5821
  177SLPC   H4X20206   1.625   4.390  10.297  0.7642 -0.9812  0.5419
  177SLPC   H4Y20207   1.458   4.309  10.320 -0.6975 -1.9417 -2.9702
  177SLPC   C3520208   1.557   4.206  10.181  0.3766  0.1030  0.3763
  177SLPC   H5X20209   1.478   4.129  10.195  0.1075 -0.0596 -1.6825
  177SLPC   H5Y20210   1.649   4.143  10.175  1.0570  1.0785  0.4178
  177SLPC   C3620211   1.538   4.276  10.052 -0.5948  0.2957  0.9609
  177SLPC   H6X20212   1.585   4.376  10.043 -0.5227  0.3304  1.7101
  177SLPC   H6Y20213   1.429   4.296  10.040 -0.7883 -0.3094  1.6691
  177SLPC   C3720214   1.598   4.193   9.933  0.3267  0.1790 -0.2919
  177SLPC   H7X20215   1.545   4.096   9.932 -1.0547  0.8858 -2.3079
  177SLPC   H7Y20216   1.709   4.185   9.943  0.4398 -0.9794 -2.0897
  177SLPC   C3820217   1.564   4.254   9.799 -0.2026  0.3826  0.6260
  177SLPC   H8X20218   1.607   4.356   9.795  1.5074 -0.2879  0.9676
  177SLPC   H8Y20219   1.455   4.274   9.790 -0.2413  0.4111  1.1291
  177SLPC   C3920220   1.614   4.174   9.677 -0.2126  0.5149  0.7867
  177SLPC   H9X20221   1.589   4.067   9.697  2.0434  0.1145  1.6982
  177SLPC   H9Y20222   1.724   4.188   9.675 -0.5845  4.4510  0.4588
  177SLPC  C31020223   1.562   4.225   9.546  0.4155  0.0831 -0.1054
  177SLPC  H10X20224   1.588   4.332   9.530  1.0873 -0.3040 -1.7795
  177SLPC  H10Y20225   1.452   4.216   9.530  0.5962  1.0931 -2.3457
  177SLPC  C31120226   1.643   4.176   9.426 -0.3267 -0.4717  1.0791
  177SLPC  H11X20227   1.630   4.066   9.415  0.5735 -0.7182  2.2596
  177SLPC  H11Y20228   1.752   4.197   9.423 -0.2808 -0.6813 -2.3166
  177SLPC  C31220229   1.589   4.240   9.296 -0.1029  0.5691  0.7248
  177SLPC  H12X20230   1.604   4.348   9.316  2.0809  0.3813  0.4069
  177SLPC  H12Y20231   1.484   4.206   9.286  0.0971  0.6333 -2.2741
  177SLPC  C31320232   1.662   4.176   9.179 -0.4690 -0.8729  0.2549
  177SLPC  H13X20233   1.649   4.067   9.195 -0.0745 -0.7034  1.8606
  177SLPC  H13Y20234   1.770   4.195   9.196 -0.6989  1.4164 -0.3916
  177SLPC  C31420235   1.640   4.236   9.041 -0.5841  0.4720  0.8111
  177SLPC  H14X20236   1.738   4.228   8.988 -0.0945  0.4457  1.7081
  177SLPC  H14Y20237   1.612   4.343   9.049 -1.3146  0.5573 -1.7546
  177SLPC  C31520238   1.518   4.157   8.986 -0.1421  0.1049  0.1401
  177SLPC  H15X20239   1.480   4.207   8.895  3.7037 -0.5630 -2.0380
  177SLPC  H15Y20240   1.432   4.161   9.057 -0.6103  2.2666 -0.4895
  177SLPC  C31620241   1.550   4.021   8.940  0.7027 -0.3805 -0.2735
  177SLPC  H16X20242   1.564   3.962   9.033 -1.9180  0.0269  0.4571
  177SLPC  H16Y20243   1.639   4.013   8.874 -0.5634 -0.6993 -2.0218
  177SLPC  C31720244   1.440   3.953   8.855 -0.1736 -0.0867 -0.3244
  177SLPC  H17X20245   1.424   4.008   8.760 -1.1931  1.0276  0.4482
  177SLPC  H17Y20246   1.340   3.962   8.903 -0.6436 -1.6988 -0.9190
  177SLPC  C31820247   1.471   3.808   8.831  0.4955  0.2977 -0.5038
  177SLPC  H18X20248   1.429   3.758   8.741  0.1828  0.7877 -0.6316
  177SLPC  H18Y20249   1.445   3.745   8.919  0.2477  0.9294 -0.1186
  177SLPC  H18Z20250   1.580   3.790   8.823  0.0651 -2.3956 -1.3611
  178SLPC     N20251   2.717   5.919  10.764 -0.3938  0.0017 -0.0533
  178SLPC   C1320252   2.798   6.019  10.686  0.2183 -0.2211  0.7423
  178SLPC  H13A20253   2.861   6.071  10.757  1.7018  0.3905 -0.9645
  178SLPC  H13B20254   2.858   5.968  10.613  0.7317  0.8931  0.3500
  178SLPC  H13C20255   2.731   6.084  10.631 -0.0074 -1.5370 -0.5899
  178SLPC   C1420256   2.647   6.009  10.865 -0.0280  0.2895  0.0415
  178SLPC  H14A20257   2.714   6.036  10.945  0.9211  0.8893 -0.9220
  178SLPC  H14B20258   2.628   6.105  10.820 -2.3766 -1.3921 -2.9101
  178SLPC  H14C20259   2.562   5.958  10.907 -0.2053 -1.0908 -1.8546
  178SLPC   C1520260   2.809   5.824  10.831 -0.3423  0.4562 -0.0894
  178SLPC  H15A20261   2.771   5.796  10.928  1.7115 -1.1936  0.3223
  178SLPC  H15B20262   2.829   5.734  10.774  0.8935 -0.2272  1.3611
  178SLPC  H15C20263   2.902   5.871  10.856 -0.5763  0.8968 -0.0500
  178SLPC   C1220264   2.616   5.848  10.680  0.5062  0.4363  0.0651
  178SLPC  H12A20265   2.542   5.789  10.732 -0.1165 -0.2782 -1.5400
  178SLPC  H12B20266   2.666   5.776  10.618  1.2424  1.3326 -0.4061
  178SLPC   C1120267   2.526   5.936  10.585  0.4745 -0.8754 -0.1951
  178SLPC  H11A20268   2.454   5.864  10.543 -1.9760  0.4706  1.4757
  178SLPC  H11B20269   2.591   5.980  10.506  1.4008 -1.9071 -0.0384
  178SLPC     P20270   2.403   6.175  10.610 -0.2068 -0.3397  0.5052
  178SLPC   O1320271   2.282   6.213  10.689  0.8953  0.1634 -0.2734
  178SLPC   O1420272   2.512   6.274  10.616  0.2954 -0.2955  0.0884
  178SLPC   O1220273   2.461   6.036  10.666 -0.4310 -0.2449  0.3783
  178SLPC   O1120274   2.363   6.151  10.458  0.4578 -0.1890 -0.7428
  178SLPC    C120275   2.226   6.150  10.422  0.4391 -0.3499 -0.6148
  178SLPC    HA20276   2.171   6.236  10.468 -3.3940 -3.4990  1.3052
  178SLPC    HB20277   2.221   6.154  10.311  0.9020  1.8217 -0.6041
  178SLPC    C220278   2.156   6.013  10.460 -0.2116 -0.0374  0.4453
  178SLPC    HS20279   2.153   6.004  10.570 -0.0685  4.1432  0.9626
  178SLPC   O2120280   2.238   5.903  10.411 -0.1980  0.4521  0.3778
  178SLPC   C2120281   2.201   5.781  10.428 -0.3675 -0.6090  0.3505
  178SLPC   O2220282   2.101   5.743  10.493 -0.3936  0.6700  0.3255
  178SLPC   C2220283   2.302   5.678  10.360 -0.5818 -0.2781  0.0736
  178SLPC   H2R20284   2.402   5.715  10.392 -0.3180 -1.7689  1.0670
  178SLPC   H2S20285   2.289   5.573  10.393  3.2819 -0.3173  2.0709
  178SLPC    C320286   2.008   6.023  10.401 -0.0580  0.1172 -0.5116
  178SLPC    HX20287   1.961   6.111  10.450 -0.1925 -0.2290 -0.0033
  178SLPC    HY20288   1.956   5.928  10.425 -0.8966  0.7023  0.0806
  178SLPC   O3120289   2.012   6.050  10.259 -0.0556  0.2582  0.4070
  178SLPC   C3120290   1.941   5.978  10.183 -0.2056  0.3640 -0.5151
  178SLPC   O3220291   1.878   5.876  10.216 -0.4622 -0.0078 -0.1117
  178SLPC   C3220292   1.966   6.032  10.045 -0.1247 -0.2063  0.0112
  178SLPC   H2X20293   2.074   6.016  10.023 -0.5613 -1.6146 -1.3042
  178SLPC   H2Y20294   1.945   6.142  10.040  2.1549  0.2319 -3.9968
  178SLPC   C2320295   2.295   5.684  10.209 -0.3651 -0.1333  0.5465
  178SLPC   H3R20296   2.383   5.626  10.174 -0.5765 -0.4575  0.5463
  178SLPC   H3S20297   2.311   5.789  10.176 -0.1016  0.3269  2.0414
  178SLPC   C2420298   2.172   5.628  10.144  0.2389  0.2964 -0.4514
  178SLPC   H4R20299   2.084   5.685  10.180  1.4428  2.9827 -1.5087
  178SLPC   H4S20300   2.164   5.520  10.169 -0.9820  0.5797  0.4807
  178SLPC   C2520301   2.195   5.650   9.997 -0.4191 -0.1552  0.5001
  178SLPC   H5R20302   2.278   5.592   9.951 -0.0284  0.8211 -0.0621
  178SLPC   H5S20303   2.207   5.760   9.981 -1.2728  0.1477  1.8258
  178SLPC   C2620304   2.077   5.615   9.915 -0.0492  0.1475  0.3552
  178SLPC   H6R20305   1.992   5.670   9.961 -0.4929  0.0480 -0.3363
  178SLPC   H6S20306   2.036   5.513   9.928 -0.5596  0.2746 -0.2564
  178SLPC   C2720307   2.104   5.639   9.770 -0.2103  0.0134  0.7858
  178SLPC   H7R20308   2.164   5.732   9.758 -0.1517 -0.1028  0.1565
  178SLPC   H7S20309   2.006   5.644   9.717 -0.2445 -1.3073  0.7082
  178SLPC   C2820310   2.171   5.525   9.704 -0.6419 -0.2418  0.5380
  178SLPC   H8R20311   2.110   5.436   9.730 -0.8314  0.3678  2.3126
  178SLPC   H8S20312   2.264   5.515   9.764 -1.1670 -0.2169  1.3656
  178SLPC   C2920313   2.205   5.536   9.557 -0.0020  0.2164  0.1660
  178SLPC   H9R20314   2.292   5.601   9.540  1.1190 -1.2127  0.1974
  178SLPC  C21020315   2.149   5.472   9.448 -0.0759 -0.7074  0.4094
  178SLPC  H10R20316   2.191   5.498   9.350  0.1285  0.4661  0.7999
  178SLPC  C21120317   2.037   5.373   9.447  0.8207  0.5977 -0.3300
  178SLPC  H11R20318   1.960   5.418   9.381 -1.1170  1.1057  2.1140
  178SLPC  H11S20319   2.001   5.356   9.551  1.2004 -3.2378 -0.7120
  178SLPC  C21220320   2.072   5.246   9.381  0.8938  0.4073  0.3586
  178SLPC  H12R20321   2.085   5.254   9.272 -1.0806 -0.9445 -0.0351
  178SLPC  C21320322   2.078   5.121   9.439 -0.7446  0.1379 -0.3632
  178SLPC  H13R20323   2.068   5.039   9.366 -1.9962  1.8102 -2.1596
  178SLPC  C21420324   2.073   5.096   9.586  0.3178 -0.5862 -0.2959
  178SLPC  H14R20325   2.012   5.004   9.601 -1.2893  0.2021 -1.6401
  178SLPC  H14S20326   2.023   5.176   9.646  0.0789 -0.9876  0.0481
  178SLPC  C21520327   2.214   5.099   9.651  0.1526 -0.1690  0.6732
  178SLPC  H15R20328   2.247   5.205   9.651  0.4669 -0.2421 -0.6261
  178SLPC  H15S20329   2.280   5.047   9.578  0.4936 -1.0785  1.6146
  178SLPC  C21620330   2.207   5.045   9.794  0.1320 -0.3073 -0.4412
  178SLPC  H16R20331   2.308   5.005   9.818 -0.5670 -1.8555  0.0897
  178SLPC  H16S20332   2.138   4.958   9.794 -2.2943  1.4001  2.6650
  178SLPC  C21720333   2.183   5.151   9.899 -0.0736  0.8987  0.5619
  178SLPC  H17R20334   2.077   5.186   9.905 -0.6488 -0.9832  3.3572
  178SLPC  H17S20335   2.245   5.241   9.877 -0.0335 -0.1943 -5.1904
  178SLPC  C21820336   2.193   5.102  10.043 -0.1868  0.4199 -0.0377
  178SLPC  H18R20337   2.284   5.043  10.066 -1.0594 -1.8908 -2.0351
  178SLPC  H18S20338   2.106   5.040  10.073  0.3065 -1.2797 -1.9252
  178SLPC  H18T20339   2.202   5.186  10.116  1.8294  0.7331 -0.5960
  178SLPC   C3320340   1.876   5.950   9.952 -0.2468 -0.3496  0.2112
  178SLPC   H3X20341   1.774   5.994   9.945 -0.1923 -0.4013 -1.2914
  178SLPC   H3Y20342   1.869   5.841   9.974 -0.5281  0.0659  2.3870
  178SLPC   C3420343   1.906   5.958   9.803 -0.5070 -0.1922 -0.2733
  178SLPC   H4X20344   2.009   5.919   9.791 -0.6444 -0.5180 -0.4181
  178SLPC   H4Y20345   1.901   6.059   9.757  0.2148 -0.4261 -0.8811
  178SLPC   C3520346   1.817   5.864   9.726  0.2611  0.1674 -0.3170
  178SLPC   H5X20347   1.711   5.893   9.737  0.1064  0.1083 -1.4932
  178SLPC   H5Y20348   1.828   5.755   9.747 -2.4265 -0.1447 -0.2570
  178SLPC   C3620349   1.844   5.866   9.570  0.2071  0.0552  0.1422
  178SLPC   H6X20350   1.955   5.867   9.572  0.1967  1.0199  2.1743
  178SLPC   H6Y20351   1.815   5.959   9.516 -2.9671 -0.4572  0.7291
  178SLPC   C3720352   1.781   5.744   9.483 -0.3060 -1.0273 -0.3332
  178SLPC   H7X20353   1.670   5.748   9.480 -0.4023  2.0941  2.1416
  178SLPC   H7Y20354   1.821   5.654   9.533 -0.1179 -1.0509 -0.5268
  178SLPC   C3820355   1.834   5.742   9.339 -0.1087  0.2152  0.0301
  178SLPC   H8X20356   1.938   5.702   9.338 -0.8423 -1.8759  1.0482
  178SLPC   H8Y20357   1.841   5.847   9.303 -1.3674 -0.6955 -3.3078
  178SLPC   C3920358   1.760   5.649   9.234  1.1883  0.2068 -0.1184
  178SLPC   H9X20359   1.654   5.664   9.264  0.5357  2.4600 -3.1150
  178SLPC   H9Y20360   1.781   5.540   9.247 -0.4004 -0.1564 -0.3088
  178SLPC  C31020361   1.779   5.681   9.090 -0.7741 -0.8892 -0.0161
  178SLPC  H10X20362   1.835   5.777   9.093 -3.2134  0.5826  1.2434
  178SLPC  H10Y20363   1.685   5.707   9.038 -0.5403 -0.8975 -0.4561
  178SLPC  C31120364   1.853   5.574   9.013 -0.8062  0.3667 -0.1052
  178SLPC  H11X20365   1.856   5.601   8.905 -2.1336 -1.1250 -0.5386
  178SLPC  H11Y20366   1.786   5.488   9.030 -1.5735  0.7414 -1.1614
  178SLPC  C31220367   1.997   5.535   9.078  0.6868 -0.2065  0.2422
  178SLPC  H12X20368   1.996   5.539   9.189 -1.6308  1.5010  0.2359
  178SLPC  H12Y20369   2.062   5.622   9.055  0.4265  0.3419  1.5369
  178SLPC  C31320370   2.066   5.418   9.009 -0.4355  0.5265  1.3282
  178SLPC  H13X20371   2.025   5.317   9.031  0.9340  0.2660  2.9143
  178SLPC  H13Y20372   2.171   5.421   9.046 -0.2434 -0.0470  0.8510
  178SLPC  C31420373   2.077   5.437   8.853 -0.1245  0.2508 -0.8176
  178SLPC  H14X20374   2.090   5.545   8.833  1.6291 -0.2792 -2.9684
  178SLPC  H14Y20375   1.979   5.412   8.807 -1.1200  1.5535  0.5023
  178SLPC  C31520376   2.199   5.364   8.784  0.5049 -0.1697  0.2194
  178SLPC  H15X20377   2.296   5.399   8.826 -0.1084  1.6583  0.1981
  178SLPC  H15Y20378   2.185   5.257   8.809  0.3657  0.3253  2.4340
  178SLPC  C31620379   2.200   5.381   8.636 -0.4193  0.4206 -0.4865
  178SLPC  H16X20380   2.098   5.360   8.598  0.0838 -3.1362 -0.1740
  178SLPC  H16Y20381   2.266   5.306   8.589 -0.4560  0.1360 -0.0831
  178SLPC  C31720382   2.244   5.522   8.598  0.1193 -0.5607  0.3477
  178SLPC  H17X20383   2.352   5.540   8.620  1.0746 -2.2614 -2.4459
  178SLPC  H17Y20384   2.172   5.586   8.654 -0.3690 -0.5818 -0.2387
  178SLPC  C31820385   2.221   5.545   8.453  0.2650  0.3802  0.1319
  178SLPC  H18X20386   2.112   5.565   8.444 -1.2266 -5.8935 -0.5420
  178SLPC  H18Y20387   2.241   5.460   8.385 -0.9995  0.2091 -0.0580
  178SLPC  H18Z20388   2.274   5.639   8.428  1.0622  0.8699  3.2763
  179SLPC     N20389   0.729   3.042  10.818 -0.5415  0.4804  0.4168
  179SLPC   C1320390   0.854   3.133  10.830 -0.4058 -0.2210 -0.0967
  179SLPC  H13A20391   0.818   3.219  10.775  0.1357  1.3190  1.8602
  179SLPC  H13B20392   0.875   3.160  10.932  1.6473 -0.5725 -0.3767
  179SLPC  H13C20393   0.945   3.088  10.794 -0.3839  1.3043 -2.1638
  179SLPC   C1420394   0.626   3.116  10.890  0.0463 -0.0476 -0.0261
  179SLPC  H14A20395   0.531   3.065  10.887 -0.4164  0.3297  3.5046
  179SLPC  H14B20396   0.649   3.125  10.995 -2.3034 -0.7813  0.6006
  179SLPC  H14C20397   0.620   3.214  10.847 -0.5293 -0.0644  0.0073
  179SLPC   C1520398   0.750   2.907  10.888  0.0201  0.2555 -0.0604
  179SLPC  H15A20399   0.663   2.848  10.868  0.8208 -0.9696 -0.0331
  179SLPC  H15B20400   0.840   2.860  10.850  0.4024  1.4347 -0.6713
  179SLPC  H15C20401   0.781   2.912  10.992  0.2701  1.3925 -0.1712
  179SLPC   C1220402   0.690   3.023  10.669 -0.3579 -0.2487 -0.0460
  179SLPC  H12A20403   0.667   3.121  10.629  1.3812  0.1855 -0.0573
  179SLPC  H12B20404   0.595   2.972  10.660 -1.2436  1.4191 -0.6826
  179SLPC   C1120405   0.789   2.951  10.575  0.1803 -0.2895  0.3627
  179SLPC  H11A20406   0.882   3.012  10.580 -0.4526  0.5826  2.3383
  179SLPC  H11B20407   0.757   2.964  10.469  0.5604 -1.3385  0.1097
  179SLPC     P20408   0.953   2.753  10.605 -0.0303 -0.0918  0.1022
  179SLPC   O1320409   1.051   2.862  10.607  0.0932  0.2026 -0.0672
  179SLPC   O1420410   0.962   2.644  10.708  0.2310  0.1281  0.5588
  179SLPC   O1220411   0.809   2.813  10.599 -0.7971  0.3442 -1.1555
  179SLPC   O1120412   0.970   2.692  10.458 -0.3257 -0.3433 -0.8386
  179SLPC    C120413   0.862   2.649  10.373 -0.0684 -0.4900 -0.0208
  179SLPC    HA20414   0.858   2.539  10.389  3.8088 -0.9365 -1.0178
  179SLPC    HB20415   0.764   2.691  10.404  0.7065 -0.2826  2.3267
  179SLPC    C220416   0.886   2.689  10.224 -0.1291  0.9185  0.4311
  179SLPC    HS20417   0.792   2.679  10.165 -0.6595  0.3733  1.3327
  179SLPC   O2120418   0.992   2.602  10.172 -0.7877 -0.6903  0.3764
  179SLPC   C2120419   0.941   2.507  10.084  0.0814  0.1758 -0.4029
  179SLPC   O2220420   0.820   2.492  10.060 -0.0906  0.1338  0.0745
  179SLPC   C2220421   1.055   2.427  10.015 -0.2038  0.2915  0.6955
  179SLPC   H2R20422   1.145   2.492  10.013  1.2204 -1.5830 -2.0417
  179SLPC   H2S20423   1.070   2.345  10.089  0.5334 -0.6421 -0.4579
  179SLPC    C320424   0.924   2.839  10.217  0.1204  0.3321  0.1167
  179SLPC    HX20425   1.004   2.874  10.285 -0.9692  1.1137  1.0406
  179SLPC    HY20426   0.829   2.885  10.252 -0.6691 -1.0014 -0.2249
  179SLPC   O3120427   0.957   2.872  10.078 -0.4191  0.0463  0.1761
  179SLPC   C3120428   0.946   2.998  10.053  0.8136 -0.2771  0.5075
  179SLPC   O3220429   0.931   3.090  10.131  0.1581  0.2041 -0.3193
  179SLPC   C3220430   0.949   3.013   9.906 -0.0754 -0.3280  0.6860
  179SLPC   H2X20431   0.851   3.050   9.871  0.6806  0.0772 -1.1331
  179SLPC   H2Y20432   0.979   2.922   9.849 -2.7840 -0.2584 -1.0204
  179SLPC   C2320433   1.026   2.376   9.872 -0.6099  0.5280  1.0715
  179SLPC   H3R20434   0.930   2.320   9.875 -1.5787  1.9643 -0.7112
  179SLPC   H3S20435   1.106   2.303   9.848  0.2134  2.1513 -1.5956
  179SLPC   C2420436   1.030   2.480   9.760  0.5379  0.4482 -0.3819
  179SLPC   H4R20437   1.127   2.535   9.765  0.5990  0.2584  2.0234
  179SLPC   H4S20438   0.959   2.563   9.780 -0.9826 -1.3546  2.2274
  179SLPC   C2520439   1.008   2.412   9.627 -0.2119  0.2661  0.1966
  179SLPC   H5R20440   0.898   2.411   9.609 -0.3854 -3.9834  0.5303
  179SLPC   H5S20441   1.049   2.309   9.631 -1.3911 -0.2400 -0.1232
  179SLPC   C2620442   1.072   2.483   9.510  0.1939 -0.0761 -0.9362
  179SLPC   H6R20443   1.182   2.481   9.527  0.2672  0.5226 -1.3166
  179SLPC   H6S20444   1.027   2.584   9.505  0.0741  0.2022  2.9599
  179SLPC   C2720445   1.057   2.423   9.373 -0.2610  0.2995 -0.2261
  179SLPC   H7R20446   0.948   2.412   9.355 -0.3225 -0.1641  0.3758
  179SLPC   H7S20447   1.092   2.319   9.388 -2.2302 -0.3324  0.2797
  179SLPC   C2820448   1.133   2.501   9.259 -0.3376  0.1614 -0.3861
  179SLPC   H8R20449   1.240   2.488   9.284 -0.4380  0.5877  0.2956
  179SLPC   H8S20450   1.116   2.610   9.257 -0.5150  0.1204 -1.1572
  179SLPC   C2920451   1.112   2.426   9.128  0.0411 -0.0999 -0.2099
  179SLPC   H9R20452   1.137   2.319   9.130  2.1543  0.3609  0.6453
  179SLPC  C21020453   1.033   2.478   9.031 -0.0434 -0.1776 -0.2853
  179SLPC  H10R20454   1.018   2.420   8.939 -3.3816  0.5383 -0.3181
  179SLPC  C21120455   0.958   2.611   9.021 -0.1876 -0.3725  0.3305
  179SLPC  H11R20456   1.035   2.685   8.989 -0.5390 -0.3177 -0.3991
  179SLPC  H11S20457   0.931   2.651   9.121  2.1005  2.2201  0.0540
  179SLPC  C21220458   0.840   2.612   8.931  0.9809  0.4848  0.3264
  179SLPC  H12R20459   0.745   2.571   8.970  0.3817  0.2923 -1.2555
  179SLPC  C21320460   0.838   2.658   8.805 -0.0490  0.1432 -0.0147
  179SLPC  H13R20461   0.747   2.657   8.744  0.0257 -0.2743 -0.1201
  179SLPC  C21420462   0.953   2.713   8.726  0.0234  0.2247 -1.0962
  179SLPC  H14R20463   1.052   2.668   8.750 -0.2618  0.6528  1.0367
  179SLPC  H14S20464   0.955   2.823   8.742  0.2699 -0.0469  1.0316
  179SLPC  C21520465   0.928   2.710   8.572  0.0752 -0.1079  0.1869
  179SLPC  H15R20466   1.021   2.745   8.524 -0.2295 -1.9794 -1.9409
  179SLPC  H15S20467   0.845   2.774   8.536  0.6264 -0.0016 -0.9137
  179SLPC  C21620468   0.914   2.566   8.513  0.1612  0.1017  0.3462
  179SLPC  H16R20469   0.835   2.514   8.573  1.7308  0.5095  2.9032
  179SLPC  H16S20470   1.005   2.508   8.540 -0.5082 -1.8981 -1.3888
  179SLPC  C21720471   0.903   2.554   8.359 -0.1352 -0.1354  0.0693
  179SLPC  H17R20472   0.802   2.587   8.326  0.4364  2.5597  0.7231
  179SLPC  H17S20473   0.913   2.448   8.328 -1.3419  0.3323 -2.1765
  179SLPC  C21820474   1.008   2.623   8.284 -0.8068  0.0082  0.3645
  179SLPC  H18R20475   1.102   2.574   8.317  0.0851  0.5720 -1.1961
  179SLPC  H18S20476   1.011   2.733   8.299 -2.4198 -0.0572  1.3144
  179SLPC  H18T20477   1.000   2.597   8.176  3.2042  0.9209 -0.3178
  179SLPC   C3320478   1.052   3.115   9.867 -0.1554 -0.5122 -0.1497
  179SLPC   H3X20479   1.150   3.093   9.914  0.3061 -0.6552 -1.1552
  179SLPC   H3Y20480   1.026   3.215   9.910  0.4630 -0.3901 -0.0446
  179SLPC   C3420481   1.082   3.135   9.716  0.0600  0.0661 -0.6100
  179SLPC   H4X20482   0.978   3.142   9.675 -1.4117  0.1872  2.7892
  179SLPC   H4Y20483   1.137   3.048   9.675 -0.0214 -0.1201 -0.3306
  179SLPC   C3520484   1.148   3.273   9.691  0.2762  0.4401 -0.1968
  179SLPC   H5X20485   1.256   3.276   9.716  0.2948 -0.0837 -0.2126
  179SLPC   H5Y20486   1.089   3.341   9.756 -1.3968 -1.8731  0.8120
  179SLPC   C3620487   1.139   3.312   9.539 -0.0448 -0.0858  0.8562
  179SLPC   H6X20488   1.035   3.308   9.501  0.6475 -0.2268 -1.1461
  179SLPC   H6Y20489   1.206   3.239   9.489  0.0285  0.0766  0.7156
  179SLPC   C3720490   1.197   3.448   9.509 -0.0725  0.7864  0.7451
  179SLPC   H7X20491   1.305   3.454   9.536 -0.2717  0.7739  1.5802
  179SLPC   H7Y20492   1.144   3.526   9.568 -0.0145  2.3166 -1.0900
  179SLPC   C3820493   1.187   3.494   9.361  0.7560  0.5900  0.3540
  179SLPC   H8X20494   1.233   3.414   9.299  0.4643 -1.3977  2.5827
  179SLPC   H8Y20495   1.239   3.592   9.350  1.1356  0.3716  0.2276
  179SLPC   C3920496   1.037   3.511   9.310  0.6535 -0.4165 -0.6509
  179SLPC   H9X20497   0.975   3.562   9.387 -0.5480 -2.4669 -0.1910
  179SLPC   H9Y20498   0.987   3.412   9.301  0.8124 -0.4329 -1.5183
  179SLPC  C31020499   1.024   3.571   9.174 -0.0164 -0.0237 -0.1523
  179SLPC  H10X20500   1.080   3.667   9.176  0.6983 -0.4440  0.7729
  179SLPC  H10Y20501   0.916   3.591   9.155  0.0802  1.5009  0.7043
  179SLPC  C31120502   1.075   3.492   9.053  0.5360  0.2604 -0.2368
  179SLPC  H11X20503   1.019   3.396   9.044 -1.3087  1.2563  0.1347
  179SLPC  H11Y20504   1.182   3.470   9.073  1.1014  2.3995 -0.7146
  179SLPC  C31220505   1.054   3.574   8.930  0.1761  0.2009 -0.4513
  179SLPC  H12X20506   1.131   3.655   8.930 -1.9488  2.3334 -0.4307
  179SLPC  H12Y20507   0.962   3.636   8.934  2.0220  3.0521  2.3646
  179SLPC  C31320508   1.053   3.487   8.805 -0.6573  0.5883 -0.5026
  179SLPC  H13X20509   0.981   3.403   8.815  1.3249 -1.3551 -1.6166
  179SLPC  H13Y20510   1.147   3.428   8.808 -0.8823  0.2352  2.1939
  179SLPC  C31420511   1.059   3.559   8.668 -0.2671  0.2847 -0.5866
  179SLPC  H14X20512   1.156   3.613   8.659  1.2137 -1.4772  2.9687
  179SLPC  H14Y20513   0.974   3.630   8.674 -0.6918 -0.3039  0.6593
  179SLPC  C31520514   1.056   3.456   8.552 -0.6936  0.2666 -0.3701
  179SLPC  H15X20515   0.958   3.404   8.558  0.5893 -2.4471 -1.5631
  179SLPC  H15Y20516   1.125   3.370   8.565  0.0735  0.9604  0.2930
  179SLPC  C31620517   1.084   3.516   8.410  0.3203  0.3638  0.4646
  179SLPC  H16X20518   1.100   3.436   8.335 -0.2883  1.8261 -1.3061
  179SLPC  H16Y20519   1.175   3.579   8.415  0.5851  0.0369 -0.1116
  179SLPC  C31720520   0.966   3.599   8.366 -0.1854 -0.1545 -0.4657
  179SLPC  H17X20521   1.003   3.655   8.277  0.3576  0.3883  0.0927
  179SLPC  H17Y20522   0.948   3.669   8.450 -0.1803 -0.1303 -0.4850
  179SLPC  C31820523   0.846   3.524   8.328  0.4972  0.0226  0.6074
  179SLPC  H18X20524   0.863   3.446   8.251  0.9032 -0.8506  1.5561
  179SLPC  H18Y20525   0.771   3.592   8.282  1.5927  0.4800 -0.5488
  179SLPC  H18Z20526   0.787   3.478   8.410  0.2678  1.1927  1.1117
  180SLPC     N20527   0.919   0.738  10.943  0.0564 -0.3284  0.2756
  180SLPC   C1320528   1.045   0.829  10.956 -0.4490  0.0358 -0.4242
  180SLPC  H13A20529   1.025   0.934  10.941 -0.1439  0.0538 -0.7109
  180SLPC  H13B20530   1.088   0.816  11.054 -1.0918  0.5106 -0.0710
  180SLPC  H13C20531   1.122   0.805  10.884 -0.4198  0.3381 -0.4940
  180SLPC   C1420532   0.817   0.792  11.036  0.0889  0.4878  0.2879
  180SLPC  H14A20533   0.797   0.891  10.998 -0.8932  0.3763  0.4775
  180SLPC  H14B20534   0.729   0.728  11.031 -0.7406  1.6769 -1.9405
  180SLPC  H14C20535   0.847   0.794  11.139  1.4595  1.4371 -0.1057
  180SLPC   C1520536   0.961   0.595  10.971  0.2546 -0.0952  0.8986
  180SLPC  H15A20537   0.884   0.522  10.950 -0.9847  1.2641  0.5480
  180SLPC  H15B20538   1.048   0.575  10.910 -0.0380 -2.1105  1.0625
  180SLPC  H15C20539   0.993   0.583  11.074 -0.9304  0.6341  1.3635
  180SLPC   C1220540   0.865   0.748  10.803 -0.5051  0.3157 -0.6388
  180SLPC  H12A20541   0.938   0.695  10.743 -0.6916 -2.3030  1.2734
  180SLPC  H12B20542   0.867   0.849  10.764  0.0915 -0.5363 -2.9763
  180SLPC   C1120543   0.728   0.679  10.771 -0.2245 -0.2288  0.5380
  180SLPC  H11A20544   0.728   0.572  10.799 -0.3198 -0.2323  0.5226
  180SLPC  H11B20545   0.732   0.680  10.660  2.0064  0.8727  0.5558
  180SLPC     P20546   0.524   0.840  10.755 -0.0300 -0.6615  0.3239
  180SLPC   O1320547   0.409   0.866  10.836  0.3963  0.5856 -0.2383
  180SLPC   O1420548   0.610   0.955  10.723  0.6339  0.7644  0.1089
  180SLPC   O1220549   0.611   0.740  10.834 -0.7995 -0.1707  0.4165
  180SLPC   O1120550   0.495   0.756  10.627 -0.0072  0.6187  0.2006
  180SLPC    C120551   0.384   0.659  10.622 -0.0520 -0.3280 -0.3071
  180SLPC    HA20552   0.405   0.587  10.704  1.3788 -0.9072 -1.1589
  180SLPC    HB20553   0.280   0.694  10.642 -0.1246 -0.5202 -0.3464
  180SLPC    C220554   0.379   0.586  10.484  0.3704 -0.3728  0.6493
  180SLPC    HS20555   0.320   0.492  10.478 -0.5198  0.2277 -0.4844
  180SLPC   O2120556   0.515   0.572  10.431 -0.0277 -0.7945 -0.1873
  180SLPC   C2120557   0.583   0.460  10.473  0.4999  0.0488 -0.2491
  180SLPC   O2220558   0.538   0.388  10.554 -0.1253 -0.1711 -0.0986
  180SLPC   C2220559   0.714   0.454  10.394 -0.4068 -0.2001 -0.2090
  180SLPC   H2R20560   0.704   0.494  10.290 -0.5564 -1.4916 -0.7020
  180SLPC   H2S20561   0.793   0.518  10.438 -1.9972  1.8316 -0.1643
  180SLPC    C320562   0.313   0.681  10.380 -0.4775  0.3739  0.6726
  180SLPC    HX20563   0.354   0.784  10.377 -0.4571  0.3530 -0.4447
  180SLPC    HY20564   0.212   0.685  10.425  0.0977  0.9580  1.9602
  180SLPC   O3120565   0.300   0.640  10.241 -0.9382  0.4201 -0.2620
  180SLPC   C3120566   0.399   0.674  10.156 -0.4580  0.0750  0.5916
  180SLPC   O3220567   0.502   0.735  10.186  0.6160  0.6815  0.2950
  180SLPC   C3220568   0.363   0.622  10.018  1.0198  0.9258  0.0940
  180SLPC   H2X20569   0.254   0.610   9.998  1.4868  0.1380 -2.3275
  180SLPC   H2Y20570   0.403   0.519  10.006 -0.0143  0.5152  0.0397
  180SLPC   C2320571   0.779   0.311  10.379  0.1748  0.7960 -0.0822
  180SLPC   H3R20572   0.809   0.271  10.478  0.2088 -0.1348 -0.4612
  180SLPC   H3S20573   0.866   0.324  10.311  0.3600 -2.2828 -0.5806
  180SLPC   C2420574   0.681   0.214  10.314  0.2117  0.2283 -0.0572
  180SLPC   H4R20575   0.598   0.194  10.385  0.6860  2.3085  1.1535
  180SLPC   H4S20576   0.736   0.120  10.294 -1.7477 -0.8051 -0.9584
  180SLPC   C2520577   0.638   0.251  10.171  0.1267  0.2431 -0.5817
  180SLPC   H5R20578   0.727   0.295  10.120  0.9189  0.1318  0.6599
  180SLPC   H5S20579   0.570   0.339  10.177  0.2154  0.5130 -2.7230
  180SLPC   C2620580   0.581   0.139  10.081  0.4478 -0.0385 -1.3846
  180SLPC   H6R20581   0.503   0.080  10.134  1.1520  0.8280  0.6737
  180SLPC   H6S20582   0.661   0.066  10.053 -1.2045 -2.3385 -0.4369
  180SLPC   C2720583   0.525   0.199   9.960 -0.4030 -0.1659  0.4751
  180SLPC   H7R20584   0.594   0.263   9.901 -0.2221 -0.0753  0.7878
  180SLPC   H7S20585   0.447   0.273   9.989 -0.1827  0.5109 -0.6129
  180SLPC   C2820586   0.453   0.092   9.878 -0.0820  0.2731 -0.2312
  180SLPC   H8R20587   0.409   0.009   9.939  1.3797  0.4892  1.1838
  180SLPC   H8S20588   0.534   0.051   9.815 -0.7354  1.8575 -2.2207
  180SLPC   C2920589   0.355   0.159   9.777 -0.4165  0.3135  0.3868
  180SLPC   H9R20590   0.272   0.200   9.837 -0.5518 -1.5333  1.5343
  180SLPC  C21020591   0.371   0.180   9.650  0.4515  0.4449 -0.0889
  180SLPC  H10R20592   0.287   0.229   9.599  0.5106  0.5651 -0.0712
  180SLPC  C21120593   0.479   0.139   9.559 -0.5869 -0.5274 -0.6534
  180SLPC  H11R20594   0.481   0.032   9.528 -1.5614 -0.7803  0.1016
  180SLPC  H11S20595   0.572   0.147   9.620 -2.3203  0.7841  1.9928
  180SLPC  C21220596   0.492   0.227   9.444 -0.0497  0.0362 -0.2909
  180SLPC  H12R20597   0.567   0.306   9.460  0.2366 -0.1320 -0.7748
  180SLPC  C21320598   0.429   0.229   9.325  0.1467  0.7767 -0.6127
  180SLPC  H13R20599   0.456   0.298   9.243 -1.9334  1.9023 -0.4211
  180SLPC  C21420600   0.318   0.135   9.280  0.4712 -0.4938 -0.2821
  180SLPC  H14R20601   0.249   0.181   9.205 -0.7507 -1.0756  0.4629
  180SLPC  H14S20602   0.255   0.115   9.369  0.8940 -2.9938 -0.4784
  180SLPC  C21520603   0.374  -0.000   9.213  0.1726 -0.3660 -0.3021
  180SLPC  H15R20604   0.312  -0.088   9.241  1.0111 -0.7202  0.4939
  180SLPC  H15S20605   0.471  -0.026   9.260  0.0897  0.3909  0.2965
  180SLPC  C21620606   0.394   0.011   9.059  0.3353 -0.3615 -0.4508
  180SLPC  H16R20607   0.467   0.090   9.030  0.0519 -0.8846 -2.8309
  180SLPC  H16S20608   0.301   0.042   9.005  0.9677 -0.2077 -1.4820
  180SLPC  C21720609   0.437  -0.119   8.996 -0.3885  0.2103  0.1681
  180SLPC  H17R20610   0.355  -0.193   9.010  2.7500 -3.5746 -0.0617
  180SLPC  H17S20611   0.525  -0.161   9.049  0.9785 -1.3306 -3.0743
  180SLPC  C21820612   0.467  -0.102   8.849  0.1751 -0.0466  0.5820
  180SLPC  H18R20613   0.377  -0.083   8.786  1.2576 -2.1879 -1.8123
  180SLPC  H18S20614   0.504  -0.200   8.812 -1.1144 -1.7302  3.4882
  180SLPC  H18T20615   0.535  -0.023   8.811  0.6071 -2.0707 -3.5092
  180SLPC   C3320616   0.424   0.691   9.902  0.3738 -0.8040  0.4349
  180SLPC   H3X20617   0.531   0.703   9.928  0.9713 -2.0625 -1.2311
  180SLPC   H3Y20618   0.372   0.788   9.886  2.6531  0.9043  2.5635
  180SLPC   C3420619   0.417   0.610   9.780 -0.2565  0.5933 -0.7630
  180SLPC   H4X20620   0.481   0.519   9.790 -1.3299 -0.6209 -3.5723
  180SLPC   H4Y20621   0.471   0.676   9.708  3.2316 -0.0843  1.0163
  180SLPC   C3520622   0.274   0.569   9.725  0.7595 -0.5542  0.8331
  180SLPC   H5X20623   0.206   0.653   9.749 -1.1440 -1.5234 -0.8037
  180SLPC   H5Y20624   0.244   0.475   9.777  0.4973 -1.4655 -0.8964
  180SLPC   C3620625   0.267   0.536   9.572 -0.7111 -0.1369  0.0112
  180SLPC   H6X20626   0.346   0.464   9.541  2.1502  3.2388 -1.2796
  180SLPC   H6Y20627   0.280   0.625   9.507 -0.8393 -0.9500 -1.1593
  180SLPC   C3720628   0.136   0.469   9.534 -0.4586 -0.0890  0.1055
  180SLPC   H7X20629   0.049   0.530   9.567 -0.7122 -1.3812  1.9842
  180SLPC   H7Y20630   0.116   0.365   9.567 -0.9997 -1.2536 -3.4856
  180SLPC   C3820631   0.121   0.465   9.382 -0.0226  0.7250  0.2349
  180SLPC   H8X20632   0.206   0.405   9.343 -2.1822 -0.3124 -3.3428
  180SLPC   H8Y20633   0.118   0.568   9.340  0.6068 -0.1209 -1.9873
  180SLPC   C3920634  -0.005   0.386   9.349  0.2354 -0.1347  0.2784
  180SLPC   H9X20635  -0.086   0.426   9.413 -1.7911 -1.3165 -1.4260
  180SLPC   H9Y20636   0.013   0.284   9.389  0.5167  0.1694  0.9302
  180SLPC  C31020637  -0.041   0.390   9.200 -0.1260 -0.2933 -0.2316
  180SLPC  H10X20638  -0.124   0.318   9.183 -0.2339 -0.0392 -0.8083
  180SLPC  H10Y20639   0.041   0.341   9.142 -1.6941 -2.8842 -0.4117
  180SLPC  C31120640  -0.076   0.525   9.147 -0.0697  0.8870 -0.4383
  180SLPC  H11X20641   0.021   0.580   9.154  0.4077  0.0058  0.1405
  180SLPC  H11Y20642  -0.154   0.583   9.200  1.1468  1.5727  0.6674
  180SLPC  C31220643  -0.121   0.512   8.998 -0.3816  0.4514  0.0723
  180SLPC  H12X20644  -0.222   0.466   8.990 -0.1492  0.0891 -0.8484
  180SLPC  H12Y20645  -0.051   0.446   8.943 -1.0756  0.1145 -0.4169
  180SLPC  C31320646  -0.139   0.651   8.932 -0.1937 -0.1041  0.2928
  180SLPC  H13X20647  -0.045   0.703   8.903 -0.4074  0.8456  1.2936
  180SLPC  H13Y20648  -0.195   0.718   9.000 -2.8949  0.3665 -2.1864
  180SLPC  C31420649  -0.223   0.639   8.800  0.4284  0.4425 -0.7756
  180SLPC  H14X20650  -0.246   0.741   8.761 -2.2741  0.1272 -0.2174
  180SLPC  H14Y20651  -0.325   0.599   8.820  0.1799  1.6937  0.7057
  180SLPC  C31520652  -0.145   0.561   8.697  0.2256 -0.4607  0.4693
  180SLPC  H15X20653  -0.116   0.463   8.741  2.9075  1.0356  2.3185
  180SLPC  H15Y20654  -0.047   0.608   8.672 -0.0636 -0.3406 -0.4719
  180SLPC  C31620655  -0.240   0.531   8.579 -0.0952 -0.7792  0.8702
  180SLPC  H16X20656  -0.253   0.627   8.526  2.4797 -0.6765  0.2944
  180SLPC  H16Y20657  -0.341   0.496   8.610 -0.9297  2.1082  1.7015
  180SLPC  C31720658  -0.173   0.447   8.470  1.1114 -0.1182  0.0053
  180SLPC  H17X20659  -0.239   0.445   8.381  1.4843  0.9272 -0.3062
  180SLPC  H17Y20660  -0.159   0.343   8.508 -1.1800 -0.7785 -0.7623
  180SLPC  C31820661  -0.040   0.505   8.421 -0.1065  0.1626 -0.0784
  180SLPC  H18X20662   0.040   0.512   8.498  0.8763 -2.3368 -0.7657
  180SLPC  H18Y20663  -0.064   0.605   8.379 -1.1589 -0.0954 -0.1190
  180SLPC  H18Z20664   0.007   0.439   8.345  2.4559  0.2932  1.3010
  181SLPC     N20665   1.907   5.634  10.812  0.3479  0.1013  0.4004
  181SLPC   C1320666   1.853   5.670  10.944 -0.9599  0.2326 -0.3656
  181SLPC  H13A20667   1.881   5.599  11.020 -0.9890  1.2979  0.6796
  181SLPC  H13B20668   1.889   5.770  10.965  1.1090 -0.8029  1.4805
  181SLPC  H13C20669   1.746   5.684  10.948 -0.9711  0.8326 -2.0823
  181SLPC   C1420670   1.856   5.495  10.766  0.0064  0.1465  0.5970
  181SLPC  H14A20671   1.907   5.428  10.834  1.3989  2.6024  2.1012
  181SLPC  H14B20672   1.749   5.487  10.782  0.2025  1.1477  2.8249
  181SLPC  H14C20673   1.891   5.471  10.667 -0.3196  0.2528  0.4532
  181SLPC   C1520674   2.057   5.640  10.820 -0.1046  0.1180 -0.0147
  181SLPC  H15A20675   2.103   5.621  10.724  0.6002  1.9220 -0.0690
  181SLPC  H15B20676   2.092   5.733  10.862  1.2206  0.1550 -1.1148
  181SLPC  H15C20677   2.093   5.564  10.889  0.7794 -0.0444 -0.6397
  181SLPC   C1220678   1.884   5.740  10.708 -0.4916 -0.0393 -0.0559
  181SLPC  H12A20679   1.929   5.721  10.612 -1.2708  0.2197 -0.4776
  181SLPC  H12B20680   1.925   5.835  10.742 -0.9214  0.0738  0.1506
  181SLPC   C1120681   1.741   5.776  10.668 -0.4800 -0.3140  0.7876
  181SLPC  H11A20682   1.694   5.688  10.618 -3.6030  2.2851 -1.2592
  181SLPC  H11B20683   1.750   5.852  10.588 -0.1006 -1.7211 -0.5469
  181SLPC     P20684   1.586   5.950  10.795  0.0766  0.3243 -0.2759
  181SLPC   O1320685   1.471   5.931  10.880 -0.1368 -0.1845 -0.8318
  181SLPC   O1420686   1.684   6.054  10.820 -0.2841 -0.2782  0.2600
  181SLPC   O1220687   1.656   5.810  10.781  0.4675 -0.3330  0.0530
  181SLPC   O1120688   1.537   5.969  10.648  0.4135  0.5820 -0.6664
  181SLPC    C120689   1.419   5.892  10.602 -0.0549 -0.0435 -0.5587
  181SLPC    HA20690   1.409   5.795  10.655 -0.2018 -0.3002 -1.0489
  181SLPC    HB20691   1.321   5.946  10.605  0.5045  1.0014  2.0447
  181SLPC    C220692   1.439   5.855  10.458  0.1927  0.4088  0.6709
  181SLPC    HS20693   1.538   5.806  10.459 -0.5083 -1.2180  3.8277
  181SLPC   O2120694   1.420   5.972  10.380 -0.1588 -0.3530 -0.2371
  181SLPC   C2120695   1.493   5.983  10.263  0.6824  0.1022 -0.4926
  181SLPC   O2220696   1.554   5.895  10.208  0.6607 -0.3077  0.2165
  181SLPC   C2220697   1.468   6.119  10.201 -0.0931 -0.4424 -0.8566
  181SLPC   H2R20698   1.358   6.123  10.182 -0.4033 -0.7516  0.7813
  181SLPC   H2S20699   1.481   6.193  10.282  2.2243 -0.3266 -1.2826
  181SLPC    C320700   1.336   5.748  10.423 -0.0868 -0.3630 -0.4233
  181SLPC    HX20701   1.232   5.776  10.448  1.1972  1.5533  3.5739
  181SLPC    HY20702   1.343   5.661  10.491  0.2469  0.0340  0.0602
  181SLPC   O3120703   1.335   5.716  10.283  0.6602  0.5748  0.1381
  181SLPC   C3120704   1.388   5.594  10.258 -0.3818  0.0482 -0.2625
  181SLPC   O3220705   1.414   5.511  10.341 -0.2171 -0.3249 -0.5066
  181SLPC   C3220706   1.412   5.569  10.105  0.1696 -0.4675 -0.2120
  181SLPC   H2X20707   1.368   5.468  10.094 -0.8923 -0.0846  0.2813
  181SLPC   H2Y20708   1.518   5.565  10.072  0.8159  1.2266  1.4281
  181SLPC   C2320709   1.553   6.151  10.070  0.3042 -0.1430 -0.1384
  181SLPC   H3R20710   1.659   6.125  10.093  0.3335  0.2908  0.2394
  181SLPC   H3S20711   1.533   6.259  10.053 -1.5824 -0.4413  0.0129
  181SLPC   C2420712   1.485   6.082   9.947 -0.4462 -0.6677  0.0819
  181SLPC   H4R20713   1.374   6.086   9.947 -0.5782 -0.7373 -3.3279
  181SLPC   H4S20714   1.508   5.973   9.949  0.7045 -0.4379  2.4516
  181SLPC   C2520715   1.532   6.151   9.817 -0.2560  0.0805 -0.5803
  181SLPC   H5R20716   1.641   6.156   9.797 -0.5377  0.0143 -2.3412
  181SLPC   H5S20717   1.504   6.256   9.839  0.3744 -0.2902  2.3628
  181SLPC   C2620718   1.462   6.096   9.700  0.4655 -0.4165  0.6632
  181SLPC   H6R20719   1.357   6.127   9.678  0.4296 -0.9572  0.0348
  181SLPC   H6S20720   1.453   5.985   9.709  0.9579 -0.4795  0.4402
  181SLPC   C2720721   1.532   6.137   9.572 -0.6695  0.3674  0.4251
  181SLPC   H7R20722   1.640   6.121   9.588 -0.4549  0.3593 -0.8829
  181SLPC   H7S20723   1.513   6.246   9.557 -0.3555  0.6900  2.1482
  181SLPC   C2820724   1.479   6.078   9.439 -0.3649 -0.1888  0.4427
  181SLPC   H8R20725   1.382   6.131   9.425  0.0661  0.4421 -0.2223
  181SLPC   H8S20726   1.455   5.970   9.453 -0.6559 -0.4072 -1.4703
  181SLPC   C2920727   1.567   6.091   9.316 -0.4416  0.0739  0.1710
  181SLPC   H9R20728   1.669   6.054   9.335 -0.6388 -1.9994 -2.2555
  181SLPC  C21020729   1.541   6.137   9.191 -0.0547  0.2066  0.2446
  181SLPC  H10R20730   1.627   6.132   9.123  0.6710 -3.8520  1.2276
  181SLPC  C21120731   1.415   6.191   9.136 -0.4088  0.5072  0.3841
  181SLPC  H11R20732   1.334   6.210   9.209  0.2948  1.7898  0.8520
  181SLPC  H11S20733   1.390   6.111   9.062  3.6688  0.3416 -1.0339
  181SLPC  C21220734   1.437   6.324   9.062  0.5325 -0.9403  0.5527
  181SLPC  H12R20735   1.470   6.410   9.122  1.8274 -0.5043 -0.7164
  181SLPC  C21320736   1.414   6.342   8.933  0.1163 -0.0955  0.0753
  181SLPC  H13R20737   1.419   6.444   8.894 -0.3869 -0.1308 -0.0887
  181SLPC  C21420738   1.369   6.246   8.832 -0.1342 -0.0006 -0.3200
  181SLPC  H14R20739   1.295   6.297   8.768 -0.5570  2.1406  1.7350
  181SLPC  H14S20740   1.327   6.154   8.878 -0.7924  0.1341 -0.6456
  181SLPC  C21520741   1.488   6.212   8.736 -0.8864 -0.5095  0.3562
  181SLPC  H15R20742   1.585   6.185   8.783  1.6982  3.3336 -2.2317
  181SLPC  H15S20743   1.508   6.299   8.670  1.2113 -0.2348  1.2707
  181SLPC  C21620744   1.441   6.107   8.629  0.0358  0.1621 -0.3670
  181SLPC  H16R20745   1.357   6.157   8.577  0.1319  2.7667  1.7693
  181SLPC  H16S20746   1.407   6.028   8.701 -3.0505  0.2931 -1.5464
  181SLPC  C21720747   1.553   6.072   8.527  0.2766 -0.3184  1.0579
  181SLPC  H17R20748   1.579   6.168   8.478 -2.4656 -0.4322 -0.8918
  181SLPC  H17S20749   1.507   5.992   8.465  0.7110  0.6725 -0.5737
  181SLPC  C21820750   1.676   5.997   8.589  0.2084  0.2094 -0.0311
  181SLPC  H18R20751   1.766   5.988   8.525  0.5564  1.1485  0.3020
  181SLPC  H18S20752   1.638   5.895   8.613  0.9682  0.0329  0.4409
  181SLPC  H18T20753   1.706   6.043   8.686 -1.9963 -0.2430  0.9301
  181SLPC   C3320754   1.334   5.659  10.002 -0.8804 -0.0259 -0.0738
  181SLPC   H3X20755   1.374   5.761  10.020 -1.9733  0.2837  0.7552
  181SLPC   H3Y20756   1.228   5.678  10.031 -0.3153 -0.6756  2.6299
  181SLPC   C3420757   1.357   5.597   9.866 -1.0323 -0.2820  0.0376
  181SLPC   H4X20758   1.322   5.492   9.860 -0.4332 -0.4324 -1.2256
  181SLPC   H4Y20759   1.466   5.592   9.845 -0.7723 -2.8546  1.5787
  181SLPC   C3520760   1.298   5.667   9.747  0.0596 -0.4782  1.1534
  181SLPC   H5X20761   1.335   5.772   9.745 -2.2724  0.4114 -0.4005
  181SLPC   H5Y20762   1.187   5.676   9.750  0.1818  1.8169  0.8607
  181SLPC   C3620763   1.341   5.584   9.625  0.2615 -0.0569  0.1417
  181SLPC   H6X20764   1.297   5.482   9.627 -0.7165  0.3510  0.3192
  181SLPC   H6Y20765   1.451   5.573   9.632  0.1728 -3.4179 -1.4968
  181SLPC   C3720766   1.307   5.660   9.494 -0.6925  0.7715 -0.7821
  181SLPC   H7X20767   1.369   5.752   9.495  0.3484  0.1132 -1.3392
  181SLPC   H7Y20768   1.199   5.681   9.503 -0.4823  1.4557  0.2998
  181SLPC   C3820769   1.339   5.575   9.374 -0.4434  0.2055 -0.2173
  181SLPC   H8X20770   1.276   5.484   9.364  0.4703 -0.6401  1.2743
  181SLPC   H8Y20771   1.441   5.535   9.392 -0.5946  0.1829  0.6558
  181SLPC   C3920772   1.323   5.645   9.235  0.3428 -0.0503 -0.4012
  181SLPC   H9X20773   1.363   5.748   9.245  0.3969 -0.1114  0.0344
  181SLPC   H9Y20774   1.216   5.674   9.222 -0.0496 -0.4744  1.5632
  181SLPC  C31020775   1.379   5.573   9.117 -0.1255 -0.3575 -0.0922
  181SLPC  H10X20776   1.326   5.478   9.096 -1.3192 -0.0403  1.3218
  181SLPC  H10Y20777   1.483   5.548   9.150  1.0815  4.0383  0.0445
  181SLPC  C31120778   1.395   5.680   9.003 -0.5076  0.4266 -0.7770
  181SLPC  H11X20779   1.470   5.760   9.024 -0.9491  0.6124  0.1394
  181SLPC  H11Y20780   1.295   5.721   8.975 -0.5837  0.0154 -1.1088
  181SLPC  C31220781   1.444   5.606   8.878  0.0439 -1.2847  0.1119
  181SLPC  H12X20782   1.385   5.515   8.853  1.0204 -0.8555 -4.5774
  181SLPC  H12Y20783   1.546   5.563   8.889  0.0363 -1.5976 -0.9256
  181SLPC  C31320784   1.438   5.701   8.758  0.5754  0.3680  0.5772
  181SLPC  H13X20785   1.505   5.788   8.775  1.2967  0.6286 -2.9712
  181SLPC  H13Y20786   1.339   5.748   8.740  1.3491  1.5508 -0.7722
  181SLPC  C31420787   1.478   5.638   8.623  0.5463  0.6620  0.3983
  181SLPC  H14X20788   1.454   5.700   8.534  0.1220 -3.0247 -2.2878
  181SLPC  H14Y20789   1.416   5.547   8.610 -1.2873  1.6889  1.5927
  181SLPC  C31520790   1.622   5.580   8.609  0.4379  0.0297 -0.4596
  181SLPC  H15X20791   1.627   5.501   8.688  0.9892  0.4478 -0.0710
  181SLPC  H15Y20792   1.702   5.654   8.628  0.2530  0.5968 -1.7629
  181SLPC  C31620793   1.634   5.506   8.480 -0.7117  0.4918 -0.1210
  181SLPC  H16X20794   1.622   5.576   8.394 -0.5538 -1.9691 -2.2669
  181SLPC  H16Y20795   1.551   5.433   8.474 -0.8143  0.5029  0.9144
  181SLPC  C31720796   1.771   5.446   8.460  0.2278  0.1435  0.2114
  181SLPC  H17X20797   1.846   5.527   8.446 -1.7630  1.8857 -0.8360
  181SLPC  H17Y20798   1.750   5.387   8.369 -2.0243 -1.4244  1.6612
  181SLPC  C31820799   1.823   5.347   8.560 -0.2385  0.2981 -0.7413
  181SLPC  H18X20800   1.881   5.266   8.512  0.7070  1.3864 -1.4967
  181SLPC  H18Y20801   1.728   5.313   8.607 -0.3926  1.8695  0.1845
  181SLPC  H18Z20802   1.891   5.388   8.639  0.2641 -0.5106 -0.7475
  182SLPC     N20803   6.170   6.021  10.950 -0.5576  0.1766 -0.5847
  182SLPC   C1320804   6.294   6.085  11.001  0.3532 -0.0101 -0.4536
  182SLPC  H13A20805   6.375   6.021  10.970 -0.2157 -2.3600  2.4359
  182SLPC  H13B20806   6.292   6.187  10.964 -5.2482  0.3862  0.0941
  182SLPC  H13C20807   6.292   6.081  11.109  0.8509  1.8314 -0.3359
  182SLPC   C1420808   6.060   6.058  11.040 -0.1258  0.1548  0.2783
  182SLPC  H14A20809   6.021   6.155  11.012  1.3642  0.5021 -0.6973
  182SLPC  H14B20810   5.982   5.983  11.040  0.7639 -0.8377  2.4277
  182SLPC  H14C20811   6.093   6.055  11.142  0.2058  0.9162  0.1997
  182SLPC   C1520812   6.188   5.867  10.959  0.2907 -1.2658 -0.0284
  182SLPC  H15A20813   6.187   5.824  11.058 -0.5288  0.2143  0.6427
  182SLPC  H15B20814   6.109   5.819  10.903  0.8312  0.8752 -2.8312
  182SLPC  H15C20815   6.271   5.849  10.893 -1.1687  0.3919 -2.5016
  182SLPC   C1220816   6.147   6.073  10.810  0.3390  0.7637  0.0750
  182SLPC  H12A20817   6.235   6.072  10.748  0.9632 -0.1731  0.9272
  182SLPC  H12B20818   6.132   6.180  10.817  3.3265  1.2890 -0.1564
  182SLPC   C1120819   6.018   6.007  10.741 -0.1095 -0.5384  0.3001
  182SLPC  H11A20820   6.024   5.896  10.740  0.6607 -0.5130 -1.1796
  182SLPC  H11B20821   6.036   6.040  10.636  2.1351  1.0027  1.0875
  182SLPC     P20822   5.748   6.045  10.746 -0.2770 -0.0164 -0.2089
  182SLPC   O1320823   5.679   5.946  10.836 -0.0913  0.4932 -0.5496
  182SLPC   O1420824   5.693   6.182  10.738 -0.0030 -0.2551 -0.3859
  182SLPC   O1220825   5.895   6.062  10.797 -0.6248  0.0293  1.0772
  182SLPC   O1120826   5.760   5.987  10.594  0.2301 -0.2602  0.0015
  182SLPC    C120827   5.674   5.880  10.554 -0.0018  0.2162  0.2454
  182SLPC    HA20828   5.693   5.783  10.605  0.6131 -1.2834 -2.6196
  182SLPC    HB20829   5.567   5.903  10.574 -0.0603  1.2312 -1.1228
  182SLPC    C220830   5.686   5.843  10.402  0.6952 -0.0696 -0.7086
  182SLPC    HS20831   5.625   5.753  10.381  1.3207 -0.6959  0.1083
  182SLPC   O2120832   5.827   5.808  10.371  0.5111 -0.5128  0.0258
  182SLPC   C2120833   5.849   5.684  10.389 -0.3024 -0.0723  0.2574
  182SLPC   O2220834   5.776   5.593  10.422 -0.0873 -0.0613 -0.4723
  182SLPC   C2220835   5.991   5.650  10.337 -0.2853 -0.4355 -0.3348
  182SLPC   H2R20836   6.058   5.695  10.413 -0.5446  1.3795 -1.1349
  182SLPC   H2S20837   5.997   5.539  10.330  2.1484 -0.3018 -1.3851
  182SLPC    C320838   5.640   5.954  10.308 -0.0508 -0.2531  0.7446
  182SLPC    HX20839   5.669   6.049  10.358 -2.6320  0.6869  0.5879
  182SLPC    HY20840   5.530   5.966  10.304 -0.0932 -0.1213  2.0012
  182SLPC   O3120841   5.701   5.951  10.176  1.0547  0.5319 -0.2254
  182SLPC   C3120842   5.620   5.888  10.085 -0.6578  0.2071 -0.1322
  182SLPC   O3220843   5.514   5.829  10.109 -0.5235 -0.5100 -0.3014
  182SLPC   C3220844   5.697   5.892   9.950  0.5760 -0.2148 -0.2399
  182SLPC   H2X20845   5.730   5.789   9.928 -4.4373 -2.2030  0.1093
  182SLPC   H2Y20846   5.783   5.959   9.969  0.2181  1.1420 -2.8255
  182SLPC   C2320847   6.017   5.721  10.199 -0.2793  0.1041  0.4675
  182SLPC   H3R20848   6.003   5.831  10.207 -0.6593  0.1033 -0.1412
  182SLPC   H3S20849   5.940   5.676  10.133  3.4189 -3.4151 -1.9590
  182SLPC   C2420850   6.156   5.697  10.131 -0.8344 -0.4195  0.5377
  182SLPC   H4R20851   6.176   5.588  10.124  0.6353 -0.1059 -0.9058
  182SLPC   H4S20852   6.236   5.744  10.192 -0.0666  0.3258 -0.9641
  182SLPC   C2520853   6.149   5.759   9.993 -0.3332  0.0227  0.3659
  182SLPC   H5R20854   6.254   5.767   9.956  0.1431 -2.9478  0.8667
  182SLPC   H5S20855   6.105   5.859  10.013 -0.3539 -0.2780  1.9685
  182SLPC   C2620856   6.071   5.704   9.879  0.2311  0.4284  0.8473
  182SLPC   H6R20857   5.969   5.689   9.919 -0.4741 -0.5854 -1.2031
  182SLPC   H6S20858   6.110   5.604   9.850  0.4890  1.2678 -1.9976
  182SLPC   C2720859   6.055   5.799   9.757  0.1710  0.5935  0.5462
  182SLPC   H7R20860   6.029   5.900   9.795 -0.3558  0.4794  0.4900
  182SLPC   H7S20861   5.962   5.761   9.710  0.1564 -1.2201  1.9460
  182SLPC   C2820862   6.156   5.799   9.639 -0.0274 -0.3891 -0.0179
  182SLPC   H8R20863   6.260   5.797   9.676 -0.2274 -0.1440  0.5618
  182SLPC   H8S20864   6.141   5.891   9.579  3.7638  0.6194  0.3136
  182SLPC   C2920865   6.132   5.679   9.551  0.1307 -0.0245 -0.2363
  182SLPC   H9R20866   6.148   5.585   9.606 -2.0044  1.2282  2.8114
  182SLPC  C21020867   6.104   5.675   9.418 -0.1475  0.0873  0.1834
  182SLPC  H10R20868   6.071   5.585   9.365  0.8435 -0.3026  0.2172
  182SLPC  C21120869   6.089   5.793   9.326  0.1483  0.6142  0.4845
  182SLPC  H11R20870   6.052   5.873   9.392 -0.8081 -0.3880  1.1858
  182SLPC  H11S20871   5.999   5.774   9.265  1.9019 -0.8312 -1.8570
  182SLPC  C21220872   6.218   5.835   9.256  0.0025  0.5752  0.8612
  182SLPC  H12R20873   6.314   5.789   9.284 -0.5570 -2.0734 -1.1724
  182SLPC  C21320874   6.224   5.920   9.150  0.1649 -0.9151 -0.2116
  182SLPC  H13R20875   6.322   5.938   9.104  0.8012 -0.1774  1.3301
  182SLPC  C21420876   6.112   5.996   9.087 -0.1902  0.2228  0.1193
  182SLPC  H14R20877   6.145   6.093   9.046  0.8392 -0.3271 -0.3956
  182SLPC  H14S20878   6.026   6.015   9.155 -0.5942  0.9170 -0.5687
  182SLPC  C21520879   6.040   5.911   8.971  0.4814 -0.4018 -0.0953
  182SLPC  H15R20880   5.955   5.968   8.927 -0.7543 -1.8196  0.3445
  182SLPC  H15S20881   5.997   5.821   9.020  0.6806 -0.7241 -0.5034
  182SLPC  C21620882   6.134   5.863   8.868  0.7692  0.0942  0.3608
  182SLPC  H16R20883   6.211   5.803   8.923  2.0943  1.3622 -0.0493
  182SLPC  H16S20884   6.191   5.947   8.824  0.3432  0.1873 -0.0044
  182SLPC  C21720885   6.082   5.774   8.755 -0.6141  0.6406 -0.5493
  182SLPC  H17R20886   5.990   5.811   8.705 -1.5244 -3.3977 -2.2877
  182SLPC  H17S20887   6.051   5.676   8.796  2.6959 -0.3276 -0.0109
  182SLPC  C21820888   6.188   5.733   8.645  0.2943 -0.1023 -0.2942
  182SLPC  H18R20889   6.242   5.645   8.685  0.3437 -2.5863 -5.0621
  182SLPC  H18S20890   6.249   5.823   8.623 -0.6285  1.5128  3.0525
  182SLPC  H18T20891   6.141   5.694   8.552  0.7196 -0.8260 -0.2093
  182SLPC   C3320892   5.602   5.945   9.840 -0.3814  0.2876  0.1146
  182SLPC   H3X20893   5.607   6.055   9.854 -0.7712  0.0979  2.1319
  182SLPC   H3Y20894   5.502   5.900   9.858 -0.1799 -0.0889  0.3159
  182SLPC   C3420895   5.670   5.890   9.712  0.4203 -0.4419  0.4023
  182SLPC   H4X20896   5.687   5.781   9.725 -0.6497 -0.8287 -1.1286
  182SLPC   H4Y20897   5.768   5.938   9.696 -0.8787  1.8475 -1.3487
  182SLPC   C3520898   5.593   5.900   9.578  0.3195  0.1520 -0.7656
  182SLPC   H5X20899   5.550   5.999   9.552 -2.1307 -0.3010  1.1857
  182SLPC   H5Y20900   5.501   5.840   9.598  0.7403 -0.7167 -1.3634
  182SLPC   C3620901   5.680   5.840   9.462 -0.4172 -0.0450 -0.3465
  182SLPC   H6X20902   5.703   5.731   9.461 -0.0259 -0.0155  1.7490
  182SLPC   H6Y20903   5.778   5.890   9.467 -0.2692 -0.3678  0.0954
  182SLPC   C3720904   5.629   5.877   9.322  0.4151 -0.1997 -0.4634
  182SLPC   H7X20905   5.603   5.985   9.315  0.9536 -0.1470 -2.3747
  182SLPC   H7Y20906   5.531   5.828   9.303  0.2885 -0.5399  0.9470
  182SLPC   C3820907   5.725   5.844   9.207 -0.4222  0.1287  0.0589
  182SLPC   H8X20908   5.750   5.737   9.194 -0.7476  0.2314 -1.6174
  182SLPC   H8Y20909   5.817   5.906   9.218 -0.8792  1.1027 -1.3699
  182SLPC   C3920910   5.658   5.898   9.076  0.4424 -0.1720 -0.1391
  182SLPC   H9X20911   5.735   5.876   8.999 -0.6572 -2.7795 -0.5823
  182SLPC   H9Y20912   5.647   6.008   9.087  0.0871  0.1589 -2.9341
  182SLPC  C31020913   5.534   5.825   9.035  0.2388  0.2324  0.1280
  182SLPC  H10X20914   5.445   5.832   9.101 -0.6175 -0.5933 -0.9002
  182SLPC  H10Y20915   5.566   5.719   9.027 -0.6504  0.0287 -0.9658
  182SLPC  C31120916   5.499   5.865   8.898  0.3917 -0.1959  1.0619
  182SLPC  H11X20917   5.585   5.860   8.827  1.6669  1.6927  2.3690
  182SLPC  H11Y20918   5.453   5.966   8.907 -3.0177 -1.4330 -0.6045
  182SLPC  C31220919   5.406   5.774   8.825 -0.1388  0.6449  0.4663
  182SLPC  H12X20920   5.314   5.749   8.881  0.2716  0.1012  0.9094
  182SLPC  H12Y20921   5.451   5.673   8.821 -1.3105  0.1442 -2.4058
  182SLPC  C31320922   5.365   5.823   8.686  0.7144  0.7261  0.3970
  182SLPC  H13X20923   5.457   5.830   8.625  0.4553 -0.2975 -0.1329
  182SLPC  H13Y20924   5.317   5.923   8.691 -1.5079 -0.3012  0.9455
  182SLPC  C31420925   5.262   5.729   8.615 -0.8007 -0.2393 -0.0844
  182SLPC  H14X20926   5.179   5.729   8.688 -2.6294  2.2379 -1.9794
  182SLPC  H14Y20927   5.300   5.625   8.607  0.5325 -0.1740  3.5798
  182SLPC  C31520928   5.213   5.789   8.477 -0.6009 -0.2708  0.3727
  182SLPC  H15X20929   5.294   5.853   8.436 -1.0227  0.3164  0.4388
  182SLPC  H15Y20930   5.121   5.841   8.512 -0.0164  0.4672  0.8441
  182SLPC  C31620931   5.164   5.676   8.375 -0.4270  0.2609  0.7991
  182SLPC  H16X20932   5.251   5.614   8.346 -0.4838  1.0699 -1.2464
  182SLPC  H16Y20933   5.119   5.720   8.284  2.8202  0.4723 -0.8535
  182SLPC  C31720934   5.058   5.585   8.440  0.2116 -0.2354  0.4478
  182SLPC  H17X20935   4.980   5.639   8.498 -2.8629 -3.8352  0.0998
  182SLPC  H17Y20936   5.115   5.527   8.515 -1.5747 -1.6467  0.7888
  182SLPC  C31820937   4.995   5.487   8.340  0.0764 -0.2915  0.1090
  182SLPC  H18X20938   4.959   5.532   8.246 -0.0660 -0.0473  0.2781
  182SLPC  H18Y20939   4.906   5.441   8.388  0.0393 -0.0020  0.3198
  182SLPC  H18Z20940   5.061   5.403   8.310  0.3145 -0.0542 -0.0306
  183SLPC     N20941   1.278   1.100  10.571  1.0391  0.5170  0.2459
  183SLPC   C1320942   1.422   1.067  10.569 -0.0197 -0.5468 -0.0392
  183SLPC  H13A20943   1.473   1.078  10.664  1.8042  0.1177 -1.0304
  183SLPC  H13B20944   1.448   0.963  10.552 -0.4997 -0.8302  0.8593
  183SLPC  H13C20945   1.475   1.132  10.501 -0.4968  0.0387  0.1414
  183SLPC   C1420946   1.262   1.249  10.604  0.1403 -0.2657 -0.0370
  183SLPC  H14A20947   1.283   1.275  10.706  0.0211 -1.7788  0.3838
  183SLPC  H14B20948   1.318   1.318  10.542  2.8634 -0.5712  1.9032
  183SLPC  H14C20949   1.159   1.279  10.586  0.4084  0.0884 -1.0895
  183SLPC   C1520950   1.209   1.028  10.681 -0.2051 -0.0215  0.3983
  183SLPC  H15A20951   1.105   1.056  10.672 -0.3656 -0.7067  0.0455
  183SLPC  H15B20952   1.210   0.923  10.658 -0.5469  0.4478 -2.1190
  183SLPC  H15C20953   1.244   1.061  10.778 -0.0339  1.0357 -0.0005
  183SLPC   C1220954   1.219   1.065  10.432  0.2446  0.3336  0.4265
  183SLPC  H12A20955   1.248   0.961  10.422 -2.3903 -0.3574 -1.1144
  183SLPC  H12B20956   1.286   1.101  10.355 -0.9098  2.6311  0.4098
  183SLPC   C1120957   1.071   1.079  10.390  0.1987  0.5281 -0.2085
  183SLPC  H11A20958   1.063   1.071  10.280  0.0476 -0.9960 -0.1163
  183SLPC  H11B20959   1.038   1.180  10.424  0.6238  0.7167 -0.3577
  183SLPC     P20960   1.007   0.833  10.448 -0.4014  0.2717 -0.2721
  183SLPC   O1320961   1.098   0.774  10.547  0.1867  0.3374 -0.8230
  183SLPC   O1420962   0.871   0.785  10.438 -0.0327  0.0377  0.1623
  183SLPC   O1220963   0.988   0.987  10.463 -0.1989 -0.0532  0.4965
  183SLPC   O1120964   1.079   0.821  10.308 -0.3672  0.0602  0.0166
  183SLPC    C120965   1.193   0.742  10.292 -0.4293  0.4706  0.0746
  183SLPC    HA20966   1.286   0.803  10.289  0.4204 -0.8167 -1.0271
  183SLPC    HB20967   1.208   0.666  10.371 -0.7806 -1.7306 -1.8951
  183SLPC    C220968   1.193   0.650  10.168  0.0174 -0.4346  1.0454
  183SLPC    HS20969   1.290   0.598  10.155 -0.2150 -0.6755  0.2151
  183SLPC   O2120970   1.164   0.716  10.047 -0.2900 -0.2499 -0.7296
  183SLPC   C2120971   1.218   0.835  10.021  0.2537  0.1069 -0.0772
  183SLPC   O2220972   1.325   0.876  10.069  0.3316 -0.0814 -0.2032
  183SLPC   C2220973   1.141   0.901   9.904 -0.4182 -0.0007 -0.8082
  183SLPC   H2R20974   1.082   0.987   9.943 -2.4202 -1.7040  0.1187
  183SLPC   H2S20975   1.219   0.949   9.842  0.8812 -1.7028 -0.5672
  183SLPC    C320976   1.095   0.528  10.189  0.0650  0.6421  0.1556
  183SLPC    HX20977   0.990   0.560  10.206 -0.3595  0.5443 -2.0373
  183SLPC    HY20978   1.128   0.480  10.283 -2.5504 -1.9208 -0.0639
  183SLPC   O3120979   1.105   0.418  10.089  0.0435  0.2669 -0.4552
  183SLPC   C3120980   1.013   0.429   9.992 -0.3396  0.0755  0.8354
  183SLPC   O3220981   0.916   0.502   9.994 -0.3901 -0.1234  0.6072
  183SLPC   C3220982   1.067   0.338   9.870  0.5573  0.2831  0.2393
  183SLPC   H2X20983   1.071   0.236   9.913 -2.9461 -0.1562 -0.1806
  183SLPC   H2Y20984   1.169   0.381   9.860  0.4429  0.5922  0.3849
  183SLPC   C2320985   1.050   0.802   9.822 -0.1410  0.6488  0.3377
  183SLPC   H3R20986   0.976   0.764   9.896 -1.4817 -0.3461 -1.4164
  183SLPC   H3S20987   1.118   0.723   9.784 -0.3240  1.0246 -0.8127
  183SLPC   C2420988   0.983   0.868   9.702 -0.0973  0.0346  0.7245
  183SLPC   H4R20989   0.956   0.974   9.718  1.1097  0.4345  0.2344
  183SLPC   H4S20990   0.897   0.804   9.671  0.2030  0.4935 -1.1952
  183SLPC   C2520991   1.064   0.867   9.573 -0.5899 -0.6556  0.3964
  183SLPC   H5R20992   1.092   0.764   9.541 -1.7376 -1.2395  1.1970
  183SLPC   H5S20993   1.154   0.930   9.587 -0.9612 -0.3250  1.3650
  183SLPC   C2620994   0.991   0.933   9.449 -0.2425 -0.2403  0.2480
  183SLPC   H6R20995   0.934   1.024   9.479  1.4549  1.4918 -1.4759
  183SLPC   H6S20996   0.930   0.856   9.397  0.0982 -0.1124 -0.3504
  183SLPC   C2720997   1.088   0.976   9.344 -0.0194  0.1336  0.0775
  183SLPC   H7R20998   1.152   0.887   9.323  0.9537  1.3981 -2.9214
  183SLPC   H7S20999   1.161   1.052   9.378  1.2175 -0.7710 -0.4772
  183SLPC   C2821000   1.023   1.007   9.206 -0.8427 -0.0573  0.5230
  183SLPC   H8R21001   0.953   1.092   9.221 -2.3881 -1.4561  1.7113
  183SLPC   H8S21002   0.961   0.925   9.163  0.6111  0.7163 -3.4123
  183SLPC   C2921003   1.134   1.051   9.108  0.2433  0.1633 -0.0614
  183SLPC   H9R21004   1.192   1.137   9.146  1.3851  0.2018 -1.8235
  183SLPC  C21021005   1.167   1.002   8.989  0.0561  0.4847  0.6927
  183SLPC  H10R21006   1.240   1.061   8.932 -1.5477  0.6409 -1.3292
  183SLPC  C21121007   1.111   0.892   8.901  0.5632 -0.0647 -0.0501
  183SLPC  H11R21008   1.113   0.791   8.948 -0.9585  0.1428  0.5155
  183SLPC  H11S21009   1.171   0.892   8.808 -0.3380  0.7637 -0.6494
  183SLPC  C21221010   0.968   0.914   8.870  0.5780 -0.2472 -0.5025
  183SLPC  H12R21011   0.922   0.989   8.935 -1.6455 -3.0592  1.4130
  183SLPC  C21321012   0.893   0.847   8.778 -0.0410  0.0777  0.3564
  183SLPC  H13R21013   0.792   0.886   8.761  0.2756  0.9429  0.4043
  183SLPC  C21421014   0.953   0.745   8.682  0.6646  0.5361  0.0605
  183SLPC  H14R21015   0.906   0.644   8.692 -1.0878  0.8344 -3.5709
  183SLPC  H14S21016   1.062   0.733   8.701  0.2528 -0.3577  2.1857
  183SLPC  C21521017   0.910   0.789   8.538  0.3592 -0.4478  0.9432
  183SLPC  H15R21018   0.975   0.734   8.467 -1.3418  1.4686 -2.3483
  183SLPC  H15S21019   0.933   0.897   8.525  2.6082 -0.8724  0.9122
  183SLPC  C21621020   0.767   0.768   8.491 -0.7659 -0.0198  0.7839
  183SLPC  H16R21021   0.687   0.825   8.542 -3.4640 -3.1911  0.4362
  183SLPC  H16S21022   0.748   0.659   8.501 -1.3745 -0.1898 -1.5523
  183SLPC  C21721023   0.759   0.800   8.340 -0.3556  0.1948 -0.2754
  183SLPC  H17R21024   0.660   0.764   8.305  0.5891 -2.4601 -0.4287
  183SLPC  H17S21025   0.837   0.743   8.285  1.0674 -1.9308  3.5155
  183SLPC  C21821026   0.773   0.952   8.298 -0.0565  0.2949  0.1034
  183SLPC  H18R21027   0.872   0.992   8.329 -0.7373 -0.5842  3.9644
  183SLPC  H18S21028   0.694   1.007   8.354 -0.1147 -1.2103  1.5603
  183SLPC  H18T21029   0.763   0.966   8.189  1.6888 -2.7881 -0.5612
  183SLPC   C3321030   0.983   0.328   9.735 -0.2433  0.0076  0.1666
  183SLPC   H3X21031   0.910   0.247   9.754  1.7611 -1.8573  0.4170
  183SLPC   H3Y21032   1.053   0.283   9.661 -2.0152 -4.1209  0.7431
  183SLPC   C3421033   0.921   0.461   9.683 -0.0454  0.8958 -0.3724
  183SLPC   H4X21034   0.994   0.544   9.686 -1.1702  1.9043 -0.3782
  183SLPC   H4Y21035   0.835   0.494   9.745 -1.1013  0.2682 -1.4611
  183SLPC   C3521036   0.876   0.445   9.538  0.4747 -0.5462  0.4846
  183SLPC   H5X21037   0.792   0.374   9.528  0.7108 -0.7495 -0.1591
  183SLPC   H5Y21038   0.959   0.409   9.474  0.9640 -1.4358  1.5968
  183SLPC   C3621039   0.822   0.584   9.489  0.2482 -0.3417 -0.3071
  183SLPC   H6X21040   0.910   0.644   9.458  0.2851  0.5627  1.4411
  183SLPC   H6Y21041   0.774   0.643   9.570  0.0740  0.4384 -0.9707
  183SLPC   C3721042   0.740   0.581   9.359 -0.7786 -0.3333 -0.2790
  183SLPC   H7X21043   0.700   0.683   9.341  0.5391 -0.2391 -3.2744
  183SLPC   H7Y21044   0.658   0.507   9.372 -0.3944 -1.3142 -2.8017
  183SLPC   C3821045   0.799   0.538   9.224 -0.4503  0.0398 -0.6493
  183SLPC   H8X21046   0.830   0.431   9.223  2.3628  0.7835 -0.9822
  183SLPC   H8Y21047   0.896   0.585   9.198  0.2271 -1.5584 -1.1433
  183SLPC   C3921048   0.704   0.575   9.105  0.8493 -0.4047  0.2149
  183SLPC   H9X21049   0.757   0.566   9.008 -0.3124 -2.4285 -0.2999
  183SLPC   H9Y21050   0.668   0.680   9.117 -2.0862 -1.1689 -0.9503
  183SLPC  C31021051   0.580   0.483   9.097 -0.4517  0.1930  0.1035
  183SLPC  H10X21052   0.558   0.451   9.201 -0.9003 -2.9365 -0.8405
  183SLPC  H10Y21053   0.604   0.388   9.044  0.9869  1.7774 -2.3040
  183SLPC  C31121054   0.460   0.551   9.021 -0.1426 -0.6695 -0.3339
  183SLPC  H11X21055   0.439   0.643   9.079 -1.5739  0.2416 -2.2048
  183SLPC  H11Y21056   0.371   0.485   9.027  0.4713 -1.3777  2.6093
  183SLPC  C31221057   0.477   0.580   8.869 -0.2514 -0.2188  0.1156
  183SLPC  H12X21058   0.525   0.497   8.811 -2.3754  0.2482 -2.4828
  183SLPC  H12Y21059   0.542   0.670   8.864 -1.5561  0.8333  1.4855
  183SLPC  C31321060   0.343   0.625   8.807 -0.5873 -0.0851 -0.5050
  183SLPC  H13X21061   0.292   0.684   8.886 -1.2126 -0.6009 -0.5151
  183SLPC  H13Y21062   0.278   0.539   8.779 -1.3463  0.4331 -0.3551
  183SLPC  C31421063   0.356   0.711   8.676 -0.5557  0.7410  0.6064
  183SLPC  H14X21064   0.423   0.654   8.608  1.4897  4.0370 -0.3597
  183SLPC  H14Y21065   0.408   0.802   8.713  2.1081 -0.4282 -0.0016
  183SLPC  C31521066   0.228   0.738   8.596 -0.5887  0.2238 -0.3556
  183SLPC  H15X21067   0.155   0.656   8.613 -0.7630  0.4753  0.1384
  183SLPC  H15Y21068   0.231   0.742   8.485  1.0945  1.3367 -0.3123
  183SLPC  C31621069   0.161   0.868   8.628 -0.4705 -0.3578  0.1621
  183SLPC  H16X21070   0.227   0.953   8.600 -2.8325  0.7036 -2.6968
  183SLPC  H16Y21071   0.151   0.872   8.738  0.4885 -0.9858  0.2916
  183SLPC  C31721072   0.023   0.877   8.582  0.0914 -0.0557 -0.1078
  183SLPC  H17X21073  -0.040   0.797   8.627  0.4751  0.0246  0.5898
  183SLPC  H17Y21074   0.005   0.853   8.475 -0.7172 -3.7977  0.7120
  183SLPC  C31821075  -0.040   1.016   8.618  0.4230 -0.0083  0.4859
  183SLPC  H18X21076  -0.073   1.013   8.724  0.5093 -2.2399  0.5019
  183SLPC  H18Y21077  -0.126   1.042   8.552  0.1274  1.0942  1.2798
  183SLPC  H18Z21078   0.037   1.091   8.591  1.1411 -1.2902 -1.2769
  184SLPC     N21079   6.641   1.235  10.434 -0.1742 -0.0263  0.6912
  184SLPC   C1321080   6.683   1.094  10.420  0.1745 -0.2044 -0.0694
  184SLPC  H13A21081   6.612   1.033  10.367  2.5030 -2.1159 -1.1221
  184SLPC  H13B21082   6.775   1.082  10.366  0.2898  0.4827 -0.0355
  184SLPC  H13C21083   6.681   1.044  10.516  0.7830 -1.7791 -0.8579
  184SLPC   C1421084   6.751   1.313  10.502  0.2735 -0.1199  0.7179
  184SLPC  H14A21085   6.767   1.298  10.607  1.0625 -1.2186  0.4595
  184SLPC  H14B21086   6.845   1.284  10.457 -0.6954 -3.4197  0.5456
  184SLPC  H14C21087   6.739   1.420  10.498  0.6359 -0.0972 -2.8050
  184SLPC   C1521088   6.529   1.239  10.529 -0.7390  0.2951  0.0617
  184SLPC  H15A21089   6.460   1.156  10.529 -0.4857  0.0812  0.5013
  184SLPC  H15B21090   6.568   1.226  10.629  1.1769 -0.3808 -0.7446
  184SLPC  H15C21091   6.482   1.337  10.529 -0.0965  0.6267 -1.1589
  184SLPC   C1221092   6.603   1.279  10.296 -0.4697  0.5476  0.0576
  184SLPC  H12A21093   6.512   1.224  10.277  0.3638 -1.4476  1.5079
  184SLPC  H12B21094   6.671   1.232  10.226 -3.1413  0.0010 -2.3533
  184SLPC   C1121095   6.579   1.423  10.267 -0.3273  0.2566  0.1634
  184SLPC  H11A21096   6.566   1.459  10.163 -0.3493  0.6088  0.2840
  184SLPC  H11B21097   6.671   1.481  10.291  1.8463 -3.2854  1.0736
  184SLPC     P21098   6.323   1.465  10.296 -0.1343 -0.1069  0.0299
  184SLPC   O1321099   6.288   1.319  10.275 -0.5372 -0.2809 -0.1113
  184SLPC   O1421100   6.249   1.552  10.383 -0.0381  0.1223 -0.5077
  184SLPC   O1221101   6.475   1.470  10.357  0.9475  0.3519  0.3847
  184SLPC   O1121102   6.339   1.526  10.151 -0.4646 -0.0613  0.0704
  184SLPC    C121103   6.360   1.668  10.124  0.1106  0.4501  0.8417
  184SLPC    HA21104   6.416   1.707  10.211 -0.5203  1.3232  0.8713
  184SLPC    HB21105   6.429   1.678  10.037 -1.1926  0.9717 -0.1718
  184SLPC    C221106   6.226   1.739  10.114 -0.1846  0.2673 -0.5869
  184SLPC    HS21107   6.182   1.738  10.216  0.0514  2.2668 -0.4358
  184SLPC   O2121108   6.143   1.674  10.020  0.3840 -0.2562  0.1639
  184SLPC   C2121109   6.027   1.630  10.069 -0.1262  0.4644  0.4451
  184SLPC   O2221110   5.977   1.667  10.173 -0.1915 -0.0379 -0.1610
  184SLPC   C2221111   5.967   1.532   9.972 -1.1987  0.5843 -0.5762
  184SLPC   H2R21112   5.970   1.432  10.021 -0.5873  1.3075  0.9236
  184SLPC   H2S21113   5.859   1.558   9.974 -1.2576  0.4993 -1.7803
  184SLPC    C321114   6.254   1.891  10.077 -0.3375 -0.0348  0.4255
  184SLPC    HX21115   6.312   1.933  10.162 -1.9771  1.5118  0.8317
  184SLPC    HY21116   6.157   1.944  10.082 -1.2176 -1.6046  0.4729
  184SLPC   O3121117   6.328   1.901   9.952 -0.1029 -0.2930 -0.0037
  184SLPC   C3121118   6.263   1.930   9.845  0.5631 -0.0102  0.1480
  184SLPC   O3221119   6.143   1.959   9.837  0.0904  0.4620  0.1815
  184SLPC   C3221120   6.359   1.916   9.724 -0.0337 -0.2068  0.3046
  184SLPC   H2X21121   6.410   1.817   9.729 -0.4191 -0.5846 -2.1782
  184SLPC   H2Y21122   6.437   1.994   9.737  0.9597 -1.1934  0.4430
  184SLPC   C2321123   6.006   1.533   9.823  0.1219 -0.5344 -0.0723
  184SLPC   H3R21124   5.990   1.433   9.779 -0.2516 -0.3437 -0.3723
  184SLPC   H3S21125   6.113   1.561   9.828 -0.4073  1.5014  0.9729
  184SLPC   C2421126   5.938   1.648   9.749  1.0511  0.3532 -0.8540
  184SLPC   H4R21127   5.948   1.746   9.799  0.5261  0.9192 -1.8093
  184SLPC   H4S21128   5.833   1.613   9.747  0.3740  2.2784 -1.0563
  184SLPC   C2521129   5.971   1.656   9.601 -0.2111 -0.4902  0.0451
  184SLPC   H5R21130   6.079   1.683   9.601 -0.0203 -1.2240 -0.8213
  184SLPC   H5S21131   5.920   1.746   9.559  0.2286 -0.3463 -0.1881
  184SLPC   C2621132   5.946   1.534   9.511  0.2880  0.1926 -0.2726
  184SLPC   H6R21133   5.842   1.496   9.522  0.2285  0.9335  2.8564
  184SLPC   H6S21134   6.017   1.455   9.545  1.3226  0.6762 -1.2487
  184SLPC   C2721135   5.980   1.554   9.363  0.0959  0.3112  0.4020
  184SLPC   H7R21136   5.985   1.452   9.319 -0.1446 -1.2176  3.6700
  184SLPC   H7S21137   6.081   1.599   9.353  0.3477 -0.4985 -1.1238
  184SLPC   C2821138   5.894   1.664   9.288 -0.3905  0.0482  0.3986
  184SLPC   H8R21139   5.905   1.762   9.339  3.3706  0.6564 -1.2624
  184SLPC   H8S21140   5.788   1.631   9.291  0.4078 -2.9784 -1.2362
  184SLPC   C2921141   5.944   1.686   9.149  0.3075  0.9685  0.1004
  184SLPC   H9R21142   6.009   1.774   9.133  1.5961  0.2893  1.3069
  184SLPC  C21021143   5.915   1.602   9.045 -0.6281 -0.0436 -0.3799
  184SLPC  H10R21144   5.982   1.609   8.958 -0.7750  0.4820 -0.4544
  184SLPC  C21121145   5.839   1.472   9.046  0.9914  0.1719  0.4135
  184SLPC  H11R21146   5.750   1.494   8.983  0.9525 -2.5999 -0.6426
  184SLPC  H11S21147   5.801   1.448   9.148 -1.2627 -2.4725 -0.9253
  184SLPC  C21221148   5.904   1.351   8.992 -0.1015  0.0314 -0.0301
  184SLPC  H12R21149   5.924   1.269   9.062 -0.2346  0.3459  0.3799
  184SLPC  C21321150   5.927   1.323   8.861  0.3603 -0.3573 -0.6369
  184SLPC  H13R21151   5.958   1.227   8.818 -0.8018  0.2502 -3.0236
  184SLPC  C21421152   5.885   1.420   8.752 -0.4881  0.3437 -0.1991
  184SLPC  H14R21153   5.952   1.508   8.740  0.5406 -0.4584 -0.5219
  184SLPC  H14S21154   5.783   1.460   8.765 -0.6593  1.6370 -4.0948
  184SLPC  C21521155   5.855   1.350   8.612  0.5173 -0.1368  0.7714
  184SLPC  H15R21156   5.764   1.286   8.618 -0.5887  1.2988  0.0268
  184SLPC  H15S21157   5.944   1.295   8.574  0.6447  0.7662 -0.2946
  184SLPC  C21621158   5.817   1.454   8.505  0.3366 -0.4396 -0.4136
  184SLPC  H16R21159   5.739   1.520   8.549  1.6663  0.0126  1.3428
  184SLPC  H16S21160   5.779   1.408   8.411 -0.3234 -0.5827 -0.0873
  184SLPC  C21721161   5.937   1.546   8.455 -0.1061  0.0943 -0.8300
  184SLPC  H17R21162   6.031   1.490   8.437  0.7829  1.8421 -1.9281
  184SLPC  H17S21163   5.966   1.604   8.545  1.0626 -1.2707 -0.2935
  184SLPC  C21821164   5.903   1.643   8.346 -0.2409 -0.2343  0.7377
  184SLPC  H18R21165   5.807   1.697   8.367  0.5087  0.7560  1.7236
  184SLPC  H18S21166   5.896   1.591   8.248  0.2259 -0.1089  0.6368
  184SLPC  H18T21167   5.978   1.722   8.326 -0.3996  0.0555  1.2667
  184SLPC   C3321168   6.281   1.920   9.587  0.1200  0.4821 -0.3606
  184SLPC   H3X21169   6.216   2.010   9.578  2.8868  2.5677 -0.9350
  184SLPC   H3Y21170   6.224   1.828   9.564  0.0313  0.4403  0.0252
  184SLPC   C3421171   6.402   1.933   9.483 -0.3234 -0.3208  0.5854
  184SLPC   H4X21172   6.458   1.837   9.486  0.8301  0.3186  0.0188
  184SLPC   H4Y21173   6.463   2.020   9.516  0.5838  0.0748 -1.9401
  184SLPC   C3521174   6.357   1.952   9.338 -0.1192  0.8367  0.0383
  184SLPC   H5X21175   6.282   2.033   9.345 -0.5619  0.4531 -0.1829
  184SLPC   H5Y21176   6.294   1.867   9.304 -0.9935  0.6113  2.0304
  184SLPC   C3621177   6.462   1.988   9.238  0.1617 -0.1490 -0.4492
  184SLPC   H6X21178   6.541   1.910   9.241  0.8704  0.5591  1.6470
  184SLPC   H6Y21179   6.519   2.077   9.273  2.0701 -1.6031  0.3357
  184SLPC   C3721180   6.414   2.028   9.096  0.5184 -0.2322  0.2996
  184SLPC   H7X21181   6.366   2.126   9.118 -1.7245 -1.1652 -0.1573
  184SLPC   H7Y21182   6.340   1.966   9.043  1.4456 -0.7667 -0.3961
  184SLPC   C3821183   6.540   2.043   9.014 -0.7196  0.0078 -0.0830
  184SLPC   H8X21184   6.582   1.941   8.999 -2.1175 -0.9274  1.8568
  184SLPC   H8Y21185   6.610   2.106   9.074 -1.2312  0.1171  0.4046
  184SLPC   C3921186   6.518   2.117   8.880 -0.5734  0.0279 -0.5494
  184SLPC   H9X21187   6.615   2.122   8.826 -0.4633  1.5826 -0.2480
  184SLPC   H9Y21188   6.481   2.221   8.894  0.1903  0.4466 -1.5327
  184SLPC  C31021189   6.422   2.036   8.789 -0.0340  0.9285 -0.4495
  184SLPC  H10X21190   6.435   2.090   8.693  1.6151  0.8454 -0.3087
  184SLPC  H10Y21191   6.318   2.035   8.829  0.0318  0.3719 -0.2826
  184SLPC  C31121192   6.467   1.891   8.755 -0.3983 -0.1128  0.2706
  184SLPC  H11X21193   6.475   1.830   8.847  0.7162  1.9263  1.6240
  184SLPC  H11Y21194   6.565   1.907   8.705 -0.6268  1.9382  0.3558
  184SLPC  C31221195   6.370   1.828   8.658  0.4343  0.3282 -0.1259
  184SLPC  H12X21196   6.425   1.750   8.601 -0.3388 -1.2108  1.1292
  184SLPC  H12Y21197   6.333   1.903   8.585 -2.9492 -1.4725 -0.4765
  184SLPC  C31321198   6.255   1.751   8.732 -0.5301 -0.0696 -0.1745
  184SLPC  H13X21199   6.166   1.763   8.667  1.1190 -1.4801 -2.8732
  184SLPC  H13Y21200   6.231   1.808   8.825 -0.8645 -1.7218  0.7856
  184SLPC  C31421201   6.284   1.608   8.777  0.3697 -0.9903 -0.0444
  184SLPC  H14X21202   6.202   1.572   8.843  0.4003 -1.6506 -0.3572
  184SLPC  H14Y21203   6.375   1.616   8.841  0.1735 -0.6969  0.1946
  184SLPC  C31521204   6.302   1.516   8.657 -0.5978 -0.0928  0.1267
  184SLPC  H15X21205   6.388   1.545   8.592 -1.5052  0.7623 -0.7281
  184SLPC  H15Y21206   6.213   1.490   8.596  1.2346 -2.8961 -1.6006
  184SLPC  C31621207   6.329   1.372   8.710 -0.4665  0.1823 -0.5069
  184SLPC  H16X21208   6.257   1.358   8.793 -0.2951 -0.4804 -0.4682
  184SLPC  H16Y21209   6.423   1.370   8.770  0.9205  3.2714 -2.3155
  184SLPC  C31721210   6.311   1.246   8.622  0.0706 -0.3269 -0.0793
  184SLPC  H17X21211   6.228   1.258   8.549 -1.1874 -0.5596  1.2515
  184SLPC  H17Y21212   6.277   1.164   8.689  1.9896 -1.1961 -0.1034
  184SLPC  C31821213   6.436   1.193   8.553  0.3856  0.1926 -0.5880
  184SLPC  H18X21214   6.504   1.138   8.622 -1.2697 -1.6306 -0.3215
  184SLPC  H18Y21215   6.502   1.269   8.506  1.7038  0.0359  0.9225
  184SLPC  H18Z21216   6.402   1.123   8.473 -3.3419 -0.9298  1.7345
  185SLPC     N21217   4.455   3.752   6.060  0.1971  0.3750 -0.7221
  185SLPC   C1321218   4.517   3.619   6.052 -0.3090 -0.3308  0.1773
  185SLPC  H13A21219   4.620   3.638   6.078 -0.5809  1.8339 -0.1091
  185SLPC  H13B21220   4.471   3.550   6.121 -2.7681  0.8087 -0.1895
  185SLPC  H13C21221   4.502   3.574   5.955  1.1930  0.6712 -0.5583
  185SLPC   C1421222   4.310   3.751   6.019  0.0839  0.7051  0.2927
  185SLPC  H14A21223   4.268   3.850   6.033 -2.3316 -0.5742  3.3973
  185SLPC  H14B21224   4.294   3.715   5.919  0.0181  0.1510  0.4980
  185SLPC  H14C21225   4.258   3.692   6.093 -1.5306 -0.8359 -1.9543
  185SLPC   C1521226   4.527   3.835   5.964 -0.1945 -1.2236 -0.1918
  185SLPC  H15A21227   4.519   3.800   5.862 -2.9742  0.6014 -0.6901
  185SLPC  H15B21228   4.486   3.934   5.969 -0.5946 -1.3751 -0.3834
  185SLPC  H15C21229   4.630   3.832   5.996 -0.5661  0.9510  1.4248
  185SLPC   C1221230   4.476   3.811   6.198 -0.4466 -0.5630  0.2805
  185SLPC  H12A21231   4.452   3.916   6.199  1.3542 -0.1000 -0.8038
  185SLPC  H12B21232   4.581   3.822   6.219 -0.6219  1.2986  0.3498
  185SLPC   C1121233   4.406   3.760   6.333  0.1459  0.1870  0.6630
  185SLPC  H11A21234   4.458   3.812   6.416  0.6922  1.1418 -0.2626
  185SLPC  H11B21235   4.417   3.649   6.341 -0.3241 -0.0421 -1.2351
  185SLPC     P21236   4.210   3.918   6.361 -0.0402  0.1381  0.5955
  185SLPC   O1321237   4.258   4.012   6.259  0.2185 -0.7963 -0.9401
  185SLPC   O1421238   4.068   3.913   6.376 -0.0631  0.1978 -0.3901
  185SLPC   O1221239   4.260   3.769   6.321 -0.3814 -0.0597  0.4938
  185SLPC   O1121240   4.285   3.949   6.496 -0.8541 -0.1596  0.6242
  185SLPC    C121241   4.215   3.970   6.623 -0.4784 -0.3565  0.2969
  185SLPC    HA21242   4.263   4.054   6.677 -0.8154  0.0060  0.0368
  185SLPC    HB21243   4.111   4.001   6.601 -0.2385  0.0870 -0.2497
  185SLPC    C221244   4.212   3.850   6.722  0.1920  0.2164  0.0360
  185SLPC    HS21245   4.137   3.878   6.799  1.8686  1.2149  1.4014
  185SLPC   O2121246   4.343   3.857   6.773  0.1553  0.0300 -0.2121
  185SLPC   C2121247   4.356   3.901   6.892  0.6727 -0.4077 -0.3388
  185SLPC   O2221248   4.281   3.953   6.967  0.2294  0.0470 -0.2541
  185SLPC   C2221249   4.503   3.878   6.923  0.3677 -0.0166 -0.5846
  185SLPC   H2R21250   4.560   3.860   6.830 -0.5463 -3.1823 -0.6523
  185SLPC   H2S21251   4.546   3.968   6.971 -1.0579  0.0012  0.7425
  185SLPC    C321252   4.191   3.709   6.667  0.4879 -0.3818 -0.4283
  185SLPC    HX21253   4.267   3.688   6.588  3.8351 -0.9401  2.6928
  185SLPC    HY21254   4.101   3.706   6.602  1.6089  0.8665 -2.1328
  185SLPC   O3121255   4.197   3.617   6.775  0.5913 -0.2179 -0.0464
  185SLPC   C3121256   4.080   3.590   6.820  0.2489 -0.3089 -0.0245
  185SLPC   O3221257   3.974   3.640   6.776 -0.2760 -0.6141 -0.2741
  185SLPC   C3221258   4.094   3.508   6.942  0.7208  0.1564 -0.3313
  185SLPC   H2X21259   4.124   3.403   6.921 -0.9312 -0.5306  0.5395
  185SLPC   H2Y21260   3.993   3.496   6.987  0.1001  0.9847 -1.4370
  185SLPC   C2321261   4.551   3.754   7.009  0.3008  0.0132  0.0355
  185SLPC   H3R21262   4.658   3.731   6.987  0.8306  0.4373  1.9517
  185SLPC   H3S21263   4.495   3.662   6.981  1.8372 -0.7178 -0.7846
  185SLPC   C2421264   4.527   3.774   7.160 -0.4563 -0.2110 -0.0098
  185SLPC   H4R21265   4.420   3.795   7.178 -0.6349 -0.3792 -0.8262
  185SLPC   H4S21266   4.585   3.862   7.194 -0.6890  0.2929 -0.8813
  185SLPC   C2521267   4.552   3.641   7.234 -0.1975 -0.2581  0.2223
  185SLPC   H5R21268   4.658   3.611   7.227 -0.6929 -2.4927  1.4058
  185SLPC   H5S21269   4.490   3.567   7.180  0.7256  0.2364 -1.5978
  185SLPC   C2621270   4.504   3.644   7.380  0.3063 -1.0738 -0.4510
  185SLPC   H6R21271   4.393   3.650   7.375  0.3745  0.6170 -0.6098
  185SLPC   H6S21272   4.537   3.736   7.434  1.2249 -0.9076 -1.2567
  185SLPC   C2721273   4.542   3.514   7.467 -0.4788 -0.1414 -0.1562
  185SLPC   H7R21274   4.652   3.503   7.467  0.0319  3.4983  0.9522
  185SLPC   H7S21275   4.487   3.434   7.413 -0.1483  0.7815 -1.9423
  185SLPC   C2821276   4.487   3.526   7.605  0.4175 -0.2035 -0.0828
  185SLPC   H8R21277   4.376   3.532   7.605  0.1803 -2.5475  2.7033
  185SLPC   H8S21278   4.525   3.618   7.654  0.4150 -0.4671  0.4203
  185SLPC   C2921279   4.541   3.404   7.683 -0.4771  0.1486  0.0659
  185SLPC   H9R21280   4.651   3.400   7.681 -0.3373  1.9842  1.3959
  185SLPC  C21021281   4.466   3.312   7.748 -0.4058 -0.4625  0.5581
  185SLPC  H10R21282   4.524   3.240   7.808  2.1630  0.7887 -0.2563
  185SLPC  C21121283   4.317   3.307   7.763 -0.7491  0.6655  0.5764
  185SLPC  H11R21284   4.262   3.310   7.666  2.4362  1.9603 -1.3346
  185SLPC  H11S21285   4.284   3.406   7.802 -2.9316 -0.0546  0.6767
  185SLPC  C21221286   4.262   3.195   7.848  0.7639  0.2803 -0.0772
  185SLPC  H12R21287   4.263   3.094   7.804 -2.3738  0.7481 -1.4695
  185SLPC  C21321288   4.205   3.203   7.970  0.1222  0.2420  0.7844
  185SLPC  H13R21289   4.175   3.112   8.024  1.8732 -0.8232  0.0224
  185SLPC  C21421290   4.173   3.330   8.054 -0.5514 -0.3649  0.4159
  185SLPC  H14R21291   4.064   3.330   8.073 -1.1981 -0.4929 -2.7350
  185SLPC  H14S21292   4.200   3.416   7.989  1.8205 -0.5867  0.9995
  185SLPC  C21521293   4.251   3.340   8.181  0.5739  0.3049  0.0313
  185SLPC  H15R21294   4.235   3.257   8.254  2.0805  0.8354  1.0286
  185SLPC  H15S21295   4.223   3.429   8.242  2.1741 -0.7013  2.4236
  185SLPC  C21621296   4.400   3.361   8.159 -0.0534 -0.4963 -0.0296
  185SLPC  H16R21297   4.417   3.430   8.073  0.3337  2.2411  2.0864
  185SLPC  H16S21298   4.431   3.258   8.132  0.1150 -1.3616  3.1553
  185SLPC  C21721299   4.487   3.404   8.277 -0.8168 -0.3293 -0.7336
  185SLPC  H17R21300   4.491   3.333   8.362  1.2478  1.5913  0.8879
  185SLPC  H17S21301   4.444   3.495   8.325  1.5991 -0.3419  1.6440
  185SLPC  C21821302   4.633   3.438   8.226  0.0708 -0.3037 -0.0473
  185SLPC  H18R21303   4.688   3.486   8.311 -0.4718 -2.3371  1.5189
  185SLPC  H18S21304   4.621   3.505   8.139  1.2176 -0.9586 -0.7405
  185SLPC  H18T21305   4.678   3.342   8.193 -0.0896 -0.4343  0.1144
  185SLPC   C3321306   4.182   3.576   7.053 -0.0026 -0.1770  0.3571
  185SLPC   H3X21307   4.135   3.668   7.094 -0.3661 -0.2732  0.1581
  185SLPC   H3Y21308   4.279   3.602   7.007  0.0029 -0.8692 -0.0293
  185SLPC   C3421309   4.211   3.479   7.171 -0.7893 -0.3090 -0.1120
  185SLPC   H4X21310   4.299   3.507   7.234  1.0706 -0.3930 -2.5192
  185SLPC   H4Y21311   4.222   3.378   7.127 -1.2235  0.3455 -1.7666
  185SLPC   C3521312   4.089   3.467   7.261 -0.3768  0.5073  0.0436
  185SLPC   H5X21313   4.008   3.418   7.201  0.1192 -2.2561  1.4795
  185SLPC   H5Y21314   4.048   3.569   7.276 -2.7001 -0.6782  2.7512
  185SLPC   C3621315   4.102   3.405   7.403 -1.1791  0.4343 -0.2575
  185SLPC   H6X21316   4.163   3.472   7.467  0.3021 -0.3833 -0.7830
  185SLPC   H6Y21317   4.148   3.304   7.397 -1.1488  0.3437  1.1368
  185SLPC   C3721318   3.963   3.381   7.468 -0.5415  0.8000 -0.6710
  185SLPC   H7X21319   3.916   3.301   7.406 -0.5823 -0.0131  0.3863
  185SLPC   H7Y21320   3.896   3.470   7.468  1.7825  2.8571  3.4992
  185SLPC   C3821321   3.986   3.327   7.619  0.1881 -0.4452  0.4963
  185SLPC   H8X21322   4.048   3.401   7.675  1.1707  0.6799 -1.9154
  185SLPC   H8Y21323   4.044   3.234   7.604 -0.2910 -0.7031  0.2153
  185SLPC   C3921324   3.846   3.301   7.680 -0.2483 -0.0479 -0.0301
  185SLPC   H9X21325   3.793   3.236   7.607 -1.4882 -1.6483  2.1811
  185SLPC   H9Y21326   3.795   3.400   7.676  0.0613  0.0771 -1.5140
  185SLPC  C31021327   3.845   3.247   7.828 -0.0574 -0.7454  0.8068
  185SLPC  H10X21328   3.891   3.330   7.887 -1.0275  0.6551 -0.3327
  185SLPC  H10Y21329   3.892   3.147   7.818  1.0764 -0.1562 -0.1013
  185SLPC  C31121330   3.705   3.220   7.874 -0.0477 -0.3931 -0.4631
  185SLPC  H11X21331   3.665   3.129   7.825  0.1689 -0.6136 -0.2382
  185SLPC  H11Y21332   3.637   3.304   7.850 -0.7070 -0.5966  0.6040
  185SLPC  C31221333   3.716   3.187   8.026  0.2411  0.1748 -0.2061
  185SLPC  H12X21334   3.761   3.278   8.071  2.0093 -1.5279  1.6881
  185SLPC  H12Y21335   3.787   3.103   8.040  1.5060  0.6630 -3.0897
  185SLPC  C31321336   3.583   3.166   8.091  0.0058  0.0203 -0.1552
  185SLPC  H13X21337   3.529   3.072   8.063 -1.6774  0.8281  0.2395
  185SLPC  H13Y21338   3.528   3.259   8.065  1.2246  0.3065 -1.8952
  185SLPC  C31421339   3.580   3.157   8.250 -0.2429 -0.9263 -0.5838
  185SLPC  H14X21340   3.612   3.260   8.280  2.4951 -1.7098 -0.5981
  185SLPC  H14Y21341   3.646   3.080   8.295 -2.5551 -1.3150  2.5279
  185SLPC  C31521342   3.437   3.138   8.304 -0.3418  0.0820 -0.2663
  185SLPC  H15X21343   3.400   3.034   8.295 -1.4679  0.5689 -1.6471
  185SLPC  H15Y21344   3.372   3.212   8.252  0.2279  1.7865  1.3769
  185SLPC  C31621345   3.424   3.185   8.449  0.3867 -0.7224  0.0455
  185SLPC  H16X21346   3.456   3.292   8.450  2.0009 -1.1724  0.8034
  185SLPC  H16Y21347   3.488   3.115   8.507  0.1171 -0.5977  0.4982
  185SLPC  C31721348   3.281   3.190   8.510 -0.8851 -0.7002  0.4882
  185SLPC  H17X21349   3.205   3.250   8.456  1.0673  0.5923 -0.9639
  185SLPC  H17Y21350   3.293   3.231   8.612  2.1489  2.6722 -0.9835
  185SLPC  C31821351   3.211   3.053   8.519 -0.1642 -0.3556  0.2459
  185SLPC  H18X21352   3.279   2.992   8.582  1.3732  0.7782 -0.2476
  185SLPC  H18Y21353   3.197   2.995   8.426 -2.7112 -1.9092  1.4961
  185SLPC  H18Z21354   3.115   3.073   8.571  0.5350  0.8819  1.1355
  186SLPC     N21355   4.440   0.681   6.324 -0.3835 -0.1062  0.2384
  186SLPC   C1321356   4.344   0.706   6.432 -0.0613 -0.1745 -0.0693
  186SLPC  H13A21357   4.306   0.807   6.421  0.3104 -0.2012 -1.7474
  186SLPC  H13B21358   4.254   0.648   6.425  1.2728 -2.1092 -2.4209
  186SLPC  H13C21359   4.396   0.691   6.526  0.6108  1.6197 -0.0970
  186SLPC   C1421360   4.378   0.702   6.191  0.1728  0.4829 -0.3951
  186SLPC  H14A21361   4.287   0.643   6.185  1.9557 -2.3275 -2.2199
  186SLPC  H14B21362   4.341   0.802   6.176  0.3006  0.3147 -2.0325
  186SLPC  H14C21363   4.441   0.676   6.107  1.7683  0.6048  0.7300
  186SLPC   C1521364   4.489   0.540   6.334  0.0032 -0.3627  0.0920
  186SLPC  H15A21365   4.547   0.513   6.247 -0.0850  0.7513 -0.3220
  186SLPC  H15B21366   4.547   0.521   6.423 -2.2346  1.3838  2.0455
  186SLPC  H15C21367   4.402   0.476   6.330  1.8594 -3.0041 -0.9639
  186SLPC   C1221368   4.566   0.767   6.344  0.5506  0.0410  0.4118
  186SLPC  H12A21369   4.636   0.756   6.263  1.7181  1.5606  1.1534
  186SLPC  H12B21370   4.625   0.734   6.429  1.3393  0.5928  0.0958
  186SLPC   C1121371   4.537   0.921   6.366  0.1513  0.0453  0.6356
  186SLPC  H11A21372   4.639   0.961   6.385  0.2916  1.0194 -1.7856
  186SLPC  H11B21373   4.477   0.932   6.459  0.2325  0.7478  0.6146
  186SLPC     P21374   4.395   1.111   6.274 -0.3131 -0.2605  0.0752
  186SLPC   O1321375   4.478   1.215   6.341 -0.0555 -0.1180  0.0299
  186SLPC   O1421376   4.333   1.147   6.146  0.1651 -0.4389 -0.0239
  186SLPC   O1221377   4.470   0.978   6.255  0.1947 -0.2921  0.0997
  186SLPC   O1121378   4.279   1.068   6.363 -0.1392  0.6514  0.7478
  186SLPC    C121379   4.182   1.159   6.411 -0.4862  0.4602 -0.4965
  186SLPC    HA21380   4.226   1.231   6.484  0.8917 -2.6824  2.0266
  186SLPC    HB21381   4.135   1.221   6.332 -0.3665  2.1564  0.7053
  186SLPC    C221382   4.073   1.072   6.485  0.6896  0.5862  0.4845
  186SLPC    HS21383   4.008   1.151   6.529  1.4618  1.2810  0.3867
  186SLPC   O2121384   4.126   0.984   6.589 -0.5791 -0.3678  0.1698
  186SLPC   C2121385   4.180   1.058   6.690 -0.1212  0.6521  0.6149
  186SLPC   O2221386   4.174   1.178   6.699 -0.0716 -0.1165  0.3663
  186SLPC   C2221387   4.250   0.963   6.777  0.3379 -1.0184  0.0362
  186SLPC   H2R21388   4.184   0.879   6.806  0.9991 -1.4818  0.2319
  186SLPC   H2S21389   4.340   0.920   6.728  0.3606 -2.6126  1.4109
  186SLPC    C321390   3.990   0.988   6.384  0.6336 -0.2580  0.8268
  186SLPC    HX21391   4.059   0.952   6.304 -0.7720  1.1659 -1.1275
  186SLPC    HY21392   3.923   1.062   6.335  0.6702 -0.5158  0.3769
  186SLPC   O3121393   3.903   0.892   6.450  0.0153  0.1111 -0.4452
  186SLPC   C3121394   3.872   0.791   6.382  0.3861 -0.1240  0.4531
  186SLPC   O3221395   3.908   0.771   6.266 -0.2613  0.7270  0.4243
  186SLPC   C3221396   3.773   0.701   6.458 -0.0575 -0.6743  0.0971
  186SLPC   H2X21397   3.776   0.599   6.414 -1.4870 -1.9721  2.7756
  186SLPC   H2Y21398   3.678   0.758   6.454  1.2176  1.6873  0.9793
  186SLPC   C2321399   4.305   1.035   6.903  0.4243 -0.2480 -0.3398
  186SLPC   H3R21400   4.355   1.132   6.882 -0.0165 -0.1970 -1.2408
  186SLPC   H3S21401   4.388   0.978   6.950 -1.2016  0.2776  3.5747
  186SLPC   C2421402   4.197   1.066   7.010 -0.2170 -0.5285  0.8037
  186SLPC   H4R21403   4.150   0.971   7.043  1.4435 -1.5407  0.3820
  186SLPC   H4S21404   4.127   1.133   6.955  0.7759  0.3765  0.6151
  186SLPC   C2521405   4.248   1.153   7.131  0.5046 -0.3164 -0.2892
  186SLPC   H5R21406   4.158   1.164   7.195  0.2568  0.3989 -0.7535
  186SLPC   H5S21407   4.267   1.255   7.090  1.9241 -0.6983 -0.6444
  186SLPC   C2621408   4.365   1.105   7.206 -0.5242  0.1482 -0.3435
  186SLPC   H6R21409   4.461   1.110   7.150  0.4754 -2.7637  0.9146
  186SLPC   H6S21410   4.340   1.003   7.243 -2.1249  0.6339  0.0160
  186SLPC   C2721411   4.395   1.184   7.339 -0.4956 -0.1009  0.3080
  186SLPC   H7R21412   4.378   1.292   7.319  0.2801  0.0773  0.5899
  186SLPC   H7S21413   4.502   1.171   7.364 -0.9338  0.0254  2.4884
  186SLPC   C2821414   4.318   1.136   7.465  0.6352 -0.5870 -0.8836
  186SLPC   H8R21415   4.351   1.032   7.482  0.3403 -0.3123  1.7116
  186SLPC   H8S21416   4.209   1.138   7.445  0.2756  3.0517  0.5868
  186SLPC   C2921417   4.367   1.229   7.576  0.2698 -0.1235  0.1618
  186SLPC   H9R21418   4.333   1.332   7.558  0.7887 -0.1122 -0.7973
  186SLPC  C21021419   4.430   1.190   7.696 -0.6724 -0.6600 -0.1314
  186SLPC  H10R21420   4.446   1.271   7.770 -1.4995  0.4838 -1.1597
  186SLPC  C21121421   4.473   1.057   7.749  0.1896 -0.6970 -0.3415
  186SLPC  H11R21422   4.492   0.992   7.661 -0.1135 -0.3710 -0.6528
  186SLPC  H11S21423   4.391   1.003   7.802  0.7066  0.0019  1.2436
  186SLPC  C21221424   4.602   1.063   7.830 -0.0610  0.1143 -0.1856
  186SLPC  H12R21425   4.674   1.140   7.795  0.0423  1.0985  2.0552
  186SLPC  C21321426   4.640   0.997   7.934  0.6386  0.4428 -0.2268
  186SLPC  H13R21427   4.724   1.046   7.987 -0.1172  2.0207 -0.4367
  186SLPC  C21421428   4.560   0.892   8.019  0.5528  0.1008 -0.2602
  186SLPC  H14R21429   4.636   0.817   8.051 -1.0389 -0.8229  1.5995
  186SLPC  H14S21430   4.479   0.843   7.961  1.1902  0.5969 -1.5944
  186SLPC  C21521431   4.505   0.956   8.147 -0.1203  0.6377 -0.1459
  186SLPC  H15R21432   4.426   0.886   8.184  0.3479  1.4933  2.7460
  186SLPC  H15S21433   4.449   1.050   8.126  2.0547  1.8471 -0.8525
  186SLPC  C21621434   4.614   0.975   8.248  0.4003  0.2926 -0.1028
  186SLPC  H16R21435   4.692   1.036   8.196  1.3804 -0.0680  0.8917
  186SLPC  H16S21436   4.664   0.882   8.283  4.3238  1.5876 -1.6975
  186SLPC  C21721437   4.564   1.052   8.375  0.7750  0.0893 -0.7243
  186SLPC  H17R21438   4.472   1.001   8.409 -1.2589  3.5186 -0.7001
  186SLPC  H17S21439   4.521   1.150   8.344 -1.7558  0.3085  2.9123
  186SLPC  C21821440   4.672   1.059   8.480  0.3941  0.0490 -0.2062
  186SLPC  H18R21441   4.651   1.138   8.555 -3.0532 -1.6447  0.8096
  186SLPC  H18S21442   4.771   1.086   8.436 -0.3126 -0.7225 -2.3863
  186SLPC  H18T21443   4.689   0.962   8.533  1.0929  0.3780  0.1929
  186SLPC   C3321444   3.815   0.679   6.607  0.7641  0.0675  0.2756
  186SLPC   H3X21445   3.802   0.765   6.677 -0.1485  0.1110  0.0739
  186SLPC   H3Y21446   3.919   0.641   6.611  0.5467 -0.5886 -0.1509
  186SLPC   C3421447   3.722   0.568   6.668  0.4567 -0.0996  0.3252
  186SLPC   H4X21448   3.698   0.484   6.598  0.1641  0.8411 -0.7318
  186SLPC   H4Y21449   3.624   0.617   6.685  0.9857  2.1046 -2.2565
  186SLPC   C3521450   3.763   0.502   6.803  0.1235 -0.3528 -0.7362
  186SLPC   H5X21451   3.845   0.427   6.792  1.2144  0.4213  1.5370
  186SLPC   H5Y21452   3.674   0.444   6.834 -0.7426 -0.0005 -2.4222
  186SLPC   C3621453   3.798   0.601   6.913  0.5332  0.1964  0.3700
  186SLPC   H6X21454   3.733   0.691   6.910 -4.1202 -2.8454 -1.0085
  186SLPC   H6Y21455   3.904   0.633   6.899  0.1103  1.2924 -0.5059
  186SLPC   C3721456   3.784   0.541   7.050  0.4804  0.9630  0.4506
  186SLPC   H7X21457   3.677   0.529   7.079  0.4211  0.1323 -0.0747
  186SLPC   H7Y21458   3.831   0.604   7.128 -0.1250 -0.4462  1.9888
  186SLPC   C3821459   3.838   0.397   7.066 -0.0689 -0.1476  0.4592
  186SLPC   H8X21460   3.944   0.384   7.037 -0.1675  1.3891 -0.6861
  186SLPC   H8Y21461   3.787   0.342   6.984 -0.7849 -2.2653  2.1948
  186SLPC   C3921462   3.798   0.330   7.195 -0.5692  0.0294 -0.7750
  186SLPC   H9X21463   3.846   0.230   7.200  0.3604  0.5201  0.9526
  186SLPC   H9Y21464   3.689   0.311   7.202 -0.9737  2.4789  0.6484
  186SLPC  C31021465   3.840   0.418   7.320  0.2165  0.4932 -0.8677
  186SLPC  H10X21466   3.767   0.501   7.328 -0.7212 -0.5029  2.4942
  186SLPC  H10Y21467   3.945   0.455   7.310 -0.5652  2.7482 -1.1343
  186SLPC  C31121468   3.814   0.339   7.443  0.9912  0.1597 -0.3136
  186SLPC  H11X21469   3.878   0.248   7.442  0.2804 -0.3595 -1.8530
  186SLPC  H11Y21470   3.710   0.300   7.438  1.0133  0.2240 -1.6741
  186SLPC  C31221471   3.855   0.406   7.578 -0.1870  0.0197  0.4750
  186SLPC  H12X21472   3.964   0.425   7.571 -0.6338  3.0243  0.1743
  186SLPC  H12Y21473   3.849   0.333   7.662  1.6925  0.9824  1.5128
  186SLPC  C31321474   3.786   0.538   7.604  0.4406 -0.6442  0.0845
  186SLPC  H13X21475   3.677   0.517   7.617  0.7621 -1.8040  1.0972
  186SLPC  H13Y21476   3.795   0.607   7.518  0.3061 -1.1249 -0.3198
  186SLPC  C31421477   3.836   0.598   7.735 -0.8336 -0.1554 -0.3759
  186SLPC  H14X21478   3.798   0.702   7.743 -0.4460 -0.0538  0.1837
  186SLPC  H14Y21479   3.946   0.609   7.723 -1.0799  2.0766 -0.9605
  186SLPC  C31521480   3.802   0.523   7.869 -0.0637  0.1140  1.0203
  186SLPC  H15X21481   3.835   0.418   7.853 -1.3015 -0.1503  0.0299
  186SLPC  H15Y21482   3.692   0.512   7.883  0.0776 -1.4031  1.1772
  186SLPC  C31621483   3.860   0.572   8.002  0.3339  0.2245  0.0779
  186SLPC  H16X21484   3.819   0.675   8.011 -0.8693  0.1342 -3.0158
  186SLPC  H16Y21485   3.971   0.575   8.008  0.3156 -0.7644  1.0755
  186SLPC  C31721486   3.817   0.495   8.122 -0.2108  0.2683 -0.6349
  186SLPC  H17X21487   3.706   0.497   8.128 -0.2594 -2.2326  0.8682
  186SLPC  H17Y21488   3.843   0.545   8.218  0.7370  0.3028 -0.8910
  186SLPC  C31821489   3.878   0.356   8.136 -0.2050  0.0635  0.3766
  186SLPC  H18X21490   3.835   0.293   8.055  1.5753 -1.2856  0.4039
  186SLPC  H18Y21491   3.847   0.306   8.231 -0.0489 -0.8513 -0.0345
  186SLPC  H18Z21492   3.989   0.351   8.134 -0.0584  1.8279  1.8240
  187SLPC     N21493   3.234   1.939   6.301 -0.4298  0.4109  0.2988
  187SLPC   C1321494   3.383   1.967   6.272  0.4228  0.4518 -0.1747
  187SLPC  H13A21495   3.439   1.877   6.291  1.1385  1.0417  0.6276
  187SLPC  H13B21496   3.394   2.000   6.170  2.0313  1.7124  0.3579
  187SLPC  H13C21497   3.421   2.046   6.336  1.2877 -2.1872  2.8461
  187SLPC   C1421498   3.176   1.841   6.198 -0.3845  0.4303 -1.0046
  187SLPC  H14A21499   3.234   1.751   6.212  0.8332  1.3259  0.0233
  187SLPC  H14B21500   3.071   1.822   6.212  0.2240 -1.3412  1.8038
  187SLPC  H14C21501   3.194   1.860   6.093 -0.9107 -2.0138 -1.6061
  187SLPC   C1521502   3.158   2.062   6.283  0.1043  0.7089  0.1774
  187SLPC  H15A21503   3.218   2.148   6.309  0.3048  1.3333 -2.1630
  187SLPC  H15B21504   3.137   2.074   6.178 -1.2007 -3.5775 -0.2493
  187SLPC  H15C21505   3.065   2.060   6.338  0.6433 -0.9753  1.1295
  187SLPC   C1221506   3.210   1.886   6.437 -0.1017  0.5463 -0.2702
  187SLPC  H12A21507   3.216   1.969   6.506 -0.8132  1.3183 -1.1007
  187SLPC  H12B21508   3.300   1.828   6.446  0.2536  0.9071 -1.3348
  187SLPC   C1121509   3.080   1.806   6.472  0.3662  0.3295  0.2244
  187SLPC  H11A21510   3.095   1.777   6.578  1.6394  0.0249 -0.0201
  187SLPC  H11B21511   3.082   1.718   6.405  1.6444 -1.6325  2.6839
  187SLPC     P21512   2.845   1.854   6.389  0.4026  0.1499  0.1614
  187SLPC   O1321513   2.758   1.965   6.365 -0.3235  0.1554 -0.2043
  187SLPC   O1421514   2.879   1.774   6.268 -0.2923 -0.1575 -0.0075
  187SLPC   O1221515   2.980   1.897   6.451 -0.8219  0.0986  0.3196
  187SLPC   O1121516   2.781   1.766   6.495 -0.1940  0.4901 -0.5859
  187SLPC    C121517   2.741   1.829   6.623  0.4406  0.5626 -0.4250
  187SLPC    HA21518   2.803   1.920   6.638  2.4325 -0.8691  0.3306
  187SLPC    HB21519   2.636   1.864   6.611  0.9355  2.2211 -0.1149
  187SLPC    C221520   2.768   1.744   6.747 -0.6990  0.4398 -0.2335
  187SLPC    HS21521   2.705   1.796   6.823 -1.2778 -1.7309  0.8440
  187SLPC   O2121522   2.909   1.728   6.770 -0.5245  0.0827  0.4699
  187SLPC   C2121523   2.970   1.829   6.845  0.7022  0.6138  0.1188
  187SLPC   O2221524   2.903   1.909   6.903 -0.2638 -0.2951  0.5109
  187SLPC   C2221525   3.125   1.802   6.841  0.6149  0.3098  0.5792
  187SLPC   H2R21526   3.156   1.712   6.783  1.6425  0.2617  1.1858
  187SLPC   H2S21527   3.171   1.884   6.781  0.0524 -0.0998 -0.4443
  187SLPC    C321528   2.711   1.596   6.755  0.0738  0.2265  0.5184
  187SLPC    HX21529   2.761   1.526   6.685  0.5242 -0.1270  1.1787
  187SLPC    HY21530   2.606   1.593   6.720  0.5143  1.4754 -1.0407
  187SLPC   O3121531   2.726   1.547   6.887  0.2357 -0.3291 -0.1184
  187SLPC   C3121532   2.644   1.599   6.980 -0.0340 -0.5964 -0.0916
  187SLPC   O3221533   2.547   1.669   6.955 -0.5206  0.0761  0.1161
  187SLPC   C3221534   2.680   1.546   7.118  0.3213  0.3241 -0.8638
  187SLPC   H2X21535   2.626   1.607   7.192 -1.6555 -2.8026  0.4826
  187SLPC   H2Y21536   2.789   1.560   7.138  0.1748  1.2951 -0.7009
  187SLPC   C2321537   3.178   1.808   6.985  0.3394 -0.2626  0.6911
  187SLPC   H3R21538   3.163   1.904   7.039 -1.5864  0.5005 -1.0498
  187SLPC   H3S21539   3.288   1.797   6.979  0.2647 -0.3695 -0.9738
  187SLPC   C2421540   3.118   1.693   7.071 -0.1017  0.1543 -0.3172
  187SLPC   H4R21541   3.133   1.601   7.009  1.5623 -0.0737  0.3978
  187SLPC   H4S21542   3.013   1.724   7.089 -0.7876 -1.5237 -1.1759
  187SLPC   C2521543   3.166   1.686   7.213  0.3138  0.4892 -0.0072
  187SLPC   H5R21544   3.159   1.780   7.272 -0.6662 -0.9625  2.3106
  187SLPC   H5S21545   3.273   1.657   7.207  0.2944  0.7679 -2.9320
  187SLPC   C2621546   3.085   1.573   7.296 -0.0927 -0.6052  0.3593
  187SLPC   H6R21547   3.114   1.483   7.237  0.9348 -0.9305  1.3172
  187SLPC   H6S21548   2.976   1.594   7.291 -0.5313 -2.7932  0.0605
  187SLPC   C2721549   3.136   1.558   7.439 -0.4889 -0.1115 -0.0953
  187SLPC   H7R21550   3.121   1.656   7.489  0.2748 -0.3634  0.6528
  187SLPC   H7S21551   3.244   1.532   7.442 -0.2389  0.9102  0.2282
  187SLPC   C2821552   3.072   1.446   7.519  0.6664 -0.8524  0.4800
  187SLPC   H8R21553   3.153   1.400   7.579 -0.7951 -0.6267  2.7688
  187SLPC   H8S21554   3.037   1.367   7.449 -0.0439 -0.0116 -0.1296
  187SLPC   C2921555   2.959   1.492   7.603  0.2190  0.1476 -0.3356
  187SLPC   H9R21556   2.874   1.533   7.547  0.4260 -0.1348 -0.8588
  187SLPC  C21021557   2.957   1.497   7.743  0.3427 -0.1534  0.4057
  187SLPC  H10R21558   2.864   1.525   7.795  0.8334  2.1380  0.1168
  187SLPC  C21121559   3.071   1.459   7.836  0.1755 -0.8833  0.5567
  187SLPC  H11R21560   3.057   1.524   7.925 -0.3818 -1.2209  0.7252
  187SLPC  H11S21561   3.171   1.483   7.794 -0.1534 -0.7723 -0.1796
  187SLPC  C21221562   3.080   1.320   7.883  0.0316  0.2492 -0.0339
  187SLPC  H12R21563   3.039   1.247   7.812  1.8537  0.4647 -1.3808
  187SLPC  C21321564   3.136   1.282   8.002 -0.0723 -0.4438  0.6277
  187SLPC  H13R21565   3.144   1.175   8.025 -1.3789 -0.6886 -0.0064
  187SLPC  C21421566   3.212   1.370   8.093 -0.8459  0.1072 -0.1427
  187SLPC  H14R21567   3.151   1.438   8.156  0.5484  1.8610 -0.5761
  187SLPC  H14S21568   3.271   1.444   8.034  0.5191 -0.2756  0.6864
  187SLPC  C21521569   3.324   1.291   8.173  0.5630  0.1491  0.0712
  187SLPC  H15R21570   3.396   1.372   8.196 -1.9151  2.7346 -0.7092
  187SLPC  H15S21571   3.381   1.216   8.114  0.5121  1.3640 -1.6197
  187SLPC  C21621572   3.264   1.238   8.307 -0.2685 -0.8453  0.4470
  187SLPC  H16R21573   3.173   1.298   8.328 -0.0573 -0.5742  0.5910
  187SLPC  H16S21574   3.336   1.263   8.388  0.6515 -2.5306  0.2142
  187SLPC  C21721575   3.252   1.087   8.299  0.1779 -0.2668 -0.0269
  187SLPC  H17R21576   3.341   1.041   8.252 -0.2232 -1.4688  0.3487
  187SLPC  H17S21577   3.163   1.067   8.236 -1.3038 -1.9524  2.4269
  187SLPC  C21821578   3.226   1.033   8.441  0.1679  0.3144 -1.2106
  187SLPC  H18R21579   3.191   0.927   8.439  3.2422 -0.8146 -0.3301
  187SLPC  H18S21580   3.144   1.098   8.478  1.2836  1.7206 -1.1642
  187SLPC  H18T21581   3.309   1.034   8.515 -1.2688  1.7189  0.4689
  187SLPC   C3321582   2.640   1.394   7.137  0.1258 -0.6885  0.5839
  187SLPC   H3X21583   2.714   1.328   7.087  2.2105  0.4877  1.9324
  187SLPC   H3Y21584   2.554   1.355   7.079  0.8953  0.7646 -1.6633
  187SLPC   C3421585   2.625   1.346   7.282 -0.1804 -0.2622 -0.7485
  187SLPC   H4X21586   2.530   1.376   7.331  0.8274 -1.0670  1.8684
  187SLPC   H4Y21587   2.712   1.385   7.339 -0.3593 -1.9749  0.7568
  187SLPC   C3521588   2.639   1.196   7.294 -0.1567  0.1867  0.0284
  187SLPC   H5X21589   2.739   1.162   7.260  0.9907  2.7684  0.5612
  187SLPC   H5Y21590   2.550   1.151   7.245  0.1099  0.1257 -0.4018
  187SLPC   C3621591   2.621   1.140   7.433  0.0796  0.3162  0.4352
  187SLPC   H6X21592   2.630   1.032   7.411 -1.3811  0.5031 -1.2267
  187SLPC   H6Y21593   2.525   1.175   7.477  0.1435  0.4265  0.4865
  187SLPC   C3721594   2.736   1.176   7.514 -0.5701 -1.1146 -0.1216
  187SLPC   H7X21595   2.837   1.169   7.468  0.0090 -1.5591  1.1845
  187SLPC   H7Y21596   2.725   1.284   7.534  3.3747 -0.9250  2.0829
  187SLPC   C3821597   2.731   1.110   7.655 -0.2265 -0.4797  0.4614
  187SLPC   H8X21598   2.627   1.106   7.693  0.3459 -0.2647  2.1633
  187SLPC   H8Y21599   2.781   1.174   7.731 -0.5781  0.1852  0.1381
  187SLPC   C3921600   2.801   0.971   7.662 -0.0474  0.1059  0.6942
  187SLPC   H9X21601   2.912   0.982   7.658  0.0384 -0.6821 -3.2154
  187SLPC   H9Y21602   2.777   0.921   7.566 -1.4099  0.8627  0.6173
  187SLPC  C31021603   2.779   0.877   7.779  0.3602  0.2737 -0.2624
  187SLPC  H10X21604   2.830   0.780   7.763 -0.5442 -0.6101  1.8380
  187SLPC  H10Y21605   2.670   0.857   7.780  0.0870  1.6096 -0.9711
  187SLPC  C31121606   2.837   0.922   7.916 -0.2276  0.3117 -0.2399
  187SLPC  H11X21607   2.787   0.853   7.986 -1.6337  0.8865 -0.6379
  187SLPC  H11Y21608   2.800   1.025   7.935 -0.2145  0.5834 -1.5686
  187SLPC  C31221609   2.990   0.938   7.933  0.2985  0.1874 -0.4389
  187SLPC  H12X21610   3.021   0.941   8.040  1.2141  1.4312 -0.7042
  187SLPC  H12Y21611   3.033   1.037   7.905  0.7761 -0.0411 -0.5320
  187SLPC  C31321612   3.079   0.831   7.874  0.1161 -0.1894  0.1183
  187SLPC  H13X21613   3.062   0.846   7.766 -0.5104  0.2020  0.2651
  187SLPC  H13Y21614   3.032   0.734   7.903  0.8836 -0.8068 -0.6482
  187SLPC  C31421615   3.224   0.842   7.905 -0.1701  0.0993  0.1146
  187SLPC  H14X21616   3.256   0.947   7.889  1.4725 -0.1204  1.6085
  187SLPC  H14Y21617   3.287   0.792   7.828 -0.0128  2.2435 -1.2171
  187SLPC  C31521618   3.269   0.797   8.046 -0.9758  0.2089  0.7747
  187SLPC  H15X21619   3.192   0.724   8.079  0.1617 -1.5003 -0.2012
  187SLPC  H15Y21620   3.288   0.878   8.119  1.0956  0.0516  0.4658
  187SLPC  C31621621   3.414   0.732   8.046  0.4339 -0.6278  0.0924
  187SLPC  H16X21622   3.389   0.632   8.006 -2.8358  0.5907 -1.2616
  187SLPC  H16Y21623   3.440   0.716   8.152 -0.5874 -2.1891  0.1342
  187SLPC  C31721624   3.526   0.801   7.971 -0.0038 -0.8520 -0.0725
  187SLPC  H17X21625   3.501   0.806   7.863  0.7088  0.9867 -0.1829
  187SLPC  H17Y21626   3.618   0.739   7.986  0.9999  0.7726  0.7283
  187SLPC  C31821627   3.560   0.952   8.001 -0.0224  0.4920  0.4340
  187SLPC  H18X21628   3.641   0.981   7.930 -1.9317 -0.5854 -2.4054
  187SLPC  H18Y21629   3.599   0.959   8.104  3.6615 -1.6033 -0.6422
  187SLPC  H18Z21630   3.469   1.013   7.981 -1.8516 -1.6444  1.7976
  188SLPC     N21631   0.209   0.107   6.411 -0.2744  0.0778 -0.1472
  188SLPC   C1321632   0.101   0.007   6.371 -0.9526  0.3429 -0.3337
  188SLPC  H13A21633   0.140  -0.086   6.333 -0.3837  0.7744 -0.8226
  188SLPC  H13B21634   0.062  -0.014   6.469 -0.5072 -1.1205 -0.4554
  188SLPC  H13C21635   0.021   0.048   6.310 -0.6962  0.3206 -0.6882
  188SLPC   C1421636   0.141   0.205   6.502 -0.2239  0.2362  0.2777
  188SLPC  H14A21637   0.105   0.164   6.595  0.8167  0.5808  0.8502
  188SLPC  H14B21638   0.207   0.285   6.531  0.0466 -0.2242  0.9513
  188SLPC  H14C21639   0.060   0.258   6.455  3.2860  3.2474 -3.1490
  188SLPC   C1521640   0.276   0.181   6.297 -0.1775 -0.7568  0.0256
  188SLPC  H15A21641   0.372   0.224   6.320  0.0876  0.3005 -2.6532
  188SLPC  H15B21642   0.304   0.116   6.215 -0.6794 -2.6120  1.2741
  188SLPC  H15C21643   0.211   0.249   6.244 -0.7424 -1.2807  0.0409
  188SLPC   C1221644   0.321   0.038   6.492  0.0179  0.0640 -0.0127
  188SLPC  H12A21645   0.382  -0.016   6.421  1.2103  0.7677  0.4366
  188SLPC  H12B21646   0.267  -0.033   6.553  0.5802  0.0471  0.4756
  188SLPC   C1121647   0.417   0.120   6.578  0.0232 -0.2414  0.1736
  188SLPC  H11A21648   0.494   0.060   6.631 -0.5466 -0.2435  1.0276
  188SLPC  H11B21649   0.353   0.168   6.656 -2.1017  0.7282 -2.0576
  188SLPC     P21650   0.509   0.370   6.552  0.1926 -0.3082 -0.2223
  188SLPC   O1321651   0.651   0.372   6.590  0.0701  0.0831 -0.6059
  188SLPC   O1421652   0.472   0.462   6.436 -0.1671  0.9483 -0.1344
  188SLPC   O1221653   0.479   0.225   6.502  0.0659  0.5167 -0.1927
  188SLPC   O1121654   0.419   0.403   6.674 -0.5434 -0.2239  0.2544
  188SLPC    C121655   0.473   0.374   6.807  0.3115 -0.2388 -0.1283
  188SLPC    HA21656   0.384   0.335   6.860 -1.5535  0.5304 -2.4980
  188SLPC    HB21657   0.538   0.284   6.809 -0.8439 -1.0764  0.6100
  188SLPC    C221658   0.537   0.501   6.873 -0.5297 -0.0462 -0.4215
  188SLPC    HS21659   0.640   0.511   6.832  0.9361 -3.1587  2.0042
  188SLPC   O2121660   0.566   0.471   7.009 -0.4956 -0.5502 -0.0540
  188SLPC   C2121661   0.636   0.565   7.074  0.3028  0.2352  0.0181
  188SLPC   O2221662   0.694   0.657   7.019 -0.0806 -0.3529 -0.0052
  188SLPC   C2221663   0.636   0.538   7.225  0.1677  0.2780  0.3498
  188SLPC   H2R21664   0.731   0.488   7.253  0.4491  1.1930  1.1162
  188SLPC   H2S21665   0.621   0.635   7.278  1.0981  1.1351 -0.8954
  188SLPC    C321666   0.461   0.635   6.842 -0.1813 -0.3693  0.3271
  188SLPC    HX21667   0.458   0.642   6.731  0.2870  1.0137  0.3800
  188SLPC    HY21668   0.523   0.725   6.861 -0.8858 -0.0657  1.2583
  188SLPC   O3121669   0.331   0.639   6.897  0.2295 -0.7442 -0.3750
  188SLPC   C3121670   0.252   0.745   6.866 -0.3364  0.0919 -0.5317
  188SLPC   O3221671   0.288   0.835   6.790  0.8557  0.1087  0.4082
  188SLPC   C3221672   0.112   0.717   6.921 -0.6426  0.2715  0.2738
  188SLPC   H2X21673   0.061   0.663   6.838  1.5955  0.5618 -1.4048
  188SLPC   H2Y21674   0.051   0.809   6.921 -0.0082  0.7017  0.8499
  188SLPC   C2321675   0.514   0.452   7.265  0.7206  0.3248  0.1248
  188SLPC   H3R21676   0.522   0.347   7.230 -1.1997  0.1107  0.2376
  188SLPC   H3S21677   0.422   0.483   7.210  0.1855  0.2910  0.9831
  188SLPC   C2421678   0.498   0.438   7.413 -0.2033  0.2704  0.1994
  188SLPC   H4R21679   0.417   0.364   7.432  0.5347 -0.1398  1.9682
  188SLPC   H4S21680   0.469   0.541   7.442 -0.9089 -0.2047  1.2406
  188SLPC   C2521681   0.623   0.391   7.497 -0.0168  0.5538 -0.0356
  188SLPC   H5R21682   0.688   0.481   7.503 -1.1596  1.3141  1.4945
  188SLPC   H5S21683   0.667   0.304   7.442 -1.6791  0.9221 -2.0829
  188SLPC   C2621684   0.588   0.358   7.649  0.5607 -0.2989 -0.0400
  188SLPC   H6R21685   0.499   0.291   7.651  0.9362 -0.8535 -0.9140
  188SLPC   H6S21686   0.557   0.447   7.707 -1.3668 -1.0940  0.2178
  188SLPC   C2721687   0.714   0.305   7.728  0.6863 -0.1359  0.7657
  188SLPC   H7R21688   0.792   0.385   7.732 -1.1266  1.8621 -1.1488
  188SLPC   H7S21689   0.750   0.209   7.686  0.0458 -0.1027  0.1233
  188SLPC   C2821690   0.670   0.270   7.872 -0.2928 -0.2009 -0.0407
  188SLPC   H8R21691   0.592   0.191   7.875  0.3819 -0.8844 -0.0962
  188SLPC   H8S21692   0.626   0.358   7.924 -0.5076  0.2606 -0.9847
  188SLPC   C2921693   0.787   0.210   7.949  0.0143  1.0682 -0.9063
  188SLPC   H9R21694   0.781   0.102   7.967  1.3471  1.3211  1.4805
  188SLPC  C21021695   0.887   0.274   8.017  0.2987 -0.8473  0.0013
  188SLPC  H10R21696   0.952   0.201   8.067  0.5166 -0.4024  0.3747
  188SLPC  C21121697   0.907   0.421   8.016  0.1338  0.1542  0.0483
  188SLPC  H11R21698   0.809   0.470   8.032 -1.1258 -2.5854  1.2782
  188SLPC  H11S21699   0.941   0.467   7.921  1.1099  0.4197  0.5021
  188SLPC  C21221700   1.018   0.461   8.112  0.1603  0.1891  0.2573
  188SLPC  H12R21701   1.120   0.460   8.070  1.0107  0.0758  2.2054
  188SLPC  C21321702   1.015   0.476   8.247 -0.3978 -0.4571 -0.2178
  188SLPC  H13R21703   1.113   0.493   8.293 -0.8816 -0.6817  0.9440
  188SLPC  C21421704   0.895   0.462   8.334 -0.5908 -0.4048  0.0209
  188SLPC  H14R21705   0.806   0.499   8.280  0.3410  1.2576 -0.4400
  188SLPC  H14S21706   0.915   0.509   8.433  0.7742  0.7471 -0.7562
  188SLPC  C21521707   0.884   0.309   8.366 -0.0521 -0.1415  0.0569
  188SLPC  H15R21708   0.984   0.272   8.398  0.5241  0.8250 -0.5514
  188SLPC  H15S21709   0.836   0.249   8.286 -2.1131 -0.2698  1.3379
  188SLPC  C21621710   0.783   0.287   8.482 -0.6693  0.2310  0.1797
  188SLPC  H16R21711   0.756   0.181   8.464  1.9809 -0.6280  0.8684
  188SLPC  H16S21712   0.689   0.343   8.460 -0.6357 -0.2609 -1.3511
  188SLPC  C21721713   0.819   0.324   8.625 -0.4341 -0.3778 -0.0646
  188SLPC  H17R21714   0.831   0.434   8.632 -2.5866 -0.0074 -1.2493
  188SLPC  H17S21715   0.918   0.283   8.653  0.6729  1.3388 -1.2842
  188SLPC  C21821716   0.709   0.273   8.722  0.2238 -0.0124 -0.0362
  188SLPC  H18R21717   0.615   0.321   8.688 -0.1168 -0.7839 -0.2076
  188SLPC  H18S21718   0.730   0.318   8.821  0.2801  1.2652 -0.6163
  188SLPC  H18T21719   0.690   0.163   8.717 -0.1265  0.0157  0.6345
  188SLPC   C3321720   0.109   0.641   7.057  1.1505 -0.2985 -0.4623
  188SLPC   H3X21721   0.149   0.539   7.043 -0.1895 -0.7475 -1.1742
  188SLPC   H3Y21722   0.002   0.634   7.085  0.9366  1.1923 -0.8156
  188SLPC   C3421723   0.167   0.709   7.181  0.0902 -1.1636  0.1336
  188SLPC   H4X21724   0.123   0.810   7.193 -0.1263 -1.2722  0.2668
  188SLPC   H4Y21725   0.278   0.717   7.169  0.0414  0.4380  0.5115
  188SLPC   C3521726   0.134   0.632   7.302 -0.3219  0.9578  0.0051
  188SLPC   H5X21727   0.174   0.529   7.300 -1.0754  0.6740 -1.2025
  188SLPC   H5Y21728   0.026   0.606   7.306  0.0471 -0.7036 -0.0799
  188SLPC   C3621729   0.176   0.699   7.434  0.5906  0.5417 -0.4905
  188SLPC   H6X21730   0.116   0.788   7.461 -1.2394 -1.5641  3.1692
  188SLPC   H6Y21731   0.281   0.736   7.428  1.1040 -0.5001  1.2942
  188SLPC   C3721732   0.175   0.620   7.565  0.1781 -0.5808 -0.0652
  188SLPC   H7X21733   0.210   0.518   7.537 -2.5841 -2.7104  3.3755
  188SLPC   H7Y21734   0.070   0.608   7.598 -0.3312  0.1411 -1.3773
  188SLPC   C3821735   0.260   0.694   7.673 -0.3519 -0.0146 -0.2076
  188SLPC   H8X21736   0.221   0.797   7.683  0.7443  1.0049 -4.4177
  188SLPC   H8Y21737   0.362   0.703   7.629 -0.9330  0.2488 -1.5259
  188SLPC   C3921738   0.261   0.619   7.803  0.8397  0.1557 -0.9573
  188SLPC   H9X21739   0.260   0.508   7.802  0.4458  0.0691  1.5769
  188SLPC   H9Y21740   0.169   0.644   7.860  1.2376  0.2633 -0.3460
  188SLPC  C31021741   0.373   0.658   7.901  0.0033 -0.0115  0.1303
  188SLPC  H10X21742   0.383   0.768   7.910  1.2863  0.0426 -1.3790
  188SLPC  H10Y21743   0.476   0.630   7.868  0.4258 -0.0585  1.4586
  188SLPC  C31121744   0.342   0.606   8.040 -0.3389 -0.0772  0.2237
  188SLPC  H11X21745   0.305   0.501   8.036 -0.3596 -0.0618  0.0373
  188SLPC  H11Y21746   0.267   0.673   8.087 -0.5580  1.2417 -1.8904
  188SLPC  C31221747   0.471   0.610   8.128 -0.4106  0.1738 -0.1156
  188SLPC  H12X21748   0.504   0.714   8.149 -0.9718 -0.0685  2.2709
  188SLPC  H12Y21749   0.545   0.550   8.071 -2.5464 -1.8645 -0.9085
  188SLPC  C31321750   0.441   0.563   8.264  0.1486  0.4679 -0.2099
  188SLPC  H13X21751   0.359   0.632   8.296  0.6060  0.6163  0.6699
  188SLPC  H13Y21752   0.522   0.587   8.337 -2.1599  0.4080  2.5720
  188SLPC  C31421753   0.414   0.409   8.285  0.4445 -0.8697 -0.2267
  188SLPC  H14X21754   0.497   0.337   8.271  0.6511 -0.2616 -2.6542
  188SLPC  H14Y21755   0.337   0.383   8.209  0.5166  0.1516 -0.6662
  188SLPC  C31521756   0.359   0.387   8.422  0.2944 -0.0418 -0.0174
  188SLPC  H15X21757   0.271   0.452   8.441  1.2769  1.5953 -0.8492
  188SLPC  H15Y21758   0.437   0.401   8.500 -0.0442 -0.1358  0.3414
  188SLPC  C31621759   0.303   0.245   8.439  0.3404 -0.7418  0.2455
  188SLPC  H16X21760   0.396   0.183   8.432  0.5389 -0.2617 -2.8661
  188SLPC  H16Y21761   0.235   0.231   8.353  0.1087  0.2591  0.2603
  188SLPC  C31721762   0.235   0.222   8.572 -0.2437 -0.5105  0.6294
  188SLPC  H17X21763   0.170   0.309   8.591 -0.1145 -0.1761 -0.3669
  188SLPC  H17Y21764   0.303   0.204   8.658 -2.2839 -0.4625  2.3285
  188SLPC  C31821765   0.153   0.091   8.571 -0.2790  0.1421  0.0938
  188SLPC  H18X21766   0.218   0.002   8.572 -2.1858 -1.3251 -0.3674
  188SLPC  H18Y21767   0.091   0.101   8.479 -0.1478 -0.8546 -0.1124
  188SLPC  H18Z21768   0.072   0.086   8.647 -0.8560 -1.4582 -0.5750
  189SLPC     N21769   1.835   0.829   6.262 -0.4193 -0.0654 -0.3206
  189SLPC   C1321770   1.790   0.778   6.129  0.4561  0.0151 -0.6088
  189SLPC  H13A21771   1.690   0.739   6.136 -0.1525  1.2509 -2.0208
  189SLPC  H13B21772   1.771   0.860   6.062 -1.5045 -0.6741 -0.9433
  189SLPC  H13C21773   1.859   0.700   6.099 -1.5774 -1.8881 -0.5304
  189SLPC   C1421774   1.807   0.735   6.375 -0.0570 -0.0575  0.4031
  189SLPC  H14A21775   1.701   0.716   6.388  0.1012 -0.3134  1.4738
  189SLPC  H14B21776   1.862   0.643   6.364  0.3780  0.3311 -0.8179
  189SLPC  H14C21777   1.830   0.773   6.474 -0.5821 -1.1379  0.9686
  189SLPC   C1521778   1.743   0.950   6.292  0.8228 -0.0631  0.2647
  189SLPC  H15A21779   1.640   0.919   6.305 -0.0999  2.9612  1.1559
  189SLPC  H15B21780   1.766   1.004   6.382 -1.7214  1.1391  0.2990
  189SLPC  H15C21781   1.747   1.023   6.212 -0.5574  0.5545  0.7170
  189SLPC   C1221782   1.979   0.874   6.267  0.6145 -0.3423  1.1440
  189SLPC  H12A21783   1.985   0.937   6.180 -1.3723  0.1755  1.3342
  189SLPC  H12B21784   2.047   0.791   6.254 -0.6279 -1.3641  1.0431
  189SLPC   C1121785   2.013   0.957   6.394  0.3902  0.1038  0.6421
  189SLPC  H11A21786   2.123   0.966   6.399  0.2975  1.4349  0.7667
  189SLPC  H11B21787   1.976   0.910   6.487 -1.8557 -1.2519 -0.8357
  189SLPC     P21788   1.994   1.204   6.288  0.3971 -0.0535  0.2755
  189SLPC   O1321789   2.015   1.153   6.151  0.4962 -0.2659  0.2405
  189SLPC   O1421790   1.898   1.318   6.302  0.6904 -0.6413 -0.3873
  189SLPC   O1221791   1.952   1.087   6.387  0.6321  0.5245 -0.2111
  189SLPC   O1121792   2.131   1.258   6.347  0.1363 -0.0463  0.5129
  189SLPC    C121793   2.124   1.307   6.484  0.1931 -0.5697 -0.1720
  189SLPC    HA21794   2.067   1.401   6.493  0.6972 -0.3848  1.5972
  189SLPC    HB21795   2.096   1.229   6.558  1.8497  0.4358  1.6364
  189SLPC    C221796   2.266   1.351   6.528  0.0895  0.0681  0.1445
  189SLPC    HS21797   2.282   1.449   6.480  0.5920 -0.8000 -1.5316
  189SLPC   O2121798   2.376   1.260   6.477 -0.3119 -0.3579  0.3614
  189SLPC   C2121799   2.504   1.307   6.489  0.4907 -0.1466 -0.1284
  189SLPC   O2221800   2.528   1.419   6.527  0.6935 -0.1500 -0.4566
  189SLPC   C2221801   2.609   1.207   6.449  0.3150  0.0376 -0.5971
  189SLPC   H2R21802   2.579   1.101   6.464  0.0945  0.1364 -0.3386
  189SLPC   H2S21803   2.625   1.231   6.341  0.7629  0.8704 -0.3540
  189SLPC    C321804   2.285   1.353   6.683  0.1159  0.0506 -0.0754
  189SLPC    HX21805   2.389   1.382   6.709 -1.0502  2.0588  2.9056
  189SLPC    HY21806   2.275   1.252   6.726 -2.5542  0.2603 -0.0488
  189SLPC   O3121807   2.184   1.441   6.745  0.0135  0.1493 -0.1795
  189SLPC   C3121808   2.225   1.564   6.761  0.0419  0.3433  1.0659
  189SLPC   O3221809   2.326   1.605   6.705 -0.0153 -0.4715 -0.8144
  189SLPC   C3221810   2.128   1.648   6.832  0.1563 -0.3346 -0.5205
  189SLPC   H2X21811   2.030   1.601   6.807 -0.7101  0.3560  1.3525
  189SLPC   H2Y21812   2.132   1.753   6.797 -2.4093 -0.2571 -0.8066
  189SLPC   C2321813   2.747   1.228   6.507  0.8071  0.4298  0.6078
  189SLPC   H3R21814   2.789   1.330   6.494 -0.5455  1.2245  2.1483
  189SLPC   H3S21815   2.831   1.164   6.471  0.0714  0.2525 -0.8603
  189SLPC   C2421816   2.740   1.203   6.655 -0.6946 -0.4161 -1.1506
  189SLPC   H4R21817   2.683   1.278   6.714  1.6498  0.1137  0.5758
  189SLPC   H4S21818   2.840   1.211   6.701 -2.3030  1.7682  2.4378
  189SLPC   C2521819   2.674   1.068   6.710  0.2974  0.2092 -0.3229
  189SLPC   H5R21820   2.724   0.990   6.648 -0.4711  0.4780 -1.3116
  189SLPC   H5S21821   2.568   1.084   6.682 -0.0541 -1.0873  0.1879
  189SLPC   C2621822   2.677   1.070   6.862  0.0486  0.0682 -0.1633
  189SLPC   H6R21823   2.604   1.140   6.906 -1.2767 -1.5945  0.3975
  189SLPC   H6S21824   2.773   1.103   6.908 -0.6965  2.8850 -0.4431
  189SLPC   C2721825   2.656   0.926   6.927  0.2091  0.4094 -0.7299
  189SLPC   H7R21826   2.747   0.865   6.908 -0.6864 -0.6177 -1.9057
  189SLPC   H7S21827   2.569   0.884   6.872 -2.4260  2.2725  1.7784
  189SLPC   C2821828   2.635   0.937   7.074 -0.0650  0.5358 -0.4027
  189SLPC   H8R21829   2.562   1.020   7.082  0.6653  1.2294 -0.8505
  189SLPC   H8S21830   2.727   0.978   7.120  1.1009 -0.2323 -1.9596
  189SLPC   C2921831   2.557   0.819   7.142  0.3475 -0.5665  0.7000
  189SLPC   H9R21832   2.452   0.811   7.111  0.9803 -1.1547 -1.4573
  189SLPC  C21021833   2.606   0.753   7.247 -0.5729 -0.0662  0.2713
  189SLPC  H10R21834   2.545   0.670   7.286  0.7144 -0.3478  1.7922
  189SLPC  C21121835   2.744   0.773   7.306 -0.3029  0.4233 -0.2804
  189SLPC  H11R21836   2.740   0.736   7.411  1.7614  2.4962  0.5969
  189SLPC  H11S21837   2.771   0.880   7.310  1.0334  0.1764 -1.6487
  189SLPC  C21221838   2.851   0.713   7.220 -0.8364  0.0795  0.8336
  189SLPC  H12R21839   2.828   0.701   7.113  1.3532 -0.3865  0.3565
  189SLPC  C21321840   2.978   0.676   7.255  0.4234  0.4430 -0.0883
  189SLPC  H13R21841   3.039   0.627   7.178  0.0462 -0.8162  0.3935
  189SLPC  C21421842   3.043   0.689   7.388  0.1868  0.3131 -0.2074
  189SLPC  H14R21843   3.138   0.633   7.378 -0.9754 -2.2080  1.6933
  189SLPC  H14S21844   2.977   0.640   7.463  2.4350 -1.7773  0.5679
  189SLPC  C21521845   3.076   0.831   7.434  0.0472  0.3596 -0.6006
  189SLPC  H15R21846   3.147   0.828   7.519 -0.7990  0.5077  0.1206
  189SLPC  H15S21847   2.979   0.877   7.463 -0.3343 -1.0151  0.4255
  189SLPC  C21621848   3.146   0.916   7.325  0.2184 -0.0296 -0.4145
  189SLPC  H16R21849   3.110   0.907   7.221  1.3123  0.7257 -0.8788
  189SLPC  H16S21850   3.253   0.890   7.315  0.5027  1.3976 -1.3650
  189SLPC  C21721851   3.133   1.065   7.359  0.6684 -0.6524 -0.0684
  189SLPC  H17R21852   3.025   1.091   7.353  0.5862 -1.1881 -0.9503
  189SLPC  H17S21853   3.189   1.127   7.286 -1.7367 -0.9360 -2.3071
  189SLPC  C21821854   3.194   1.089   7.503  0.7101 -0.2214  0.5259
  189SLPC  H18R21855   3.127   1.047   7.581  1.1764  0.5278  1.3448
  189SLPC  H18S21856   3.208   1.199   7.516  0.1288  0.0941 -1.1994
  189SLPC  H18T21857   3.292   1.039   7.517  1.3707  1.4147  2.2146
  189SLPC   C3321858   2.158   1.636   6.985 -0.0017 -0.8504 -0.0788
  189SLPC   H3X21859   2.117   1.729   7.030  2.6784 -0.5469  1.9618
  189SLPC   H3Y21860   2.269   1.639   6.997 -0.1227  2.4142  1.3311
  189SLPC   C3421861   2.111   1.512   7.047  1.0630  0.1294 -0.4430
  189SLPC   H4X21862   2.169   1.425   7.010 -0.0457  0.1925 -2.4532
  189SLPC   H4Y21863   2.010   1.485   7.008  0.4398  0.6349  0.7774
  189SLPC   C3521864   2.114   1.512   7.199  0.3979 -0.4448 -0.9431
  189SLPC   H5X21865   2.092   1.616   7.231 -0.8536 -0.4345 -1.7703
  189SLPC   H5Y21866   2.212   1.479   7.240  0.0868  0.4607  0.6152
  189SLPC   C3621867   1.999   1.416   7.253 -0.0487  0.0639 -0.3355
  189SLPC   H6X21868   2.023   1.320   7.202 -0.4933 -0.1521 -0.1449
  189SLPC   H6Y21869   1.900   1.430   7.202  0.3497 -0.9314 -1.4199
  189SLPC   C3721870   1.989   1.397   7.405 -0.2048 -0.3840  1.2026
  189SLPC   H7X21871   2.084   1.356   7.444  1.3007  1.2306 -0.5854
  189SLPC   H7Y21872   1.916   1.316   7.428  0.7647 -1.3907  0.8459
  189SLPC   C3821873   1.942   1.520   7.475 -0.1766  0.8125 -0.5952
  189SLPC   H8X21874   1.857   1.566   7.419  0.0949  0.8949 -0.9438
  189SLPC   H8Y21875   2.029   1.589   7.475  1.1818 -0.8223  0.7394
  189SLPC   C3921876   1.889   1.492   7.618  1.4379 -0.0603  0.1626
  189SLPC   H9X21877   1.829   1.398   7.618 -0.5410  1.1455 -1.0205
  189SLPC   H9Y21878   1.830   1.577   7.656 -0.0392 -1.3148  0.7802
  189SLPC  C31021879   2.011   1.492   7.714  0.8197 -0.6390 -0.1610
  189SLPC  H10X21880   2.061   1.591   7.700 -3.8036  2.3962  2.1202
  189SLPC  H10Y21881   2.086   1.414   7.689  1.2849 -0.5186  0.7856
  189SLPC  C31121882   1.981   1.477   7.870 -0.2220 -0.0155  0.2366
  189SLPC  H11X21883   1.929   1.381   7.891  0.4857 -0.1744  1.3540
  189SLPC  H11Y21884   1.904   1.555   7.886 -0.3626  0.1742 -1.2318
  189SLPC  C31221885   2.099   1.511   7.959  0.6801  0.1104 -0.3320
  189SLPC  H12X21886   2.151   1.598   7.916 -1.9113  2.5946  1.2253
  189SLPC  H12Y21887   2.169   1.424   7.958  0.8043  0.1811  0.8866
  189SLPC  C31321888   2.057   1.543   8.108  0.0290  0.4365  0.0161
  189SLPC  H13X21889   1.978   1.475   8.146  1.5227 -1.4140  0.0123
  189SLPC  H13Y21890   2.006   1.641   8.109 -0.8807 -0.0275  1.3703
  189SLPC  C31421891   2.177   1.525   8.208  0.1361  0.5152 -0.1117
  189SLPC  H14X21892   2.246   1.610   8.191  1.2436 -0.3059  0.1422
  189SLPC  H14Y21893   2.237   1.437   8.177 -1.5363  0.0267 -2.1920
  189SLPC  C31521894   2.131   1.523   8.350 -0.3012 -0.3563  0.1068
  189SLPC  H15X21895   2.062   1.607   8.370  0.1950  0.5014 -1.6390
  189SLPC  H15Y21896   2.221   1.546   8.412 -1.6212  2.1723  1.2347
  189SLPC  C31621897   2.077   1.393   8.394  0.1598 -0.0678 -0.1393
  189SLPC  H16X21898   2.146   1.308   8.375  0.6118  0.1182  0.6378
  189SLPC  H16Y21899   1.983   1.376   8.336 -0.6235  2.7996  0.1325
  189SLPC  C31721900   2.026   1.391   8.539 -0.1301  0.5812 -0.9576
  189SLPC  H17X21901   1.973   1.486   8.563  1.6882  1.7756 -1.4729
  189SLPC  H17Y21902   2.117   1.388   8.603 -1.0679 -0.0652  0.4000
  189SLPC  C31821903   1.932   1.274   8.570  1.1289  0.4935  0.9088
  189SLPC  H18X21904   1.970   1.178   8.528 -1.4374  0.5047 -1.7512
  189SLPC  H18Y21905   1.832   1.300   8.529  2.2175  1.6153 -1.2297
  189SLPC  H18Z21906   1.902   1.262   8.676 -0.3183  0.2234  0.4934
  190SLPC     N21907   3.861   5.787   6.197  0.5258  0.5325 -0.2003
  190SLPC   C1321908   3.944   5.677   6.139 -0.6508  0.1209 -0.5868
  190SLPC  H13A21909   3.902   5.578   6.153  0.9527 -0.6756 -1.1700
  190SLPC  H13B21910   3.964   5.693   6.034  0.5779  1.8007 -0.1284
  190SLPC  H13C21911   4.043   5.669   6.182 -0.5329  2.3786 -0.3137
  190SLPC   C1421912   3.936   5.912   6.204  0.2379 -0.1199 -0.7553
  190SLPC  H14A21913   4.041   5.891   6.218 -0.0822 -0.8728  0.7076
  190SLPC  H14B21914   3.923   5.966   6.112 -2.2821  0.0735 -0.3385
  190SLPC  H14C21915   3.892   5.978   6.278 -0.7905  0.9174 -2.2497
  190SLPC   C1521916   3.829   5.744   6.338 -0.4430  0.2067  0.8483
  190SLPC  H15A21917   3.776   5.824   6.388  0.5501  0.5571  1.3735
  190SLPC  H15B21918   3.758   5.663   6.343  1.3772 -1.3999  1.8757
  190SLPC  H15C21919   3.920   5.714   6.388  0.0092 -2.7920 -1.4880
  190SLPC   C1221920   3.735   5.805   6.112 -0.1316 -0.3689  0.7894
  190SLPC  H12A21921   3.763   5.799   6.008  1.5500 -1.0995  1.2581
  190SLPC  H12B21922   3.699   5.907   6.116  2.2435  0.5675  0.1992
  190SLPC   C1121923   3.613   5.707   6.133  0.1524 -0.8794 -0.7063
  190SLPC  H11A21924   3.668   5.612   6.116  1.2299 -0.4481  0.2405
  190SLPC  H11B21925   3.544   5.728   6.048 -0.8087 -0.1699  0.2248
  190SLPC     P21926   3.497   5.576   6.331  0.0152 -0.2065 -0.1586
  190SLPC   O1321927   3.430   5.505   6.220 -0.3727  0.0291  0.4926
  190SLPC   O1421928   3.605   5.501   6.410  0.7861 -1.3753 -0.0416
  190SLPC   O1221929   3.552   5.713   6.266 -0.0587  0.0408 -0.4964
  190SLPC   O1121930   3.403   5.634   6.441 -0.2697  0.0000  0.0525
  190SLPC    C121931   3.402   5.766   6.492 -0.4191 -0.2766 -1.0359
  190SLPC    HA21932   3.491   5.828   6.466 -1.4441  0.8288 -2.0806
  190SLPC    HB21933   3.311   5.820   6.457 -0.2162 -0.2160 -1.4868
  190SLPC    C221934   3.387   5.777   6.645 -0.6836  1.2941 -0.0221
  190SLPC    HS21935   3.485   5.751   6.690 -0.8849  1.6832  0.6617
  190SLPC   O2121936   3.282   5.684   6.680  0.1665 -0.4979 -0.2176
  190SLPC   C2121937   3.315   5.586   6.768  0.2658  0.2192  0.8361
  190SLPC   O2221938   3.427   5.569   6.809 -0.2487  0.0528 -0.4421
  190SLPC   C2221939   3.194   5.510   6.817 -0.0584  0.5145  0.2294
  190SLPC   H2R21940   3.114   5.584   6.838 -1.3011 -0.7867  0.2166
  190SLPC   H2S21941   3.142   5.448   6.741 -0.0361  1.3629 -0.4905
  190SLPC    C321942   3.358   5.919   6.688 -0.2404 -0.4242  0.2115
  190SLPC    HX21943   3.256   5.947   6.652  0.5154  4.1527  1.0180
  190SLPC    HY21944   3.431   5.987   6.640  0.4546 -1.0121  0.4219
  190SLPC   O3121945   3.357   5.927   6.830 -0.5232 -1.0149 -0.3044
  190SLPC   C3121946   3.269   5.876   6.911 -0.3465  0.2989 -1.0144
  190SLPC   O3221947   3.164   5.825   6.877 -0.0433 -0.0356  0.0510
  190SLPC   C3221948   3.323   5.884   7.053 -0.1684  0.7100 -0.7118
  190SLPC   H2X21949   3.378   5.981   7.055 -0.3832  0.8275  0.6318
  190SLPC   H2Y21950   3.390   5.796   7.060  2.1907  2.4672  0.0562
  190SLPC   C2321951   3.218   5.418   6.936  0.2838  0.1769  0.5729
  190SLPC   H3R21952   3.304   5.350   6.916  1.2350  2.0768 -2.5543
  190SLPC   H3S21953   3.123   5.362   6.946 -0.9272  1.5985 -2.0043
  190SLPC   C2421954   3.239   5.499   7.063 -0.2644  0.3481  0.4995
  190SLPC   H4R21955   3.184   5.594   7.049  0.7717  1.2499  2.1347
  190SLPC   H4S21956   3.349   5.517   7.069 -0.0345 -1.0296  0.7760
  190SLPC   C2521957   3.190   5.425   7.185  0.5971 -0.2908 -0.1598
  190SLPC   H5R21958   3.231   5.322   7.188 -0.6644 -0.7850  2.3134
  190SLPC   H5S21959   3.080   5.413   7.173  0.3271  1.0418  0.8515
  190SLPC   C2621960   3.210   5.492   7.316 -0.0958 -0.0780 -0.3719
  190SLPC   H6R21961   3.149   5.579   7.350  0.5232  0.2566 -0.0915
  190SLPC   H6S21962   3.314   5.531   7.322 -0.4694  0.9404 -0.1614
  190SLPC   C2721963   3.185   5.401   7.439 -0.1344 -0.3233  0.5390
  190SLPC   H7R21964   3.279   5.342   7.447  1.3593  1.8096 -0.3719
  190SLPC   H7S21965   3.100   5.338   7.404  0.7756 -0.6576 -1.2213
  190SLPC   C2821966   3.154   5.480   7.562  0.1894 -0.8541 -0.9612
  190SLPC   H8R21967   3.055   5.530   7.553  1.4642  2.1750  0.5471
  190SLPC   H8S21968   3.223   5.564   7.585  0.8746 -1.7654  0.4081
  190SLPC   C2921969   3.144   5.381   7.676 -0.6092 -0.3333 -0.2456
  190SLPC   H9R21970   3.045   5.334   7.692  0.6358 -3.2277 -0.3628
  190SLPC  C21021971   3.234   5.363   7.769 -0.3623  0.4583 -0.1137
  190SLPC  H10R21972   3.224   5.284   7.846  3.3487 -0.5007 -0.4114
  190SLPC  C21121973   3.361   5.427   7.783 -0.2589  0.3022  0.0574
  190SLPC  H11R21974   3.389   5.494   7.699  0.0597 -0.0338 -0.1090
  190SLPC  H11S21975   3.442   5.351   7.785 -1.4612 -1.0305 -0.0951
  190SLPC  C21221976   3.372   5.516   7.905 -0.3284 -0.1037  0.4750
  190SLPC  H12R21977   3.315   5.610   7.907 -1.1663 -0.6148  2.5009
  190SLPC  C21321978   3.440   5.482   8.017 -0.2331  0.8075 -0.5860
  190SLPC  H13R21979   3.432   5.560   8.094  0.5633  0.4592 -0.1368
  190SLPC  C21421980   3.520   5.358   8.051  1.1121  0.9656  0.3100
  190SLPC  H14R21981   3.627   5.381   8.068  1.0658  0.2102  1.8074
  190SLPC  H14S21982   3.509   5.276   7.977 -0.0811  0.6039  0.8466
  190SLPC  C21521983   3.458   5.302   8.186 -0.6761  0.0748 -0.1465
  190SLPC  H15R21984   3.488   5.195   8.186  1.7214  0.6793  0.2283
  190SLPC  H15S21985   3.348   5.316   8.191 -1.0743 -1.8091 -1.9805
  190SLPC  C21621986   3.519   5.368   8.316  0.2272  0.1033  0.4767
  190SLPC  H16R21987   3.503   5.477   8.307 -0.4346 -0.0829 -0.8165
  190SLPC  H16S21988   3.628   5.349   8.321  0.2459  0.4391  2.2252
  190SLPC  C21721989   3.453   5.333   8.455 -0.0658 -0.8916  0.0597
  190SLPC  H17R21990   3.455   5.222   8.459 -2.3667 -1.0458 -0.9874
  190SLPC  H17S21991   3.344   5.356   8.448 -0.4057 -2.5277 -0.5052
  190SLPC  C21821992   3.537   5.383   8.570 -0.4851 -0.2597  0.5569
  190SLPC  H18R21993   3.506   5.340   8.668  0.0845 -2.2949 -0.0999
  190SLPC  H18S21994   3.536   5.494   8.564 -0.1342 -0.3336 -2.1970
  190SLPC  H18T21995   3.640   5.348   8.547 -0.2757 -1.7647  3.3375
  190SLPC   C3321996   3.215   5.863   7.165  1.1011  0.3199  0.4009
  190SLPC   H3X21997   3.165   5.766   7.148 -1.2930  1.6781 -0.9158
  190SLPC   H3Y21998   3.134   5.937   7.148 -0.0540 -1.5291 -3.4170
  190SLPC   C3421999   3.281   5.862   7.301 -0.7193 -0.6528 -0.8984
  190SLPC   H4X22000   3.359   5.941   7.296 -0.9161 -0.4727 -1.1265
  190SLPC   H4Y22001   3.336   5.770   7.330  1.2634  1.5055  2.9579
  190SLPC   C3522002   3.186   5.893   7.411  0.0428 -0.1993  0.0989
  190SLPC   H5X22003   3.095   5.831   7.412 -0.1218 -0.1112  3.3965
  190SLPC   H5Y22004   3.152   5.999   7.403 -1.3491 -0.6950 -0.7121
  190SLPC   C3622005   3.247   5.888   7.555 -0.3388  0.3847 -0.4368
  190SLPC   H6X22006   3.326   5.965   7.571 -1.1156  0.7213  2.4235
  190SLPC   H6Y22007   3.289   5.786   7.568 -1.3140  0.0874  0.5101
  190SLPC   C3722008   3.143   5.914   7.663  0.1799 -0.0486  0.1501
  190SLPC   H7X22009   3.060   5.840   7.649  0.4857 -0.3617 -0.0332
  190SLPC   H7Y22010   3.093   6.011   7.643  0.2219 -0.1084 -0.2607
  190SLPC   C3822011   3.192   5.897   7.807  0.6400  0.2357 -0.6008
  190SLPC   H8X22012   3.257   5.808   7.821  1.2226  0.1257 -3.4248
  190SLPC   H8Y22013   3.099   5.887   7.868  2.1639  0.1814  1.8252
  190SLPC   C3922014   3.262   6.020   7.864 -0.5864  0.9050  0.5073
  190SLPC   H9X22015   3.209   6.110   7.825 -0.0600  0.4261 -1.4159
  190SLPC   H9Y22016   3.366   6.018   7.826 -2.0273 -1.5836 -4.0238
  190SLPC  C31022017   3.272   6.031   8.021  0.0071  0.5176  0.5915
  190SLPC  H10X22018   3.343   5.955   8.061  0.8795  1.0824  0.1558
  190SLPC  H10Y22019   3.174   5.993   8.057 -0.2660 -0.4030 -1.0333
  190SLPC  C31122020   3.299   6.174   8.070  0.7822  0.0938 -0.8055
  190SLPC  H11X22021   3.216   6.244   8.049  1.6965  1.5363  0.2138
  190SLPC  H11Y22022   3.392   6.209   8.019  0.8069  1.0309 -0.1342
  190SLPC  C31222023   3.305   6.180   8.225  0.1234 -0.2486  0.4638
  190SLPC  H12X22024   3.412   6.159   8.245  1.4336  2.5734 -2.5733
  190SLPC  H12Y22025   3.236   6.100   8.260  2.1463 -1.4481  1.8972
  190SLPC  C31322026   3.283   6.320   8.288 -0.4346 -0.2811 -0.0212
  190SLPC  H13X22027   3.259   6.293   8.392 -0.0078 -0.3746  0.0529
  190SLPC  H13Y22028   3.195   6.380   8.255  1.8624  3.8596  0.7086
  190SLPC  C31422029   3.411   6.408   8.286 -0.1362 -0.4719  0.6601
  190SLPC  H14X22030   3.435   6.411   8.178  0.6084 -0.9438  0.8081
  190SLPC  H14Y22031   3.490   6.357   8.345  1.1494  0.0163 -0.5851
  190SLPC  C31522032   3.380   6.545   8.344 -0.5458 -0.5528 -0.2345
  190SLPC  H15X22033   3.353   6.538   8.451 -2.8848 -1.4086 -0.8308
  190SLPC  H15Y22034   3.288   6.585   8.297 -0.8819 -1.5190 -0.4088
  190SLPC  C31622035   3.492   6.654   8.322 -0.2605 -0.1333  0.7813
  190SLPC  H16X22036   3.500   6.669   8.212  0.2906  0.2156  0.8675
  190SLPC  H16Y22037   3.590   6.611   8.351 -0.4475 -0.9095  0.3064
  190SLPC  C31722038   3.462   6.776   8.403 -1.0832 -0.0181  0.5691
  190SLPC  H17X22039   3.552   6.824   8.447 -0.4022  2.4723 -3.0800
  190SLPC  H17Y22040   3.397   6.765   8.492 -2.0376 -1.0149 -0.2242
  190SLPC  C31822041   3.408   6.884   8.309  0.0474 -0.1989 -0.0038
  190SLPC  H18X22042   3.476   6.902   8.223  1.4886  1.5562  1.4370
  190SLPC  H18Y22043   3.386   6.980   8.361 -0.6696  1.0699 -2.4950
  190SLPC  H18Z22044   3.309   6.855   8.267  0.2194  0.3698 -0.8383
  191SLPC     N22045   0.915   5.077   5.982  0.2858  0.4330 -0.2115
  191SLPC   C1322046   0.840   5.210   5.955 -0.1104 -0.2533  0.7495
  191SLPC  H13A22047   0.905   5.286   5.914 -1.5076  0.2790 -0.5526
  191SLPC  H13B22048   0.753   5.205   5.891  1.4483  1.5952 -1.7187
  191SLPC  H13C22049   0.796   5.249   6.046 -1.3095 -1.4859  0.7388
  191SLPC   C1422050   1.048   5.111   6.035 -0.4049  0.6157  0.2497
  191SLPC  H14A22051   1.051   5.166   6.128  1.1187 -1.6273  1.6135
  191SLPC  H14B22052   1.117   5.029   6.051 -0.4498  0.5200 -0.0371
  191SLPC  H14C22053   1.104   5.177   5.970 -0.0417  1.8097  1.7159
  191SLPC   C1522054   0.931   5.003   5.852  0.0677 -0.0469 -1.0533
  191SLPC  H15A22055   0.838   4.961   5.814  0.4192 -0.7513 -1.1631
  191SLPC  H15B22056   0.973   5.061   5.772  0.6300 -0.4135 -1.0284
  191SLPC  H15C22057   0.976   4.907   5.874  2.5304  1.4827  1.0302
  191SLPC   C1222058   0.839   4.991   6.083  0.2299 -0.2785  0.2235
  191SLPC  H12A22059   0.744   4.972   6.035  0.3343  2.8699 -1.5595
  191SLPC  H12B22060   0.814   5.043   6.174  0.8122 -2.0747  1.4579
  191SLPC   C1122061   0.898   4.858   6.133  0.0033 -0.1725 -0.3328
  191SLPC  H11A22062   0.850   4.816   6.224  0.3012  0.8094  0.2961
  191SLPC  H11B22063   1.002   4.875   6.168 -0.4006 -0.7610  1.2028
  191SLPC     P22064   0.802   4.662   6.001  0.5724  0.3405  0.4590
  191SLPC   O1322065   0.675   4.731   6.013  0.1785 -0.8535  0.6452
  191SLPC   O1422066   0.828   4.594   5.875  0.2791  0.4346  0.0492
  191SLPC   O1222067   0.925   4.768   6.024  0.1542  0.2774 -0.7001
  191SLPC   O1122068   0.819   4.556   6.110 -0.2888  0.3823 -1.1798
  191SLPC    C122069   0.942   4.502   6.164 -0.9890  0.0103  0.6507
  191SLPC    HA22070   0.973   4.412   6.106  0.7241  1.7318 -1.2736
  191SLPC    HB22071   1.026   4.575   6.159  0.6019 -1.5816  2.3535
  191SLPC    C222072   0.943   4.459   6.312  0.5452  0.2903  0.8431
  191SLPC    HS22073   1.047   4.421   6.325  0.2295 -0.4308  1.3190
  191SLPC   O2122074   0.834   4.362   6.331  0.1468  0.0115 -0.4832
  191SLPC   C2122075   0.873   4.249   6.392  0.0206 -0.4851  0.3709
  191SLPC   O2222076   0.985   4.224   6.431  0.1164  0.0175  0.1473
  191SLPC   C2222077   0.754   4.160   6.395  0.0137 -1.0725 -0.5095
  191SLPC   H2R22078   0.680   4.219   6.453  0.2722 -0.1649 -1.0742
  191SLPC   H2S22079   0.713   4.138   6.294 -0.7268  2.7633 -1.1731
  191SLPC    C322080   0.929   4.581   6.407 -0.0795  0.2682  0.2999
  191SLPC    HX22081   0.828   4.622   6.384 -1.0719 -0.3918  3.0120
  191SLPC    HY22082   1.004   4.657   6.376  0.7183  0.9151  3.4629
  191SLPC   O3122083   0.939   4.549   6.548  0.4592 -0.5414  0.1800
  191SLPC   C3122084   1.058   4.567   6.606 -0.2573  0.0735 -0.0452
  191SLPC   O3222085   1.154   4.631   6.562  0.0570 -0.2893 -0.4006
  191SLPC   C3222086   1.066   4.503   6.744 -0.3029 -0.1486 -0.6626
  191SLPC   H2X22087   1.171   4.476   6.770 -0.6733  1.1662  2.5081
  191SLPC   H2Y22088   1.012   4.406   6.746 -0.1509 -0.2244  1.7972
  191SLPC   C2322089   0.794   4.025   6.461  0.0404  0.5233 -0.0843
  191SLPC   H3R22090   0.890   3.981   6.427  0.2836 -0.2358  1.5132
  191SLPC   H3S22091   0.731   3.941   6.424  0.6243 -0.6761  1.5146
  191SLPC   C2422092   0.793   4.023   6.616  0.7552 -0.1573 -0.3146
  191SLPC   H4R22093   0.686   4.038   6.643  0.9023 -2.5112  1.8565
  191SLPC   H4S22094   0.840   4.115   6.656 -0.9565  0.1115  1.2309
  191SLPC   C2522095   0.851   3.903   6.694  0.1307  0.2710  0.3897
  191SLPC   H5R22096   0.957   3.888   6.664 -0.2025 -1.0404 -0.1894
  191SLPC   H5S22097   0.788   3.820   6.655  3.8205 -0.7373 -4.3576
  191SLPC   C2622098   0.864   3.908   6.847 -0.1923  0.2508 -0.1222
  191SLPC   H6R22099   0.951   3.969   6.881 -0.3854  0.2471  0.3929
  191SLPC   H6S22100   0.897   3.810   6.888  0.9575  0.7752  0.2912
  191SLPC   C2722101   0.738   3.963   6.908  0.3830 -0.1938  0.3305
  191SLPC   H7R22102   0.646   3.910   6.875  0.8230 -0.4845 -0.4269
  191SLPC   H7S22103   0.729   4.070   6.880  0.8871 -0.4267 -0.7574
  191SLPC   C2822104   0.745   3.953   7.064  0.2363  0.1143  0.7112
  191SLPC   H8R22105   0.764   3.847   7.091  1.0929  0.4151  1.3156
  191SLPC   H8S22106   0.641   3.975   7.096 -1.2409  1.3476 -4.0495
  191SLPC   C2922107   0.840   4.058   7.129 -0.1380  0.6490  0.3750
  191SLPC   H9R22108   0.861   4.145   7.065  1.4761  0.2758  0.3568
  191SLPC  C21022109   0.884   4.051   7.255 -0.4060 -0.0624  0.8777
  191SLPC  H10R22110   0.947   4.137   7.284  1.5475 -1.0203 -0.3027
  191SLPC  C21122111   0.850   3.948   7.359  0.3610  0.4412  0.3910
  191SLPC  H11R22112   0.941   3.886   7.375 -1.0840 -2.4005 -1.4050
  191SLPC  H11S22113   0.778   3.870   7.327  0.3310 -0.2397  2.0497
  191SLPC  C21222114   0.803   3.997   7.489 -0.4378  0.0890 -0.1055
  191SLPC  H12R22115   0.705   4.048   7.484 -0.1886  0.4912 -1.0812
  191SLPC  C21322116   0.865   3.992   7.611  0.6050 -0.0497  0.5829
  191SLPC  H13R22117   0.821   4.050   7.694  1.4871  0.4663  0.7000
  191SLPC  C21422118   0.991   3.923   7.643  0.3991  0.2808  0.0350
  191SLPC  H14R22119   1.058   3.998   7.692 -0.4319  1.3880 -0.5002
  191SLPC  H14S22120   1.042   3.873   7.558  0.6915 -0.0621  0.4047
  191SLPC  C21522121   0.977   3.810   7.750 -0.1049 -0.2838 -0.5715
  191SLPC  H15R22122   1.084   3.790   7.773  0.4919 -0.9021 -3.4769
  191SLPC  H15S22123   0.938   3.719   7.699 -0.1276  0.2241 -1.4909
  191SLPC  C21622124   0.927   3.851   7.889 -0.7856 -0.7216 -0.0204
  191SLPC  H16R22125   0.828   3.901   7.880 -0.9636 -0.6920  1.7025
  191SLPC  H16S22126   1.003   3.918   7.933  0.4605 -2.6119  0.8423
  191SLPC  C21722127   0.908   3.735   7.984  0.2600  0.3768 -0.3948
  191SLPC  H17R22128   0.819   3.676   7.954  0.3310 -0.6303  1.2833
  191SLPC  H17S22129   0.884   3.775   8.085 -3.6231 -2.8249  0.1786
  191SLPC  C21822130   1.020   3.636   8.002 -0.9444  0.3999 -0.5436
  191SLPC  H18R22131   1.115   3.693   8.019 -2.4409  3.4318 -1.6306
  191SLPC  H18S22132   1.036   3.572   7.913 -2.3281  0.0213 -0.5385
  191SLPC  H18T22133   1.006   3.570   8.090  1.1793 -0.5899 -0.8731
  191SLPC   C3322134   1.004   4.610   6.844  0.3276 -0.3668  0.0976
  191SLPC   H3X22135   0.997   4.556   6.941  0.0807  0.1614  0.3788
  191SLPC   H3Y22136   0.899   4.638   6.820  0.9660  0.8101 -1.5277
  191SLPC   C3422137   1.084   4.741   6.869 -0.1623 -0.0314 -0.3635
  191SLPC   H4X22138   1.076   4.802   6.776 -2.3544 -3.0310 -2.3475
  191SLPC   H4Y22139   1.191   4.716   6.886 -0.2264 -0.3214 -0.3752
  191SLPC   C3522140   1.035   4.813   6.994  0.3576 -1.2692 -0.0555
  191SLPC   H5X22141   0.926   4.791   6.997  0.3883 -1.5747 -0.8545
  191SLPC   H5Y22142   1.066   4.920   6.996 -1.1408 -0.7630  3.4760
  191SLPC   C3622143   1.087   4.765   7.127 -0.5210 -0.2212  0.6639
  191SLPC   H6X22144   1.198   4.770   7.136 -0.3381 -1.4704 -0.6867
  191SLPC   H6Y22145   1.067   4.656   7.132 -1.4583 -0.0599  0.5881
  191SLPC   C3722146   1.035   4.842   7.252  0.4028 -0.3914  0.5643
  191SLPC   H7X22147   0.927   4.859   7.232  0.7808  0.6875 -0.6838
  191SLPC   H7Y22148   1.069   4.948   7.245 -0.4191 -0.2317 -2.1212
  191SLPC   C3822149   1.057   4.761   7.381  0.1641 -0.1719 -0.0536
  191SLPC   H8X22150   1.166   4.778   7.395  0.2565 -0.3335 -0.5627
  191SLPC   H8Y22151   1.013   4.660   7.389 -1.4717  0.6218  1.7848
  191SLPC   C3922152   0.985   4.832   7.501  0.3982  0.2849  0.3580
  191SLPC   H9X22153   0.876   4.821   7.486  0.9257 -4.8626 -1.5995
  191SLPC   H9Y22154   1.002   4.941   7.489  1.9851 -0.0903 -1.3305
  191SLPC  C31022155   1.024   4.798   7.642 -0.2844  0.5113 -0.4018
  191SLPC  H10X22156   1.130   4.831   7.652 -0.1582 -0.4896  2.1780
  191SLPC  H10Y22157   1.021   4.690   7.669  1.7642  0.3337 -0.6872
  191SLPC  C31122158   0.947   4.885   7.747  0.3638  0.3815  0.2450
  191SLPC  H11X22159   0.843   4.847   7.761 -0.7016  1.5097 -3.4914
  191SLPC  H11Y22160   0.927   4.990   7.718  0.1468  0.6355  1.2695
  191SLPC  C31222161   1.002   4.868   7.892 -0.6049  0.7531  0.6226
  191SLPC  H12X22162   1.112   4.883   7.896  0.3464 -4.1953 -0.6590
  191SLPC  H12Y22163   1.000   4.758   7.903 -0.3415  0.3954 -2.2108
  191SLPC  C31322164   0.916   4.929   8.009 -0.1674  0.0610  0.5863
  191SLPC  H13X22165   0.812   4.906   7.977 -0.0522 -2.6866  1.9460
  191SLPC  H13Y22166   0.930   5.039   8.009  0.3129  0.0502  3.1806
  191SLPC  C31422167   0.931   4.866   8.149 -0.0994 -0.5744 -0.6882
  191SLPC  H14X22168   1.041   4.859   8.161 -0.0541 -1.3792 -1.5074
  191SLPC  H14Y22169   0.893   4.762   8.162 -0.6168 -0.1720  1.5515
  191SLPC  C31522170   0.880   4.968   8.248  0.4280  0.1174 -0.5938
  191SLPC  H15X22171   0.775   4.999   8.229  1.0634  2.8412 -0.0680
  191SLPC  H15Y22172   0.943   5.059   8.232 -0.0701  0.7887  1.0871
  191SLPC  C31622173   0.885   4.933   8.396 -0.1410 -0.5128  0.1924
  191SLPC  H16X22174   0.971   4.863   8.398  3.2799  2.9991 -3.5475
  191SLPC  H16Y22175   0.794   4.882   8.432  0.0319 -1.3447 -0.5225
  191SLPC  C31722176   0.918   5.054   8.482 -0.5724  1.0085 -0.0070
  191SLPC  H17X22177   0.834   5.126   8.497 -0.2491  1.4703 -0.3841
  191SLPC  H17Y22178   1.002   5.101   8.426  0.2247 -1.0030 -0.5700
  191SLPC  C31822179   0.970   5.014   8.624 -0.8596  0.2178  0.1979
  191SLPC  H18X22180   1.048   5.080   8.667 -1.5583  0.5362  1.0077
  191SLPC  H18Y22181   1.012   4.912   8.608 -1.3787  0.1583 -0.9260
  191SLPC  H18Z22182   0.894   5.001   8.704  0.0001  0.6142  1.0941
  192SLPC     N22183   3.726   3.339   6.213 -0.7259 -0.7767  0.9438
  192SLPC   C1322184   3.839   3.409   6.145 -0.8717  0.4210  0.6715
  192SLPC  H13A22185   3.811   3.479   6.069 -0.4867  0.2520  0.3721
  192SLPC  H13B22186   3.904   3.464   6.211 -2.1381  1.2739  1.2450
  192SLPC  H13C22187   3.900   3.334   6.096  0.1686  1.9023 -0.3775
  192SLPC   C1422188   3.620   3.296   6.122  0.2841 -0.4039  0.1675
  192SLPC  H14A22189   3.654   3.214   6.060 -0.4476 -0.2611 -0.4271
  192SLPC  H14B22190   3.549   3.247   6.187  0.9314 -1.5424  0.0624
  192SLPC  H14C22191   3.567   3.364   6.058 -0.4088 -0.6314  0.4931
  192SLPC   C1522192   3.669   3.444   6.299 -0.1853 -0.3974 -0.7685
  192SLPC  H15A22193   3.620   3.527   6.251  0.7712  0.7828  0.2149
  192SLPC  H15B22194   3.597   3.396   6.365  1.0691  0.3410  1.2357
  192SLPC  H15C22195   3.746   3.482   6.365 -0.3690 -0.6903 -0.3779
  192SLPC   C1222196   3.783   3.223   6.300  0.4715  0.2172  0.5807
  192SLPC  H12A22197   3.702   3.195   6.366  1.4332  2.2013  2.7787
  192SLPC  H12B22198   3.854   3.257   6.374  0.0081  0.4195  0.9455
  192SLPC   C1122199   3.842   3.103   6.225  0.1732 -0.0167 -0.6991
  192SLPC  H11A22200   3.768   3.072   6.148 -2.4666 -0.2083  1.7436
  192SLPC  H11B22201   3.833   3.016   6.292 -1.9971  0.7775  0.1276
  192SLPC     P22202   4.106   3.133   6.264 -0.0949  0.0145 -0.1800
  192SLPC   O1322203   4.229   3.089   6.193 -0.0243 -0.5930  0.1160
  192SLPC   O1422204   4.112   3.262   6.339  0.1624  0.6697 -0.0168
  192SLPC   O1222205   3.975   3.121   6.168  0.3133  0.1340 -0.0027
  192SLPC   O1122206   4.078   3.018   6.375  0.0050  0.6492  0.7766
  192SLPC    C122207   4.083   3.040   6.517  0.7253 -0.0434 -0.5806
  192SLPC    HA22208   4.113   3.143   6.547  1.1589 -0.2910 -0.1356
  192SLPC    HB22209   3.988   3.006   6.563  0.6153 -0.4392 -1.0953
  192SLPC    C222210   4.205   2.957   6.581 -0.4312 -0.0454 -0.5349
  192SLPC    HS22211   4.175   2.851   6.593 -0.3101 -0.1345 -0.9974
  192SLPC   O2122212   4.242   3.010   6.712  0.2458  0.4586  0.4158
  192SLPC   C2122213   4.159   3.001   6.809 -0.7052  1.0220  0.1482
  192SLPC   O2222214   4.050   2.939   6.808 -0.2150 -0.2253 -0.1258
  192SLPC   C2222215   4.227   3.078   6.919  0.1219  0.2364 -0.0998
  192SLPC   H2R22216   4.334   3.048   6.926  0.7622  2.5723  0.8443
  192SLPC   H2S22217   4.214   3.187   6.904 -1.4529  0.3465  1.7473
  192SLPC    C322218   4.334   2.945   6.484 -0.4588  0.2999 -0.1557
  192SLPC    HX22219   4.382   3.044   6.494  0.2844  0.1497 -1.9093
  192SLPC    HY22220   4.287   2.917   6.386 -0.3561 -1.3549  0.2323
  192SLPC   O3122221   4.401   2.826   6.523 -0.0379  0.1599 -0.3909
  192SLPC   C3122222   4.528   2.839   6.535 -0.3633 -0.9474 -0.7279
  192SLPC   O3222223   4.592   2.941   6.509  0.1227  0.2629 -0.3144
  192SLPC   C3222224   4.597   2.703   6.557  0.1308  0.7672 -0.1517
  192SLPC   H2X22225   4.672   2.704   6.475  1.3133 -0.9784  0.8561
  192SLPC   H2Y22226   4.518   2.630   6.529  0.3713 -0.1378  1.4277
  192SLPC   C2322227   4.155   3.041   7.052  0.2041 -0.0955  0.0435
  192SLPC   H3R22228   4.044   3.047   7.043  0.4036  0.3135 -3.9031
  192SLPC   H3S22229   4.187   3.105   7.137 -0.0036 -0.5415  0.4606
  192SLPC   C2422230   4.200   2.899   7.107 -0.9176 -0.3833  0.6975
  192SLPC   H4R22231   4.309   2.895   7.125 -0.9350 -2.2177  0.5325
  192SLPC   H4S22232   4.162   2.828   7.030  1.4337 -0.2065 -0.7327
  192SLPC   C2522233   4.115   2.853   7.225  0.4308  0.1749  0.1792
  192SLPC   H5R22234   4.132   2.743   7.234  0.1205 -0.1139 -2.0381
  192SLPC   H5S22235   4.009   2.859   7.191  0.2594 -3.9919 -0.5109
  192SLPC   C2622236   4.138   2.923   7.361  0.1530 -0.0170 -0.2833
  192SLPC   H6R22237   4.157   3.031   7.343 -2.7769  0.2086 -2.7734
  192SLPC   H6S22238   4.238   2.880   7.385  0.3807  0.6994  0.0784
  192SLPC   C2722239   4.035   2.903   7.468  0.3326  0.3072 -0.0189
  192SLPC   H7R22240   4.014   2.794   7.470  0.1564  0.3462  0.4072
  192SLPC   H7S22241   3.937   2.950   7.444  0.7308  2.3692  2.0465
  192SLPC   C2822242   4.087   2.953   7.605 -0.3992 -0.7123 -0.1586
  192SLPC   H8R22243   4.005   2.980   7.675 -0.9052 -0.8871 -0.6743
  192SLPC   H8S22244   4.138   3.051   7.590  2.5846 -1.2888  4.1787
  192SLPC   C2922245   4.183   2.849   7.656 -1.1093 -1.0022 -0.3022
  192SLPC   H9R22246   4.247   2.802   7.579  2.9888  2.5852  0.5770
  192SLPC  C21022247   4.182   2.804   7.779  0.0208  0.0479  0.4542
  192SLPC  H10R22248   4.256   2.727   7.807  0.7252  0.7479  0.5550
  192SLPC  C21122249   4.102   2.845   7.896 -0.0019  0.2204 -0.1949
  192SLPC  H11R22250   4.062   2.947   7.878 -0.4779  0.2917  1.1682
  192SLPC  H11S22251   4.170   2.836   7.983  1.1756  0.3663 -1.0760
  192SLPC  C21222252   3.976   2.761   7.922 -0.0920  0.1400  0.3465
  192SLPC  H12R22253   3.948   2.697   7.837 -0.8950  0.4880  0.3420
  192SLPC  C21322254   3.896   2.775   8.030 -0.5826  0.2800 -0.1343
  192SLPC  H13R22255   3.797   2.726   8.030 -1.0655  1.2242 -0.6397
  192SLPC  C21422256   3.934   2.862   8.153  0.8436 -0.8234 -0.4521
  192SLPC  H14R22257   3.850   2.931   8.178  0.5736 -1.0494 -0.7376
  192SLPC  H14S22258   4.023   2.922   8.124  1.2047 -0.8224  0.6014
  192SLPC  C21522259   3.968   2.781   8.273 -0.1819 -0.1946  0.6655
  192SLPC  H15R22260   4.027   2.841   8.347  0.7130  1.7829 -1.5393
  192SLPC  H15S22261   4.043   2.704   8.244  0.5918  0.7309  0.1560
  192SLPC  C21622262   3.853   2.709   8.343  0.7188 -0.1624  0.2233
  192SLPC  H16R22263   3.792   2.648   8.271 -0.2581  0.6776  0.3111
  192SLPC  H16S22264   3.781   2.783   8.383  1.4709  0.7595 -0.0977
  192SLPC  C21722265   3.902   2.625   8.467 -0.4010 -0.8621 -0.2920
  192SLPC  H17R22266   3.953   2.695   8.537  1.5158 -1.7022 -0.8132
  192SLPC  H17S22267   3.813   2.579   8.516 -0.4720 -0.1930  0.2212
  192SLPC  C21822268   4.001   2.523   8.429 -0.0690  0.0772 -0.0268
  192SLPC  H18R22269   4.032   2.450   8.506  1.5136 -0.2328 -0.9176
  192SLPC  H18S22270   4.093   2.567   8.387  0.3653 -0.1699  0.6500
  192SLPC  H18T22271   3.963   2.457   8.347  0.3110 -0.4485  0.2172
  192SLPC   C3322272   4.654   2.667   6.698 -0.6146  0.1372  0.1413
  192SLPC   H3X22273   4.710   2.757   6.731 -0.2376 -0.2303  0.5054
  192SLPC   H3Y22274   4.716   2.576   6.713  2.3760  1.9401 -0.4027
  192SLPC   C3422275   4.537   2.641   6.807 -0.0599  0.8839  0.7685
  192SLPC   H4X22276   4.481   2.553   6.768  1.9708 -0.6549  1.1277
  192SLPC   H4Y22277   4.463   2.723   6.798 -0.1746  0.6585 -0.5978
  192SLPC   C3522278   4.582   2.604   6.949  0.3701 -0.4057  1.1147
  192SLPC   H5X22279   4.668   2.672   6.967  1.0502 -0.2942 -2.0308
  192SLPC   H5Y22280   4.607   2.497   6.935 -1.8274 -0.7635 -0.6276
  192SLPC   C3622281   4.474   2.619   7.051  0.4455  0.6098  0.2297
  192SLPC   H6X22282   4.391   2.553   7.018  1.0144  0.9739 -2.1430
  192SLPC   H6Y22283   4.436   2.723   7.048 -2.5333 -0.4080  0.0970
  192SLPC   C3722284   4.519   2.581   7.192 -0.2825  0.0623  1.0118
  192SLPC   H7X22285   4.602   2.649   7.219  2.3615 -2.8944  0.8864
  192SLPC   H7Y22286   4.565   2.480   7.192  0.3681  0.3600  0.2311
  192SLPC   C3822287   4.391   2.581   7.278  0.5144  0.1351  0.3356
  192SLPC   H8X22288   4.309   2.520   7.234  2.7537 -1.6324 -1.7238
  192SLPC   H8Y22289   4.352   2.685   7.270 -1.4023 -0.6427 -1.2726
  192SLPC   C3922290   4.404   2.551   7.428  0.4485  0.1243 -0.7183
  192SLPC   H9X22291   4.310   2.586   7.477  0.7562  0.9228 -0.6828
  192SLPC   H9Y22292   4.472   2.624   7.476 -0.2352 -0.4782  1.2632
  192SLPC  C31022293   4.424   2.399   7.469  0.3193 -0.7823 -0.2098
  192SLPC  H10X22294   4.502   2.347   7.410 -0.4800 -0.2224 -1.8209
  192SLPC  H10Y22295   4.331   2.340   7.451 -1.6124  1.7427  0.8159
  192SLPC  C31122296   4.452   2.375   7.621  0.3382  0.0957 -0.3171
  192SLPC  H11X22297   4.535   2.444   7.646 -1.4570  1.2196  3.1365
  192SLPC  H11Y22298   4.486   2.269   7.626 -0.4986 -0.2070 -0.9002
  192SLPC  C31222299   4.325   2.404   7.706  1.1098  0.6214  0.5250
  192SLPC  H12X22300   4.239   2.344   7.671  1.0806 -0.2839  2.0952
  192SLPC  H12Y22301   4.291   2.510   7.710  0.2029  0.3128  1.2275
  192SLPC  C31322302   4.359   2.370   7.847 -0.0202  0.0283  0.2524
  192SLPC  H13X22303   4.423   2.448   7.895  0.1080 -0.5663  1.0762
  192SLPC  H13Y22304   4.410   2.271   7.847  0.2290  0.1537 -0.0551
  192SLPC  C31422305   4.231   2.373   7.938 -0.8112 -0.8743  0.1413
  192SLPC  H14X22306   4.172   2.280   7.923 -1.0251 -0.9603  1.4061
  192SLPC  H14Y22307   4.173   2.461   7.903  0.7425  0.2407  0.2786
  192SLPC  C31522308   4.240   2.375   8.096 -0.0126  0.5043 -0.3479
  192SLPC  H15X22309   4.137   2.363   8.136 -0.4116  0.6560 -1.3000
  192SLPC  H15Y22310   4.291   2.467   8.132  0.2016  0.6720 -1.0756
  192SLPC  C31622311   4.316   2.252   8.163  0.8850  0.0847 -0.2768
  192SLPC  H16X22312   4.378   2.223   8.075  1.0808  0.6439 -0.3262
  192SLPC  H16Y22313   4.240   2.174   8.182 -0.0998  1.1689  0.3726
  192SLPC  C31722314   4.396   2.283   8.290  0.4953  0.2438 -0.3245
  192SLPC  H17X22315   4.332   2.337   8.363 -0.3519 -2.1308  0.7801
  192SLPC  H17Y22316   4.473   2.354   8.253 -1.7358  2.2147 -1.4479
  192SLPC  C31822317   4.454   2.158   8.360  0.5450 -0.0951 -0.6701
  192SLPC  H18X22318   4.493   2.180   8.461 -1.4747 -1.7166  0.5318
  192SLPC  H18Y22319   4.545   2.125   8.305  0.8027 -0.8091  0.1618
  192SLPC  H18Z22320   4.374   2.080   8.363  0.7042 -0.2372  0.2074
  193SOD    SOD22321   6.637   2.141   1.703  0.4653 -0.0993  0.4210
  194SOD    SOD22322   3.072   1.587   5.765 -0.5365 -0.0081  0.2475
  195SOD    SOD22323   4.837   5.112   4.551 -0.1299 -0.3380  0.0983
  196SOD    SOD22324   2.723   0.573  15.900 -0.3082  0.3481 -0.1316
  197SOD    SOD22325   2.436   6.839  11.678 -0.4845  0.0702  0.6830
  198SOD    SOD22326   6.520   0.083  12.391 -0.4990  0.2728  0.2179
  199SOD    SOD22327   5.125   6.421   2.239  0.0567  0.2904  0.1315
  200SOD    SOD22328   1.262   4.800  13.084 -0.2070 -0.0138  0.0798
  201SOD    SOD22329   1.300   1.552   3.826  0.2975  0.0008  0.0571
  202SOD    SOD22330   6.793   4.637  11.778 -0.1559 -0.6262 -0.1742
  203SOD    SOD22331   4.413   0.356  11.362 -0.3932  0.2714 -0.2471
  204SOD    SOD22332   3.874   0.476   3.718  0.1158  0.1789  0.3510
  205SOD    SOD22333   1.158   0.311   0.135  0.5235 -0.2462  0.4064
  206SOD    SOD22334   6.277   6.234  13.663 -0.6340  0.7097 -0.3238
  207SOD    SOD22335   0.483   0.107   4.536  0.6972  0.0320 -0.3610
  208SOD    SOD22336   6.162   4.604  13.538  0.1233 -0.4231 -0.2848
  209SOD    SOD22337   6.802   0.236  13.247 -0.2659 -0.1238 -0.5369
  210SOD    SOD22338   1.252   3.940  14.293  0.3235  0.2526  0.0137
  211SOD    SOD22339   6.111   6.625   1.485  0.5134 -0.0986  0.2869
  212SOD    SOD22340   6.456   1.550  12.412  0.6903 -0.6018  0.1554
  213SOD    SOD22341   1.620   2.745  15.007 -0.1980  0.2611 -0.1034
  214SOD    SOD22342   6.830   1.095   2.682 -0.0387 -0.3406  0.0113
  215SOD    SOD22343   4.926   2.941   1.977  0.0603 -0.0993  0.3387
  216SOD    SOD22344   5.285   2.948  14.970 -0.3499  0.5869  0.4475
  217SOD    SOD22345   3.181   4.968  14.710  0.4246 -0.2350  0.0848
  218SOD    SOD22346   5.417   6.280  15.011 -0.2717 -0.0192 -0.1385
  219SOD    SOD22347   6.513   1.435  14.126 -0.3053  0.2904 -0.3474
  220SOD    SOD22348   5.137   3.459  11.281  0.1282  0.0072 -0.1221
  221SOD    SOD22349   3.682   3.777   5.223 -0.1441 -0.2669 -0.1720
  222SOD    SOD22350   0.955   1.247   1.788  0.2165  0.1199 -0.2748
  223SOD    SOD22351   4.091   4.058   5.870 -0.1668  0.5221  0.3106
  224SOD    SOD22352   6.359   2.682  11.954  0.5227 -0.2549  0.6800
  225SOD    SOD22353   1.537   2.758   6.559 -0.0449  0.1449 -0.1362
  226SOD    SOD22354   0.016   3.061  14.531 -0.2708 -0.1992  0.0770
  227SOD    SOD22355   2.260   3.325  10.899 -0.1572  0.3456  0.0810
  228SOD    SOD22356   5.531   2.037   0.010  0.0790  0.0586 -0.0763
  229SOD    SOD22357   6.487   6.632  15.437 -0.3845 -0.2424  0.0971
  230SOD    SOD22358   5.012   0.641   1.539  0.2910  0.3787 -0.7466
  231SOD    SOD22359   6.378   4.217   1.543  0.2835 -0.0315 -0.1502
  232SOD    SOD22360   6.382   5.695   5.502  0.1649 -0.2189 -0.3127
  233SOD    SOD22361   4.590   4.789  14.597 -0.2879  0.0934  0.1699
  234SOD    SOD22362   5.332   6.080   3.171 -0.6614 -0.0585  0.0371
  235SOD    SOD22363   3.264   1.035   5.123  0.1060  0.0250  0.4361
  236SOD    SOD22364   5.655   0.478  10.886  0.4516  0.4248  0.3593
  237SOD    SOD22365   0.833   1.352  15.038 -0.0973  0.1085  0.0116
  238SOD    SOD22366   1.763   6.677   5.613 -0.0496  0.4479  0.6145
  239SOD    SOD22367   2.353   3.792   0.090 -0.0894  0.6777 -0.4056
  240SOD    SOD22368   1.255   1.862  11.369 -0.3372  0.1173 -0.0935
  241SOD    SOD22369   0.153   5.732   1.947  0.1607 -0.0788 -0.3334
  242SOD    SOD22370   2.152   1.433  12.839 -0.3747 -0.4889 -0.0184
  243SOD    SOD22371   4.372   2.488  11.727  0.4523 -0.0217  0.2477
  244SOD    SOD22372   4.603   4.208  16.805  0.4436  0.0469  0.4483
  245SOD    SOD22373   5.570   3.050   3.215 -0.2423 -0.1046  0.2239
  246SOD    SOD22374   0.660   3.871   1.402  0.5250  0.4762  0.4129
  247SOD    SOD22375   6.836   3.559   0.102  1.0077 -0.0013  0.2049
  248SOD    SOD22376   6.136   5.742  15.511 -0.0701  0.0907  0.2725
  249SOD    SOD22377   1.420   5.480  12.560 -0.6833  0.5498 -0.3192
  250SOD    SOD22378   0.880   0.068   0.366  0.7605  0.3400  0.4831
  251SOD    SOD22379   2.546   3.943   4.752  0.1433 -0.0719 -0.0873
  252SOD    SOD22380   1.603   3.665  12.412  0.1086  0.2274 -0.1233
  253SOD    SOD22381   4.322   3.589  12.756  0.5088 -0.2454 -0.0719
  254SOD    SOD22382   3.768   3.176   4.226 -0.3259  0.2593 -0.1496
  255SOD    SOD22383   4.357   6.340  11.203  0.6739 -0.3664 -0.2302
  256SOD    SOD22384   0.562   2.156  10.544  0.3097  0.2566  0.0582
  257SOD    SOD22385   5.737   2.762   5.462 -0.2055  0.0201  0.4558
  258SOD    SOD22386   3.796   1.172  11.852 -0.1509 -0.2506 -0.1105
  259SOD    SOD22387   5.939   1.338   0.698 -0.1176  0.7556  0.4357
  260SOD    SOD22388   2.441   4.469   4.891 -0.1092  0.6388 -0.6167
  261SOD    SOD22389   4.738   0.833   5.434  0.6519 -0.1305  0.0035
  262SOD    SOD22390   4.468   4.167   1.953  0.8789 -0.3732 -0.2324
  263SOD    SOD22391   4.577   2.028  11.329  0.2234 -0.2165  0.2381
  264SOD    SOD22392   5.541   0.002  13.563 -0.0658 -0.2768  0.2947
  265SOD    SOD22393   3.312   2.673  14.823  0.3729 -0.1076 -0.3513
  266CLA    CLA22394   2.496   6.718   0.395  0.2941 -0.0322  0.4625
  267CLA    CLA22395   5.085   5.023   3.875 -0.0237 -0.2293 -0.0513
  268CLA    CLA22396   1.160   4.414  14.444 -0.0196 -0.4341  0.3395
  269CLA    CLA22397   0.064   5.934  14.887  0.1892 -0.2757 -0.0292
  270CLA    CLA22398   5.827   4.834   3.112 -0.2286 -0.1797  0.1837
  271CLA    CLA22399   1.902   6.221  14.219 -0.0375 -0.1145  0.1406
  272CLA    CLA22400   2.368   2.747  12.903  0.1030 -0.7756  0.4234
  273CLA    CLA22401   4.681   0.472  13.921 -0.3899 -0.4895  0.3571
  274CLA    CLA22402   6.324   4.823  13.025 -0.2528 -0.2332 -0.1390
  275CLA    CLA22403   6.152   1.135  12.319 -0.1757  0.0225 -0.0098
  276CLA    CLA22404   3.579   3.137  15.684  0.0371  0.0820  0.3252
  277CLA    CLA22405   3.875   4.421   5.695  0.2607 -0.3961  0.1178
  278CLA    CLA22406   2.975   3.975   0.085 -0.3394 -0.0351 -0.4844
  279CLA    CLA22407   2.343   5.391   2.989  0.2865 -0.0477  0.0045
  280CLA    CLA22408   0.074   0.982   0.501  0.2406 -0.2564  0.2130
  281CLA    CLA22409   4.386   3.812  14.996 -0.0125 -0.1400 -0.1554
  282CLA    CLA22410   5.148   0.055  15.217  0.1872 -0.1609 -0.0863
  283CLA    CLA22411   1.220   2.045  11.801 -0.4545  0.3077  0.0036
  284CLA    CLA22412   1.002   5.900  13.056  0.5105  0.6500 -0.3609
  285CLA    CLA22413   1.589   1.893  12.798  0.2533 -0.1896 -0.0482
  286CLA    CLA22414   0.072   6.100   2.589  0.4732 -0.1969 -0.0197
  287CLA    CLA22415   4.832   3.701   3.127 -0.0472 -0.0069 -0.1254
  288CLA    CLA22416   6.604   2.159   3.682 -0.1587 -0.8374 -0.3037
  289CLA    CLA22417   5.623   2.581   1.590 -0.5020 -0.2411 -0.2790
  290CLA    CLA22418   0.044   5.774  12.517  0.3667  0.2382 -0.2555
  291CLA    CLA22419   1.234   6.554  15.390 -0.3743 -0.2774  0.2540
  292CLA    CLA22420   1.969   3.983  16.914 -0.0888  0.1592  0.4470
  293CLA    CLA22421   6.803   3.488  14.864  0.3894  0.0115  0.4411
  294CLA    CLA22422   3.697   1.490   4.929 -0.2305 -0.4307 -0.0334
  295CLA    CLA22423   6.648   2.911   1.741  0.3237 -0.0145 -0.3009
  296CLA    CLA22424   0.470   6.472  16.921 -0.5446  0.0059 -0.0406
  297CLA    CLA22425   4.130   1.420  11.475  0.0723 -0.3243  0.7320
  298CLA    CLA22426   6.028   2.394  14.142 -0.0864  0.0752 -0.4568
  299CLA    CLA22427   3.752   4.377   0.155 -0.2770  0.2976  0.1711
  300CLA    CLA22428   5.857   0.271   1.129  0.3586 -0.2121  0.1286
  301CLA    CLA22429   0.277   4.615  16.971 -0.2309  0.2881  0.2419
  302CLA    CLA22430   6.486   1.957  16.347 -0.6872 -0.1881 -0.0765
  303CLA    CLA22431   1.566   4.900  12.286 -0.2856 -0.5518 -0.0422
  304CLA    CLA22432   5.783   3.778  14.096  0.1485  0.0187  0.0135
  305CLA    CLA22433   5.389   3.551   2.212 -0.1743  0.1157 -0.3357
  306CLA    CLA22434   6.112   0.537  12.778 -0.3148 -0.0139 -0.1114
  307CLA    CLA22435   4.281   1.765  15.900  0.0205  0.2276 -0.1760
  308CLA    CLA22436   2.523   3.579   3.392 -0.0176  0.0339  0.2699
  309CLA    CLA22437   5.767   6.528   5.386 -0.0343  0.2733  0.2352
  310CLA    CLA22438   0.239   2.792  14.080  0.0237  0.3371  0.2136
  311CLA    CLA22439   4.419   6.199  15.831  0.4618  0.5660  0.2145
  312CLA    CLA22440   5.417   4.176   1.696  0.2061 -0.0273 -0.1170
  313CLA    CLA22441   0.168   0.787  11.513 -0.1258 -0.1213 -0.4153
  314CLA    CLA22442   3.215   3.371   4.795  0.2263  0.2137  0.1623
  315CLA    CLA22443   5.315   2.454   0.955  0.0420  0.0324 -0.1575
  316CLA    CLA22444   3.530   5.928  14.064 -0.3568  0.3702 -0.0023
  317CLA    CLA22445   5.938   5.999   3.067 -0.4877 -0.0100 -0.2823
  318CLA    CLA22446   0.471   2.001   1.260 -0.1601 -0.0466 -0.2671
  319TIP3   OH222447   3.632   6.355   2.353 -0.1092 -0.5872  0.0152
  319TIP3    H122448   3.578   6.290   2.308  1.0763 -0.9597 -0.8994
  319TIP3    H222449   3.716   6.353   2.308 -0.3395  2.3368 -0.7693
  320TIP3   OH222450   0.428   4.668   6.109  0.4734  0.5598  0.0404
  320TIP3    H122451   0.465   4.598   6.163  1.1987  0.5108 -0.4967
  320TIP3    H222452   0.494   4.682   6.040 -0.3248  0.7584 -0.7056
  321TIP3   OH222453   3.178   4.894   1.288  0.2584 -0.7972 -0.6183
  321TIP3    H122454   3.210   4.871   1.201  0.7318 -1.0397 -0.3847
  321TIP3    H222455   3.180   4.811   1.337 -0.2872 -0.7242 -0.4580
  322TIP3   OH222456   5.824   3.489  15.336  0.4527 -0.3062 -0.2027
  322TIP3    H122457   5.892   3.541  15.380 -0.5812  1.2745 -0.3814
  322TIP3    H222458   5.771   3.455  15.408  0.4939 -0.1828 -0.1118
  323TIP3   OH222459   4.572   1.623   3.783  0.6644 -0.1249  0.3166
  323TIP3    H122460   4.605   1.580   3.861  0.2113  0.5945  0.9186
  323TIP3    H222461   4.482   1.648   3.806  0.1366 -0.8744 -0.8133
  324TIP3   OH222462   3.605   0.665  14.179  0.2979 -0.4511  0.8287
  324TIP3    H122463   3.592   0.733  14.246  1.2831 -1.0128  1.6209
  324TIP3    H222464   3.585   0.709  14.096  0.7127  0.7469  1.3370
  325TIP3   OH222465   5.498   1.531   4.525  0.1042  0.1749 -0.2056
  325TIP3    H122466   5.440   1.591   4.573  0.9692  1.1974 -0.3807
  325TIP3    H222467   5.584   1.545   4.565  0.1529 -1.7131  0.4195
  326TIP3   OH222468   3.905   3.029  11.323  0.5509 -0.2193 -0.0856
  326TIP3    H122469   3.845   2.997  11.255 -0.5670 -0.4231  0.9754
  326TIP3    H222470   3.872   3.116  11.345  1.3577  0.1587 -0.3095
  327TIP3   OH222471   0.717   3.655   5.954  0.1043 -0.1603 -0.0105
  327TIP3    H122472   0.768   3.580   5.987 -0.1012  0.1795  1.1208
  327TIP3    H222473   0.628   3.638   5.983  0.3772  1.4530  2.0349
  328TIP3   OH222474   6.231   5.317   2.802  0.2841 -0.0324 -0.5119
  328TIP3    H122475   6.183   5.267   2.868 -1.0724 -0.0441 -1.4681
  328TIP3    H222476   6.293   5.255   2.765 -0.2611 -0.5503 -0.5593
  329TIP3   OH222477   2.412   1.453  14.003  0.1728 -0.5954 -0.0791
  329TIP3    H122478   2.350   1.394  14.046 -0.3235 -0.2612 -0.3334
  329TIP3    H222479   2.400   1.437  13.909 -0.8053  0.7412 -0.2010
  330TIP3   OH222480   4.074   1.812   3.754  0.1511  0.2101  0.4174
  330TIP3    H122481   3.988   1.793   3.715  0.0981 -1.1002  1.1026
  330TIP3    H222482   4.053   1.869   3.828 -0.4400 -1.8315  1.9088
  331TIP3   OH222483   1.920   1.740   2.719 -0.1944 -0.3353  0.3472
  331TIP3    H122484   1.969   1.815   2.685 -1.4218  0.2118 -0.2898
  331TIP3    H222485   1.987   1.673   2.737  0.9606  1.0144  1.2668
  332TIP3   OH222486   6.033   4.506  16.900  0.0040 -0.0243 -0.9854
  332TIP3    H122487   5.980   4.506  16.979 -2.2846  0.9186 -2.4116
  332TIP3    H222488   6.103   4.568  16.918 -1.5794  1.6569 -0.3380
  333TIP3   OH222489   5.723   2.756  10.447  0.3375 -0.4245  0.0001
  333TIP3    H122490   5.728   2.689  10.379  0.6849 -1.5949  1.1228
  333TIP3    H222491   5.707   2.707  10.528  0.0725  0.9017  0.7893
  334TIP3   OH222492   2.422   0.867   6.381 -0.6434  0.4906 -0.7101
  334TIP3    H122493   2.388   0.887   6.468 -1.0716  0.2580 -0.8215
  334TIP3    H222494   2.405   0.946   6.330  0.3224  0.9246 -0.3802
  335TIP3   OH222495   3.132   5.616   3.421  0.4316  0.3251  0.0772
  335TIP3    H122496   3.191   5.544   3.399 -1.5791 -0.8609 -1.8824
  335TIP3    H222497   3.085   5.635   3.340 -1.7256  1.3297  1.4570
  336TIP3   OH222498   4.799   4.033  12.563  0.4050  0.6705 -0.2528
  336TIP3    H122499   4.895   4.038  12.563  0.4731 -0.3905  0.1616
  336TIP3    H222500   4.775   4.024  12.655  0.0509 -1.0695 -0.4744
  337TIP3   OH222501   0.558   4.711   4.432  0.0231 -0.4500  0.2103
  337TIP3    H122502   0.464   4.691   4.429  0.1022 -0.8086 -2.9329
  337TIP3    H222503   0.600   4.626   4.423  0.5324  0.0061 -2.2782
  338TIP3   OH222504   1.733   4.683   2.581 -0.0865  0.3835 -0.3260
  338TIP3    H122505   1.675   4.759   2.570 -0.2308  0.1800 -1.0301
  338TIP3    H222506   1.780   4.677   2.498 -0.5949 -0.7294 -0.5481
  339TIP3   OH222507   4.491   4.894   2.011  0.4667  0.8691  0.0218
  339TIP3    H122508   4.407   4.848   2.010  0.0890  1.5472  0.0725
  339TIP3    H222509   4.547   4.843   1.952  1.5802 -2.3592  3.4540
  340TIP3   OH222510   5.643   6.121   5.645 -0.3384 -0.2979 -0.2313
  340TIP3    H122511   5.671   6.150   5.559  0.4175 -0.2811  0.0119
  340TIP3    H222512   5.563   6.071   5.629 -1.2470  1.2493 -0.7393
  341TIP3   OH222513   3.473   4.015  17.020 -0.3548 -0.0694  0.2201
  341TIP3    H122514   3.460   4.025  16.926 -1.9568 -0.5380  0.3709
  341TIP3    H222515   3.436   3.929  17.041 -0.2542  0.1380  1.3170
  342TIP3   OH222516   4.392   3.411   2.173 -0.3564  0.8417 -0.1769
  342TIP3    H122517   4.365   3.334   2.223  0.2032  0.2905 -0.6894
  342TIP3    H222518   4.439   3.466   2.236  2.1284 -0.7835 -0.4682
  343TIP3   OH222519   5.219   6.036  14.716  0.0668 -0.3224 -0.2983
  343TIP3    H122520   5.203   5.987  14.635 -1.8473 -0.4445  0.0889
  343TIP3    H222521   5.201   5.973  14.786  0.6812  0.0714  0.2268
  344TIP3   OH222522   6.321   2.974   2.068  0.4315 -0.1781 -0.0159
  344TIP3    H122523   6.307   2.966   1.973 -1.6858  2.2524 -0.0107
  344TIP3    H222524   6.416   2.978   2.077  0.8669 -3.3962 -1.6511
  345TIP3   OH222525   1.051   2.096  15.520 -0.0867  0.4390  0.5826
  345TIP3    H122526   1.016   2.058  15.439 -1.1585  0.3930  1.0495
  345TIP3    H222527   1.139   2.125  15.497  0.4892 -1.6025 -0.0109
  346TIP3   OH222528   1.551   1.612   4.270 -0.2985  0.4769  0.1407
  346TIP3    H122529   1.624   1.573   4.221 -0.6215  1.1413 -0.9185
  346TIP3    H222530   1.544   1.559   4.349  0.2833 -0.6194 -0.5070
  347TIP3   OH222531   0.684   0.954  10.064 -0.3051 -0.5482  0.3176
  347TIP3    H122532   0.744   0.883  10.088  0.2088 -1.1646 -2.4828
  347TIP3    H222533   0.607   0.910  10.030 -1.2302  0.2672  1.3112
  348TIP3   OH222534   1.404   0.918   0.727  0.1749  0.6080 -0.0926
  348TIP3    H122535   1.310   0.932   0.729  0.4402  2.9230 -0.7660
  348TIP3    H222536   1.437   0.966   0.804  0.9051  0.9728 -0.6185
  349TIP3   OH222537   5.501   4.789   4.726 -0.2070  0.6018 -0.5990
  349TIP3    H122538   5.432   4.731   4.757 -0.2345  1.4544  1.0115
  349TIP3    H222539   5.583   4.745   4.751 -0.0780 -0.5131 -2.6930
  350TIP3   OH222540   3.619   3.115   4.403  0.0171  0.7203  0.4991
  350TIP3    H122541   3.668   3.120   4.485  0.9688 -0.5478  0.0383
  350TIP3    H222542   3.528   3.124   4.430  0.2586 -0.3255  1.7974
  351TIP3   OH222543   6.211   2.325  13.650 -0.0887 -0.5662  0.1855
  351TIP3    H122544   6.158   2.262  13.603  0.7630 -1.8168  0.8423
  351TIP3    H222545   6.155   2.355  13.722  0.0113 -1.7527  0.7787
  352TIP3   OH222546   1.995   5.862  13.832  0.2090 -0.2220 -0.2531
  352TIP3    H122547   1.983   5.767  13.834  2.7587 -0.6832 -2.2531
  352TIP3    H222548   2.015   5.886  13.923  0.2166 -1.6949  0.1556
  353TIP3   OH222549   3.895   6.051   2.062 -0.3184  0.1886  0.5504
  353TIP3    H122550   3.933   6.054   2.150  0.2654  1.6781  0.2882
  353TIP3    H222551   3.832   6.124   2.061 -0.6810 -0.1254 -0.1103
  354TIP3   OH222552   0.903   4.767   0.914 -0.0558  0.3559  0.5064
  354TIP3    H122553   0.896   4.813   0.998  0.4358  0.0994  0.6978
  354TIP3    H222554   0.998   4.755   0.902 -0.0021  1.9466 -0.9379
  355TIP3   OH222555   1.857   1.369   5.439 -0.1782 -0.0260  0.2198
  355TIP3    H122556   1.927   1.322   5.485 -2.0291 -1.8285  1.4205
  355TIP3    H222557   1.789   1.379   5.506 -1.2577  1.2123 -1.0259
  356TIP3   OH222558   6.478   3.862   6.174 -0.0485  0.2792 -0.1495
  356TIP3    H122559   6.559   3.834   6.131 -0.0183  0.1814 -0.0293
  356TIP3    H222560   6.500   3.865   6.267  0.1967  1.5466 -0.2371
  357TIP3   OH222561   1.316   0.836  16.636 -0.6561 -0.0060 -0.0434
  357TIP3    H122562   1.291   0.826  16.544 -1.0804  0.2893  0.0362
  357TIP3    H222563   1.394   0.782  16.646  1.1034  2.1469 -1.2793
  358TIP3   OH222564   1.252   3.691  15.794 -0.5694 -0.4498  0.5704
  358TIP3    H122565   1.198   3.744  15.853 -1.8847 -1.5394  0.4033
  358TIP3    H222566   1.294   3.627  15.852  0.9844  0.6987  0.7663
  359TIP3   OH222567   6.638   4.342  12.806 -0.0374 -0.1991  0.3343
  359TIP3    H122568   6.605   4.432  12.807  0.3365 -0.0292 -0.9734
  359TIP3    H222569   6.650   4.320  12.899 -0.2780  1.0434  0.6792
  360TIP3   OH222570   0.052   5.304  11.942 -0.2037  0.1043  0.6405
  360TIP3    H122571   0.076   5.231  11.999 -0.8041 -1.4371 -0.9795
  360TIP3    H222572   0.131   5.320  11.890  0.0951  1.0047  1.3332
  361TIP3   OH222573   1.735   2.628  12.991  0.0505  0.3919  0.4303
  361TIP3    H122574   1.812   2.616  13.045  0.2556  1.5011  0.4129
  361TIP3    H222575   1.705   2.539  12.971  1.4184 -0.0551  0.2842
  362TIP3   OH222576   0.790   2.271  14.708 -0.1371  0.3745 -0.2589
  362TIP3    H122577   0.735   2.350  14.711 -0.2330  0.2834  1.3224
  362TIP3    H222578   0.741   2.207  14.760  0.2874 -0.5140 -0.9296
  363TIP3   OH222579   4.053   1.878   1.123 -0.3804 -0.1588 -0.3602
  363TIP3    H122580   4.061   1.919   1.037 -1.2492  1.0413  0.0891
  363TIP3    H222581   4.022   1.790   1.106 -1.1541  0.2716 -1.2562
  364TIP3   OH222582   4.392   4.454   2.469  0.5116 -0.5898 -0.0651
  364TIP3    H122583   4.461   4.462   2.534 -0.4644 -0.4358  0.9897
  364TIP3    H222584   4.342   4.377   2.496 -1.8069  1.2686  1.3038
  365TIP3   OH222585   5.238   2.477  16.833 -0.1156  0.0087 -1.0084
  365TIP3    H122586   5.165   2.431  16.875  0.5293 -0.0253  0.1069
  365TIP3    H222587   5.226   2.568  16.859  1.0148 -0.2111  0.3556
  366TIP3   OH222588   3.830   1.746   0.607  0.0358 -0.2381 -0.5623
  366TIP3    H122589   3.921   1.732   0.584  0.2600  0.8836 -0.4496
  366TIP3    H222590   3.829   1.833   0.648 -1.0624 -0.2643 -0.4946
  367TIP3   OH222591   3.141   2.882  15.724 -0.6468 -0.2070 -0.2051
  367TIP3    H122592   3.191   2.941  15.780 -0.7434 -0.2445 -0.0798
  367TIP3    H222593   3.094   2.941  15.665  0.5850 -0.2051 -1.2243
  368TIP3   OH222594   0.202   3.679   2.162  0.0722 -0.4619 -0.3908
  368TIP3    H122595   0.285   3.721   2.139  0.4900 -1.3248 -0.5368
  368TIP3    H222596   0.138   3.749   2.161  0.9344  0.3570  0.4480
  369TIP3   OH222597   0.789   3.660  13.515  0.3241 -0.0278  0.2027
  369TIP3    H122598   0.770   3.708  13.595 -0.1722  2.0202 -1.0637
  369TIP3    H222599   0.871   3.615  13.532  0.3598  0.5658  1.7607
  370TIP3   OH222600   5.736   1.248   6.465 -0.0578  0.3799 -0.1635
  370TIP3    H122601   5.755   1.163   6.505  2.1204  0.6672 -0.4979
  370TIP3    H222602   5.707   1.227   6.376  2.3858  0.0063 -0.9299
  371TIP3   OH222603   1.729   0.512  11.435  0.6632 -0.1043  0.1962
  371TIP3    H122604   1.733   0.442  11.501  0.6942  0.1006  0.4150
  371TIP3    H222605   1.818   0.516  11.399  0.4447 -0.7495 -0.4209
  372TIP3   OH222606   5.711   4.219  14.478  0.3802  0.7649 -0.2554
  372TIP3    H122607   5.655   4.217  14.555 -0.8779  2.3206 -1.0643
  372TIP3    H222608   5.653   4.192  14.406  1.4449 -0.3844 -0.7092
  373TIP3   OH222609   5.944   5.807   3.824  0.0060 -1.0585 -0.3600
  373TIP3    H122610   5.995   5.801   3.743  1.0650  0.1219  0.1777
  373TIP3    H222611   5.884   5.880   3.808 -0.5578 -1.5373 -0.4684
  374TIP3   OH222612   6.373   3.915  14.073 -0.4490 -0.4699 -0.2588
  374TIP3    H122613   6.280   3.934  14.059 -0.5178 -0.5803  0.0540
  374TIP3    H222614   6.377   3.879  14.161 -0.0252  0.0923 -0.0486
  375TIP3   OH222615   4.994   4.188  15.198  0.1401 -0.1904  0.8523
  375TIP3    H122616   4.928   4.139  15.149  0.0289  0.4298  0.3617
  375TIP3    H222617   5.078   4.154  15.167  0.0931  0.9046 -0.5533
  376TIP3   OH222618   2.894   6.546  16.794  0.9116 -0.1994  0.0659
  376TIP3    H122619   2.913   6.617  16.856 -1.0586 -0.5884  1.1641
  376TIP3    H222620   2.967   6.550  16.732  1.8294  1.5856  1.1581
  377TIP3   OH222621   0.251   3.954   5.388  0.0152  0.1689 -0.0628
  377TIP3    H122622   0.300   3.878   5.419  0.0243  0.4215  0.5546
  377TIP3    H222623   0.214   3.926   5.304  2.2384  0.3948 -1.1821
  378TIP3   OH222624   4.689   2.824  12.999  0.0621  0.3766 -0.2973
  378TIP3    H122625   4.725   2.913  12.994  2.4590 -0.5544 -0.9706
  378TIP3    H222626   4.723   2.790  13.082 -1.0824  0.1670  0.0932
  379TIP3   OH222627   2.415   2.202   5.685 -0.1449 -0.1413  0.3617
  379TIP3    H122628   2.342   2.145   5.660 -0.5012  1.1541 -1.7637
  379TIP3    H222629   2.402   2.218   5.778 -1.4424 -1.5182  0.4568
  380TIP3   OH222630   6.447   4.445   4.811 -0.6499 -0.4234 -0.1651
  380TIP3    H122631   6.458   4.527   4.859 -1.4540 -0.6534  0.4359
  380TIP3    H222632   6.514   4.387   4.846 -0.6506 -0.3012  0.0413
  381TIP3   OH222633   5.948   2.592  12.894  0.0330 -0.2301  0.2538
  381TIP3    H122634   5.967   2.686  12.893 -0.5879 -0.1053  0.0047
  381TIP3    H222635   6.035   2.550  12.890  0.2831  0.3302 -0.5331
  382TIP3   OH222636   4.045   2.538   1.778 -0.3205  0.0680  0.5986
  382TIP3    H122637   4.092   2.472   1.726  2.1367  0.8228  1.6957
  382TIP3    H222638   3.980   2.574   1.718 -1.2690 -2.7756 -0.2673
  383TIP3   OH222639   5.284   3.091   0.388  0.3641 -0.3754 -0.3019
  383TIP3    H122640   5.284   2.996   0.374  0.5398 -0.2296 -1.3504
  383TIP3    H222641   5.191   3.113   0.401  0.3936 -0.7810  0.6697
  384TIP3   OH222642   3.790   5.392   5.968  0.2050 -0.7561  0.3810
  384TIP3    H122643   3.697   5.411   5.959  0.0676  0.1507  2.7992
  384TIP3    H222644   3.833   5.450   5.905 -0.6856  2.2263  2.3147
  385TIP3   OH222645   3.529   5.837   5.354  1.0320 -0.3628 -0.3037
  385TIP3    H122646   3.528   5.837   5.259 -1.3791 -0.5232 -0.3548
  385TIP3    H222647   3.608   5.789   5.378  0.5226 -2.3481 -2.2560
  386TIP3   OH222648   3.791   3.133  11.752 -0.2995  0.3080  0.7446
  386TIP3    H122649   3.699   3.113  11.772 -0.2542  0.2786  0.9302
  386TIP3    H222650   3.799   3.227  11.766 -0.3424  0.3380  0.5629
  387TIP3   OH222651   2.784   2.903   0.977 -0.0290 -0.4019 -0.1834
  387TIP3    H122652   2.694   2.898   1.011  0.6927 -0.1564  1.8832
  387TIP3    H222653   2.791   2.993   0.944 -0.2331 -0.0623  0.6544
  388TIP3   OH222654   6.667   0.573  10.955 -0.1138 -0.2219 -0.8790
  388TIP3    H122655   6.683   0.493  10.905 -1.8024 -0.7355 -0.6670
  388TIP3    H222656   6.667   0.545  11.046  0.2555  0.2017 -0.7467
  389TIP3   OH222657   1.032   1.407   5.477 -0.0133  0.3188 -0.4683
  389TIP3    H122658   1.002   1.482   5.427 -1.5564  0.0797  0.0564
  389TIP3    H222659   0.956   1.379   5.529  0.6041 -1.4059 -0.3980
  390TIP3   OH222660   3.544   3.381  12.817  0.2579 -0.0858  0.0343
  390TIP3    H122661   3.568   3.359  12.907  0.1577  1.7572  0.5600
  390TIP3    H222662   3.502   3.302  12.783 -0.1241 -0.6676  1.7601
  391TIP3   OH222663   0.367   2.546   4.740 -0.1463  1.1774  0.0892
  391TIP3    H122664   0.394   2.602   4.813  0.1170  0.1143  0.8282
  391TIP3    H222665   0.313   2.478   4.781 -0.1467  0.6734 -0.7352
  392TIP3   OH222666   0.720   0.734   5.106  0.3743  0.2301 -0.1271
  392TIP3    H122667   0.762   0.716   5.022  0.9759  0.7277  0.0634
  392TIP3    H222668   0.788   0.773   5.160  0.2306 -0.8519  0.8931
  393TIP3   OH222669   2.756   4.441  11.969  0.0353  0.1279 -0.0308
  393TIP3    H122670   2.696   4.406  12.035 -1.0402 -0.2312 -1.1537
  393TIP3    H222671   2.744   4.535  11.973  2.4081  0.4414  2.5055
  394TIP3   OH222672   4.687   2.914   3.041  0.0701 -0.2457 -0.4210
  394TIP3    H122673   4.687   2.911   2.945 -1.7685 -0.9819 -0.4313
  394TIP3    H222674   4.774   2.947   3.063  0.5170  0.0056 -2.3379
  395TIP3   OH222675   0.566   3.470  15.456  0.4437 -0.0997 -0.0548
  395TIP3    H122676   0.512   3.543  15.429 -0.6076  0.5587  3.3623
  395TIP3    H222677   0.513   3.392  15.437  0.0186  0.2571 -0.3504
  396TIP3   OH222678   4.114   6.676   5.560 -0.3248  0.0233 -0.5211
  396TIP3    H122679   4.147   6.766   5.562  0.9435 -0.3608 -2.1274
  396TIP3    H222680   4.180   6.626   5.608 -1.1585 -0.0455  0.5948
  397TIP3   OH222681   0.060   2.623  14.284 -0.3587  0.9140 -0.0768
  397TIP3    H122682   0.130   2.652  14.225 -0.0280  0.3538  0.0380
  397TIP3    H222683  -0.016   2.613  14.227 -0.0028  0.2333 -0.4445
  398TIP3   OH222684   6.814   1.771   3.489 -0.1079 -0.3683  0.5617
  398TIP3    H122685   6.882   1.815   3.540  2.0418 -0.3117 -2.0969
  398TIP3    H222686   6.778   1.841   3.434  0.7768 -1.1553 -1.0864
  399TIP3   OH222687   3.791   5.454   1.901 -0.3945  0.1139  0.1667
  399TIP3    H122688   3.733   5.381   1.877  1.2252 -1.1784 -0.0261
  399TIP3    H222689   3.787   5.513   1.826 -1.4142  0.0159  0.1335
  400TIP3   OH222690   5.338   0.963   1.497 -0.4836  0.4174  0.1741
  400TIP3    H122691   5.284   0.944   1.573 -0.1239 -0.7882  0.1507
  400TIP3    H222692   5.391   0.885   1.485  0.9516  1.3815 -0.0737
  401TIP3   OH222693   2.788   2.512   5.921  0.2655 -0.4558  0.1170
  401TIP3    H122694   2.759   2.511   6.012  1.4440 -1.1097  0.5178
  401TIP3    H222695   2.815   2.602   5.906  0.5590 -0.4582  0.5957
  402TIP3   OH222696   6.106   3.217  15.961 -0.3626  0.1194 -0.3625
  402TIP3    H122697   6.036   3.160  15.929  0.4816 -1.0744 -0.1617
  402TIP3    H222698   6.140   3.259  15.882  0.6195 -1.5549 -0.8804
  403TIP3   OH222699   6.685   1.518   5.937 -0.2717  0.4967  0.1746
  403TIP3    H122700   6.735   1.534   6.017 -0.4910 -2.4302  1.0210
  403TIP3    H222701   6.608   1.470   5.966 -0.5936 -0.2366 -1.7431
  404TIP3   OH222702   2.050   4.268  11.931  0.6782  0.5265 -0.0684
  404TIP3    H122703   2.078   4.293  11.843 -0.9749 -0.6048 -0.9816
  404TIP3    H222704   1.970   4.218  11.917  1.0473 -0.7723  2.0119
  405TIP3   OH222705   6.803   2.564   5.440  0.1736  0.3215 -0.1226
  405TIP3    H122706   6.800   2.514   5.522  1.8276  0.7706  0.2339
  405TIP3    H222707   6.726   2.622   5.445 -0.0850 -0.0832  0.8213
  406TIP3   OH222708   0.966   4.086  15.860  0.4356  0.0566 -0.5637
  406TIP3    H122709   0.977   4.142  15.782 -1.1050  1.9946  0.5054
  406TIP3    H222710   0.871   4.082  15.872  0.6335 -0.8125  0.8044
  407TIP3   OH222711   5.695   2.093  15.094 -0.2178  0.0347 -0.6916
  407TIP3    H122712   5.684   2.186  15.114 -1.8435 -0.3093  0.2245
  407TIP3    H222713   5.786   2.084  15.067 -0.0821  1.9153 -0.9641
  408TIP3   OH222714   4.380   6.777  13.783 -0.4197  0.0423 -0.0101
  408TIP3    H122715   4.293   6.763  13.746 -0.6991 -0.9363  0.9529
  408TIP3    H222716   4.364   6.810  13.871  0.2050  0.6133 -0.0987
  409TIP3   OH222717   5.988   6.075  12.420  0.6170  0.7110  0.4244
  409TIP3    H122718   5.933   6.002  12.448 -0.2771  1.2211  0.0222
  409TIP3    H222719   6.064   6.033  12.378 -0.3451  0.0114 -0.6780
  410TIP3   OH222720   1.934   0.140  12.172 -0.1173  0.2248 -0.4485
  410TIP3    H122721   1.997   0.144  12.244  0.9244 -0.5015 -1.2846
  410TIP3    H222722   1.976   0.084  12.107 -1.5471 -0.0835 -1.1316
  411TIP3   OH222723   1.588   0.170   4.566  0.0672  0.0533  0.4194
  411TIP3    H122724   1.621   0.255   4.537 -1.6479  0.9184  0.8372
  411TIP3    H222725   1.595   0.113   4.489 -0.6199  1.1394 -0.4698
  412TIP3   OH222726   3.747   6.001   3.416 -0.7031 -0.3799  0.0091
  412TIP3    H122727   3.722   6.089   3.386  1.5598  0.2817 -0.0698
  412TIP3    H222728   3.728   6.001   3.510  0.2998  0.6089  0.2310
  413TIP3   OH222729   6.291   1.838   3.294  0.2330 -0.3735 -0.7431
  413TIP3    H122730   6.293   1.886   3.212  0.2904 -1.8509 -1.6346
  413TIP3    H222731   6.381   1.839   3.325 -0.0398  1.5288  0.1586
  414TIP3   OH222732   0.377   5.744   3.500 -0.6083 -0.5718  0.2916
  414TIP3    H122733   0.357   5.695   3.420 -0.2101 -0.0761 -0.1172
  414TIP3    H222734   0.471   5.733   3.512 -0.3336  0.9132 -0.3669
  415TIP3   OH222735   4.161   0.193   5.703  0.4406 -0.0708 -0.3011
  415TIP3    H122736   4.107   0.184   5.782 -0.5098 -1.1677 -1.0369
  415TIP3    H222737   4.098   0.193   5.632  1.4012 -1.3771 -1.1962
  416TIP3   OH222738   3.131   2.867   5.753 -0.1893 -0.3405  0.0540
  416TIP3    H122739   3.136   2.956   5.716  0.7413 -0.5476 -0.3509
  416TIP3    H222740   3.196   2.867   5.823  0.9806 -1.1467 -0.9690
  417TIP3   OH222741   4.557   2.102  10.878  0.0523 -0.1432 -0.2646
  417TIP3    H122742   4.505   2.022  10.884 -0.8510  0.4519  0.2119
  417TIP3    H222743   4.531   2.141  10.794 -1.0084  0.6150  0.3817
  418TIP3   OH222744   3.579   1.879   5.465  0.2705  0.1060 -0.4830
  418TIP3    H122745   3.549   1.931   5.540 -0.0973 -1.9371  0.8757
  418TIP3    H222746   3.518   1.902   5.394  0.3706  1.7790 -0.0825
  419TIP3   OH222747   5.442   6.812  12.939 -0.5171 -0.4295 -0.3031
  419TIP3    H122748   5.370   6.827  12.878 -0.3547  0.8298 -0.2115
  419TIP3    H222749   5.499   6.888  12.927  0.9184 -1.5208 -0.5384
  420TIP3   OH222750   4.159   3.868  16.124 -0.7237  0.2612  0.2462
  420TIP3    H122751   4.207   3.939  16.167 -1.2073  0.1109  1.0475
  420TIP3    H222752   4.228   3.813  16.085 -0.2759  0.4413  0.7650
  421TIP3   OH222753   1.579   2.103  16.276 -0.7977 -0.2216 -0.1480
  421TIP3    H122754   1.586   2.120  16.370 -0.9447 -3.1963  0.4842
  421TIP3    H222755   1.489   2.127  16.254 -0.4477  1.5314  0.1657
  422TIP3   OH222756   1.090   2.369   6.148  0.1393 -0.1694 -0.1765
  422TIP3    H122757   1.179   2.348   6.121  0.2308  1.2066 -1.0621
  422TIP3    H222758   1.084   2.464   6.138 -1.0506 -0.0950  1.0510
  423TIP3   OH222759   4.124   2.896  11.371 -0.7967  0.0853  0.7294
  423TIP3    H122760   4.050   2.949  11.343 -0.2077 -0.0775 -1.3483
  423TIP3    H222761   4.114   2.813  11.324  0.8225  0.1655  0.1501
  424TIP3   OH222762   3.785   0.899   1.473 -0.2230  0.3917 -0.3815
  424TIP3    H122763   3.708   0.932   1.428 -0.5761 -0.9879 -0.8535
  424TIP3    H222764   3.859   0.930   1.420 -0.5743 -0.1204 -1.1987
  425TIP3   OH222765   0.542   2.682   3.432 -0.4988 -0.1517 -0.2619
  425TIP3    H122766   0.500   2.743   3.493 -1.7912 -2.3271  1.1579
  425TIP3    H222767   0.469   2.636   3.390  0.4283 -0.6228 -1.4180
  426TIP3   OH222768   3.855   3.056  14.026 -0.3035 -0.5467 -0.2571
  426TIP3    H122769   3.835   2.977  14.076  0.8800 -1.6073 -1.3813
  426TIP3    H222770   3.784   3.117  14.048  0.9050 -0.3065  3.8725
  427TIP3   OH222771   3.730   2.052  11.038  0.8236 -0.3575  0.0986
  427TIP3    H122772   3.772   2.084  10.958  1.3217 -1.6319 -0.1774
  427TIP3    H222773   3.668   1.985  11.007 -2.4189  2.2555  0.3560
  428TIP3   OH222774   3.742   0.465   5.510 -0.2367  0.0213 -0.0501
  428TIP3    H122775   3.712   0.554   5.529 -0.3622  0.0851 -0.5309
  428TIP3    H222776   3.721   0.415   5.589 -1.0486  0.2065 -0.1441
  429TIP3   OH222777   4.588   1.175   4.013 -0.3049 -0.5005  0.6627
  429TIP3    H122778   4.513   1.125   3.979 -0.7133 -0.3345  1.2908
  429TIP3    H222779   4.664   1.140   3.966 -1.0692  1.2704 -2.1172
  430TIP3   OH222780   4.899   5.287   1.277  0.1157 -0.1928  0.2243
  430TIP3    H122781   4.979   5.285   1.223  0.1597 -0.9693  0.3081
  430TIP3    H222782   4.931   5.273   1.366 -0.1542 -1.0150  0.2004
  431TIP3   OH222783   5.476   0.226   6.851  0.3634  0.0940 -0.5573
  431TIP3    H122784   5.443   0.166   6.784 -1.3571  0.6957 -0.2960
  431TIP3    H222785   5.570   0.212   6.851  0.6116  0.8618 -3.8749
  432TIP3   OH222786   0.071   4.965  11.856 -0.0232 -0.0789  0.0583
  432TIP3    H122787   0.125   4.941  11.780 -1.5856  1.4559 -1.6312
  432TIP3    H222788   0.126   5.026  11.905 -0.0844  1.3412 -1.5476
  433TIP3   OH222789   1.147   3.090   6.082  0.0218  0.0517 -0.2415
  433TIP3    H122790   1.085   3.162   6.091  1.6391  1.3108  1.6876
  433TIP3    H222791   1.093   3.014   6.059 -2.2692  1.0170  1.5844
  434TIP3   OH222792   0.665   1.429   5.222  0.3838  0.4028 -0.3936
  434TIP3    H122793   0.665   1.389   5.309  0.8991  2.8387  0.8265
  434TIP3    H222794   0.574   1.454   5.207  0.6007  1.7760  0.3983
  435TIP3   OH222795   3.557   2.990   6.062  0.1293  0.3257 -0.1064
  435TIP3    H122796   3.533   2.957   6.148 -3.0097 -0.1284 -1.0511
  435TIP3    H222797   3.566   2.912   6.007  2.0796  0.6109 -0.2699
  436TIP3   OH222798   5.360   0.486   5.106  0.2490 -0.0458  0.0996
  436TIP3    H122799   5.379   0.473   5.013  1.9826 -0.7649  0.5082
  436TIP3    H222800   5.290   0.424   5.125  0.0052 -0.0247 -0.6905
  437TIP3   OH222801   3.558   2.426  13.237 -0.8410 -0.2649 -0.0345
  437TIP3    H122802   3.614   2.433  13.159 -0.5026  1.3698  0.3277
  437TIP3    H222803   3.618   2.402  13.307 -0.4969  1.7008  0.3981
  438TIP3   OH222804   5.746   2.707  10.866  0.9539  0.1092 -0.1359
  438TIP3    H122805   5.831   2.749  10.881  0.8839  0.4793 -0.7167
  438TIP3    H222806   5.745   2.632  10.925  1.2294  0.7238  0.6721
  439TIP3   OH222807   6.716   0.768   1.034  0.2316 -0.0100 -0.1834
  439TIP3    H122808   6.755   0.741   1.117  1.0806  1.7535  0.0381
  439TIP3    H222809   6.623   0.779   1.053  0.0261 -1.7459 -0.0518
  440TIP3   OH222810   0.751   1.519  16.714  0.1191  0.2939 -0.3676
  440TIP3    H122811   0.744   1.541  16.621  2.1660 -1.7769 -1.1195
  440TIP3    H222812   0.830   1.564  16.743  0.1503 -0.0170  0.0361
  441TIP3   OH222813   2.298   4.371   5.079  0.4227 -0.3825 -0.0831
  441TIP3    H122814   2.221   4.323   5.050  1.2435 -1.1607 -1.0590
  441TIP3    H222815   2.348   4.307   5.130  0.6568 -0.0301  0.1360
  442TIP3   OH222816   1.483   5.002   4.395 -0.1635 -0.1768 -0.0475
  442TIP3    H122817   1.479   4.918   4.349 -0.6754 -1.0837  1.5832
  442TIP3    H222818   1.401   5.046   4.372  0.2275  0.0194 -1.1253
  443TIP3   OH222819   1.276   4.621  13.664 -0.8114 -0.1284  0.1296
  443TIP3    H122820   1.198   4.576  13.697 -0.1798  0.1828  2.1650
  443TIP3    H222821   1.272   4.708  13.704  0.9288 -0.3399  0.8303
  444TIP3   OH222822   3.869   0.695  11.177  0.0307 -0.0691  0.7017
  444TIP3    H122823   3.886   0.781  11.138 -2.5116  0.5272  0.6874
  444TIP3    H222824   3.823   0.647  11.108 -0.2398 -0.7562  1.3529
  445TIP3   OH222825   0.494   5.995   2.740  0.4061 -0.1373 -0.7487
  445TIP3    H122826   0.558   6.048   2.788  2.3752 -2.3733 -0.7313
  445TIP3    H222827   0.480   5.919   2.795 -2.1927  0.1625 -0.8722
  446TIP3   OH222828   5.877   4.548  16.204 -0.5991 -0.4994  0.0672
  446TIP3    H122829   5.899   4.455  16.204 -1.0320 -0.6704  2.5571
  446TIP3    H222830   5.785   4.550  16.232 -1.4961  0.5978 -2.6112
  447TIP3   OH222831   6.533   2.299   1.559 -0.9611  0.5748  0.5648
  447TIP3    H122832   6.616   2.323   1.519  0.0178 -0.0098  2.1649
  447TIP3    H222833   6.472   2.292   1.485  0.0146  2.4729 -0.4976
  448TIP3   OH222834   5.147   0.267  12.868  0.4216 -0.9786  0.1953
  448TIP3    H122835   5.171   0.184  12.827 -1.0431 -2.6245  2.4481
  448TIP3    H222836   5.058   0.284  12.837 -0.0286 -1.3112  1.2910
  449TIP3   OH222837   3.009   1.930   0.032 -0.6414 -0.3765  0.2158
  449TIP3    H122838   2.928   1.882   0.048 -0.4366 -0.7284  0.2079
  449TIP3    H222839   3.059   1.921   0.113 -0.2235 -0.9316 -0.1017
  450TIP3   OH222840   3.903   0.332   3.924 -0.4559 -0.1008  0.3534
  450TIP3    H122841   3.913   0.240   3.947 -1.1447 -0.2984 -0.1181
  450TIP3    H222842   3.864   0.372   4.002 -0.3576 -0.2468  0.4782
  451TIP3   OH222843   3.154   0.062  14.379  0.6519  0.6810  0.3649
  451TIP3    H122844   3.222   0.098  14.323  0.4561  1.3178  0.5308
  451TIP3    H222845   3.189  -0.022  14.409  0.2286 -0.3516 -1.7834
  452TIP3   OH222846   2.510   5.587  15.506  0.0530 -0.0310  0.3568
  452TIP3    H122847   2.504   5.493  15.526  2.4276  0.0990  2.2041
  452TIP3    H222848   2.570   5.590  15.431 -1.3354 -0.0311 -0.7853
  453TIP3   OH222849   1.586   3.426  12.433  0.0075 -0.0242  0.6571
  453TIP3    H122850   1.607   3.334  12.418 -0.6599 -0.0155 -0.5249
  453TIP3    H222851   1.526   3.426  12.508 -0.0628 -0.5671  0.6029
  454TIP3   OH222852   2.789   1.307   3.553  0.3795  0.3478 -0.6537
  454TIP3    H122853   2.708   1.272   3.515  0.1769 -0.8048  0.7407
  454TIP3    H222854   2.771   1.401   3.564 -0.9257  0.0660 -0.0773
  455TIP3   OH222855   5.694   6.326   0.926 -0.6196  0.0206  0.1411
  455TIP3    H122856   5.742   6.263   0.873  0.6707  0.5960  0.5675
  455TIP3    H222857   5.754   6.346   0.999 -1.6584  0.5168  0.8836
  456TIP3   OH222858   6.004   6.344   2.792  0.2638 -0.1946 -0.3251
  456TIP3    H122859   5.962   6.280   2.734  0.9088 -0.5272 -0.4437
  456TIP3    H222860   5.934   6.373   2.850 -0.1238 -0.7521 -0.4983
  457TIP3   OH222861   3.476   4.260   5.005 -0.4864  0.0966  0.4876
  457TIP3    H122862   3.498   4.260   4.912  0.3803 -0.4280  0.6895
  457TIP3    H222863   3.418   4.184   5.016 -1.5787  0.8551  0.1639
  458TIP3   OH222864   4.820   4.816   4.132 -0.0970 -0.1385  0.1995
  458TIP3    H122865   4.834   4.909   4.148 -1.2802  0.2355 -0.7551
  458TIP3    H222866   4.804   4.810   4.038 -1.3940 -1.1099  0.4462
  459TIP3   OH222867   4.312   0.851   3.363  0.5142 -0.1485 -0.2531
  459TIP3    H122868   4.277   0.931   3.324 -1.0596 -0.1208  1.0771
  459TIP3    H222869   4.398   0.876   3.397 -0.2230  1.1856  0.7231
  460TIP3   OH222870   3.767   5.084   2.007 -0.6246 -0.1980  0.6140
  460TIP3    H122871   3.714   5.105   1.930 -0.0582  1.6386  0.6696
  460TIP3    H222872   3.853   5.063   1.972 -0.1471  1.3922  0.7163
  461TIP3   OH222873   1.786   4.773  13.284 -0.2316 -0.0160 -0.1332
  461TIP3    H122874   1.778   4.746  13.193 -1.8507 -2.4771  0.6455
  461TIP3    H222875   1.740   4.706  13.334  2.5836 -0.1052  2.7387
  462TIP3   OH222876   6.802   1.074  16.918 -0.3007 -0.6067 -0.0268
  462TIP3    H122877   6.818   0.992  16.965 -0.8547 -0.0836  1.1260
  462TIP3    H222878   6.756   1.048  16.838 -3.6210 -1.2312  1.9034
  463TIP3   OH222879   0.273   6.754   1.035 -0.0776 -0.4469  0.8337
  463TIP3    H122880   0.359   6.722   1.010 -1.0642 -2.2401 -0.5220
  463TIP3    H222881   0.262   6.837   0.988 -0.3571 -1.8557 -1.7406
  464TIP3   OH222882   5.414   0.541   1.872 -0.0074  0.0146 -0.3404
  464TIP3    H122883   5.361   0.572   1.946 -1.8136 -1.6140 -0.8745
  464TIP3    H222884   5.502   0.528   1.909 -0.6136  0.2302  1.2463
  465TIP3   OH222885   1.445   3.797  13.882  0.0763  0.2968  0.4027
  465TIP3    H122886   1.539   3.814  13.874 -0.0056  1.0197  0.8756
  465TIP3    H222887   1.430   3.719  13.828  0.8924  0.3496  0.0849
  466TIP3   OH222888   4.873   4.149  15.444 -0.3479 -0.3430  0.4109
  466TIP3    H122889   4.922   4.186  15.371  1.6725 -0.1027  1.7799
  466TIP3    H222890   4.786   4.187  15.437  0.5930  1.8363 -0.3222
  467TIP3   OH222891   5.413   1.578  12.198 -0.6632 -0.4407  0.3270
  467TIP3    H122892   5.389   1.488  12.221 -0.6203 -0.5580 -0.0879
  467TIP3    H222893   5.330   1.621  12.179 -0.6072 -0.6739 -0.4812
  468TIP3   OH222894   3.784   0.244  15.586 -0.2708  0.1113 -0.2859
  468TIP3    H122895   3.694   0.225  15.559 -1.5467  1.6854  2.3906
  468TIP3    H222896   3.792   0.202  15.672  1.3645  0.4710 -0.2375
  469TIP3   OH222897   4.349   4.786   4.102  0.4496  0.8763 -0.2874
  469TIP3    H122898   4.422   4.831   4.145  0.0691  3.2290 -1.8935
  469TIP3    H222899   4.271   4.814   4.150  0.4088 -0.3351  0.4050
  470TIP3   OH222900   2.999   4.323   3.481 -0.0376 -0.1323 -0.1385
  470TIP3    H122901   2.933   4.348   3.546  0.5793  1.7753 -0.1908
  470TIP3    H222902   2.948   4.287   3.409 -1.0316  0.9247 -0.0063
  471TIP3   OH222903   0.242   2.210  12.410 -0.5666  0.2989 -0.1635
  471TIP3    H122904   0.276   2.297  12.390 -0.9969  0.3343 -0.7598
  471TIP3    H222905   0.243   2.164  12.327  0.9767 -0.7460  0.3896
  472TIP3   OH222906   5.544   3.382   2.645  0.7513 -0.1877 -0.4472
  472TIP3    H122907   5.481   3.429   2.699  0.9775 -0.2416 -0.1311
  472TIP3    H222908   5.609   3.448   2.622  0.4881 -0.0911 -0.9194
  473TIP3   OH222909   0.675   2.756  14.998 -0.2475  0.0084  0.1886
  473TIP3    H122910   0.620   2.791  14.927 -0.0836 -0.5702 -0.2240
  473TIP3    H222911   0.627   2.679  15.028 -0.8293  0.8105  1.3934
  474TIP3   OH222912   1.106   1.411  12.848  0.3466  0.7770 -0.3506
  474TIP3    H122913   1.198   1.396  12.871 -0.0534  0.0438  0.8262
  474TIP3    H222914   1.081   1.487  12.901  0.8923  2.5160 -2.4214
  475TIP3   OH222915   1.092   4.091  12.333  0.0643  0.0140 -0.3121
  475TIP3    H122916   1.110   4.064  12.243 -2.2213  0.5491 -1.0093
  475TIP3    H222917   1.078   4.009  12.380 -0.3778 -0.2281 -0.8578
  476TIP3   OH222918   0.385   0.893  13.510  0.4599  0.2329  0.7784
  476TIP3    H122919   0.372   0.968  13.568 -0.0957 -0.8843  2.1693
  476TIP3    H222920   0.352   0.818  13.560  0.3772 -0.8578 -0.8170
  477TIP3   OH222921   2.997   2.739  10.964 -0.3039  0.5928  0.1147
  477TIP3    H122922   2.947   2.682  11.022 -2.0430  1.4718 -0.4703
  477TIP3    H222923   2.972   2.710  10.876 -1.4100  2.3772 -0.1941
  478TIP3   OH222924   2.942   2.741   2.298 -0.4361 -0.4692  0.2246
  478TIP3    H122925   2.999   2.680   2.253 -1.0110 -1.4173  0.7576
  478TIP3    H222926   2.855   2.701   2.294 -2.0455  2.6623 -4.0048
  479TIP3   OH222927   3.475   4.288   4.537 -0.9604 -0.1455  0.0737
  479TIP3    H122928   3.466   4.383   4.525 -2.4621 -0.4062 -1.1879
  479TIP3    H222929   3.535   4.279   4.611 -3.2329  1.8757  2.3608
  480TIP3   OH222930   3.267   4.874  11.551  0.5319 -0.2147 -0.2046
  480TIP3    H122931   3.245   4.781  11.550 -0.4392 -0.0062 -1.5251
  480TIP3    H222932   3.254   4.900  11.642 -1.3408 -0.9136 -0.2235
  481TIP3   OH222933   0.166   3.425  15.854  0.0759 -0.9130 -0.0104
  481TIP3    H122934   0.137   3.515  15.867  1.0394 -0.5623 -0.1996
  481TIP3    H222935   0.091   3.380  15.815 -0.2968 -0.1066 -0.2283
  482TIP3   OH222936   2.818   6.651  16.012 -0.2204 -1.0455  0.2110
  482TIP3    H122937   2.732   6.631  16.051 -0.0505 -1.7876  0.2209
  482TIP3    H222938   2.864   6.567  16.013 -0.3939 -1.2135 -2.0573
  483TIP3   OH222939   5.402   1.798  10.552  0.0445 -0.7470 -0.3729
  483TIP3    H122940   5.418   1.891  10.570 -2.3080 -0.6350  1.7595
  483TIP3    H222941   5.414   1.789  10.458  1.3944  1.4686 -0.4752
  484TIP3   OH222942   0.945   4.672  15.762 -0.9245 -0.2405 -0.1544
  484TIP3    H122943   0.913   4.659  15.851  0.5656  0.0211  0.4381
  484TIP3    H222944   0.995   4.753  15.766 -0.0206 -0.7335 -0.9872
  485TIP3   OH222945   2.867   6.840   2.883  0.8967  0.2112  0.6099
  485TIP3    H122946   2.824   6.779   2.824  0.9865 -0.3055  1.0800
  485TIP3    H222947   2.943   6.793   2.917  0.2998  0.1403  1.9136
  486TIP3   OH222948   2.257   1.573   3.362 -0.5893  0.1065  0.2418
  486TIP3    H122949   2.168   1.600   3.385 -0.6720  0.4664 -0.4630
  486TIP3    H222950   2.277   1.624   3.283  0.6387  0.8439  0.9913
  487TIP3   OH222951   0.054   3.430   2.189 -0.0863 -0.0963 -0.2836
  487TIP3    H122952   0.063   3.392   2.102 -0.8505  0.6648 -0.7123
  487TIP3    H222953   0.123   3.496   2.194  1.7069 -1.9399  0.7291
  488TIP3   OH222954   5.989   3.396   3.721  0.4880  0.0081 -0.1272
  488TIP3    H122955   5.904   3.424   3.755  1.2763  2.8588 -0.2307
  488TIP3    H222956   5.990   3.430   3.631  1.2579 -1.0850 -0.5462
  489TIP3   OH222957   0.547   1.438   2.745 -0.4667 -0.6098 -0.0647
  489TIP3    H122958   0.593   1.516   2.777 -1.4217  1.7074 -3.7442
  489TIP3    H222959   0.454   1.460   2.754 -0.8205 -2.2833  0.7528
  490TIP3   OH222960   4.402   2.888  13.871  0.1301  0.2776  0.0748
  490TIP3    H122961   4.435   2.805  13.837 -0.0533  0.5143 -0.6894
  490TIP3    H222962   4.339   2.862  13.939  1.1198 -0.1797  0.8455
  491TIP3   OH222963   2.958   1.891   0.640  0.2006  0.2144 -0.1796
  491TIP3    H122964   2.909   1.967   0.670 -0.5660 -1.3605  2.8876
  491TIP3    H222965   2.898   1.845   0.581  0.3298  1.4404 -1.3050
  492TIP3   OH222966   2.039   5.328  15.846  0.2676 -0.6791 -0.0172
  492TIP3    H122967   1.944   5.340  15.850  0.2121 -1.0998 -0.0622
  492TIP3    H222968   2.053   5.282  15.764  0.4908 -0.8140  0.0977
  493TIP3   OH222969   0.589   5.912  14.756  0.6011 -0.3751  0.0203
  493TIP3    H122970   0.567   5.910  14.663  0.6904 -0.7719  0.0046
  493TIP3    H222971   0.682   5.933  14.758 -0.0034  2.7118  0.1331
  494TIP3   OH222972   1.115   6.140  11.282 -0.7320 -0.5582  0.6041
  494TIP3    H122973   1.137   6.226  11.318 -1.5504 -0.9029  1.9916
  494TIP3    H222974   1.200   6.099  11.266 -0.3360  0.3706  0.2613
  495TIP3   OH222975   2.796   2.460   1.096  0.3499 -0.0168 -0.4775
  495TIP3    H122976   2.849   2.472   1.174  1.3372  1.0600 -1.2776
  495TIP3    H222977   2.831   2.524   1.033 -1.1281 -0.0903 -1.4265
  496TIP3   OH222978   0.065   4.420  11.649  0.1397  0.4283  0.0476
  496TIP3    H122979   0.142   4.425  11.592  2.0389 -0.0755  2.4225
  496TIP3    H222980   0.031   4.332  11.635  1.5393 -0.2623  0.7975
  497TIP3   OH222981   4.239   2.564  10.829 -0.4091  0.0794 -0.0703
  497TIP3    H122982   4.270   2.516  10.905 -1.6492 -1.6544 -0.6092
  497TIP3    H222983   4.149   2.588  10.851 -0.3145  0.8258 -0.4406
  498TIP3   OH222984   4.203   4.531  16.723  0.7730  0.0082  0.0107
  498TIP3    H122985   4.126   4.491  16.682  0.3267  0.5702  0.2943
  498TIP3    H222986   4.180   4.623  16.733  1.0169 -0.0449  1.2083
  499TIP3   OH222987   1.795   2.911   4.126  0.0747  0.2142  0.2127
  499TIP3    H122988   1.858   2.888   4.194  0.6757  1.7408  0.2228
  499TIP3    H222989   1.826   2.996   4.092 -1.0791  0.2333 -0.8895
  500TIP3   OH222990   3.481   4.654  15.986  0.8733  0.1595  0.2791
  500TIP3    H122991   3.487   4.587  16.054 -1.6900 -2.0332 -1.4209
  500TIP3    H222992   3.560   4.642  15.934  1.8966  0.5490  1.6700
  501TIP3   OH222993   0.252   2.851   0.572  0.3992  0.5958 -0.1160
  501TIP3    H122994   0.188   2.922   0.580  2.1682  2.1797  0.6221
  501TIP3    H222995   0.208   2.786   0.518 -1.7829  1.6688  0.2409
  502TIP3   OH222996   2.457   0.103   0.793  0.4707  0.1147 -0.5363
  502TIP3    H122997   2.458   0.198   0.808  2.6364  0.1017 -0.2734
  502TIP3    H222998   2.366   0.084   0.768  0.2876  2.4833 -2.0756
  503TIP3   OH222999   0.584   6.149   4.066  0.8057  0.2391 -0.3079
  503TIP3    H123000   0.518   6.087   4.035  1.3389 -0.3539 -0.2749
  503TIP3    H223001   0.553   6.234   4.035 -0.5993  0.1436  0.7240
  504TIP3   OH223002   0.726   3.392  14.855  0.0915 -0.2543  0.0041
  504TIP3    H123003   0.652   3.423  14.907 -0.8703  0.7450 -1.8586
  504TIP3    H223004   0.800   3.443  14.888  0.0356 -1.3062  1.9258
  505TIP3   OH223005   1.691   2.451  15.332 -0.1813  0.2089  0.1490
  505TIP3    H123006   1.652   2.387  15.273 -0.9748 -0.5278  1.4127
  505TIP3    H223007   1.783   2.453  15.307  0.1305 -2.3352  0.7791
  506TIP3   OH223008   3.968   0.864   2.964 -0.1768  0.4124 -0.3945
  506TIP3    H123009   4.048   0.914   2.983 -0.2817  0.4423 -0.0055
  506TIP3    H223010   3.900   0.911   3.013  0.1973 -1.7789  2.4705
  507TIP3   OH223011   0.374   6.080   2.473  1.1507  0.3991 -0.2177
  507TIP3    H123012   0.289   6.073   2.515  0.6440  2.4984 -0.7863
  507TIP3    H223013   0.436   6.086   2.546  0.8595 -1.0438  0.1964
  508TIP3   OH223014   5.735   4.060   0.853 -0.5152  0.0630 -0.6435
  508TIP3    H123015   5.772   4.036   0.768  3.5874 -0.4410  1.0370
  508TIP3    H223016   5.754   4.154   0.862  2.1561 -0.5145  0.8768
  509TIP3   OH223017   5.083   0.356   4.446 -0.0496  0.3635 -0.1910
  509TIP3    H123018   5.084   0.422   4.377 -2.7472 -0.9576 -1.6424
  509TIP3    H223019   4.991   0.336   4.459  0.4546 -0.6018  2.7562
  510TIP3   OH223020   4.342   0.385   0.149 -0.2962  0.8769  0.3815
  510TIP3    H123021   4.284   0.424   0.083 -0.6342  0.4199  0.4048
  510TIP3    H223022   4.329   0.291   0.140  1.0175  0.7176 -0.1354
  511TIP3   OH223023   1.315   1.720  16.645  0.1655 -0.1929  0.0931
  511TIP3    H123024   1.248   1.788  16.658 -0.3536 -0.8095  0.6833
  511TIP3    H223025   1.265   1.639  16.633  0.7942 -0.5504 -0.1425
  512TIP3   OH223026   6.720   5.959   0.003 -0.0770  0.1986  0.4027
  512TIP3    H123027   6.727   5.889   0.067  1.5753  0.1497  0.2328
  512TIP3    H223028   6.748   5.919  -0.079 -3.4105 -0.1029 -0.7268
  513TIP3   OH223029   2.557   4.881   1.505  0.1389  0.6726  0.5016
  513TIP3    H123030   2.474   4.902   1.547  0.1866 -3.1276  2.9429
  513TIP3    H223031   2.535   4.818   1.437  0.9352  0.0235  0.8261
  514TIP3   OH223032   5.620   6.460   3.470 -0.0147  0.1737 -0.1296
  514TIP3    H123033   5.698   6.488   3.518 -0.8945 -0.3152  1.7042
  514TIP3    H223034   5.549   6.512   3.508 -0.9308 -1.0968 -0.0145
  515TIP3   OH223035   4.763   6.105  11.324  0.2601  0.0973  0.3224
  515TIP3    H123036   4.776   6.060  11.407  2.1236  0.3783  0.2200
  515TIP3    H223037   4.804   6.048  11.259  2.5873  1.7841  0.1796
  516TIP3   OH223038   2.618   0.774   5.164 -0.0602  0.4095  0.3444
  516TIP3    H123039   2.653   0.770   5.075  0.3346 -1.8989  0.5465
  516TIP3    H223040   2.524   0.786   5.152  0.2279  2.3349 -0.2947
  517TIP3   OH223041   3.489   3.354   3.348  0.3689 -0.3592  0.1000
  517TIP3    H123042   3.492   3.382   3.439  0.7462  0.3849 -0.1316
  517TIP3    H223043   3.572   3.308   3.334  0.4620 -0.1803  0.0501
  518TIP3   OH223044   2.475   1.643  12.487 -0.5839 -0.5920  0.1773
  518TIP3    H123045   2.473   1.561  12.536  1.6755 -1.2363 -0.6934
  518TIP3    H223046   2.519   1.705  12.546  1.1344 -1.0709 -0.5485
  519TIP3   OH223047   5.975   4.913  12.859 -0.1926  0.1240 -0.7981
  519TIP3    H123048   6.000   4.995  12.901 -2.3859  0.9533 -0.9358
  519TIP3    H223049   5.911   4.939  12.793 -2.7959 -1.8629  0.7378
  520TIP3   OH223050   5.437   4.078   2.507  0.8247 -0.2400 -0.5000
  520TIP3    H123051   5.442   3.997   2.457  0.0026  0.3983 -1.6710
  520TIP3    H223052   5.526   4.093   2.537  1.6966  0.0483 -2.9776
  521TIP3   OH223053   2.685   4.796  14.434  0.5570  0.4293 -0.2456
  521TIP3    H123054   2.632   4.862  14.390 -0.2639 -0.2705 -0.3324
  521TIP3    H223055   2.638   4.779  14.516 -1.5084 -2.8511 -1.8765
  522TIP3   OH223056   2.967   6.294   4.732 -0.5078  0.2476  0.6953
  522TIP3    H123057   2.914   6.308   4.810 -2.2106 -0.8942 -0.1899
  522TIP3    H223058   2.904   6.271   4.664  1.1635 -1.5464 -0.3449
  523TIP3   OH223059   6.284   3.695   4.756 -0.5612  0.2498  0.2148
  523TIP3    H123060   6.191   3.706   4.773 -0.7406 -0.7778 -0.0456
  523TIP3    H223061   6.326   3.765   4.806 -1.5907  2.0932 -1.3961
  524TIP3   OH223062   5.815   2.179  14.044  0.7419  0.4440 -0.5037
  524TIP3    H123063   5.873   2.137  13.980  0.7475  0.0350 -0.2343
  524TIP3    H223064   5.872   2.237  14.094  0.7288  0.7975 -0.9002
  525TIP3   OH223065   0.445   3.608  14.642  0.1843 -0.0358  0.0087
  525TIP3    H123066   0.363   3.623  14.688 -1.1415  0.7118 -2.4327
  525TIP3    H223067   0.486   3.535  14.689 -0.1003  1.8250  3.4377
  526TIP3   OH223068   4.875   1.558   1.599 -0.4285  0.3455 -0.0999
  526TIP3    H123069   4.933   1.571   1.524 -1.7763  1.4010 -1.0179
  526TIP3    H223070   4.899   1.472   1.634  2.9414  1.4641  0.7409
  527TIP3   OH223071   0.481   4.111  16.276  0.4523 -0.1537 -0.2688
  527TIP3    H123072   0.401   4.162  16.285  0.9245  0.5158  0.1615
  527TIP3    H223073   0.485   4.088  16.183 -2.3515 -3.6646  0.2409
  528TIP3   OH223074   3.228   6.175   5.490  0.9542  0.0098 -0.1677
  528TIP3    H123075   3.189   6.223   5.417  2.2515  0.8479 -0.3451
  528TIP3    H223076   3.229   6.084   5.461  3.5102  0.5537 -2.2562
  529TIP3   OH223077   6.428   1.793   0.672 -0.0837 -0.1507 -0.0772
  529TIP3    H123078   6.333   1.802   0.681 -0.0992 -0.4195  0.0384
  529TIP3    H223079   6.461   1.883   0.675 -0.5826  0.2684 -3.2904
  530TIP3   OH223080   6.620   1.133   1.570  0.6002  0.1086  0.3195
  530TIP3    H123081   6.602   1.205   1.510  0.1251 -0.4162 -0.1846
  530TIP3    H223082   6.558   1.064   1.544  2.7011 -1.4430 -0.8872
  531TIP3   OH223083   1.036   2.444   1.760 -0.3384 -0.0496  0.5765
  531TIP3    H123084   0.981   2.372   1.727 -1.1045  1.5920 -2.0643
  531TIP3    H223085   1.125   2.410   1.755 -0.8102 -1.4680  1.2802
  532TIP3   OH223086   3.530   1.918  15.208 -0.1077 -0.5983 -0.1251
  532TIP3    H123087   3.568   1.871  15.282 -1.7114 -0.4339  0.8344
  532TIP3    H223088   3.482   1.852  15.158  1.6528 -0.8827 -1.5568
  533TIP3   OH223089   0.959   1.761   5.541  0.7421  0.3712 -0.0483
  533TIP3    H123090   0.900   1.689   5.566  1.1413 -0.0518 -0.2976
  533TIP3    H223091   1.038   1.746   5.593  0.1410  1.7445  1.3526
  534TIP3   OH223092   6.538   5.685  13.412 -0.4412  0.1367  0.0638
  534TIP3    H123093   6.491   5.709  13.492  1.1004  0.8429  0.8104
  534TIP3    H223094   6.534   5.762  13.357 -0.9703 -0.1354 -0.2831
  535TIP3   OH223095   4.602   3.357   1.594  0.5937 -0.4238 -0.1853
  535TIP3    H123096   4.529   3.419   1.598  1.9103  1.2745 -1.0050
  535TIP3    H223097   4.669   3.403   1.544  1.9392 -2.2446 -0.1426
  536TIP3   OH223098   4.738   6.314  12.995  0.2544 -0.2627  1.0440
  536TIP3    H123099   4.776   6.324  13.083  1.8406  1.7504  0.2203
  536TIP3    H223100   4.804   6.265  12.946 -0.4848 -1.0941  0.8498
  537TIP3   OH223101   4.706   5.545  16.266 -0.8200 -0.3119 -0.0343
  537TIP3    H123102   4.729   5.604  16.194  1.5219  0.6958  1.4163
  537TIP3    H223103   4.630   5.587  16.308 -0.3404  0.7101 -0.1516
  538TIP3   OH223104   2.863   3.324  17.116  0.3017  0.4608 -0.9224
  538TIP3    H123105   2.892   3.370  17.037  0.4333  0.3666 -0.9286
  538TIP3    H223106   2.931   3.344  17.181  0.9472 -0.6446 -1.2366
  539TIP3   OH223107   0.265   0.177   4.574 -0.7750  0.1802  0.2462
  539TIP3    H123108   0.241   0.130   4.654  1.1694  0.2247  0.9208
  539TIP3    H223109   0.240   0.268   4.591 -3.1819 -0.2888 -0.4674
  540TIP3   OH223110   5.959   4.364  14.596 -0.5602 -0.2806 -0.3022
  540TIP3    H123111   5.922   4.286  14.554 -0.8878 -0.3962  0.1909
  540TIP3    H223112   5.948   4.347  14.689 -0.7054  0.3930 -0.1953
  541TIP3   OH223113   6.827   3.763   5.555  0.0622  0.2239  0.0109
  541TIP3    H123114   6.900   3.820   5.579  1.1667 -0.5380 -1.3933
  541TIP3    H223115   6.780   3.748   5.637  1.4181  0.8246  0.9315
  542TIP3   OH223116   2.194   4.403   0.377  0.6546  0.0161 -1.0226
  542TIP3    H123117   2.243   4.435   0.302 -0.0448 -0.3900 -1.6692
  542TIP3    H223118   2.172   4.313   0.355  1.9000 -0.6851  0.4148
  543TIP3   OH223119   4.317   3.992   5.115  0.8884 -0.4101  0.8340
  543TIP3    H123120   4.309   3.913   5.062  1.4067 -0.6820  1.1590
  543TIP3    H223121   4.240   4.045   5.092  1.1668 -0.4753 -0.2633
  544TIP3   OH223122   2.590   1.079   6.002 -0.0608 -0.6684 -0.8518
  544TIP3    H123123   2.641   1.159   5.989  0.6317 -1.2900 -2.0358
  544TIP3    H223124   2.650   1.019   6.046 -0.6409 -0.5067  0.2121
  545TIP3   OH223125   1.599   2.534   3.811 -0.3028  0.0520 -0.7246
  545TIP3    H123126   1.633   2.623   3.800  0.3641 -0.2577 -1.3025
  545TIP3    H223127   1.648   2.499   3.885  0.8267 -0.4565 -1.6713
  546TIP3   OH223128   2.502   5.683   5.227  0.0127 -0.0690 -0.7134
  546TIP3    H123129   2.596   5.688   5.244 -0.0767 -1.2104  0.2504
  546TIP3    H223130   2.477   5.596   5.257 -1.5259  0.5619 -0.0661
  547TIP3   OH223131   3.892   4.047  13.454  0.4662 -0.3650  0.4234
  547TIP3    H123132   3.798   4.065  13.462  0.7978  0.8326  2.0565
  547TIP3    H223133   3.900   3.953  13.471 -0.6033 -0.9327 -1.7321
  548TIP3   OH223134   2.865   5.957   1.056 -0.0500  0.0369  0.3169
  548TIP3    H123135   2.866   5.989   1.146  0.8712 -1.5340  0.9056
  548TIP3    H223136   2.787   5.995   1.017 -1.7532 -1.0737  2.4656
  549TIP3   OH223137   6.511   3.808  13.028 -0.3409  0.2445 -0.1321
  549TIP3    H123138   6.565   3.887  13.022  1.0721 -0.6442  0.2623
  549TIP3    H223139   6.572   3.737  13.011 -1.3229 -0.8276  0.6831
  550TIP3   OH223140   3.532   3.834   5.797  0.5285 -0.6531 -0.2136
  550TIP3    H123141   3.442   3.819   5.768  0.1906 -0.3576  0.6293
  550TIP3    H223142   3.570   3.890   5.730  0.4005 -1.5611 -1.0774
  551TIP3   OH223143   3.321   2.361   2.598  0.3178 -0.2657 -0.1085
  551TIP3    H123144   3.229   2.365   2.573 -0.1270 -0.6442  1.3380
  551TIP3    H223145   3.352   2.452   2.593 -0.8363  0.2775  1.7476
  552TIP3   OH223146   4.206   1.271  17.062 -0.3123 -0.5115  0.0255
  552TIP3    H123147   4.213   1.366  17.065 -0.2250 -0.4746 -0.9583
  552TIP3    H223148   4.232   1.248  16.973  0.8979 -1.5649  0.6098
  553TIP3   OH223149   3.026   3.644  16.664  0.0545  0.0921 -0.0377
  553TIP3    H123150   2.943   3.616  16.702  0.7516 -1.6619  0.2634
  553TIP3    H223151   3.007   3.654  16.571 -0.4418 -0.5321 -0.0103
  554TIP3   OH223152   3.541   1.593   1.238  0.5373  0.3708  0.1056
  554TIP3    H123153   3.479   1.612   1.168 -1.0652  0.4107  1.4825
  554TIP3    H223154   3.594   1.673   1.245 -0.0068  0.7800 -0.3438
  555TIP3   OH223155   0.771   3.743   0.595  0.3227  0.3178 -0.2698
  555TIP3    H123156   0.804   3.768   0.681  0.1744  0.8645 -0.3666
  555TIP3    H223157   0.733   3.823   0.560  1.3386  0.3746 -1.2880
  556TIP3   OH223158   5.229   4.857  14.134 -0.2267 -0.1941 -0.7343
  556TIP3    H123159   5.184   4.814  14.062  0.9386 -1.4692 -0.7379
  556TIP3    H223160   5.183   4.940  14.144 -0.9501 -0.3500 -2.3775
  557TIP3   OH223161   4.651   0.956  12.705  0.0185 -0.3223  0.2378
  557TIP3    H123162   4.635   1.014  12.631  0.8940 -1.5867 -0.9939
  557TIP3    H223163   4.747   0.951  12.711 -0.0114  0.1133  1.7814
  558TIP3   OH223164   2.524   3.712   3.923  0.8770 -0.4426 -0.1288
  558TIP3    H123165   2.587   3.705   3.852 -0.5698 -1.3485 -1.3970
  558TIP3    H223166   2.439   3.715   3.879 -0.0878 -1.4651  1.5653
  559TIP3   OH223167   3.493   1.143  15.422  0.1317  0.3583 -0.4530
  559TIP3    H123168   3.580   1.151  15.384  0.2841 -0.6453 -0.3374
  559TIP3    H223169   3.492   1.057  15.464 -2.0696 -1.2746 -3.4684
  560TIP3   OH223170   2.844   3.057  16.776  0.2847  0.2528  0.1479
  560TIP3    H123171   2.772   3.073  16.715  1.8511 -0.0124 -1.8857
  560TIP3    H223172   2.890   2.982  16.740  1.7659  0.6080  1.1946
  561TIP3   OH223173   4.773   1.973  12.897 -0.4162 -0.1800 -0.3221
  561TIP3    H123174   4.745   2.055  12.857 -2.9462 -0.1000  1.3756
  561TIP3    H223175   4.858   1.994  12.938 -1.8540  2.2546  1.7221
  562TIP3   OH223176   4.560   3.548  13.147  0.1373 -0.9907 -0.1236
  562TIP3    H123177   4.537   3.456  13.159  1.3429 -1.2845  0.0326
  562TIP3    H223178   4.601   3.574  13.230 -1.2105  0.0344  0.2730
  563TIP3   OH223179   3.727   1.532  12.361 -0.5149 -0.2171  0.6943
  563TIP3    H123180   3.782   1.503  12.434 -0.6612  1.2060  1.4100
  563TIP3    H223181   3.640   1.499  12.382 -0.3604 -0.6728  0.6341
  564TIP3   OH223182   0.730   2.339   0.827  0.2242 -0.3451 -0.1612
  564TIP3    H123183   0.675   2.375   0.897  0.7554 -1.4569  0.8660
  564TIP3    H223184   0.785   2.275   0.871  1.2330 -0.4035 -1.4573
  565TIP3   OH223185   2.603   2.712  16.032 -0.4592 -0.6875 -0.1159
  565TIP3    H123186   2.642   2.661  15.960 -0.4958  0.1805 -0.7659
  565TIP3    H223187   2.675   2.768  16.063 -1.2457  1.2936 -1.6580
  566TIP3   OH223188   5.837   2.644  11.807 -0.4657 -0.3141 -0.4068
  566TIP3    H123189   5.800   2.606  11.727 -0.5998 -2.0415  0.4429
  566TIP3    H223190   5.800   2.592  11.878  1.4066 -0.2971  0.6393
  567TIP3   OH223191   2.958   4.050  11.178 -0.7299 -0.5055 -0.0368
  567TIP3    H123192   3.006   3.969  11.196  0.0382  0.0492  0.4893
  567TIP3    H223193   2.987   4.076  11.091 -0.4977 -0.4690  0.0503
  568TIP3   OH223194   0.220   4.863   3.383  0.4386 -0.5415  0.1011
  568TIP3    H123195   0.225   4.910   3.467 -0.2369 -1.1258  0.4836
  568TIP3    H223196   0.294   4.896   3.332  0.1318  0.7438  0.4572
  569TIP3   OH223197   6.270   2.565  12.130  0.1290  0.2970 -0.2448
  569TIP3    H123198   6.206   2.497  12.108 -0.6776  0.9947 -0.0972
  569TIP3    H223199   6.279   2.561  12.225  0.2162  0.2795 -0.2535
  570TIP3   OH223200   5.092   6.225  11.231 -0.0554  0.2645  0.4252
  570TIP3    H123201   5.125   6.203  11.144  1.0646  1.4639  0.5235
  570TIP3    H223202   5.120   6.152  11.287 -1.2506 -0.7783 -0.3015
  571TIP3   OH223203   0.081   6.050   5.909  0.1628 -0.1286 -0.1031
  571TIP3    H123204   0.070   6.102   5.830  2.1170 -0.8661 -0.9384
  571TIP3    H223205   0.172   6.067   5.936 -0.7192  0.8189  2.5490
  572TIP3   OH223206   6.182   2.583   0.745  0.1417 -0.0552 -0.1045
  572TIP3    H123207   6.106   2.613   0.795  0.4415  0.4354  0.0635
  572TIP3    H223208   6.232   2.662   0.728  0.5643 -0.3620 -0.3111
  573TIP3   OH223209   1.846   1.403   3.737 -0.2184 -0.4697 -0.6400
  573TIP3    H123210   1.928   1.393   3.784 -0.4491 -0.3314 -0.1979
  573TIP3    H223211   1.852   1.342   3.663 -0.1411 -1.2005 -0.0369
  574TIP3   OH223212   2.871   0.389  15.567  0.4699 -0.4320 -0.8312
  574TIP3    H123213   2.890   0.440  15.489  1.0129  0.2261 -0.2761
  574TIP3    H223214   2.955   0.378  15.610 -0.1135  1.2207  0.8716
  575TIP3   OH223215   4.213   0.981  11.238 -0.3567  0.6402 -0.2001
  575TIP3    H123216   4.153   1.035  11.290  0.1197  0.1387  0.9195
  575TIP3    H223217   4.196   1.006  11.147 -1.9219  0.8470  0.1220
  576TIP3   OH223218   4.019   4.335   5.321  0.4292  0.3127  0.2788
  576TIP3    H123219   4.066   4.350   5.239  0.8246  1.0556  0.6341
  576TIP3    H223220   3.932   4.372   5.305 -0.1969 -1.4125 -0.5144
  577TIP3   OH223221   5.614   0.489   5.440  0.0655 -0.0660 -0.0891
  577TIP3    H123222   5.690   0.430   5.442 -0.5094 -0.8047  0.3200
  577TIP3    H223223   5.549   0.445   5.494 -0.5737  0.6816 -0.2478
  578TIP3   OH223224   5.344   5.790   5.343  0.0747 -0.1053  0.1580
  578TIP3    H123225   5.283   5.824   5.409  0.4986 -1.4465  1.2799
  578TIP3    H223226   5.365   5.702   5.373  2.0293  0.0730 -0.5781
  579TIP3   OH223227   5.577   4.746   1.234 -0.0135  0.5645 -0.1437
  579TIP3    H123228   5.653   4.691   1.251  0.2685  0.5576 -1.3434
  579TIP3    H223229   5.542   4.715   1.151 -1.3261  0.5895  0.3726
  580TIP3   OH223230   6.724   5.538  11.492 -0.6528 -0.3382 -0.0759
  580TIP3    H123231   6.695   5.453  11.526 -1.0961  0.0901  0.6506
  580TIP3    H223232   6.686   5.543  11.405 -2.6609  0.1157  0.7731
  581TIP3   OH223233   4.635   5.281  12.261  0.2580 -0.5357  0.0862
  581TIP3    H123234   4.548   5.305  12.227  0.3002 -0.1854  0.2271
  581TIP3    H223235   4.622   5.272  12.355  0.0144 -2.0553 -0.0616
  582TIP3   OH223236   4.865   2.462  15.504 -0.1016  0.7968  0.1281
  582TIP3    H123237   4.801   2.424  15.564  0.0335 -0.0410 -0.2476
  582TIP3    H223238   4.835   2.552  15.491 -1.6224  0.2116 -0.6301
  583TIP3   OH223239   2.539   2.836  13.355  0.0311 -0.2465  0.1653
  583TIP3    H123240   2.527   2.831  13.449 -1.7585 -1.9626 -0.1028
  583TIP3    H223241   2.518   2.927  13.333 -2.2087 -0.4688  1.1307
  584TIP3   OH223242   6.232   5.473   6.058  0.0716  0.4579  0.2315
  584TIP3    H123243   6.245   5.456   5.965  0.6233  0.1473  0.3613
  584TIP3    H223244   6.271   5.559   6.072 -1.5017  1.2651 -0.1509
  585TIP3   OH223245   4.675   4.867  16.079 -0.1366  0.4672 -0.6838
  585TIP3    H123246   4.687   4.891  16.171 -0.6689  1.4094 -0.8531
  585TIP3    H223247   4.580   4.868  16.066 -0.1791 -1.3383 -0.8249
  586TIP3   OH223248   0.754   2.147   2.151  0.3592 -0.8671  0.0113
  586TIP3    H123249   0.696   2.220   2.170  1.0866 -0.4356  0.6274
  586TIP3    H223250   0.696   2.079   2.116 -0.1131  0.5302 -2.0953
  587TIP3   OH223251   2.882   1.986   5.226  0.4395  0.3397 -0.4606
  587TIP3    H123252   2.801   2.002   5.274  0.4339  0.5159 -0.5294
  587TIP3    H223253   2.914   1.903   5.261  0.8077  0.8202  0.3504
  588TIP3   OH223254   2.444   3.778  16.695 -0.1099  0.8443  0.0174
  588TIP3    H123255   2.410   3.714  16.758 -2.8215  0.6761 -1.4476
  588TIP3    H223256   2.428   3.863  16.735 -1.1368  0.7103 -0.0703
  589TIP3   OH223257   0.450   3.856  12.960  0.6017 -0.2900  0.4210
  589TIP3    H123258   0.537   3.815  12.963  1.4850  1.4958  0.2293
  589TIP3    H223259   0.391   3.787  12.990  2.0450 -1.6278  0.3367
  590TIP3   OH223260   6.519   5.843  16.568 -0.0157 -0.2765  0.2060
  590TIP3    H123261   6.595   5.797  16.533 -0.1465 -0.3416  0.0075
  590TIP3    H223262   6.511   5.810  16.658  0.3347 -0.0895  0.3075
  591TIP3   OH223263   4.222   0.839  16.377  0.3871 -0.4093  0.2678
  591TIP3    H123264   4.230   0.763  16.435 -0.2692 -0.4413  0.3186
  591TIP3    H223265   4.140   0.826  16.331  0.6185 -0.0827 -0.2421
  592TIP3   OH223266   4.584   3.205   1.081  0.3816 -0.4031 -0.5207
  592TIP3    H123267   4.507   3.174   1.128  0.9723 -2.3584 -0.7518
  592TIP3    H223268   4.554   3.216   0.991  0.8223 -3.4398 -1.1434
  593TIP3   OH223269   3.235   3.831  13.387 -0.2842 -0.3078 -0.0966
  593TIP3    H123270   3.238   3.874  13.473 -2.4803  1.4583 -0.7875
  593TIP3    H223271   3.230   3.737  13.407 -2.3079  0.1274  1.8357
  594TIP3   OH223272   1.561   1.975  15.864  0.3605  0.3523 -0.2894
  594TIP3    H123273   1.562   1.964  15.769  1.0940  1.0774 -0.3747
  594TIP3    H223274   1.474   2.011  15.883  0.8892  2.0201 -0.9108
  595TIP3   OH223275   2.518   3.486  12.290 -0.2480 -0.1852 -0.0454
  595TIP3    H123276   2.604   3.498  12.249 -0.8271  1.1278 -0.9620
  595TIP3    H223277   2.487   3.575  12.305 -2.3182 -0.5456 -1.6622
  596TIP3   OH223278   0.347   2.376  11.141  0.0294  0.3310 -0.0254
  596TIP3    H123279   0.288   2.447  11.165 -0.9651 -0.6980  0.7055
  596TIP3    H223280   0.335   2.366  11.047 -0.1327  0.8629 -0.0650
  597TIP3   OH223281   2.041   5.116  14.918  0.2628 -0.0669 -0.3591
  597TIP3    H123282   1.959   5.108  14.966  1.2660 -0.1867  1.4225
  597TIP3    H223283   2.053   5.211  14.907  0.0741 -0.0358 -0.2930
  598TIP3   OH223284   3.842   4.422   0.677  0.4766  0.5976 -0.4550
  598TIP3    H123285   3.848   4.330   0.704  2.7285  1.0422  0.8044
  598TIP3    H223286   3.867   4.421   0.585  0.8554 -0.0315 -0.3564
  599TIP3   OH223287   6.496   0.888  12.735  0.3643  0.6743  0.5206
  599TIP3    H123288   6.583   0.928  12.725  0.6617 -0.4169 -2.0099
  599TIP3    H223289   6.452   0.905  12.652 -1.3964  0.1101  1.2914
  600TIP3   OH223290   2.617   2.622  14.631 -0.0132  0.8447  0.1109
  600TIP3    H123291   2.572   2.681  14.571 -0.0616  0.5919 -0.1070
  600TIP3    H223292   2.707   2.618  14.598 -0.5793 -1.1080 -1.3788
  601TIP3   OH223293   2.234   6.553   0.452 -0.5640  0.0174 -0.3050
  601TIP3    H123294   2.304   6.615   0.431 -0.5597  0.8794  1.9797
  601TIP3    H223295   2.279   6.479   0.494 -0.9375  0.3679  0.7476
  602TIP3   OH223296   5.140   4.377   4.182 -0.7377 -0.6371 -0.1500
  602TIP3    H123297   5.143   4.371   4.086 -1.6764  1.2349 -0.3394
  602TIP3    H223298   5.176   4.463   4.202 -1.6300 -0.5333  1.1087
  603TIP3   OH223299   5.246   0.344   0.089  0.0519  0.0190 -0.2490
  603TIP3    H123300   5.255   0.335  -0.005 -2.8678 -1.6148 -0.4957
  603TIP3    H223301   5.292   0.425   0.110  2.7101 -0.7128 -2.6785
  604TIP3   OH223302   5.321   3.354  15.444  0.0651  0.7074  0.0428
  604TIP3    H123303   5.293   3.366  15.535 -1.0143  1.4032 -0.3596
  604TIP3    H223304   5.370   3.433  15.423 -1.3145  1.4426 -0.5432
  605TIP3   OH223305   4.622   2.673  10.803  0.0230  0.3863  0.1020
  605TIP3    H123306   4.637   2.600  10.864 -1.5249 -0.2955 -0.2758
  605TIP3    H223307   4.709   2.707  10.785  0.6221 -0.0951  1.8360
  606TIP3   OH223308   3.934   3.744   6.186  0.9676 -0.5783 -0.0626
  606TIP3    H123309   3.936   3.809   6.257 -0.6956 -1.7016  1.1124
  606TIP3    H223310   4.004   3.683   6.208 -0.0480 -1.3777  1.1688
  607TIP3   OH223311   3.147   6.257  10.833 -0.1922 -0.3408  0.3558
  607TIP3    H123312   3.066   6.237  10.880  0.2272 -0.7699  0.9192
  607TIP3    H223313   3.121   6.263  10.741 -0.6511 -1.8222  0.3492
  608TIP3   OH223314   3.037   3.428   0.835 -0.1774 -0.2933  0.2154
  608TIP3    H123315   2.990   3.501   0.877 -0.7187 -0.1589 -0.5929
  608TIP3    H223316   3.129   3.450   0.845 -0.2541 -0.7483  2.1689
  609TIP3   OH223317   3.201   0.503  13.506  0.5961  0.4450  0.0399
  609TIP3    H123318   3.267   0.477  13.441  0.6464  1.6741 -0.4133
  609TIP3    H223319   3.129   0.540  13.454 -0.0427  0.0216  0.5991
  610TIP3   OH223320   6.218   5.715  14.119 -0.0198  0.2405 -0.9220
  610TIP3    H123321   6.228   5.788  14.180  0.3394 -0.7022  0.1902
  610TIP3    H223322   6.138   5.735  14.071  0.3555  1.6212 -1.0230
  611TIP3   OH223323   5.394   1.295   2.918 -0.1049 -0.4353  0.3856
  611TIP3    H123324   5.360   1.328   2.835 -2.1040 -0.2779  1.2120
  611TIP3    H223325   5.375   1.201   2.916 -1.7661 -0.1544  1.3446
  612TIP3   OH223326   4.235   2.270  16.463 -0.1641 -0.8118  0.3379
  612TIP3    H123327   4.222   2.191  16.515  0.2813 -0.2280  1.3568
  612TIP3    H223328   4.215   2.343  16.522  0.1770 -0.1363 -0.3466
  613TIP3   OH223329   3.635   6.634   2.097  0.4082  0.3434 -0.2717
  613TIP3    H123330   3.705   6.688   2.135  0.1298 -0.3314  1.2373
  613TIP3    H223331   3.565   6.636   2.161 -0.3439 -0.3046 -1.0514
  614TIP3   OH223332   3.948   1.119  13.154  0.5023 -0.9959  0.2973
  614TIP3    H123333   3.918   1.197  13.200  1.8624 -0.2299 -0.0663
  614TIP3    H223334   4.016   1.082  13.210  0.3394 -1.5484  0.1399
  615TIP3   OH223335   4.728   4.452   3.695  0.0879  0.3163 -0.0931
  615TIP3    H123336   4.674   4.383   3.732 -0.3790  0.8175  0.1897
  615TIP3    H223337   4.780   4.484   3.769 -0.7419  1.2230  0.1203
  616TIP3   OH223338   6.152   1.652   1.734  0.1182 -0.0294 -0.0293
  616TIP3    H123339   6.150   1.746   1.754  0.5075 -0.3990  1.9900
  616TIP3    H223340   6.071   1.618   1.772  0.9600 -0.8070  1.1590
  617TIP3   OH223341   2.865   5.413  14.505  0.4484 -0.1115 -0.0819
  617TIP3    H123342   2.819   5.331  14.520 -0.9178  0.7869  0.9089
  617TIP3    H223343   2.929   5.418  14.576  1.3432 -0.8308 -0.8096
  618TIP3   OH223344   5.395   3.227  16.275 -0.2956 -0.2157  0.3861
  618TIP3    H123345   5.446   3.147  16.286  0.4578  0.0769 -0.7947
  618TIP3    H223346   5.315   3.212  16.325  0.2125 -1.3562  0.8826
  619TIP3   OH223347   5.531   5.076  11.175 -0.0430 -0.0826 -0.0212
  619TIP3    H123348   5.449   5.049  11.217 -0.4545  1.2016  0.0494
  619TIP3    H223349   5.594   5.007  11.198 -0.6380 -0.1797  1.4499
  620TIP3   OH223350   5.145   6.476  12.446  0.3026 -0.4247  0.0918
  620TIP3    H123351   5.100   6.414  12.389 -1.3254  1.1396 -0.4263
  620TIP3    H223352   5.204   6.524  12.388 -0.5066  0.3796 -0.0950
  621TIP3   OH223353   0.051   2.065  13.070 -0.1191 -0.1714 -0.0696
  621TIP3    H123354   0.094   2.039  12.989 -1.1053  0.6049 -0.8707
  621TIP3    H223355   0.087   2.151  13.091 -1.9161  0.9593 -1.3048
  622TIP3   OH223356   5.026   5.643  15.027 -0.2620 -0.4414  0.3379
  622TIP3    H123357   5.117   5.666  15.010 -0.5372  0.6705  0.2671
  622TIP3    H223358   5.030   5.564  15.081  0.8155  0.9900  2.5107
  623TIP3   OH223359   6.790   0.556  12.706 -0.2714 -0.5882 -0.6180
  623TIP3    H123360   6.712   0.595  12.667 -1.8479 -2.4436  0.4648
  623TIP3    H223361   6.858   0.621  12.694 -2.1181  1.3779 -1.1134
  624TIP3   OH223362   5.640   5.103  15.788 -0.2927  0.4935  0.2543
  624TIP3    H123363   5.692   5.175  15.823 -0.2436  0.2050  0.7958
  624TIP3    H223364   5.668   5.027  15.839 -1.1865  0.3184  0.5022
  625TIP3   OH223365   5.862   1.269  15.232  0.1813 -0.2054  0.2513
  625TIP3    H123366   5.782   1.218  15.223  0.0005  0.1260 -0.0426
  625TIP3    H223367   5.919   1.215  15.287 -0.2710 -0.4048  0.5302
  626TIP3   OH223368   4.214   0.220  14.814 -0.6707  0.4228 -0.3308
  626TIP3    H123369   4.285   0.276  14.781  0.3666 -0.0232  1.0504
  626TIP3    H223370   4.213   0.145  14.755  2.2976 -1.2042  1.4146
  627TIP3   OH223371   1.934   4.608   3.304  0.0467 -0.0641  0.0829
  627TIP3    H123372   1.892   4.617   3.218 -0.0472 -1.6886 -0.0683
  627TIP3    H223373   2.006   4.670   3.302  0.4085 -0.4849 -1.4077
  628TIP3   OH223374   6.306   6.661   0.749 -0.2560 -0.1586 -0.3438
  628TIP3    H123375   6.303   6.641   0.843 -1.6353  1.9407  0.1216
  628TIP3    H223376   6.219   6.637   0.716 -0.7459  1.6797 -0.4710
  629TIP3   OH223377   0.134   3.160  12.253  0.2445  0.9042  0.2303
  629TIP3    H123378   0.162   3.152  12.162  1.6352  1.7015  0.5587
  629TIP3    H223379   0.166   3.246  12.281 -2.0270  1.6357  0.8483
  630TIP3   OH223380   2.364   0.676  13.154  0.1996  0.1723  0.2455
  630TIP3    H123381   2.455   0.647  13.152  0.3895  0.7877 -1.2437
  630TIP3    H223382   2.367   0.764  13.115 -1.2095 -0.3474 -1.0968
  631TIP3   OH223383   3.430   5.356   0.946 -0.3700 -0.2248  0.1113
  631TIP3    H123384   3.428   5.282   1.007  2.8995  0.7348  1.6210
  631TIP3    H223385   3.407   5.431   1.000  0.6433  0.3843 -0.2714
  632TIP3   OH223386   4.411   1.854  10.928  0.4294  0.1439  0.8089
  632TIP3    H123387   4.433   1.761  10.922  0.4156  0.1733  0.1861
  632TIP3    H223388   4.328   1.856  10.975 -0.1654 -0.2614 -0.1702
  633TIP3   OH223389   2.115   3.710  14.945  0.1600 -0.1279 -0.1207
  633TIP3    H123390   2.140   3.732  15.035  0.8770 -0.4878 -0.2256
  633TIP3    H223391   2.087   3.794  14.907 -3.0640 -0.3885  1.2874
  634TIP3   OH223392   4.172   4.037  11.542 -0.4672 -0.3321  0.5873
  634TIP3    H123393   4.137   4.030  11.453  0.1683  0.8764  0.2281
  634TIP3    H223394   4.261   4.002  11.535 -0.1059  0.5734  0.5402
  635TIP3   OH223395   3.601   3.519   3.132  0.7767 -0.1290  0.6430
  635TIP3    H123396   3.522   3.503   3.182  1.7662 -1.0232  1.9870
  635TIP3    H223397   3.633   3.604   3.163  0.7266 -0.1011  0.6179
  636TIP3   OH223398   2.275   0.530   5.464 -0.2444  0.2747  0.1046
  636TIP3    H123399   2.367   0.503   5.458 -0.6260 -1.2853  0.8480
  636TIP3    H223400   2.279   0.617   5.504  0.8146 -1.0857  3.3113
  637TIP3   OH223401   3.214   2.966   1.251  0.0929 -0.3105  0.4816
  637TIP3    H123402   3.144   3.015   1.206  0.4466  0.7186  1.0183
  637TIP3    H223403   3.179   2.950   1.338 -0.2804 -1.6207  0.1102
  638TIP3   OH223404   1.374   3.741   0.600  0.2540  0.2597  0.0139
  638TIP3    H123405   1.380   3.831   0.565 -1.7952 -0.1692 -1.6835
  638TIP3    H223406   1.292   3.707   0.563  1.9834 -3.0463 -1.1412
  639TIP3   OH223407   6.232   2.818   3.787 -0.5043 -0.3654 -0.3315
  639TIP3    H123408   6.278   2.901   3.770  1.4667 -1.5056 -0.9122
  639TIP3    H223409   6.263   2.790   3.873  0.2061 -1.3109 -0.8710
  640TIP3   OH223410   1.751   1.559   2.574 -0.8558  0.3892 -0.0886
  640TIP3    H123411   1.812   1.602   2.634 -0.3497  1.6088 -1.4133
  640TIP3    H223412   1.746   1.618   2.498  0.7373 -2.3285 -2.5278
  641TIP3   OH223413   5.738   0.147   6.769 -0.0691 -0.2589  0.3500
  641TIP3    H123414   5.699   0.065   6.738 -1.5552  0.5170  0.0773
  641TIP3    H223415   5.832   0.129   6.772 -0.4345 -2.3049  1.3512
  642TIP3   OH223416   2.246   5.463  15.021  0.7431 -0.2810  0.0754
  642TIP3    H123417   2.312   5.393  15.016  0.0475 -0.9874  0.4713
  642TIP3    H223418   2.163   5.417  15.014  0.2607  0.4829  0.6708
  643TIP3   OH223419   3.821   5.312  17.057 -0.0349 -1.0106  0.1008
  643TIP3    H123420   3.835   5.307  16.962  1.1332 -0.8392  0.2463
  643TIP3    H223421   3.741   5.262  17.072  0.0302 -1.4503 -0.9134
  644TIP3   OH223422   4.780   3.080  16.093  0.2369 -0.0455  0.2394
  644TIP3    H123423   4.777   3.160  16.042 -0.1950  0.5996  1.2351
  644TIP3    H223424   4.745   3.105  16.179 -0.6077 -1.4615  0.3430
  645TIP3   OH223425   3.001   1.992  14.811  0.1830  0.3153 -0.4422
  645TIP3    H123426   3.087   2.032  14.824  0.1162 -0.1023  1.7353
  645TIP3    H223427   2.942   2.065  14.797  0.1766  1.0838  2.7733
  646TIP3   OH223428   1.389   5.247   3.709  0.3580 -0.0005  0.1995
  646TIP3    H123429   1.339   5.169   3.732  2.3227 -1.0552  1.1995
  646TIP3    H223430   1.425   5.229   3.623 -0.3042  0.4196 -0.1745
  647TIP3   OH223431   2.732   4.754   3.977  0.5178  0.2304  0.5262
  647TIP3    H123432   2.661   4.790   4.031  0.0441 -0.1870  0.1917
  647TIP3    H223433   2.781   4.698   4.037 -1.1871 -1.8241  0.0971
  648TIP3   OH223434   1.411   1.474   2.481  0.5995 -0.3548  0.5012
  648TIP3    H123435   1.323   1.490   2.513 -0.1895  0.2095 -1.7222
  648TIP3    H223436   1.455   1.559   2.486  0.7505 -0.4487  0.8178
  649TIP3   OH223437   4.697   5.745   1.005  0.0979  0.0201 -0.0482
  649TIP3    H123438   4.718   5.657   0.974  0.5741 -0.3679  1.2881
  649TIP3    H223439   4.782   5.786   1.021 -0.1175  0.7515 -0.7030
  650TIP3   OH223440   5.585   4.795  12.872  0.4425 -0.7175  0.0356
  650TIP3    H123441   5.564   4.860  12.805 -0.7458 -1.3185 -0.2054
  650TIP3    H223442   5.606   4.847  12.949 -0.7459 -0.0215 -0.0724
  651TIP3   OH223443   2.894   1.388   3.952  0.2473 -0.2373 -0.5858
  651TIP3    H123444   2.894   1.331   4.029  0.0193 -0.3570 -0.6738
  651TIP3    H223445   2.853   1.469   3.983  1.6876  0.3438 -0.1263
  652TIP3   OH223446   1.557   4.595   2.896  0.0991 -0.5881  0.7151
  652TIP3    H123447   1.542   4.602   2.802 -1.0190 -2.6651  0.6947
  652TIP3    H223448   1.488   4.649   2.935  0.4317  0.0969  0.3886
  653TIP3   OH223449   2.846   3.462  11.503  0.4221  0.7375 -0.3630
  653TIP3    H123450   2.916   3.441  11.441  1.0700 -1.3223  0.9781
  653TIP3    H223451   2.790   3.384  11.503 -1.4986  2.0449 -0.8262
  654TIP3   OH223452   1.727   0.653  14.420  0.1589  0.0958  0.0841
  654TIP3    H123453   1.659   0.610  14.473  2.2530 -1.0035  2.0907
  654TIP3    H223454   1.765   0.582  14.368 -0.8743  0.9028 -1.8686
  655TIP3   OH223455   1.633   3.076   1.930 -0.0865 -0.2763 -0.1678
  655TIP3    H123456   1.567   3.114   1.872 -1.7845 -1.8339  0.6419
  655TIP3    H223457   1.662   2.996   1.885  0.2321 -0.3306  0.1271
  656TIP3   OH223458   0.533   3.121   0.673  0.0668  0.5136  0.1123
  656TIP3    H123459   0.469   3.051   0.687 -1.4124  1.5921 -0.9396
  656TIP3    H223460   0.612   3.075   0.644 -0.0412 -0.8908  1.8329
  657TIP3   OH223461   2.326   1.167  14.289 -0.1762 -0.0547 -0.1816
  657TIP3    H123462   2.255   1.194  14.230 -0.3903 -1.8596 -0.8039
  657TIP3    H223463   2.371   1.097  14.242  2.1706  1.1455  0.1254
  658TIP3   OH223464   4.224   2.444  12.685 -0.1638  0.1655  0.1408
  658TIP3    H123465   4.296   2.460  12.746  0.6875  0.3979 -0.8925
  658TIP3    H223466   4.178   2.368  12.721  0.6418 -0.0244  0.7878
  659TIP3   OH223467   3.397   0.779  16.792 -0.0872  0.2850 -0.3386
  659TIP3    H123468   3.395   0.830  16.873  0.2549  0.5336 -0.4858
  659TIP3    H223469   3.464   0.821  16.739  0.9677 -0.9522 -0.0381
  660TIP3   OH223470   1.380   4.055   3.331  0.1831 -0.4096  0.3829
  660TIP3    H123471   1.312   3.988   3.337  1.3817 -1.6115  0.9585
  660TIP3    H223472   1.441   4.023   3.266 -0.2493  1.1240 -0.8384
  661TIP3   OH223473   2.709   2.350  11.064  0.0982  0.2570  0.0226
  661TIP3    H123474   2.614   2.340  11.066 -0.0452  1.5423  0.5924
  661TIP3    H223475   2.737   2.329  11.153  0.3372 -0.0171 -0.1153
  662TIP3   OH223476   3.265   3.448   3.211  0.1362 -0.0911 -0.1066
  662TIP3    H123477   3.273   3.543   3.222  1.3270  0.5963 -4.7285
  662TIP3    H223478   3.336   3.412   3.264  0.5620  1.7280  0.6367
  663TIP3   OH223479   2.554   3.667  13.269  0.6346 -0.2308 -0.0009
  663TIP3    H123480   2.486   3.628  13.214  0.5624  0.2891 -0.2875
  663TIP3    H223481   2.521   3.754  13.292  1.4201  0.2448 -0.5944
  664TIP3   OH223482   0.846   2.312   6.289 -0.2195  0.2550  0.2648
  664TIP3    H123483   0.928   2.354   6.263  0.5921 -0.5253  1.4596
  664TIP3    H223484   0.872   2.226   6.322 -1.8273 -1.3096 -2.1653
  665TIP3   OH223485   5.663   3.056  15.300 -0.7617  0.3517 -0.2213
  665TIP3    H123486   5.712   3.013  15.229 -1.7048  0.0992 -0.7325
  665TIP3    H223487   5.704   3.142  15.308  2.2196 -1.0898  1.8844
  666TIP3   OH223488   2.381   1.100   6.223  0.5928  0.1658 -0.5195
  666TIP3    H123489   2.433   1.165   6.176  0.9885  0.6119  0.5138
  666TIP3    H223490   2.328   1.151   6.285 -0.5604 -0.3387 -1.0626
  667TIP3   OH223491   1.634   1.994  15.295 -0.2289 -0.0093 -0.2671
  667TIP3    H123492   1.709   2.050  15.275 -0.8534  0.5806 -0.9828
  667TIP3    H223493   1.606   1.960  15.210 -0.2842 -0.8876  0.0827
  668TIP3   OH223494   3.745   0.955   3.944  0.0552  0.4979 -0.4232
  668TIP3    H123495   3.807   0.938   4.015 -0.3802 -0.6039 -0.2928
  668TIP3    H223496   3.761   1.046   3.919  0.9490  0.5633  0.3638
  669TIP3   OH223497   1.554   5.326  11.463 -0.1348  0.0808 -0.4567
  669TIP3    H123498   1.497   5.258  11.426 -0.8020 -0.4691  1.4303
  669TIP3    H223499   1.510   5.408  11.441 -0.4168 -0.2138 -1.0178
  670TIP3   OH223500   4.931   3.766   2.339  0.3453 -0.1415  0.2893
  670TIP3    H123501   4.889   3.748   2.423 -1.3909  0.1351 -0.4804
  670TIP3    H223502   4.861   3.759   2.275  1.1376  1.8329 -0.8966
  671TIP3   OH223503   5.544   1.093   0.360 -0.5946  0.2929  0.2936
  671TIP3    H123504   5.631   1.053   0.367 -0.5126  0.3611 -0.2572
  671TIP3    H223505   5.489   1.044   0.421 -0.2338  0.0671  0.4371
  672TIP3   OH223506   0.697   2.057  11.387 -0.2220  0.1453  0.9982
  672TIP3    H123507   0.682   2.001  11.311 -1.3856 -0.6851  1.7940
  672TIP3    H223508   0.665   2.143  11.361  1.7567  0.5318 -0.3092
  673TIP3   OH223509   2.587   4.561   0.944 -0.5349  0.6472 -0.1950
  673TIP3    H123510   2.590   4.503   0.867 -0.5314  0.9493 -0.4245
  673TIP3    H223511   2.561   4.503   1.016 -1.2535  0.4969 -0.5604
  674TIP3   OH223512   4.299   1.014   0.915 -0.0819 -0.2378 -0.2736
  674TIP3    H123513   4.378   1.060   0.887 -0.0318 -0.9601 -1.3976
  674TIP3    H223514   4.227   1.063   0.875 -0.2790  0.7649  1.2249
  675TIP3   OH223515   0.884   0.151   2.112 -0.1670  0.5607  0.4086
  675TIP3    H123516   0.795   0.166   2.078  0.1205  1.2793 -0.0473
  675TIP3    H223517   0.910   0.235   2.149  0.5760  0.5378 -0.0499
  676TIP3   OH223518   5.997   3.679   4.701  0.2234  0.5942 -0.2849
  676TIP3    H123519   6.002   3.751   4.637 -1.4092 -0.5961 -1.8675
  676TIP3    H223520   5.961   3.719   4.780 -0.5857  1.5383 -1.1049
  677TIP3   OH223521   4.168   1.973  14.745 -0.0392  0.0446  0.0847
  677TIP3    H123522   4.130   1.920  14.815 -0.4755 -1.0518 -0.9314
  677TIP3    H223523   4.108   1.960  14.671 -0.3394  2.2315 -0.1366
  678TIP3   OH223524   3.256   0.702  11.368  0.0879 -0.1765 -0.3753
  678TIP3    H123525   3.213   0.724  11.285  0.6185  1.3443 -0.2697
  678TIP3    H223526   3.297   0.783  11.396  2.4077 -1.3558 -0.0796
  679TIP3   OH223527   4.813   5.924  11.909 -0.3718 -0.0773  0.2677
  679TIP3    H123528   4.905   5.944  11.921 -0.5274  0.1646  1.1093
  679TIP3    H223529   4.768   5.973  11.977 -1.1981  0.4006 -0.5913
  680TIP3   OH223530   4.187   5.513   4.860 -0.3454  0.1953 -0.1274
  680TIP3    H123531   4.234   5.429   4.858 -0.8699 -0.4575  4.3691
  680TIP3    H223532   4.099   5.492   4.827 -0.1537 -0.7413 -0.0686
  681TIP3   OH223533   6.780   5.031  15.049 -0.2062 -0.1286  0.2265
  681TIP3    H123534   6.757   5.067  14.964  0.6348  2.4499  0.9977
  681TIP3    H223535   6.834   4.955  15.029  1.6361  1.5511 -1.6067
  682TIP3   OH223536   2.956   2.615   4.717  0.2006  0.0378 -0.0053
  682TIP3    H123537   2.885   2.586   4.659  0.5672  0.3999 -0.6376
  682TIP3    H223538   3.006   2.535   4.736  0.4617  0.0337 -0.7114
  683TIP3   OH223539   1.698   4.689  13.015  0.3822  0.6162 -0.0970
  683TIP3    H123540   1.657   4.604  13.000  0.7481  0.1974  1.1428
  683TIP3    H223541   1.639   4.752  12.974 -0.3206 -0.1589 -0.3069
  684TIP3   OH223542   5.015   5.757  15.304 -0.4844  0.3241 -0.5587
  684TIP3    H123543   5.026   5.703  15.226 -1.1421  1.3318 -1.3815
  684TIP3    H223544   5.014   5.847  15.271 -2.7808  0.6984  0.3456
  685TIP3   OH223545   3.244   4.236  15.551  0.0426  0.0629  0.2778
  685TIP3    H123546   3.219   4.196  15.635  1.7616 -0.7491  0.4518
  685TIP3    H223547   3.328   4.277  15.569  0.0981  0.4772 -0.8961
  686TIP3   OH223548   4.466   1.847  11.733  0.4314  0.3587 -0.3917
  686TIP3    H123549   4.488   1.820  11.644 -0.4216  1.9438 -1.1222
  686TIP3    H223550   4.470   1.942  11.731 -1.3560  0.5128  0.7746
  687TIP3   OH223551   4.741   4.447  12.325 -0.2731  0.1299  0.0298
  687TIP3    H123552   4.768   4.533  12.294  0.5857  0.0139  0.4393
  687TIP3    H223553   4.820   4.409  12.363 -0.8295 -0.5228  0.5578
  688TIP3   OH223554   1.892   2.338   1.057  0.0066  0.2187 -0.3346
  688TIP3    H123555   1.923   2.359   1.145 -1.0171 -0.8965  0.3234
  688TIP3    H223556   1.797   2.329   1.067 -0.3394  1.7216 -1.9079
  689TIP3   OH223557   1.587   3.318   1.792  0.3225  0.6661  0.4365
  689TIP3    H123558   1.561   3.333   1.701  0.4260 -0.0811  0.2805
  689TIP3    H223559   1.602   3.406   1.827 -1.0660  1.0507  0.1431
  690TIP3   OH223560   3.369   3.043   3.874 -0.1978 -0.0999 -0.3238
  690TIP3    H123561   3.291   3.025   3.822  0.1755  0.7233 -1.1890
  690TIP3    H223562   3.428   2.971   3.853 -0.3742 -0.2305 -0.3759
  691TIP3   OH223563   4.256   4.779   0.335 -0.5944  0.3497 -0.0685
  691TIP3    H123564   4.302   4.861   0.352  0.7779 -0.6178  1.1423
  691TIP3    H223565   4.168   4.793   0.369  0.4415  0.4196  2.8377
  692TIP3   OH223566   3.688   4.073  12.192 -0.2337 -0.4878  0.4771
  692TIP3    H123567   3.738   4.112  12.264 -0.6073 -0.5102  0.7518
  692TIP3    H223568   3.597   4.073  12.223 -0.4710 -0.0375 -0.1887
  693TIP3   OH223569   3.825   4.680   5.433 -0.0279 -0.0934  0.1743
  693TIP3    H123570   3.808   4.726   5.515  0.0268 -0.1231  0.2022
  693TIP3    H223571   3.816   4.588   5.454  0.8366 -0.1479  0.3510
  694TIP3   OH223572   2.831   6.500   1.889  0.8095 -0.1313 -1.1422
  694TIP3    H123573   2.779   6.467   1.963  2.8014 -2.3646 -0.6049
  694TIP3    H223574   2.809   6.593   1.884 -1.9549 -0.6122  0.0395
  695TIP3   OH223575   1.719   2.066  16.904 -0.4183 -0.5229 -0.3110
  695TIP3    H123576   1.794   2.012  16.878 -0.2256 -0.4408  0.0672
  695TIP3    H223577   1.701   2.040  16.994 -1.2197 -0.9653 -0.5928
  696TIP3   OH223578   1.413   4.983  14.454  0.2994  0.2791  0.3148
  696TIP3    H123579   1.496   4.955  14.415  0.5193 -0.0047  0.9777
  696TIP3    H223580   1.362   5.015  14.380  0.8387  0.0586 -0.1622
  697TIP3   OH223581   4.296   6.318   3.908 -0.0650 -0.1709 -0.0796
  697TIP3    H123582   4.304   6.369   3.988  1.8382 -0.9968  0.3142
  697TIP3    H223583   4.245   6.373   3.849 -0.4561  0.9672  1.2611
  698TIP3   OH223584   5.862   3.374  11.740 -0.5905 -0.1978  0.5356
  698TIP3    H123585   5.878   3.436  11.812 -0.4587 -0.2797  0.5785
  698TIP3    H223586   5.825   3.427  11.670  0.7802  0.1999  0.0699
  699TIP3   OH223587   4.112   6.030  15.030 -0.7409 -0.3428 -0.5039
  699TIP3    H123588   4.028   6.002  14.992 -1.3709  0.9309 -0.1190
  699TIP3    H223589   4.099   6.123  15.050  0.5902 -0.2591  0.0712
  700TIP3   OH223590   5.454   6.660   5.790  0.2592 -0.2870  0.0114
  700TIP3    H123591   5.474   6.629   5.701  1.9453 -0.6021  0.4655
  700TIP3    H223592   5.370   6.618   5.811  0.6652 -1.5868 -0.7943
  701TIP3   OH223593   1.701   2.154   0.337 -0.6662 -0.1276 -0.3397
  701TIP3    H123594   1.655   2.236   0.355 -0.5475  0.2513 -1.6161
  701TIP3    H223595   1.633   2.088   0.339 -0.4611 -0.3778  2.7750
  702TIP3   OH223596   2.173   6.391  12.169  0.4244  0.2834  0.6267
  702TIP3    H123597   2.209   6.303  12.183  1.0458  0.4623  0.1875
  702TIP3    H223598   2.249   6.449  12.171  0.6646  0.3394 -3.4746
  703TIP3   OH223599   3.332   4.888  14.183  0.7057  0.3501  0.4472
  703TIP3    H123600   3.297   4.976  14.200 -2.5838 -1.3428  4.0922
  703TIP3    H223601   3.382   4.867  14.262  2.1708 -0.7943 -0.7433
  704TIP3   OH223602   1.405   3.744   1.724 -0.5125  0.3437 -0.6204
  704TIP3    H123603   1.362   3.737   1.810 -1.4947  1.2514 -1.0163
  704TIP3    H223604   1.380   3.830   1.692 -0.8140 -0.2825 -2.1572
  705TIP3   OH223605   3.896   2.638  11.449 -0.0990  0.3028  0.3261
  705TIP3    H123606   3.880   2.727  11.480 -0.4050  0.1205  0.7068
  705TIP3    H223607   3.809   2.603  11.433 -0.0947 -0.5989  2.1049
  706TIP3   OH223608   0.245   2.178   3.210 -0.2660 -0.2403 -0.5692
  706TIP3    H123609   0.305   2.238   3.254 -0.4888  0.0887 -0.7167
  706TIP3    H223610   0.158   2.205   3.239 -0.3123 -1.2101  0.2705
  707TIP3   OH223611   3.398   6.515  17.096  0.0020  0.0592 -1.1680
  707TIP3    H123612   3.307   6.515  17.067 -0.3125  1.5481 -0.3235
  707TIP3    H223613   3.415   6.426  17.126 -0.7264 -0.5877 -2.6213
  708TIP3   OH223614   2.920   0.386   6.341  0.4643  0.2959  0.5061
  708TIP3    H123615   2.921   0.293   6.317  1.9440  0.4615 -0.1851
  708TIP3    H223616   3.010   0.416   6.325 -0.1939  2.0587 -0.1709
  709TIP3   OH223617   3.097   0.420  15.732 -0.0897  0.5888 -0.3158
  709TIP3    H123618   3.168   0.456  15.785  0.4068  1.5854 -1.6227
  709TIP3    H223619   3.054   0.357  15.790  1.7572  0.0590  0.5474
  710TIP3   OH223620   3.350   1.482   3.524  0.1288 -0.2333 -0.0303
  710TIP3    H123621   3.314   1.543   3.460  1.1899  0.6752  0.2082
  710TIP3    H223622   3.420   1.531   3.567  0.1389 -1.1856  1.0855
  711TIP3   OH223623   0.598   2.923   2.201 -0.1307  0.2037 -0.7820
  711TIP3    H123624   0.688   2.899   2.178 -0.7727 -0.3741 -3.0069
  711TIP3    H223625   0.605   3.011   2.236  1.2375  0.5515 -1.8174
  712TIP3   OH223626   1.229   6.129  16.158 -0.0489 -0.2008 -0.2682
  712TIP3    H123627   1.233   6.037  16.186  0.7970 -0.4463 -1.1373
  712TIP3    H223628   1.316   6.147  16.124 -0.0239  1.1285  0.4486
  713TIP3   OH223629   5.539   4.869   1.523  0.0199  0.7727 -0.1874
  713TIP3    H123630   5.516   4.807   1.454  1.0758  2.3770 -2.0767
  713TIP3    H223631   5.457   4.913   1.544 -0.2104  0.6879 -0.8839
  714TIP3   OH223632   1.772   3.605   1.608 -0.4568  0.4040 -0.2212
  714TIP3    H123633   1.681   3.577   1.604 -0.5873  0.7498  0.2068
  714TIP3    H223634   1.768   3.700   1.600 -0.0342  0.3318 -1.4998
  715TIP3   OH223635   0.704   2.488  13.989  0.0670 -0.1151  0.2930
  715TIP3    H123636   0.687   2.564  13.934  0.6563 -0.4775 -0.4095
  715TIP3    H223637   0.657   2.506  14.071  0.5545  1.1847  0.3000
  716TIP3   OH223638   0.475   1.545  11.395  0.5030  0.7060 -0.4810
  716TIP3    H123639   0.484   1.457  11.433  1.0278 -0.2266 -2.6000
  716TIP3    H223640   0.409   1.587  11.449 -1.0582 -1.6217 -0.4086
  717TIP3   OH223641   1.553   3.128   4.218 -0.0293  0.0759 -0.3031
  717TIP3    H123642   1.563   3.088   4.132 -0.2916  1.1427 -0.8482
  717TIP3    H223643   1.642   3.154   4.243 -0.1884  1.6493 -1.2185
  718TIP3   OH223644   1.894   1.745   4.021 -0.0905 -0.4028  0.3479
  718TIP3    H123645   1.834   1.804   4.066  1.6067  1.4260  0.3618
  718TIP3    H223646   1.839   1.697   3.960 -1.6853  0.5870  0.9507
  719TIP3   OH223647   2.094   5.505  11.758 -0.2670 -0.0859  0.0265
  719TIP3    H123648   2.004   5.482  11.781  0.2152 -3.1757 -0.6880
  719TIP3    H223649   2.145   5.426  11.777  2.3930  1.6238  0.6659
  720TIP3   OH223650   1.491   4.202   2.357  0.0926  0.4283 -0.1793
  720TIP3    H123651   1.442   4.269   2.310  0.4954  0.6621 -0.2694
  720TIP3    H223652   1.580   4.236   2.362  0.1138  0.2871  0.5278
  721TIP3   OH223653   4.679   3.072  14.049  0.3242  0.1122 -0.3732
  721TIP3    H123654   4.651   3.021  14.125 -0.8637 -0.6853 -1.3121
  721TIP3    H223655   4.742   3.135  14.084  2.3302 -2.3518  0.7692
  722TIP3   OH223656   5.658   5.111  15.505 -0.2430  0.3835 -0.0164
  722TIP3    H123657   5.678   5.095  15.598 -1.4221 -1.5959 -0.0494
  722TIP3    H223658   5.578   5.062  15.489 -1.4500  2.6653 -1.5155
  723TIP3   OH223659   3.130   1.062  12.407 -0.5190 -0.3368 -0.7017
  723TIP3    H123660   3.163   1.064  12.318 -1.0905  0.2111 -0.9107
  723TIP3    H223661   3.162   0.980  12.443 -0.2782 -0.5571 -1.4081
  724TIP3   OH223662   1.509   1.405   2.822 -0.7022 -0.0595 -0.1915
  724TIP3    H123663   1.560   1.325   2.831 -1.2638 -0.3611  0.3734
  724TIP3    H223664   1.573   1.472   2.801 -0.1938 -0.6047 -0.4064
  725TIP3   OH223665   0.365   0.235   3.851  0.3994  0.3195 -0.3511
  725TIP3    H123666   0.339   0.161   3.906  2.5913  0.0112  0.3813
  725TIP3    H223667   0.424   0.198   3.786  0.9723  1.3090 -0.4199
  726TIP3   OH223668   6.132   0.591   2.369 -0.1980 -0.3264  0.3368
  726TIP3    H123669   6.119   0.682   2.341 -1.9911 -0.2888  1.1569
  726TIP3    H223670   6.212   0.593   2.421 -0.0007  0.7016  0.0208
  727TIP3   OH223671   2.385   1.936   0.355  0.0607 -0.0906 -0.5487
  727TIP3    H123672   2.455   1.872   0.358  0.0559 -0.1049 -0.7452
  727TIP3    H223673   2.382   1.965   0.264  1.6007  1.8946 -0.0389
  728TIP3   OH223674   2.980   3.087  15.612  0.1665 -0.6282  0.1820
  728TIP3    H123675   3.020   3.168  15.580  0.4203 -0.6883  0.3504
  728TIP3    H223676   2.960   3.104  15.704  0.2747 -0.7784  0.2332
  729TIP3   OH223677   0.520   6.833   4.741 -0.1696  0.7238 -0.0526
  729TIP3    H123678   0.439   6.828   4.792 -0.1878  0.1026 -0.1368
  729TIP3    H223679   0.588   6.804   4.801  0.1205  2.0427  0.2796
  730TIP3   OH223680   4.838   0.309  15.414 -0.5909  0.5821 -0.3432
  730TIP3    H123681   4.778   0.263  15.355 -0.4328  0.8347 -0.7080
  730TIP3    H223682   4.782   0.343  15.484 -0.6807 -0.3431  0.0419
  731TIP3   OH223683   3.397   3.639  12.851  0.2906  0.1905  0.6022
  731TIP3    H123684   3.423   3.547  12.847  0.2513  0.1103  1.8309
  731TIP3    H223685   3.327   3.641  12.916  1.0279  1.2508  1.3836
  732TIP3   OH223686   5.506   0.949  16.775  0.1431 -0.0258  0.1348
  732TIP3    H123687   5.536   0.863  16.746 -0.0087  0.1841 -0.6703
  732TIP3    H223688   5.413   0.936  16.795  0.2940 -0.2165  0.7352
  733TIP3   OH223689   4.450   3.170  13.941 -0.1776 -0.0186  0.5766
  733TIP3    H123690   4.527   3.154  13.996 -1.5738  1.3855  3.1462
  733TIP3    H223691   4.420   3.083  13.915  1.1697 -0.6696  1.1457
  734TIP3   OH223692   1.324   1.661   1.360 -0.1590  0.4857 -0.2572
  734TIP3    H123693   1.392   1.647   1.425 -0.5446 -3.1070 -0.4098
  734TIP3    H223694   1.245   1.623   1.399 -1.7143  2.9913 -0.7784
  735TIP3   OH223695   3.122   3.333   3.700 -0.3973  0.2946 -0.0659
  735TIP3    H123696   3.123   3.409   3.641  1.0561 -0.6421 -1.3240
  735TIP3    H223697   3.194   3.350   3.761  0.9633 -0.7563 -1.3250
  736TIP3   OH223698   1.245   1.962  15.244 -0.6049 -0.2603 -0.0337
  736TIP3    H123699   1.309   1.963  15.173 -0.2386 -0.8408  0.2814
  736TIP3    H223700   1.266   2.039  15.296  0.1120 -0.6620  0.2956
  737TIP3   OH223701   0.481   2.062   5.806 -0.1644 -0.1604 -0.1741
  737TIP3    H123702   0.454   2.134   5.748 -0.8696 -0.9715 -0.8895
  737TIP3    H223703   0.401   2.036   5.851 -0.1866 -1.2565 -0.8029
  738TIP3   OH223704   5.213   6.317   2.412 -0.3492 -0.4585  0.2435
  738TIP3    H123705   5.294   6.286   2.373  1.2347  2.6390  0.7875
  738TIP3    H223706   5.238   6.346   2.500 -1.9809  0.8766  0.3152
  739TIP3   OH223707   1.777   5.508   2.738 -0.5309  0.0456  0.1914
  739TIP3    H123708   1.857   5.554   2.713  1.0925 -1.8913  1.4697
  739TIP3    H223709   1.736   5.485   2.655  1.4225 -0.7951 -0.6003
  740TIP3   OH223710   5.478   2.571   5.160 -0.0670 -0.9828 -0.2533
  740TIP3    H123711   5.497   2.512   5.087 -0.2349  0.3972 -1.4679
  740TIP3    H223712   5.519   2.654   5.134 -0.4457 -0.3625  1.0671
  741TIP3   OH223713   4.771   5.900   2.321  0.4118 -0.0475 -0.1814
  741TIP3    H123714   4.860   5.931   2.341  0.5432  0.3507 -1.3350
  741TIP3    H223715   4.739   5.961   2.255 -0.3535 -0.7974 -0.5143
  742TIP3   OH223716   5.979   3.030  13.070 -0.1221 -0.0832  0.5153
  742TIP3    H123717   5.939   2.953  13.109 -0.0023  0.1014  1.0128
  742TIP3    H223718   6.004   3.002  12.982  0.3108 -0.7410  0.8385
  743TIP3   OH223719   3.959   2.943  12.944 -0.6430 -0.0666 -0.0127
  743TIP3    H123720   3.953   2.925  12.850 -0.7687 -1.1188  0.1826
  743TIP3    H223721   3.973   2.857  12.984 -0.7292  0.3513  0.9468
  744TIP3   OH223722   4.578   4.140  11.147 -0.0979  0.1914  0.2917
  744TIP3    H123723   4.489   4.138  11.110 -0.9902  0.4955  2.2991
  744TIP3    H223724   4.622   4.210  11.099 -1.0411  0.2594 -0.5170
  745TIP3   OH223725   4.614   5.519  11.957  0.0909  0.5583 -0.2908
  745TIP3    H123726   4.705   5.516  11.987  0.1392 -0.7390 -0.4881
  745TIP3    H223727   4.573   5.588  12.009  0.9707  0.5607  0.4253
  746TIP3   OH223728   3.088   1.981   3.915  0.3973  0.4405  0.4729
  746TIP3    H123729   3.128   1.974   3.829  0.0854  0.7011  0.3056
  746TIP3    H223730   2.994   1.983   3.898  0.3455  0.9622  0.7800
  747TIP3   OH223731   2.760   1.974   3.395 -0.6752 -0.1574 -0.2228
  747TIP3    H123732   2.679   2.025   3.386 -0.5198 -0.0554 -1.2255
  747TIP3    H223733   2.799   1.976   3.307  1.5935  1.7854  0.7112
  748TIP3   OH223734   3.918   1.337  13.330 -0.0905  0.3809 -0.1259
  748TIP3    H123735   4.003   1.358  13.368  0.2149 -1.9330  0.6289
  748TIP3    H223736   3.855   1.358  13.400  0.2213 -1.2234  0.6849
  749TIP3   OH223737   2.044   6.485   1.755 -0.1228 -0.2771 -0.0502
  749TIP3    H123738   2.001   6.417   1.703  0.8308 -0.5680 -0.4717
  749TIP3    H223739   1.986   6.497   1.830 -0.4756 -1.3251 -0.1302
  750TIP3   OH223740   4.002   3.218   5.908 -0.8048  0.2902 -0.0284
  750TIP3    H123741   4.048   3.297   5.937  0.2928 -0.8671  1.5262
  750TIP3    H223742   3.974   3.175   5.988  2.8251 -3.3401 -0.3554
  751TIP3   OH223743   3.090   6.526  15.894 -0.1131  0.0949 -0.5131
  751TIP3    H123744   3.035   6.472  15.950  1.3096  2.2291  3.2530
  751TIP3    H223745   3.179   6.510  15.925  0.7495  1.4981 -2.0936
  752TIP3   OH223746   3.094   5.140  14.867 -0.2424  0.7660 -0.1862
  752TIP3    H123747   3.030   5.101  14.926 -0.0872 -1.7393 -1.5281
  752TIP3    H223748   3.153   5.189  14.924 -0.8558 -0.4470  1.5825
  753TIP3   OH223749   2.685   1.398  14.945 -0.5007 -0.0426 -0.0747
  753TIP3    H123750   2.646   1.384  15.031 -0.5818 -0.8608 -0.2351
  753TIP3    H223751   2.746   1.470  14.957 -0.6505 -0.0271  0.6197
  754TIP3   OH223752   4.556   6.419   5.209 -0.9709 -0.1102  0.3157
  754TIP3    H123753   4.542   6.461   5.294 -1.1941 -0.1129  0.2805
  754TIP3    H223754   4.643   6.379   5.217 -1.3027 -0.7629  0.8154
  755TIP3   OH223755   5.556   0.830  13.051 -0.2807  0.7656 -0.0678
  755TIP3    H123756   5.585   0.750  13.007  1.0894  0.2818  1.5997
  755TIP3    H223757   5.626   0.851  13.112 -2.7348  0.3260  3.2211
  756TIP3   OH223758   3.676   3.727  12.863  0.7423 -0.1500  0.2712
  756TIP3    H123759   3.583   3.705  12.858 -0.4106  2.5285  4.6586
  756TIP3    H223760   3.701   3.745  12.772 -2.8401 -1.3368 -1.1258
  757TIP3   OH223761   2.729   5.543  12.842 -0.7945 -0.1268  0.0528
  757TIP3    H123762   2.651   5.490  12.862 -0.1900 -0.6140  1.2152
  757TIP3    H223763   2.696   5.615  12.788 -1.8397 -1.0166 -0.5324
  758TIP3   OH223764   4.909   3.626  16.068  0.8284 -0.8412 -0.1692
  758TIP3    H123765   4.925   3.719  16.087  1.4355 -1.2779  1.7748
  758TIP3    H223766   4.895   3.587  16.155 -0.5505 -2.3761 -1.0382
  759TIP3   OH223767   0.544   1.231   1.681 -0.0912 -0.5219 -0.1252
  759TIP3    H123768   0.546   1.326   1.695 -0.3607 -0.6939  1.2894
  759TIP3    H223769   0.542   1.220   1.586 -0.4018  0.8939 -0.3040
  760TIP3   OH223770   6.608   0.715   3.277  0.5979  0.5202 -0.0825
  760TIP3    H123771   6.613   0.796   3.327  1.8829 -0.9585  2.3826
  760TIP3    H223772   6.523   0.678   3.301  0.3298  0.7723 -0.6299
  761TIP3   OH223773   1.890   6.079  12.081  0.1682  0.2635 -0.1904
  761TIP3    H123774   1.913   6.125  12.001 -0.9486  0.1500 -0.5878
  761TIP3    H223775   1.928   5.991  12.071  1.7161  0.8445  0.2774
  762TIP3   OH223776   0.675   3.866   1.137  0.3351 -0.0516 -0.4122
  762TIP3    H123777   0.673   3.771   1.129 -0.0462  0.0305 -1.4276
  762TIP3    H223778   0.640   3.898   1.054 -0.9742  0.9724  0.4858
  763TIP3   OH223779   2.133   4.628  12.234  0.1765  0.7095  0.1224
  763TIP3    H123780   2.113   4.590  12.149  0.6962 -0.7320  0.6178
  763TIP3    H223781   2.210   4.682  12.218 -0.4642  1.4566 -0.5560
  764TIP3   OH223782   1.680   6.709  16.401  1.3168  0.4347 -0.1900
  764TIP3    H123783   1.759   6.690  16.452  0.1526 -1.0564  1.1403
  764TIP3    H223784   1.638   6.781  16.448 -0.3442 -1.6767  1.7699
  765TIP3   OH223785   2.818   2.683  11.712  0.4214 -0.2452 -0.4150
  765TIP3    H123786   2.725   2.686  11.736  0.1311 -1.5984 -1.2771
  765TIP3    H223787   2.847   2.596  11.737  1.8690  0.6194  1.1331
  766TIP3   OH223788   3.913   4.435   1.020 -0.0636 -0.1519  0.4283
  766TIP3    H123789   3.879   4.524   1.028 -0.1395 -0.3030  2.0574
  766TIP3    H223790   3.900   4.396   1.107  0.0162 -1.7361 -0.2305
  767TIP3   OH223791   0.985   2.049   6.302 -0.4595 -0.6223  0.0825
  767TIP3    H123792   0.966   1.961   6.268 -1.2787  0.1715 -1.6729
  767TIP3    H223793   1.075   2.043   6.334  0.3395 -1.5335 -2.1287
  768TIP3   OH223794   2.668   6.301   2.975 -0.4365 -0.1797  0.9575
  768TIP3    H123795   2.706   6.331   2.893  0.4495 -0.1019  1.3829
  768TIP3    H223796   2.584   6.346   2.980  1.7632  4.3892  2.7415
  769TIP3   OH223797   2.018   3.496  13.949  0.2732 -0.3611 -0.4584
  769TIP3    H123798   2.049   3.527  14.034 -0.3229 -1.1977  0.0817
  769TIP3    H223799   1.947   3.435  13.970  0.3143 -0.8074 -1.5428
  770TIP3   OH223800   4.416   0.961  14.106 -0.0061  0.2985  0.4140
  770TIP3    H123801   4.469   0.963  14.026  2.6932  0.5750  2.0798
  770TIP3    H223802   4.413   0.868  14.129 -0.3601  0.2708  0.2568
  771TIP3   OH223803   2.059   1.342   1.715 -0.0622 -0.3343  0.0506
  771TIP3    H123804   2.066   1.338   1.619  0.1969 -1.8591  0.1170
  771TIP3    H223805   2.063   1.251   1.743 -2.9582 -0.1654  1.3285
  772TIP3   OH223806   4.767   3.289   4.474  0.6543 -0.5024  0.0290
  772TIP3    H123807   4.854   3.251   4.485  1.9920  2.2997  0.2556
  772TIP3    H223808   4.754   3.292   4.379  0.6670 -1.1900  0.0026
  773TIP3   OH223809   6.683   5.512   3.301 -0.1135 -0.4534  1.1985
  773TIP3    H123810   6.744   5.532   3.372  1.0776  2.9104 -0.5682
  773TIP3    H223811   6.631   5.591   3.291  0.1975 -0.5293 -2.0156
  774TIP3   OH223812   5.679   4.271   0.119 -0.3751  0.3663  0.4453
  774TIP3    H123813   5.694   4.222   0.200  0.7929 -1.3137 -0.7227
  774TIP3    H223814   5.584   4.268   0.107 -0.4028 -0.9380  0.8393
  775TIP3   OH223815   4.243   5.320   4.177 -0.1826 -0.1242  0.2299
  775TIP3    H123816   4.321   5.346   4.225  0.4825  0.0064 -0.8915
  775TIP3    H223817   4.269   5.242   4.128 -0.9014 -0.3776  0.2393
  776TIP3   OH223818   1.389   0.738   5.761  0.9944 -0.0164 -0.3592
  776TIP3    H123819   1.388   0.799   5.835  2.3516 -0.3514 -0.0481
  776TIP3    H223820   1.364   0.654   5.799  0.5392  0.0471 -0.5134
  777TIP3   OH223821   3.807   1.598   4.425  0.3322 -0.2903  0.3217
  777TIP3    H123822   3.785   1.585   4.517 -1.5034 -1.2366 -0.2075
  777TIP3    H223823   3.889   1.550   4.413  1.8965  1.7660  1.9401
  778TIP3   OH223824   2.133   1.497  16.893  0.7655 -0.3630 -0.0058
  778TIP3    H123825   2.063   1.555  16.922  1.4354  0.3032  0.3058
  778TIP3    H223826   2.134   1.507  16.798  2.1670  1.6933  0.1728
  779TIP3   OH223827   4.172   4.274   5.836  0.7701  0.0458 -0.1979
  779TIP3    H123828   4.094   4.329   5.841  0.9094  0.3018 -0.7387
  779TIP3    H223829   4.223   4.296   5.914  0.3803  0.0025  0.0667
  780TIP3   OH223830   3.058   6.271   1.577  0.3803 -0.0335  0.0797
  780TIP3    H123831   3.129   6.273   1.513  2.9344 -1.6705  2.6136
  780TIP3    H223832   3.013   6.354   1.566  1.3471  0.1980 -3.0278
  781TIP3   OH223833   1.077   5.240   0.309 -0.0409  0.5097 -0.2600
  781TIP3    H123834   1.017   5.227   0.383 -1.1115  0.7213 -1.0801
  781TIP3    H223835   1.142   5.302   0.343  1.3379 -1.7374  1.5253
  782TIP3   OH223836   5.480   3.436  16.820  0.3049  0.4594 -0.2203
  782TIP3    H123837   5.420   3.400  16.755  0.1988 -0.2308  0.2503
  782TIP3    H223838   5.449   3.400  16.903  1.3606  0.1092  0.0347
  783TIP3   OH223839   2.525   5.108  13.312 -0.5568 -0.2280 -0.5616
  783TIP3    H123840   2.546   5.200  13.295 -2.9611  0.0065 -2.7604
  783TIP3    H223841   2.604   5.060  13.285  1.0752  1.1295  1.4197
  784TIP3   OH223842   5.413   2.959   2.570 -0.0367 -0.0421 -0.1598
  784TIP3    H123843   5.486   3.014   2.543 -0.8877  0.7720 -0.8573
  784TIP3    H223844   5.337   3.016   2.565 -0.6192 -0.6347  1.3855
  785TIP3   OH223845   2.895   1.712   4.053  0.9597  0.0902 -0.5586
  785TIP3    H123846   2.841   1.764   4.111  1.6740 -0.5593  0.7356
  785TIP3    H223847   2.963   1.675   4.110  0.3097 -2.4919 -1.3388
  786TIP3   OH223848   1.388   4.433   0.187 -0.2507  0.3145 -0.6546
  786TIP3    H123849   1.314   4.406   0.242  0.7049 -1.8421 -0.3216
  786TIP3    H223850   1.435   4.498   0.240  0.3317 -1.2909  0.9153
  787TIP3   OH223851   1.279   4.463  16.285  0.4273  0.9426 -0.1534
  787TIP3    H123852   1.224   4.525  16.237  0.0507  0.1359 -0.7890
  787TIP3    H223853   1.358   4.456  16.232  0.6565  1.2032  0.1483
  788TIP3   OH223854   4.418   5.252   0.699  0.2397  0.2170  0.0939
  788TIP3    H123855   4.335   5.276   0.658  0.3716 -1.6554 -1.3943
  788TIP3    H223856   4.477   5.324   0.677 -0.6898  1.0526  0.2520
  789TIP3   OH223857   4.890   3.857   3.389 -0.1127 -0.4337 -0.0101
  789TIP3    H123858   4.970   3.805   3.401  0.4342  0.3910  0.0131
  789TIP3    H223859   4.840   3.808   3.323  0.7357 -0.6091 -0.5512
  790TIP3   OH223860   1.754   0.869  13.187 -0.1694 -0.0426 -0.3249
  790TIP3    H123861   1.825   0.889  13.126  1.3441 -1.1397  1.0037
  790TIP3    H223862   1.746   0.948  13.241  2.1100 -0.8805  1.4085
  791TIP3   OH223863   5.271   5.423  11.837 -0.2508  0.4674 -0.6869
  791TIP3    H123864   5.210   5.490  11.868  0.6319  0.8776  0.2057
  791TIP3    H223865   5.225   5.340  11.855  0.1855  0.6854  1.7477
  792TIP3   OH223866   2.047   4.460   5.851 -0.0706 -0.1402  0.0263
  792TIP3    H123867   2.041   4.510   5.932 -2.8207  0.5446 -0.4965
  792TIP3    H223868   2.128   4.489   5.810  0.7122  0.4375  1.9157
  793TIP3   OH223869   3.163   6.734   4.293 -0.2940  0.1333  0.1607
  793TIP3    H123870   3.101   6.807   4.298  0.9790  1.1653  1.5665
  793TIP3    H223871   3.139   6.677   4.366 -1.7331 -1.2997 -1.3400
  794TIP3   OH223872   1.875   1.676   4.514 -0.1388 -0.4884 -0.1544
  794TIP3    H123873   1.897   1.766   4.491 -0.7363 -0.5262 -0.9069
  794TIP3    H223874   1.943   1.649   4.576  0.0681  0.4600  0.0398
  795TIP3   OH223875   1.119   4.432  11.534  0.0389 -0.4035 -0.6377
  795TIP3    H123876   1.186   4.365  11.547  1.6638  0.7926 -2.3863
  795TIP3    H223877   1.096   4.425  11.441 -0.7117  0.6285 -0.5408
  796TIP3   OH223878   3.308   2.077  17.000  0.6609 -0.1324  0.1422
  796TIP3    H123879   3.345   2.083  16.911  2.1252 -0.6081  0.6947
  796TIP3    H223880   3.369   2.022  17.048  0.4133  0.8998  1.7214
  797TIP3   OH223881   3.602   5.565   4.344 -0.1065  0.0639  0.1886
  797TIP3    H123882   3.691   5.587   4.318  0.4560 -3.1285 -0.9648
  797TIP3    H223883   3.548   5.635   4.306  1.5583  0.0086 -2.5376
  798TIP3   OH223884   3.364   3.254   6.754  0.2151  0.2190 -0.5047
  798TIP3    H123885   3.282   3.211   6.730 -0.2163  2.2290 -3.0868
  798TIP3    H223886   3.429   3.184   6.749 -1.3229 -1.5586  2.2352
  799TIP3   OH223887   2.733   2.684   6.866 -0.5011  0.2606  0.0361
  799TIP3    H123888   2.669   2.708   6.933  0.4240  1.0776  0.6431
  799TIP3    H223889   2.766   2.598   6.894  2.8383  2.2445  3.0038
  800TIP3   OH223890   3.580   6.737  14.566  0.4585  0.3191  0.0244
  800TIP3    H123891   3.619   6.672  14.624 -0.9337 -0.7534 -0.1862
  800TIP3    H223892   3.566   6.690  14.484  1.7632  1.6213 -0.9994
  801TIP3   OH223893   4.219   2.373   2.550  0.0227  0.2046  0.2222
  801TIP3    H123894   4.131   2.361   2.585 -0.2158 -1.4662 -0.8129
  801TIP3    H223895   4.245   2.286   2.520  1.6845  0.8305 -0.2957
  802TIP3   OH223896   0.081   0.200  14.625  0.3087  0.6139  0.7634
  802TIP3    H123897   0.038   0.221  14.542  0.5783  1.1400  0.7542
  802TIP3    H223898   0.023   0.136  14.666  0.4001  0.0025 -0.0296
  803TIP3   OH223899   3.634   4.266  17.028  0.1715  0.6223 -0.7605
  803TIP3    H123900   3.586   4.184  17.037  2.3697 -0.5360  1.0374
  803TIP3    H223901   3.650   4.295  17.117 -1.9807  4.0103 -1.2567
  804TIP3   OH223902   6.200   1.061   1.538  0.2377  0.3307  0.2531
  804TIP3    H123903   6.194   1.039   1.631 -2.4997  1.4100  0.4083
  804TIP3    H223904   6.159   0.988   1.492 -1.9855  1.4846  0.2514
  805TIP3   OH223905   0.640   1.367  15.854 -0.4359  0.8561  0.3794
  805TIP3    H123906   0.571   1.397  15.795  1.3154 -0.2894 -2.4414
  805TIP3    H223907   0.720   1.370  15.801  1.1007 -1.1523  2.4026
  806TIP3   OH223908   0.059   0.185   5.567 -0.3191  0.0524 -0.1175
  806TIP3    H123909   0.084   0.111   5.623 -2.8323  0.2591  1.4294
  806TIP3    H223910   0.097   0.164   5.481  2.0187 -1.2378  1.1410
  807TIP3   OH223911   5.557   2.650  13.019  0.9125 -0.2273  0.7934
  807TIP3    H123912   5.543   2.689  12.932 -0.2533 -0.4756  0.8574
  807TIP3    H223913   5.586   2.724  13.073  1.0170  0.0611  0.3564
  808TIP3   OH223914   1.814   2.803   4.973 -0.2296  0.8709 -0.1577
  808TIP3    H123915   1.750   2.769   4.910 -1.1760  2.1659  0.0699
  808TIP3    H223916   1.878   2.850   4.919  0.2133  0.0916 -0.3291
  809TIP3   OH223917   0.752   0.238   4.290  0.1315 -0.2391  0.2504
  809TIP3    H123918   0.841   0.265   4.267  0.9618 -1.5870  1.7329
  809TIP3    H223919   0.740   0.155   4.244 -0.4898  0.0796 -0.1805
  810TIP3   OH223920   2.396   6.144  10.956  0.1065  0.3919 -0.0814
  810TIP3    H123921   2.419   6.237  10.953  3.4237 -0.3062 -0.7837
  810TIP3    H223922   2.327   6.134  10.890 -0.8510  2.4180  0.5324
  811TIP3   OH223923   1.249   0.723  14.155  0.0088  0.2173 -0.1303
  811TIP3    H123924   1.270   0.676  14.236 -0.3741  0.7266  0.2698
  811TIP3    H223925   1.159   0.697  14.134  1.0891 -2.4099 -2.1522
  812TIP3   OH223926   1.456   0.968   3.258 -0.4627  0.3787 -0.3753
  812TIP3    H123927   1.540   0.925   3.265  0.4462  2.2422  1.1465
  812TIP3    H223928   1.460   1.015   3.174 -0.1147  0.2117 -0.4516
  813TIP3   OH223929   5.637   1.207  16.738  0.5365  0.0733  0.5916
  813TIP3    H123930   5.727   1.212  16.771  0.5672  0.1729  0.4948
  813TIP3    H223931   5.612   1.116  16.750  0.7577 -0.0232  0.3446
  814TIP3   OH223932   2.103   6.306  16.238 -0.1127  0.5163 -0.3707
  814TIP3    H123933   2.047   6.382  16.251 -1.3232 -0.7083  2.3402
  814TIP3    H223934   2.166   6.309  16.310  0.9337 -0.1786 -1.2068
  815TIP3   OH223935   1.059   4.907   0.258 -0.8778 -0.0572 -0.6087
  815TIP3    H123936   0.982   4.954   0.289  0.2656  1.4376  0.0830
  815TIP3    H223937   1.129   4.972   0.258  1.0235 -1.9022  1.3215
  816TIP3   OH223938   4.971   5.690   4.538  0.0779  0.1022 -0.1515
  816TIP3    H123939   5.026   5.732   4.472  0.8574 -1.6168 -0.6460
  816TIP3    H223940   5.030   5.633   4.587 -0.8106  0.0767  0.9483
  817TIP3   OH223941   5.091   5.021   6.727 -0.3724  0.3796  0.0358
  817TIP3    H123942   5.056   4.974   6.652  1.1370 -0.7925  0.0248
  817TIP3    H223943   5.061   4.971   6.803 -0.1323  0.3523  0.1130
  818TIP3   OH223944   4.828   2.377   4.924  0.7888 -0.1916 -0.8658
  818TIP3    H123945   4.848   2.448   4.863  0.9748  0.5223  0.0021
  818TIP3    H223946   4.870   2.404   5.006  1.4583 -1.6405 -0.7097
  819TIP3   OH223947   2.239   6.668   6.371 -0.2419  0.3576  0.4128
  819TIP3    H123948   2.333   6.651   6.368 -0.3735 -0.2537 -1.4844
  819TIP3    H223949   2.208   6.615   6.444  1.0783  1.8715  2.1810
  820TIP3   OH223950   3.140   4.844   1.801  0.4232 -0.2295  0.3055
  820TIP3    H123951   3.076   4.787   1.845  0.7014 -0.2091  0.7374
  820TIP3    H223952   3.225   4.803   1.820  0.3692 -2.8251 -3.8451
  821TIP3   OH223953   1.439   1.379  11.112  0.6593  0.5311 -0.3628
  821TIP3    H123954   1.421   1.369  11.018  0.7495 -1.8311 -0.2046
  821TIP3    H223955   1.369   1.329  11.155  1.9003 -0.3861  0.6940
  822TIP3   OH223956   4.887   4.664   2.113  0.8546 -0.0688  0.8058
  822TIP3    H123957   4.876   4.675   2.018  0.2162 -0.6974  0.8059
  822TIP3    H223958   4.938   4.583   2.122 -1.4469 -1.5674  1.0690
  823TIP3   OH223959   5.298   5.880   0.333 -0.4850  0.7361 -0.4290
  823TIP3    H123960   5.216   5.832   0.342 -0.9270  1.4500 -0.5759
  823TIP3    H223961   5.272   5.972   0.323  0.2843  0.8794 -1.3097
  824TIP3   OH223962   2.161   4.354  15.315 -0.0800  0.3841  0.6543
  824TIP3    H123963   2.167   4.313  15.402 -2.1927 -2.2199 -0.2685
  824TIP3    H223964   2.193   4.286  15.255 -1.6942  0.8632 -0.8246
  825TIP3   OH223965   1.662   4.647  16.128 -0.6967  0.0837  0.1152
  825TIP3    H123966   1.605   4.676  16.199 -0.7503  0.8428 -0.2343
  825TIP3    H223967   1.675   4.554  16.145 -0.9230  0.1991  0.9703
  826TIP3   OH223968   6.069   3.598   6.098 -0.6616 -0.4004  0.1981
  826TIP3    H123969   6.031   3.686   6.095  0.4408  0.3229  3.3906
  826TIP3    H223970   6.003   3.544   6.141 -0.2670 -0.4396  0.7702
  827TIP3   OH223971   5.319   2.870  14.003 -0.4587  0.0876 -0.2939
  827TIP3    H123972   5.392   2.890  14.062 -1.0015  1.5534 -0.0663
  827TIP3    H223973   5.257   2.820  14.056 -0.2201 -0.0000 -0.0976
  828TIP3   OH223974   2.338   3.350  13.332  1.0272  0.3750  0.4779
  828TIP3    H123975   2.288   3.356  13.250 -1.0240 -1.3286  1.5048
  828TIP3    H223976   2.331   3.437  13.371 -0.2801  0.4572  0.0904
  829TIP3   OH223977   6.534   2.638   2.619  0.3166  0.8481 -0.0592
  829TIP3    H123978   6.483   2.668   2.544  2.2683 -0.5171 -2.0329
  829TIP3    H223979   6.490   2.558   2.647 -0.2713  1.2281  0.1246
  830TIP3   OH223980   6.427   1.005  13.806 -0.0231  0.2141 -0.7771
  830TIP3    H123981   6.453   0.964  13.724 -0.1527 -2.4801  0.4037
  830TIP3    H223982   6.433   0.934  13.871 -1.7893  1.7185  1.1692
  831TIP3   OH223983   3.062   0.484  12.464  0.0900  0.0056  0.3619
  831TIP3    H123984   3.120   0.524  12.529 -1.2797  1.5181  0.7439
  831TIP3    H223985   2.976   0.481  12.508 -1.2226  2.4050 -1.7250
  832TIP3   OH223986   2.369   4.555   3.071  0.0619 -0.1685 -0.4593
  832TIP3    H123987   2.394   4.607   3.148 -0.4998  0.7501 -0.8807
  832TIP3    H223988   2.280   4.584   3.050  0.3955 -0.0185 -1.7638
  833TIP3   OH223989   6.794   6.714   0.179  0.2590  0.2638  0.2482
  833TIP3    H123990   6.822   6.792   0.132  2.5566 -0.8853 -0.4476
  833TIP3    H223991   6.728   6.674   0.123  0.4987  0.6779 -0.3324
  834TIP3   OH223992   3.352   2.853   5.310 -0.6714 -0.4712 -0.3911
  834TIP3    H123993   3.398   2.797   5.372 -1.7220  0.6250  1.4407
  834TIP3    H223994   3.262   2.821   5.310 -1.0737  0.6254 -0.0156
  835TIP3   OH223995   2.231   3.268  13.067  0.3207 -0.0824 -0.5773
  835TIP3    H123996   2.142   3.295  13.045  0.2840 -0.2836 -0.6774
  835TIP3    H223997   2.224   3.175  13.086  0.4285  0.0022 -0.1195
  836TIP3   OH223998   5.456   4.803  16.793  0.0257  0.1567  0.4729
  836TIP3    H123999   5.529   4.774  16.737 -1.1456 -0.9973 -0.5402
  836TIP3    H224000   5.382   4.812  16.733 -0.4934  2.1450  1.3353
  837TIP3   OH224001   2.659   3.231  11.452  0.2119 -0.2916  0.1730
  837TIP3    H124002   2.595   3.296  11.480 -0.2861 -0.5539 -0.3140
  837TIP3    H224003   2.632   3.150  11.497  2.0516  0.2517  2.4340
  838TIP3   OH224004   3.319   1.619   0.155 -0.2515  0.6703 -0.3212
  838TIP3    H124005   3.359   1.536   0.128 -1.7431  0.1049 -0.8755
  838TIP3    H224006   3.278   1.653   0.075 -2.5826  0.2352  0.6146
  839TIP3   OH224007   3.070   2.748  11.844  0.0175  0.7765  0.6646
  839TIP3    H124008   3.092   2.814  11.780  0.9759  0.1117  0.2797
  839TIP3    H224009   2.975   2.737  11.837  0.2359 -0.1386 -1.5000
  840TIP3   OH224010   3.101   5.689   1.579 -0.3444 -0.2208  0.0338
  840TIP3    H124011   3.151   5.741   1.516  0.2452 -0.9496 -0.1124
  840TIP3    H224012   3.079   5.609   1.532 -1.5802  0.0323  0.1309
  841TIP3   OH224013   1.245   5.743   0.771 -0.3753  0.2865  0.0163
  841TIP3    H124014   1.169   5.730   0.713  0.1267 -2.1341 -0.2115
  841TIP3    H224015   1.311   5.785   0.715 -0.2498 -1.0959 -0.9220
  842TIP3   OH224016   1.051   2.137   3.092  0.4359  0.1058  0.2251
  842TIP3    H124017   1.083   2.119   3.004  0.7027  0.0946  0.3238
  842TIP3    H224018   1.125   2.179   3.137  0.9822 -1.6302  1.0380
  843TIP3   OH224019   2.128   0.647  14.441 -0.1323 -0.0413 -0.6217
  843TIP3    H124020   2.164   0.607  14.361 -2.0394  0.2207 -1.6734
  843TIP3    H224021   2.111   0.573  14.499  2.1756 -0.1565 -0.0232
  844TIP3   OH224022   3.649   1.528   5.230 -0.9077  0.4581 -0.3691
  844TIP3    H124023   3.734   1.484   5.237 -2.0040 -1.4828  2.1216
  844TIP3    H224024   3.626   1.520   5.138  2.1602  2.2830 -1.4530
  845TIP3   OH224025   1.420   1.502   0.261  0.0301  0.1550 -0.0701
  845TIP3    H124026   1.348   1.471   0.207 -0.8680  0.8240  0.7076
  845TIP3    H224027   1.463   1.423   0.292  1.5915 -0.2914 -2.9929
  846TIP3   OH224028   5.636   1.718  12.211  1.1188 -0.4118  0.3307
  846TIP3    H124029   5.556   1.673  12.239  0.8352  0.4189  0.9072
  846TIP3    H224030   5.619   1.742  12.120  0.8835 -0.6179  0.3189
  847TIP3   OH224031   1.672   3.587   5.241 -0.1314 -0.2409  0.4593
  847TIP3    H124032   1.764   3.583   5.266 -0.2106 -0.0786  0.7844
  847TIP3    H224033   1.634   3.505   5.274  0.1380 -0.8638 -0.7036
  848TIP3   OH224034   4.498   1.339  11.122  0.2799 -0.4115  0.3038
  848TIP3    H124035   4.543   1.255  11.127 -2.3228 -1.9215  0.3962
  848TIP3    H224036   4.485   1.364  11.214  0.4923 -0.2210  0.2828
  849TIP3   OH224037   5.807   0.914   0.832 -0.0279  0.4460  0.1850
  849TIP3    H124038   5.845   0.934   0.917  0.2720  0.8734 -0.0460
  849TIP3    H224039   5.856   0.839   0.799  0.0901  0.5034  0.2327
  850TIP3   OH224040   1.310   0.082  16.925 -0.6994 -0.5057 -0.4841
  850TIP3    H124041   1.225   0.128  16.927  0.9971  3.0281 -1.4850
  850TIP3    H224042   1.316   0.040  17.010 -1.7051  2.7971  1.3901
  851TIP3   OH224043   4.915   6.059   3.990 -0.0393 -0.4359  0.2233
  851TIP3    H124044   4.882   5.970   3.995  0.0045 -0.4420  0.3972
  851TIP3    H224045   4.902   6.085   3.899 -0.7910 -0.3378  0.3572
  852TIP3   OH224046   5.949   2.049   5.852  0.2599 -0.1925 -0.0111
  852TIP3    H124047   6.031   2.002   5.866  0.7050  0.8527  1.0573
  852TIP3    H224048   5.974   2.141   5.846 -0.8026  0.1169 -0.0311
  853TIP3   OH224049   2.597   5.868   2.518  0.1136 -0.2529 -0.0148
  853TIP3    H124050   2.567   5.877   2.608  0.2578  0.8740 -0.0709
  853TIP3    H224051   2.557   5.942   2.472 -0.8330 -1.3908 -1.1240
  854TIP3   OH224052   2.224   2.759   1.669  0.3868 -0.0438  0.2339
  854TIP3    H124053   2.267   2.687   1.716 -0.3172 -0.7197 -0.1201
  854TIP3    H224054   2.141   2.721   1.640  0.9730  0.2004 -1.9197
  855TIP3   OH224055   5.328   0.693  12.805  0.2954 -0.0915  0.3507
  855TIP3    H124056   5.235   0.668  12.803  0.3088 -0.3599  1.7999
  855TIP3    H224057   5.375   0.610  12.798  0.4030 -0.0812  0.9264
  856TIP3   OH224058   4.443   1.508   1.801 -0.4532 -0.0472 -0.3498
  856TIP3    H124059   4.457   1.445   1.872 -0.6735  0.9795  0.6222
  856TIP3    H224060   4.398   1.457   1.733 -0.5968 -0.9515  0.3954
  857TIP3   OH224061   1.999   5.805  16.172  0.0796  0.2482  0.4871
  857TIP3    H124062   2.069   5.806  16.108  0.5724 -1.1112  0.9609
  857TIP3    H224063   1.983   5.897  16.192 -0.0212  0.7014 -1.4750
  858TIP3   OH224064   0.773   2.190  16.128 -0.4676 -0.2349 -0.1935
  858TIP3    H124065   0.691   2.235  16.108 -1.1100 -0.7105  1.2705
  858TIP3    H224066   0.780   2.193  16.223  1.6798  0.5734 -0.3275
  859TIP3   OH224067   0.761   4.765   0.475 -0.3142  0.0481  0.3336
  859TIP3    H124068   0.704   4.794   0.404 -0.8126 -1.1891  0.2162
  859TIP3    H224069   0.732   4.816   0.551 -1.6279 -0.6064  0.2874
  860TIP3   OH224070   0.016   4.228   0.935  0.4398  0.1804 -0.4773
  860TIP3    H124071  -0.012   4.136   0.936 -1.8618  0.7972  0.8818
  860TIP3    H224072   0.069   4.237   1.014 -1.1933  0.4453  0.6520
  861TIP3   OH224073   5.494   5.795  10.983  0.0782  0.3899  0.2316
  861TIP3    H124074   5.562   5.846  10.940  0.3391 -0.7625 -0.7803
  861TIP3    H224075   5.456   5.740  10.913 -1.7301  0.8197  0.8117
  862TIP3   OH224076   0.287   6.589   2.503  0.3797  0.0716 -0.8155
  862TIP3    H124077   0.234   6.525   2.551 -0.8689  1.6734  0.0655
  862TIP3    H224078   0.356   6.613   2.564 -1.9238  3.0426  0.8952
  863TIP3   OH224079   3.500   2.173   3.682  0.6077  0.9099  0.2512
  863TIP3    H124080   3.448   2.253   3.677 -0.4347  0.2130 -0.5564
  863TIP3    H224081   3.467   2.128   3.761 -1.0587 -0.1880 -1.0073
  864TIP3   OH224082   1.814   0.135  16.345 -0.0799 -0.3737 -0.1241
  864TIP3    H124083   1.748   0.180  16.398  1.0601  0.7854  0.3792
  864TIP3    H224084   1.874   0.097  16.410 -0.7017 -2.2301 -0.5481
  865TIP3   OH224085   1.026   3.951  14.602 -0.6496 -0.6784 -0.1777
  865TIP3    H124086   1.081   4.028  14.589 -0.7959 -0.6815 -0.8648
  865TIP3    H224087   0.960   3.979  14.666 -1.0768 -0.0301 -0.8841
  866TIP3   OH224088   1.695   0.710   1.043  0.1660 -0.5095  0.2835
  866TIP3    H124089   1.675   0.797   1.009 -0.4145 -0.1409  1.5097
  866TIP3    H224090   1.737   0.665   0.970 -0.8019  0.3196 -0.8173
  867TIP3   OH224091   4.147   3.554   6.239  1.0254 -0.1689  0.3492
  867TIP3    H124092   4.188   3.491   6.299  0.8533  0.6068  1.2962
  867TIP3    H224093   4.183   3.639   6.265 -0.7401  0.4620  0.8197
  868TIP3   OH224094   4.136   2.369   3.542  0.0348 -0.6684 -0.0245
  868TIP3    H124095   4.129   2.298   3.605 -1.0611 -0.7667 -0.2382
  868TIP3    H224096   4.201   2.429   3.580 -0.6446 -0.6893  1.2363
  869TIP3   OH224097   0.117   1.881   2.599  0.0133  0.2898 -0.6129
  869TIP3    H124098   0.038   1.832   2.579  0.5340 -0.6245 -0.4640
  869TIP3    H224099   0.101   1.968   2.563 -1.0828  0.1362 -0.5218
  870TIP3   OH224100   3.097   5.616   4.253 -0.0304 -0.1493  0.5444
  870TIP3    H124101   3.106   5.694   4.307  2.2469 -1.7162  2.6762
  870TIP3    H224102   3.008   5.585   4.269 -1.3323  2.3941 -1.1016
  871TIP3   OH224103   2.420   6.346  12.342  0.6582  0.0752  0.2790
  871TIP3    H124104   2.436   6.330  12.435 -1.1513  0.6870  0.7450
  871TIP3    H224105   2.495   6.307  12.298  2.5232  1.4267  2.0848
  872TIP3   OH224106   6.793   5.466  12.504  0.1805 -0.4679 -0.1077
  872TIP3    H124107   6.827   5.555  12.505  0.3961 -0.5051 -1.7494
  872TIP3    H224108   6.865   5.413  12.540  0.4723 -0.1136 -0.1590
  873TIP3   OH224109   6.159   2.130  16.757 -0.6694  0.3401 -0.1655
  873TIP3    H124110   6.094   2.086  16.703 -1.4768  1.7367 -0.3918
  873TIP3    H224111   6.241   2.124  16.707 -0.6202 -1.3459  0.0779
  874TIP3   OH224112   6.627   4.918  10.691  0.3767  0.5408 -0.4792
  874TIP3    H124113   6.577   4.839  10.711 -0.3833  0.8058 -1.2846
  874TIP3    H224114   6.700   4.916  10.753  0.0015 -0.4428 -0.0457
  875TIP3   OH224115   4.038   6.583  12.713  0.3784  0.0334  0.0459
  875TIP3    H124116   4.031   6.516  12.646  0.3998 -0.4141  0.4857
  875TIP3    H224117   4.074   6.537  12.789 -0.7068  0.2877  0.7280
  876TIP3   OH224118   6.812   0.153  13.465  0.6198 -0.5170  0.0558
  876TIP3    H124119   6.788   0.160  13.558 -4.8272 -0.4548 -1.0578
  876TIP3    H224120   6.812   0.059  13.447 -1.0467 -0.4772 -0.3275
  877TIP3   OH224121   1.125   0.077   3.504  0.6769 -0.2696 -0.1718
  877TIP3    H124122   1.205   0.092   3.454  2.2637 -0.2851  2.1804
  877TIP3    H224123   1.110   0.159   3.551 -0.9889 -0.1119 -0.9280
  878TIP3   OH224124   2.921   2.822   2.941 -0.1947  0.0965 -0.3546
  878TIP3    H124125   2.830   2.816   2.912  0.2851 -0.5944 -1.7659
  878TIP3    H224126   2.952   2.905   2.905 -0.5443  0.8843  1.0515
  879TIP3   OH224127   4.400   6.595  12.545 -0.1860 -0.3422  1.0199
  879TIP3    H124128   4.362   6.629  12.464  1.6870  0.7389  0.5367
  879TIP3    H224129   4.347   6.634  12.615  0.3152  1.5708  0.3823
  880TIP3   OH224130   5.449   4.025   3.780 -0.6097  0.1989 -0.2281
  880TIP3    H124131   5.525   4.019   3.838  1.5529 -0.0687 -2.8566
  880TIP3    H224132   5.442   4.118   3.758 -0.5131  0.1235 -0.5950
  881TIP3   OH224133   5.217   0.515   2.564 -0.3206 -0.4529  0.5896
  881TIP3    H124134   5.296   0.466   2.585 -0.5684 -0.8222  0.6789
  881TIP3    H224135   5.194   0.488   2.474  0.2519  0.4670  0.1519
  882TIP3   OH224136   1.891   1.697  13.571  0.6648  0.1910 -0.5679
  882TIP3    H124137   1.851   1.650  13.497 -0.4339 -1.1810  0.8153
  882TIP3    H224138   1.822   1.757  13.600  1.0228  0.5893 -0.5442
  883TIP3   OH224139   4.572   6.795  11.955 -0.2167 -0.1537  0.0578
  883TIP3    H124140   4.626   6.794  12.034  0.6191 -0.5293 -0.5028
  883TIP3    H224141   4.489   6.757  11.982 -0.1369  0.2328  0.8836
  884TIP3   OH224142   0.428   1.954   0.684 -0.6318  0.2798 -0.1415
  884TIP3    H124143   0.521   1.975   0.687 -0.8591  1.4814 -0.9256
  884TIP3    H224144   0.418   1.879   0.743  0.6750  0.7167  0.6603
  885TIP3   OH224145   4.730   1.581   5.506  0.7416  0.4700  0.2099
  885TIP3    H124146   4.679   1.604   5.428 -0.5235 -1.7639  0.3117
  885TIP3    H224147   4.751   1.489   5.495 -4.0068 -1.6640  4.6991
  886TIP3   OH224148   2.489   2.288   0.480 -0.5049  0.2962 -0.2383
  886TIP3    H124149   2.572   2.250   0.451 -1.1209 -1.0134 -0.3948
  886TIP3    H224150   2.449   2.322   0.400 -0.4512  0.2540 -0.2833
  887TIP3   OH224151   0.526   1.615  16.292  0.8270 -0.0205  0.7162
  887TIP3    H124152   0.587   1.612  16.219 -0.3918  0.2538 -0.3496
  887TIP3    H224153   0.471   1.538  16.282 -0.7153  1.1082  0.0732
  888TIP3   OH224154   3.865   2.875  15.264 -0.1461  0.2991  0.4764
  888TIP3    H124155   3.958   2.875  15.288  0.6261  0.6000 -2.2228
  888TIP3    H224156   3.835   2.963  15.284 -0.5750 -0.4583  3.6279
  889TIP3   OH224157   3.151   6.555  12.315  0.3491 -0.0229 -0.7425
  889TIP3    H124158   3.239   6.521  12.332  0.7713  0.9045 -1.0205
  889TIP3    H224159   3.154   6.645  12.346  0.0980  0.6251 -2.4987
  890TIP3   OH224160   6.215   6.344   3.603  0.1009 -0.1983 -0.3123
  890TIP3    H124161   6.230   6.432   3.567 -1.2314  0.6613  1.1124
  890TIP3    H224162   6.121   6.341   3.620  0.1560 -1.8618 -0.1641
  891TIP3   OH224163   6.828   1.449   1.267 -0.2142 -0.2222  0.4073
  891TIP3    H124164   6.812   1.543   1.263 -0.9780 -0.3456  0.4953
  891TIP3    H224165   6.803   1.417   1.180 -1.7835 -0.6116  0.9729
  892TIP3   OH224166   0.529   3.876   5.782  0.1792  0.1157 -0.2774
  892TIP3    H124167   0.462   3.907   5.843 -0.2164  0.3825 -0.8385
  892TIP3    H224168   0.548   3.787   5.811 -2.8040 -1.2532 -2.0216
  893TIP3   OH224169   2.208   6.801   3.445 -0.0577 -0.1186 -1.0403
  893TIP3    H124170   2.123   6.765   3.468 -1.0140  1.4327 -2.0051
  893TIP3    H224171   2.271   6.734   3.472 -1.5716 -1.2777 -0.2952
  894TIP3   OH224172   3.674   3.082   4.737 -0.0154 -0.1440  0.5453
  894TIP3    H124173   3.585   3.063   4.710 -0.2397 -0.5142  1.5117
  894TIP3    H224174   3.666   3.120   4.824  0.8090 -0.8108  0.9304
  895TIP3   OH224175   1.530   3.134   5.017 -0.6095 -0.9591  0.0051
  895TIP3    H124176   1.462   3.150   4.952  0.2576 -0.9712 -0.9447
  895TIP3    H224177   1.612   3.153   4.971 -0.0297  0.6583  1.6104
  896TIP3   OH224178   6.144   4.027  15.983  0.1774  0.5800  0.5144
  896TIP3    H124179   6.155   3.940  15.946  1.9974  0.2927  1.6240
  896TIP3    H224180   6.064   4.022  16.035 -0.5250  0.0162 -0.6079
  897TIP3   OH224181   1.422   5.272   0.242 -0.3091  0.6495  0.2184
  897TIP3    H124182   1.489   5.333   0.210  0.4529  0.1432  0.8097
  897TIP3    H224183   1.383   5.318   0.317  1.3451 -0.1693  1.6669
  898TIP3   OH224184   3.244   3.994  15.414 -0.4573 -0.1841 -0.1656
  898TIP3    H124185   3.245   4.085  15.445 -2.9760  0.1471 -0.8196
  898TIP3    H224186   3.274   3.943  15.488 -0.2357  1.0954  0.6593
  899TIP3   OH224187   2.333   6.515   3.428 -0.2611 -0.6787  0.5421
  899TIP3    H124188   2.424   6.500   3.451 -0.6172 -0.9012  1.9157
  899TIP3    H224189   2.293   6.428   3.427 -0.0456 -0.8339 -2.1753
  900TIP3   OH224190   3.967   2.854   5.060  0.3402 -0.0456  0.1881
  900TIP3    H124191   3.936   2.773   5.099  0.6254 -0.5819 -0.6591
  900TIP3    H224192   3.970   2.835   4.966  1.0411  0.7327  0.0434
  901TIP3   OH224193   1.493   0.901  10.839 -0.0218 -0.3660 -0.4751
  901TIP3    H124194   1.443   0.964  10.892  1.8079 -0.8685  2.0759
  901TIP3    H224195   1.431   0.831  10.819 -0.5256 -0.8878  2.4021
  902TIP3   OH224196   2.945   1.222   5.935 -0.1708  0.4835 -0.7991
  902TIP3    H124197   2.890   1.298   5.953  0.0247  0.5715 -0.5680
  902TIP3    H224198   3.025   1.238   5.986 -0.0705  0.1956 -0.8668
  903TIP3   OH224199   0.294   0.956  16.312 -0.1078 -0.0134  0.7926
  903TIP3    H124200   0.334   0.953  16.225 -0.6339  3.8318  0.2620
  903TIP3    H224201   0.299   0.866  16.343  0.2432 -1.5529 -3.1303
  904TIP3   OH224202   4.364   0.627  16.562 -0.1297  0.0700  0.4334
  904TIP3    H124203   4.334   0.599  16.648 -0.8462 -0.8839 -0.1108
  904TIP3    H224204   4.386   0.546  16.516 -2.0183  0.3619 -1.0926
  905TIP3   OH224205   1.064   3.459  13.043  0.6747  0.0318 -0.8640
  905TIP3    H124206   1.133   3.394  13.052  0.0066 -0.6076 -0.2349
  905TIP3    H224207   1.011   3.428  12.970  0.9237  0.4041 -1.2053
  906TIP3   OH224208   0.161   4.749   3.746  0.1092  0.7325  0.4834
  906TIP3    H124209   0.162   4.830   3.695 -0.7943  0.2863 -0.2748
  906TIP3    H224210   0.225   4.764   3.816  0.8555  1.6237 -0.3612
  907TIP3   OH224211   5.185   5.274   1.245  0.5467 -0.7678 -0.0824
  907TIP3    H124212   5.239   5.235   1.313 -0.0035 -1.9929 -0.3254
  907TIP3    H224213   5.193   5.215   1.170  0.5892  0.1840 -0.8555
  908TIP3   OH224214   6.317   5.583   2.405  0.6068 -0.1072 -0.2950
  908TIP3    H124215   6.349   5.556   2.491  0.3890 -0.3497 -0.2910
  908TIP3    H224216   6.344   5.512   2.346  0.0131 -0.3527 -0.2798
  909TIP3   OH224217   1.861   4.113  14.473  0.1004  0.4227  0.1348
  909TIP3    H124218   1.873   4.133  14.380  0.1482  0.4349  0.1440
  909TIP3    H224219   1.926   4.166  14.518 -0.6296  1.2281  0.2604
  910TIP3   OH224220   1.547   5.715   1.625  0.2155 -0.2065  0.3874
  910TIP3    H124221   1.600   5.727   1.547  1.0700  1.6890  1.1929
  910TIP3    H224222   1.550   5.621   1.643  1.1724 -0.4662 -1.0367
  911TIP3   OH224223   4.216   2.135  14.008 -0.3215 -0.3205  0.1042
  911TIP3    H124224   4.187   2.225  13.998 -0.1391 -0.3662 -0.9318
  911TIP3    H224225   4.312   2.141  14.012 -0.3524 -0.2675  2.4652
  912TIP3   OH224226   3.334   1.348   2.624  0.3219 -0.6923  0.0139
  912TIP3    H124227   3.415   1.368   2.671 -0.3749  2.3418  0.1250
  912TIP3    H224228   3.355   1.367   2.532 -0.0497 -0.5496 -0.0425
  913TIP3   OH224229   3.515   1.759  11.209  0.3923  0.1846 -0.2916
  913TIP3    H124230   3.479   1.675  11.237  0.8095  0.2632  0.5064
  913TIP3    H224231   3.440   1.807  11.174  0.4979 -1.3626 -2.9650
  914TIP3   OH224232   1.520   4.088  11.410  0.4317  0.2775  0.2183
  914TIP3    H124233   1.610   4.067  11.383  0.9005  1.6859  0.5720
  914TIP3    H224234   1.521   4.077  11.505  0.2743  0.4502  0.2398
  915TIP3   OH224235   3.441   3.924  16.194  0.3956 -0.5349 -0.1288
  915TIP3    H124236   3.428   3.987  16.124 -1.6113  1.5466  1.9527
  915TIP3    H224237   3.523   3.952  16.237 -0.5665  0.8466  0.8808
  916TIP3   OH224238   1.589   5.178  10.576  0.5611  0.0713  0.4479
  916TIP3    H124239   1.640   5.186  10.495 -2.1269  0.1398 -1.3801
  916TIP3    H224240   1.518   5.118  10.553 -1.9169  2.2913  1.8297
  917TIP3   OH224241   3.663   1.946  13.863  0.4417  0.1707 -0.4014
  917TIP3    H124242   3.747   1.991  13.870  0.4782  0.3806 -1.8419
  917TIP3    H224243   3.631   1.941  13.953  1.9300  0.1996  0.1692
  918TIP3   OH224244   4.323   5.001  11.145 -0.1736 -0.7173 -0.5631
  918TIP3    H124245   4.344   5.089  11.114 -0.6065 -0.4072  0.0096
  918TIP3    H224246   4.338   4.945  11.069 -1.0286  0.0069 -1.2842
  919TIP3   OH224247   1.136   0.944   2.703 -0.4216 -0.5106 -0.2663
  919TIP3    H124248   1.050   0.922   2.738 -0.7928  1.1513 -0.0494
  919TIP3    H224249   1.139   0.901   2.617 -1.1795 -1.1434  0.0128
  920TIP3   OH224250   1.886   4.879  11.474  0.2730  0.5847 -0.0061
  920TIP3    H124251   1.793   4.868  11.491  0.4171  0.9343  1.0976
  920TIP3    H224252   1.917   4.938  11.543  0.9299  2.0797 -1.5043
  921TIP3   OH224253   5.518   6.589   5.534 -0.5276 -0.2626  0.2555
  921TIP3    H124254   5.610   6.574   5.512 -0.3956 -0.4554  0.9195
  921TIP3    H224255   5.479   6.621   5.453 -0.1547 -1.3989 -0.3906
  922TIP3   OH224256   6.648   6.163   2.089  0.4269 -0.1767  0.5105
  922TIP3    H124257   6.740   6.146   2.107  0.3017 -1.2824  0.1933
  922TIP3    H224258   6.619   6.218   2.162  1.9005  2.2629 -0.6138
  923TIP3   OH224259   6.771   3.233  12.715 -0.0346 -0.0590  0.4175
  923TIP3    H124260   6.856   3.266  12.688  0.3562 -0.6192  0.9373
  923TIP3    H224261   6.783   3.209  12.807 -0.7537 -0.1336  0.4953
  924TIP3   OH224262   6.596   2.051  11.571  0.2449  0.0777 -0.5330
  924TIP3    H124263   6.643   2.082  11.494 -0.7120 -0.7671 -1.4912
  924TIP3    H224264   6.607   1.956  11.569 -1.1000 -0.0912 -0.5288
  925TIP3   OH224265   0.712   0.057   2.717  0.1642  0.2953  0.0463
  925TIP3    H124266   0.666   0.033   2.797  0.8574 -0.7979  0.1372
  925TIP3    H224267   0.732   0.150   2.728 -0.1029  0.2566  0.9519
  926TIP3   OH224268   4.386   0.531  11.979 -0.2250  0.1703 -0.3018
  926TIP3    H124269   4.379   0.435  11.983  0.4358  0.0425 -1.8009
  926TIP3    H224270   4.478   0.548  11.957 -0.5016  1.1194 -0.7844
  927TIP3   OH224271   1.497   4.772   0.630 -0.1675  0.6875  0.6626
  927TIP3    H124272   1.441   4.821   0.570 -0.7500  1.5608  1.8743
  927TIP3    H224273   1.582   4.770   0.586 -0.6790  0.9249 -0.3845
  928TIP3   OH224274   0.646   6.499   2.042 -0.2332  0.5936 -0.0722
  928TIP3    H124275   0.701   6.549   1.982  2.3456  1.0488  2.4628
  928TIP3    H224276   0.608   6.565   2.101  0.9320 -0.0909  1.5370
  929TIP3   OH224277   3.748   2.000  15.998  0.1829  0.7720  0.2408
  929TIP3    H124278   3.694   2.035  16.069 -0.5947  0.0741  0.0083
  929TIP3    H224279   3.754   2.071  15.935 -0.5804  0.8181  0.2110
  930TIP3   OH224280   5.082   4.484   5.166 -0.2869 -0.0576  0.4261
  930TIP3    H124281   5.028   4.558   5.138 -0.2351 -0.0476  0.3523
  930TIP3    H224282   5.161   4.524   5.202 -0.5119 -0.0582  0.9243
  931TIP3   OH224283   1.197   2.240  14.419  0.3899 -0.4574  0.6786
  931TIP3    H124284   1.283   2.229  14.380  1.1645  0.8077  1.9475
  931TIP3    H224285   1.209   2.216  14.511 -0.7392 -0.7946  0.7495
  932TIP3   OH224286   3.540   3.677   4.444 -0.1356 -0.2404 -0.6689
  932TIP3    H124287   3.627   3.697   4.478 -0.1464 -1.1133 -0.0820
  932TIP3    H224288   3.491   3.648   4.520 -0.5652 -0.9477 -1.2000
  933TIP3   OH224289   4.762   1.898   1.143  0.0353 -0.3475  0.0323
  933TIP3    H124290   4.714   1.820   1.115 -0.0337  0.0039 -0.8422
  933TIP3    H224291   4.770   1.951   1.064 -0.1681  0.6711  0.6795
  934TIP3   OH224292   5.921   6.135  10.443  0.0548  0.0105 -0.4043
  934TIP3    H124293   5.884   6.222  10.460 -1.1169 -0.7798  1.2313
  934TIP3    H224294   5.866   6.075  10.492  3.4635 -1.2593  2.2163
  935TIP3   OH224295   2.784   2.541   0.701 -0.3985  0.2950  0.3167
  935TIP3    H124296   2.706   2.489   0.720 -0.6747  0.7733  0.5181
  935TIP3    H224297   2.790   2.603   0.774 -0.5111  1.0497 -0.2992
  936TIP3   OH224298   3.194   3.254   2.158 -0.0373 -0.0647 -0.5115
  936TIP3    H124299   3.214   3.314   2.087 -1.7101  0.9997 -0.1475
  936TIP3    H224300   3.106   3.279   2.187  0.1365 -1.2042  1.1798
  937TIP3   OH224301   3.508   2.270  14.987  0.4571 -0.5986 -0.5990
  937TIP3    H124302   3.428   2.281  15.039  0.3051 -0.6051 -0.8330
  937TIP3    H224303   3.570   2.229  15.047 -0.0144 -1.4740 -0.7014
  938TIP3   OH224304   3.531   3.073  16.926  0.7468  0.1957  0.0538
  938TIP3    H124305   3.595   3.001  16.928  0.4724 -0.0992 -1.0277
  938TIP3    H224306   3.464   3.046  16.989  0.8876 -0.2602  0.0171
  939TIP3   OH224307   1.756   3.018  15.743 -1.0370 -0.7991 -0.0674
  939TIP3    H124308   1.662   3.033  15.750 -1.0093 -1.0438  0.8660
  939TIP3    H224309   1.790   3.099  15.704 -1.5321 -0.4074  0.3119
  940TIP3   OH224310   1.734   2.398   5.653  0.4674  0.5804 -0.0028
  940TIP3    H124311   1.781   2.315   5.658 -1.2010 -0.5075 -1.3739
  940TIP3    H224312   1.662   2.390   5.716  0.2831  0.9718 -0.1529
  941TIP3   OH224313   1.342   6.758  13.300 -0.0534  0.2176 -0.0395
  941TIP3    H124314   1.437   6.743  13.297 -0.0875  0.2068 -2.2276
  941TIP3    H224315   1.314   6.717  13.382  1.6250 -0.9703 -0.0190
  942TIP3   OH224316   6.086   3.780  14.954 -0.3180  0.1162 -0.2206
  942TIP3    H124317   6.163   3.827  14.921 -1.4994  1.1448 -1.6551
  942TIP3    H224318   6.079   3.703  14.897 -0.0501 -0.2632  0.2551
  943TIP3   OH224319   6.645   1.260   2.266 -0.2546  0.0195 -0.4766
  943TIP3    H124320   6.567   1.272   2.212 -0.4030  0.3050 -0.2015
  943TIP3    H224321   6.708   1.217   2.208 -0.0987  1.1298 -1.1624
  944TIP3   OH224322   4.106   5.765   2.889 -0.4113  0.3671  0.5908
  944TIP3    H124323   4.092   5.857   2.865 -1.6978 -0.2048 -1.0177
  944TIP3    H224324   4.113   5.719   2.806  1.8364 -0.8316  1.3473
  945TIP3   OH224325   5.568   5.960   2.760 -0.2832  0.2651 -0.4466
  945TIP3    H124326   5.630   5.916   2.701  1.1952  2.0470 -0.3105
  945TIP3    H224327   5.623   5.996   2.830 -1.6394  0.8874  0.3277
  946TIP3   OH224328   0.039   3.465   0.990  0.1624  0.5201  0.1743
  946TIP3    H124329   0.027   3.554   0.956  1.7905  0.9572  0.6717
  946TIP3    H224330   0.036   3.476   1.085  0.2712  0.0272  0.2346
  947TIP3   OH224331   2.880   4.428  14.176  0.2903 -0.3931 -0.0507
  947TIP3    H124332   2.898   4.398  14.087  3.0734 -0.5071  0.4571
  947TIP3    H224333   2.796   4.474  14.170  0.9843  0.6782 -2.9686
  948TIP3   OH224334   4.829   1.689  15.661  0.1929  0.6037  0.0459
  948TIP3    H124335   4.779   1.608  15.672  0.8647  0.1941  0.2120
  948TIP3    H224336   4.764   1.759  15.661 -0.4287  0.0322 -0.4766
  949TIP3   OH224337   6.261   1.412  12.936  0.5429 -0.3784 -0.1328
  949TIP3    H124338   6.242   1.377  12.849 -0.3765 -0.2260 -0.0084
  949TIP3    H224339   6.179   1.455  12.963  0.6113 -0.9469  1.0573
  950TIP3   OH224340   2.785   0.280  13.045 -0.0866 -0.8018  0.2646
  950TIP3    H124341   2.760   0.198  13.087 -1.3477 -0.1513  0.8630
  950TIP3    H224342   2.704   0.332  13.044  0.9534  0.9349  1.0487
  951TIP3   OH224343   5.085   5.739  12.197  0.0032  0.5977  0.0995
  951TIP3    H124344   5.076   5.828  12.164 -0.9467  0.8200  0.9032
  951TIP3    H224345   5.069   5.746  12.291  3.1438  0.0682  0.7965
  952TIP3   OH224346   1.290   5.974   2.684  0.4100 -0.1946 -1.0364
  952TIP3    H124347   1.384   5.986   2.681  0.4512 -0.1288  0.0026
  952TIP3    H224348   1.254   6.057   2.652  0.7177  1.0065  1.4539
  953TIP3   OH224349   0.497   6.227   3.277  0.0755  0.2352 -0.9530
  953TIP3    H124350   0.527   6.292   3.213  0.4965 -0.5259 -1.5524
  953TIP3    H224351   0.508   6.143   3.232 -1.3843 -0.1926 -0.5508
  954TIP3   OH224352   2.340   2.407   0.293 -0.5921  0.8238  0.4076
  954TIP3    H124353   2.366   2.498   0.280 -1.3186  1.0172  0.2548
  954TIP3    H224354   2.327   2.373   0.204 -4.2008  1.7392  0.4309
  955TIP3   OH224355   3.689   3.453   5.552  0.2770 -0.5856 -0.2088
  955TIP3    H124356   3.637   3.425   5.627  2.2227 -0.0401  1.4306
  955TIP3    H224357   3.732   3.372   5.522  1.6404 -0.4029  1.0868
  956TIP3   OH224358   5.620   2.446   3.863 -0.1337 -0.2999 -0.3438
  956TIP3    H124359   5.614   2.528   3.912 -1.8309 -0.9679  0.6683
  956TIP3    H224360   5.714   2.425   3.861  0.1426  0.7075  1.0087
  957TIP3   OH224361   3.327   1.884   2.288 -0.0736 -0.2081 -0.5667
  957TIP3    H124362   3.318   1.844   2.374  4.4100 -2.6859 -0.9213
  957TIP3    H224363   3.400   1.945   2.297 -2.0163  2.5085 -1.8411
  958TIP3   OH224364   1.934   6.605   0.582  0.4544 -0.1124  0.4705
  958TIP3    H124365   1.892   6.673   0.530  0.1601 -1.4301 -1.0894
  958TIP3    H224366   1.862   6.553   0.618  0.5817 -2.2775 -2.0776
  959TIP3   OH224367   4.655   4.257   3.019  0.6849  0.4365  0.4419
  959TIP3    H124368   4.677   4.165   3.006 -1.7818 -0.0008 -1.4602
  959TIP3    H224369   4.697   4.303   2.946 -0.1748  0.3807 -0.1110
  960TIP3   OH224370   4.556   2.526   1.352 -0.0148 -0.4185 -0.3768
  960TIP3    H124371   4.545   2.543   1.445  1.0811 -0.1215 -0.2931
  960TIP3    H224372   4.648   2.503   1.342 -0.5006 -2.2432 -1.1139
  961TIP3   OH224373   1.610   5.252   6.294 -0.6828  0.1731 -0.0863
  961TIP3    H124374   1.540   5.194   6.264 -0.4274  0.3937 -1.1800
  961TIP3    H224375   1.643   5.211   6.373 -1.7621 -0.1632  0.2082
  962TIP3   OH224376   0.987   5.184   6.388  0.0630 -0.4010  0.1372
  962TIP3    H124377   1.068   5.222   6.354  0.1150 -0.7536 -0.1351
  962TIP3    H224378   0.919   5.216   6.328  0.4118 -2.7136 -1.6207
  963TIP3   OH224379   0.764   5.965   0.710  0.3237  0.1649  0.2546
  963TIP3    H124380   0.690   6.003   0.757 -1.3103 -2.1653 -0.3050
  963TIP3    H224381   0.732   5.953   0.620  2.0403  0.7955 -0.4939
  964TIP3   OH224382   0.030   2.719  15.431  0.4488 -0.1464 -0.6192
  964TIP3    H124383   0.014   2.714  15.525 -0.1658  0.8307 -0.6625
  964TIP3    H224384   0.034   2.627  15.403  0.5401 -0.4493  0.3305
  965TIP3   OH224385   5.254   3.155   3.696 -0.0245 -0.4970  0.3164
  965TIP3    H124386   5.204   3.106   3.630 -1.3813  1.1929  0.0088
  965TIP3    H224387   5.309   3.214   3.645 -0.2032 -0.0112  0.6777
  966TIP3   OH224388   5.846   6.292   4.655 -0.4696  0.1779 -0.4217
  966TIP3    H124389   5.885   6.298   4.742  1.5551 -0.7997 -1.1969
  966TIP3    H224390   5.766   6.242   4.668 -0.9239  1.2328  1.0570
  967TIP3   OH224391   0.143   3.298   5.049 -0.3885 -0.3316 -0.0161
  967TIP3    H124392   0.220   3.242   5.058  0.5062  0.9500  0.4812
  967TIP3    H224393   0.079   3.259   5.109 -0.1498 -1.4091 -0.4387
  968TIP3   OH224394   2.649   3.063   3.273 -0.2799 -0.1771 -0.1053
  968TIP3    H124395   2.635   3.156   3.290 -1.6134 -0.1740 -1.0712
  968TIP3    H224396   2.733   3.044   3.314 -0.6722  1.1039  1.4061
  969TIP3   OH224397   1.259   6.686  11.976  0.5157  0.0089  0.4933
  969TIP3    H124398   1.243   6.656  11.886  0.0386  1.3472  0.1092
  969TIP3    H224399   1.210   6.625  12.031  0.4302 -0.5456 -0.1846
  970TIP3   OH224400   5.771   3.075  16.532 -0.3589  0.4503 -0.1585
  970TIP3    H124401   5.834   3.004  16.541 -0.0808  0.5069 -1.3929
  970TIP3    H224402   5.697   3.049  16.587  1.4115  1.2627  2.8238
  971TIP3   OH224403   1.803   4.162  16.149  0.1186  0.3644 -0.1182
  971TIP3    H124404   1.877   4.151  16.209  0.5961  0.7481 -0.6259
  971TIP3    H224405   1.726   4.164  16.206  0.6068  1.2882  0.5416
  972TIP3   OH224406   2.415   1.095  15.435 -0.3667 -0.0542  0.3905
  972TIP3    H124407   2.457   1.056  15.512 -0.7568  0.0334  0.6524
  972TIP3    H224408   2.416   1.189  15.453 -0.2951 -0.0181  0.2017
  973TIP3   OH224409   2.053   2.074  13.127  0.5109  0.5304 -0.3082
  973TIP3    H124410   2.010   2.156  13.102  0.7682  1.2204  1.4197
  973TIP3    H224411   1.981   2.015  13.150  0.3712  0.5713 -0.6286
  974TIP3   OH224412   3.830   2.118   6.544  0.0602 -0.0115  0.4100
  974TIP3    H124413   3.755   2.164   6.506  0.2365  0.3685  0.5210
  974TIP3    H224414   3.802   2.095   6.632 -0.4822 -1.2115 -0.0613
  975TIP3   OH224415   0.936   3.021   3.613 -0.5254 -0.5591  0.5608
  975TIP3    H124416   0.887   3.076   3.551 -0.6290  1.1503  2.0744
  975TIP3    H224417   0.870   2.963   3.651 -0.4162 -1.7965 -1.0511
  976TIP3   OH224418   4.997   1.863  16.921  0.7146  0.2401 -0.0865
  976TIP3    H124419   4.931   1.922  16.958  2.3931  1.5550  0.9237
  976TIP3    H224420   4.979   1.864  16.827 -1.7920 -0.8593  0.3032
  977TIP3   OH224421   5.668   3.755   1.793 -0.4729  0.7205  0.6516
  977TIP3    H124422   5.759   3.733   1.773 -0.5193  1.3787 -0.3473
  977TIP3    H224423   5.634   3.792   1.712 -1.8847 -0.2791  0.7599
  978TIP3   OH224424   3.477   0.604   5.277 -0.1460  0.1666  0.0701
  978TIP3    H124425   3.497   0.520   5.318 -1.1884 -0.5666 -0.8525
  978TIP3    H224426   3.386   0.620   5.300  0.5224  1.9781  1.7445
  979TIP3   OH224427   1.165   0.672   1.384  0.1293 -0.3928  0.5635
  979TIP3    H124428   1.184   0.590   1.340  2.7874 -0.0764  0.9500
  979TIP3    H224429   1.162   0.737   1.314  1.4377 -0.3489  0.5084
  980TIP3   OH224430   4.474   6.475  16.384  0.2614 -0.6030 -0.4731
  980TIP3    H124431   4.458   6.503  16.294  0.1632  0.6687 -0.0902
  980TIP3    H224432   4.461   6.555  16.436  0.0537 -1.3738  0.6937
  981TIP3   OH224433   3.515   5.754   0.824  0.2724  0.3175 -0.4149
  981TIP3    H124434   3.559   5.776   0.905 -0.3190  0.4964 -0.1340
  981TIP3    H224435   3.437   5.811   0.823 -0.3165 -0.4798 -0.5587
  982TIP3   OH224436   1.840   4.554   5.383  0.2965 -0.1618 -0.2010
  982TIP3    H124437   1.750   4.522   5.381  0.1774  0.0682  0.7204
  982TIP3    H224438   1.893   4.477   5.402  0.0271  0.0848  1.8306
  983TIP3   OH224439   5.562   3.715   0.757  0.3458  0.1721  0.3336
  983TIP3    H124440   5.613   3.769   0.697 -0.4791  0.9872  0.3377
  983TIP3    H224441   5.507   3.778   0.804 -0.9553 -0.7160  0.0379
  984TIP3   OH224442   4.058   5.300   4.359 -0.5233 -0.1554  0.3640
  984TIP3    H124443   4.122   5.341   4.418  0.8637  0.6919 -1.6396
  984TIP3    H224444   4.103   5.292   4.276 -2.4382 -1.2971 -0.6385
  985TIP3   OH224445   5.275   3.525   4.803  0.1543  0.0253  0.6222
  985TIP3    H124446   5.202   3.586   4.808  0.2232  0.1085  0.6175
  985TIP3    H224447   5.248   3.450   4.855 -0.7325 -0.7679 -0.8864
  986TIP3   OH224448   6.039   5.206  10.623 -0.1654 -0.3365 -0.0786
  986TIP3    H124449   6.130   5.189  10.649 -0.8409 -0.8969  2.1078
  986TIP3    H224450   6.021   5.140  10.556  0.7132 -0.8770  0.1955
  987TIP3   OH224451   5.461   5.979   6.422 -0.0742  0.2988  0.3772
  987TIP3    H124452   5.388   5.933   6.464 -0.2274  0.3736  0.1935
  987TIP3    H224453   5.539   5.950   6.471 -0.3311  0.9316  1.1740
  988TIP3   OH224454   5.154   6.771  11.535 -0.4288 -0.1023  0.3026
  988TIP3    H124455   5.126   6.767  11.443 -0.3062 -0.5678  0.2793
  988TIP3    H224456   5.077   6.803  11.582 -1.1425 -1.6934  0.2888
  989TIP3   OH224457   6.356   0.365   0.173  0.0671  0.1517  0.1827
  989TIP3    H124458   6.336   0.318   0.254 -0.5202  0.5539  0.2831
  989TIP3    H224459   6.385   0.297   0.112 -1.2510 -0.4311  0.1637
  990TIP3   OH224460   5.015   5.789  12.492 -0.3593 -0.2917  0.3402
  990TIP3    H124461   4.949   5.722  12.514  0.3528 -1.2202 -0.2817
  990TIP3    H224462   4.969   5.872  12.502 -0.6545 -0.7071  3.4580
  991TIP3   OH224463   4.129   3.603   4.939 -0.3443  0.5232 -0.4066
  991TIP3    H124464   4.114   3.554   4.859  0.2013 -0.5241  0.1135
  991TIP3    H224465   4.100   3.545   5.009 -0.4629  1.2696  0.1799
  992TIP3   OH224466   1.092   1.305  15.588 -0.8450 -0.6227  0.3830
  992TIP3    H124467   1.121   1.296  15.679 -0.3560  0.9633  0.4141
  992TIP3    H224468   1.151   1.371  15.551 -0.4605 -1.8892 -1.3551
  993TIP3   OH224469   2.425   2.172  13.089 -0.3811 -0.3481  0.0752
  993TIP3    H124470   2.348   2.229  13.085 -0.2294  0.6360  4.7872
  993TIP3    H224471   2.390   2.085  13.105 -0.5554 -0.2537  0.2135
  994TIP3   OH224472   2.885   4.864  16.523 -0.3978  0.2394 -0.1192
  994TIP3    H124473   2.926   4.781  16.549  1.2950  0.3888 -2.0607
  994TIP3    H224474   2.949   4.931  16.547 -0.5195  0.7087 -1.0430
  995TIP3   OH224475   2.559   1.651   5.070  0.1529  0.0632 -0.3650
  995TIP3    H124476   2.523   1.595   5.138  1.2234  0.0348  0.2005
  995TIP3    H224477   2.560   1.596   4.992  0.1922 -0.3580 -0.0715
  996TIP3   OH224478   2.335   1.585  11.244  0.5484  0.7566  0.1737
  996TIP3    H124479   2.408   1.583  11.182  1.4481  0.1790  1.2201
  996TIP3    H224480   2.376   1.602  11.329 -0.7525  2.5031  0.5093
  997TIP3   OH224481   1.185   2.118  16.405  0.8321  0.2169  0.0451
  997TIP3    H124482   1.209   2.132  16.496  1.1392 -2.3030  0.4190
  997TIP3    H224483   1.175   2.023  16.397 -2.6560  0.5870 -1.7095
  998TIP3   OH224484   3.362   4.267   1.402 -0.0816  0.4816 -0.3093
  998TIP3    H124485   3.327   4.356   1.400 -1.3884 -0.0097 -1.7174
  998TIP3    H224486   3.343   4.236   1.490  1.7276  2.0583  0.7077
  999TIP3   OH224487   1.116   4.309  15.198  0.1645  0.3190 -0.3214
  999TIP3    H124488   1.047   4.321  15.133  0.3694  1.3020 -0.3705
  999TIP3    H224489   1.081   4.242  15.257 -0.4972  0.2307 -0.7976
 1000TIP3   OH224490   1.636   0.115  13.061 -0.1585  0.7484 -0.4846
 1000TIP3    H124491   1.703   0.175  13.028  0.9427 -1.2079 -2.0429
 1000TIP3    H224492   1.652   0.110  13.155  0.4804  1.9251 -0.5052
 1001TIP3   OH224493   6.567   6.505   4.585  0.0409  0.2319  0.0691
 1001TIP3    H124494   6.645   6.461   4.553 -0.3061 -0.8342  0.6149
 1001TIP3    H224495   6.495   6.465   4.536 -0.4630 -1.1965  1.8394
 1002TIP3   OH224496   5.031   1.381  14.579 -0.0704 -0.2536 -0.8235
 1002TIP3    H124497   4.991   1.349  14.498  0.1171 -1.5055 -0.4508
 1002TIP3    H224498   4.997   1.322  14.647 -1.2894  1.5973  0.2540
 1003TIP3   OH224499   0.889   1.719  15.813  0.2510 -0.2659 -0.3788
 1003TIP3    H124500   0.880   1.632  15.851  1.4847  0.1216  0.8884
 1003TIP3    H224501   0.978   1.721  15.778  0.5205  0.7270  0.3023
 1004TIP3   OH224502   5.264   4.690  15.251  0.1322 -0.4912 -0.7178
 1004TIP3    H124503   5.214   4.685  15.333  0.7093  1.1666 -0.2139
 1004TIP3    H224504   5.223   4.763  15.203 -2.2002 -3.2791 -3.3871
 1005TIP3   OH224505   6.602   0.831  10.974 -0.3077  0.2889  0.1608
 1005TIP3    H124506   6.525   0.848  10.919 -0.3365  0.7613  0.3393
 1005TIP3    H224507   6.634   0.746  10.945  0.3953  1.0472 -1.4292
 1006TIP3   OH224508   6.005   2.383  13.815  0.7119 -0.0723 -0.2312
 1006TIP3    H124509   6.005   2.478  13.802 -0.4184 -0.2739 -2.0533
 1006TIP3    H224510   6.022   2.372  13.909 -0.5621  1.9883  0.3224
 1007TIP3   OH224511   4.926   1.596   3.841 -0.4981  0.0851 -0.3161
 1007TIP3    H124512   4.987   1.624   3.909 -2.0951 -0.5887  1.4960
 1007TIP3    H224513   4.970   1.523   3.797  0.0004 -0.3765  0.9230
 1008TIP3   OH224514   1.255   5.020   0.759  0.5189 -0.1871  0.0316
 1008TIP3    H124515   1.246   4.937   0.804 -1.4807 -1.8059 -2.9952
 1008TIP3    H224516   1.296   4.997   0.675  1.5062  2.1717 -0.2060
 1009TIP3   OH224517   2.951   5.825   5.035 -0.6902 -0.6496  0.1595
 1009TIP3    H124518   3.023   5.833   4.972  0.7977 -1.3167  1.6842
 1009TIP3    H224519   2.967   5.741   5.078 -0.7530  0.4367  2.4314
 1010TIP3   OH224520   1.401   6.796  15.537 -0.0002 -0.4462 -0.0406
 1010TIP3    H124521   1.413   6.834  15.450 -1.0133 -0.4858 -0.2126
 1010TIP3    H224522   1.332   6.731  15.525  1.0861 -1.7305  0.4274
 1011TIP3   OH224523   3.503   1.985   3.924  0.7672 -0.0679  0.1953
 1011TIP3    H124524   3.564   1.991   3.997  1.2364 -1.1269 -0.0956
 1011TIP3    H224525   3.418   1.969   3.965  0.7508  0.9241  0.5749
 1012TIP3   OH224526   1.214   3.244  15.521 -0.3539  0.2253 -0.4511
 1012TIP3    H124527   1.187   3.272  15.608  0.4554 -1.0345  0.2311
 1012TIP3    H224528   1.308   3.263  15.517 -0.3443  0.0829 -0.9744
 1013TIP3   OH224529   1.895   1.879   2.104  0.0056 -0.0108 -0.0111
 1013TIP3    H124530   1.981   1.838   2.117  0.0501 -0.2934 -1.1119
 1013TIP3    H224531   1.898   1.957   2.160  0.5585 -0.5926  0.8089
 1014TIP3   OH224532   5.869   5.448   1.998 -0.1677  0.1819  0.0229
 1014TIP3    H124533   5.797   5.440   2.062 -0.7646  0.1337 -0.6434
 1014TIP3    H224534   5.839   5.514   1.936 -0.1245 -0.6393 -0.8944
 1015TIP3   OH224535   5.065   3.069  15.423  0.5079 -0.2106 -0.2500
 1015TIP3    H124536   5.102   3.157  15.431 -0.8286  0.5102 -1.4074
 1015TIP3    H224537   5.030   3.050  15.510  0.8174  0.4116  0.0180
 1016TIP3   OH224538   4.357   2.353   0.889  0.2897 -0.3668 -0.0941
 1016TIP3    H124539   4.418   2.283   0.911 -0.1301 -1.2117 -1.4702
 1016TIP3    H224540   4.361   2.360   0.793 -2.1082 -0.8128 -0.2962
 1017TIP3   OH224541   3.624   2.366  14.439  0.3065  0.1811 -0.1339
 1017TIP3    H124542   3.538   2.381  14.398 -0.4942 -1.4897  0.8436
 1017TIP3    H224543   3.606   2.304  14.510  2.0784  1.0251  1.1087
 1018TIP3   OH224544   5.766   4.319   4.945  0.2286  0.1955 -0.1494
 1018TIP3    H124545   5.786   4.361   4.861 -1.3408  0.7736 -0.2720
 1018TIP3    H224546   5.813   4.236   4.942  1.0608  0.6750 -1.1430
 1019TIP3   OH224547   0.099   1.263   3.274 -0.4268  0.1375 -0.0451
 1019TIP3    H124548   0.079   1.338   3.329  0.9639  0.5066  0.0110
 1019TIP3    H224549   0.074   1.187   3.326 -1.4828  0.5389  0.0509
 1020TIP3   OH224550   5.539   2.807  10.727  0.2580  0.6720 -0.1025
 1020TIP3    H124551   5.599   2.881  10.715  0.5797  0.9696  2.5908
 1020TIP3    H224552   5.590   2.743  10.776 -1.2754  0.5433  1.4359
 1021TIP3   OH224553   1.547   3.699   2.585  0.0060  0.0815  0.3160
 1021TIP3    H124554   1.624   3.649   2.611  1.0344  0.6290 -1.4724
 1021TIP3    H224555   1.514   3.737   2.666  1.4868 -0.3361  1.1524
 1022TIP3   OH224556   3.835   1.152   2.882 -0.0292  0.2100 -0.2506
 1022TIP3    H124557   3.826   1.079   2.821 -1.3348  0.8034 -0.7991
 1022TIP3    H224558   3.812   1.115   2.967 -0.7284 -0.0104 -0.5318
 1023TIP3   OH224559   6.799   2.992   3.103 -0.0955 -0.4584  0.1868
 1023TIP3    H124560   6.745   2.915   3.120 -1.1222 -0.6174 -3.0849
 1023TIP3    H224561   6.819   3.028   3.190 -2.8348 -2.1745  1.6465
 1024TIP3   OH224562   2.355   3.141   4.209  0.0213 -0.1351 -0.3423
 1024TIP3    H124563   2.440   3.173   4.241 -0.5414  1.7886 -0.6987
 1024TIP3    H224564   2.360   3.152   4.114 -1.0377  1.0871 -0.2728
 1025TIP3   OH224565   0.551   6.736  11.641 -0.0002 -0.0119  0.3571
 1025TIP3    H124566   0.554   6.828  11.613 -0.3965 -0.3603 -0.9103
 1025TIP3    H224567   0.499   6.737  11.722 -1.1700  0.7208 -0.3702
 1026TIP3   OH224568   1.823   4.563  13.961 -0.4334  0.1317  0.5088
 1026TIP3    H124569   1.874   4.632  13.917 -0.0393 -0.2763  0.3058
 1026TIP3    H224570   1.736   4.601  13.973 -0.6576  0.1530 -0.9378
 1027TIP3   OH224571   4.644   6.152  14.496  0.5113 -0.1832  0.2638
 1027TIP3    H124572   4.721   6.206  14.515 -0.0884  0.2350  1.6164
 1027TIP3    H224573   4.572   6.195  14.543 -0.5353 -0.6399 -0.8666
 1028TIP3   OH224574   5.124   0.717  13.137  0.4420 -0.2294  0.1003
 1028TIP3    H124575   5.186   0.774  13.183  1.1841 -0.0567 -1.0708
 1028TIP3    H224576   5.174   0.680  13.064 -0.0698 -2.2594  0.7086
 1029TIP3   OH224577   5.604   0.878   3.492  0.1749 -0.0524 -0.3952
 1029TIP3    H124578   5.648   0.801   3.528 -0.6612 -0.1532  0.4634
 1029TIP3    H224579   5.541   0.903   3.559 -0.9625  0.1790 -1.5094
 1030TIP3   OH224580   2.620   6.319  14.376  0.3179 -0.3833  0.3482
 1030TIP3    H124581   2.625   6.243  14.319 -0.6675 -0.5399  0.4387
 1030TIP3    H224582   2.611   6.394  14.317 -2.4703 -0.6885  0.2219
 1031TIP3   OH224583   3.869   2.625  10.630  0.2170 -0.0469  0.4247
 1031TIP3    H124584   3.803   2.665  10.572 -2.7795 -2.0207  2.2085
 1031TIP3    H224585   3.901   2.549  10.581  1.0937  0.8005 -0.3658
 1032TIP3   OH224586   2.818   2.924  16.109 -0.2726  0.6609 -0.0508
 1032TIP3    H124587   2.793   3.000  16.056 -1.6958 -1.4492 -2.6745
 1032TIP3    H224588   2.901   2.895  16.071 -0.8408 -0.3383 -0.5597
 1033TIP3   OH224589   1.905   4.284  15.920 -0.0653  0.8078  0.6854
 1033TIP3    H124590   1.847   4.258  15.848  0.2757 -0.3276  0.8036
 1033TIP3    H224591   1.864   4.247  15.998  0.6780  0.2009  0.7984
 1034TIP3   OH224592   2.374   2.605  14.063 -0.1077  0.0535  0.1705
 1034TIP3    H124593   2.296   2.660  14.075  0.1920  0.1391  2.1813
 1034TIP3    H224594   2.339   2.521  14.033 -1.6544 -1.3624  4.9564
 1035TIP3   OH224595   5.744   5.209   5.706 -0.5142  0.0959  0.0844
 1035TIP3    H124596   5.680   5.217   5.777 -1.6539 -0.0120 -0.9088
 1035TIP3    H224597   5.817   5.265   5.734 -0.6700 -0.4043  1.6061
 1036TIP3   OH224598   6.154   5.762   6.001 -0.0562 -0.1758  0.2904
 1036TIP3    H124599   6.219   5.807   5.946 -0.9665  0.1679 -0.5311
 1036TIP3    H224600   6.092   5.831   6.025 -1.9781 -1.0847 -1.7328
 1037TIP3   OH224601   6.448   6.775   1.900  0.1481  0.1878  0.0086
 1037TIP3    H124602   6.419   6.860   1.866  2.7359  0.0814 -2.8881
 1037TIP3    H224603   6.538   6.790   1.928 -0.2117 -1.0627  2.0022
 1038TIP3   OH224604   3.649   4.711   5.954  0.5051  0.1428 -0.3096
 1038TIP3    H124605   3.682   4.770   6.021 -0.5798 -0.1916  0.5430
 1038TIP3    H224606   3.681   4.748   5.872  0.6324  1.3843  0.2775
 1039TIP3   OH224607   3.401   5.752   4.644  0.0383 -0.2695  1.1974
 1039TIP3    H124608   3.423   5.671   4.690  0.2495 -0.0644  1.4665
 1039TIP3    H224609   3.306   5.758   4.650 -0.0044 -0.6443  0.9221
 1040TIP3   OH224610   4.762   2.991   0.706  0.6846 -0.1827 -0.1547
 1040TIP3    H124611   4.825   3.000   0.635  0.6742  0.9820 -0.0435
 1040TIP3    H224612   4.698   3.061   0.690  0.4764 -0.1415  0.7897
 1041TIP3   OH224613   2.411   3.538   6.321  0.1067  0.2473 -0.2112
 1041TIP3    H124614   2.451   3.604   6.378 -0.2864 -0.2409  0.6658
 1041TIP3    H224615   2.477   3.469   6.316 -0.1257 -0.0103  0.2193
 1042TIP3   OH224616   6.343   5.764   1.573  0.3302  0.0833 -0.2025
 1042TIP3    H124617   6.376   5.854   1.566  0.9835 -0.0193  1.2699
 1042TIP3    H224618   6.269   5.770   1.633 -0.3032 -0.2133 -0.9354
 1043TIP3   OH224619   4.854   3.525  10.774 -0.0980 -0.6611  0.3154
 1043TIP3    H124620   4.894   3.558  10.854  0.3796 -1.3553  0.3728
 1043TIP3    H224621   4.810   3.601  10.736  0.3832 -0.1313  0.7959
 1044TIP3   OH224622   4.716   4.500   5.120 -0.2179 -0.2499 -0.0601
 1044TIP3    H124623   4.792   4.555   5.104  2.4753 -3.6315 -0.0234
 1044TIP3    H224624   4.665   4.547   5.186  1.6183  2.2898 -0.3055
 1045TIP3   OH224625   2.190   4.745  16.423  0.5670 -0.3847  0.2588
 1045TIP3    H124626   2.283   4.722  16.431  0.5740 -0.8170 -0.9434
 1045TIP3    H224627   2.148   4.699  16.496  1.3779  0.3503  1.2137
 1046TIP3   OH224628   5.533   2.196   0.820 -0.3447  0.1372 -0.1063
 1046TIP3    H124629   5.607   2.213   0.879  0.7426  0.1621 -1.4122
 1046TIP3    H224630   5.495   2.283   0.804  2.2754  0.9433 -3.0423
 1047TIP3   OH224631   2.997   1.797   5.680 -0.2214 -0.5199  0.1282
 1047TIP3    H124632   2.911   1.784   5.641 -0.6640  1.9623  0.1201
 1047TIP3    H224633   3.022   1.886   5.656  1.1953 -0.2341  2.2865
 1048TIP3   OH224634   6.156   6.806   5.891 -0.4128 -0.0152 -0.4798
 1048TIP3    H124635   6.113   6.858   5.959  1.8637  0.6039  0.5800
 1048TIP3    H224636   6.143   6.715   5.917  0.0524  0.2063  0.5715
 1049TIP3   OH224637   3.186   0.900   3.322  0.2739 -0.0990  0.0484
 1049TIP3    H124638   3.199   0.807   3.306  0.7923 -0.0134 -0.0504
 1049TIP3    H224639   3.140   0.932   3.245  1.3692  0.0034 -0.5829
 1050TIP3   OH224640   2.023   4.825   2.591  0.2353 -0.2032 -0.2038
 1050TIP3    H124641   2.087   4.811   2.522  1.2855  0.4710  0.5980
 1050TIP3    H224642   2.072   4.814   2.672 -0.8129 -0.2902  0.4369
 1051TIP3   OH224643   6.409   2.374  16.367  0.4647 -0.4971  0.0098
 1051TIP3    H124644   6.467   2.410  16.300 -1.0406 -0.5784 -1.3987
 1051TIP3    H224645   6.417   2.279  16.357  0.4932 -0.5116  0.1756
 1052TIP3   OH224646   4.212   2.317   1.695 -0.0715  0.1903 -0.2924
 1052TIP3    H124647   4.163   2.243   1.731  0.3808  0.3211  0.6470
 1052TIP3    H224648   4.282   2.331   1.759 -0.2861  1.5686 -0.3423
 1053TIP3   OH224649   6.352   5.766   6.189 -0.0672 -0.4659  0.2730
 1053TIP3    H124650   6.328   5.848   6.231  1.0020  1.3820 -2.4405
 1053TIP3    H224651   6.276   5.742   6.137  0.0968 -0.4635  0.0301
 1054TIP3   OH224652   1.653   4.073   0.424  0.0745  0.0570  0.1663
 1054TIP3    H124653   1.654   4.153   0.371 -2.2525  0.7284  1.0452
 1054TIP3    H224654   1.679   4.004   0.362  0.4248  1.2317 -1.0537
 1055TIP3   OH224655   1.526   6.195  12.921 -0.0196 -0.7363  0.0314
 1055TIP3    H124656   1.498   6.281  12.953 -1.4744 -1.3859  0.5674
 1055TIP3    H224657   1.452   6.137  12.940  0.7720 -2.0233 -0.7097
 1056TIP3   OH224658   6.520   5.722   0.681 -0.4401  0.2332  0.4239
 1056TIP3    H124659   6.530   5.778   0.604 -1.9840  1.0023  0.7399
 1056TIP3    H224660   6.580   5.758   0.746  1.0359 -0.5562 -0.4550
 1057TIP3   OH224661   4.788   4.205   0.624 -0.8676  0.2054 -0.0648
 1057TIP3    H124662   4.764   4.128   0.572 -2.0071  0.3104  0.2917
 1057TIP3    H224663   4.860   4.175   0.680  1.8899  0.6140 -3.0737
 1058TIP3   OH224664   1.519   6.243   1.549 -0.5273  0.0688 -0.6548
 1058TIP3    H124665   1.574   6.219   1.475 -0.3607  0.8787 -0.7975
 1058TIP3    H224666   1.437   6.273   1.509 -0.9840 -0.8754 -0.4534
 1059TIP3   OH224667   6.780   1.963  13.854 -0.1045  0.3845 -0.3447
 1059TIP3    H124668   6.868   1.984  13.885  0.1605 -0.2994 -0.6127
 1059TIP3    H224669   6.782   1.983  13.760  0.2426 -1.0131 -0.6721
 1060TIP3   OH224670   1.171   6.585   3.907 -0.1327  0.1721 -0.1118
 1060TIP3    H124671   1.086   6.614   3.940 -0.7234  1.0766 -2.2937
 1060TIP3    H224672   1.203   6.657   3.853  0.9960 -1.0315 -1.1307
 1061TIP3   OH224673   2.153   6.551  13.059 -0.3766  0.0998  0.3942
 1061TIP3    H124674   2.141   6.475  13.003 -0.0473  0.9543 -0.8731
 1061TIP3    H224675   2.184   6.515  13.142 -2.6147 -1.3477  0.6731
 1062TIP3   OH224676   5.477   5.803  11.938  0.4740  0.7302  0.2889
 1062TIP3    H124677   5.461   5.772  12.027 -1.2441  0.0132 -0.2312
 1062TIP3    H224678   5.505   5.894  11.949  0.1877  0.6791  1.5545
 1063TIP3   OH224679   0.359   2.850   5.331 -0.1750 -0.1316  0.2115
 1063TIP3    H124680   0.423   2.910   5.369  0.3916 -0.3895 -0.3354
 1063TIP3    H224681   0.275   2.883   5.363  0.0359  1.5385 -0.8228
 1064TIP3   OH224682   5.104   4.671  16.235  0.2456 -0.0479 -0.4402
 1064TIP3    H124683   5.015   4.654  16.203  0.1524  0.9551 -0.7366
 1064TIP3    H224684   5.092   4.733  16.307  0.4992 -1.8771  1.2622
 1065TIP3   OH224685   2.675   0.277   4.147  0.8650  0.2477 -0.5745
 1065TIP3    H124686   2.582   0.268   4.169  1.1005  0.8697  0.8124
 1065TIP3    H224687   2.715   0.197   4.180  0.5969 -0.8717 -2.7957
 1066TIP3   OH224688   3.292   5.979  16.049 -0.4575  0.3972 -0.5217
 1066TIP3    H124689   3.209   6.023  16.065 -1.4240 -1.9343  1.3294
 1066TIP3    H224690   3.305   5.921  16.124  2.7584  0.4826 -0.8438
 1067TIP3   OH224691   3.971   3.018   0.290 -0.6327  0.3809 -0.2012
 1067TIP3    H124692   3.965   2.963   0.212  0.9457 -1.0220  0.5941
 1067TIP3    H224693   4.065   3.029   0.303 -0.8955  2.3310  0.3572
 1068TIP3   OH224694   1.726   2.541  15.999  0.0209  0.0991 -0.2991
 1068TIP3    H124695   1.802   2.484  16.000 -0.5393 -0.6849 -0.9415
 1068TIP3    H224696   1.651   2.481  16.006 -0.5508  0.8183 -0.1410
 1069TIP3   OH224697   2.967   2.439  13.566 -0.0886 -0.5098 -0.3159
 1069TIP3    H124698   2.935   2.360  13.523 -1.5825 -0.9333  1.4355
 1069TIP3    H224699   2.888   2.488  13.588  0.7653  1.0026 -0.4989
 1070TIP3   OH224700   1.979   6.079  16.945 -0.2139  0.4101 -0.4797
 1070TIP3    H124701   2.069   6.093  16.918 -0.2512  1.6790  0.0020
 1070TIP3    H224702   1.972   6.122  17.030 -0.3118 -2.7569  1.2624
 1071TIP3   OH224703   6.814   0.817  16.104 -1.0200 -0.1797  0.0537
 1071TIP3    H124704   6.882   0.859  16.052 -0.9166  1.2602  1.2745
 1071TIP3    H224705   6.732   0.840  16.060 -0.9541  1.2576  0.6026
 1072TIP3   OH224706   1.485   4.790  11.831  0.3149  0.6279  0.7175
 1072TIP3    H124707   1.491   4.768  11.924  1.6453 -2.4444  0.0130
 1072TIP3    H224708   1.393   4.772  11.808  0.0381  1.1776  1.3686
 1073TIP3   OH224709   5.893   6.600  12.415  0.4810 -0.2839  0.0211
 1073TIP3    H124710   5.981   6.569  12.392  0.5048 -0.1100 -0.1283
 1073TIP3    H224711   5.849   6.524  12.452  1.0099 -0.1403  0.9777
 1074TIP3   OH224712   5.537   2.537  17.138 -0.0132  0.0594 -0.1078
 1074TIP3    H124713   5.442   2.532  17.132 -0.0690 -4.0014  1.0742
 1074TIP3    H224714   5.557   2.514  17.229  2.1164 -0.3411 -0.6130
 1075TIP3   OH224715   2.380   3.951  15.524 -0.6371 -0.2664 -0.0607
 1075TIP3    H124716   2.396   4.035  15.568  1.3866 -0.2009 -0.8254
 1075TIP3    H224717   2.398   3.969  15.432  0.5414 -1.7000 -0.1335
 1076TIP3   OH224718   3.491   2.154   6.071 -0.0799  0.6657  0.2973
 1076TIP3    H124719   3.444   2.225   6.027 -0.9931 -1.0082 -1.5537
 1076TIP3    H224720   3.497   2.183   6.162 -0.3595  3.1278 -0.3889
 1077TIP3   OH224721   5.140   0.213   2.692  0.9207 -0.1003 -0.2796
 1077TIP3    H124722   5.129   0.293   2.743 -1.2993 -0.9164  0.6741
 1077TIP3    H224723   5.106   0.235   2.605  1.7683  0.4032 -0.4928
 1078TIP3   OH224724   2.230   0.244  13.164  0.1030 -0.4464 -0.0591
 1078TIP3    H124725   2.197   0.155  13.149 -2.2960  0.0049  1.9141
 1078TIP3    H224726   2.173   0.280  13.232  0.1585  3.0489 -1.6132
 1079TIP3   OH224727   1.104   1.698  14.537 -0.3651  0.3731  0.0654
 1079TIP3    H124728   1.040   1.748  14.486 -0.9155  1.0349  1.3476
 1079TIP3    H224729   1.166   1.764  14.568  0.8156 -0.2288 -0.9385
 1080TIP3   OH224730   3.023   0.471   3.124  0.5720  0.2301  0.0892
 1080TIP3    H124731   2.935   0.447   3.155  0.5231  1.3680  0.8770
 1080TIP3    H224732   3.008   0.511   3.039  0.4646 -0.7236 -0.3531
 1081TIP3   OH224733   0.503   1.885  16.912  0.0494 -0.7807  0.1049
 1081TIP3    H124734   0.495   1.834  16.992  0.1482 -2.0957 -0.7000
 1081TIP3    H224735   0.430   1.858  16.857  1.2279 -1.6052 -1.1493
 1082TIP3   OH224736   1.415   5.697  14.233  0.1831  0.1971  0.3002
 1082TIP3    H124737   1.327   5.728  14.211 -0.6102 -2.1378 -0.0828
 1082TIP3    H224738   1.449   5.661  14.151  0.5833 -0.9391  0.9423
 1083TIP3   OH224739   5.762   2.883  12.841 -0.4220  0.2004  0.5796
 1083TIP3    H124740   5.848   2.847  12.864 -0.1593 -0.4838 -1.3307
 1083TIP3    H224741   5.746   2.950  12.908  1.6490  0.4376  0.9103
 1084TIP3   OH224742   4.997   0.723  17.136 -0.1671  0.0085  0.1883
 1084TIP3    H124743   5.018   0.770  17.217  1.4873  0.3271 -0.3731
 1084TIP3    H224744   5.027   0.634  17.151  2.7238  0.6616 -0.9223
 1085TIP3   OH224745   2.922   3.526   1.828  0.3492  0.1813  0.6405
 1085TIP3    H124746   2.988   3.463   1.799 -0.8248 -0.9777  0.3935
 1085TIP3    H224747   2.909   3.585   1.754 -0.1612 -0.6804  0.0291
 1086TIP3   OH224748   2.918   6.401  16.099 -0.5429  0.0533  0.3468
 1086TIP3    H124749   2.881   6.322  16.059  0.1355 -0.7193  1.2122
 1086TIP3    H224750   2.895   6.394  16.192 -2.6535  2.1358  0.0852
 1087TIP3   OH224751   5.776   5.935  16.341 -0.7616 -0.3189  0.3931
 1087TIP3    H124752   5.707   5.928  16.276  0.4029 -0.6171 -0.8632
 1087TIP3    H224753   5.786   6.029  16.356 -1.7722 -0.2916  0.9877
 1088TIP3   OH224754   5.977   6.501   4.558 -0.3839 -0.2011  0.7384
 1088TIP3    H124755   5.940   6.415   4.581 -0.1843 -0.1379  1.3255
 1088TIP3    H224756   5.940   6.561   4.623  1.0104 -0.2048  1.5955
 1089TIP3   OH224757   3.726   0.295   3.608 -0.2147  0.2157  0.0213
 1089TIP3    H124758   3.746   0.221   3.550 -2.3731  0.2975 -0.9367
 1089TIP3    H224759   3.638   0.276   3.641 -1.5707  3.1314 -1.5742
 1090TIP3   OH224760   3.377   2.802   1.079 -0.3487 -0.4611 -0.5741
 1090TIP3    H124761   3.346   2.829   1.165  0.5674  2.8521 -1.1268
 1090TIP3    H224762   3.472   2.798   1.088 -0.2463 -0.1355 -1.3871
 1091TIP3   OH224763   3.128   1.413  15.315  0.2463  0.6309  0.6704
 1091TIP3    H124764   3.217   1.407  15.350  0.5547 -0.7157 -0.2410
 1091TIP3    H224765   3.085   1.479  15.369  1.6707  1.0043  1.4000
 1092TIP3   OH224766   2.808   3.628  11.760  0.4362  0.1833  0.3528
 1092TIP3    H124767   2.866   3.603  11.832  1.4270  1.2825 -0.0240
 1092TIP3    H224768   2.824   3.563  11.692  2.0807  1.0780 -0.1618
 1093TIP3   OH224769   5.449   0.706   1.456  0.2050 -0.1371  0.0106
 1093TIP3    H124770   5.442   0.707   1.361 -1.9123 -0.9462  0.1029
 1093TIP3    H224771   5.512   0.637   1.476  1.5721  0.8310 -0.7938
 1094TIP3   OH224772   6.702   6.536   0.783 -0.3003  0.2521 -0.0495
 1094TIP3    H124773   6.724   6.443   0.778 -0.6549  0.2042 -0.7793
 1094TIP3    H224774   6.786   6.581   0.776  0.0393 -0.0306  1.6792
 1095TIP3   OH224775   1.224   2.494  15.942  0.2594  0.0615  0.0992
 1095TIP3    H124776   1.173   2.440  16.003  1.0104  0.1245  0.7921
 1095TIP3    H224777   1.172   2.494  15.862 -0.2395 -0.8849  0.4030
 1096TIP3   OH224778   6.024   3.376   0.579  0.1360  0.2266 -0.0383
 1096TIP3    H124779   5.929   3.382   0.589  0.0731 -0.2818 -0.2882
 1096TIP3    H224780   6.042   3.411   0.492  0.0240 -0.9186 -0.5384
 1097TIP3   OH224781   5.351   4.347   2.423  0.3427 -0.2755  0.6406
 1097TIP3    H124782   5.423   4.285   2.431  0.0165 -0.6965  0.2878
 1097TIP3    H224783   5.394   4.433   2.424  0.7476 -0.4715  1.7106
 1098TIP3   OH224784   5.959   6.655   0.022 -0.2360 -0.3627  0.1562
 1098TIP3    H124785   5.986   6.728   0.078 -1.6465  0.7368 -0.5128
 1098TIP3    H224786   5.907   6.696  -0.047 -1.7313 -2.0626  0.1817
 1099TIP3   OH224787   5.071   5.883   2.814  0.3621 -0.3430 -0.1377
 1099TIP3    H124788   5.036   5.793   2.814 -0.1523 -0.1466 -0.9210
 1099TIP3    H224789   5.131   5.885   2.740 -0.6805  0.3522 -0.9879
 1100TIP3   OH224790   2.323   2.384   1.693  0.1259 -0.2042 -0.3132
 1100TIP3    H124791   2.309   2.343   1.607 -0.8271 -0.1814 -0.1838
 1100TIP3    H224792   2.234   2.407   1.723  0.4751  0.0657  0.5403
 1101TIP3   OH224793   0.609   3.175  15.598  0.5006  0.2551  0.3693
 1101TIP3    H124794   0.539   3.204  15.539 -0.7031 -1.9005  0.6310
 1101TIP3    H224795   0.621   3.082  15.577  2.4138  0.2552  1.2310
 1102TIP3   OH224796   3.544   0.433  16.450  0.3475  0.2464  0.3101
 1102TIP3    H124797   3.612   0.399  16.509 -0.3888  0.4713  1.3141
 1102TIP3    H224798   3.474   0.368  16.456 -0.4786  1.1800  1.1177
 1103TIP3   OH224799   4.341   6.408   0.967 -0.0713  0.9103  0.2125
 1103TIP3    H124800   4.260   6.448   0.935 -0.4887  0.3947  0.6109
 1103TIP3    H224801   4.348   6.437   1.058  0.6653  1.6718 -0.0654
 1104TIP3   OH224802   4.388   3.704  13.800 -0.4299  0.0873  0.1587
 1104TIP3    H124803   4.336   3.731  13.876 -1.8981  0.1083 -0.8353
 1104TIP3    H224804   4.448   3.637  13.835 -0.6073  0.5820  1.4661
 1105TIP3   OH224805   5.216   4.797   1.839 -0.2536 -0.1082 -0.1328
 1105TIP3    H124806   5.301   4.832   1.810 -0.8621  1.5897  0.0535
 1105TIP3    H224807   5.234   4.757   1.924  0.3271  0.4271  0.0040
 1106TIP3   OH224808   6.767   1.212  12.140  0.5072  0.1364 -0.4460
 1106TIP3    H124809   6.845   1.256  12.174  0.2030 -0.1810  0.6858
 1106TIP3    H224810   6.800   1.158  12.068  1.2011  0.6502 -0.5222
 1107TIP3   OH224811   3.305   6.708  15.614  0.1386  0.0983  1.1896
 1107TIP3    H124812   3.318   6.619  15.584 -0.8154  0.6142 -0.9742
 1107TIP3    H224813   3.341   6.763  15.544 -0.7008  1.3895  1.7174
 1108TIP3   OH224814   5.342   5.563   1.048 -0.5360  0.0397 -0.2976
 1108TIP3    H124815   5.288   5.627   1.003 -2.9967 -1.0963  0.8602
 1108TIP3    H224816   5.357   5.494   0.984 -0.1368  0.5020 -0.7167
 1109TIP3   OH224817   2.206   2.657  16.488 -0.0310 -0.0104  0.1373
 1109TIP3    H124818   2.173   2.740  16.521  1.8171  0.6759  0.3774
 1109TIP3    H224819   2.266   2.626  16.555  0.6456 -0.6551 -0.7370
 1110TIP3   OH224820   4.073   0.188   1.549  0.2140  0.7169 -0.0553
 1110TIP3    H124821   4.088   0.168   1.641 -0.9807  1.8784  0.4295
 1110TIP3    H224822   4.036   0.277   1.549 -1.8603 -0.0669 -1.4464
 1111TIP3   OH224823   5.798   5.035   3.747 -0.3809  0.1483  0.0870
 1111TIP3    H124824   5.747   4.969   3.795 -0.0356 -0.7356 -0.7244
 1111TIP3    H224825   5.868   4.985   3.705  0.0074  1.0712 -0.3950
 1112TIP3   OH224826   5.801   3.989   3.279  0.3401  0.4529 -0.0572
 1112TIP3    H124827   5.748   4.009   3.202  0.9378  1.3858 -0.2378
 1112TIP3    H224828   5.847   4.070   3.298  2.6127 -0.6318 -0.5995
 1113TIP3   OH224829   4.969   5.220  11.141 -0.0997 -0.2034  0.3404
 1113TIP3    H124830   5.046   5.174  11.175 -0.9439 -0.4957  1.9263
 1113TIP3    H224831   4.897   5.191  11.197 -1.4864 -0.3275 -1.4139
 1114TIP3   OH224832   1.447   5.227   2.611  0.2532 -0.2285  0.0989
 1114TIP3    H124833   1.525   5.258   2.564  1.3208 -1.2268  1.1380
 1114TIP3    H224834   1.434   5.291   2.680  1.0978 -0.8623  0.8629
 1115TIP3   OH224835   0.377   2.981   6.170  0.0186 -0.1953  0.0972
 1115TIP3    H124836   0.361   2.908   6.230 -0.5668  1.0467  1.5134
 1115TIP3    H224837   0.439   2.946   6.105  1.8407 -1.1938  2.2453
 1116TIP3   OH224838   2.688   4.360   0.197  0.2673 -0.0278  0.3604
 1116TIP3    H124839   2.745   4.358   0.275  2.3750  0.6008 -1.0755
 1116TIP3    H224840   2.714   4.439   0.150 -0.2814 -0.8689 -1.4557
 1117TIP3   OH224841   6.531   5.690   4.692  0.1428  0.4358 -0.0234
 1117TIP3    H124842   6.574   5.607   4.671 -2.5814 -0.4383 -2.9518
 1117TIP3    H224843   6.510   5.683   4.785  0.3102 -2.0663 -0.0948
 1118TIP3   OH224844   0.665   1.487   3.967 -0.0197 -0.5558 -0.3354
 1118TIP3    H124845   0.639   1.554   4.030 -1.2743 -1.3571  0.0379
 1118TIP3    H224846   0.583   1.462   3.923  0.7668 -0.3003 -2.0197
 1119TIP3   OH224847   4.031   2.715  10.854 -0.5186  0.0789 -0.5702
 1119TIP3    H124848   3.961   2.692  10.793  0.6642 -2.2215 -1.2044
 1119TIP3    H224849   4.070   2.794  10.817  0.4130 -1.4598 -3.1538
 1120TIP3   OH224850   0.985   4.206  15.480 -0.1731 -0.3715  0.1703
 1120TIP3    H124851   0.982   4.293  15.520  0.2412  0.7081 -1.9575
 1120TIP3    H224852   1.067   4.168  15.511  1.9643  1.8521 -2.1710
 1121TIP3   OH224853   2.078   1.438  15.892 -0.0189  0.5465 -0.4208
 1121TIP3    H124854   2.155   1.442  15.949 -0.1394  1.2886 -0.2994
 1121TIP3    H224855   2.026   1.366  15.928 -0.6041  1.6587  1.0754
 1122TIP3   OH224856   4.768   3.634   3.717 -0.3582  0.4214 -0.1517
 1122TIP3    H124857   4.688   3.602   3.759 -0.4612 -0.4114 -0.9427
 1122TIP3    H224858   4.772   3.586   3.634  1.7272 -0.6656  0.4894
 1123TIP3   OH224859   5.188   6.059  12.562  0.1176  0.5679 -0.0507
 1123TIP3    H124860   5.130   6.011  12.503  0.0205  0.5512  0.0593
 1123TIP3    H224861   5.220   5.994  12.624 -0.5467  0.7714  0.5168
 1124TIP3   OH224862   6.679   5.160  16.214  0.1700  0.3427 -0.1723
 1124TIP3    H124863   6.624   5.090  16.248  1.1135  0.1477  1.0562
 1124TIP3    H224864   6.745   5.116  16.161  0.1260  0.4026 -0.2758
 1125TIP3   OH224865   2.699   0.514   6.248 -0.1718  0.3651 -0.4650
 1125TIP3    H124866   2.771   0.469   6.292 -0.7594 -0.7803 -0.6580
 1125TIP3    H224867   2.673   0.456   6.177 -1.3399  0.7300 -0.3620
 1126TIP3   OH224868   4.493   5.126   1.877 -0.7184 -0.3888  0.2013
 1126TIP3    H124869   4.495   5.040   1.919  1.0570 -0.8327 -0.7057
 1126TIP3    H224870   4.503   5.188   1.949  0.4643 -1.0600  0.6365
 1127TIP3   OH224871   6.566   2.617   3.463  0.0442  0.2911  0.3900
 1127TIP3    H124872   6.502   2.606   3.533 -1.1148  1.0211 -0.5406
 1127TIP3    H224873   6.622   2.689   3.493  0.4871 -0.3735  1.2195
 1128TIP3   OH224874   0.726   2.772   2.513 -0.6889 -0.4834  0.4592
 1128TIP3    H124875   0.799   2.786   2.574  0.3145  0.7245 -0.9386
 1128TIP3    H224876   0.685   2.858   2.505 -1.6669 -0.9406  0.4763
 1129TIP3   OH224877   6.234   0.955  15.511 -0.2311 -0.1082  0.3007
 1129TIP3    H124878   6.227   0.861  15.526 -1.7670 -0.0000  0.3763
 1129TIP3    H224879   6.280   0.989  15.588  1.2721 -0.8992 -0.1986
 1130TIP3   OH224880   1.811   1.140  11.746 -0.2460 -0.1799 -0.6495
 1130TIP3    H124881   1.757   1.210  11.784  0.0297 -1.0233  1.4740
 1130TIP3    H224882   1.750   1.087  11.696 -0.9712  0.1380 -0.1299
 1131TIP3   OH224883   0.513   2.857  16.218  0.1359 -0.0471 -0.0033
 1131TIP3    H124884   0.500   2.860  16.123 -0.9691  0.0695  0.1358
 1131TIP3    H224885   0.485   2.944  16.248 -1.0148 -0.6071  0.5868
 1132TIP3   OH224886   2.632   3.766  11.923  0.5634 -0.4417 -0.8484
 1132TIP3    H124887   2.682   3.697  11.879 -1.9801 -3.9060  1.1868
 1132TIP3    H224888   2.541   3.748  11.899 -0.5610 -0.2983  2.7595
 1133TIP3   OH224889   4.951   3.188   1.546  0.1853 -0.0491 -0.1145
 1133TIP3    H124890   4.931   3.232   1.463  1.2213  0.1579 -0.2685
 1133TIP3    H224891   4.880   3.124   1.557 -1.1283  1.3587 -0.0877
 1134TIP3   OH224892   6.771   3.308  12.425  0.6655  0.1479 -0.5034
 1134TIP3    H124893   6.741   3.283  12.512 -1.4054  2.0253 -0.5636
 1134TIP3    H224894   6.836   3.376  12.441 -0.7885  1.5773 -0.3375
 1135TIP3   OH224895   2.684   0.203  15.446  0.2677  0.0106 -0.3643
 1135TIP3    H124896   2.730   0.140  15.501  3.2542  0.4176 -2.1738
 1135TIP3    H224897   2.713   0.289  15.478  1.7293  0.2556 -2.1484
 1136TIP3   OH224898   4.889   3.000  12.679  0.2180  0.3368  0.3647
 1136TIP3    H124899   4.979   3.013  12.709 -0.2184  2.6533  0.8167
 1136TIP3    H224900   4.837   3.000  12.759 -0.3547  0.6696 -0.0040
 1137TIP3   OH224901   6.708   4.578  13.215  0.7303 -0.1295  0.0638
 1137TIP3    H124902   6.681   4.584  13.123 -0.4231  0.4995  0.4282
 1137TIP3    H224903   6.740   4.489  13.225 -2.9124 -1.6166  0.0035
 1138TIP3   OH224904   3.612   0.172  11.970 -0.1974  0.3415 -0.4320
 1138TIP3    H124905   3.551   0.117  12.019 -1.9897  0.8758 -1.9513
 1138TIP3    H224906   3.585   0.262  11.990  2.1632  0.7770  1.3585
 1139TIP3   OH224907   0.729   5.653  14.036  0.0780  0.1598 -0.3017
 1139TIP3    H124908   0.792   5.700  13.982 -1.2405  1.2288 -0.9852
 1139TIP3    H224909   0.650   5.648  13.982 -0.5874 -0.7299  0.6989
 1140TIP3   OH224910   2.677   5.015   3.163 -0.1165  0.1721  0.2809
 1140TIP3    H124911   2.682   5.063   3.245  0.4529  0.0185  0.3376
 1140TIP3    H224912   2.677   5.083   3.095  3.9538  0.2991  0.1657
 1141TIP3   OH224913   3.749   0.609   4.645  0.2933  0.0563 -0.0365
 1141TIP3    H124914   3.824   0.555   4.621  1.3966  1.8841 -0.9305
 1141TIP3    H224915   3.697   0.615   4.564 -0.3031 -0.3935  0.3064
 1142TIP3   OH224916   4.271   2.887  16.514  0.0933 -0.0314 -0.6720
 1142TIP3    H124917   4.283   2.951  16.584  1.0434  1.1417 -1.8746
 1142TIP3    H224918   4.330   2.815  16.538  0.3046  0.2976 -0.1838
 1143TIP3   OH224919   1.679   0.804  12.485 -0.2046 -0.0180  0.2520
 1143TIP3    H124920   1.593   0.774  12.515 -0.1887  0.0846  0.4044
 1143TIP3    H224921   1.665   0.896  12.461  0.0661  0.2781  1.1657
 1144TIP3   OH224922   0.822   4.055  12.597 -0.4687  0.4667 -0.5989
 1144TIP3    H124923   0.892   4.121  12.595  0.7626 -0.7092  0.9439
 1144TIP3    H224924   0.745   4.100  12.564  0.1175  2.9202  1.1487
 1145TIP3   OH224925   0.856   3.911  11.845  0.3351  0.1660  0.0026
 1145TIP3    H124926   0.802   3.833  11.832  0.0864  0.2775  0.3418
 1145TIP3    H224927   0.942   3.887  11.811  0.8759 -1.0151  2.0474
 1146TIP3   OH224928   0.590   5.595   1.382 -0.7513 -0.2867 -0.1431
 1146TIP3    H124929   0.680   5.603   1.412 -0.0381  0.9822 -2.3914
 1146TIP3    H224930   0.585   5.507   1.344  0.1710  0.3130 -1.7518
 1147TIP3   OH224931   3.936   3.513   0.810 -0.6260 -0.4983 -0.1723
 1147TIP3    H124932   3.917   3.456   0.735 -1.4337 -0.2734 -0.1381
 1147TIP3    H224933   4.019   3.556   0.786 -0.3848 -1.1304 -0.5165
 1148TIP3   OH224934   4.437   4.613  16.210 -0.3794 -0.1911 -0.3503
 1148TIP3    H124935   4.341   4.607  16.208 -0.7468  3.6576 -0.4530
 1148TIP3    H224936   4.458   4.629  16.301 -0.2084  2.1284 -0.7425
 1149TIP3   OH224937   1.624   3.000   2.653 -0.2711  0.1641  0.2341
 1149TIP3    H124938   1.552   3.049   2.692  0.3470 -0.0584  1.7024
 1149TIP3    H224939   1.639   2.927   2.714 -0.6539 -1.4351 -1.4865
 1150TIP3   OH224940   4.115   1.853   0.394  0.2178 -0.1807 -0.1816
 1150TIP3    H124941   4.061   1.903   0.331 -0.0720 -1.1170 -0.6929
 1150TIP3    H224942   4.122   1.911   0.470  0.0300  0.7137 -0.8210
 1151TIP3   OH224943   6.513   6.358  11.552 -0.3534 -0.2633 -0.0396
 1151TIP3    H124944   6.518   6.428  11.616  2.2037 -1.2190  0.9658
 1151TIP3    H224945   6.426   6.319  11.564 -1.6509  2.3485 -0.3267
 1152TIP3   OH224946   2.630   3.100  13.985  0.1590  0.3138  0.7889
 1152TIP3    H124947   2.550   3.146  14.009  0.2591  1.0765 -0.2345
 1152TIP3    H224948   2.647   3.127  13.895  1.1940 -0.3748  0.7516
 1153TIP3   OH224949   4.621   1.426   0.881  0.2153 -0.2090 -0.5536
 1153TIP3    H124950   4.644   1.344   0.927 -0.0186  1.3734  2.6848
 1153TIP3    H224951   4.565   1.398   0.809 -2.2280 -2.8244  2.0765
 1154TIP3   OH224952   2.108   0.679  12.969  0.4614  0.0576 -0.4931
 1154TIP3    H124953   2.142   0.708  12.883  0.3380 -2.3537 -1.4253
 1154TIP3    H224954   2.179   0.697  13.030  0.9623  0.8587 -1.2884
 1155TIP3   OH224955   1.468   6.042   3.447  0.6653 -0.2345 -0.1671
 1155TIP3    H124956   1.415   5.974   3.489  0.4478  1.3079  2.3107
 1155TIP3    H224957   1.408   6.084   3.385  0.7146 -2.0111 -1.4973
 1156TIP3   OH224958   6.212   6.144   5.117 -0.4320 -0.3754 -0.1582
 1156TIP3    H124959   6.249   6.188   5.041 -1.7399 -0.2065 -0.7200
 1156TIP3    H224960   6.188   6.216   5.176  0.6859 -0.5072  0.5053
 1157TIP3   OH224961   5.127   1.402  12.730  0.0153 -0.0203  0.2969
 1157TIP3    H124962   5.089   1.316  12.711  0.9403 -0.2562 -0.5671
 1157TIP3    H224963   5.189   1.386  12.802  2.0399 -0.6021 -1.4939
 1158TIP3   OH224964   0.352   5.433   5.241 -0.2709 -0.2546  0.4050
 1158TIP3    H124965   0.369   5.362   5.180 -1.4351  0.3485 -0.6588
 1158TIP3    H224966   0.260   5.455   5.228  0.2308  1.9500  0.1246
 1159TIP3   OH224967   5.006   5.197  16.619 -0.4912  0.4734  0.3310
 1159TIP3    H124968   4.967   5.145  16.689 -0.6532  1.8480  1.3016
 1159TIP3    H224969   4.932   5.229  16.567 -0.3921 -0.2514 -0.2742
 1160TIP3   OH224970   4.509   1.858   3.371  0.7662  0.3083  0.1092
 1160TIP3    H124971   4.479   1.845   3.281 -0.7039 -0.4744  0.6700
 1160TIP3    H224972   4.604   1.851   3.366  0.7101  0.2543 -1.3770
 1161TIP3   OH224973   3.420   4.513  16.267 -0.0861  0.1331  0.3921
 1161TIP3    H124974   3.386   4.602  16.267 -1.3648 -0.3449 -0.1597
 1161TIP3    H224975   3.430   4.491  16.359 -0.0893  0.7146  0.5345
 1162TIP3   OH224976   0.355   1.722   5.507 -0.3988  0.1208  0.0509
 1162TIP3    H124977   0.342   1.646   5.565 -0.9141  0.6545  0.6534
 1162TIP3    H224978   0.436   1.703   5.460 -0.3847 -0.6841  0.3860
 1163TIP3   OH224979   3.952   4.710   5.009 -0.1865 -0.2174  0.1102
 1163TIP3    H124980   4.003   4.737   4.932 -0.3972  3.9460  1.2043
 1163TIP3    H224981   3.997   4.751   5.083 -3.1577  0.8193  1.4763
 1164TIP3   OH224982   3.383   6.010  12.755  0.2821  0.0183  0.3286
 1164TIP3    H124983   3.374   6.008  12.850 -0.6430 -2.9667  0.2845
 1164TIP3    H224984   3.463   5.961  12.737  1.5090  2.1611 -0.4411
 1165TIP3   OH224985   1.910   3.180  11.871 -0.0882 -0.2603  0.0895
 1165TIP3    H124986   1.962   3.101  11.858  0.4930  0.3831 -1.8002
 1165TIP3    H224987   1.855   3.160  11.946  0.8025 -2.0542  0.3184
 1166TIP3   OH224988   4.020   5.174   5.935 -0.0561 -0.4472 -0.1941
 1166TIP3    H124989   3.939   5.225   5.942  0.3262  0.1263  0.0864
 1166TIP3    H224990   3.999   5.106   5.871 -0.6436 -0.0738 -0.4148
 1167TIP3   OH224991   2.452   1.479  16.663 -0.8417  0.0336  0.0351
 1167TIP3    H124992   2.512   1.432  16.605 -0.1970  0.8467  0.0413
 1167TIP3    H224993   2.449   1.568  16.629 -0.8555  0.3894  0.9376
 1168TIP3   OH224994   0.632   5.703   2.228 -0.1797  0.4139  0.4435
 1168TIP3    H124995   0.660   5.783   2.271 -1.4579  0.5141  1.1329
 1168TIP3    H224996   0.627   5.638   2.298 -0.0674 -0.0286  0.0515
 1169TIP3   OH224997   1.686   1.342  14.663 -0.1015  0.5376 -0.1982
 1169TIP3    H124998   1.631   1.417  14.684 -0.2353  0.5349 -0.5302
 1169TIP3    H224999   1.751   1.376  14.601 -0.1704  0.3794 -0.3601
 1170TIP3   OH225000   4.634   3.297  11.874  0.3400 -0.4252  0.1847
 1170TIP3    H125001   4.622   3.266  11.964 -0.1736 -0.0304  0.2543
 1170TIP3    H225002   4.585   3.379  11.870  2.0230  0.6109  0.1123
 1171TIP3   OH225003   1.161   4.411   4.668  0.2612  0.2571 -0.4823
 1171TIP3    H125004   1.104   4.480   4.702  0.6636  0.4166 -0.1236
 1171TIP3    H225005   1.250   4.444   4.680  0.4524 -0.2345 -0.4854
 1172TIP3   OH225006   2.605   2.278   0.747 -0.4150  0.1027  0.1033
 1172TIP3    H125007   2.682   2.223   0.735 -0.7600 -0.9603  2.2313
 1172TIP3    H225008   2.553   2.265   0.667  0.6891 -0.6836 -0.5130
 1173TIP3   OH225009   0.838   0.979   3.150  0.5694 -0.2668 -0.2181
 1173TIP3    H125010   0.868   1.058   3.105  0.6471 -0.5840 -0.7308
 1173TIP3    H225011   0.846   0.909   3.084  2.9121 -1.2030  0.9477
 1174TIP3   OH225012   0.116   4.268  12.350 -0.6215 -0.0371  0.0451
 1174TIP3    H125013   0.154   4.201  12.292 -1.6968  0.5235 -1.3574
 1174TIP3    H225014   0.170   4.345  12.336 -0.1233 -0.2529  0.7458
 1175TIP3   OH225015   6.673   1.160   2.518 -0.1583  0.0032  0.6035
 1175TIP3    H125016   6.580   1.171   2.539  0.1480  2.5069  0.9800
 1175TIP3    H225017   6.678   1.181   2.424 -0.0460 -0.9013  0.3940
 1176TIP3   OH225018   2.074   1.746  11.741 -0.3123 -0.0485 -0.2925
 1176TIP3    H125019   2.069   1.832  11.784  0.0920  0.1738 -0.6739
 1176TIP3    H225020   2.008   1.750  11.673 -0.4313 -0.1166 -0.1812
 1177TIP3   OH225021   3.359   3.438  13.624  0.0053  0.7872 -0.8490
 1177TIP3    H125022   3.311   3.450  13.542 -1.9443 -0.9357 -0.0586
 1177TIP3    H225023   3.313   3.493  13.687  0.1311  0.4397 -0.4510
 1178TIP3   OH225024   1.391   3.496  11.721 -0.1823  0.6284  0.0184
 1178TIP3    H125025   1.306   3.513  11.681 -0.3708 -0.1654  0.0617
 1178TIP3    H225026   1.404   3.568  11.782 -1.0949  0.4375  0.4509
 1179TIP3   OH225027   3.890   0.301   3.010 -0.5679  0.3009 -0.0451
 1179TIP3    H125028   3.802   0.267   3.025 -0.6331  0.5328  0.1102
 1179TIP3    H225029   3.938   0.229   2.969 -0.2256 -0.5462  1.7760
 1180TIP3   OH225030   6.445   5.711  10.935 -0.3698 -0.3340 -0.3046
 1180TIP3    H125031   6.464   5.733  10.844 -1.7305 -1.4195 -0.8666
 1180TIP3    H225032   6.512   5.646  10.958 -0.5456 -0.6995 -0.8056
 1181TIP3   OH225033   4.269   5.111   3.905  0.1242  0.1099 -0.0861
 1181TIP3    H125034   4.276   5.017   3.888  0.8345  0.4531 -1.8805
 1181TIP3    H225035   4.348   5.133   3.954 -0.3498 -0.3048  0.9075
 1182TIP3   OH225036   2.115   4.673  14.660  0.1160  0.0361  0.5065
 1182TIP3    H125037   2.086   4.714  14.741 -0.8450 -0.2560  0.3200
 1182TIP3    H225038   2.035   4.653  14.613  0.6510 -0.1554 -0.3461
 1183TIP3   OH225039   5.112   0.208  16.832 -0.1009  0.5017 -0.2222
 1183TIP3    H125040   5.109   0.141  16.763  0.3315  1.6070 -1.3460
 1183TIP3    H225041   5.193   0.190  16.880  0.2761  0.5253 -0.8410
 1184TIP3   OH225042   6.137   2.517   5.508 -0.2039 -0.1308  0.2543
 1184TIP3    H125043   6.206   2.573   5.545 -2.0222  1.6579  1.1675
 1184TIP3    H225044   6.183   2.456   5.451  2.1388  0.8419  0.9872
 1185TIP3   OH225045   5.011   6.702  13.028  0.2271  0.8038 -0.2376
 1185TIP3    H125046   4.925   6.741  13.012 -0.1861  0.0270  0.0316
 1185TIP3    H225047   5.017   6.697  13.124 -0.2279 -0.8423 -0.2725
 1186TIP3   OH225048   3.248   6.620  14.174  0.5264  0.3835  0.3343
 1186TIP3    H125049   3.277   6.533  14.146 -0.2253  0.3162 -0.2518
 1186TIP3    H225050   3.214   6.661  14.095 -0.7465  0.5586  0.9419
 1187TIP3   OH225051   0.060   0.820  17.045  0.3726 -0.4076  0.0013
 1187TIP3    H125052   0.070   0.799  17.138  1.5525  1.3804  0.3115
 1187TIP3    H225053   0.128   0.770  17.001  0.2700 -0.6996  0.1710
 1188TIP3   OH225054   3.019   0.445  11.199 -0.5784  0.2988 -0.0377
 1188TIP3    H125055   3.001   0.476  11.110  2.2725  1.2594 -0.3760
 1188TIP3    H225056   2.976   0.510  11.256 -0.2710  1.1441 -0.7456
 1189TIP3   OH225057   2.079   3.727  11.520 -0.0681 -0.6768 -0.0877
 1189TIP3    H125058   2.112   3.743  11.609 -1.9077  0.3725  0.4551
 1189TIP3    H225059   2.095   3.809  11.473 -0.5561 -0.6646 -0.2383
 1190TIP3   OH225060   3.977   0.692  12.264  0.0804  0.2058 -0.3136
 1190TIP3    H125061   3.959   0.769  12.210  0.0257 -0.3887 -1.1616
 1190TIP3    H225062   3.959   0.617  12.206  1.4678 -0.4321  0.0399
 1191TIP3   OH225063   0.849   0.743  10.115 -0.5540 -0.5828  0.6282
 1191TIP3    H125064   0.918   0.753  10.181 -0.1530 -0.9603  0.2761
 1191TIP3    H225065   0.868   0.659  10.074  1.1801  1.0768 -2.2379
 1192TIP3   OH225066   5.703   1.379   1.988 -0.2142 -0.0709 -0.4096
 1192TIP3    H125067   5.611   1.403   1.985 -0.2985 -0.4014 -0.5217
 1192TIP3    H225068   5.744   1.431   1.918 -0.1722  0.6467  0.1348
 1193TIP3   OH225069   5.356   0.518   3.530  0.2454 -0.1248 -0.3911
 1193TIP3    H125070   5.429   0.523   3.469  0.6852  2.6031  0.2292
 1193TIP3    H225071   5.397   0.509   3.616 -0.3125 -2.1844 -0.2889
 1194TIP3   OH225072   2.358   4.107  14.242  0.0404  0.2020 -0.1559
 1194TIP3    H125073   2.293   4.177  14.244  0.5297  0.6868  2.3688
 1194TIP3    H225074   2.307   4.027  14.232 -0.6353  0.7770 -1.6083
 1195TIP3   OH225075   6.809   6.149  14.621 -0.6113  0.0904  0.0970
 1195TIP3    H125076   6.863   6.162  14.543 -2.1589  0.5519 -0.9285
 1195TIP3    H225077   6.846   6.071  14.662  0.7974  0.3575 -0.5853
 1196TIP3   OH225078   3.867   3.271  10.987 -0.4234  0.0161 -0.3217
 1196TIP3    H125079   3.825   3.190  11.016 -0.2330  0.1087  0.2415
 1196TIP3    H225080   3.863   3.268  10.892 -0.1730 -0.7952 -0.3158
 1197TIP3   OH225081   0.262   4.127   1.352  0.1286  0.7904  0.3125
 1197TIP3    H125082   0.247   4.032   1.351 -0.8559  0.9068  1.6778
 1197TIP3    H225083   0.177   4.165   1.331  0.8569  1.3924 -1.7340
 1198TIP3   OH225084   5.245   3.696  13.307  0.1355  0.4835  0.3891
 1198TIP3    H125085   5.180   3.688  13.237  0.1880  0.6826  0.3161
 1198TIP3    H225086   5.197   3.734  13.381 -0.3540 -1.3567  1.0724
 1199TIP3   OH225087   2.576   5.915   4.596  0.2058 -0.0691  0.1202
 1199TIP3    H125088   2.495   5.889   4.638 -0.1825 -1.8678 -1.5954
 1199TIP3    H225089   2.604   5.838   4.546  2.4742  0.8063 -0.1101
 1200TIP3   OH225090   3.690   0.235   4.639 -0.1594  0.3995 -0.5643
 1200TIP3    H125091   3.649   0.149   4.628 -0.5489  0.6916 -1.4887
 1200TIP3    H225092   3.645   0.273   4.715  0.0718 -0.2431 -0.1001
 1201TIP3   OH225093   4.590   6.812  14.282 -0.1136 -0.1548  0.2915
 1201TIP3    H125094   4.662   6.818  14.344 -0.0887  4.0968  0.1268
 1201TIP3    H225095   4.515   6.786  14.336  0.8203 -1.2556  1.1138
 1202TIP3   OH225096   3.452   1.889  17.125 -0.0094 -0.0731 -0.4537
 1202TIP3    H125097   3.395   1.825  17.081 -0.6317 -0.6157  1.0863
 1202TIP3    H225098   3.517   1.836  17.171 -0.1517  0.4193  0.3268
 1203TIP3   OH225099   5.430   3.980  12.222  0.1037 -0.7977  0.4863
 1203TIP3    H125100   5.336   3.967  12.231 -0.5139  1.7753 -1.0347
 1203TIP3    H225101   5.438   4.058  12.166  3.1487 -1.6309 -0.4482
 1204TIP3   OH225102   3.523   2.022  12.392 -0.4385 -0.3721 -0.8737
 1204TIP3    H125103   3.539   1.996  12.482  0.8581  1.5613 -0.4953
 1204TIP3    H225104   3.510   1.939  12.345  1.5929 -1.5870  0.5720
 1205TIP3   OH225105   3.942   3.918  16.483  0.2981  0.3219 -0.3671
 1205TIP3    H125106   3.936   3.864  16.562 -1.3550  0.5840 -0.2735
 1205TIP3    H225107   3.957   3.855  16.412  0.0020 -0.1042 -0.0575
 1206TIP3   OH225108   0.459   3.484  11.962  0.1309 -0.3974  0.3942
 1206TIP3    H125109   0.378   3.514  11.920  0.4579 -1.2963 -0.9605
 1206TIP3    H225110   0.483   3.554  12.023 -1.0191  0.4178 -0.0696
 1207TIP3   OH225111   2.719   1.069   5.586 -0.3051 -0.0030  0.1721
 1207TIP3    H125112   2.776   1.131   5.539 -0.4460  0.0948  0.1292
 1207TIP3    H225113   2.703   0.999   5.522 -1.2595  0.5843 -0.2640
 1208TIP3   OH225114   0.767   2.772  11.778  0.0251 -0.0298 -0.2168
 1208TIP3    H125115   0.791   2.833  11.847 -1.4366  0.8848 -0.4776
 1208TIP3    H225116   0.807   2.689  11.805  0.8517  0.6896  0.8694
 1209TIP3   OH225117   0.322   6.420  11.849  0.1445 -0.0292 -0.4183
 1209TIP3    H125118   0.244   6.457  11.808  0.8750  1.5012 -0.5109
 1209TIP3    H225119   0.317   6.448  11.941  1.8256  2.3985 -0.9560
 1210TIP3   OH225120   3.442   1.274  14.042 -0.2569  0.1806 -0.2675
 1210TIP3    H125121   3.470   1.182  14.042 -0.7258  0.0284 -1.0957
 1210TIP3    H225122   3.520   1.323  14.017  0.4719  0.1911  1.8335
 1211TIP3   OH225123   0.456   2.209   1.881 -0.2926  0.4546 -0.2612
 1211TIP3    H125124   0.545   2.242   1.890 -0.0753 -0.3447  0.7630
 1211TIP3    H225125   0.415   2.230   1.965 -1.5225  2.0301 -1.1874
 1212TIP3   OH225126   4.646   3.699  16.020 -0.0155 -0.2564 -0.3767
 1212TIP3    H125127   4.712   3.640  16.057 -1.1306 -1.1471  0.2323
 1212TIP3    H225128   4.689   3.737  15.943  0.9769 -1.3059 -0.3702
 1213TIP3   OH225129   3.788   0.002  15.298  0.2073 -0.2224 -0.0987
 1213TIP3    H125130   3.786   0.078  15.241 -0.0782  0.0531  0.2749
 1213TIP3    H225131   3.879  -0.027  15.297  0.2521 -0.0639 -0.4867
 1214TIP3   OH225132   4.639   6.323   1.739  0.1353  0.7295  0.4079
 1214TIP3    H125133   4.602   6.243   1.777  0.1689 -0.2451 -1.4847
 1214TIP3    H225134   4.733   6.306   1.736 -0.1139 -1.0713 -3.7811
 1215TIP3   OH225135   6.312   0.004  12.495  0.1969  0.4832 -0.4228
 1215TIP3    H125136   6.235  -0.047  12.518  1.0026 -1.8441 -2.3606
 1215TIP3    H225137   6.285   0.095  12.502 -2.1288 -0.2452  0.7420
 1216TIP3   OH225138   2.107   3.055   2.078  0.2140 -0.3168  0.0029
 1216TIP3    H125139   2.144   3.073   2.165 -0.0955  1.2108 -0.1633
 1216TIP3    H225140   2.017   3.089   2.083  0.7215  1.3509 -1.4341
 1217TIP3   OH225141   2.039   5.552   5.437 -0.2205 -0.7399  0.0118
 1217TIP3    H125142   1.951   5.554   5.474 -0.5817  0.2353 -0.8341
 1217TIP3    H225143   2.043   5.468   5.391 -0.5895 -0.9352  0.3256
 1218TIP3   OH225144   4.088   6.069  13.121  0.7793 -0.3345  0.1632
 1218TIP3    H125145   4.022   6.063  13.190  1.5163 -0.7008  0.8526
 1218TIP3    H225146   4.081   6.159  13.089 -0.6902 -0.6421 -0.4321
 1219TIP3   OH225147   5.346   3.625  12.995  0.3739 -0.6962 -1.0271
 1219TIP3    H125148   5.282   3.571  13.041  0.8408 -0.4933 -0.1006
 1219TIP3    H225149   5.407   3.653  13.064 -0.6963  2.2666 -1.1578
 1220TIP3   OH225150   2.042   1.579  13.818  0.4742 -0.1310  0.2779
 1220TIP3    H125151   2.072   1.503  13.769 -1.7291 -0.8485 -0.0771
 1220TIP3    H225152   1.972   1.545  13.875 -0.9696  1.6793 -0.3137
 1221TIP3   OH225153   6.363   1.686   4.216 -0.2790 -0.1883 -0.2252
 1221TIP3    H125154   6.456   1.668   4.230  0.0910  0.4884 -1.6376
 1221TIP3    H225155   6.319   1.608   4.250  0.7482 -0.2945  0.9540
 1222TIP3   OH225156   6.702   6.660   0.444  0.0351 -0.2016  0.3529
 1222TIP3    H125157   6.613   6.633   0.424  0.2367 -3.2336  2.8055
 1222TIP3    H225158   6.740   6.682   0.359 -2.1929 -1.6239 -1.1249
 1223TIP3   OH225159   2.192   5.788  15.361  0.0848 -0.4727  0.0494
 1223TIP3    H125160   2.183   5.781  15.266 -0.3448 -2.5162  0.1953
 1223TIP3    H225161   2.192   5.697  15.392  0.9279  0.1220  1.9493
 1224TIP3   OH225162   3.634   3.026  14.521  0.3135  0.1514 -0.2220
 1224TIP3    H125163   3.586   3.050  14.600 -2.5423 -3.0932 -0.7257
 1224TIP3    H225164   3.680   2.945  14.545 -0.4567 -0.7824 -1.7647
 1225TIP3   OH225165   6.008   2.645  15.793 -0.0999  0.3659  0.2660
 1225TIP3    H125166   5.989   2.631  15.886  1.5774 -2.4016  0.3131
 1225TIP3    H225167   5.953   2.581  15.748  0.5606  0.3075 -0.4761
 1226TIP3   OH225168   5.177   2.239  10.291  0.1735 -0.3953  0.5770
 1226TIP3    H125169   5.248   2.297  10.317  0.9572  0.1410 -2.3659
 1226TIP3    H225170   5.098   2.293  10.297  0.3007 -0.3271  1.7932
 1227TIP3   OH225171   2.244   6.632  15.110 -0.2839 -0.0507  0.7841
 1227TIP3    H125172   2.301   6.708  15.124 -0.8052  0.1381  1.9748
 1227TIP3    H225173   2.262   6.606  15.019  0.7021  0.8193  0.7015
 1228TIP3   OH225174   3.444   3.092   0.990 -0.3044 -0.1414  0.0904
 1228TIP3    H125175   3.477   3.108   1.078  0.1267  1.2299 -0.3016
 1228TIP3    H225176   3.363   3.043   1.004  1.0696 -2.3026  1.1192
 1229TIP3   OH225177   5.890   1.640  16.231 -0.0628  0.5552  0.1861
 1229TIP3    H125178   5.864   1.668  16.318 -0.3120 -0.0877  0.3243
 1229TIP3    H225179   5.841   1.696  16.171  0.9211  1.7393  0.4477
 1230TIP3   OH225180   1.864   6.077   3.107 -0.4515  0.0309 -0.1937
 1230TIP3    H125181   1.793   6.113   3.055 -0.0194  1.2728  0.0413
 1230TIP3    H225182   1.824   6.063   3.193 -0.4529  0.6456 -0.0847
 1231TIP3   OH225183   2.434   1.906   6.006  0.4983  0.1690 -0.6943
 1231TIP3    H125184   2.467   1.834   6.060  0.2915 -1.1970 -2.3115
 1231TIP3    H225185   2.403   1.971   6.069  1.6503 -0.6953  0.8245
 1232TIP3   OH225186   6.244   6.707   4.910  0.1670 -0.1277 -0.2578
 1232TIP3    H125187   6.194   6.720   4.991 -0.7721  0.3079 -0.8922
 1232TIP3    H225188   6.258   6.795   4.876  2.0034 -0.1856  0.2621
 1233TIP3   OH225189   3.693   0.146  13.455 -0.0430 -0.0373  0.2308
 1233TIP3    H125190   3.616   0.186  13.413  0.2650  0.1813 -0.1389
 1233TIP3    H225191   3.685   0.169  13.547 -0.7082 -0.4814  0.2913
 1234TIP3   OH225192   3.331   4.858   0.049 -0.2575  0.0618  0.8385
 1234TIP3    H125193   3.361   4.768   0.036  2.3786  1.1252 -1.4266
 1234TIP3    H225194   3.281   4.855   0.131 -1.3492 -3.6381  0.2436
 1235TIP3   OH225195   0.811   5.222   0.546 -0.3842 -0.2608 -0.4640
 1235TIP3    H125196   0.888   5.170   0.569 -0.5875 -2.0052 -3.2688
 1235TIP3    H225197   0.791   5.272   0.625  1.8499 -1.9522  1.2921
 1236TIP3   OH225198   2.868   1.581  14.993 -0.2996  0.1675 -0.1240
 1236TIP3    H125199   2.934   1.514  15.010  2.4296  2.7797  0.5503
 1236TIP3    H225200   2.891   1.616  14.907 -1.6284  0.3320 -0.4352
 1237TIP3   OH225201   2.021   4.347   5.431 -0.3173  0.0713  0.7881
 1237TIP3    H125202   1.998   4.300   5.511  2.6959 -1.8332  0.7328
 1237TIP3    H225203   2.116   4.360   5.438 -0.3489  2.0628 -1.3801
 1238TIP3   OH225204   3.136   4.372   0.402 -0.3721 -0.2538 -0.4145
 1238TIP3    H125205   3.133   4.276   0.402  0.2203 -0.2861 -1.5287
 1238TIP3    H225206   3.123   4.396   0.494 -1.2967 -1.3662 -0.2245
 1239TIP3   OH225207   2.018   1.732   6.042  0.0102 -0.5902 -0.2944
 1239TIP3    H125208   1.998   1.806   6.100  0.1081 -0.6467 -0.1891
 1239TIP3    H225209   1.946   1.671   6.056  1.6031 -2.0965  2.2085
 1240TIP3   OH225210   4.314   5.068   1.671 -0.2858  0.4837  0.9866
 1240TIP3    H125211   4.364   5.116   1.737 -0.2092  0.6145  0.8370
 1240TIP3    H225212   4.368   4.992   1.651  0.2449  1.0357  0.2492
 1241TIP3   OH225213   0.812   0.524  13.338 -0.0260 -0.6035 -0.1139
 1241TIP3    H125214   0.854   0.441  13.316 -0.3689 -1.2582  1.5685
 1241TIP3    H225215   0.770   0.508  13.423  0.6260  1.5423  0.6676
 1242TIP3   OH225216   3.753   6.101  12.611 -0.4038  0.2062 -0.4769
 1242TIP3    H125217   3.718   6.080  12.697 -0.2316 -0.1585 -0.4940
 1242TIP3    H225218   3.834   6.148  12.629 -1.4686  2.1613 -0.4157
 1243TIP3   OH225219   0.471   6.475  13.408 -0.0745  0.4590  0.3192
 1243TIP3    H125220   0.492   6.506  13.496  1.4107 -0.0545  0.1664
 1243TIP3    H225221   0.533   6.520  13.351  1.0679 -1.5536 -0.0851
 1244TIP3   OH225222   3.346   4.178  11.305  0.0753  0.5899 -0.3061
 1244TIP3    H125223   3.305   4.092  11.319 -0.3048  0.3601 -2.5126
 1244TIP3    H225224   3.440   4.159  11.307  0.0004 -0.0991 -1.6773
 1245TIP3   OH225225   0.486   0.202  16.542 -0.4683  0.5253 -0.0360
 1245TIP3    H125226   0.518   0.178  16.629 -3.1304 -1.4415  0.5250
 1245TIP3    H225227   0.435   0.126  16.513 -1.0981  1.8097 -2.5923
 1246TIP3   OH225228   3.306   2.568   0.609  0.0537  0.2834 -0.4120
 1246TIP3    H125229   3.286   2.662   0.609 -1.0327  0.1338  1.9338
 1246TIP3    H225230   3.225   2.527   0.580 -0.3513 -0.0072  1.0806
 1247TIP3   OH225231   3.360   0.339   2.288 -0.0342  0.5365  0.4729
 1247TIP3    H125232   3.305   0.261   2.287  0.8721 -0.1292 -0.5060
 1247TIP3    H225233   3.377   0.358   2.195  1.2549  0.7991  0.7313
 1248TIP3   OH225234   2.309   0.111  10.633 -0.2869 -0.3040  0.6591
 1248TIP3    H125235   2.328   0.117  10.726 -1.1178  0.2274  0.8064
 1248TIP3    H225236   2.285   0.019  10.619 -0.1612 -0.3831  0.9661
 1249TIP3   OH225237   6.727   6.784  12.815 -0.7801  0.7842  0.1150
 1249TIP3    H125238   6.650   6.813  12.865 -1.6498  1.9726 -1.7681
 1249TIP3    H225239   6.801   6.829  12.857 -0.7115 -1.6724  3.0289
 1250TIP3   OH225240   4.761   6.253  11.788  0.2042  0.0191 -0.0978
 1250TIP3    H125241   4.756   6.346  11.808 -0.6923  0.2001 -1.1101
 1250TIP3    H225242   4.700   6.240  11.716  0.5950 -1.2888 -0.2221
 1251TIP3   OH225243   3.440   6.175   4.997  0.2435 -0.2513 -0.1445
 1251TIP3    H125244   3.393   6.116   5.056 -0.5737 -0.1096 -0.6537
 1251TIP3    H225245   3.478   6.117   4.931 -0.2056 -0.2517 -0.4041
 1252TIP3   OH225246   1.206   6.540  11.731 -0.1101 -0.1524 -0.2358
 1252TIP3    H125247   1.223   6.453  11.696 -0.5516 -1.2259  2.0359
 1252TIP3    H225248   1.157   6.585  11.662  2.3844 -0.6930 -2.5527
 1253TIP3   OH225249   4.953   5.702   3.455 -0.3531 -0.7180 -0.1578
 1253TIP3    H125250   5.006   5.623   3.454 -0.2278 -0.6654  1.1012
 1253TIP3    H225251   4.954   5.731   3.546 -1.0970  0.2621 -0.4409
 1254TIP3   OH225252   1.113   4.484  12.864 -0.2757 -0.3006 -0.5919
 1254TIP3    H125253   1.185   4.427  12.894 -0.2142 -1.1044 -2.1720
 1254TIP3    H225254   1.058   4.496  12.942  1.0816 -0.3991  0.4210
 1255TIP3   OH225255   5.246   0.723   4.655  0.0926 -0.0341  0.2234
 1255TIP3    H125256   5.338   0.724   4.679 -0.3612 -1.1858  2.2946
 1255TIP3    H225257   5.212   0.806   4.688  0.2846  0.1887 -0.1325
 1256TIP3   OH225258   1.819   5.421  11.528 -0.3945 -0.3602  1.1218
 1256TIP3    H125259   1.733   5.380  11.527 -0.3520 -0.6593  3.5440
 1256TIP3    H225260   1.803   5.512  11.503 -0.5894 -1.4392 -3.6368
 1257TIP3   OH225261   5.310   1.115   2.591 -0.1006 -0.1647 -0.3696
 1257TIP3    H125262   5.396   1.074   2.594  0.1104  0.3299  1.0362
 1257TIP3    H225263   5.324   1.197   2.542 -0.0057 -0.5778 -1.0442
 1258TIP3   OH225264   6.574   4.399   2.757  0.0803 -0.4750 -0.1204
 1258TIP3    H125265   6.552   4.449   2.678 -0.8696 -1.1527 -0.2879
 1258TIP3    H225266   6.568   4.463   2.828 -0.7045 -0.2505 -0.3885
 1259TIP3   OH225267   2.750   2.300   4.187 -0.3097 -0.4010  0.0313
 1259TIP3    H125268   2.829   2.297   4.242 -0.1168 -1.8285 -0.2826
 1259TIP3    H225269   2.678   2.292   4.250 -0.1516 -0.4367  0.2111
 1260TIP3   OH225270   3.055   6.029   4.739 -0.3764  0.1730 -0.1619
 1260TIP3    H125271   2.969   5.997   4.767 -0.5145  1.2731  0.7543
 1260TIP3    H225272   3.045   6.124   4.735  0.8939  0.3490  0.3137
 1261TIP3   OH225273   5.795   1.458  16.661  0.0199 -0.0418  0.6156
 1261TIP3    H125274   5.836   1.410  16.733 -0.2604 -0.2241  0.6550
 1261TIP3    H225275   5.702   1.458  16.682 -0.1975 -0.9839 -0.2666
 1262TIP3   OH225276   3.606   4.332   1.593 -0.1019 -0.4516  0.2174
 1262TIP3    H125277   3.678   4.300   1.647 -0.5575 -1.3213  0.3308
 1262TIP3    H225278   3.534   4.272   1.612 -0.6584  0.0134 -0.3858
 1263TIP3   OH225279   1.791   1.410  17.046  0.2926  0.2241 -0.5715
 1263TIP3    H125280   1.789   1.405  16.951  0.5369 -1.3684 -0.5162
 1263TIP3    H225281   1.883   1.422  17.069  0.3358 -0.2058 -0.5126
 1264TIP3   OH225282   4.033   0.412   1.899  0.4255 -0.1081 -0.5798
 1264TIP3    H125283   4.083   0.423   1.981 -1.4747  1.4196  0.4565
 1264TIP3    H225284   4.029   0.317   1.886  0.5325 -0.3999  1.2611
 1265TIP3   OH225285   6.312   0.028  16.439 -1.0917 -0.3687 -0.1402
 1265TIP3    H125286   6.265   0.030  16.522  0.0584 -1.6967  0.5925
 1265TIP3    H225287   6.334  -0.064  16.426 -0.2024 -0.0225 -1.3199
 1266TIP3   OH225288   2.416   2.586   5.420  0.2938  0.0715  0.1121
 1266TIP3    H125289   2.326   2.572   5.389  0.5011 -1.6553  0.2113
 1266TIP3    H225290   2.447   2.499   5.446  1.3684  0.9097  1.8473
 1267TIP3   OH225291   3.136   3.393   2.507  0.5604  0.2621 -0.0952
 1267TIP3    H125292   3.130   3.454   2.433 -0.7159  1.3772  0.8767
 1267TIP3    H225293   3.147   3.450   2.584 -1.3206 -0.6361  0.9176
 1268TIP3   OH225294   5.808   3.972  15.473 -0.3534 -0.0089 -0.1300
 1268TIP3    H125295   5.880   4.014  15.426  0.3603  0.0590  0.9839
 1268TIP3    H225296   5.729   4.003  15.429  0.2841 -0.1139 -1.4009
 1269TIP3   OH225297   0.269   2.929   1.226 -0.1010  0.5909  0.4395
 1269TIP3    H125298   0.316   2.914   1.145 -0.9165  0.8906 -0.1007
 1269TIP3    H225299   0.328   2.898   1.295  0.1548 -0.6628 -0.3265
 1270TIP3   OH225300   4.736   5.678  16.969  0.6440  0.5419 -0.2016
 1270TIP3    H125301   4.714   5.762  17.010 -0.2186 -0.3033  1.1317
 1270TIP3    H225302   4.824   5.691  16.935  0.2809  2.1982 -0.6167
 1271TIP3   OH225303   4.585   4.684  15.080  0.2226 -0.4711  0.1509
 1271TIP3    H125304   4.561   4.735  15.157 -0.2751 -0.4818  0.0027
 1271TIP3    H225305   4.672   4.649  15.100  0.1083 -0.4432  0.6861
 1272TIP3   OH225306   1.440   1.891   5.380 -0.0910 -0.1067 -0.5140
 1272TIP3    H125307   1.454   1.856   5.468  0.7453 -0.8799 -0.9354
 1272TIP3    H225308   1.361   1.847   5.349 -0.3478  0.1148 -0.1871
 1273TIP3   OH225309   4.258   6.477   2.528 -0.3026  0.1916 -0.0602
 1273TIP3    H125310   4.244   6.389   2.493 -0.0501  0.0799  0.1239
 1273TIP3    H225311   4.170   6.506   2.554  0.0075 -1.4535  3.3630
 1274TIP3   OH225312   2.787   5.390   2.175  0.1936  0.0028 -0.5821
 1274TIP3    H125313   2.830   5.453   2.232 -0.7313 -0.2235  0.3980
 1274TIP3    H225314   2.858   5.338   2.138  0.8296  0.2823  0.2223
 1275TIP3   OH225315   6.714   1.489  14.537 -0.0923 -0.1939 -0.8608
 1275TIP3    H125316   6.734   1.532  14.620 -0.2019  0.9332 -1.4056
 1275TIP3    H225317   6.712   1.396  14.559 -1.6303  0.1560  0.7335
 1276TIP3   OH225318   5.129   6.348   3.238  0.3478 -0.0428 -0.0573
 1276TIP3    H125319   5.155   6.432   3.275 -0.4778 -0.5145  1.7329
 1276TIP3    H225320   5.135   6.287   3.312 -1.5205 -1.0220 -0.6576
 1277TIP3   OH225321   3.639   3.295   5.284  0.0558 -0.0749  0.0820
 1277TIP3    H125322   3.561   3.243   5.304  0.1716  0.0390  0.8447
 1277TIP3    H225323   3.711   3.232   5.287  0.1463  0.0496  0.6168
 1278TIP3   OH225324   3.563   5.764   1.553  0.3550  0.1736  0.5720
 1278TIP3    H125325   3.534   5.674   1.564  0.7748 -0.0541 -0.0961
 1278TIP3    H225326   3.659   5.758   1.553  0.4629  0.9262  2.9742
 1279TIP3   OH225327   1.547   3.374  16.237 -0.2767  0.2527 -0.4217
 1279TIP3    H125328   1.540   3.388  16.331  0.6148  1.0652 -0.4493
 1279TIP3    H225329   1.544   3.279  16.226 -1.0352  0.1799  0.3598
 1280TIP3   OH225330   4.651   2.349  14.675 -0.3160 -0.0677 -0.2955
 1280TIP3    H125331   4.642   2.373  14.768 -2.7962  0.4219 -0.5972
 1280TIP3    H225332   4.726   2.290  14.673 -1.0603 -1.2594  2.2791
 1281TIP3   OH225333   6.299   6.248   4.903 -0.0665  0.4460  0.2852
 1281TIP3    H125334   6.237   6.292   4.845  0.6082 -0.8836 -1.5321
 1281TIP3    H225335   6.385   6.273   4.870  0.3453 -0.1731  0.8577
 1282TIP3   OH225336   3.114   3.933   2.418  0.6463  0.5384  0.4996
 1282TIP3    H125337   3.172   4.008   2.407  0.6333  0.2302 -2.3932
 1282TIP3    H225338   3.031   3.972   2.447  1.2820  1.3445  1.3138
 1283TIP3   OH225339   5.970   5.841  15.673  0.4908 -0.1713 -0.2456
 1283TIP3    H125340   5.989   5.874  15.760  0.2990 -2.7159  0.8434
 1283TIP3    H225341   5.892   5.787  15.684 -0.4773  0.6625 -2.3282
 1284TIP3   OH225342   2.224   3.548  12.729  0.1156 -0.3492  0.0272
 1284TIP3    H125343   2.309   3.591  12.722  1.1801 -2.1163  1.3875
 1284TIP3    H225344   2.234   3.465  12.682 -1.5570  0.2972 -1.6175
 1285TIP3   OH225345   3.071   3.649  15.594  0.0719 -0.3681 -0.5468
 1285TIP3    H125346   3.053   3.739  15.569 -0.7991 -0.5056 -0.4209
 1285TIP3    H225347   3.058   3.647  15.689 -0.8731 -0.8475 -0.6778
 1286TIP3   OH225348   2.195   4.275   2.400  0.2162  0.1694 -0.8650
 1286TIP3    H125349   2.225   4.323   2.477 -4.6842  0.5039  1.2310
 1286TIP3    H225350   2.152   4.341   2.346 -2.3710 -0.9031 -0.3096
 1287TIP3   OH225351   3.697   1.956   4.137 -0.9020 -0.0065  0.2898
 1287TIP3    H125352   3.757   2.020   4.175 -0.3844 -1.2442  1.5908
 1287TIP3    H225353   3.741   1.872   4.146 -2.4706 -0.8399  0.5457
 1288TIP3   OH225354   1.759   5.817  15.666 -0.0358 -0.1691 -0.4857
 1288TIP3    H125355   1.674   5.797  15.628 -0.3169  2.1565 -1.2305
 1288TIP3    H225356   1.753   5.786  15.757 -1.0397 -1.5596 -1.0020
 1289TIP3   OH225357   1.246   5.251   6.262 -0.3821 -0.4156 -0.1583
 1289TIP3    H125358   1.285   5.216   6.182  1.1806 -0.8745  0.7602
 1289TIP3    H225359   1.207   5.335   6.236  2.6241  0.8683 -0.8725
 1290TIP3   OH225360   3.415   5.995   1.907  0.1833  0.4686 -0.5230
 1290TIP3    H125361   3.438   6.029   1.820 -1.4049  2.1452 -0.3543
 1290TIP3    H225362   3.341   6.049   1.935 -1.4622 -2.1242  0.5236
 1291TIP3   OH225363   5.367   5.798   4.763 -0.6829  0.1962 -0.4049
 1291TIP3    H125364   5.449   5.750   4.749 -0.1426  0.9528  0.1199
 1291TIP3    H225365   5.300   5.739   4.730  0.0745 -0.4186 -0.8996
 1292TIP3   OH225366   0.318   4.633   4.172  0.2242 -0.6138  0.3234
 1292TIP3    H125367   0.256   4.565   4.145 -0.9875  0.6942 -0.3441
 1292TIP3    H225368   0.301   4.645   4.265  1.1746 -1.9096  0.6963
 1293TIP3   OH225369   1.709   6.520   0.743  0.0730  0.4054  0.4346
 1293TIP3    H125370   1.675   6.499   0.831 -1.1544  2.2411  0.4608
 1293TIP3    H225371   1.716   6.615   0.743  0.1497  0.4232 -1.4374
 1294TIP3   OH225372   2.338   5.870  17.058 -0.0113  0.1005  0.5094
 1294TIP3    H125373   2.257   5.858  17.008  0.9560 -0.8506 -0.9207
 1294TIP3    H225374   2.387   5.936  17.007  0.6140 -0.2205  0.6922
 1295TIP3   OH225375   0.335   1.133  13.652  0.6136 -0.7487 -0.2014
 1295TIP3    H125376   0.242   1.109  13.650  0.7332 -1.2027 -0.7426
 1295TIP3    H225377   0.366   1.103  13.737  0.4397 -1.3112 -0.3275
 1296TIP3   OH225378   5.931   5.036  10.439  0.1709 -0.3502 -0.7174
 1296TIP3    H125379   5.978   4.960  10.403  1.8222 -0.0032  0.5950
 1296TIP3    H225380   5.848   5.001  10.470 -0.3664 -1.0557 -2.7818
 1297TIP3   OH225381   2.703   4.101   0.108 -0.4032  0.3351 -0.1608
 1297TIP3    H125382   2.798   4.088   0.108 -0.6664 -2.2884 -1.1964
 1297TIP3    H225383   2.691   4.193   0.130  2.4024  0.9151 -0.6965
 1298TIP3   OH225384   1.766   4.772   3.684  0.2730 -0.4159 -0.6985
 1298TIP3    H125385   1.782   4.713   3.758 -0.2929 -0.0503 -0.2678
 1298TIP3    H225386   1.848   4.819   3.673  0.1156  0.1097  0.2446
 1299TIP3   OH225387   3.765   4.636  14.366  0.2179  0.3165  0.6738
 1299TIP3    H125388   3.761   4.719  14.319 -2.1926  0.1283  0.4157
 1299TIP3    H225389   3.761   4.569  14.297 -3.5687  0.0379  0.9670
 1300TIP3   OH225390   3.246   0.772  16.052 -0.4378 -0.3982  0.3401
 1300TIP3    H125391   3.324   0.725  16.081  1.2940  2.3299  0.4389
 1300TIP3    H225392   3.244   0.757  15.957  0.9567  0.4355  0.1440
 1301TIP3   OH225393   3.840   4.342  10.959 -0.0920  0.5014  0.2066
 1301TIP3    H125394   3.912   4.389  10.916  0.5117 -2.7567 -2.8287
 1301TIP3    H225395   3.882   4.266  10.999 -1.6311 -0.9386 -0.7587
 1302TIP3   OH225396   2.256   0.368   2.359 -0.8316  0.1239  0.2421
 1302TIP3    H125397   2.215   0.439   2.409  0.1387  1.1175 -0.3417
 1302TIP3    H225398   2.346   0.397   2.345 -0.6582 -0.8345 -0.7502
 1303TIP3   OH225399   6.624   4.486  11.851 -0.0533  0.3625 -0.5632
 1303TIP3    H125400   6.541   4.512  11.810  0.1714  0.7413 -0.7831
 1303TIP3    H225401   6.599   4.423  11.918 -0.6531  1.4211  0.2321
 1304TIP3   OH225402   1.789   1.757  15.690  0.7323  0.5033  0.2425
 1304TIP3    H125403   1.871   1.768  15.642  0.0534  0.8655 -0.8755
 1304TIP3    H225404   1.728   1.817  15.648 -0.2067 -0.0209  0.8157
 1305TIP3   OH225405   6.226   3.849  13.808 -0.1021  0.0871 -0.2202
 1305TIP3    H125406   6.208   3.898  13.888 -1.1152 -0.1020 -0.3189
 1305TIP3    H225407   6.159   3.878  13.747 -0.0777 -0.6593 -0.6119
 1306TIP3   OH225408   0.321   3.648   3.633 -0.0235  0.6269 -0.0214
 1306TIP3    H125409   0.319   3.626   3.539  1.2861  3.1255 -0.7221
 1306TIP3    H225410   0.414   3.659   3.652 -0.2886  0.3348  1.5680
 1307TIP3   OH225411   4.745   5.912  14.612  0.0047 -0.1807  0.2273
 1307TIP3    H125412   4.727   6.006  14.605 -0.1434 -0.2288 -0.0445
 1307TIP3    H225413   4.782   5.902  14.700 -2.0317 -0.1974  1.1208
 1308TIP3   OH225414   3.566   5.988  14.638  0.1586 -0.4388 -0.2361
 1308TIP3    H125415   3.573   5.927  14.711 -0.6184  0.2132  0.3956
 1308TIP3    H225416   3.505   5.947  14.577 -2.3421  0.7716  1.3267
 1309TIP3   OH225417   4.796   0.893  13.597  0.3253 -0.0833  0.6570
 1309TIP3    H125418   4.780   0.883  13.691  0.4908  0.3930  0.7379
 1309TIP3    H225419   4.727   0.953  13.567  0.1801 -0.3536  0.4418
 1310TIP3   OH225420   2.807   0.013  15.262  0.1929  0.2328  0.0239
 1310TIP3    H125421   2.729   0.058  15.295  0.4490 -0.6842  2.0357
 1310TIP3    H225422   2.865   0.083  15.233 -1.0550  0.9593 -0.8413
 1311TIP3   OH225423   4.553   0.361   1.605 -0.3751 -0.9555  0.0756
 1311TIP3    H125424   4.622   0.297   1.592 -0.2180 -0.7125 -0.2976
 1311TIP3    H225425   4.518   0.377   1.518 -1.5426 -1.7738  0.3726
 1312TIP3   OH225426   2.676   5.889   5.734 -0.1142  0.2552  1.0586
 1312TIP3    H125427   2.629   5.972   5.724  1.4803  1.0094 -1.1595
 1312TIP3    H225428   2.607   5.823   5.743 -1.8041  1.2131 -2.5975
 1313TIP3   OH225429   1.345   4.817   1.817  0.0055 -0.0450 -0.7258
 1313TIP3    H125430   1.357   4.792   1.908 -0.0160 -1.2061 -1.0172
 1313TIP3    H225431   1.328   4.734   1.772 -1.7365  0.6812 -1.5154
 1314TIP3   OH225432   5.556   6.752  16.329  0.1274 -0.3120  0.3297
 1314TIP3    H125433   5.500   6.770  16.254 -0.2270 -1.6038  0.2575
 1314TIP3    H225434   5.583   6.661  16.318  1.2609 -0.0846  1.0110
 1315TIP3   OH225435   0.113   4.611   3.311 -0.0366 -0.0460 -0.0105
 1315TIP3    H125436   0.076   4.584   3.395  1.6249 -0.9744  0.4574
 1315TIP3    H225437   0.148   4.699   3.328  0.2632 -0.2165  0.2600
 1316TIP3   OH225438   4.275   2.738   0.258 -0.3637 -0.3439 -0.1690
 1316TIP3    H125439   4.259   2.779   0.343 -1.2999 -0.6977 -0.1614
 1316TIP3    H225440   4.187   2.725   0.221 -0.0055 -0.9735 -0.8191
 1317TIP3   OH225441   6.143   6.023  10.342 -0.0481  0.0764  0.0385
 1317TIP3    H125442   6.052   6.040  10.368 -0.3035 -3.3164  1.8305
 1317TIP3    H225443   6.140   6.023  10.246 -1.4361  1.9966  0.0131
 1318TIP3   OH225444   3.398   0.209  14.678  0.4932  0.5321  0.3788
 1318TIP3    H125445   3.319   0.261  14.693  0.3698  0.8396 -1.1288
 1318TIP3    H225446   3.366   0.127  14.640  0.8576  0.3800  0.3945
 1319TIP3   OH225447   6.338   1.119   4.789  0.3586 -0.0470  0.5715
 1319TIP3    H125448   6.407   1.147   4.849  1.3036 -0.4815 -0.2857
 1319TIP3    H225449   6.383   1.098   4.707 -1.0849  2.9789 -1.2225
 1320TIP3   OH225450   2.792   1.194   5.345 -0.0027  0.0565  0.0324
 1320TIP3    H125451   2.884   1.168   5.342 -0.1457 -0.6767  1.4048
 1320TIP3    H225452   2.793   1.279   5.388  0.1208  0.6766 -1.1330
 1321TIP3   OH225453   2.452   4.332  15.929 -0.1715  0.0616 -0.2585
 1321TIP3    H125454   2.360   4.345  15.955 -0.7385 -1.2257 -1.5158
 1321TIP3    H225455   2.502   4.380  15.996 -1.7498  0.9899  0.3265
 1322TIP3   OH225456   0.651   5.629  11.814  0.0502 -0.4669  0.4840
 1322TIP3    H125457   0.629   5.563  11.880  1.9770 -1.5032  0.1587
 1322TIP3    H225458   0.566   5.653  11.776 -0.7861 -2.3032  1.0460
 1323TIP3   OH225459   2.856   2.190   6.292 -0.0290  0.7649 -0.0311
 1323TIP3    H125460   2.895   2.167   6.208  3.2283  1.5085  1.1153
 1323TIP3    H225461   2.813   2.110   6.322  1.0607 -0.3166 -1.2266
 1324TIP3   OH225462   6.208   6.755  15.586  0.2413  0.5408 -0.1057
 1324TIP3    H125463   6.169   6.779  15.670 -0.2295 -0.1263 -0.1304
 1324TIP3    H225464   6.182   6.664  15.572  0.6868  0.5086 -0.7640
 1325TIP3   OH225465   3.713   4.066  15.222 -0.0966 -0.3397  0.0287
 1325TIP3    H125466   3.673   4.053  15.308 -1.7105  0.0712 -0.6204
 1325TIP3    H225467   3.808   4.058  15.238 -0.4553 -3.1941  1.2929
 1326TIP3   OH225468   4.914   1.959   5.328  0.1554 -0.4388 -0.5486
 1326TIP3    H125469   4.916   1.865   5.347  0.2420 -0.2161  0.6070
 1326TIP3    H225470   4.821   1.979   5.318  0.1370 -0.6451 -0.8067
 1327TIP3   OH225471   5.029   5.626  13.038 -0.3979 -0.4148  0.1833
 1327TIP3    H125472   5.064   5.687  13.102  0.4686  0.3467 -0.9699
 1327TIP3    H225473   5.009   5.680  12.962 -3.0056 -1.0104  0.3489
 1328TIP3   OH225474   6.324   0.776  14.666  0.0146  0.5734 -0.1866
 1328TIP3    H125475   6.278   0.813  14.591  2.5284  2.6934 -0.8529
 1328TIP3    H225476   6.289   0.825  14.741 -1.0675 -0.1296 -0.2132
 1329TIP3   OH225477   5.862   6.106   4.426  0.1017  0.4653 -0.0848
 1329TIP3    H125478   5.825   6.037   4.482  0.0739  0.9240  0.4680
 1329TIP3    H225479   5.863   6.184   4.481  0.4111  0.8410 -0.6123
 1330TIP3   OH225480   0.711   2.409   5.365  0.0326 -0.6617  0.0601
 1330TIP3    H125481   0.685   2.373   5.280 -1.7543  2.2429 -0.7473
 1330TIP3    H225482   0.639   2.466   5.391  2.1110  1.4139  1.7520
 1331TIP3   OH225483   1.808   4.382   1.287  0.0255  0.2017  0.4780
 1331TIP3    H125484   1.829   4.295   1.319  1.3496 -0.2466 -1.4055
 1331TIP3    H225485   1.738   4.369   1.224 -1.2627  0.8251  1.7179
 1332TIP3   OH225486   1.434   2.948  16.756 -0.1705 -0.2728 -0.0604
 1332TIP3    H125487   1.441   2.853  16.740  0.5623 -0.2060 -0.1733
 1332TIP3    H225488   1.340   2.964  16.764 -0.2464 -1.3099  1.7228
 1333TIP3   OH225489   0.776   1.853  17.004 -0.3651  0.4179 -0.2471
 1333TIP3    H125490   0.681   1.867  17.002 -0.5191  0.0348  1.8528
 1333TIP3    H225491   0.786   1.759  17.018  0.2290  0.7274  1.6919
 1334TIP3   OH225492   3.588   5.663  12.138 -0.5943  0.0230  0.1441
 1334TIP3    H125493   3.500   5.648  12.103 -0.9387 -0.6260  1.2396
 1334TIP3    H225494   3.635   5.581  12.121 -0.6082 -0.1097  0.7267
 1335TIP3   OH225495   4.139   4.917   4.245  0.3909 -0.2412 -0.4016
 1335TIP3    H125496   4.120   4.977   4.173 -0.4945 -0.3438 -0.2712
 1335TIP3    H225497   4.068   4.932   4.308  1.3394  0.0871  0.6126
 1336TIP3   OH225498   5.513   2.089   0.248 -0.0423 -0.0548  0.0081
 1336TIP3    H125499   5.481   2.121   0.333  0.9788 -0.1046  0.4197
 1336TIP3    H225500   5.595   2.044   0.269  0.0282 -0.3852 -0.9631
 1337TIP3   OH225501   5.707   2.862   5.259  0.1654 -0.6677 -0.5485
 1337TIP3    H125502   5.764   2.906   5.196  0.2485 -0.8027 -0.5665
 1337TIP3    H225503   5.642   2.817   5.206 -0.4355  0.1344 -0.5102
 1338TIP3   OH225504   3.903   4.043  12.616 -0.0938 -0.3570 -0.0049
 1338TIP3    H125505   3.916   3.995  12.534 -0.7241  1.4473 -1.2172
 1338TIP3    H225506   3.963   4.117  12.610  0.4653 -0.6383  1.5926
 1339TIP3   OH225507   6.378   2.906  16.233  0.5921  0.0261  0.2151
 1339TIP3    H125508   6.335   2.836  16.184 -0.2736  0.6535  0.0574
 1339TIP3    H225509   6.312   2.936  16.295  1.2154  0.1830  0.8086
 1340TIP3   OH225510   2.123   3.126  14.574  0.5230  0.2278  0.4923
 1340TIP3    H125511   2.106   3.057  14.639  1.7583 -3.0460 -2.3299
 1340TIP3    H225512   2.218   3.138  14.578  0.7224 -0.5701 -1.0853
 1341TIP3   OH225513   0.446   0.787   4.258  0.0857  0.0142  0.2292
 1341TIP3    H125514   0.352   0.792   4.277 -0.3430  0.1964 -1.7539
 1341TIP3    H225515   0.473   0.878   4.245  0.3397 -0.0981 -0.0392
 1342TIP3   OH225516   0.917   0.001   2.525 -0.9157 -0.6832  0.6486
 1342TIP3    H125517   0.912   0.082   2.576 -1.7281 -0.9274  0.9707
 1342TIP3    H225518   0.832  -0.007   2.484 -0.8565 -1.3929  0.6434
 1343TIP3   OH225519   4.505   0.635   4.241  0.1628  0.2474  0.1028
 1343TIP3    H125520   4.590   0.615   4.279  0.5182 -1.2586 -1.3817
 1343TIP3    H225521   4.448   0.565   4.271 -0.3050  0.6804  0.2420
 1344TIP3   OH225522   3.240   1.570  16.699  0.1849  0.0556 -0.2674
 1344TIP3    H125523   3.218   1.652  16.654 -0.4595  0.0129 -0.0351
 1344TIP3    H225524   3.221   1.502  16.634 -1.4782 -0.0622  0.2877
 1345TIP3   OH225525   1.961   2.510  15.143 -0.1761  0.0349 -0.7160
 1345TIP3    H125526   2.044   2.498  15.097 -0.0176  1.5461 -0.8571
 1345TIP3    H225527   1.985   2.527  15.233 -0.3616 -0.0482 -0.6497
 1346TIP3   OH225528   5.341   6.774   4.202 -0.1926 -0.2540  0.1129
 1346TIP3    H125529   5.297   6.815   4.277  1.0865  0.3650  0.5481
 1346TIP3    H225530   5.284   6.795   4.127 -1.0001 -0.0881  0.7560
 1347TIP3   OH225531   5.746   0.729   5.573 -0.0669 -0.3619  0.0276
 1347TIP3    H125532   5.740   0.706   5.666 -1.6042 -0.0611  0.0304
 1347TIP3    H225533   5.700   0.658   5.528 -1.7418  0.8558 -0.2548
 1348TIP3   OH225534   0.566   1.761  15.602  0.3273  0.3067 -0.6672
 1348TIP3    H125535   0.526   1.847  15.616  1.8504  1.0218 -0.5316
 1348TIP3    H225536   0.492   1.703  15.583 -0.7100  1.6878 -0.9979
 1349TIP3   OH225537   0.561   5.885  15.664 -0.3181 -0.4826  0.0241
 1349TIP3    H125538   0.653   5.864  15.651 -0.3520  0.5334 -2.1890
 1349TIP3    H225539   0.516   5.848  15.588 -1.3430  1.2809 -0.2838
 1350TIP3   OH225540   4.661   0.737   3.451 -0.1595 -0.0274  0.2813
 1350TIP3    H125541   4.635   0.828   3.465 -0.1627  0.1877 -0.9591
 1350TIP3    H225542   4.617   0.688   3.521  0.1103  0.9540  1.1644
 1351TIP3   OH225543   6.774   5.783   5.916  0.2708  0.2212  0.7122
 1351TIP3    H125544   6.691   5.820   5.889  0.3840  0.8885  1.2374
 1351TIP3    H225545   6.835   5.857   5.916  0.5339  0.0281  1.6454
 1352TIP3   OH225546   1.113   1.897  16.730 -0.0727  0.4782 -0.0614
 1352TIP3    H125547   1.055   1.822  16.713  1.2483 -0.5753 -0.1050
 1352TIP3    H225548   1.065   1.951  16.793 -0.5003 -1.1134  1.0261
 1353TIP3   OH225549   5.999   5.387   2.495 -0.1853  0.4465 -0.5136
 1353TIP3    H125550   5.915   5.398   2.449 -0.7827  0.3369  0.5207
 1353TIP3    H225551   6.042   5.472   2.486 -2.0432  1.8136  2.0704
 1354TIP3   OH225552   5.405   1.980   3.829  0.0918  0.5812  0.2845
 1354TIP3    H125553   5.477   1.996   3.769 -0.4592 -0.4821 -0.7085
 1354TIP3    H225554   5.369   2.066   3.848  0.1846  0.9256 -1.0419
 1355TIP3   OH225555   6.644   0.371  12.886  0.0670  0.2708  0.4115
 1355TIP3    H125556   6.629   0.438  12.952  1.5514  0.8949  0.1442
 1355TIP3    H225557   6.715   0.405  12.833 -0.5200 -0.6083 -0.9985
 1356TIP3   OH225558   2.450   3.281   1.285 -0.3566 -0.5460 -0.5701
 1356TIP3    H125559   2.503   3.272   1.364 -0.6346  1.6556 -0.0697
 1356TIP3    H225560   2.367   3.238   1.307 -0.2399 -0.4247  0.1266
 1357TIP3   OH225561   4.272   5.509  11.999 -0.0026  0.1546 -0.1323
 1357TIP3    H125562   4.188   5.539  12.032 -0.9859 -1.3671 -1.1251
 1357TIP3    H225563   4.336   5.571  12.034 -1.5721  1.5634  0.3219
 1358TIP3   OH225564   2.724   4.257  16.286  0.7680  0.9885 -0.3089
 1358TIP3    H125565   2.758   4.241  16.198  0.5758 -3.0572  0.1511
 1358TIP3    H225566   2.784   4.209  16.344 -1.1511  0.4573  1.3481
 1359TIP3   OH225567   6.631   1.329   4.645 -0.4332 -1.0088 -0.2017
 1359TIP3    H125568   6.695   1.399   4.659 -0.6009 -0.7533 -0.6943
 1359TIP3    H225569   6.562   1.370   4.591 -1.7249 -0.8555  1.4776
 1360TIP3   OH225570   5.159   5.514  16.997  0.0278  0.1006  0.3490
 1360TIP3    H125571   5.127   5.600  16.970  0.7665  0.5277  0.8065
 1360TIP3    H225572   5.080   5.461  17.007 -0.5016  0.9683  0.9002
 1361TIP3   OH225573   1.624   0.085  11.209  0.3541 -0.9512  0.4899
 1361TIP3    H125574   1.599   0.088  11.116  0.7982 -2.2558  0.3232
 1361TIP3    H225575   1.583   0.005  11.242  0.6294 -0.7576  1.3049
 1362TIP3   OH225576   0.405   0.674  11.686 -0.2742 -0.0393  0.1195
 1362TIP3    H125577   0.313   0.686  11.662 -0.6613 -2.5676  0.1614
 1362TIP3    H225578   0.453   0.720  11.618 -1.5147  2.5647  0.8535
 1363TIP3   OH225579   6.206   3.796  15.348  1.2483 -0.0570  0.1124
 1363TIP3    H125580   6.238   3.834  15.266 -1.5385  1.1583 -0.5252
 1363TIP3    H225581   6.237   3.856  15.416  0.7697  0.8243 -0.4312
 1364TIP3   OH225582   4.599   2.419  11.769  0.8616  0.2534  0.5937
 1364TIP3    H125583   4.676   2.450  11.815  0.2459  1.3746  0.8964
 1364TIP3    H225584   4.617   2.436  11.677  1.3435 -0.3388  0.5696
 1365TIP3   OH225585   4.262   0.794   4.181  0.1525 -0.1239 -0.0816
 1365TIP3    H125586   4.347   0.774   4.219  0.2559 -0.7246 -0.6172
 1365TIP3    H225587   4.203   0.728   4.217  0.2941 -0.8235 -1.1064
 1366TIP3   OH225588   3.529   5.915   0.113 -0.5262  0.3983 -0.3720
 1366TIP3    H125589   3.531   5.882   0.023 -1.5024  0.4941 -0.4377
 1366TIP3    H225590   3.620   5.940   0.131  0.1522 -1.7315 -0.5297
 1367TIP3   OH225591   6.755   1.152  15.726  0.0202  0.2030  0.3337
 1367TIP3    H125592   6.713   1.237  15.712  0.4004  0.1727 -1.1410
 1367TIP3    H225593   6.744   1.136  15.819 -0.6862  1.5397  0.5171
 1368TIP3   OH225594   4.784   0.638   4.647  0.7409 -0.5876  0.1126
 1368TIP3    H125595   4.864   0.592   4.674  0.8588 -0.0072  0.7728
 1368TIP3    H225596   4.800   0.729   4.670  0.0636 -0.3986 -0.1600
 1369TIP3   OH225597   4.540   4.801   0.189 -0.5403 -0.2676  0.1325
 1369TIP3    H125598   4.543   4.793   0.094 -0.1406 -0.3146  0.1461
 1369TIP3    H225599   4.460   4.755   0.215  1.2344 -3.6591  0.1354
 1370TIP3   OH225600   6.594   3.683   4.575 -0.1485 -0.3418 -0.2926
 1370TIP3    H125601   6.511   3.727   4.558  0.5733  1.6062  0.8732
 1370TIP3    H225602   6.653   3.716   4.507  0.5711  1.1250  0.9739
 1371TIP3   OH225603   4.065   4.503  15.309  0.2514  0.5961  0.2929
 1371TIP3    H125604   4.110   4.565  15.252 -0.6049  0.6339 -0.3583
 1371TIP3    H225605   4.116   4.505  15.391  2.3712 -0.5700 -0.9241
 1372TIP3   OH225606   3.695   5.008  13.416  0.0144 -0.0924  0.6108
 1372TIP3    H125607   3.650   5.038  13.495  0.4675  1.3455  0.3552
 1372TIP3    H225608   3.695   4.913  13.423  0.4923  0.0182  2.5934
 1373TIP3   OH225609   1.007   2.927  12.186  0.3547 -0.0869  0.5189
 1373TIP3    H125610   1.051   2.865  12.127 -0.1777  1.1615 -1.2855
 1373TIP3    H225611   0.914   2.905  12.180  0.2837  0.1374  0.7740
 1374TIP3   OH225612   5.048   2.474   4.705  0.6563  0.0336 -0.2692
 1374TIP3    H125613   5.096   2.460   4.787 -0.2544 -1.4647  0.0420
 1374TIP3    H225614   5.079   2.404   4.647 -0.2214 -0.1777 -0.4956
 1375TIP3   OH225615   3.502   5.740   0.535 -0.2973  0.1569  0.0337
 1375TIP3    H125616   3.490   5.742   0.630 -1.7391  1.5698 -0.1375
 1375TIP3    H225617   3.551   5.660   0.519 -1.2281 -0.8432  1.8438
 1376TIP3   OH225618   3.062   1.878   1.460 -0.5417  0.4433 -0.2969
 1376TIP3    H125619   3.089   1.961   1.421 -1.3730  0.5382 -0.6685
 1376TIP3    H225620   3.012   1.834   1.392  0.4220 -0.6509 -0.3220
 1377TIP3   OH225621   2.872   5.928   0.678 -0.1437 -0.3724  0.0931
 1377TIP3    H125622   2.873   5.946   0.584 -0.6017 -4.6897 -0.9508
 1377TIP3    H225623   2.958   5.890   0.696 -0.1134  0.2793  1.4108
 1378TIP3   OH225624   3.969   4.369   2.367 -0.2815 -0.2308 -0.0691
 1378TIP3    H125625   3.976   4.300   2.302 -0.1872  0.1854 -0.5064
 1378TIP3    H225626   4.029   4.437   2.336  1.4652 -0.9188  1.5871
 1379TIP3   OH225627   4.930   1.357   4.314 -0.3379  0.2377  0.1141
 1379TIP3    H125628   4.993   1.429   4.308  0.4829 -0.4103  0.7770
 1379TIP3    H225629   4.845   1.398   4.297  0.3877  0.8413 -2.5267
 1380TIP3   OH225630   4.206   2.812   5.574 -0.1704  0.1579 -0.1650
 1380TIP3    H125631   4.273   2.880   5.567  0.0809  0.0574  1.0514
 1380TIP3    H225632   4.132   2.854   5.617 -0.1180 -0.2493  0.3418
 1381TIP3   OH225633   1.268   0.734  16.380  0.7206 -0.2224  0.0357
 1381TIP3    H125634   1.175   0.712  16.390  0.9031 -0.6017  1.0419
 1381TIP3    H225635   1.270   0.797  16.308 -0.2647 -0.5579 -0.3000
 1382TIP3   OH225636   0.459   2.922  11.547  0.3083 -0.0427 -0.1909
 1382TIP3    H125637   0.473   2.971  11.466 -1.9427  0.5303 -0.3145
 1382TIP3    H225638   0.508   2.970  11.614  1.4103  0.0311 -1.0366
 1383TIP3   OH225639   2.828   4.838   2.634  0.4082 -0.0045  0.0636
 1383TIP3    H125640   2.905   4.853   2.579  0.0828  0.6357 -0.2171
 1383TIP3    H225641   2.806   4.746   2.619  0.8277 -0.0592 -0.2305
 1384TIP3   OH225642   6.219   2.952   5.370 -0.2692 -0.5087  0.3787
 1384TIP3    H125643   6.230   2.992   5.284 -0.4969  3.5512  1.9941
 1384TIP3    H225644   6.308   2.942   5.404 -0.1353 -2.7176 -0.4285
 1385TIP3   OH225645   5.736   0.251   4.288 -0.6208 -0.1332  0.4013
 1385TIP3    H125646   5.737   0.260   4.383 -0.4475 -0.5027  0.4359
 1385TIP3    H225647   5.826   0.229   4.264 -1.1755 -2.9313  0.4602
 1386TIP3   OH225648   3.924   0.959  13.511 -0.1958 -0.1328 -0.1532
 1386TIP3    H125649   4.005   0.947  13.462  1.4843  3.4363  1.4076
 1386TIP3    H225650   3.945   0.932  13.600 -1.3744 -1.0000 -0.1166
 1387TIP3   OH225651   1.155   2.141   1.062 -0.2047 -0.3944  0.6006
 1387TIP3    H125652   1.153   2.089   1.142  0.5247 -0.8647  0.3243
 1387TIP3    H225653   1.230   2.108   1.013 -0.8058 -0.3186 -0.4177
 1388TIP3   OH225654   1.151   1.258  16.367 -0.1799 -0.0422  0.4277
 1388TIP3    H125655   1.134   1.329  16.304  0.5688  0.8783  1.2286
 1388TIP3    H225656   1.084   1.270  16.434 -0.1162 -0.1591  0.5116
 1389TIP3   OH225657   2.372   5.035   2.572  0.0425  0.1606 -0.0421
 1389TIP3    H125658   2.347   5.116   2.617  1.4243  0.5504  0.0504
 1389TIP3    H225659   2.467   5.032   2.578  0.0531 -1.2104 -0.5133
 1390TIP3   OH225660   5.901   0.344   2.822  0.0407 -0.0789  0.4988
 1390TIP3    H125661   5.995   0.325   2.830  0.0074 -0.0245  1.1315
 1390TIP3    H225662   5.894   0.396   2.743  0.2593 -1.8832 -0.7629
 1391TIP3   OH225663   0.526   3.464  10.479 -0.6331 -0.0623  0.0517
 1391TIP3    H125664   0.547   3.548  10.438 -0.2260 -0.3151 -0.2698
 1391TIP3    H225665   0.441   3.479  10.522 -0.7355  0.4053 -0.2995
 1392TIP3   OH225666   2.254   0.498   4.153  0.3883 -0.6980  0.5395
 1392TIP3    H125667   2.158   0.494   4.157  0.2091  1.7075  0.5622
 1392TIP3    H225668   2.282   0.487   4.243 -0.0817  1.0043  0.9337
 1393TIP3   OH225669   5.953   1.610  11.196  0.1928 -0.0843 -0.1137
 1393TIP3    H125670   5.941   1.673  11.266  1.1053  0.3384 -0.3269
 1393TIP3    H225671   5.865   1.573  11.182 -0.1716  0.4733  0.6232
 1394TIP3   OH225672   3.606   3.319  12.125  0.2618  0.1224  0.0990
 1394TIP3    H125673   3.672   3.251  12.110 -0.6847 -1.0630  1.1065
 1394TIP3    H225674   3.537   3.300  12.062  1.1784  1.8839 -1.5624
 1395TIP3   OH225675   5.975   6.141  12.933  0.1293  0.2952 -0.6550
 1395TIP3    H125676   5.977   6.230  12.969 -1.2499  0.2513 -0.4373
 1395TIP3    H225677   5.958   6.153  12.840 -0.2303  0.2628 -0.5964
 1396TIP3   OH225678   2.960   5.671   3.219 -0.1710 -0.6412  0.0885
 1396TIP3    H125679   2.943   5.591   3.168  1.2770 -0.4923 -0.6864
 1396TIP3    H225680   2.874   5.712   3.229 -0.8064 -1.8245 -0.3021
 1397TIP3   OH225681   5.194   6.587   3.726  0.4665 -0.2619 -0.0289
 1397TIP3    H125682   5.123   6.555   3.671  1.3903 -0.5900 -1.0668
 1397TIP3    H225683   5.175   6.551   3.813 -1.3190  0.7460  0.0376
 1398TIP3   OH225684   4.934   6.092   2.709  0.2842 -0.0877  0.5356
 1398TIP3    H125685   4.971   6.013   2.750 -1.0934 -1.8146 -1.3310
 1398TIP3    H225686   4.857   6.060   2.662  0.2538  2.2215 -1.1300
 1399TIP3   OH225687   5.505   2.961   4.485 -0.3042  0.1621  0.3190
 1399TIP3    H125688   5.426   3.006   4.455 -1.1100  0.4069  2.6254
 1399TIP3    H225689   5.553   3.027   4.536 -0.0845 -0.7860  1.3730
 1400TIP3   OH225690   4.081   0.695  14.201  0.0721  0.4375  0.2021
 1400TIP3    H125691   4.023   0.680  14.275 -0.1643 -1.3398 -0.3203
 1400TIP3    H225692   4.098   0.609  14.165  1.2965  1.1357 -0.9954
 1401TIP3   OH225693   5.716   3.633   4.916 -0.4990  0.2078 -0.0049
 1401TIP3    H125694   5.663   3.636   4.837 -0.1867  1.4702 -0.1942
 1401TIP3    H225695   5.768   3.553   4.908 -1.4837 -0.4089 -0.3877
 1402TIP3   OH225696   2.262   5.295  10.726  0.6082  0.6296 -0.5574
 1402TIP3    H125697   2.309   5.327  10.649  2.0076  0.9101  0.3679
 1402TIP3    H225698   2.282   5.202  10.730 -1.0745  0.1860 -1.6051
 1403TIP3   OH225699   1.119   5.700  15.050 -0.0278  0.5349 -0.1559
 1403TIP3    H125700   1.077   5.758  15.114 -0.9149 -0.2848  0.0364
 1403TIP3    H225701   1.145   5.758  14.979 -2.2823  1.0012 -0.6849
 1404TIP3   OH225702   3.880   5.064   5.071  0.0371  0.3507  0.1270
 1404TIP3    H125703   3.822   5.000   5.029  1.2050 -2.3039  2.2250
 1404TIP3    H225704   3.968   5.032   5.051  0.7236  2.1261  0.1564
 1405TIP3   OH225705   5.116   1.959  12.110 -0.3711 -0.5300 -0.1789
 1405TIP3    H125706   5.041   2.018  12.101 -1.0186 -1.1714  0.7956
 1405TIP3    H225707   5.180   2.010  12.160 -0.6853 -0.4312  0.1285
 1406TIP3   OH225708   0.300   1.987   4.661 -0.0623  0.4532  0.6108
 1406TIP3    H125709   0.289   2.061   4.601 -1.1111 -0.4420 -0.3302
 1406TIP3    H225710   0.380   2.008   4.710  0.8222  1.2213 -1.0734
 1407TIP3   OH225711   3.798   3.540  13.657 -0.0976  0.5241 -0.3443
 1407TIP3    H125712   3.807   3.523  13.563 -3.0926 -2.8267 -0.2378
 1407TIP3    H225713   3.887   3.533  13.691  0.8752  0.2675 -2.7062
 1408TIP3   OH225714   5.187   5.081   1.034  0.3977 -0.3396  0.4118
 1408TIP3    H125715   5.271   5.059   1.074  0.4421 -1.5300 -0.2955
 1408TIP3    H225716   5.173   5.014   0.967 -0.9582  0.0371  0.2768
 1409TIP3   OH225717   3.727   2.349  13.479 -0.0368  0.0518  0.0510
 1409TIP3    H125718   3.643   2.390  13.500  0.1165  0.1731  0.4330
 1409TIP3    H225719   3.749   2.298  13.557  0.6956  0.7671  0.3203
 1410TIP3   OH225720   3.135   4.438  13.445  0.4384 -0.0005  0.0407
 1410TIP3    H125721   3.207   4.388  13.407 -0.3013 -1.7218  0.8119
 1410TIP3    H225722   3.094   4.378  13.507 -2.4526  0.4310 -1.2852
 1411TIP3   OH225723   0.946   4.219   3.309  0.6477  0.0416  0.0296
 1411TIP3    H125724   0.977   4.219   3.219  0.0765 -0.6572 -0.1808
 1411TIP3    H225725   0.856   4.251   3.304  0.0406 -1.5579  0.1163
 1412TIP3   OH225726   1.365   2.830  10.790 -0.0079 -0.5302 -0.1683
 1412TIP3    H125727   1.406   2.746  10.768  0.4149 -1.0861  2.3707
 1412TIP3    H225728   1.375   2.883  10.712 -0.5441 -2.9196 -1.9943
 1413TIP3   OH225729   2.222   5.824  14.482  0.2216  0.2717 -0.0738
 1413TIP3    H125730   2.164   5.888  14.523  1.1266  0.8483  0.3304
 1413TIP3    H225731   2.217   5.844  14.388 -1.4781 -0.7445 -0.2447
 1414TIP3   OH225732   1.433   3.882   4.666 -0.4844  1.2198  0.4439
 1414TIP3    H125733   1.483   3.896   4.747  2.2585 -0.7533 -0.7464
 1414TIP3    H225734   1.465   3.951   4.607 -0.4309  0.9712  0.1837
 1415TIP3   OH225735   0.750   3.351   5.732 -0.4906  0.0548  0.2689
 1415TIP3    H125736   0.786   3.334   5.819  1.6514 -0.3247 -0.6308
 1415TIP3    H225737   0.718   3.441   5.736  0.1527  0.2499  1.2544
 1416TIP3   OH225738   0.866   6.472  14.782  0.6256 -0.2828 -0.6775
 1416TIP3    H125739   0.918   6.552  14.786  2.3136 -1.3859  2.0466
 1416TIP3    H225740   0.928   6.404  14.756 -0.1321 -1.1662 -0.2668
 1417TIP3   OH225741   3.041   4.061   5.103  0.1704  0.1610  0.2398
 1417TIP3    H125742   2.999   3.977   5.120 -0.6314  0.3473 -0.7293
 1417TIP3    H225743   3.038   4.107   5.187  1.0363 -0.9366  0.9014
 1418TIP3   OH225744   6.415   2.346   1.186 -0.0205 -0.5772  0.2306
 1418TIP3    H125745   6.380   2.376   1.102 -0.6179 -0.6446  0.4506
 1418TIP3    H225746   6.509   2.338   1.171 -0.3754 -3.1726 -1.2753
 1419TIP3   OH225747   2.248   0.359  10.511  0.0218  0.4846 -0.0658
 1419TIP3    H125748   2.281   0.282  10.558  0.5644 -0.7089 -2.2496
 1419TIP3    H225749   2.156   0.365  10.537 -0.2323 -1.3813 -0.3799
 1420TIP3   OH225750   4.235   1.118   3.261  0.1591 -0.0107 -0.7247
 1420TIP3    H125751   4.243   1.197   3.314 -1.6360  0.7908 -1.5514
 1420TIP3    H225752   4.282   1.138   3.180  0.9681 -0.3862 -0.3660
 1421TIP3   OH225753   3.065   1.534   5.988  0.2475  0.4596  0.1130
 1421TIP3    H125754   3.078   1.440   5.996 -0.1120  0.3936 -0.0275
 1421TIP3    H225755   2.981   1.550   6.032  0.4354  0.7515  0.3671
 1422TIP3   OH225756   0.262   0.864  13.260  0.1998  0.2635  0.1375
 1422TIP3    H125757   0.301   0.885  13.344 -0.5948  0.0301  0.5767
 1422TIP3    H225758   0.210   0.941  13.237 -2.2806 -0.8801  1.4894
 1423TIP3   OH225759   6.793   5.594  14.084  0.5588  0.2882 -0.5672
 1423TIP3    H125760   6.719   5.595  14.145  0.0557 -0.6707 -1.1473
 1423TIP3    H225761   6.865   5.558  14.135  0.3212  0.1262 -0.3455
 1424TIP3   OH225762   0.100   6.503   4.002  0.3601  0.1017 -0.1776
 1424TIP3    H125763   0.042   6.578   4.017  0.0139 -0.1005 -0.4956
 1424TIP3    H225764   0.165   6.535   3.939  0.7579  0.4086  0.3789
 1425TIP3   OH225765   0.156   2.988  12.492  0.0453 -0.3118  0.0863
 1425TIP3    H125766   0.135   3.055  12.428 -1.2227 -0.2979  0.4861
 1425TIP3    H225767   0.168   3.035  12.574  1.7331 -0.3205 -0.1105
 1426TIP3   OH225768   1.441   0.646   3.906 -0.1751  0.0402  0.1706
 1426TIP3    H125769   1.381   0.614   3.839  1.2206  0.7924 -1.5351
 1426TIP3    H225770   1.445   0.741   3.890 -0.3647  0.3461  1.8122
 1427TIP3   OH225771   3.882   3.659   0.079  0.2093 -0.3224  0.5007
 1427TIP3    H125772   3.912   3.649  -0.011  0.6168  0.4990  0.5418
 1427TIP3    H225773   3.922   3.586   0.126  0.0736 -0.6985  0.0440
 1428TIP3   OH225774   0.657   6.833   0.431  0.3235 -0.0681  0.6918
 1428TIP3    H125775   0.574   6.852   0.386  0.1229 -1.1995  0.5720
 1428TIP3    H225776   0.670   6.739   0.420  1.3778  0.0101  1.1468
 1429TIP3   OH225777   6.783   5.824  11.504 -0.1149 -0.1464  0.0660
 1429TIP3    H125778   6.748   5.735  11.513  2.4447 -1.1985  0.4112
 1429TIP3    H225779   6.725   5.877  11.558 -2.0100 -1.4646 -0.5230
 1430TIP3   OH225780   6.384   0.179   1.772  0.0533  0.2942  0.1177
 1430TIP3    H125781   6.437   0.220   1.841  0.5169  0.5082 -0.3596
 1430TIP3    H225782   6.436   0.191   1.692  0.7115 -2.1273  0.1155
 1431TIP3   OH225783   5.349   3.853   3.155 -0.0787  0.0895 -0.2306
 1431TIP3    H125784   5.254   3.850   3.145 -0.2986  2.4082  0.6966
 1431TIP3    H225785   5.378   3.919   3.092  0.5034  1.7481  1.6763
 1432TIP3   OH225786   3.524   1.600  13.194 -0.0798 -0.1101  0.4041
 1432TIP3    H125787   3.455   1.584  13.128 -0.7821 -1.2648  1.3786
 1432TIP3    H225788   3.508   1.690  13.223 -2.1699 -0.8321  1.6866
 1433TIP3   OH225789   5.721   6.221   3.059  0.6332 -0.2005 -0.5519
 1433TIP3    H125790   5.756   6.141   3.098 -0.5875  0.5624  2.4125
 1433TIP3    H225791   5.773   6.291   3.097 -0.3038  0.5931 -0.6920
 1434TIP3   OH225792   2.064   5.489   5.096 -0.2304 -0.0432 -0.5093
 1434TIP3    H125793   1.993   5.439   5.055  0.2128 -1.0694 -0.0520
 1434TIP3    H225794   2.033   5.580   5.094 -1.3404 -0.4128 -0.7637
 1435TIP3   OH225795   3.305   0.946  11.835 -0.0629 -0.8609  0.0403
 1435TIP3    H125796   3.353   0.981  11.910  1.5702 -1.9121 -0.4782
 1435TIP3    H225797   3.221   0.917  11.872 -0.0766  0.3958  1.0784
 1436TIP3   OH225798   3.858   2.085  16.443  0.1142  0.4109  0.3993
 1436TIP3    H125799   3.805   2.034  16.504 -0.1871  0.6278  0.3157
 1436TIP3    H225800   3.949   2.064  16.468  0.0386 -1.6385 -0.8383
 1437TIP3   OH225801   0.303   6.017   5.672 -0.2419 -0.2840 -0.0700
 1437TIP3    H125802   0.284   5.926   5.649 -1.7101 -0.2691  0.9098
 1437TIP3    H225803   0.326   6.014   5.765 -3.9898  0.6607  1.0805
 1438TIP3   OH225804   1.662   1.762  11.434 -0.0243 -0.2182  0.9580
 1438TIP3    H125805   1.725   1.757  11.363 -0.5994 -1.8323  0.5184
 1438TIP3    H225806   1.635   1.671  11.449 -3.0387  0.4804  0.3909
 1439TIP3   OH225807   1.698   6.279  14.811 -0.0310  0.4099 -0.4418
 1439TIP3    H125808   1.780   6.293  14.859 -0.2130  1.8623 -0.5185
 1439TIP3    H225809   1.702   6.340  14.738 -1.4030  0.8891 -0.1549
 1440TIP3   OH225810   4.273   0.162  12.540  0.3028  0.0404  0.2474
 1440TIP3    H125811   4.350   0.182  12.592  1.3460  0.8060 -1.4933
 1440TIP3    H225812   4.305   0.157  12.450 -1.8671  1.8335 -0.7393
 1441TIP3   OH225813   3.068   3.753  12.177 -0.5452  0.2854  0.2865
 1441TIP3    H125814   3.150   3.705  12.170 -1.5669 -1.3646 -1.0525
 1441TIP3    H225815   3.045   3.749  12.270  0.0124 -0.7535  0.3968
 1442TIP3   OH225816   3.043   1.515  14.744 -0.4217  0.3382 -0.4012
 1442TIP3    H125817   3.010   1.598  14.712  1.1318  2.0978  2.1804
 1442TIP3    H225818   3.135   1.532  14.767  0.5369 -2.6264 -1.5073
 1443TIP3   OH225819   3.865   5.571  15.616 -0.0240  0.0735 -0.0918
 1443TIP3    H125820   3.959   5.576  15.633  0.0394 -0.4444 -0.2613
 1443TIP3    H225821   3.855   5.600  15.525  0.1972 -1.5729 -0.6732
 1444TIP3   OH225822   4.040   3.447   0.143  0.3113  0.2652  0.2613
 1444TIP3    H125823   4.105   3.493   0.090 -0.9682  0.2036 -1.4242
 1444TIP3    H225824   4.025   3.365   0.097 -0.2592 -0.1561  1.1610
 1445TIP3   OH225825   5.889   2.647   0.433 -0.6291 -0.3079  0.1747
 1445TIP3    H125826   5.901   2.569   0.487  2.4267 -0.6957 -0.8479
 1445TIP3    H225827   5.943   2.714   0.476 -0.2906  0.1422 -0.9204
 1446TIP3   OH225828   4.268   5.871   5.163  0.1904  0.1260 -0.3379
 1446TIP3    H125829   4.308   5.890   5.248  2.6188 -2.7198 -0.6720
 1446TIP3    H225830   4.293   5.945   5.107  1.4110  0.4588  0.6079
 1447TIP3   OH225831   2.107   3.234   4.301 -0.0919  0.0641  0.1428
 1447TIP3    H125832   2.188   3.207   4.258 -0.3083  0.7112 -0.7134
 1447TIP3    H225833   2.126   3.319   4.340  0.2572 -0.7537  1.8494
 1448TIP3   OH225834   2.729   1.351  13.830  0.2262  0.1340  0.3877
 1448TIP3    H125835   2.796   1.299  13.786  1.9411  0.3939  2.5379
 1448TIP3    H225836   2.686   1.289  13.889  0.9264  0.7072  1.5149
 1449TIP3   OH225837   3.783   3.638   1.670  0.7075  0.6823 -0.7279
 1449TIP3    H125838   3.820   3.591   1.745 -0.9673  1.6598  0.7845
 1449TIP3    H225839   3.769   3.570   1.604  0.9612 -0.4463  0.3383
 1450TIP3   OH225840   5.333   3.393  12.389  0.1328  0.2995 -0.2347
 1450TIP3    H125841   5.409   3.393  12.331  0.0914 -0.4376 -0.2908
 1450TIP3    H225842   5.360   3.343  12.466 -0.1231  0.4786 -0.0222
 1451TIP3   OH225843   1.202   2.096  11.372  0.2720 -0.4805  0.4597
 1451TIP3    H125844   1.115   2.131  11.352 -0.5705 -0.6233  3.3468
 1451TIP3    H225845   1.261   2.142  11.313 -1.6091  0.5562 -0.7073
 1452TIP3   OH225846   0.448   4.137   0.468  0.0430 -0.3783 -0.0379
 1452TIP3    H125847   0.521   4.198   0.459 -0.3146  0.2199  0.8543
 1452TIP3    H225848   0.416   4.124   0.379  0.2915  0.5546 -0.2781
 1453TIP3   OH225849   6.784   6.242  15.376 -0.5157  0.5608 -0.0413
 1453TIP3    H125850   6.859   6.186  15.355 -1.3781 -0.5388 -0.2345
 1453TIP3    H225851   6.824   6.325  15.403  0.7620  0.1839 -0.6743
 1454TIP3   OH225852   0.093   2.720   4.274 -0.3036 -0.0368 -0.0902
 1454TIP3    H125853   0.058   2.781   4.338 -0.6727 -0.3883  0.0497
 1454TIP3    H225854   0.145   2.658   4.326 -1.2697 -0.8100 -0.0085
 1455TIP3   OH225855   3.358   5.151  12.205  0.2518 -0.0837 -0.1137
 1455TIP3    H125856   3.362   5.063  12.169  0.8345 -0.4732  0.8538
 1455TIP3    H225857   3.431   5.198  12.165 -0.0989 -0.0214 -0.6788
 1456TIP3   OH225858   3.453   1.135  11.443 -0.6916  0.0890  0.7680
 1456TIP3    H125859   3.464   1.223  11.478 -1.9051  0.1843  0.9590
 1456TIP3    H225860   3.379   1.143  11.382 -0.7715 -0.7762  0.7420
 1457TIP3   OH225861   3.186   6.096   0.289  0.0214 -0.1296  0.0654
 1457TIP3    H125862   3.198   6.010   0.329 -0.2099 -0.2484 -0.1216
 1457TIP3    H225863   3.202   6.081   0.196  0.7078  0.1746  0.1241
 1458TIP3   OH225864   6.412   2.684   3.045  0.2794  0.0057  0.0322
 1458TIP3    H125865   6.442   2.767   3.008 -1.0986  0.6155  0.2120
 1458TIP3    H225866   6.421   2.621   2.974  2.8191 -0.0874  0.3442
 1459TIP3   OH225867   5.883   5.095   5.244 -0.2872 -0.1949 -0.1001
 1459TIP3    H125868   5.834   5.103   5.162  0.7915  2.0230 -0.6088
 1459TIP3    H225869   5.867   5.005   5.273 -2.0200 -0.5279 -1.8755
 1460TIP3   OH225870   2.587   4.188   0.996 -0.0954  0.4582 -0.1046
 1460TIP3    H125871   2.581   4.274   1.037 -0.6305  1.3281 -1.9057
 1460TIP3    H225872   2.519   4.137   1.038 -0.6840  1.3454  0.0470
 1461TIP3   OH225873   1.906   6.510   2.555  0.6416  0.1147 -0.3071
 1461TIP3    H125874   1.832   6.453   2.578  0.1670  0.8578  0.0390
 1461TIP3    H225875   1.981   6.469   2.598 -0.0455  0.8695  1.7347
 1462TIP3   OH225876   2.131   2.046   4.552 -0.0407 -0.2956 -0.1269
 1462TIP3    H125877   2.209   2.077   4.598 -0.5868  2.1507 -0.6893
 1462TIP3    H225878   2.060   2.102   4.585 -0.9201 -0.2360 -2.0166
 1463TIP3   OH225879   6.334   2.686   4.753 -0.0034 -0.4442  0.4994
 1463TIP3    H125880   6.346   2.653   4.664 -2.3405  0.2646 -0.1593
 1463TIP3    H225881   6.423   2.692   4.789  0.8785 -2.2470 -1.1986
 1464TIP3   OH225882   0.356   1.417   2.308  0.2403 -0.5772  0.5634
 1464TIP3    H125883   0.411   1.475   2.360 -1.8792  2.0135  0.1233
 1464TIP3    H225884   0.267   1.451   2.321 -0.5903 -0.9304 -3.2512
 1465TIP3   OH225885   2.507   0.353  13.156 -0.1151  0.0243  0.3910
 1465TIP3    H125886   2.515   0.340  13.250 -0.7667  0.3668  0.4981
 1465TIP3    H225887   2.412   0.348  13.139  0.0487 -0.9743 -0.3800
 1466TIP3   OH225888   4.872   3.806   0.543 -0.3914  0.0085  0.4600
 1466TIP3    H125889   4.966   3.815   0.556 -0.1871  1.6776 -1.6396
 1466TIP3    H225890   4.862   3.723   0.496  0.0832  0.0882  0.2136
 1467TIP3   OH225891   6.634   0.577  15.205 -0.2845  0.2906  0.3336
 1467TIP3    H125892   6.598   0.638  15.140 -0.6303 -1.9543 -1.7398
 1467TIP3    H225893   6.713   0.543  15.164  0.1207 -0.3612  1.6124
 1468TIP3   OH225894   6.615   5.360  16.022 -0.0215  0.4243  0.6904
 1468TIP3    H125895   6.677   5.412  16.073 -0.0493  1.2467 -0.0953
 1468TIP3    H225896   6.610   5.276  16.069  1.9110  0.2265  0.5962
 1469TIP3   OH225897   5.605   0.746   4.149 -0.3014  0.3071  0.0734
 1469TIP3    H125898   5.569   0.830   4.122  0.2664  0.4622 -0.2135
 1469TIP3    H225899   5.533   0.684   4.137 -0.6327  0.7022  0.0133
 1470TIP3   OH225900   6.696   4.915  15.382  0.3990  0.4660 -0.2579
 1470TIP3    H125901   6.646   4.907  15.463 -0.1688 -0.9562 -0.7176
 1470TIP3    H225902   6.744   4.832  15.375 -2.3422 -1.0486 -3.1446
 1471TIP3   OH225903   2.188   0.099   0.714  0.2156  0.3335  0.4265
 1471TIP3    H125904   2.159   0.064   0.630  0.4368  1.6280 -0.2074
 1471TIP3    H225905   2.202   0.192   0.698  4.4482 -0.0732  0.7262
 1472TIP3   OH225906   0.678   1.716  11.342 -0.0769  0.3507  1.3109
 1472TIP3    H125907   0.613   1.646  11.344 -1.7711  1.7964  0.0398
 1472TIP3    H225908   0.750   1.683  11.396 -1.2450 -1.8980  1.6307
 1473TIP3   OH225909   3.056   6.301   1.095 -0.0068 -0.6068  0.2536
 1473TIP3    H125910   2.962   6.299   1.111  0.1249 -0.3869  1.0856
 1473TIP3    H225911   3.073   6.390   1.063  0.0326 -0.3861  0.8740
 1474TIP3   OH225912   5.471   2.779   3.862  0.2402  0.0814 -0.6858
 1474TIP3    H125913   5.399   2.731   3.823  0.6806 -0.0702 -1.3293
 1474TIP3    H225914   5.445   2.871   3.854 -0.6826 -0.0275  0.7082
 1475TIP3   OH225915   3.406   3.085   2.375  0.2438 -0.2710 -0.0525
 1475TIP3    H125916   3.399   3.039   2.292  0.5815 -0.2022 -0.1195
 1475TIP3    H225917   3.489   3.131   2.371  0.7223 -1.0308  0.7021
 1476TIP3   OH225918   6.006   6.192  14.777 -0.4521 -0.6376  0.0013
 1476TIP3    H125919   6.070   6.144  14.829 -0.0317  0.8121  0.9003
 1476TIP3    H225920   6.055   6.265  14.739 -1.0555 -0.9093 -1.3634
 1477TIP3   OH225921   4.625   5.286  12.533 -0.2108 -0.1631 -0.2966
 1477TIP3    H125922   4.604   5.318  12.621 -1.3099 -1.7672  0.0767
 1477TIP3    H225923   4.572   5.206  12.524 -0.4938  0.2255 -2.5949
 1478TIP3   OH225924   3.240   3.158  13.400  0.4151 -0.3608  0.1538
 1478TIP3    H125925   3.170   3.098  13.422 -0.6403  0.5161 -0.6729
 1478TIP3    H225926   3.291   3.168  13.481 -0.3444 -1.0921  0.7313
 1479TIP3   OH225927   6.428   2.621   5.588  0.4587 -0.8547 -0.3128
 1479TIP3    H125928   6.471   2.661   5.512  0.9900  0.1162  0.4779
 1479TIP3    H225929   6.499   2.574   5.633  0.0033 -2.0561 -0.7901
 1480TIP3   OH225930   1.881   4.309  11.262  0.6719 -0.2178 -0.1412
 1480TIP3    H125931   1.911   4.280  11.176 -0.9867 -2.5314 -0.0197
 1480TIP3    H225932   1.936   4.261  11.324  0.7494  0.1716  0.0951
 1481TIP3   OH225933   1.589   5.867   6.347  0.4758 -0.2514  0.2154
 1481TIP3    H125934   1.593   5.927   6.421 -0.1765  0.2469 -0.1357
 1481TIP3    H225935   1.495   5.853   6.333  0.6022 -0.6781 -0.2439
 1482TIP3   OH225936   0.396   3.424  16.845 -0.2815 -0.0445  0.1072
 1482TIP3    H125937   0.398   3.514  16.879 -1.8166 -0.2015  0.7033
 1482TIP3    H225938   0.485   3.392  16.858  0.1806  1.2432  0.2904
 1483TIP3   OH225939   0.754   3.659  14.512  0.4021 -0.0627 -0.3540
 1483TIP3    H125940   0.729   3.734  14.566  0.7973  1.0707 -1.6800
 1483TIP3    H225941   0.742   3.689  14.422  0.9260 -1.4771 -0.9306
 1484TIP3   OH225942   3.964   6.233   0.305 -0.6919  0.2435  0.0614
 1484TIP3    H125943   3.932   6.188   0.383  0.0257 -0.8002 -0.2227
 1484TIP3    H225944   4.050   6.267   0.331  0.9683 -2.7067 -1.0767
 1485TIP3   OH225945   4.801   5.756  16.093  0.0254  0.6173  0.3764
 1485TIP3    H125946   4.740   5.816  16.050 -1.0403  0.1602  1.1895
 1485TIP3    H225947   4.848   5.811  16.156 -1.2521  0.5577  1.4235
 1486TIP3   OH225948   6.573   0.676  13.322  0.1372 -0.3819  0.3473
 1486TIP3    H125949   6.653   0.729  13.316  0.0004 -0.2009  0.1002
 1486TIP3    H225950   6.504   0.734  13.292  0.0823 -0.9314 -0.6198
 1487TIP3   OH225951   4.818   2.258  12.537 -0.9205 -0.5902  0.0657
 1487TIP3    H125952   4.834   2.337  12.589  0.2037 -1.7701  1.6313
 1487TIP3    H225953   4.726   2.238  12.550 -1.2996  0.6387 -0.6310
 1488TIP3   OH225954   4.472   1.239   5.524  0.1353  0.0604 -0.7500
 1488TIP3    H125955   4.551   1.284   5.494 -0.8943  1.5563 -1.4054
 1488TIP3    H225956   4.400   1.297   5.497 -1.2138 -1.4109 -0.5043
 1489TIP3   OH225957   4.983   2.433  15.175 -0.3106  0.0170 -0.5004
 1489TIP3    H125958   5.053   2.443  15.110  0.5705  3.0679  0.7089
 1489TIP3    H225959   4.974   2.521  15.213 -2.4297 -1.0968  1.8303
 1490TIP3   OH225960   6.445   6.809  11.397 -0.6294 -0.3209 -0.2181
 1490TIP3    H125961   6.494   6.737  11.437 -1.2951 -0.1189  0.9978
 1490TIP3    H225962   6.376   6.766  11.346 -0.5398 -0.5553 -0.1441
 1491TIP3   OH225963   3.000   5.627  16.422 -0.3970  0.8095 -0.0032
 1491TIP3    H125964   2.959   5.626  16.508 -1.7706  0.4865 -0.6290
 1491TIP3    H225965   3.032   5.537  16.410  0.5816  1.0817  0.5187
 1492TIP3   OH225966   1.336   2.403  12.771  0.0701 -0.1690 -0.0328
 1492TIP3    H125967   1.292   2.380  12.853 -1.4834 -1.5645 -1.2153
 1492TIP3    H225968   1.410   2.343  12.766 -1.0015 -1.4870 -0.5970
 1493TIP3   OH225969   3.701   6.049   6.588 -0.0116  0.3942  0.0305
 1493TIP3    H125970   3.756   5.979   6.624  0.6909  0.3362 -1.1199
 1493TIP3    H225971   3.758   6.095   6.527 -0.5451  1.8187  0.5748
 1494TIP3   OH225972   4.615   3.993   4.624  0.1117 -0.1175  0.0211
 1494TIP3    H125973   4.586   4.073   4.668  1.0968 -0.6422  1.7179
 1494TIP3    H225974   4.710   4.002   4.616  0.2078 -0.9933  0.0005
 1495TIP3   OH225975   3.308   6.759   2.990  0.0579  0.4914 -0.2548
 1495TIP3    H125976   3.215   6.735   2.992  0.2538 -0.8028 -2.8300
 1495TIP3    H225977   3.314   6.825   2.922  1.1755 -0.2182 -0.8571
 1496TIP3   OH225978   0.511   0.589   3.928 -0.0798  0.6838  0.4171
 1496TIP3    H125979   0.561   0.670   3.931  0.1993  0.6286 -1.3242
 1496TIP3    H225980   0.565   0.525   3.974  1.8967  0.4378 -2.0517
 1497TIP3   OH225981   3.002   6.699  15.705 -0.0190 -0.0786  0.1377
 1497TIP3    H125982   3.019   6.642  15.780  2.1368  2.3136  1.6199
 1497TIP3    H225983   3.081   6.692  15.652 -0.3927  0.3317 -0.4840
 1498TIP3   OH225984   4.905   4.238  14.704  0.1407  0.4438 -0.0995
 1498TIP3    H125985   4.863   4.230  14.619  1.5284 -0.7073 -0.7158
 1498TIP3    H225986   4.950   4.323  14.702  0.2702  0.3642 -0.5683
 1499TIP3   OH225987   3.166   6.449   2.641 -0.2371 -0.1855 -0.2851
 1499TIP3    H125988   3.079   6.476   2.668 -0.4079  1.1314 -1.9573
 1499TIP3    H225989   3.223   6.472   2.714 -1.0439  0.6606  0.0904
 1500TIP3   OH225990   3.345   2.157  11.572  0.2306  0.0910 -0.1089
 1500TIP3    H125991   3.381   2.143  11.660 -1.1584 -1.2660  0.2956
 1500TIP3    H225992   3.413   2.124  11.513  0.6711 -0.1427  0.5154
 1501TIP3   OH225993   2.491   3.913   2.168  0.3065 -0.2724 -0.3332
 1501TIP3    H125994   2.457   4.001   2.183 -1.0913 -0.7232 -0.7280
 1501TIP3    H225995   2.436   3.877   2.098  0.8460 -1.4589 -0.1793
 1502TIP3   OH225996   2.964   1.904   2.384 -0.1785  0.1582 -0.1957
 1502TIP3    H125997   2.873   1.875   2.381  0.8791 -3.8412  0.8970
 1502TIP3    H225998   3.009   1.847   2.323  1.8369  1.1139  0.3313
 1503TIP3   OH225999   3.923   0.745   3.986  0.1639 -0.1264 -0.5196
 1503TIP3    H126000   3.836   0.780   3.967 -0.1829 -0.9343 -0.4355
 1503TIP3    H226001   3.918   0.715   4.077  1.0239  1.3036  0.0411
 1504TIP3   OH226002   5.053   3.535   5.898  0.6995 -0.5639  0.4774
 1504TIP3    H126003   5.075   3.507   5.809 -0.5378 -3.0389  0.8531
 1504TIP3    H226004   5.100   3.474   5.954  1.9281  1.3337  1.5929
 1505TIP3   OH226005   2.102   5.625   4.529  0.1732 -0.1832 -0.0985
 1505TIP3    H126006   2.155   5.598   4.455  2.2643 -0.4957  1.4265
 1505TIP3    H226007   2.082   5.544   4.576 -0.9467  0.0330 -0.1669
 1506TIP3   OH226008   4.692   0.530  15.853 -0.6869 -0.1002 -0.1454
 1506TIP3    H126009   4.784   0.555  15.863 -0.3443 -1.2762 -0.1652
 1506TIP3    H226010   4.656   0.594  15.792  1.2482 -2.0830 -3.6879
 1507TIP3   OH226011   4.617   3.120   5.693 -0.4484 -0.0881 -0.5046
 1507TIP3    H126012   4.618   3.151   5.783  1.2166 -0.0761 -0.4964
 1507TIP3    H226013   4.694   3.064   5.686 -1.5138 -1.5135 -1.4567
 1508TIP3   OH226014   4.820   2.331  10.995  0.1854  0.2258  0.0124
 1508TIP3    H126015   4.746   2.389  11.016  0.8511  1.6274 -1.3072
 1508TIP3    H226016   4.813   2.318  10.900  1.5225  0.2025 -0.0899
 1509TIP3   OH226017   4.630   1.996   2.999  0.6875  0.0733 -0.1257
 1509TIP3    H126018   4.683   2.033   3.071  2.1794  0.5007 -1.3911
 1509TIP3    H226019   4.599   2.073   2.951 -0.3771 -0.2095  0.0837
 1510TIP3   OH226020   6.402   0.268  12.468  0.2132 -0.0071  0.3603
 1510TIP3    H126021   6.417   0.321  12.546  1.9676 -0.4835  0.3959
 1510TIP3    H226022   6.400   0.332  12.396 -0.3749  0.3387  0.6772
 1511TIP3   OH226023   4.231   4.580  15.534 -1.2510 -0.0377  0.0529
 1511TIP3    H126024   4.206   4.651  15.593 -0.5987  0.4729 -0.2691
 1511TIP3    H226025   4.322   4.599  15.512 -1.0617 -1.0005 -0.0066
 1512TIP3   OH226026   5.228   0.147   2.226  0.7131  0.6199  0.1649
 1512TIP3    H126027   5.277   0.200   2.163  1.4192 -0.7715 -0.4895
 1512TIP3    H226028   5.296   0.103   2.277  0.1870 -1.2825 -0.7049
 1513TIP3   OH226029   4.346   6.205  16.513  0.4148 -0.0193  0.3343
 1513TIP3    H126030   4.402   6.275  16.480 -0.1180  0.6619  0.8533
 1513TIP3    H226031   4.262   6.247  16.530 -0.0417 -0.8761  0.2577
 1514TIP3   OH226032   2.971   1.422  15.677 -0.1166 -0.2696  0.2421
 1514TIP3    H126033   2.878   1.443  15.688 -0.6342 -2.4349  0.3349
 1514TIP3    H226034   3.010   1.444  15.762 -0.4104  1.1372  0.0388
 1515TIP3   OH226035   1.232   4.209  15.685  0.1308 -0.2316  0.2534
 1515TIP3    H126036   1.252   4.297  15.653 -0.9423 -0.3181 -0.7094
 1515TIP3    H226037   1.288   4.151  15.635 -0.5525 -0.2469 -0.5129
 1516TIP3   OH226038   0.389   5.592  12.106 -0.6826  0.0880 -0.2906
 1516TIP3    H126039   0.421   5.634  12.186  0.7312 -0.1560 -0.6947
 1516TIP3    H226040   0.406   5.656  12.037 -4.3750  1.4507 -0.1243
 1517TIP3   OH226041   0.741   1.982   5.741  0.1104 -0.4240  0.4056
 1517TIP3    H126042   0.783   1.896   5.749 -0.2517 -0.6166  0.2492
 1517TIP3    H226043   0.650   1.967   5.765 -0.3132 -0.3968 -1.0603
 1518TIP3   OH226044   3.761   6.471  13.707  0.5221  0.3685  0.2099
 1518TIP3    H126045   3.793   6.441  13.622 -0.9111  0.1403 -0.2763
 1518TIP3    H226046   3.704   6.545  13.686  2.4141  2.2161  1.2325
 1519TIP3   OH226047   1.004   5.381  15.567 -0.3605 -0.2351  0.5057
 1519TIP3    H126048   1.014   5.459  15.622  0.9167  1.1738 -1.5855
 1519TIP3    H226049   1.052   5.312  15.614  1.4372  1.1397  0.8174
 1520TIP3   OH226050   5.480   2.933  15.117  0.0132  0.3344  0.3481
 1520TIP3    H126051   5.470   2.967  15.206  0.4618  0.7167  0.2546
 1520TIP3    H226052   5.570   2.903  15.112  0.6208  2.1394 -0.5765
 1521TIP3   OH226053   2.017   0.269  15.650 -0.1642 -0.0838  0.1288
 1521TIP3    H126054   2.075   0.318  15.592  2.2106 -2.0295  0.6758
 1521TIP3    H226055   1.954   0.227  15.591 -0.4262  1.2949 -0.5965
 1522TIP3   OH226056   2.679   0.813   0.598  0.1704 -0.0506 -0.2703
 1522TIP3    H126057   2.671   0.889   0.657  2.6110  1.8048 -2.1417
 1522TIP3    H226058   2.591   0.801   0.563 -0.4065  1.5333  0.5259
 1523TIP3   OH226059   1.542   5.593   5.633 -0.4901  0.4256 -0.0493
 1523TIP3    H126060   1.608   5.599   5.701 -0.4971  1.6809 -0.1431
 1523TIP3    H226061   1.466   5.640   5.668  0.0527  2.5201 -1.5389
 1524TIP3   OH226062   0.405   3.869   2.047 -0.0585  0.1534  0.3757
 1524TIP3    H126063   0.388   3.963   2.053 -0.7963 -0.0543  2.1499
 1524TIP3    H226064   0.499   3.860   2.064 -0.3736  0.4325  2.4752
 1525TIP3   OH226065   5.523   6.247  13.231  0.4080 -0.2233  0.1993
 1525TIP3    H126066   5.433   6.277  13.244  0.5433  0.0729  0.4711
 1525TIP3    H226067   5.532   6.237  13.136 -0.3100 -1.5108  0.2574
 1526TIP3   OH226068   2.050   5.712  13.522  0.1818  0.5413 -0.2039
 1526TIP3    H126069   2.140   5.742  13.535 -0.4797  3.2984 -1.3528
 1526TIP3    H226070   1.998   5.761  13.585 -0.9643  2.0475 -2.1838
 1527TIP3   OH226071   1.836   5.867   4.305  0.6970 -0.1240 -0.2517
 1527TIP3    H126072   1.813   5.776   4.324  1.6993 -0.1498  0.9422
 1527TIP3    H226073   1.762   5.918   4.336  0.8714 -0.4224  0.6921
 1528TIP3   OH226074   2.048   5.279  11.574  0.2494 -0.0980 -0.1663
 1528TIP3    H126075   2.060   5.220  11.500 -0.9956 -0.4934 -0.0767
 1528TIP3    H226076   1.961   5.316  11.561 -0.3367 -0.7903  1.5173
 1529TIP3   OH226077   6.327   1.386   4.710  0.6377  0.3528 -0.3238
 1529TIP3    H126078   6.297   1.302   4.744 -2.1320  1.1816 -0.4479
 1529TIP3    H226079   6.347   1.438   4.787 -2.2065  1.0531  0.0552
 1530TIP3   OH226080   0.775   1.113  13.860  0.0690  0.0110  0.0052
 1530TIP3    H126081   0.822   1.196  13.849 -1.3810  0.6649 -2.1844
 1530TIP3    H226082   0.755   1.086  13.770 -1.4377 -1.5432  0.7611
 1531TIP3   OH226083   2.372   5.847   0.201  0.1617  0.2678  0.7874
 1531TIP3    H126084   2.397   5.757   0.182 -1.4824 -0.5170  2.0533
 1531TIP3    H226085   2.339   5.881   0.118  1.0303 -0.1910  0.2337
 1532TIP3   OH226086   6.449   6.279   3.179  0.1656 -0.1508  0.6600
 1532TIP3    H126087   6.461   6.295   3.272 -0.6293  0.3815  0.6823
 1532TIP3    H226088   6.400   6.198   3.174 -1.2774  0.6813  0.7846
 1533TIP3   OH226089   4.713   2.808  16.824  0.1506  0.2892  0.4022
 1533TIP3    H126090   4.669   2.830  16.906  2.2428  0.6442  1.5114
 1533TIP3    H226091   4.777   2.740  16.849  0.2889 -0.1745 -1.1047
 1534TIP3   OH226092   2.345   6.204  14.268  1.0665  0.0415  0.1349
 1534TIP3    H126093   2.427   6.218  14.315  0.5984  0.0476  0.9709
 1534TIP3    H226094   2.286   6.165  14.333  0.4092  0.0218 -0.4554
 1535TIP3   OH226095   3.150   6.156   3.057 -0.2416  0.0114  0.1785
 1535TIP3    H126096   3.063   6.130   3.086 -1.1540  1.8604 -0.7473
 1535TIP3    H226097   3.200   6.075   3.056 -1.7949 -1.0125  1.2272
 1536TIP3   OH226098   2.162   4.015   0.866 -0.3375 -0.0514  0.2341
 1536TIP3    H126099   2.172   4.096   0.915  0.2526  0.1421 -0.1984
 1536TIP3    H226100   2.241   3.965   0.885 -0.2688 -0.1283 -0.2246
 1537TIP3   OH226101   1.444   6.291  15.562  0.0217 -0.5073  0.0482
 1537TIP3    H126102   1.357   6.309  15.598  0.3512  0.9027  0.2325
 1537TIP3    H226103   1.433   6.299  15.468  0.1841  0.9714  0.1296
 1538TIP3   OH226104   3.143   2.645  15.280 -0.4376  0.3155 -0.1571
 1538TIP3    H126105   3.182   2.564  15.248 -0.9992 -0.1531  0.3406
 1538TIP3    H226106   3.131   2.631  15.374  1.1809  1.6664  0.3081
 1539TIP3   OH226107   1.834   0.064   4.111 -0.0924 -0.6451 -0.2384
 1539TIP3    H126108   1.925   0.035   4.119 -0.0292 -0.9326 -1.7058
 1539TIP3    H226109   1.795   0.005   4.047 -0.2485  1.7967 -2.5504
 1540TIP3   OH226110   0.054   2.414  15.861  0.3736  0.2085  0.1836
 1540TIP3    H126111   0.123   2.468  15.900 -0.3470  0.6304  0.8791
 1540TIP3    H226112  -0.007   2.397  15.933  0.3020 -1.0798 -0.1513
 1541TIP3   OH226113   1.407   3.843  14.453  0.0754  0.2138  0.1766
 1541TIP3    H126114   1.352   3.884  14.521 -1.9039 -3.7372  1.2281
 1541TIP3    H226115   1.489   3.822  14.499  0.0842  0.5797  0.3394
 1542TIP3   OH226116   1.891   1.691   0.081  0.3634 -0.1567  0.7615
 1542TIP3    H126117   1.804   1.652   0.068  0.2771  0.2452  0.0753
 1542TIP3    H226118   1.873   1.774   0.126 -0.2022  2.4534 -3.6721
 1543TIP3   OH226119   0.422   2.162  12.886  0.1265  0.0321  0.2617
 1543TIP3    H126120   0.513   2.138  12.868  0.2035  0.0489  0.6268
 1543TIP3    H226121   0.386   2.086  12.932 -0.3235 -0.3776 -0.7198
 1544TIP3   OH226122   1.646   5.707  15.037  0.3163 -0.6108 -1.3100
 1544TIP3    H126123   1.723   5.755  15.069 -0.0313 -2.6104  3.3519
 1544TIP3    H226124   1.576   5.772  15.038  1.2562  0.4951 -2.6108
 1545TIP3   OH226125   0.090   3.410   3.106 -0.2639  0.3981 -0.0672
 1545TIP3    H126126   0.140   3.467   3.047 -2.2027  0.8481 -1.3413
 1545TIP3    H226127   0.136   3.418   3.190  2.8478 -0.6082 -1.5167
 1546TIP3   OH226128   3.268   4.102   4.495  0.2071 -0.5408 -0.0612
 1546TIP3    H126129   3.224   4.103   4.580 -0.6346 -1.2513 -0.4766
 1546TIP3    H226130   3.321   4.182   4.494  0.4990 -0.7040  1.2660
 1547TIP3   OH226131   2.327   0.164   0.292 -0.1768 -0.0046 -0.3157
 1547TIP3    H126132   2.306   0.091   0.351  0.9721  0.7664  1.1378
 1547TIP3    H226133   2.249   0.176   0.239 -0.4675 -2.1475 -0.4452
 1548TIP3   OH226134   6.832   0.568  15.414  0.4515  0.2034 -0.1305
 1548TIP3    H126135   6.922   0.594  15.432  0.5153  0.6904 -1.0676
 1548TIP3    H226136   6.809   0.616  15.334 -0.7084  0.2454  0.2115
 1549TIP3   OH226137   5.919   5.581   3.985 -0.6396  0.0869 -0.1527
 1549TIP3    H126138   5.848   5.596   4.048  0.2280  1.7971  0.4760
 1549TIP3    H226139   5.932   5.666   3.944 -1.7723 -1.1317 -3.3699
 1550TIP3   OH226140   0.812   6.421  16.571  0.7139 -0.6058  0.2699
 1550TIP3    H126141   0.747   6.412  16.501 -0.3965  1.9479  0.8659
 1550TIP3    H226142   0.896   6.403  16.529 -0.2170 -3.0701 -0.7387
 1551TIP3   OH226143   4.433   4.970  15.982 -0.4854  0.4943  0.1769
 1551TIP3    H126144   4.480   5.053  15.975 -0.2266  0.5061  1.6734
 1551TIP3    H226145   4.341   4.995  15.990 -0.5639  0.5577 -0.8280
 1552TIP3   OH226146   2.249   4.583   2.199 -0.2702  0.5523  0.2407
 1552TIP3    H126147   2.345   4.579   2.196 -0.2162  1.7494 -0.4253
 1552TIP3    H226148   2.222   4.577   2.108 -0.6554  2.8084  0.1440
 1553TIP3   OH226149   2.810   6.623   5.916 -0.2434  0.5748 -0.1725
 1553TIP3    H126150   2.744   6.654   5.978 -0.7239 -2.1343  0.7804
 1553TIP3    H226151   2.794   6.529   5.909  0.6526  0.5569 -3.4273
 1554TIP3   OH226152   1.725   5.814  16.651 -0.6225  1.1886  0.2591
 1554TIP3    H126153   1.694   5.726  16.671 -2.3024  1.6474 -0.2303
 1554TIP3    H226154   1.750   5.850  16.737 -0.7308  0.5425  0.5665
 1555TIP3   OH226155   5.404   1.942   0.670  0.2645  0.2188  0.5723
 1555TIP3    H126156   5.431   1.964   0.759  1.6365  0.9205  0.0185
 1555TIP3    H226157   5.444   2.009   0.615 -1.8856  0.7452 -0.4593
 1556TIP3   OH226158   1.680   3.556   2.951 -0.2795  0.3901 -0.1060
 1556TIP3    H126159   1.635   3.512   2.879  0.4379  0.6768 -0.7450
 1556TIP3    H226160   1.750   3.496   2.976 -1.0935 -0.1334  1.0029
 1557TIP3   OH226161   1.162   5.921  14.890  0.0827 -0.3160 -0.0640
 1557TIP3    H126162   1.197   5.988  14.831 -0.2756 -0.4917 -0.4812
 1557TIP3    H226163   1.111   5.970  14.954 -3.8151 -0.3662 -2.8017
 1558TIP3   OH226164   3.567   5.192   0.045 -0.3336  0.2259 -0.1010
 1558TIP3    H126165   3.618   5.165   0.122 -0.6750  1.5924  0.6310
 1558TIP3    H226166   3.546   5.284   0.061 -2.7242 -0.1805 -0.5519
 1559TIP3   OH226167   5.294   5.979   0.031  0.1967 -0.1957  0.2155
 1559TIP3    H126168   5.335   5.936  -0.044 -0.4853 -0.8632  0.2148
 1559TIP3    H226169   5.276   5.909   0.093  0.3540  0.2921  0.8292
 1560TIP3   OH226170   6.154   5.922   4.040 -0.2980 -0.7807  0.3054
 1560TIP3    H126171   6.088   5.897   3.975 -0.7479  1.0696  0.0048
 1560TIP3    H226172   6.107   5.927   4.123 -1.0274  2.1413 -0.1632
 1561TIP3   OH226173   2.689   5.768   0.811 -0.7527  0.3193  0.3075
 1561TIP3    H126174   2.770   5.806   0.778 -1.4201  1.5414  0.0251
 1561TIP3    H226175   2.621   5.801   0.752 -1.4669 -0.6668  0.5462
 1562TIP3   OH226176   4.227   4.586  13.031  0.0014 -0.7038  0.4848
 1562TIP3    H126177   4.157   4.601  12.968 -1.6129 -3.2320  1.4931
 1562TIP3    H226178   4.245   4.492  13.025  0.8147 -0.7584  2.7459
 1563TIP3   OH226179   4.406   3.795  12.664 -0.2202  0.2848  0.3719
 1563TIP3    H126180   4.500   3.802  12.649 -0.0947  0.0254  1.0300
 1563TIP3    H226181   4.366   3.825  12.582  0.4337  0.3123  0.0637
 1564TIP3   OH226182   0.774   3.666  16.333 -0.0863  0.4694 -0.0481
 1564TIP3    H126183   0.823   3.735  16.377  0.5160 -0.4034  0.6939
 1564TIP3    H226184   0.729   3.620  16.404  1.5672 -1.4885 -0.1750
 1565TIP3   OH226185   1.891   3.301   0.242  0.0924 -0.2625  0.7218
 1565TIP3    H126186   1.848   3.234   0.189 -0.3998  0.6999 -0.1117
 1565TIP3    H226187   1.906   3.374   0.183 -0.6115  0.9063  1.9137
 1566TIP3   OH226188   4.083   5.270   3.494  0.3859 -0.1873 -0.1391
 1566TIP3    H126189   4.106   5.311   3.578  0.0358  1.9931 -1.0262
 1566TIP3    H226190   3.991   5.245   3.504  0.2223  0.4538  0.0041
 1567TIP3   OH226191   0.757   5.903   3.720 -0.0832 -0.0036 -0.4456
 1567TIP3    H126192   0.730   5.995   3.724  0.4061  0.1820 -1.1227
 1567TIP3    H226193   0.714   5.862   3.794 -0.2592  0.7890 -0.0960
 1568TIP3   OH226194   0.103   3.473   3.667  0.0333 -0.2432  0.1645
 1568TIP3    H126195   0.179   3.415   3.677 -0.0068 -0.0649  1.9174
 1568TIP3    H226196   0.139   3.561   3.683 -0.3880 -0.0666  0.1472
 1569TIP3   OH226197   4.728   3.522   2.586  0.1790  0.0073 -0.1912
 1569TIP3    H126198   4.763   3.604   2.619  0.6252 -0.2984  0.1089
 1569TIP3    H226199   4.805   3.468   2.569 -0.1339 -1.0699  1.4949
 1570TIP3   OH226200   3.028   6.356  15.447 -0.5044  0.1623  0.0115
 1570TIP3    H126201   2.956   6.402  15.490 -0.2483  1.5345 -0.9507
 1570TIP3    H226202   3.048   6.410  15.370 -0.7582 -2.0103 -1.6782
 1571TIP3   OH226203   5.385   0.282   2.062 -0.5746 -0.2565  0.1511
 1571TIP3    H126204   5.446   0.353   2.084 -0.8253  0.1317 -0.4003
 1571TIP3    H226205   5.429   0.234   1.992  0.5026 -1.8620  1.8432
 1572TIP3   OH226206   0.010   4.465   0.803  0.4358  0.0746 -0.2101
 1572TIP3    H126207   0.025   4.385   0.853 -2.2408 -0.2045  0.2850
 1572TIP3    H226208   0.003   4.435   0.712  0.0679 -0.1621 -0.1042
 1573TIP3   OH226209   6.142   1.582  15.322  0.5707  0.2366  0.0560
 1573TIP3    H126210   6.188   1.596  15.239  1.0830  0.9809  0.4575
 1573TIP3    H226211   6.211   1.567  15.386  0.1564 -0.8407  0.2692
 1574TIP3   OH226212   1.515   3.401   4.554 -0.3783 -0.0965  0.1698
 1574TIP3    H126213   1.591   3.344   4.556 -0.1807  0.1630  2.3257
 1574TIP3    H226214   1.538   3.469   4.491  0.6302 -0.7505 -0.1832
 1575TIP3   OH226215   6.563   6.525  12.886  0.4013 -0.0195  0.8364
 1575TIP3    H126216   6.549   6.619  12.889  2.8527  0.3921  1.1389
 1575TIP3    H226217   6.521   6.497  12.804 -1.2100  1.1358  1.2363
 1576TIP3   OH226218   5.811   6.245  16.379 -0.2959 -0.2070  0.0596
 1576TIP3    H126219   5.808   6.338  16.354  0.6276 -0.0844  0.3848
 1576TIP3    H226220   5.796   6.245  16.474  0.4160 -0.3301  0.1746
 1577TIP3   OH226221   1.160   6.066   0.163 -0.7474  0.4909 -0.6901
 1577TIP3    H126222   1.086   6.119   0.132 -0.8098  0.2873 -0.9010
 1577TIP3    H226223   1.237   6.105   0.121 -0.5911  1.3809  0.3927
 1578TIP3   OH226224   5.853   6.052   5.226 -0.4533  0.1514 -0.1661
 1578TIP3    H126225   5.882   6.097   5.305 -0.0614  0.9920 -0.7593
 1578TIP3    H226226   5.779   5.999   5.253  0.9690 -1.2479  1.1919
 1579TIP3   OH226227   1.570   0.790   0.159  0.3739  0.1805  0.1153
 1579TIP3    H126228   1.605   0.763   0.244  1.1996 -0.9394 -0.5553
 1579TIP3    H226229   1.598   0.881   0.150  1.0971  0.0197  0.6441
 1580TIP3   OH226230   4.354   0.118  11.302  0.2374 -0.3553  0.4682
 1580TIP3    H126231   4.297   0.042  11.319 -0.0099 -0.2341  0.1886
 1580TIP3    H226232   4.369   0.116  11.207 -0.9128  0.7428  0.2351
 1581TIP3   OH226233   2.537   2.350   1.035 -0.2330  0.0419  0.3633
 1581TIP3    H126234   2.621   2.385   1.062 -0.5374  1.9812 -1.0253
 1581TIP3    H226235   2.549   2.327   0.943 -0.5315 -2.0900  0.8019
 1582TIP3   OH226236   0.639   3.552   1.152  0.1682 -0.1304 -0.1544
 1582TIP3    H126237   0.583   3.480   1.122  0.1287  0.1525 -0.7626
 1582TIP3    H226238   0.727   3.527   1.124  0.4880 -0.9156  1.4062
 1583TIP3   OH226239   0.857   4.764  10.587  0.4877  0.1835 -0.1284
 1583TIP3    H126240   0.833   4.853  10.612  0.9307  0.3711 -0.3662
 1583TIP3    H226241   0.924   4.739  10.651  0.5537  0.1169 -0.2247
 1584TIP3   OH226242   0.450   6.486  11.580  0.3229 -0.2559  0.5859
 1584TIP3    H126243   0.413   6.463  11.665  1.2718 -1.3924  0.7100
 1584TIP3    H226244   0.482   6.576  11.591  0.4209 -0.3879  1.4240
 1585TIP3   OH226245   0.011   0.108   3.833  0.2458  0.3705 -0.1762
 1585TIP3    H126246   0.022   0.197   3.867 -0.7937  0.2941  0.4282
 1585TIP3    H226247  -0.081   0.104   3.807 -0.3358 -1.1579  1.8157
 1586TIP3   OH226248   6.436   4.290  16.569 -0.2623  0.1061 -0.0469
 1586TIP3    H126249   6.359   4.243  16.537 -1.4797  2.4781 -0.8361
 1586TIP3    H226250   6.505   4.271  16.506 -0.9615  0.0585 -0.8045
 1587TIP3   OH226251   2.341   2.886  14.270  0.7248 -0.3597  0.0820
 1587TIP3    H126252   2.327   2.981  14.271  1.4941 -0.2433 -0.0443
 1587TIP3    H226253   2.306   2.858  14.186  0.5788 -0.1779  0.0810
 1588TIP3   OH226254   3.731   4.732   1.669  0.1136 -0.3046  0.1980
 1588TIP3    H126255   3.707   4.647   1.706 -0.7115 -0.8862 -1.5386
 1588TIP3    H226256   3.805   4.714   1.611 -0.5347 -0.0200 -0.7583
 1589TIP3   OH226257   4.961   5.109   3.049 -0.1813 -0.3892 -0.4386
 1589TIP3    H126258   4.915   5.104   3.133 -0.4108  0.8665 -0.4689
 1589TIP3    H226259   4.895   5.143   2.988  0.7748  1.4946 -0.4761
 1590TIP3   OH226260   5.093   3.660  15.025  0.2068  0.1686  0.5315
 1590TIP3    H126261   5.155   3.726  15.056  0.5998 -0.2705  0.6903
 1590TIP3    H226262   5.139   3.617  14.952 -1.4230  2.5348 -2.1355
 1591TIP3   OH226263   1.336   4.792  12.112  0.1346 -0.0311 -0.0705
 1591TIP3    H126264   1.413   4.835  12.148  1.0006 -1.6167  0.0824
 1591TIP3    H226265   1.265   4.813  12.172  0.7418  0.3771  0.5105
 1592TIP3   OH226266   1.873   5.709   4.813  0.1939 -0.4491 -0.6199
 1592TIP3    H126267   1.902   5.761   4.738  1.1447 -1.3881 -0.9176
 1592TIP3    H226268   1.920   5.746   4.888  0.3250 -0.4244 -0.7149
 1593TIP3   OH226269   6.278   0.810   0.815  0.3073 -0.0315  0.4918
 1593TIP3    H126270   6.193   0.784   0.850  0.3838 -1.0150 -0.0082
 1593TIP3    H226271   6.273   0.787   0.722  1.3252 -0.6546  0.5759
 1594TIP3   OH226272   5.142   6.379   4.863  0.1913 -0.7597 -0.0756
 1594TIP3    H126273   5.091   6.331   4.797 -2.0232  2.0054 -0.5347
 1594TIP3    H226274   5.162   6.463   4.822  1.5494 -0.1669  1.6693
 1595TIP3   OH226275   0.724   1.167  12.127  0.1773 -0.2975  0.0940
 1595TIP3    H126276   0.809   1.190  12.164 -0.0244 -1.5867  1.4786
 1595TIP3    H226277   0.708   1.233  12.059  1.0791  1.5666  1.5950
 1596TIP3   OH226278   6.167   1.912  12.594  0.4666 -0.2867 -0.1950
 1596TIP3    H126279   6.184   1.851  12.666  0.0009 -0.8754 -0.5825
 1596TIP3    H226280   6.101   1.972  12.629  0.0647 -0.7192 -0.2113
 1597TIP3   OH226281   1.930   0.137   2.828 -0.4245  0.5956 -0.2266
 1597TIP3    H126282   1.871   0.146   2.753  0.6250  1.8414 -0.9554
 1597TIP3    H226283   1.919   0.047   2.857 -2.0409  0.5566 -0.8677
 1598TIP3   OH226284   5.031   2.523   5.162 -0.3073 -0.0025  0.1464
 1598TIP3    H126285   5.096   2.453   5.152 -2.5511 -2.1907 -0.1560
 1598TIP3    H226286   5.043   2.578   5.085  0.0224 -1.4071 -0.8483
 1599TIP3   OH226287   0.584   3.182   0.944  0.1812  0.2126 -0.4511
 1599TIP3    H126288   0.603   3.238   0.869 -0.6092 -0.9247 -1.5502
 1599TIP3    H226289   0.633   3.102   0.927 -0.2001 -0.1527  0.1206
 1600TIP3   OH226290   5.492   5.912  16.271  0.3739 -0.0282  0.0835
 1600TIP3    H126291   5.473   5.830  16.224 -1.5216  0.7973 -0.6889
 1600TIP3    H226292   5.480   5.890  16.363  2.5315 -1.2533  0.1456
 1601TIP3   OH226293   6.061   2.812   4.743  0.1572  0.1429  0.0198
 1601TIP3    H126294   6.112   2.732   4.735  1.4156  1.0782 -1.9803
 1601TIP3    H226295   6.126   2.881   4.758 -0.6317  1.1393 -0.9833
 1602TIP3   OH226296   3.731   2.504   1.590  0.1257  0.2103 -0.2533
 1602TIP3    H126297   3.779   2.585   1.609 -0.2795  0.2936  0.4497
 1602TIP3    H226298   3.790   2.454   1.534  1.1909  0.1615  0.8727
 1603TIP3   OH226299   6.147   1.952  16.961  1.1882 -0.8251  0.4815
 1603TIP3    H126300   6.161   2.020  16.895 -1.3642  0.2605  0.9099
 1603TIP3    H226301   6.188   1.986  17.040 -1.2804  1.0766  1.0878
 1604TIP3   OH226302   2.410   2.598   5.704  0.0826  0.2850 -0.7930
 1604TIP3    H126303   2.334   2.635   5.660 -1.0926  1.1407  1.7444
 1604TIP3    H226304   2.474   2.585   5.635 -1.7504  1.1435 -2.7650
 1605TIP3   OH226305   1.229   5.417  12.404  0.4632  0.1454  0.0813
 1605TIP3    H126306   1.197   5.327  12.410  0.0357  0.3066  0.2248
 1605TIP3    H226307   1.279   5.419  12.322  0.2585 -0.1517 -0.0533
 1606TIP3   OH226308   1.010   0.670   0.280  0.2909  0.0986 -0.4421
 1606TIP3    H126309   0.956   0.707   0.350  0.7585  1.1340 -0.6118
 1606TIP3    H226310   0.995   0.727   0.205  2.4847  1.1382 -0.1650
 1607TIP3   OH226311   0.412   5.100   2.029  0.0058  0.1915  0.4430
 1607TIP3    H126312   0.394   5.008   2.048 -1.7560  0.4780  0.3333
 1607TIP3    H226313   0.456   5.133   2.107 -1.0982 -0.2818  1.2866
 1608TIP3   OH226314   1.122   4.010   4.305 -0.7558  0.2531 -0.1681
 1608TIP3    H126315   1.096   4.102   4.301  0.0481  0.4554 -0.8634
 1608TIP3    H226316   1.180   3.998   4.231 -1.3505 -0.9859 -0.4555
 1609TIP3   OH226317   1.989   2.798  12.949 -0.5710 -0.1615  0.1512
 1609TIP3    H126318   1.996   2.729  13.015 -2.1930 -1.0296 -0.5259
 1609TIP3    H226319   2.076   2.803  12.910 -0.4146 -1.8662  0.2171
 1610TIP3   OH226320   0.577   5.382   2.017  0.2969 -0.0061 -0.5051
 1610TIP3    H126321   0.623   5.314   1.967  1.0254  0.4497 -0.4705
 1610TIP3    H226322   0.588   5.462   1.965  1.4821  0.5817  0.5734
 1611TIP3   OH226323   2.288   4.696  15.809  0.0860 -0.8719  0.9744
 1611TIP3    H126324   2.338   4.777  15.819  0.4194 -1.1778  1.9783
 1611TIP3    H226325   2.337   4.644  15.746 -1.3163  0.5743 -1.4597
 1612TIP3   OH226326   5.369   1.570   3.684 -0.5645  0.7634 -0.1758
 1612TIP3    H126327   5.400   1.632   3.618 -3.1992  0.8711 -1.4245
 1612TIP3    H226328   5.352   1.624   3.761  0.9796  0.8805  0.1319
 1613TIP3   OH226329   5.389   3.827  16.502 -0.2023  0.2196 -0.1253
 1613TIP3    H126330   5.374   3.896  16.438  0.3930  0.9236  0.4697
 1613TIP3    H226331   5.401   3.748  16.450 -0.3693  0.6586 -0.8428
 1614TIP3   OH226332   3.987   2.228  16.741  0.5618 -0.2859 -0.2259
 1614TIP3    H126333   3.962   2.186  16.823 -0.9886 -0.0473 -0.5490
 1614TIP3    H226334   4.026   2.158  16.689  0.1108 -0.7944  0.1109
 1615TIP3   OH226335   3.262   4.274  16.203 -0.1900 -0.0099 -0.2388
 1615TIP3    H126336   3.311   4.354  16.222  0.3268  0.0344 -1.6596
 1615TIP3    H226337   3.327   4.212  16.173 -0.9074 -0.1050 -1.6991
 1616TIP3   OH226338   2.485   0.343   6.074 -0.9188 -0.1741 -0.3369
 1616TIP3    H126339   2.395   0.376   6.065 -1.6432 -1.8698  0.2903
 1616TIP3    H226340   2.475   0.256   6.112  0.9588 -0.7065 -0.9481
 1617TIP3   OH226341   2.576   5.618  16.531  0.3891  0.3001  0.5528
 1617TIP3    H126342   2.594   5.524  16.526 -1.0379  0.0303  0.0395
 1617TIP3    H226343   2.488   5.624  16.567  0.0480  1.4002 -0.3811
 1618TIP3   OH226344   5.367   3.223   3.939  0.2069  0.1705 -0.4435
 1618TIP3    H126345   5.315   3.184   3.869 -0.1261  1.7434 -1.1215
 1618TIP3    H226346   5.322   3.305   3.959  1.6906  0.9370 -0.1324
 1619TIP3   OH226347   6.098   2.607  14.604 -0.3791  0.3400 -0.2037
 1619TIP3    H126348   6.003   2.620  14.602 -0.4968 -0.5121 -0.9942
 1619TIP3    H226349   6.135   2.694  14.587 -1.0418  0.5252 -0.7424
 1620TIP3   OH226350   3.727   6.017   2.888 -0.3027 -0.1158 -0.6522
 1620TIP3    H126351   3.723   5.981   2.977 -0.9121 -2.3400 -1.5223
 1620TIP3    H226352   3.821   6.016   2.867  0.0901  2.4147  0.6715
 1621TIP3   OH226353   2.033   3.880   5.595 -0.1225  0.0907 -0.3924
 1621TIP3    H126354   2.100   3.812   5.589 -0.1783 -0.0167  0.1518
 1621TIP3    H226355   1.953   3.838   5.564 -0.2057 -0.1609  0.1649
 1622TIP3   OH226356   5.234   1.663  12.913  0.2260  0.3045 -0.2416
 1622TIP3    H126357   5.320   1.675  12.874 -0.1759  0.9068 -0.9626
 1622TIP3    H226358   5.227   1.568  12.927  1.4874  0.3528  0.9806
 1623TIP3   OH226359   1.907   6.240   0.600  0.4523 -0.4681 -0.0306
 1623TIP3    H126360   1.945   6.152   0.599  1.1013 -0.1877 -0.3667
 1623TIP3    H226361   1.965   6.291   0.656 -0.2567 -0.3875  0.6553
 1624TIP3   OH226362   5.755   6.781   6.478 -0.2250  0.3741  0.3392
 1624TIP3    H126363   5.788   6.871   6.479 -0.4972  0.5134 -1.3640
 1624TIP3    H226364   5.719   6.769   6.566  0.5668  1.6367  0.8690
 1625TIP3   OH226365   5.781   0.106   4.542  0.1573 -0.2234  0.1263
 1625TIP3    H126366   5.803   0.179   4.600  0.6616  0.2280 -0.6170
 1625TIP3    H226367   5.749   0.037   4.600 -0.0828  0.5013  0.8607
 1626TIP3   OH226368   3.243   6.487   1.656  0.2993 -0.3065  0.1530
 1626TIP3    H126369   3.329   6.449   1.677 -0.0076 -0.9624  0.2527
 1626TIP3    H226370   3.183   6.413   1.659 -0.0305 -0.1239 -1.4615
 1627TIP3   OH226371   3.499   5.521   4.761 -0.1370 -0.4555  0.4698
 1627TIP3    H126372   3.406   5.511   4.779  0.0477 -0.1335  1.6828
 1627TIP3    H226373   3.542   5.463   4.823  0.4351 -1.8454 -1.1582
 1628TIP3   OH226374   4.635   2.372   0.018 -0.3991  0.6732 -0.2610
 1628TIP3    H126375   4.666   2.314   0.087 -1.3158 -0.3020 -0.6334
 1628TIP3    H226376   4.655   2.460   0.049  0.7412  0.1807  0.4647
 1629TIP3   OH226377   3.975   5.656  12.716  0.1098  0.7402  0.3197
 1629TIP3    H126378   3.961   5.571  12.676  1.6668 -0.5014  2.2200
 1629TIP3    H226379   3.927   5.652  12.799 -1.9226  2.7328 -0.6391
 1630TIP3   OH226380   2.379   4.904  13.142  0.2139 -0.2721  0.5400
 1630TIP3    H126381   2.430   4.899  13.223  0.8636 -0.7627  0.1147
 1630TIP3    H226382   2.288   4.892  13.169  0.3814 -0.0079  1.2424
 1631TIP3   OH226383   2.947   3.343   5.484  0.8291  0.7052 -0.2148
 1631TIP3    H126384   2.909   3.326   5.398  0.7460 -1.3264  0.1749
 1631TIP3    H226385   2.947   3.257   5.527 -0.0865  1.8462  2.2136
 1632TIP3   OH226386   3.099   6.794  11.618 -0.3603 -0.1094  0.4037
 1632TIP3    H126387   3.106   6.851  11.695  0.0221  1.5004 -0.7631
 1632TIP3    H226388   3.190   6.774  11.594 -0.3033  1.8332 -1.2906
 1633TIP3   OH226389   0.711   2.923   0.886 -0.4973  0.0443  0.0157
 1633TIP3    H126390   0.661   2.859   0.836 -1.6768  1.8048 -1.1618
 1633TIP3    H226391   0.726   2.881   0.971 -2.3519 -1.2706 -0.2575
 1634TIP3   OH226392   1.399   4.789  14.885 -0.1357  0.0203 -0.0141
 1634TIP3    H126393   1.325   4.782  14.825  1.3004 -0.4270 -1.8087
 1634TIP3    H226394   1.440   4.703  14.883  0.9118  0.4973  0.3034
 1635TIP3   OH226395   2.527   5.388  13.338  0.0444  0.3152 -0.8186
 1635TIP3    H126396   2.489   5.428  13.260  0.1165 -0.3229 -1.1941
 1635TIP3    H226397   2.569   5.460  13.385 -1.1168  0.9341 -0.6959
 1636TIP3   OH226398   3.102   6.467  12.013  0.0923 -0.6382  0.0522
 1636TIP3    H126399   3.024   6.447  12.065 -2.7628  1.9165 -2.7824
 1636TIP3    H226400   3.149   6.532  12.065 -0.2926 -1.2978  1.2753
 1637TIP3   OH226401   5.728   4.898  10.938  0.6017 -0.1483 -0.2095
 1637TIP3    H126402   5.733   4.989  10.909 -0.0295  0.4414  1.3927
 1637TIP3    H226403   5.676   4.855  10.871  1.0563  0.6325 -1.0846
 1638TIP3   OH226404   0.929   4.927   3.821 -0.3089  0.0122  0.0616
 1638TIP3    H126405   0.985   4.932   3.899 -1.2894 -1.0490  0.8696
 1638TIP3    H226406   0.839   4.930   3.856 -0.7683  0.3129 -1.0997
 1639TIP3   OH226407   2.161   3.433   0.133 -0.2743  0.1619 -0.1403
 1639TIP3    H126408   2.127   3.441   0.222  0.0210 -2.9834  0.3674
 1639TIP3    H226409   2.240   3.487   0.132  0.0468 -0.2224  1.7024
 1640TIP3   OH226410   1.779   3.716  13.282 -0.1398  0.5158 -0.5129
 1640TIP3    H126411   1.704   3.707  13.224 -1.0303  0.5930  0.5945
 1640TIP3    H226412   1.770   3.803  13.320  1.3185  1.1145 -1.4253
 1641TIP3   OH226413   5.703   6.177  16.632  0.1842 -0.4507 -0.5158
 1641TIP3    H126414   5.622   6.207  16.591 -0.3862 -0.2462  0.7346
 1641TIP3    H226415   5.688   6.083  16.648 -0.1627 -0.2390  0.4898
 1642TIP3   OH226416   3.902   3.426   2.887 -0.5231 -0.1524  0.6353
 1642TIP3    H126417   3.837   3.367   2.847  2.2926 -2.8109 -0.4336
 1642TIP3    H226418   3.896   3.408   2.981 -0.2237 -1.7105  0.3895
 1643TIP3   OH226419   2.444   4.645   2.692  0.1402  0.2741 -0.1978
 1643TIP3    H126420   2.453   4.679   2.603 -0.0479 -0.8783 -0.6847
 1643TIP3    H226421   2.360   4.599   2.692 -0.7607  1.8299  1.1462
 1644TIP3   OH226422   0.224   1.737  13.522 -0.5111  0.3545  0.4306
 1644TIP3    H126423   0.240   1.643  13.531  0.2326  0.5442  1.3294
 1644TIP3    H226424   0.204   1.767  13.611  1.6729  1.4345  0.6560
 1645TIP3   OH226425   3.357   2.049  11.860 -0.4745  0.3624 -0.1084
 1645TIP3    H126426   3.272   2.006  11.867 -1.4405  1.5821 -2.8137
 1645TIP3    H226427   3.344   2.135  11.901  0.5777 -0.6722  2.6113
 1646TIP3   OH226428   1.962   1.478   0.901  0.1364 -0.2203  0.3396
 1646TIP3    H126429   1.910   1.413   0.947  0.3905  0.5546  1.7719
 1646TIP3    H226430   2.029   1.505   0.964  1.8026 -0.6240 -1.1780
 1647TIP3   OH226431   3.581   2.559   3.552 -0.4332 -0.1074  0.5446
 1647TIP3    H126432   3.489   2.574   3.527 -0.3388 -0.1193  0.1864
 1647TIP3    H226433   3.614   2.497   3.486 -0.5185 -1.0919  1.3952
 1648TIP3   OH226434   5.561   4.942   4.516 -0.2338 -0.2630 -0.9075
 1648TIP3    H126435   5.466   4.940   4.502 -0.7304  1.3215  1.7059
 1648TIP3    H226436   5.576   4.876   4.583  0.3838  0.0661 -0.7192
 1649TIP3   OH226437   3.330   1.742  15.370  0.3076  0.0345 -0.0614
 1649TIP3    H126438   3.290   1.720  15.454 -0.8744 -1.1743 -0.9045
 1649TIP3    H226439   3.422   1.759  15.392 -0.3184  1.5163  1.7230
 1650TIP3   OH226440   6.284   6.804  10.841 -0.2179  0.0199 -0.1204
 1650TIP3    H126441   6.373   6.803  10.806  0.1930 -2.2479  0.8547
 1650TIP3    H226442   6.227   6.803  10.764  0.5952  0.3276 -0.7338
 1651TIP3   OH226443   0.285   0.469   3.717 -0.1226 -0.5341 -0.8340
 1651TIP3    H126444   0.280   0.411   3.793 -1.3076  0.3331 -0.2237
 1651TIP3    H226445   0.379   0.475   3.698  0.3439  0.4021  1.4889
 1652TIP3   OH226446   0.328   3.414  11.010 -0.7778 -0.6783 -0.1979
 1652TIP3    H126447   0.356   3.463  10.933  1.9335 -0.5288  0.7493
 1652TIP3    H226448   0.330   3.478  11.081 -1.7263 -1.1591  0.2818
 1653TIP3   OH226449   0.499   5.392   4.882  0.1002 -0.5303 -0.2200
 1653TIP3    H126450   0.500   5.435   4.797  0.7760  0.5049  0.2960
 1653TIP3    H226451   0.449   5.451   4.939  0.3086 -0.8396  0.2889
 1654TIP3   OH226452   1.000   3.691   3.387 -0.3370 -0.5819 -1.0770
 1654TIP3    H126453   0.962   3.621   3.334 -1.7642 -0.3084 -0.4752
 1654TIP3    H226454   1.008   3.766   3.328 -1.8618 -0.2948 -0.9563
 1655TIP3   OH226455   2.784   1.733   6.034  0.3576 -0.1983 -0.3978
 1655TIP3    H126456   2.844   1.731   6.109  2.9501 -0.6529 -2.3075
 1655TIP3    H226457   2.787   1.824   6.004  0.2673 -0.2618 -0.5999
 1656TIP3   OH226458   4.465   0.537  13.110 -0.1712  0.1331 -0.5280
 1656TIP3    H126459   4.419   0.529  13.194  2.7515  3.0572  1.6462
 1656TIP3    H226460   4.557   0.552  13.135  1.0077  0.1303 -4.3295
 1657TIP3   OH226461   5.802   4.518  15.858  0.5677  0.4485  0.2805
 1657TIP3    H126462   5.843   4.490  15.776 -0.9781 -0.6399 -0.1608
 1657TIP3    H226463   5.847   4.600  15.881  1.7279  0.2265 -1.0981
 1658TIP3   OH226464   6.248   3.561  15.869  0.3440  0.2450  0.2204
 1658TIP3    H126465   6.289   3.596  15.790 -2.2298  1.6778 -0.5907
 1658TIP3    H226466   6.231   3.469  15.848  0.3798  0.4186 -0.6072
 1659TIP3   OH226467   1.223   0.061  15.125  0.4689 -0.2309 -0.0575
 1659TIP3    H126468   1.281  -0.011  15.146 -0.1204 -0.7011 -0.0060
 1659TIP3    H226469   1.151   0.053  15.187 -0.7214 -0.9493 -1.4647
 1660TIP3   OH226470   3.586   4.580  13.052  0.4798  0.2327 -0.1327
 1660TIP3    H126471   3.557   4.576  12.961 -1.3178 -0.8172  0.4389
 1660TIP3    H226472   3.613   4.490  13.072 -1.2081 -0.0610  0.9769
 1661TIP3   OH226473   2.281   5.735  15.992  0.7072 -0.1409  0.0578
 1661TIP3    H126474   2.359   5.685  16.019  0.6170 -0.1226  0.3561
 1661TIP3    H226475   2.207   5.681  16.019  0.5963  0.4325  0.9467
 1662TIP3   OH226476   1.864   1.759  11.248  0.0931 -1.0279  0.1719
 1662TIP3    H126477   1.908   1.701  11.311  0.4291 -0.7659  0.1853
 1662TIP3    H226478   1.934   1.817  11.217 -0.3882 -0.1351  0.7187
 1663TIP3   OH226479   0.143   1.553   2.503 -0.5140  0.6392  0.2582
 1663TIP3    H126480   0.085   1.617   2.462 -1.0514  0.2304  0.3689
 1663TIP3    H226481   0.087   1.505   2.564 -0.5532 -1.1230 -1.0915
 1664TIP3   OH226482   3.894   5.717   4.864  0.1493 -0.5517  0.0453
 1664TIP3    H126483   3.963   5.778   4.837 -1.8241  1.9115  0.1726
 1664TIP3    H226484   3.883   5.659   4.789  1.8563 -0.5763 -0.2312
 1665TIP3   OH226485   4.836   5.134   0.071 -0.1663  0.2680  0.1084
 1665TIP3    H126486   4.756   5.098   0.109 -1.3111  3.2343  0.8294
 1665TIP3    H226487   4.885   5.168   0.146 -0.2682  2.1676 -0.6307
 1666TIP3   OH226488   4.401   2.388  10.950  0.1663 -0.3250  0.0006
 1666TIP3    H126489   4.368   2.361  10.864 -0.3976 -0.7128  0.3270
 1666TIP3    H226490   4.439   2.308  10.987 -0.9560 -0.5541  0.7212
 1667TIP3   OH226491   4.142   0.750  13.040  0.2572  0.2321 -0.3066
 1667TIP3    H126492   4.228   0.722  13.007 -0.1579 -0.1684 -1.0734
 1667TIP3    H226493   4.103   0.670  13.075  0.4962  0.5629  0.7524
 1668TIP3   OH226494   4.736   2.008  13.535  0.4448  0.1577  0.5745
 1668TIP3    H126495   4.806   2.064  13.566  1.4463  0.3593 -1.8298
 1668TIP3    H226496   4.775   1.921  13.528 -0.3061 -0.2830  1.6643
 1669TIP3   OH226497   3.704   1.150  16.424  0.1616  0.1953  0.1839
 1669TIP3    H126498   3.617   1.156  16.465  0.6290 -1.5477  1.5972
 1669TIP3    H226499   3.763   1.193  16.486  0.4620  0.2690 -0.1517
 1670TIP3   OH226500   4.955   5.071  14.814 -0.5012 -0.2669 -0.2978
 1670TIP3    H126501   5.039   5.049  14.773 -0.5021 -0.6559 -0.0930
 1670TIP3    H226502   4.966   5.160  14.846  0.1013 -0.5971  0.4256
 1671TIP3   OH226503   4.642   4.733  12.560 -0.1262  0.4469  0.2411
 1671TIP3    H126504   4.560   4.777  12.582 -0.2949  0.2853 -0.0566
 1671TIP3    H226505   4.679   4.785  12.488 -1.8352 -1.5463 -2.2976
 1672TIP3   OH226506   0.989   4.787   4.372 -1.0123 -0.2075  0.3663
 1672TIP3    H126507   0.934   4.709   4.371  0.8752 -1.6331 -0.9611
 1672TIP3    H226508   1.024   4.793   4.283  1.0833  0.4906  1.1589
 1673TIP3   OH226509   5.068   5.360   2.183 -0.5062  0.1325 -0.7404
 1673TIP3    H126510   5.085   5.334   2.093 -0.6888  0.4183 -0.8595
 1673TIP3    H226511   5.042   5.452   2.177  0.4263  0.4388 -0.3038
 1674TIP3   OH226512   0.932   6.369  14.306  0.3207  0.1532 -0.7395
 1674TIP3    H126513   1.025   6.361  14.324 -0.0158 -1.2580  0.6285
 1674TIP3    H226514   0.908   6.454  14.342  0.9630  0.2289 -0.4784
 1675TIP3   OH226515   3.955   0.631  12.550  0.3006 -0.1024 -0.8130
 1675TIP3    H126516   3.971   0.681  12.469 -1.3407 -0.3556 -1.3318
 1675TIP3    H226517   4.028   0.655  12.608  0.7391  1.1835 -1.8465
 1676TIP3   OH226518   0.647   2.442  13.389  0.5927  0.8597 -0.0753
 1676TIP3    H126519   0.593   2.375  13.346 -0.5022  1.6380  0.0356
 1676TIP3    H226520   0.610   2.450  13.477  1.8168  0.4022  0.5044
 1677TIP3   OH226521   5.018   3.773  15.655  0.0076  0.0094 -0.2176
 1677TIP3    H126522   5.010   3.681  15.677 -1.0627  0.3249  0.8019
 1677TIP3    H226523   4.988   3.779  15.564 -0.9187 -0.4981  0.0448
 1678TIP3   OH226524   4.890   1.901  13.769  0.0722 -0.2794 -0.0984
 1678TIP3    H126525   4.971   1.953  13.771  0.5314 -0.6773 -3.3279
 1678TIP3    H226526   4.912   1.824  13.716 -1.9522 -1.3427  0.5036
 1679TIP3   OH226527   4.179   3.470  13.162  0.1162  0.0238  0.2521
 1679TIP3    H126528   4.105   3.418  13.191  0.7190 -0.4801  0.9397
 1679TIP3    H226529   4.157   3.560  13.187 -0.3128 -0.1065  0.3401
 1680TIP3   OH226530   2.778   3.139   0.850  0.2877 -0.0676  0.0734
 1680TIP3    H126531   2.689   3.149   0.818  0.5016  2.5797  0.1132
 1680TIP3    H226532   2.826   3.212   0.812  2.8461 -2.2065 -1.0901
 1681TIP3   OH226533   0.703   3.364  16.363  0.0137  0.3270  0.1514
 1681TIP3    H126534   0.628   3.347  16.306  0.0361 -0.9211  0.4601
 1681TIP3    H226535   0.779   3.349  16.308  0.0377  1.1519 -0.0424
 1682TIP3   OH226536   1.466   2.912  15.389  0.2194 -0.3753 -0.1364
 1682TIP3    H126537   1.431   2.839  15.338  1.1217 -1.3648  0.6262
 1682TIP3    H226538   1.506   2.871  15.465 -0.2457  1.0046  0.8924
 1683TIP3   OH226539   2.562   2.241   1.290  0.4705 -0.0703  0.0348
 1683TIP3    H126540   2.627   2.179   1.257  1.7194  1.8152 -1.2402
 1683TIP3    H226541   2.537   2.293   1.214 -0.0988  1.3689  1.1459
 1684TIP3   OH226542   3.055   0.347   0.182  0.4122 -0.4516 -0.4052
 1684TIP3    H126543   3.067   0.403   0.259 -0.5012  1.2403 -1.4115
 1684TIP3    H226544   3.142   0.338   0.144  0.4745  1.1549 -0.7342
 1685TIP3   OH226545   1.664   4.772   1.572 -0.2229 -0.0301 -0.0889
 1685TIP3    H126546   1.596   4.716   1.534  1.5451 -0.6927 -2.5670
 1685TIP3    H226547   1.627   4.860   1.568 -1.6727 -0.5765  0.5091
 1686TIP3   OH226548   6.025   6.808  13.627 -0.1929  0.5136 -0.0924
 1686TIP3    H126549   6.042   6.900  13.643  0.2478  0.4826 -0.3761
 1686TIP3    H226550   6.052   6.763  13.707 -0.0184  0.5848 -0.1119
 1687TIP3   OH226551   4.668   3.303  14.585  0.2009 -0.7528  0.1339
 1687TIP3    H126552   4.597   3.368  14.578 -1.5302 -2.7112 -3.4970
 1687TIP3    H226553   4.636   3.240  14.649 -1.3260 -1.4149 -1.1823
 1688TIP3   OH226554   2.222   5.972   0.933 -0.7715  0.1094 -0.2851
 1688TIP3    H126555   2.205   5.909   1.002 -1.1948  0.4923 -0.0310
 1688TIP3    H226556   2.153   5.957   0.869 -0.6099  0.0160 -0.4381
 1689TIP3   OH226557   3.354   6.157  11.031 -0.4898  0.0279  0.5944
 1689TIP3    H126558   3.394   6.093  11.090 -0.3327  0.1530  0.6235
 1689TIP3    H226559   3.336   6.107  10.951 -1.3131 -0.3100  0.9772
 1690TIP3   OH226560   1.871   0.670   0.835 -0.0564  0.1520 -0.1410
 1690TIP3    H126561   1.957   0.643   0.868 -1.0171 -0.3478  2.0979
 1690TIP3    H226562   1.891   0.727   0.761  2.1953 -0.2233  0.1100
 1691TIP3   OH226563   5.195   5.409  12.149  0.1426  0.1215  0.4082
 1691TIP3    H126564   5.196   5.334  12.210  1.9903  0.2726  0.6309
 1691TIP3    H226565   5.134   5.471  12.189 -1.1557 -1.1113  0.4017
 1692TIP3   OH226566   6.391   2.100  16.100  0.0301 -0.3981 -0.1193
 1692TIP3    H126567   6.420   2.061  16.182 -0.0247  0.1277  0.1541
 1692TIP3    H226568   6.298   2.077  16.094 -0.2514  0.4983  0.5289
 1693TIP3   OH226569   5.985   4.503  13.644  0.4444  0.1697  0.1003
 1693TIP3    H126570   5.970   4.410  13.664  0.3365  0.5740  2.0465
 1693TIP3    H226571   5.939   4.517  13.561  1.9950 -1.9278 -1.2035
 1694TIP3   OH226572   2.673   2.359   2.659 -0.1280 -0.4376 -0.3978
 1694TIP3    H126573   2.683   2.410   2.740 -0.0949 -0.1496 -0.5843
 1694TIP3    H226574   2.615   2.411   2.604  1.1254  0.1536 -1.2048
 1695TIP3   OH226575   0.270   4.685   4.455 -0.2227 -0.8384  0.2136
 1695TIP3    H126576   0.289   4.687   4.549 -0.9695 -1.3008  0.3769
 1695TIP3    H226577   0.199   4.622   4.445 -1.4894  0.6064 -0.4068
 1696TIP3   OH226578   0.205   1.336  11.434 -0.5324  0.3199  0.1617
 1696TIP3    H126579   0.218   1.421  11.477 -1.4174  0.7869 -0.4727
 1696TIP3    H226580   0.181   1.358  11.344  0.5792 -0.6417 -0.3947
 1697TIP3   OH226581   0.104   2.153   6.128  0.0784 -0.7930 -0.3454
 1697TIP3    H126582   0.030   2.099   6.158  0.4503 -1.4756 -0.6245
 1697TIP3    H226583   0.063   2.230   6.090 -0.5065 -1.2426 -0.6519
 1698TIP3   OH226584   2.052   2.703  10.969 -0.2050 -0.1001 -0.2972
 1698TIP3    H126585   2.076   2.787  10.930 -0.5196  0.6671  1.0982
 1698TIP3    H226586   2.136   2.661  10.988 -0.0480 -0.2237 -1.2249
 1699TIP3   OH226587   4.204   5.558  11.569  0.9276 -0.0206 -0.3842
 1699TIP3    H126588   4.210   5.585  11.478 -2.3425 -2.5336 -1.5560
 1699TIP3    H226589   4.268   5.487  11.577  2.2309  1.1259 -0.2298
 1700TIP3   OH226590   3.409   0.977  14.878 -0.1940  0.1267 -0.0955
 1700TIP3    H126591   3.378   1.067  14.885  0.3285  0.3324 -0.3067
 1700TIP3    H226592   3.486   0.983  14.821 -0.1011 -0.4397 -0.0386
 1701TIP3   OH226593   3.124   2.128  12.869  0.6652 -0.3264 -0.3494
 1701TIP3    H126594   3.120   2.185  12.792 -0.3474 -2.0827 -1.6639
 1701TIP3    H226595   3.145   2.042  12.833 -0.6661 -1.3619  1.2632
 1702TIP3   OH226596   0.012   4.276  16.163 -0.4834 -0.0705  0.7951
 1702TIP3    H126597   0.022   4.370  16.177 -1.8586  0.2624 -0.2336
 1702TIP3    H226598   0.085   4.236  16.211  0.4412  1.5418  0.7874
 1703TIP3   OH226599   1.449   0.272   1.513 -0.5603 -0.2780  0.0106
 1703TIP3    H126600   1.467   0.250   1.605  0.5013 -0.1303 -0.1485
 1703TIP3    H226601   1.379   0.213   1.487 -2.1261  0.8657  1.4308
 1704TIP3   OH226602   6.512   1.486   0.041  0.3693  0.7062  0.5328
 1704TIP3    H126603   6.576   1.435  -0.008 -0.3623 -0.4842  0.7800
 1704TIP3    H226604   6.513   1.448   0.129 -0.2543  1.0526  0.7004
 1705TIP3   OH226605   1.116   0.972   5.313 -0.5474 -0.2855  0.2110
 1705TIP3    H126606   1.194   0.930   5.278  0.7793  1.2057  1.2513
 1705TIP3    H226607   1.138   0.992   5.404 -2.1092  0.2440  0.5016
 1706TIP3   OH226608   0.050   3.580   0.631  0.1046  0.3744  0.2288
 1706TIP3    H126609   0.105   3.649   0.668  0.6593 -1.4870  3.1837
 1706TIP3    H226610   0.111   3.509   0.612 -0.9780 -0.9191  1.4770
 1707TIP3   OH226611   1.570   1.513  10.755 -0.2709 -0.3557 -0.1869
 1707TIP3    H126612   1.540   1.475  10.672  0.3517 -0.0052 -0.5810
 1707TIP3    H226613   1.628   1.585  10.729  1.4517 -1.4139  0.5107
 1708TIP3   OH226614   2.530   2.820  11.559 -0.3470  0.5070  0.2697
 1708TIP3    H126615   2.588   2.887  11.593  3.3867 -1.7379 -1.0343
 1708TIP3    H226616   2.491   2.859  11.481  1.5646  1.3230 -0.3499
 1709TIP3   OH226617   5.613   4.680   4.097 -0.4476 -0.0910  0.1709
 1709TIP3    H126618   5.671   4.606   4.075  0.2629  0.5667 -0.2285
 1709TIP3    H226619   5.644   4.710   4.182  0.5284  0.9236 -0.5040
 1710TIP3   OH226620   3.134   4.188  12.490 -0.5288  0.2739 -0.2769
 1710TIP3    H126621   3.214   4.214  12.443  0.1917 -1.4282 -0.0533
 1710TIP3    H226622   3.150   4.097  12.515 -2.3203  0.0893  0.2775
 1711TIP3   OH226623   3.022   5.617   6.160  0.1050 -0.0604 -0.1862
 1711TIP3    H126624   2.944   5.582   6.205  2.3908 -1.8978  2.7284
 1711TIP3    H226625   3.054   5.685   6.219  1.0590  0.2576 -1.0465
 1712TIP3   OH226626   1.697   2.942   6.095  0.1671  0.3041 -0.9225
 1712TIP3    H126627   1.772   2.884   6.109 -1.1883 -1.3429  0.0416
 1712TIP3    H226628   1.692   2.994   6.175  0.1495  0.2292 -0.8743
 1713TIP3   OH226629   5.381   0.488  14.262  0.2860  0.0700  0.7203
 1713TIP3    H126630   5.328   0.413  14.289  2.2037 -1.0821  1.4943
 1713TIP3    H226631   5.383   0.544  14.339 -1.9514  1.4909 -0.1604
 1714TIP3   OH226632   1.073   5.814   2.902 -0.8347 -0.4627  0.2756
 1714TIP3    H126633   1.129   5.765   2.842 -0.1627  0.6417 -0.0238
 1714TIP3    H226634   0.984   5.795   2.871 -0.4895  0.7564 -1.6771
 1715TIP3   OH226635   3.421   4.545   4.578  0.6610 -0.5701  0.2390
 1715TIP3    H126636   3.367   4.492   4.637 -0.5497  0.9632  0.5828
 1715TIP3    H226637   3.445   4.621   4.630  0.3243  0.3859 -0.9685
 1716TIP3   OH226638   3.602   3.775  12.300  0.2669  0.2487 -0.1264
 1716TIP3    H126639   3.695   3.790  12.315  0.1449 -0.7002  1.7984
 1716TIP3    H226640   3.560   3.857  12.327  0.4253  0.1412  0.4500
 1717TIP3   OH226641   4.954   1.949  11.129 -0.4365  0.8517  0.3962
 1717TIP3    H126642   5.005   1.869  11.114 -0.1725  0.8612  1.1616
 1717TIP3    H226643   4.877   1.939  11.074  0.5164  0.9607 -1.0191
 1718TIP3   OH226644   2.149   0.788   0.788  0.3649 -0.0057  0.0795
 1718TIP3    H126645   2.166   0.695   0.805 -2.8792 -0.6360  0.5689
 1718TIP3    H226646   2.130   0.825   0.874  2.1554  1.2947 -0.0503
 1719TIP3   OH226647   5.141   6.123   0.266 -0.6458 -0.1805  0.1343
 1719TIP3    H126648   5.090   6.042   0.274 -0.1183 -0.5877 -0.4909
 1719TIP3    H226649   5.078   6.193   0.281 -1.2025 -0.7010  0.2505
 1720TIP3   OH226650   6.821   0.782  15.629  0.2013 -0.0549  0.1550
 1720TIP3    H126651   6.839   0.876  15.619  0.4478  0.0268  1.2573
 1720TIP3    H226652   6.791   0.754  15.542  1.3197  0.7741 -0.5319
 1721TIP3   OH226653   3.080   6.294   5.282  0.0060 -0.1940  0.5196
 1721TIP3    H126654   2.988   6.305   5.309  0.0974 -0.7436  1.0697
 1721TIP3    H226655   3.075   6.249   5.198 -0.2106 -1.1488  1.0321
 1722TIP3   OH226656   2.735   6.711  12.947  0.0739  0.8945  0.3850
 1722TIP3    H126657   2.755   6.775  13.015  0.8209  2.6456 -1.3956
 1722TIP3    H226658   2.646   6.733  12.918  0.3292  1.1469 -0.2258
 1723TIP3   OH226659   4.588   3.336  12.130  0.3948  0.4586  1.3205
 1723TIP3    H126660   4.501   3.372  12.115  0.7901  1.4671  1.3889
 1723TIP3    H226661   4.638   3.408  12.169  1.0801 -0.2986  1.8780
 1724TIP3   OH226662   5.858   3.693   1.497 -0.2048  0.7714 -0.2574
 1724TIP3    H126663   5.890   3.609   1.464 -0.6547  0.9149 -1.0751
 1724TIP3    H226664   5.763   3.684   1.500 -0.1728 -0.0410  3.1992
 1725TIP3   OH226665   4.984   1.482  16.536  0.4901 -0.0537  0.3854
 1725TIP3    H126666   4.921   1.549  16.563 -0.6394 -0.5685 -0.8671
 1725TIP3    H226667   4.933   1.402  16.529  1.8363 -1.1141  1.9228
 1726TIP3   OH226668   1.195   1.056   4.304  0.4297  0.4977 -0.0187
 1726TIP3    H126669   1.128   1.010   4.254  2.3299 -0.2791 -2.0144
 1726TIP3    H226670   1.199   1.010   4.387  0.4749 -1.3284 -0.9851
 1727TIP3   OH226671   5.660   1.741   3.805 -0.0735 -0.2366 -0.0926
 1727TIP3    H126672   5.727   1.694   3.756  2.6919  3.3201 -0.1606
 1727TIP3    H226673   5.699   1.752   3.892 -0.9453  1.1501  0.1421
 1728TIP3   OH226674   1.558   1.331   1.202  0.1160 -0.1592  0.3967
 1728TIP3    H126675   1.462   1.337   1.211 -0.3830 -0.2140 -3.2680
 1728TIP3    H226676   1.592   1.388   1.271 -2.6483  1.3082  0.7021
 1729TIP3   OH226677   1.750   2.712  15.213  0.4949 -0.0897  0.0876
 1729TIP3    H126678   1.837   2.686  15.242  1.2325 -0.6268 -2.3885
 1729TIP3    H226679   1.692   2.644  15.248  1.0993  0.0249  1.3713
 1730TIP3   OH226680   6.777   2.525   0.616  0.1496  0.0489  0.6543
 1730TIP3    H126681   6.823   2.497   0.695 -0.5441 -0.2072  0.9808
 1730TIP3    H226682   6.729   2.447   0.587 -1.6861  0.7925  1.4892
 1731TIP3   OH226683   2.875   4.215  12.172  0.5232  0.7890  0.4100
 1731TIP3    H126684   2.862   4.121  12.157 -1.2476  0.8481  1.2685
 1731TIP3    H226685   2.908   4.248  12.089 -0.4042 -0.3301 -0.4516
 1732TIP3   OH226686   0.083   6.043  14.145  1.0804 -0.1276 -0.2091
 1732TIP3    H126687   0.043   5.979  14.086 -0.7382  1.6456 -1.0340
 1732TIP3    H226688   0.160   6.075  14.099  0.2040  0.5472 -1.2536
 1733TIP3   OH226689   2.505   6.292  12.601 -0.0576  0.1277 -0.3007
 1733TIP3    H126690   2.600   6.296  12.591  0.2603  0.9853  2.2528
 1733TIP3    H226691   2.488   6.207  12.642  0.0210  1.0794  1.8916
 1734TIP3   OH226692   4.745   1.215   6.274  0.4680 -0.0515  0.2654
 1734TIP3    H126693   4.759   1.179   6.361 -1.4642  1.4098  1.2505
 1734TIP3    H226694   4.650   1.214   6.263  0.5203  2.1215 -0.7775
 1735TIP3   OH226695   5.295   2.916  11.304 -0.3688 -0.0304 -0.0495
 1735TIP3    H126696   5.383   2.935  11.335  0.1879 -0.1210 -1.4958
 1735TIP3    H226697   5.308   2.876  11.218 -1.8732  1.8535 -1.2265
 1736TIP3   OH226698   0.881   1.865  14.707  0.2230  0.7201 -0.3352
 1736TIP3    H126699   0.791   1.895  14.693  0.2964  0.7805 -0.6776
 1736TIP3    H226700   0.920   1.863  14.620 -0.0563 -1.2761 -0.4646
 1737TIP3   OH226701   0.784   1.343  12.613 -0.0239  0.2074  0.1147
 1737TIP3    H126702   0.775   1.305  12.701  1.2322  2.0280  1.1099
 1737TIP3    H226703   0.859   1.403  12.621 -1.1480  1.9575 -1.6156
 1738TIP3   OH226704   1.736   5.752  16.265  0.0923  0.5710  0.0635
 1738TIP3    H126705   1.641   5.755  16.249  0.3211 -0.6784 -1.8188
 1738TIP3    H226706   1.752   5.663  16.296  0.7650  0.5364 -0.3862
 1739TIP3   OH226707   1.402   1.854   3.173 -0.0152 -0.0848 -0.6290
 1739TIP3    H126708   1.351   1.856   3.254 -0.7632 -0.1846 -1.0874
 1739TIP3    H226709   1.431   1.763   3.166  2.0536  0.3931  0.7187
 1740TIP3   OH226710   6.220   4.353  14.743  0.0212 -0.6966  0.0432
 1740TIP3    H126711   6.136   4.338  14.700  0.2190 -1.4147 -0.0963
 1740TIP3    H226712   6.222   4.290  14.815 -0.0979  0.1704  0.8297
 1741TIP3   OH226713   0.297   4.409   2.175  0.0003 -0.1510 -0.3747
 1741TIP3    H126714   0.237   4.358   2.121 -0.7298  1.4516 -1.1400
 1741TIP3    H226715   0.241   4.468   2.225  0.8261 -0.0605  0.4847
 1742TIP3   OH226716   2.131   1.439  14.980 -0.3656  0.5995  0.5200
 1742TIP3    H126717   2.039   1.420  14.996 -0.0706  0.1458  1.7438
 1742TIP3    H226718   2.130   1.520  14.928 -1.5474 -0.9742 -2.1044
 1743TIP3   OH226719   6.724   3.442  13.599 -0.3407 -0.2483 -0.1345
 1743TIP3    H126720   6.739   3.531  13.568 -1.2758 -0.5671 -1.6038
 1743TIP3    H226721   6.812   3.404  13.605  0.0161  0.5556 -0.1368
 1744TIP3   OH226722   1.680   3.570  15.582  0.2526 -0.0377  0.5511
 1744TIP3    H126723   1.739   3.495  15.588  0.1345 -0.1732  0.0449
 1744TIP3    H226724   1.636   3.572  15.667  0.8466 -0.0470  0.8653
 1745TIP3   OH226725   3.046   4.960  10.755  0.3489 -0.2638 -0.6235
 1745TIP3    H126726   3.093   4.940  10.674  0.1950  0.8476 -1.0059
 1745TIP3    H226727   3.102   5.024  10.800 -0.1599  0.0584 -0.4451
 1746TIP3   OH226728   5.983   0.269  15.387 -0.6548  0.2507 -0.0394
 1746TIP3    H126729   5.934   0.308  15.459  0.1117  1.9134 -0.3702
 1746TIP3    H226730   6.056   0.223  15.429 -1.4502 -0.7173  0.3389
 1747TIP3   OH226731   6.099   1.288  11.758  0.2896 -0.7983  0.7672
 1747TIP3    H126732   6.170   1.227  11.736  2.9313  1.5170  2.2156
 1747TIP3    H226733   6.047   1.241  11.822  0.3449 -2.6534 -0.4765
 1748TIP3   OH226734   5.564   2.254  16.098  0.0663  0.1517 -0.5286
 1748TIP3    H126735   5.619   2.218  16.028 -3.0053 -1.5107 -2.2616
 1748TIP3    H226736   5.509   2.181  16.127 -0.3384  1.3603  2.1359
 1749TIP3   OH226737   3.818   3.594   3.667 -0.7628  0.1775  0.5008
 1749TIP3    H126738   3.874   3.590   3.744 -0.4296  0.3173  0.2665
 1749TIP3    H226739   3.858   3.660   3.611 -0.3129 -0.7817 -0.3350
 1750TIP3   OH226740   0.474   2.213   5.249  0.2903  0.7280 -0.2040
 1750TIP3    H126741   0.467   2.183   5.340  1.2518 -0.2647 -0.4312
 1750TIP3    H226742   0.402   2.275   5.238 -0.4067  0.1516  0.9585
 1751TIP3   OH226743   0.917   2.384  13.888  0.3191  0.2366  0.2743
 1751TIP3    H126744   0.988   2.400  13.951  0.0034  1.1128  0.4222
 1751TIP3    H226745   0.837   2.402  13.938 -0.3006 -3.9135  1.1600
 1752TIP3   OH226746   0.700   4.969   2.936 -0.1062  0.4666  0.6865
 1752TIP3    H126747   0.778   4.961   2.990  0.1130 -0.4752  0.2546
 1752TIP3    H226748   0.642   4.899   2.967 -0.1084  0.1236 -0.0788
 1753TIP3   OH226749   1.300   0.016   1.473 -0.0886 -0.0614  0.1477
 1753TIP3    H126750   1.297  -0.008   1.566 -0.1536  0.4241  0.2767
 1753TIP3    H226751   1.391   0.003   1.447 -0.1895 -0.7426  0.1279
 1754TIP3   OH226752   1.606   3.743  14.657  0.2802  0.7904  0.0164
 1754TIP3    H126753   1.611   3.832  14.693  1.1277  1.0924 -0.7871
 1754TIP3    H226754   1.695   3.710  14.662  0.5589  1.0327 -2.1550
 1755TIP3   OH226755   1.367   3.505  13.099  0.0366 -0.1004  0.3812
 1755TIP3    H126756   1.369   3.410  13.115  0.9695  0.0011  0.9262
 1755TIP3    H226757   1.302   3.538  13.161  0.3343 -0.2791  0.7889
 1756TIP3   OH226758   0.119   2.198  16.542  0.7155  0.0271 -0.2662
 1756TIP3    H126759   0.082   2.114  16.515  1.4893  0.1908 -1.9515
 1756TIP3    H226760   0.074   2.263  16.488 -0.0371  0.7503  1.1803
 1757TIP3   OH226761   1.530   2.884   4.426 -0.2703 -0.5242  0.6968
 1757TIP3    H126762   1.621   2.907   4.445  1.3161 -3.2406 -2.5314
 1757TIP3    H226763   1.490   2.873   4.512  1.2195  4.2896  2.3572
 1758TIP3   OH226764   3.132   0.752  16.865  0.2100 -0.8147  0.1495
 1758TIP3    H126765   3.215   0.743  16.819  0.8732  1.2477  0.8497
 1758TIP3    H226766   3.156   0.749  16.958 -0.1434  1.9598  0.4048
 1759TIP3   OH226767   0.520   0.710  13.772 -0.6518  0.4731  0.3276
 1759TIP3    H126768   0.430   0.744  13.771 -0.3383  1.3659 -0.9938
 1759TIP3    H226769   0.562   0.755  13.846 -1.2398  0.1819  0.8454
 1760TIP3   OH226770   3.519   1.089   4.257  0.2718 -0.6865 -0.1645
 1760TIP3    H126771   3.493   1.090   4.165  2.1466 -0.0662 -0.7508
 1760TIP3    H226772   3.606   1.131   4.257  0.7455 -1.5701  1.7461
 1761TIP3   OH226773   5.892   1.003   3.727  0.2657 -0.8224  0.2508
 1761TIP3    H126774   5.935   1.037   3.649 -1.0663 -0.1868 -0.2420
 1761TIP3    H226775   5.867   0.914   3.703  0.1890 -0.7576  0.0921
 1762TIP3   OH226776   1.287   4.002   2.572 -0.1705  0.3579 -0.1957
 1762TIP3    H126777   1.344   3.995   2.494  0.4260  0.6318  0.2054
 1762TIP3    H226778   1.302   4.091   2.604 -1.8299  0.8911 -0.8309
 1763TIP3   OH226779   6.164   4.333  15.567  0.4120  0.0745 -0.4050
 1763TIP3    H126780   6.243   4.362  15.612 -1.0512  1.1909  1.6088
 1763TIP3    H226781   6.125   4.268  15.626 -1.5460  1.5538  0.0584
 1764TIP3   OH226782   3.392   0.640   0.555  0.6214 -0.4617 -0.2310
 1764TIP3    H126783   3.329   0.589   0.606  0.0983 -0.6442 -1.0308
 1764TIP3    H226784   3.477   0.603   0.577  0.3737 -0.7455  0.2623
 1765TIP3   OH226785   1.189   1.261   3.154 -0.5960 -0.6195 -0.3433
 1765TIP3    H126786   1.194   1.355   3.173 -0.1785 -0.1779 -2.3621
 1765TIP3    H226787   1.184   1.219   3.240  1.5342  1.1150  0.7283
 1766TIP3   OH226788   0.743   4.369  13.762 -0.0177 -0.9343 -0.0295
 1766TIP3    H126789   0.788   4.437  13.812  1.1892 -1.9256  0.2878
 1766TIP3    H226790   0.662   4.410  13.733 -0.4926 -0.1280  2.2215
 1767TIP3   OH226791   0.328   4.202  11.689 -0.1737  0.2623  0.0558
 1767TIP3    H126792   0.361   4.180  11.602 -0.6559  0.1530 -0.0992
 1767TIP3    H226793   0.360   4.291  11.705 -1.0531  0.7356 -0.7186
 1768TIP3   OH226794   6.801   6.354   4.878  0.3412  0.0918 -0.3288
 1768TIP3    H126795   6.836   6.408   4.948 -0.8960 -0.1676  0.5292
 1768TIP3    H226796   6.878   6.323   4.830  1.2641 -0.3441  1.3739
 1769TIP3   OH226797   0.756   5.822  11.086 -0.3446  0.1622 -0.1178
 1769TIP3    H126798   0.700   5.813  11.009  0.3856  0.0735 -0.6425
 1769TIP3    H226799   0.758   5.735  11.125 -3.5616  0.8601  2.0636
 1770TIP3   OH226800   6.153   3.484  11.390 -0.1445 -0.3339  0.3392
 1770TIP3    H126801   6.066   3.446  11.378 -0.9426  0.9111  1.8566
 1770TIP3    H226802   6.157   3.506  11.483  0.8998  1.7737 -0.1487
 1771TIP3   OH226803   0.243   2.153   0.653  0.2794 -0.1709  0.5997
 1771TIP3    H126804   0.166   2.109   0.691  0.2952  0.2782  1.1591
 1771TIP3    H226805   0.312   2.087   0.656 -0.6226 -1.3622 -1.9675
 1772TIP3   OH226806   1.598   5.304   5.618  0.4026 -0.3889 -0.5275
 1772TIP3    H126807   1.600   5.218   5.660 -0.9841 -0.4326 -0.4733
 1772TIP3    H226808   1.568   5.364   5.687  0.3721 -0.0441 -0.8359
 1773TIP3   OH226809   3.998   6.401   4.832 -0.7015 -0.1799  0.5558
 1773TIP3    H126810   3.927   6.419   4.771 -0.4897  0.0051  0.3660
 1773TIP3    H226811   4.075   6.387   4.777 -0.1959  1.3503  0.8145
 1774TIP3   OH226812   0.467   3.612   3.245  0.5537 -0.1027 -0.0984
 1774TIP3    H126813   0.526   3.558   3.297  0.5251 -0.0121  0.0312
 1774TIP3    H226814   0.524   3.672   3.197  0.6111 -0.5805 -0.6269
 1775TIP3   OH226815   4.557   1.407  13.635  0.3150 -0.2105  0.7946
 1775TIP3    H126816   4.615   1.480  13.653  0.5021 -0.3853  0.9059
 1775TIP3    H226817   4.470   1.438  13.662  0.2594  0.2492  0.1139
 1776TIP3   OH226818   6.671   1.335  11.796  0.1431  0.4031 -0.3883
 1776TIP3    H126819   6.589   1.360  11.752 -0.4655 -0.4314  0.2460
 1776TIP3    H226820   6.643   1.283  11.872  1.2488  0.4020  0.0409
 1777TIP3   OH226821   4.073   4.291  12.553 -0.3641  0.8368 -0.3157
 1777TIP3    H126822   3.992   4.326  12.516 -1.5103 -1.6020 -0.3247
 1777TIP3    H226823   4.143   4.326  12.498 -1.7366  0.0719 -2.6971
 1778TIP3   OH226824   0.198   3.050   2.071 -0.5042 -0.2870 -0.5267
 1778TIP3    H126825   0.236   3.052   2.159 -2.8683  1.6832  0.5665
 1778TIP3    H226826   0.267   3.013   2.016  2.1557  1.1128  1.6381
 1779TIP3   OH226827   2.363   2.071   3.076 -0.2296  0.1695 -0.3157
 1779TIP3    H126828   2.390   1.984   3.047 -2.0159  0.0147 -1.7045
 1779TIP3    H226829   2.436   2.102   3.129  0.9407 -1.7069 -0.7177
 1780TIP3   OH226830   4.578   1.974  15.010 -0.6554 -0.0386 -0.1888
 1780TIP3    H126831   4.570   1.889  15.053 -0.4075 -1.4395 -2.7380
 1780TIP3    H226832   4.496   1.987  14.963  0.1780 -0.0411 -1.7346
 1781TIP3   OH226833   5.366   5.733  12.186  0.8029 -0.1732 -0.5480
 1781TIP3    H126834   5.271   5.721  12.190  0.6919  0.3839 -1.4044
 1781TIP3    H226835   5.388   5.771  12.271  0.2322 -0.0964 -0.4268
 1782TIP3   OH226836   1.651   1.106  14.809  0.4396  0.2492  1.2034
 1782TIP3    H126837   1.687   1.055  14.737  0.3938  1.3130  0.4046
 1782TIP3    H226838   1.661   1.197  14.782 -1.6040  0.6319  1.5527
 1783TIP3   OH226839   6.280   1.809  15.965  0.1458 -0.2867 -0.1904
 1783TIP3    H126840   6.307   1.884  15.912  1.1581 -0.9957 -0.7004
 1783TIP3    H226841   6.184   1.815  15.967  0.2023  1.0277 -0.1921
 1784TIP3   OH226842   4.234   5.911   6.146 -0.5371  0.0436  0.1203
 1784TIP3    H126843   4.279   5.859   6.212 -1.2654 -1.2030 -0.3376
 1784TIP3    H226844   4.228   5.854   6.070  1.6969  1.9753 -1.6375
 1785TIP3   OH226845   0.176   1.994  11.931  0.0290 -0.1378 -0.3454
 1785TIP3    H126846   0.238   1.988  11.858  1.6767 -1.9973  1.1114
 1785TIP3    H226847   0.129   1.911  11.930  1.5083 -1.0837  1.8658
 1786TIP3   OH226848   2.838   3.018  14.416 -0.0956  0.0367 -0.1541
 1786TIP3    H126849   2.773   3.012  14.346  0.3570  3.5436 -1.1113
 1786TIP3    H226850   2.908   3.072  14.378  1.7835 -0.7724  1.9519
 1787TIP3   OH226851   5.938   1.140   5.430 -0.2323  0.2428 -0.5236
 1787TIP3    H126852   6.016   1.127   5.484  0.2888  2.7388 -0.5345
 1787TIP3    H226853   5.865   1.112   5.486  0.4846  0.4165  0.5245
 1788TIP3   OH226854   4.638   6.030   1.959  0.3362 -0.6470 -0.6120
 1788TIP3    H126855   4.542   6.028   1.954  0.3219 -1.1765 -0.2359
 1788TIP3    H226856   4.657   6.030   2.053  0.7017 -0.3605 -0.6870
 1789TIP3   OH226857   2.806   3.011   1.872  0.2278  0.2686  0.5548
 1789TIP3    H126858   2.823   2.924   1.908 -0.0199  0.8623  2.1866
 1789TIP3    H226859   2.855   3.071   1.929 -0.9120  1.3230  0.4745
 1790TIP3   OH226860   5.289   4.643   5.202  0.3179  0.3123  0.4072
 1790TIP3    H126861   5.321   4.638   5.112  0.8283  0.4079  0.5813
 1790TIP3    H226862   5.242   4.727   5.206 -0.3746 -0.0448  0.0221
 1791TIP3   OH226863   0.139   5.317  12.630 -0.2825 -0.7135  0.5249
 1791TIP3    H126864   0.228   5.339  12.659 -0.8782  0.6660  1.4055
 1791TIP3    H226865   0.085   5.328  12.708 -1.0194 -3.2027  0.4345
 1792TIP3   OH226866   4.040   3.858   5.035 -0.4535  0.3368  0.2743
 1792TIP3    H126867   4.090   3.786   4.995 -0.5524  0.6608 -0.4552
 1792TIP3    H226868   3.963   3.815   5.072 -0.4326  0.0382 -0.0170
 1793TIP3   OH226869   2.541   5.982   0.347 -0.0890 -0.1179 -0.4254
 1793TIP3    H126870   2.566   6.057   0.293 -2.1858  1.8630  1.1848
 1793TIP3    H226871   2.499   5.922   0.285 -0.0165  0.8686 -1.4626
 1794TIP3   OH226872   5.695   4.084   2.610  0.2760 -0.5116 -0.1715
 1794TIP3    H126873   5.688   4.130   2.694 -0.7144 -1.0888  0.0751
 1794TIP3    H226874   5.786   4.054   2.607  0.8670  1.1450 -0.1939
 1795TIP3   OH226875   2.423   5.791   5.777  0.3042 -0.0612  0.2471
 1795TIP3    H126876   2.377   5.811   5.858  0.1467 -0.1668  0.1826
 1795TIP3    H226877   2.359   5.747   5.722  0.5207 -0.3404  0.2131
 1796TIP3   OH226878   6.480   3.275   3.720 -0.1611  0.7476 -0.3501
 1796TIP3    H126879   6.461   3.340   3.652  2.1303  1.2481 -0.6098
 1796TIP3    H226880   6.534   3.322   3.784 -0.8369 -0.1709  0.9481
 1797TIP3   OH226881   1.706   5.402  13.946  0.4008  0.0503 -0.0345
 1797TIP3    H126882   1.794   5.368  13.934  0.4689 -0.7462  2.2190
 1797TIP3    H226883   1.662   5.337  14.001 -1.2983  0.8837 -0.3267
 1798TIP3   OH226884   0.813   1.045   3.925 -0.0847 -0.3560 -0.7811
 1798TIP3    H126885   0.888   1.001   3.965  0.1317 -0.3647 -1.1839
 1798TIP3    H226886   0.817   1.135   3.958 -0.1537 -0.4729 -0.4571
 1799TIP3   OH226887   1.102   2.774  10.904  0.1569  0.1614 -0.3888
 1799TIP3    H126888   1.041   2.714  10.862  0.1327  0.3336 -0.6009
 1799TIP3    H226889   1.188   2.748  10.872  0.2211 -0.2378  0.0980
 1800TIP3   OH226890   6.181   5.071  14.892 -0.4332 -0.8847 -0.3645
 1800TIP3    H126891   6.222   5.102  14.811 -0.5393 -0.3269 -0.2036
 1800TIP3    H226892   6.246   5.011  14.930  1.4278  1.9241  1.2162
 1801TIP3   OH226893   0.249   4.283   3.425  0.7253  0.0295  0.0875
 1801TIP3    H126894   0.209   4.362   3.462 -1.5732 -0.1507 -1.7503
 1801TIP3    H226895   0.182   4.215   3.435  0.6976 -0.4580 -2.5822
 1802TIP3   OH226896   0.340   0.585  12.839 -0.1789 -0.0595  0.1185
 1802TIP3    H126897   0.281   0.632  12.898 -1.4053  0.0870 -1.1663
 1802TIP3    H226898   0.426   0.592  12.880 -0.5396  2.2459  0.5857
 1803TIP3   OH226899   4.752   6.302   0.552 -0.0634 -0.0498 -0.4666
 1803TIP3    H126900   4.824   6.364   0.565 -0.0576  0.0001 -0.7399
 1803TIP3    H226901   4.685   6.329   0.616 -0.6135  1.0551 -1.4779
 1804TIP3   OH226902   1.963   1.609  15.316 -0.4342 -0.5161  0.0967
 1804TIP3    H126903   2.030   1.672  15.343 -0.1566 -1.2433  1.1488
 1804TIP3    H226904   1.880   1.656  15.329 -0.1938 -0.0159 -0.1263
 1805TIP3   OH226905   5.339   5.969  11.603  0.1253 -0.0191  0.1218
 1805TIP3    H126906   5.291   5.954  11.685 -0.5688  0.0069 -0.2720
 1805TIP3    H226907   5.356   5.881  11.570 -3.9338 -0.2067 -2.1820
 1806TIP3   OH226908   4.595   6.812   2.266  0.3360  0.2689  0.5176
 1806TIP3    H126909   4.509   6.807   2.223  1.0214 -2.1978 -0.7373
 1806TIP3    H226910   4.577   6.790   2.358 -0.6179  1.8828  0.7579
 1807TIP3   OH226911   0.132   2.045  16.169  0.3496  0.5982 -0.2011
 1807TIP3    H126912   0.156   1.996  16.090  0.3739  0.6813 -0.2441
 1807TIP3    H226913   0.037   2.060  16.160 -0.0321 -1.0085  0.6700
 1808TIP3   OH226914   0.661   2.017  13.157 -0.1972  0.3497  0.4810
 1808TIP3    H126915   0.606   2.022  13.079  0.0604 -1.2420  0.1623
 1808TIP3    H226916   0.749   1.999  13.124  0.1234  0.7371  1.0971
 1809TIP3   OH226917   3.383   3.203   0.059  0.2017  0.0237  0.0776
 1809TIP3    H126918   3.310   3.180   0.002  0.1661 -0.0127  0.1380
 1809TIP3    H226919   3.375   3.297   0.072  0.4630  0.0995 -0.3272
 1810TIP3   OH226920   6.408   0.435  11.275 -0.1632  0.3905  0.3254
 1810TIP3    H126921   6.325   0.437  11.323 -0.9804 -2.2465 -0.7654
 1810TIP3    H226922   6.395   0.367  11.209  2.8462 -0.0592  0.0779
 1811TIP3   OH226923   6.188   6.100   0.144  0.5270  0.1636 -0.2484
 1811TIP3    H126924   6.242   6.044   0.200 -2.0668 -0.5474  1.7583
 1811TIP3    H226925   6.220   6.188   0.161  1.9101 -0.3194 -0.1842
 1812TIP3   OH226926   6.803   6.452   4.445  0.2370  0.3354  0.2012
 1812TIP3    H126927   6.860   6.378   4.422  0.1295  0.2258  0.2873
 1812TIP3    H226928   6.789   6.497   4.362  1.0662  0.8047  0.2996
 1813TIP3   OH226929   3.794   6.052   5.665  0.0409 -0.3001 -0.5457
 1813TIP3    H126930   3.812   6.052   5.570  0.3260 -1.9854 -0.5147
 1813TIP3    H226931   3.741   5.974   5.679 -0.1072  0.0144  0.6747
 1814TIP3   OH226932   5.482   3.609  16.352 -0.1323  0.5653  0.0877
 1814TIP3    H126933   5.516   3.622  16.263 -0.8847  1.5616 -0.0778
 1814TIP3    H226934   5.561   3.600  16.406  0.3498  0.5581 -0.5980
 1815TIP3   OH226935   4.162   0.434  11.708 -0.4355 -0.4360  0.1968
 1815TIP3    H126936   4.178   0.408  11.617 -1.1307 -0.8398  0.1809
 1815TIP3    H226937   4.086   0.382  11.735  1.5018 -2.5667  1.9542
 1816TIP3   OH226938   0.915   2.131  15.276 -0.3436 -0.5191  0.6687
 1816TIP3    H126939   0.908   2.132  15.181 -2.2592  2.8860  0.6781
 1816TIP3    H226940   0.850   2.066  15.304 -0.1332 -1.1726 -0.2905
 1817TIP3   OH226941   1.411   3.606   4.719  0.1446 -0.3719  0.0899
 1817TIP3    H126942   1.465   3.683   4.701 -0.6697  0.0959 -0.4027
 1817TIP3    H226943   1.453   3.535   4.670 -0.1441  0.1701 -0.9829
 1818TIP3   OH226944   4.931   3.972  16.870  0.1292 -0.0539 -0.5247
 1818TIP3    H126945   4.977   4.055  16.859 -0.4921  0.4252  0.3483
 1818TIP3    H226946   4.838   3.997  16.870 -0.0697 -0.7868 -0.5391
 1819TIP3   OH226947   3.239   5.149   3.918  0.6341  0.0839 -0.0901
 1819TIP3    H126948   3.302   5.177   3.985  1.3626 -1.2538 -0.1840
 1819TIP3    H226949   3.200   5.069   3.954  1.8394 -1.2929 -1.7013
 1820TIP3   OH226950   0.407   5.953  14.134 -0.0322  0.1096 -0.4136
 1820TIP3    H126951   0.411   5.876  14.191 -0.4962 -1.2281 -2.0754
 1820TIP3    H226952   0.499   5.972  14.114  0.0560 -1.1093 -1.3144
 1821TIP3   OH226953   3.443   5.352  15.954  0.3503 -0.1957 -0.3814
 1821TIP3    H126954   3.367   5.295  15.963 -0.7414  0.9912 -1.6705
 1821TIP3    H226955   3.501   5.305  15.893  2.8440 -3.1745  3.6904
 1822TIP3   OH226956   2.230   4.462   2.654  0.0032 -0.4065 -0.2848
 1822TIP3    H126957   2.251   4.370   2.673 -0.5659 -0.7652 -1.3250
 1822TIP3    H226958   2.137   4.470   2.674  0.1726  0.1069  0.3439
 1823TIP3   OH226959   1.344   6.803   2.658  0.0741  0.2227 -0.3394
 1823TIP3    H126960   1.434   6.797   2.691 -0.1291  1.6062  0.5577
 1823TIP3    H226961   1.346   6.878   2.598 -0.2991 -0.2962 -1.0246
 1824TIP3   OH226962   3.929   2.746   5.664  0.3225 -0.3258 -0.1307
 1824TIP3    H126963   3.905   2.769   5.574 -0.0252  1.4638  0.3880
 1824TIP3    H226964   3.877   2.668   5.683 -1.1260  0.4202 -0.8334
 1825TIP3   OH226965   4.833   1.700   2.985  0.0302  0.0872 -0.1108
 1825TIP3    H126966   4.830   1.760   2.911 -1.3324  0.8341  0.5182
 1825TIP3    H226967   4.924   1.704   3.015  0.4873  0.1188 -1.4382
 1826TIP3   OH226968   4.110   0.886  13.310 -0.7087 -0.2171  0.6367
 1826TIP3    H126969   4.064   0.831  13.247 -0.4008  0.2240  0.0180
 1826TIP3    H226970   4.192   0.909  13.267 -0.2421 -0.3734  1.4256
 1827TIP3   OH226971   4.920   0.857   4.765 -0.1806  0.1620  0.0315
 1827TIP3    H126972   4.992   0.840   4.827  0.0773  1.0839 -0.0014
 1827TIP3    H226973   4.963   0.900   4.691 -0.5940 -0.3460 -0.5107
 1828TIP3   OH226974   3.586   4.294  15.105  0.4075  0.0350 -0.2734
 1828TIP3    H126975   3.618   4.212  15.143  2.2007  0.3877 -0.9028
 1828TIP3    H226976   3.664   4.349  15.101 -0.6015  1.4755 -0.6416
 1829TIP3   OH226977   3.880   3.432  12.906  0.3056 -0.6162 -0.2642
 1829TIP3    H126978   3.797   3.446  12.952 -1.3135 -0.1493 -3.0503
 1829TIP3    H226979   3.896   3.514  12.860  1.8912 -0.9997 -0.4539
 1830TIP3   OH226980   0.004   3.364  13.269  0.3095  0.0527 -0.2223
 1830TIP3    H126981   0.099   3.364  13.262  0.4865  0.4647  1.6745
 1830TIP3    H226982  -0.016   3.287  13.322 -0.3870  0.1868 -0.2816
 1831TIP3   OH226983   5.746   3.113  12.206 -0.2819 -0.7973 -0.2214
 1831TIP3    H126984   5.732   3.194  12.255  1.4622 -0.7427  0.2325
 1831TIP3    H226985   5.777   3.143  12.120  0.0378 -0.9747 -0.1670
 1832TIP3   OH226986   4.710   0.220  10.693 -0.2992  0.3553  0.2575
 1832TIP3    H126987   4.627   0.258  10.663 -0.8283  0.2079  1.4922
 1832TIP3    H226988   4.776   0.258  10.635 -1.2384  0.3836 -0.8215
 1833TIP3   OH226989   6.589   2.716   0.697 -0.1607  0.1179  0.1080
 1833TIP3    H126990   6.619   2.755   0.779 -1.0924 -0.0478  0.5395
 1833TIP3    H226991   6.665   2.665   0.666  0.3091  0.4501  0.6867
 1834TIP3   OH226992   0.410   6.744   3.359  0.3993  0.1558  0.3130
 1834TIP3    H126993   0.462   6.747   3.279 -1.2938  0.5980 -0.8310
 1834TIP3    H226994   0.386   6.835   3.377  0.3056  0.0026  1.0187
 1835TIP3   OH226995   3.663   0.228  12.391  0.2968 -0.5635  0.1203
 1835TIP3    H126996   3.572   0.253  12.408  0.3393  0.0879 -0.5314
 1835TIP3    H226997   3.711   0.261  12.468 -0.0440 -1.1255  0.5810
 1836TIP3   OH226998   4.761   5.471  13.353 -0.6700  0.0664  0.0517
 1836TIP3    H126999   4.705   5.393  13.356  0.0487 -0.5469 -1.3665
 1836TIP3    H227000   4.821   5.455  13.280  1.1139  0.8826  1.2597
 1837TIP3   OH227001   3.646   1.676   1.686 -0.5283  0.0734 -0.2809
 1837TIP3    H127002   3.562   1.644   1.720  0.5288 -1.0574  1.4569
 1837TIP3    H227003   3.629   1.768   1.665 -2.1249 -0.0395  0.3186
 1838TIP3   OH227004   6.673   0.176   3.260  0.0959 -0.5315  0.3209
 1838TIP3    H127005   6.623   0.099   3.234  1.2338 -1.7709  1.6731
 1838TIP3    H227006   6.682   0.169   3.354  0.4635  1.1444  0.4498
 1839TIP3   OH227007   1.028   4.176   0.419  0.7754  0.9432 -0.2812
 1839TIP3    H127008   1.078   4.195   0.340 -0.1932 -2.5380 -1.9128
 1839TIP3    H227009   0.938   4.199   0.397  0.6800  1.0874  0.2497
 1840TIP3   OH227010   4.354   6.184   1.575 -0.0725 -0.1053  0.3061
 1840TIP3    H127011   4.340   6.277   1.556 -2.1460 -0.2512  0.8725
 1840TIP3    H227012   4.266   6.147   1.576  0.7494 -2.1729 -0.2803
 1841TIP3   OH227013   2.025   0.062   6.503  0.3637 -0.2163 -0.1055
 1841TIP3    H127014   2.019   0.129   6.434  0.0785 -1.2673 -1.1290
 1841TIP3    H227015   2.105   0.014   6.483 -0.0473 -0.9243 -0.0608
 1842TIP3   OH227016   0.702   2.511   2.956 -0.0146  0.1935  0.0421
 1842TIP3    H127017   0.777   2.463   2.920  1.5063  1.0061  1.9650
 1842TIP3    H227018   0.627   2.453   2.940  0.8794 -0.4441 -2.3649
 1843TIP3   OH227019   4.030   0.529  12.000  0.3491 -0.2813  0.0700
 1843TIP3    H127020   4.121   0.552  12.016  0.3532 -0.0321 -0.3197
 1843TIP3    H227021   4.033   0.466  11.928  0.3135 -1.2587  0.9024
 1844TIP3   OH227022   5.543   6.339  10.893  0.1823 -0.0664 -0.3124
 1844TIP3    H127023   5.600   6.289  10.834  2.5185  0.3581  1.4223
 1844TIP3    H227024   5.532   6.282  10.970 -0.0036  0.6969  0.2421
 1845TIP3   OH227025   3.460   2.633  15.023 -0.1110 -0.2366  0.2088
 1845TIP3    H127026   3.435   2.661  15.112 -0.3100  0.5370 -0.0839
 1845TIP3    H227027   3.541   2.583  15.036  0.4720  0.8007  0.7164
 1846TIP3   OH227028   0.595   5.200   3.004 -0.0933 -0.3735  0.1131
 1846TIP3    H127029   0.529   5.236   2.945 -0.4183 -0.8656  0.1741
 1846TIP3    H227030   0.642   5.135   2.951  1.7417  1.4070 -0.5922
 1847TIP3   OH227031   5.281   0.034  12.730  1.1107 -0.0199  0.6511
 1847TIP3    H127032   5.317   0.073  12.650 -0.5126 -0.5919 -0.4276
 1847TIP3    H227033   5.213  -0.025  12.698 -0.4467  0.6706  2.5373
 1848TIP3   OH227034   5.142   2.848  13.393 -0.5894  0.2947 -0.5291
 1848TIP3    H127035   5.093   2.804  13.462  0.2684 -1.0181 -0.7295
 1848TIP3    H227036   5.225   2.801  13.388  0.9738  2.7972  0.1841
 1849TIP3   OH227037   3.929   5.549   5.752 -0.3467  0.0990 -0.1393
 1849TIP3    H127038   3.997   5.500   5.706  0.3605  1.4853 -0.6605
 1849TIP3    H227039   3.968   5.636   5.764 -1.9793  0.8928 -0.3377
 1850TIP3   OH227040   5.062   6.350   0.827  0.5206 -0.1263  0.1780
 1850TIP3    H127041   5.074   6.279   0.763 -0.2715  0.7837 -1.0388
 1850TIP3    H227042   4.967   6.356   0.838  0.6047  0.4949  0.5683
 1851TIP3   OH227043   6.823   5.846   3.624  0.1665  0.4146 -0.0579
 1851TIP3    H127044   6.769   5.865   3.548  2.0250  2.9773 -0.8474
 1851TIP3    H227045   6.802   5.915   3.686  0.3775 -0.3200  0.8527
 1852TIP3   OH227046   0.694   6.418   5.806  0.1591  0.2337 -0.2542
 1852TIP3    H127047   0.779   6.461   5.801 -0.3943  1.4010  0.0410
 1852TIP3    H227048   0.662   6.438   5.894 -0.3584 -0.3453 -0.2983
 1853TIP3   OH227049   2.618   0.965  14.459 -0.0777 -0.0038  0.6283
 1853TIP3    H127050   2.628   0.943  14.367 -0.6455 -0.4721  0.6711
 1853TIP3    H227051   2.695   1.017  14.480  0.7046 -0.9552  0.2079
 1854TIP3   OH227052   0.877   2.532  10.932  0.4387  0.6406 -0.0301
 1854TIP3    H127053   0.946   2.551  10.996 -0.0099 -0.3186  0.7622
 1854TIP3    H227054   0.916   2.553  10.848  0.9514  2.2106  0.5554
 1855TIP3   OH227055   2.362   6.521   5.136 -0.0676 -0.4982  0.1538
 1855TIP3    H127056   2.344   6.516   5.230  1.0745 -2.8511  0.3362
 1855TIP3    H227057   2.285   6.481   5.095 -0.0841 -0.4956  0.1822
 1856TIP3   OH227058   3.915   2.654  14.064 -0.5730  0.5192  0.5351
 1856TIP3    H127059   3.861   2.590  14.110 -0.9321  0.1926 -0.3105
 1856TIP3    H227060   3.910   2.628  13.972  0.5655  0.8293  0.3708
 1857TIP3   OH227061   3.490   5.221  15.214  0.3088 -0.2168  0.5488
 1857TIP3    H127062   3.523   5.132  15.197  0.3233 -0.0506 -0.3543
 1857TIP3    H227063   3.409   5.226  15.162  0.2309  0.2474  0.7133
 1858TIP3   OH227064   2.317   4.696  15.157 -0.6224 -0.4288  0.1293
 1858TIP3    H127065   2.291   4.677  15.248  1.4201  0.4988  0.9823
 1858TIP3    H227066   2.289   4.786  15.143 -0.3827 -0.3569  0.0933
 1859TIP3   OH227067   2.649   2.691   6.594  0.0565 -0.6489  0.3142
 1859TIP3    H127068   2.671   2.697   6.687  0.4609 -2.3111  0.3552
 1859TIP3    H227069   2.582   2.623   6.590  0.8533 -1.4091 -0.7156
 1860TIP3   OH227070   0.731   6.677  14.172  0.0232  0.1671 -0.3395
 1860TIP3    H127071   0.826   6.690  14.167  0.4097 -2.2696 -0.8091
 1860TIP3    H227072   0.718   6.631  14.255 -0.2693 -2.2901 -1.6428
 1861TIP3   OH227073   0.356   4.162  15.015  0.4619  0.7495  0.5078
 1861TIP3    H127074   0.367   4.235  15.076 -0.7027  0.2268  1.3719
 1861TIP3    H227075   0.306   4.097  15.064 -2.4109  1.1707 -1.6439
 1862TIP3   OH227076   2.354   0.492   2.864  0.1132 -0.4748 -0.6502
 1862TIP3    H127077   2.378   0.433   2.935 -0.8939 -0.0081  0.1012
 1862TIP3    H227078   2.272   0.533   2.893  0.8087  1.3581 -1.1054
 1863TIP3   OH227079   2.206   1.059   2.664  0.1509  0.3321  0.4076
 1863TIP3    H127080   2.252   1.058   2.579 -0.6809  3.1090 -0.1732
 1863TIP3    H227081   2.121   1.019   2.645  0.5828 -0.5848  0.3600
 1864TIP3   OH227082   2.945   4.195   4.875 -0.1086 -0.4511 -0.7847
 1864TIP3    H127083   2.962   4.140   4.952  0.5583  1.0428  0.1725
 1864TIP3    H227084   2.913   4.133   4.809 -0.9287 -1.7562  0.7405
 1865TIP3   OH227085   5.897   5.009   1.207 -0.7840  0.1349 -0.9274
 1865TIP3    H127086   5.963   4.939   1.206  0.1477  0.9842 -1.9609
 1865TIP3    H227087   5.822   4.971   1.253  0.4604 -0.8330  0.4002
 1866TIP3   OH227088   0.003   1.472  13.872 -0.1975  0.6248  0.0680
 1866TIP3    H127089  -0.036   1.553  13.839 -1.8479 -0.1138  0.0742
 1866TIP3    H227090  -0.071   1.425  13.912  0.6350 -1.0352 -0.2585
 1867TIP3   OH227091   4.724   0.336   3.278 -0.0756  0.5226  0.1227
 1867TIP3    H127092   4.633   0.355   3.303 -0.4919 -0.3701 -0.6494
 1867TIP3    H227093   4.769   0.420   3.287 -1.5381  1.6169 -1.8246
 1868TIP3   OH227094   3.186   0.833  11.131 -0.0058 -0.6468  0.3130
 1868TIP3    H127095   3.136   0.828  11.050 -0.8253 -1.5300  0.8599
 1868TIP3    H227096   3.277   0.839  11.102 -0.3923  1.1010 -0.6905
 1869TIP3   OH227097   0.074   1.255  10.855 -0.8324  0.5886 -0.3095
 1869TIP3    H127098   0.119   1.176  10.826  0.9020 -0.0222  3.4037
 1869TIP3    H227099  -0.018   1.229  10.861 -0.6375 -0.3967 -1.3602
 1870TIP3   OH227100   0.481   0.724   2.200 -0.1160  0.0110  0.3351
 1870TIP3    H127101   0.484   0.734   2.295 -1.3687 -1.9285  0.6445
 1870TIP3    H227102   0.542   0.652   2.181 -1.7017 -1.3269  0.0406
 1871TIP3   OH227103   4.872   4.674   5.671  0.5037  0.1701 -0.1811
 1871TIP3    H127104   4.781   4.658   5.643  0.8127 -0.4707 -0.8669
 1871TIP3    H227105   4.875   4.644   5.761 -0.1902  1.0342  0.1468
 1872TIP3   OH227106   5.654   5.532   5.289 -0.6401 -0.7700  0.8268
 1872TIP3    H127107   5.662   5.449   5.335 -1.3425 -1.6238 -0.5238
 1872TIP3    H227108   5.744   5.561   5.275 -0.4057 -0.9560  1.8898
 1873TIP3   OH227109   1.378   4.285   4.821 -0.3797 -0.1445 -0.1931
 1873TIP3    H127110   1.461   4.304   4.777  1.4693  0.8174  3.3591
 1873TIP3    H227111   1.367   4.190   4.809  0.5655 -0.1065 -1.7111
 1874TIP3   OH227112   4.486   5.890   3.128  0.0413 -0.0305 -0.5287
 1874TIP3    H127113   4.554   5.948   3.093  0.3035 -0.3213 -0.4993
 1874TIP3    H227114   4.491   5.902   3.223 -0.2702  0.3074 -0.5522
 1875TIP3   OH227115   1.985   5.379  14.960 -0.2315  0.0376  0.1898
 1875TIP3    H127116   1.981   5.426  14.877 -1.1131 -0.7603 -0.2452
 1875TIP3    H227117   1.898   5.390  14.998  0.8734  2.5555  2.2915
 1876TIP3   OH227118   4.020   3.945  15.871  0.4292  1.0719  0.2682
 1876TIP3    H127119   4.072   3.913  15.946 -0.1182  0.8053  0.5382
 1876TIP3    H227120   3.943   3.888  15.869 -1.0052  2.8660  1.2867
 1877TIP3   OH227121   6.240   6.687   4.024 -0.9293  0.2301 -0.2187
 1877TIP3    H127122   6.167   6.633   3.992 -1.3038 -0.2840  1.3760
 1877TIP3    H227123   6.204   6.734   4.099  0.6618 -0.9870  1.4061
 1878TIP3   OH227124   3.545   6.069   2.680  0.1265 -0.0366  0.3176
 1878TIP3    H127125   3.533   6.160   2.652 -2.2676 -0.0640  1.0263
 1878TIP3    H227126   3.559   6.075   2.774  0.3286 -0.3796  0.3109
 1879TIP3   OH227127   1.537   0.153   0.831 -0.5149 -0.2770  0.2428
 1879TIP3    H127128   1.448   0.178   0.805 -1.0485  0.1804  2.3107
 1879TIP3    H227129   1.585   0.236   0.836  0.1333 -0.5367 -1.0510
 1880TIP3   OH227130   5.707   2.648  13.366  0.1619  0.1636 -0.3553
 1880TIP3    H127131   5.743   2.646  13.455 -0.0847  1.1762 -0.2234
 1880TIP3    H227132   5.682   2.557  13.349 -2.0807  0.2995  1.5759
 1881TIP3   OH227133   5.789   3.615  14.963  0.5450 -0.1859 -0.6294
 1881TIP3    H127134   5.823   3.653  15.044 -1.3878 -0.1389  0.2144
 1881TIP3    H227135   5.867   3.586  14.916  1.7227 -1.3021  1.7797
 1882TIP3   OH227136   2.723   5.006   2.285  0.0707 -0.2347 -0.1050
 1882TIP3    H127137   2.633   5.025   2.260 -0.4107 -1.4944  0.5338
 1882TIP3    H227138   2.748   5.078   2.343 -0.8001 -0.2451  0.3065
 1883TIP3   OH227139   2.725   5.255   2.412  0.2157  0.6907  0.4037
 1883TIP3    H127140   2.776   5.319   2.463 -1.6220  2.6457 -0.0476
 1883TIP3    H227141   2.735   5.284   2.321  0.9922 -0.9258 -0.0447
 1884TIP3   OH227142   1.399   4.505   0.595 -0.0625  0.1940  0.2183
 1884TIP3    H127143   1.369   4.582   0.546 -1.0344 -0.1613  0.2452
 1884TIP3    H227144   1.346   4.433   0.562  0.4509 -0.3647  0.5980
 1885TIP3   OH227145   5.780   5.812   1.675  0.0409 -0.4224 -0.1241
 1885TIP3    H127146   5.759   5.754   1.602  0.3440 -0.1921 -0.3973
 1885TIP3    H227147   5.839   5.878   1.638 -0.7427  0.3932  0.0441
 1886TIP3   OH227148   4.404   0.790   0.663  0.2628  0.2610 -0.6011
 1886TIP3    H127149   4.333   0.731   0.690  1.4702  0.0055  2.3987
 1886TIP3    H227150   4.442   0.749   0.586 -1.8055 -0.4000 -1.3557
 1887TIP3   OH227151   5.794   6.202   3.506 -0.1386  0.6475 -0.5181
 1887TIP3    H127152   5.721   6.263   3.495  0.2623  1.5574  1.4284
 1887TIP3    H227153   5.854   6.246   3.566  0.9214 -1.0205 -0.2766
 1888TIP3   OH227154   4.859   1.837   0.117  0.4646 -0.2090 -0.5003
 1888TIP3    H127155   4.954   1.836   0.112  0.5037  1.3652 -0.3042
 1888TIP3    H227156   4.836   1.751   0.152  1.9553  0.2398  1.7558
 1889TIP3   OH227157   0.217   5.461  15.100  0.1612 -0.4067 -0.2736
 1889TIP3    H127158   0.193   5.380  15.055  0.7624 -0.7501  0.0143
 1889TIP3    H227159   0.312   5.466  15.091  0.2969 -0.4960  0.9903
 1890TIP3   OH227160   1.315   6.017  14.460  0.2649 -0.0293  0.2470
 1890TIP3    H127161   1.313   6.069  14.379 -1.4704 -1.6108 -0.8119
 1890TIP3    H227162   1.403   5.980  14.463  0.3397  0.0118 -0.9776
 1891TIP3   OH227163   4.504   0.800   5.351 -0.4721  0.1531 -0.2822
 1891TIP3    H127164   4.422   0.846   5.365  0.0106  0.5311  1.6467
 1891TIP3    H227165   4.483   0.730   5.290 -2.1696  0.3448  0.0484
 1892TIP3   OH227166   3.742   2.701   2.089  0.0122 -0.1179 -0.0596
 1892TIP3    H127167   3.832   2.671   2.100 -0.5163 -1.5462  0.7170
 1892TIP3    H227168   3.690   2.636   2.136 -1.3053  1.6009  0.9442
 1893TIP3   OH227169   0.348   2.471   3.743 -0.0599  0.2251  0.1190
 1893TIP3    H127170   0.363   2.565   3.743  1.2608  0.0348  0.1089
 1893TIP3    H227171   0.301   2.454   3.661 -1.0464  0.9656  0.5167
 1894TIP3   OH227172   4.580   5.723  12.642  0.1860 -0.1187  0.1919
 1894TIP3    H127173   4.534   5.719  12.558  1.4231  0.4757 -0.5299
 1894TIP3    H227174   4.516   5.690  12.705 -0.8040 -0.4781 -0.9577
 1895TIP3   OH227175   1.390   6.648  12.687 -0.2017 -0.3072  0.0059
 1895TIP3    H127176   1.437   6.636  12.605  0.7000 -1.1610  0.6313
 1895TIP3    H227177   1.423   6.731  12.722  0.9373 -0.9392  0.4806
 1896TIP3   OH227178   4.051   5.081   2.150  0.0354 -0.3599  0.2290
 1896TIP3    H127179   3.965   5.082   2.191  0.2056  1.5979  0.6606
 1896TIP3    H227180   4.107   5.034   2.212 -0.1678  0.7232  1.2751
 1897TIP3   OH227181   5.823   0.470  15.937  0.6087  0.5427 -0.3399
 1897TIP3    H127182   5.917   0.476  15.921  0.6266 -1.3291 -1.0819
 1897TIP3    H227183   5.786   0.548  15.894  1.8033  1.3620  0.0713
 1898TIP3   OH227184   6.748   1.801  10.452  0.4428  0.6815 -1.1297
 1898TIP3    H127185   6.841   1.779  10.461  0.8028  2.2479 -0.5428
 1898TIP3    H227186   6.748   1.883  10.403 -0.5647  1.1749 -0.3524
 1899TIP3   OH227187   3.722   1.312  16.042  0.0546 -0.0301 -0.1095
 1899TIP3    H127188   3.649   1.368  16.070 -0.0250  0.3989 -1.1383
 1899TIP3    H227189   3.689   1.223  16.052 -0.4370  0.1502 -0.1003
 1900TIP3   OH227190   3.238   3.436  15.303 -0.1159 -0.5583 -0.0363
 1900TIP3    H127191   3.160   3.482  15.272 -0.1582 -0.6405 -0.0530
 1900TIP3    H227192   3.304   3.504  15.313  0.0990 -0.6195 -0.9570
 1901TIP3   OH227193   3.236   6.272  15.601  0.3163 -0.1524 -0.3012
 1901TIP3    H127194   3.325   6.285  15.568 -0.2999  1.5703 -1.4285
 1901TIP3    H227195   3.179   6.301  15.530 -1.1442 -0.3025  0.7453
 1902TIP3   OH227196   4.476   1.629  15.648  0.1690  0.0204  0.9780
 1902TIP3    H127197   4.432   1.615  15.732  1.9370 -0.9518  1.8260
 1902TIP3    H227198   4.518   1.714  15.657 -0.2073  0.2233  0.8109
 1903TIP3   OH227199   2.527   0.805  11.789 -0.3739 -0.6494  0.2859
 1903TIP3    H127200   2.514   0.766  11.702  0.6512  0.7602 -0.5420
 1903TIP3    H227201   2.607   0.857  11.780 -1.8623  1.9828  1.1932
 1904TIP3   OH227202   1.740   5.586  12.180  0.5923  0.2444  0.3259
 1904TIP3    H127203   1.728   5.680  12.196 -4.5401 -0.0173 -0.3194
 1904TIP3    H227204   1.753   5.579  12.086  0.1381  0.2362  0.2660
 1905TIP3   OH227205   2.300   4.020   5.451 -0.0418  0.2424  0.1877
 1905TIP3    H127206   2.218   4.036   5.498 -0.3146  1.7631 -0.7151
 1905TIP3    H227207   2.367   4.058   5.508 -0.1328  0.3223  0.2428
 1906TIP3   OH227208   3.861   3.232  12.710 -0.4918 -0.5255  0.5634
 1906TIP3    H127209   3.846   3.299  12.778 -0.6287  1.4730 -1.3380
 1906TIP3    H227210   3.955   3.235  12.694 -0.4903 -0.8393  0.5144
 1907TIP3   OH227211   5.171   6.406  16.167 -0.1057 -0.3268  0.2978
 1907TIP3    H127212   5.099   6.358  16.209  0.3967 -0.7678  0.6691
 1907TIP3    H227213   5.215   6.340  16.114  0.1431 -0.1028  0.2295
 1908TIP3   OH227214   3.525   5.883  16.988  0.2024 -0.4962 -0.1470
 1908TIP3    H127215   3.502   5.962  16.939 -1.5507 -0.8504  0.0240
 1908TIP3    H227216   3.540   5.817  16.920  0.9614 -0.2126 -0.2683
 1909TIP3   OH227217   3.331   0.007  13.596  0.1050 -0.0521 -0.2017
 1909TIP3    H127218   3.406  -0.052  13.605  0.2004 -0.0889 -1.1370
 1909TIP3    H227219   3.341   0.071  13.667  0.6702 -0.4284  0.0626
 1910TIP3   OH227220   5.944   2.281  11.688 -0.0504  0.2007  0.2194
 1910TIP3    H127221   5.851   2.301  11.700 -0.1333  0.5028 -0.7549
 1910TIP3    H227222   5.948   2.240  11.601  0.2140 -3.6136  1.8585
 1911TIP3   OH227223   3.711   5.265   3.439 -0.2013 -0.8510 -0.6054
 1911TIP3    H127224   3.639   5.212   3.407 -0.4541  0.2727 -2.0058
 1911TIP3    H227225   3.741   5.221   3.519 -3.0153 -0.8403  0.5498
 1912TIP3   OH227226   4.898   5.785   3.972 -0.0632  0.5071  0.2677
 1912TIP3    H127227   4.958   5.715   3.946 -1.6005  0.2211 -3.0343
 1912TIP3    H227228   4.840   5.744   4.035 -1.0027 -1.3839 -1.6814
 1913TIP3   OH227229   2.388   5.734   4.950  0.0013 -0.0934 -0.2871
 1913TIP3    H127230   2.404   5.807   4.890 -1.5279 -0.1321 -0.7809
 1913TIP3    H227231   2.472   5.720   4.994  0.3853  1.8008 -0.3548
 1914TIP3   OH227232   1.194   3.580  15.346 -0.1644  0.4874 -0.3273
 1914TIP3    H127233   1.116   3.609  15.299 -2.2326 -1.9244  1.3413
 1914TIP3    H227234   1.252   3.545  15.278 -1.5010  0.3503 -1.4296
 1915TIP3   OH227235   3.473   1.557  15.795  0.1185  0.3919  0.0198
 1915TIP3    H127236   3.428   1.522  15.718  0.0829 -0.3121  0.3501
 1915TIP3    H227237   3.439   1.646  15.805 -2.1304 -0.5056  0.9651
 1916TIP3   OH227238   1.924   2.428   3.544 -0.1609 -0.5113  0.4800
 1916TIP3    H127239   1.869   2.500   3.515  0.1794 -0.3093  0.3425
 1916TIP3    H227240   1.875   2.349   3.519 -0.8690 -0.3362  1.2538
 1917TIP3   OH227241   1.849   0.111  13.706  0.0897 -0.1539 -0.0797
 1917TIP3    H127242   1.754   0.097  13.711  0.0927 -0.2806 -0.3180
 1917TIP3    H227243   1.881   0.033  13.660  0.1650  0.4257 -1.0325
 1918TIP3   OH227244   4.117   6.023  11.334  0.2924  0.0261 -0.0512
 1918TIP3    H127245   4.205   5.989  11.319  0.0236  0.0989 -2.1902
 1918TIP3    H227246   4.077   6.023  11.247 -1.8959 -0.1773  0.9047
 1919TIP3   OH227247   4.672   0.896   4.532  0.2727  0.4089  0.3464
 1919TIP3    H127248   4.754   0.932   4.566  0.1684  1.1441 -0.1513
 1919TIP3    H227249   4.671   0.922   4.440  0.2141 -0.9446 -0.0572
 1920TIP3   OH227250   5.987   1.590  15.651  0.3115  0.0400 -0.0016
 1920TIP3    H127251   6.036   1.507  15.648 -1.3943 -0.9934 -1.4180
 1920TIP3    H227252   5.922   1.581  15.581 -1.7614  1.4313  1.6518
 1921TIP3   OH227253   3.498   2.563  12.735  0.2205 -0.3042 -0.0711
 1921TIP3    H127254   3.482   2.617  12.658  0.3557 -0.7111 -0.3897
 1921TIP3    H227255   3.534   2.624  12.800 -1.5647  0.4123  0.3064
 1922TIP3   OH227256   6.002   6.328   1.365 -0.4440  0.2817  1.0934
 1922TIP3    H127257   6.056   6.342   1.443 -2.4436 -0.5331  2.6958
 1922TIP3    H227258   5.934   6.267   1.393 -1.6309  0.4945 -1.1197
 1923TIP3   OH227259   3.756   1.787  14.649 -0.0501  0.1869 -0.2375
 1923TIP3    H127260   3.841   1.748  14.626  0.0756 -0.0308  0.5759
 1923TIP3    H227261   3.777   1.877  14.674 -0.6226  1.7904 -4.6454
 1924TIP3   OH227262   1.387   1.335   3.903  0.1359 -0.5279 -0.2195
 1924TIP3    H127263   1.349   1.275   3.967 -0.5417  0.4673  0.3441
 1924TIP3    H227264   1.480   1.312   3.901  0.0995 -0.8386  0.8346
 1925TIP3   OH227265   2.016   1.132   3.257 -0.1473 -0.2297 -0.0185
 1925TIP3    H127266   2.040   1.218   3.224  0.3928 -0.4780 -0.3034
 1925TIP3    H227267   2.097   1.080   3.248 -0.2579 -0.5623  0.8202
 1926TIP3   OH227268   5.748   4.412   2.060  0.1716 -0.8877 -0.0186
 1926TIP3    H127269   5.778   4.444   1.974 -0.4038 -3.2584 -1.1789
 1926TIP3    H227270   5.824   4.422   2.117  0.3087  1.5705 -0.4824
 1927TIP3   OH227271   2.113   4.992   3.454 -0.5542 -0.0105  0.1237
 1927TIP3    H127272   2.103   4.981   3.360  1.8466 -1.9844 -0.0149
 1927TIP3    H227273   2.195   5.040   3.464 -0.5479 -0.2094  1.1985
 1928TIP3   OH227274   0.261   1.345   1.318  0.2968  0.1009  0.2327
 1928TIP3    H127275   0.172   1.379   1.310  0.4053  0.1261 -1.0086
 1928TIP3    H227276   0.291   1.376   1.404 -0.3629  1.3454  0.0284
 1929TIP3   OH227277   5.835   0.578   2.283  0.1982  0.2807  0.0108
 1929TIP3    H127278   5.817   0.484   2.293  0.4405 -0.1163 -2.5300
 1929TIP3    H227279   5.912   0.593   2.338  0.7381 -1.2332 -0.2653
 1930TIP3   OH227280   1.931   2.489   4.892  0.3504  0.8113  0.0137
 1930TIP3    H127281   1.874   2.432   4.943  0.2708  1.6662  0.9064
 1930TIP3    H227282   1.877   2.519   4.819  0.2715  0.0882 -0.2337
 1931TIP3   OH227283   1.279   4.569  13.171 -0.1476 -0.3317 -0.0379
 1931TIP3    H127284   1.281   4.476  13.148 -3.8341 -0.2285 -1.4534
 1931TIP3    H227285   1.238   4.572  13.257  2.7780 -0.0333  1.4851
 1932TIP3   OH227286   0.772   5.979  15.434  0.0630  0.5182  0.1840
 1932TIP3    H127287   0.731   6.017  15.357 -0.6373  1.2238  0.8764
 1932TIP3    H227288   0.812   6.054  15.479  0.0992  0.1913  0.7114
 1933TIP3   OH227289   4.495   4.616  15.928 -0.3999 -1.0004  0.1385
 1933TIP3    H127290   4.496   4.604  16.023 -1.3694 -0.2172  0.2669
 1933TIP3    H227291   4.584   4.641  15.906  0.0697 -2.1024  0.7003
 1934TIP3   OH227292   5.873   3.378   1.989 -0.5693 -0.4100 -0.0169
 1934TIP3    H127293   5.916   3.357   2.072  0.5673 -0.5993 -0.6362
 1934TIP3    H227294   5.822   3.457   2.007 -1.0185 -0.9320  1.0720
 1935TIP3   OH227295   3.590   6.097   5.476  0.2373  0.3100  0.2092
 1935TIP3    H127296   3.560   6.023   5.423  0.5650  0.9473 -0.8927
 1935TIP3    H227297   3.533   6.095   5.553  1.5098 -2.2720  1.2099
 1936TIP3   OH227298   3.028   5.600  13.605  0.7153  0.2040  0.1406
 1936TIP3    H127299   3.040   5.633  13.516 -3.1098  1.4847 -0.0776
 1936TIP3    H227300   3.064   5.511  13.603  2.7421  0.9702 -1.9509
 1937TIP3   OH227301   0.308   4.411   3.206 -0.3128 -0.0618 -0.8968
 1937TIP3    H127302   0.230   4.467   3.199 -1.2752 -1.2127  0.2114
 1937TIP3    H227303   0.289   4.352   3.279  1.2274 -0.9758 -1.1935
 1938TIP3   OH227304   6.139   0.276   3.392 -0.4733 -0.0016 -0.0222
 1938TIP3    H127305   6.053   0.306   3.420 -0.9755 -0.0543 -1.4316
 1938TIP3    H227306   6.171   0.346   3.334  0.6150  0.2090  0.8061
 1939TIP3   OH227307   6.060   2.970  14.251 -0.1695  0.0246  0.2669
 1939TIP3    H127308   6.142   3.014  14.228  0.8121 -1.0764  1.4436
 1939TIP3    H227309   6.067   2.884  14.210 -0.6083 -0.1836  0.6184
 1940TIP3   OH227310   2.871   1.756   1.279  0.0031  0.4641  0.7754
 1940TIP3    H127311   2.900   1.665   1.282 -0.0733  0.4572  2.2685
 1940TIP3    H227312   2.929   1.798   1.216  0.1580 -0.5816  0.2067
 1941TIP3   OH227313   3.865   5.263   3.184 -0.5370  0.4779 -0.2184
 1941TIP3    H127314   3.796   5.237   3.246 -0.2645 -0.2317 -0.1981
 1941TIP3    H227315   3.922   5.186   3.179  0.2096  1.0269 -0.2993
 1942TIP3   OH227316   6.662   1.896  13.126 -0.0655  0.0161 -0.0474
 1942TIP3    H127317   6.675   1.990  13.110  1.7164 -0.4320 -1.5844
 1942TIP3    H227318   6.708   1.879  13.208 -0.2650  0.4553  0.1570
 1943TIP3   OH227319   5.902   2.826  11.458  0.1386  0.0955  0.3961
 1943TIP3    H127320   5.897   2.809  11.364  0.7845  2.8387 -0.2222
 1943TIP3    H227321   5.858   2.752  11.499 -3.2990  0.4837 -2.2324
 1944TIP3   OH227322   2.387   0.524  12.621  0.4948 -0.0192  0.5307
 1944TIP3    H127323   2.417   0.604  12.578  0.4731 -0.5189 -0.4460
 1944TIP3    H227324   2.423   0.453  12.567 -0.9122 -0.6564  0.3832
 1945TIP3   OH227325   4.455   6.657  13.193 -0.1242  0.1134 -0.6340
 1945TIP3    H127326   4.392   6.596  13.232  0.0164  0.4650  0.1631
 1945TIP3    H227327   4.509   6.603  13.135 -0.5356 -0.3614 -0.5754
 1946TIP3   OH227328   1.707   6.539   3.054 -0.2157  0.1187 -0.1724
 1946TIP3    H127329   1.620   6.524   3.092 -0.6895 -1.6258 -1.8107
 1946TIP3    H227330   1.766   6.488   3.110 -0.3417  0.6798  0.4839
 1947TIP3   OH227331   6.243   3.070  13.549 -0.0716  0.3850 -0.0196
 1947TIP3    H127332   6.230   3.069  13.454 -0.6234 -2.6714 -0.0184
 1947TIP3    H227333   6.159   3.102  13.584 -0.0770  0.9470 -0.5354
 1948TIP3   OH227334   2.908   3.288  15.067  0.1177 -0.5183  0.5995
 1948TIP3    H127335   2.870   3.265  15.152  1.8942 -1.0940  1.2812
 1948TIP3    H227336   2.977   3.223  15.054  1.0704  0.6643 -0.4229
 1949TIP3   OH227337   1.892   3.961  12.587  0.3240 -0.2320 -0.7942
 1949TIP3    H127338   1.951   3.961  12.663  0.3186 -0.7059 -0.7853
 1949TIP3    H227339   1.849   4.047  12.590  1.4076  0.3379 -1.1197
 1950TIP3   OH227340   1.725   0.125   2.654 -0.4926 -0.2147 -0.0858
 1950TIP3    H127341   1.709   0.198   2.594  2.8795  2.1059  1.4796
 1950TIP3    H227342   1.773   0.061   2.602 -0.6595  0.1666 -0.7208
 1951TIP3   OH227343   5.867   4.350   2.529 -0.1855  0.6098 -0.4164
 1951TIP3    H127344   5.942   4.378   2.581 -1.2945  1.6444  0.6721
 1951TIP3    H227345   5.803   4.318   2.594 -1.0115  0.5178 -1.2535
 1952TIP3   OH227346   2.953   3.615   1.107  0.3871 -0.1492 -0.5819
 1952TIP3    H127347   2.897   3.573   1.172  0.0465  0.6270 -0.3640
 1952TIP3    H227348   2.939   3.709   1.120  0.2019  0.0131 -1.8743
 1953TIP3   OH227349   5.599   6.198  14.850  0.2414 -0.3471  0.0618
 1953TIP3    H127350   5.585   6.177  14.758  0.5160 -1.8894  0.3506
 1953TIP3    H227351   5.672   6.261  14.849 -0.5457  0.5894 -0.8247
 1954TIP3   OH227352   2.662   6.231   3.822  0.6501  0.7840 -0.2017
 1954TIP3    H127353   2.733   6.181   3.782  1.0743  0.9316  0.3520
 1954TIP3    H227354   2.609   6.260   3.748  0.8565  0.2113 -0.5834
 1955TIP3   OH227355   2.829   4.335   0.902 -0.3250  0.5787 -0.1558
 1955TIP3    H127356   2.757   4.281   0.869 -0.8363  1.9488 -1.3479
 1955TIP3    H227357   2.853   4.293   0.985 -3.9034  1.2497  1.4098
 1956TIP3   OH227358   2.534   5.074   0.340  0.1863  0.0404 -0.4903
 1956TIP3    H127359   2.563   5.000   0.394 -2.7485 -0.9308 -0.0520
 1956TIP3    H227360   2.600   5.080   0.271  2.3502 -0.7202  1.3764
 1957TIP3   OH227361   4.753   4.305  11.385 -0.1340 -0.1435  0.2264
 1957TIP3    H127362   4.701   4.384  11.396  0.0802 -0.0858  0.9127
 1957TIP3    H227363   4.699   4.236  11.424 -1.6953 -0.9407 -3.0511
 1958TIP3   OH227364   3.163   2.092   5.275  0.2547  0.5676 -0.3449
 1958TIP3    H127365   3.129   2.004   5.291  0.7845  0.7542  2.1612
 1958TIP3    H227366   3.094   2.150   5.308  1.4612  0.9842  1.6147
 1959TIP3   OH227367   1.698   3.905  13.769  0.0149  0.4806  0.1490
 1959TIP3    H127368   1.722   3.978  13.826 -0.3098 -0.1310  1.1085
 1959TIP3    H227369   1.773   3.895  13.710  0.9415  0.3326  1.3043
 1960TIP3   OH227370   1.032   4.612   1.751 -0.4991 -0.0081  0.1957
 1960TIP3    H127371   0.992   4.527   1.734 -1.1392  0.1762  0.7407
 1960TIP3    H227372   1.047   4.613   1.846 -0.2237  0.3714  0.1509
 1961TIP3   OH227373   5.932   1.056   1.095  0.0238  0.0988 -0.2445
 1961TIP3    H127374   5.916   1.006   1.175 -1.2828  0.4089 -0.2851
 1961TIP3    H227375   6.021   1.089   1.105 -0.5349  1.2082  1.7113
 1962TIP3   OH227376   0.987   6.716   5.978 -0.4316  0.0003 -0.0342
 1962TIP3    H127377   1.070   6.706   5.931 -1.3582  1.5320 -2.1931
 1962TIP3    H227378   0.933   6.644   5.946 -0.6320  0.2772 -0.3281
 1963TIP3   OH227379   3.381   6.556   3.530 -0.2228 -0.4292 -0.2823
 1963TIP3    H127380   3.450   6.581   3.469 -0.2305  0.6316  0.1313
 1963TIP3    H227381   3.313   6.621   3.519 -1.6969 -2.0975 -1.4823
 1964TIP3   OH227382   1.143   4.668  16.619  0.3962  0.1339 -0.5608
 1964TIP3    H127383   1.129   4.580  16.583 -1.0515  0.2954 -0.4693
 1964TIP3    H227384   1.055   4.698  16.641  1.0612  0.7219  1.5186
 1965TIP3   OH227385   3.128   1.795  13.354  0.1493  0.3750  0.2230
 1965TIP3    H127386   3.117   1.885  13.322 -0.6886  0.5319  0.9371
 1965TIP3    H227387   3.206   1.799  13.409  0.4058  0.5521 -0.1455
 1966TIP3   OH227388   4.681   1.439   4.264  0.1041 -0.0779 -0.6244
 1966TIP3    H127389   4.624   1.369   4.295  0.0594 -0.1594 -0.8958
 1966TIP3    H227390   4.631   1.484   4.197 -1.1052  2.1283  1.5895
 1967TIP3   OH227391   5.457   3.409   1.735  0.1443 -0.4824 -0.0802
 1967TIP3    H127392   5.396   3.395   1.807  1.0694  1.8175  1.2775
 1967TIP3    H227393   5.543   3.393   1.774  0.5388 -1.8204 -1.4385
 1968TIP3   OH227394   4.072   6.488   1.850 -0.0551 -0.1011  0.1309
 1968TIP3    H127395   4.129   6.548   1.802  0.0552 -0.2606  0.0638
 1968TIP3    H227396   4.072   6.408   1.798  0.9746 -0.6811  0.9836
 1969TIP3   OH227397   4.557   6.319  13.389 -0.5088 -0.1628  0.0107
 1969TIP3    H127398   4.551   6.224  13.378 -2.2570  0.0022 -0.7390
 1969TIP3    H227399   4.523   6.336  13.477  0.0187 -0.2406  0.2330
 1970TIP3   OH227400   3.854   2.965   4.116 -0.7908 -0.5248  0.2383
 1970TIP3    H127401   3.863   2.878   4.156 -1.1775 -1.5469 -1.7595
 1970TIP3    H227402   3.789   2.953   4.047 -0.8605  1.3769 -0.0791
 1971TIP3   OH227403   0.640   2.682  11.098  0.3512 -0.2095 -0.3710
 1971TIP3    H127404   0.625   2.606  11.041  1.1929 -0.5919 -0.0838
 1971TIP3    H227405   0.589   2.753  11.056  1.7190 -0.2137 -2.1656
 1972TIP3   OH227406   3.897   6.168   0.910 -0.6117  0.2260 -0.5580
 1972TIP3    H127407   3.951   6.150   0.987 -2.5977 -1.1269  0.6124
 1972TIP3    H227408   3.833   6.233   0.940 -0.9576  0.2249 -1.2754
 1973TIP3   OH227409   0.563   0.575  16.326 -0.2119  0.0605 -0.4716
 1973TIP3    H127410   0.575   0.657  16.279 -4.3219  1.7383  0.9443
 1973TIP3    H227411   0.537   0.601  16.414  0.7325 -2.8724  0.8147
 1974TIP3   OH227412   6.597   3.334  11.763  0.0581  0.0279 -0.0443
 1974TIP3    H127413   6.550   3.257  11.794 -1.6920  0.8273 -0.5558
 1974TIP3    H227414   6.676   3.338  11.817 -0.2197 -1.6379  0.5435
 1975TIP3   OH227415   1.410   2.843  13.394  0.2184 -0.0683  0.1984
 1975TIP3    H127416   1.343   2.789  13.352 -1.2786  0.2100  2.0779
 1975TIP3    H227417   1.489   2.790  13.392 -0.6362 -1.3773 -0.0751
 1976TIP3   OH227418   1.674   2.208  13.753  0.0954  0.2983 -0.0770
 1976TIP3    H127419   1.644   2.276  13.693 -2.2917 -0.4177  0.2239
 1976TIP3    H227420   1.594   2.167  13.785  1.1472  0.9704  4.0298
 1977TIP3   OH227421   3.887   1.879  16.668  0.4200 -0.4393  0.2234
 1977TIP3    H127422   3.862   1.935  16.741  0.6853 -0.5104  0.3707
 1977TIP3    H227423   3.807   1.834  16.643  0.1503  0.1691 -0.0428
 1978TIP3   OH227424   2.087   2.502  13.359  0.6273  0.3838 -0.6327
 1978TIP3    H127425   2.164   2.542  13.320  0.7108  0.1828 -0.6740
 1978TIP3    H227426   2.103   2.408  13.354 -0.2272  0.2776 -1.9186
 1979TIP3   OH227427   1.001   0.288  13.298 -0.3371  0.0930 -0.1330
 1979TIP3    H127428   1.012   0.201  13.337 -1.0609  0.2994  0.5568
 1979TIP3    H227429   0.975   0.271  13.207  0.2046 -0.3994 -0.2044
 1980TIP3   OH227430   1.852   5.525  15.601 -0.2346 -1.1216  0.1087
 1980TIP3    H127431   1.864   5.459  15.532  0.3852 -0.8386 -0.0613
 1980TIP3    H227432   1.878   5.607  15.560 -1.6716 -0.6491  0.1015
 1981TIP3   OH227433   2.242   1.272  15.264 -0.0146 -0.2311  0.1064
 1981TIP3    H127434   2.171   1.230  15.216  0.0410 -1.0134  0.6747
 1981TIP3    H227435   2.273   1.204  15.324 -0.3708  0.8461  1.5550
 1982TIP3   OH227436   0.262   3.571   2.415 -0.5423  0.1133 -0.0053
 1982TIP3    H127437   0.184   3.623   2.395 -0.7182  0.6278  1.8777
 1982TIP3    H227438   0.264   3.566   2.510  2.9013  1.9476  0.1607
 1983TIP3   OH227439   3.710   2.437  11.666 -0.3401  0.6480 -0.0907
 1983TIP3    H127440   3.746   2.390  11.591 -0.3899  0.3309  0.0830
 1983TIP3    H227441   3.787   2.459  11.719 -0.5102 -2.5398  1.7673
 1984TIP3   OH227442   6.778   2.109   5.119  0.1059  0.3360 -0.1351
 1984TIP3    H127443   6.769   2.193   5.074 -1.6866  0.8078  0.9860
 1984TIP3    H227444   6.746   2.044   5.055 -0.5670  0.7720 -0.2573
 1985TIP3   OH227445   0.095   1.188   4.868 -0.7354 -0.1664 -0.7407
 1985TIP3    H127446   0.081   1.282   4.879 -0.1876 -0.0857 -0.7137
 1985TIP3    H227447   0.154   1.181   4.793  0.6411 -0.3934  0.3254
 1986TIP3   OH227448   6.680   5.443   1.331  0.0260  0.3017  0.1682
 1986TIP3    H127449   6.673   5.510   1.263  1.6529  0.2671 -0.0760
 1986TIP3    H227450   6.699   5.491   1.411 -0.9106  0.2695  0.4194
 1987TIP3   OH227451   6.223   0.257   2.668  0.6537  0.2024  0.2355
 1987TIP3    H127452   6.232   0.172   2.712  2.4286 -0.1856 -0.8028
 1987TIP3    H227453   6.266   0.319   2.728  0.8194  0.0944  0.2296
 1988TIP3   OH227454   0.680   0.521  11.434  0.2937  0.1025  0.7671
 1988TIP3    H127455   0.621   0.584  11.392  0.9326  1.1551  1.4104
 1988TIP3    H227456   0.704   0.461  11.363  0.3379  1.0775 -0.0651
 1989TIP3   OH227457   4.069   5.759  11.823  0.6839 -0.2828 -0.0405
 1989TIP3    H127458   4.026   5.804  11.895 -0.3893 -0.5976 -0.4774
 1989TIP3    H227459   4.049   5.667  11.836 -2.0748 -0.1243 -2.3398
 1990TIP3   OH227460   5.931   3.114   5.814 -0.2056  0.3020 -0.4879
 1990TIP3    H127461   5.900   3.165   5.889 -0.4671 -1.5930  0.7623
 1990TIP3    H227462   5.894   3.159   5.738 -3.7651 -0.2074  0.7658
 1991TIP3   OH227463   0.362   5.352   5.685  1.1362 -0.4165 -0.4992
 1991TIP3    H127464   0.316   5.356   5.769  1.6953 -1.9316 -0.1023
 1991TIP3    H227465   0.448   5.317   5.706  1.0932 -1.3458 -1.7779
 1992TIP3   OH227466   5.883   2.662  14.396 -0.0265 -0.7896  0.0980
 1992TIP3    H127467   5.833   2.601  14.451 -1.0606 -0.2208 -0.2025
 1992TIP3    H227468   5.889   2.742  14.448 -0.1662 -0.5712 -0.2215
 1993TIP3   OH227469   3.783   3.951  16.829  0.4248  0.2147 -0.2938
 1993TIP3    H127470   3.858   3.919  16.880  1.2174  0.3150 -1.3517
 1993TIP3    H227471   3.708   3.903  16.862  1.0256 -0.1812  0.5224
 1994TIP3   OH227472   1.726   2.623  16.820  0.4946 -0.2018  0.0702
 1994TIP3    H127473   1.645   2.588  16.856 -0.5580 -0.6738 -2.4868
 1994TIP3    H227474   1.702   2.710  16.788  1.5028  0.3996  0.8908
 1995TIP3   OH227475   1.275   3.647   5.583 -0.0515 -0.5472  0.1327
 1995TIP3    H127476   1.361   3.656   5.623 -0.5475  0.5061  1.0344
 1995TIP3    H227477   1.214   3.658   5.656 -0.9582 -0.4988 -0.6164
 1996TIP3   OH227478   3.999   2.168  11.636 -0.4049 -0.0632 -0.0438
 1996TIP3    H127479   3.981   2.103  11.704  0.2014  1.6598  1.8908
 1996TIP3    H227480   3.988   2.252  11.681 -0.9430  1.1811 -2.3769
 1997TIP3   OH227481   2.372   3.249   1.746  0.0252  0.1666 -0.4912
 1997TIP3    H127482   2.455   3.201   1.742  1.1832  2.1361 -3.3580
 1997TIP3    H227483   2.313   3.199   1.690 -0.3640 -0.4537  0.4253
 1998TIP3   OH227484   3.489   0.762  12.780 -0.3328  0.6047 -0.1000
 1998TIP3    H127485   3.452   0.828  12.720 -2.8808 -1.5728 -1.1174
 1998TIP3    H227486   3.453   0.785  12.865 -0.8283  0.8133 -0.3609
 1999TIP3   OH227487   3.603   1.628  17.000 -0.2025 -0.9656  0.3990
 1999TIP3    H127488   3.596   1.550  17.056 -0.8652 -0.7980  0.5649
 1999TIP3    H227489   3.517   1.635  16.958 -0.4635  0.1846  1.0803
 2000TIP3   OH227490   0.122   6.030   5.311 -0.1642 -0.0306  0.7260
 2000TIP3    H127491   0.085   5.964   5.253 -0.0058  2.1325 -2.0292
 2000TIP3    H227492   0.217   6.023   5.299 -0.1538  0.8032  0.2458
 2001TIP3   OH227493   2.238   5.735  15.097  0.1374 -0.3437 -0.2352
 2001TIP3    H127494   2.330   5.762  15.103  0.1619 -0.4685 -0.0409
 2001TIP3    H227495   2.242   5.642  15.076  0.0537 -0.0494 -1.6522
 2002TIP3   OH227496   5.558   0.796  14.204 -0.7471  0.2374  0.1927
 2002TIP3    H127497   5.464   0.781  14.215 -0.4527 -0.3034  2.5753
 2002TIP3    H227498   5.599   0.747  14.275  1.3190  0.8620 -0.4852
 2003TIP3   OH227499   2.113   5.765   5.037  0.4239  0.1397 -0.2248
 2003TIP3    H127500   2.151   5.798   5.118 -0.7550  0.0107  0.4072
 2003TIP3    H227501   2.186   5.760   4.976  1.3778  0.0122  0.9015
 2004TIP3   OH227502   5.048   1.192  14.806 -0.3826  0.4383  0.3711
 2004TIP3    H127503   5.135   1.219  14.776 -0.3930 -0.4091 -0.5088
 2004TIP3    H227504   5.064   1.111  14.855 -0.7967 -0.7690 -1.3501
 2005TIP3   OH227505   5.139   2.349  16.497 -0.1348 -0.0965 -0.0671
 2005TIP3    H127506   5.222   2.391  16.475 -0.5003  1.1633  0.8186
 2005TIP3    H227507   5.163   2.276  16.554  0.3921  0.1040 -0.0283
 2006TIP3   OH227508   3.428   6.498   5.559  0.1793 -0.0010  0.3255
 2006TIP3    H127509   3.446   6.405   5.543  1.8884  0.5373 -1.2247
 2006TIP3    H227510   3.359   6.521   5.497  1.8746  0.4033 -1.5437
 2007TIP3   OH227511   1.754   3.176  13.221 -0.8373 -0.1074  0.5014
 2007TIP3    H127512   1.741   3.089  13.256 -1.9627  1.3894  4.2609
 2007TIP3    H227513   1.667   3.215  13.218 -0.3428  1.0215 -0.8705
 2008TIP3   OH227514   5.061   5.282  13.310 -0.1608 -0.7637  0.8937
 2008TIP3    H127515   5.098   5.365  13.340  1.3909 -1.2263  0.3497
 2008TIP3    H227516   5.001   5.306  13.239 -0.2600 -0.0560  1.2139
 2009TIP3   OH227517   0.878   4.357   5.502  0.2465 -0.0163  0.3632
 2009TIP3    H127518   0.876   4.388   5.592 -0.5464 -0.1205  0.3845
 2009TIP3    H227519   0.941   4.285   5.502 -0.3170 -0.5046  0.9854
 2010TIP3   OH227520   5.059   2.220   3.663 -0.0961 -0.5396  0.1538
 2010TIP3    H127521   5.136   2.195   3.612 -0.3881 -0.0916 -0.5139
 2010TIP3    H227522   5.047   2.148   3.725  0.0366 -1.2712 -0.6602
 2011TIP3   OH227523   6.486   3.281   1.151 -0.6595  0.0570  0.2189
 2011TIP3    H127524   6.532   3.284   1.067 -0.5810  0.2766  0.2691
 2011TIP3    H227525   6.425   3.207   1.143  1.2670 -1.7035  0.9664
 2012TIP3   OH227526   1.821   2.904   4.428  0.0762  0.3249 -0.1910
 2012TIP3    H127527   1.896   2.949   4.390  1.0621 -0.6229  0.5681
 2012TIP3    H227528   1.843   2.894   4.521 -0.6254 -0.6746 -0.1099
 2013TIP3   OH227529   6.447   6.594  10.956 -0.7896  0.2679  0.4313
 2013TIP3    H127530   6.369   6.640  10.928 -0.1287  0.2810 -1.4915
 2013TIP3    H227531   6.498   6.581  10.876  0.7078 -0.6245  1.4773
 2014TIP3   OH227532   2.222   3.350   1.093  0.4951  0.0446 -0.6304
 2014TIP3    H127533   2.290   3.296   1.133 -0.3941 -1.7320 -1.4029
 2014TIP3    H227534   2.260   3.438   1.089  1.7310 -0.3425  1.3042
 2015TIP3   OH227535   5.867   1.692  15.063  0.2902 -0.5495  0.3603
 2015TIP3    H127536   5.955   1.728  15.070  0.0437  0.3813 -0.9364
 2015TIP3    H227537   5.818   1.732  15.135  0.2660  1.0404 -0.4962
 2016TIP3   OH227538   4.897   0.326  10.516 -0.4454  0.2097 -0.9919
 2016TIP3    H127539   4.943   0.408  10.534  0.3422  0.0289 -2.0224
 2016TIP3    H227540   4.967   0.263  10.501 -1.0422 -0.4599 -1.0079
 2017TIP3   OH227541   1.938   6.598   5.482  0.1949  0.3232  0.3307
 2017TIP3    H127542   1.930   6.504   5.466  2.8391  0.4197 -2.3652
 2017TIP3    H227543   2.019   6.607   5.533  0.3619  1.1804 -0.0652
 2018TIP3   OH227544   4.701   4.513  16.367 -0.0513 -0.4624 -1.0260
 2018TIP3    H127545   4.634   4.567  16.409  0.4897  1.1607 -2.1360
 2018TIP3    H227546   4.658   4.429  16.351 -0.5985 -0.7787  1.7086
 2019TIP3   OH227547   4.469   0.676  15.415  0.0152 -0.3611 -0.0047
 2019TIP3    H127548   4.554   0.677  15.461  0.3617 -2.8704 -0.4437
 2019TIP3    H227549   4.422   0.603  15.454 -2.0479  1.0350  0.2730
 2020TIP3   OH227550   2.067   4.188   0.224 -0.2397 -0.2838 -0.1206
 2020TIP3    H127551   2.039   4.105   0.186  2.2084 -0.7600 -1.1376
 2020TIP3    H227552   2.017   4.255   0.176 -1.9072 -1.1123  0.4037
 2021TIP3   OH227553   6.241   5.077   4.072  0.0854  0.5748 -0.3772
 2021TIP3    H127554   6.329   5.040   4.084  0.6941  2.4124  1.2921
 2021TIP3    H227555   6.235   5.093   3.978  0.6765 -1.5391 -0.8314
 2022TIP3   OH227556   4.127   2.706  13.158  0.4764  0.5596 -0.1087
 2022TIP3    H127557   4.201   2.714  13.218  0.6627 -2.1626  0.1359
 2022TIP3    H227558   4.050   2.706  13.214  0.7229 -4.0937  0.6201
 2023TIP3   OH227559   2.842   6.240   0.627  0.0272  0.3217 -0.1090
 2023TIP3    H127560   2.796   6.166   0.666 -1.7505  2.1963  1.6329
 2023TIP3    H227561   2.822   6.235   0.534 -2.2913  0.0531  0.3536
 2024TIP3   OH227562   3.448   3.898  10.345 -0.3692 -0.2764 -0.2726
 2024TIP3    H127563   3.539   3.922  10.365 -0.3201  0.4540 -1.2689
 2024TIP3    H227564   3.395   3.954  10.401 -0.2127 -1.3554  0.9878
 2025TIP3   OH227565   5.749   6.740  16.609 -0.0945  0.0651 -0.0941
 2025TIP3    H127566   5.683   6.774  16.670  3.1974  2.4276  2.5462
 2025TIP3    H227567   5.752   6.805  16.539 -2.0081 -1.2572 -1.5053
 2026TIP3   OH227568   0.369   2.288  10.621  0.2095 -0.2678  0.3876
 2026TIP3    H127569   0.338   2.316  10.707  0.5842  0.3543  0.3251
 2026TIP3    H227570   0.361   2.366  10.566  0.1514 -0.6099 -0.0942
 2027TIP3   OH227571   5.948   0.294  16.300 -0.1128  0.0047 -0.2773
 2027TIP3    H127572   6.028   0.329  16.261 -0.4343  2.3380  0.9878
 2027TIP3    H227573   5.979   0.232  16.367  0.7488  1.7390  1.0058
 2028TIP3   OH227574   4.424   2.458  14.537  0.3755  0.1846 -1.0820
 2028TIP3    H127575   4.508   2.429  14.575  0.6107  3.0704  0.9227
 2028TIP3    H227576   4.418   2.412  14.454  3.5129 -0.8201 -0.8763
 2029TIP3   OH227577   0.206   0.321  12.150 -0.0210  0.3481  0.5260
 2029TIP3    H127578   0.293   0.310  12.187  0.3772 -3.8185 -1.0284
 2029TIP3    H227579   0.222   0.350  12.060 -0.1881 -0.5496  0.1992
 2030TIP3   OH227580   1.181   5.442   3.831  0.1102  0.0014  0.4992
 2030TIP3    H127581   1.230   5.389   3.768  1.8893  2.0059  0.0442
 2030TIP3    H227582   1.215   5.415   3.916  0.9780  0.3039  0.2712
 2031TIP3   OH227583   5.780   6.242  15.697 -0.1633  0.2233 -0.0639
 2031TIP3    H127584   5.718   6.313  15.681 -0.3428 -0.2350 -1.6089
 2031TIP3    H227585   5.724   6.167  15.718  0.0066  0.4230  1.1561
 2032TIP3   OH227586   5.984   1.372  10.916  0.0626 -0.7545 -0.3634
 2032TIP3    H127587   6.001   1.442  10.979  1.7307  0.1048 -1.6791
 2032TIP3    H227588   5.891   1.352  10.927 -0.3311  1.2401  0.5051
 2033TIP3   OH227589   5.794   2.894  15.847  0.2317 -0.3682  0.3656
 2033TIP3    H127590   5.757   2.816  15.889  1.2868 -0.6576  0.8009
 2033TIP3    H227591   5.758   2.894  15.759 -0.3070 -0.9758  0.5785
 2034TIP3   OH227592   0.928   6.742   5.619 -0.2854  0.3682  0.3368
 2034TIP3    H127593   0.900   6.830   5.643 -2.7866  0.4242 -2.2004
 2034TIP3    H227594   1.017   6.753   5.584  0.1484  1.5103  1.7054
 2035TIP3   OH227595   5.964   4.256  16.431 -0.1996  0.1264  0.5660
 2035TIP3    H127596   5.928   4.321  16.491  0.8140  0.2444  1.0672
 2035TIP3    H227597   5.896   4.190  16.423 -1.1331  1.0865  0.2826
 2036TIP3   OH227598   3.733   3.782   2.874 -0.2962 -0.2338  0.3774
 2036TIP3    H127599   3.814   3.755   2.918 -1.1570 -0.5694  1.7952
 2036TIP3    H227600   3.679   3.704   2.873 -0.6416  0.0096 -0.5119
 2037TIP3   OH227601   4.007   4.474  11.520 -0.5629  0.2925 -0.4860
 2037TIP3    H127602   4.065   4.501  11.591  0.9518 -0.2110 -1.4868
 2037TIP3    H227603   3.964   4.395  11.554 -2.3305  1.8048  1.0646
 2038TIP3   OH227604   2.143   3.584   4.970  0.1710 -0.8577  0.2672
 2038TIP3    H127605   2.218   3.525   4.964 -1.4380 -3.1336  0.8387
 2038TIP3    H227606   2.071   3.536   4.928 -1.0179  1.1611 -0.1525
 2039TIP3   OH227607   6.683   0.158  13.090  0.4337 -0.1798  0.4151
 2039TIP3    H127608   6.596   0.127  13.062  0.1715 -0.5548  1.6194
 2039TIP3    H227609   6.732   0.165  13.008 -0.7480  0.1138 -0.3034
 2040TIP3   OH227610   1.154   4.076   6.272  0.2219 -0.4685  0.4004
 2040TIP3    H127611   1.117   4.138   6.335 -0.9381 -0.7344  0.0105
 2040TIP3    H227612   1.203   4.132   6.211  0.3736 -0.0878  0.8626
 2041TIP3   OH227613   0.901   6.411   2.155 -0.5146 -0.2544 -0.4600
 2041TIP3    H127614   0.817   6.398   2.110 -0.1267 -2.2375 -0.7200
 2041TIP3    H227615   0.878   6.459   2.234 -1.6069  0.9135 -1.4493
 2042TIP3   OH227616   1.556   2.938  12.330  0.5424 -0.1546  0.1671
 2042TIP3    H127617   1.507   2.990  12.266 -2.7381 -2.2035  0.7627
 2042TIP3    H227618   1.612   2.881  12.277 -0.0923  0.0694 -0.7760
 2043TIP3   OH227619   5.321   4.439  14.936 -0.1561  0.0002 -0.3484
 2043TIP3    H127620   5.242   4.486  14.961 -0.1477  1.5435 -2.8947
 2043TIP3    H227621   5.289   4.367  14.881 -0.0104 -1.9164  1.9135
 2044TIP3   OH227622   0.169   2.715   3.402  0.2298 -0.3340 -0.3706
 2044TIP3    H127623   0.085   2.756   3.380 -0.1585 -2.1635 -2.6220
 2044TIP3    H227624   0.224   2.788   3.432 -1.6788  1.1321 -0.2367
 2045TIP3   OH227625   1.798   5.065  14.158  0.4302 -0.4872 -0.5309
 2045TIP3    H127626   1.724   5.121  14.134  0.0443  0.1075  1.7706
 2045TIP3    H227627   1.872   5.125  14.164  0.6646 -0.7375 -0.9441
 2046TIP3   OH227628   3.845   1.660   1.901  0.2223 -0.4571  0.1771
 2046TIP3    H127629   3.894   1.581   1.878 -0.5391 -0.1366 -3.0850
 2046TIP3    H227630   3.778   1.667   1.833 -2.1992  0.9682  2.5444
 2047TIP3   OH227631   2.598   1.462  13.555  0.0484  0.0189 -0.7088
 2047TIP3    H127632   2.651   1.384  13.540 -0.9851 -0.9286  0.3046
 2047TIP3    H227633   2.640   1.506  13.629 -0.4676 -0.6804  0.0302
 2048TIP3   OH227634   2.865   5.024   4.118 -0.1501 -0.8636  0.3476
 2048TIP3    H127635   2.869   5.099   4.177  0.9099 -0.5098 -0.1348
 2048TIP3    H227636   2.783   4.980   4.139 -1.8115  1.5298 -0.7150
 2049TIP3   OH227637   5.435   0.683  17.099 -0.4041 -0.4706  0.2239
 2049TIP3    H127638   5.365   0.664  17.036  0.3765 -0.2964 -0.7222
 2049TIP3    H227639   5.514   0.649  17.058  0.1896  0.0319  0.9238
 2050TIP3   OH227640   3.574   2.755   4.685 -0.8112 -0.4721  0.3082
 2050TIP3    H127641   3.543   2.681   4.633  0.7258 -0.8082 -0.1763
 2050TIP3    H227642   3.495   2.804   4.707 -1.5811 -0.5807 -1.9441
 2051TIP3   OH227643   5.157   1.629   5.196 -0.2184  0.0783 -0.1509
 2051TIP3    H127644   5.139   1.537   5.176 -1.8326  0.0954  1.0635
 2051TIP3    H227645   5.178   1.630   5.289  1.4492  0.7657 -0.4903
 2052TIP3   OH227646   1.278   5.582  14.570 -0.7413 -0.2282 -0.2540
 2052TIP3    H127647   1.226   5.502  14.579 -1.9815  0.5477 -0.3106
 2052TIP3    H227648   1.360   5.552  14.531 -0.4250 -1.7307  1.4653
 2053TIP3   OH227649   6.129   6.156  14.318  0.2249 -0.2426 -0.4323
 2053TIP3    H127650   6.114   6.224  14.383 -0.8119 -1.2363  0.4196
 2053TIP3    H227651   6.121   6.200  14.234 -1.7345  0.4623  0.0699
 2054TIP3   OH227652   0.037   0.505  10.605 -0.1185  0.3516  0.3213
 2054TIP3    H127653   0.053   0.443  10.676  2.0295  1.7500  1.1591
 2054TIP3    H227654   0.018   0.588  10.648  2.0036  1.4149 -0.6426
 2055TIP3   OH227655   6.409   0.826  11.912 -0.3045  0.1649 -0.2070
 2055TIP3    H127656   6.485   0.830  11.971 -1.0235 -0.6188  0.7980
 2055TIP3    H227657   6.334   0.812  11.970 -1.1379  0.1985 -1.2478
 2056TIP3   OH227658   2.152   3.728  17.142 -0.3972 -0.0308  0.2934
 2056TIP3    H127659   2.137   3.723  17.048  0.6757 -0.6779  0.1459
 2056TIP3    H227660   2.067   3.709  17.181 -0.6822 -0.5003 -0.5367
 2057TIP3   OH227661   5.489   4.535  13.326 -0.2453  0.1798 -0.2915
 2057TIP3    H127662   5.566   4.576  13.285 -0.8245  1.4300 -0.1963
 2057TIP3    H227663   5.504   4.544  13.420 -0.4491  0.3325 -0.2719
 2058TIP3   OH227664   2.047   0.164  14.065 -0.2580  0.0158 -0.2378
 2058TIP3    H127665   2.092   0.125  13.991  0.9173 -1.1231  1.0245
 2058TIP3    H227666   1.967   0.113  14.075 -0.8869  0.7690 -1.2632
 2059TIP3   OH227667   2.700   3.685  14.279 -0.0706 -0.2778 -0.0626
 2059TIP3    H127668   2.727   3.695  14.188  0.6016  1.0258  0.2440
 2059TIP3    H227669   2.782   3.690  14.329 -0.5195  0.0729  0.6607
 2060TIP3   OH227670   4.971   0.091  13.740 -0.1753 -0.2294  0.0775
 2060TIP3    H127671   4.967   0.175  13.694 -1.5492 -2.4333 -4.4205
 2060TIP3    H227672   4.880   0.063  13.747  0.2072 -1.1482  2.0148
 2061TIP3   OH227673   3.415   5.939  12.422  0.0096 -0.2265 -0.4102
 2061TIP3    H127674   3.425   5.911  12.513 -0.1175  1.2729  0.0786
 2061TIP3    H227675   3.444   5.863  12.371  0.5326 -0.9199  0.8735
 2062TIP3   OH227676   2.141   6.063   4.754 -0.3516 -0.2297  0.0474
 2062TIP3    H127677   2.099   6.149   4.764 -0.2130  0.0935 -1.8066
 2062TIP3    H227678   2.077   6.011   4.706 -0.0460 -0.8703  0.3248
 2063TIP3   OH227679   2.245   3.784   4.159  0.1184  0.0428 -0.2677
 2063TIP3    H127680   2.323   3.823   4.120  0.1722 -0.2362 -0.4405
 2063TIP3    H227681   2.238   3.826   4.245  1.5701 -1.3110  0.5781
 2064TIP3   OH227682   2.464   4.595   3.334  0.1074  0.5696 -0.0070
 2064TIP3    H127683   2.526   4.526   3.308 -0.8098 -1.0037  1.7179
 2064TIP3    H227684   2.499   4.628   3.417 -1.0668 -0.0162  0.7486
 2065TIP3   OH227685   6.346   0.043  11.816 -0.2329  0.2066  0.5466
 2065TIP3    H127686   6.393  -0.029  11.774 -2.1501  0.7489 -2.8325
 2065TIP3    H227687   6.338   0.110  11.749 -0.8842  2.5184  2.7517
 2066TIP3   OH227688   6.651   3.712  16.065 -0.5092  0.7555 -0.1948
 2066TIP3    H127689   6.663   3.692  15.972 -0.6291 -0.0654 -0.0403
 2066TIP3    H227690   6.611   3.632  16.102 -1.9072  1.6270  0.2603
 2067TIP3   OH227691   5.546   2.831   2.096 -0.1247  0.1261 -0.3941
 2067TIP3    H127692   5.489   2.900   2.064  0.8780  0.9788 -0.4179
 2067TIP3    H227693   5.613   2.821   2.029  0.6842  0.3100  0.3605
 2068TIP3   OH227694   0.063   1.968   0.749 -0.6508 -0.1131  0.2234
 2068TIP3    H127695  -0.002   1.920   0.698  0.1132 -0.3682 -0.5321
 2068TIP3    H227696   0.012   2.032   0.798 -1.5970 -1.1011  0.5737
 2069TIP3   OH227697   1.946   2.613  14.660 -0.1528  0.3126 -0.5007
 2069TIP3    H127698   2.025   2.563  14.640 -1.4088 -1.1935 -2.0439
 2069TIP3    H227699   1.895   2.611  14.579 -1.7540  1.3155  0.4132
 2070TIP3   OH227700   1.137   0.841  11.393  0.0702  0.8916  0.2288
 2070TIP3    H127701   1.226   0.808  11.381 -0.4152 -0.4218  0.1356
 2070TIP3    H227702   1.109   0.805  11.477 -0.3047  1.4559  0.3497
 2071TIP3   OH227703   3.169   5.362   5.226 -0.0276 -0.0605 -0.2927
 2071TIP3    H127704   3.136   5.317   5.304  1.1066 -1.3077 -0.4960
 2071TIP3    H227705   3.233   5.302   5.188  0.0988  0.8950 -1.7059
 2072TIP3   OH227706   3.074   5.994  11.022 -0.0213 -0.4430 -0.2734
 2072TIP3    H127707   3.148   5.995  11.083  1.0421  0.3965 -1.5422
 2072TIP3    H227708   3.112   6.012  10.937 -1.5810 -0.9039 -1.1092
 2073TIP3   OH227709   4.025   6.722  13.386 -0.6821  0.0542 -0.1613
 2073TIP3    H127710   4.058   6.717  13.296  1.2366 -1.8047  0.5662
 2073TIP3    H227711   3.943   6.673  13.383 -0.9221  0.4788 -1.0001
 2074TIP3   OH227712   4.123   4.985  11.420  0.3559 -0.6743 -0.0774
 2074TIP3    H127713   4.060   4.933  11.370 -2.3081  2.1157  0.0691
 2074TIP3    H227714   4.120   5.072  11.380  1.2642  0.5566  2.3203
 2075TIP3   OH227715   1.408   4.072  13.844  0.1455  0.2471 -0.5552
 2075TIP3    H127716   1.361   4.079  13.928  2.2579  0.9428  0.6320
 2075TIP3    H227717   1.419   3.978  13.831 -1.8430  0.0369 -1.0629
 2076TIP3   OH227718   4.814   5.157  13.926 -0.1964  0.0583 -0.4911
 2076TIP3    H127719   4.793   5.250  13.935  3.0110  0.7726  1.2221
 2076TIP3    H227720   4.769   5.115  14.000  1.3312  0.9513  1.0230
 2077TIP3   OH227721   4.903   5.529   0.444 -0.0983  0.5132 -0.4550
 2077TIP3    H127722   4.849   5.606   0.464  1.0810  0.7411  2.3982
 2077TIP3    H227723   4.949   5.511   0.526  1.3457 -1.9182 -1.6975
 2078TIP3   OH227724   4.520   2.064  14.301  0.8418 -0.5404 -0.0617
 2078TIP3    H127725   4.587   1.998  14.315  0.4865 -0.5431  2.0888
 2078TIP3    H227726   4.477   2.072  14.387 -0.0331  1.4726 -0.6353
 2079TIP3   OH227727   6.246   5.739   4.709  0.0536 -0.2158  0.4862
 2079TIP3    H127728   6.205   5.813   4.754  0.6662  0.0339  0.6455
 2079TIP3    H227729   6.324   5.776   4.669 -0.5301 -0.4066 -0.8868
 2080TIP3   OH227730   1.937   6.322  14.975 -0.1168 -0.4291 -0.1369
 2080TIP3    H127731   1.958   6.392  14.914  0.6907 -0.9573 -0.4721
 2080TIP3    H227732   1.984   6.345  15.055  0.7795 -0.9706 -0.4928
 2081TIP3   OH227733   0.250   3.690  13.121 -0.4207  0.3663 -0.2249
 2081TIP3    H127734   0.167   3.663  13.083 -0.6969 -0.2358  0.7749
 2081TIP3    H227735   0.314   3.628  13.086  0.0893  2.2139 -2.8675
 2082TIP3   OH227736   3.077   5.899  16.468  0.4785 -0.1764 -0.8469
 2082TIP3    H127737   3.068   5.809  16.498 -0.4794  0.0390 -0.4438
 2082TIP3    H227738   2.989   5.924  16.439  0.7775  0.5553 -1.1437
 2083TIP3   OH227739   5.896   4.715  16.478 -0.2467 -0.2288  0.0904
 2083TIP3    H127740   5.883   4.627  16.513  0.6612  0.1031  1.3530
 2083TIP3    H227741   5.952   4.703  16.402 -0.8286 -0.8112 -0.2578
 2084TIP3   OH227742   0.509   4.376  11.821  0.5112 -0.3172  0.2651
 2084TIP3    H127743   0.559   4.435  11.766  1.5261 -0.2626  1.2053
 2084TIP3    H227744   0.572   4.309  11.848  0.4286  0.3657  2.3803
 2085TIP3   OH227745   4.352   4.368  14.588 -0.3437  0.1071 -0.0741
 2085TIP3    H127746   4.436   4.336  14.620 -1.4249 -2.1069  0.7594
 2085TIP3    H227747   4.374   4.419  14.510  1.8307  0.4654  0.7117
 2086TIP3   OH227748   1.121   1.305   2.542  0.1042 -0.0161  0.3310
 2086TIP3    H127749   1.174   1.382   2.562  0.5778 -0.8636  2.6668
 2086TIP3    H227750   1.077   1.327   2.460  3.2422  1.1114 -1.1867
 2087TIP3   OH227751   3.425   3.337  11.896  0.0162  0.2852  0.8025
 2087TIP3    H127752   3.417   3.380  11.811  0.4993  0.6176  0.9221
 2087TIP3    H227753   3.360   3.379  11.951  0.3892  0.7737  0.8782
 2088TIP3   OH227754   2.353   1.403   1.683 -0.0900  0.5490 -0.7051
 2088TIP3    H127755   2.401   1.429   1.762  0.9588  0.1877 -1.2123
 2088TIP3    H227756   2.262   1.395   1.712  0.5172 -1.2617  0.8891
 2089TIP3   OH227757   1.248   1.938  15.630  0.2397  0.3263 -0.0890
 2089TIP3    H127758   1.233   1.964  15.721 -2.4286 -0.8638 -0.0795
 2089TIP3    H227759   1.172   1.973  15.583  1.1063  0.1223 -1.6903
 2090TIP3   OH227760   4.717   5.166   2.851  0.2740  0.4896  0.1685
 2090TIP3    H127761   4.706   5.083   2.897 -0.7442 -0.5270 -1.8422
 2090TIP3    H227762   4.631   5.207   2.855 -0.4634 -0.5865 -2.5472
 2091TIP3   OH227763   6.213   6.385  10.777 -0.6743 -0.7538  0.2277
 2091TIP3    H127764   6.187   6.386  10.685 -0.1543  1.9409  0.0273
 2091TIP3    H227765   6.306   6.365  10.775 -0.6651 -0.7054  0.1767
 2092TIP3   OH227766   1.103   5.462   1.771 -0.3047 -0.0358 -0.0541
 2092TIP3    H127767   1.105   5.499   1.683 -1.8854 -2.5032 -1.2465
 2092TIP3    H227768   1.010   5.444   1.788  0.3151 -3.6514  0.2162
 2093TIP3   OH227769   5.500   2.663   3.498 -0.1188 -0.4194 -0.2985
 2093TIP3    H127770   5.447   2.584   3.485 -0.5840 -0.3432  0.9802
 2093TIP3    H227771   5.578   2.632   3.544 -1.4456  0.1359  2.5717
 2094TIP3   OH227772   4.626   5.374   5.185 -0.2187 -0.7259  0.5124
 2094TIP3    H127773   4.573   5.320   5.125 -0.2431 -1.3416  1.0756
 2094TIP3    H227774   4.586   5.460   5.181 -1.9694 -1.4216  1.7180
 2095TIP3   OH227775   3.665   5.905  12.100 -0.2035  0.1186 -0.2931
 2095TIP3    H127776   3.739   5.895  12.041 -0.5650  0.3797 -0.7957
 2095TIP3    H227777   3.636   5.815  12.117 -0.2961  0.0559 -0.7639
 2096TIP3   OH227778   3.351   2.025  16.096  0.3624  0.7027 -0.5576
 2096TIP3    H127779   3.365   1.992  16.008 -0.0384  2.3661 -1.2929
 2096TIP3    H227780   3.260   2.054  16.097  0.8720  2.4462 -0.2509
 2097TIP3   OH227781   6.023   3.097   3.525 -0.0264 -0.6082  0.3596
 2097TIP3    H127782   5.966   3.169   3.500  1.0298 -0.1753 -0.9023
 2097TIP3    H227783   6.093   3.097   3.459  0.3667 -2.3557  0.7201
 2098TIP3   OH227784   5.313   1.256  15.168 -0.3096 -0.1749  0.0431
 2098TIP3    H127785   5.354   1.329  15.121  1.0786 -1.5258 -0.9581
 2098TIP3    H227786   5.221   1.280  15.173  0.1285  1.7180 -0.0970
 2099TIP3   OH227787   2.179   4.424  12.421  0.2744 -0.5040 -0.7965
 2099TIP3    H127788   2.094   4.382  12.435  1.1258 -2.1602 -0.2742
 2099TIP3    H227789   2.158   4.507  12.378 -1.5427 -1.2825 -1.5332
 2100TIP3   OH227790   6.341   3.198  12.570  0.1631  0.2563 -0.9336
 2100TIP3    H127791   6.382   3.278  12.604  2.0176 -0.8020 -0.5193
 2100TIP3    H227792   6.347   3.207  12.474  0.2829  0.6530 -0.8900
 2101TIP3   OH227793   2.801   4.789  14.784  0.1727 -0.4362 -0.6033
 2101TIP3    H127794   2.881   4.841  14.770  0.7349 -0.7916  1.0651
 2101TIP3    H227795   2.825   4.700  14.759  1.6366 -1.3796  3.4131
 2102TIP3   OH227796   6.301   4.362  13.169  0.2888  0.1598  0.3748
 2102TIP3    H127797   6.253   4.279  13.176 -0.4048  0.4839 -0.4056
 2102TIP3    H227798   6.269   4.402  13.088  1.7463  0.4831 -0.0687
 2103TIP3   OH227799   6.076   2.250  16.985 -0.5002 -0.4801  0.2135
 2103TIP3    H127800   6.065   2.340  16.956 -2.8537 -0.6188  0.4799
 2103TIP3    H227801   6.092   2.201  16.904  2.6430  0.3251  0.2271
 2104TIP3   OH227802   3.886   4.943   6.230  0.1073  0.1935  0.1130
 2104TIP3    H127803   3.843   5.029   6.237 -1.3552 -0.5863  1.2527
 2104TIP3    H227804   3.827   4.883   6.275  2.3575 -0.9751  1.7022
 2105TIP3   OH227805   1.274   2.744   1.369 -0.6827  0.0884  0.2254
 2105TIP3    H127806   1.246   2.787   1.450  2.4324 -1.4238  2.3211
 2105TIP3    H227807   1.321   2.812   1.321 -0.9014  0.5355  0.6378
 2106TIP3   OH227808   2.762   2.601  12.354  0.1905 -0.5268 -0.0584
 2106TIP3    H127809   2.699   2.534  12.380 -1.5861  1.7267  1.9915
 2106TIP3    H227810   2.709   2.668  12.310  1.1212  1.2909  1.4264
 2107TIP3   OH227811   3.954   0.144   5.204 -0.3489 -0.2487  0.2343
 2107TIP3    H127812   4.026   0.098   5.247 -0.7753 -0.5436  0.6498
 2107TIP3    H227813   3.943   0.098   5.120 -1.2628 -1.4341  0.9609
 2108TIP3   OH227814   6.393   5.749   0.086  0.0341  0.4504  0.5834
 2108TIP3    H127815   6.336   5.676   0.062  1.9246 -0.7167 -0.6654
 2108TIP3    H227816   6.361   5.822   0.032 -0.6462  0.0046  0.3625
 2109TIP3   OH227817   2.346   1.218  15.857  0.1324  0.3665 -0.4807
 2109TIP3    H127818   2.280   1.248  15.795  0.4879  1.8517 -0.1803
 2109TIP3    H227819   2.331   1.270  15.935  0.7004 -0.3632  0.1382
 2110TIP3   OH227820   6.026   5.401   4.436 -0.4689  0.1272  0.0942
 2110TIP3    H127821   5.982   5.485   4.451 -1.7260 -0.4803 -0.0325
 2110TIP3    H227822   6.097   5.421   4.376 -1.5738  0.8988 -1.0142
 2111TIP3   OH227823   5.643   1.567  11.216 -0.3247 -0.1634 -0.2169
 2111TIP3    H127824   5.632   1.656  11.248  0.9527 -0.2429  0.4856
 2111TIP3    H227825   5.631   1.512  11.293  1.5878 -0.4220 -0.0618
 2112TIP3   OH227826   1.565   4.291  11.844  0.1750  0.5809 -0.5386
 2112TIP3    H127827   1.606   4.378  11.850 -0.8664  1.1057 -0.8771
 2112TIP3    H227828   1.471   4.308  11.842 -0.2475 -0.6897  2.4267
 2113TIP3   OH227829   4.374   5.593  12.810  0.0589  0.0447 -0.2202
 2113TIP3    H127830   4.426   5.516  12.789 -3.1039 -2.0098 -1.3307
 2113TIP3    H227831   4.306   5.595  12.743 -2.0931  1.6888  1.8332
 2114TIP3   OH227832   5.723   5.739   3.373  0.0127 -0.3753 -0.0522
 2114TIP3    H127833   5.727   5.730   3.278  0.4867 -2.7952  0.1341
 2114TIP3    H227834   5.802   5.788   3.397  0.3455 -0.5326 -0.8301
 2115TIP3   OH227835   4.690   1.719  11.525 -0.0104  0.2670  0.2690
 2115TIP3    H127836   4.731   1.768  11.454  0.1227 -1.0935 -0.6470
 2115TIP3    H227837   4.731   1.633  11.521 -2.1230 -0.7988  0.0421
 2116TIP3   OH227838   6.316   0.056  11.087 -0.1827  0.1192 -0.0808
 2116TIP3    H127839   6.303  -0.018  11.147 -2.6389 -0.5618 -1.2931
 2116TIP3    H227840   6.320   0.016  11.000  0.5734  1.2706 -0.5935
 2117TIP3   OH227841   2.250   0.312  16.560 -0.3483 -0.0616  0.1113
 2117TIP3    H127842   2.315   0.303  16.490  0.9494  1.1008  1.0955
 2117TIP3    H227843   2.283   0.257  16.631 -1.2037 -0.5736  0.1145
 2118TIP3   OH227844   5.549   2.056   5.936  0.2808  0.0544  0.4044
 2118TIP3    H127845   5.476   2.090   5.884  0.2226  0.1163  0.5288
 2118TIP3    H227846   5.597   2.134   5.964 -0.3491  0.0911  1.4355
 2119TIP3   OH227847   6.411   6.007   4.142 -0.2259  0.1368  0.3866
 2119TIP3    H127848   6.441   6.098   4.138  1.8464 -0.5195 -2.5947
 2119TIP3    H227849   6.322   6.010   4.106 -0.5394  1.0408  1.1739
 2120TIP3   OH227850   5.396   1.199  11.964  0.2356 -0.5814  0.0385
 2120TIP3    H127851   5.312   1.242  11.945 -0.1425  0.3213  3.2737
 2120TIP3    H227852   5.462   1.265  11.940 -0.2341  0.7221  2.1302
 2121TIP3   OH227853   2.485   3.339   6.621  0.0190  0.3386 -0.2230
 2121TIP3    H127854   2.531   3.348   6.538 -0.6008 -2.0114 -0.8788
 2121TIP3    H227855   2.474   3.429   6.652  2.3704  1.1407 -1.4763
 2122TIP3   OH227856   2.793   3.463   4.447 -0.4234 -0.4487  0.6605
 2122TIP3    H127857   2.825   3.508   4.369 -0.4005 -2.5832 -0.6427
 2122TIP3    H227858   2.713   3.510   4.471 -0.1166  0.5986 -0.2932
 2123TIP3   OH227859   2.679   1.350  10.885 -0.1255  0.3333 -0.3502
 2123TIP3    H127860   2.695   1.397  10.804  0.9613 -1.9838 -1.5645
 2123TIP3    H227861   2.622   1.277  10.860 -1.5127  0.7435  1.4005
 2124TIP3   OH227862   5.588   0.497   2.086 -0.2822 -0.3821 -0.4606
 2124TIP3    H127863   5.667   0.514   2.033  0.0089  0.4107  0.2046
 2124TIP3    H227864   5.569   0.581   2.127 -1.3380 -0.6340 -0.4086
 2125TIP3   OH227865   1.689   6.831  12.074 -0.0073 -0.2339 -0.1213
 2125TIP3    H127866   1.706   6.762  12.138  3.4884 -0.3716 -0.9854
 2125TIP3    H227867   1.736   6.907  12.108  1.8575 -0.2759 -2.3735
 2126TIP3   OH227868   3.609   0.592   6.165  0.0829  0.5640 -0.3810
 2126TIP3    H127869   3.599   0.632   6.079  0.5730 -0.5809 -1.0032
 2126TIP3    H227870   3.529   0.616   6.213  0.0539  1.6626 -0.9510
 2127TIP3   OH227871   4.753   1.096   1.623  0.1064 -0.7485  0.2268
 2127TIP3    H127872   4.674   1.098   1.676  0.6831 -0.8559  1.1197
 2127TIP3    H227873   4.816   1.149   1.672  0.7168 -1.0143 -0.2517
 2128TIP3   OH227874   1.824   5.073   1.161  0.6059 -0.1114  0.4731
 2128TIP3    H127875   1.816   5.028   1.077  0.2184 -0.9650  0.9388
 2128TIP3    H227876   1.912   5.109   1.162  0.5806 -0.0155 -0.3308
 2129TIP3   OH227877   5.340   2.719   1.118 -0.5198 -0.0216 -0.0296
 2129TIP3    H127878   5.324   2.643   1.063  0.2358 -0.3594  0.2097
 2129TIP3    H227879   5.321   2.689   1.207 -0.7449  0.2306  0.0102
 2130TIP3   OH227880   2.879   5.578   0.695  0.0547  0.5600 -0.1945
 2130TIP3    H127881   2.868   5.569   0.600 -0.8736  1.6319 -0.2131
 2130TIP3    H227882   2.798   5.620   0.724  0.0652 -0.2986  1.1731
 2131TIP3   OH227883   0.111   5.732  16.516  0.1225 -1.1604 -0.6583
 2131TIP3    H127884   0.148   5.802  16.462  0.0358 -0.4122  0.2335
 2131TIP3    H227885   0.187   5.688  16.554  0.1831 -1.6716 -1.3374
 2132TIP3   OH227886   0.762   5.627   1.103 -0.3222  0.1285  0.1238
 2132TIP3    H127887   0.821   5.695   1.134  0.8851 -0.7582 -0.1753
 2132TIP3    H227888   0.791   5.547   1.147 -0.6132 -0.5259 -0.8347
 2133TIP3   OH227889   3.748   3.229   2.737 -0.3411 -0.4851  0.0798
 2133TIP3    H127890   3.787   3.180   2.810 -1.3280 -2.4930 -0.6410
 2133TIP3    H227891   3.703   3.162   2.686 -2.1469  1.2996 -0.7715
 2134TIP3   OH227892   6.693   4.028   1.367  0.2791  0.0654  0.0422
 2134TIP3    H127893   6.602   4.011   1.391 -0.2801  0.7170 -1.5263
 2134TIP3    H227894   6.739   4.035   1.451 -1.2971  0.7702  0.8830
 2135TIP3   OH227895   5.491   1.319   1.299 -0.1174 -0.1431  0.2471
 2135TIP3    H127896   5.531   1.260   1.235  1.7098  0.3931  0.8146
 2135TIP3    H227897   5.405   1.281   1.317  0.3501 -1.7013 -0.6223
 2136TIP3   OH227898   4.376   2.159  11.305  0.4881 -0.7960  0.4392
 2136TIP3    H127899   4.319   2.132  11.377 -0.0407 -0.8927 -0.0114
 2136TIP3    H227900   4.321   2.154  11.227  1.1100 -0.8980 -0.0053
 2137TIP3   OH227901   6.766   0.077   6.058 -0.0744 -0.0363  0.2890
 2137TIP3    H127902   6.768   0.170   6.035  0.1142 -0.1448 -0.1415
 2137TIP3    H227903   6.688   0.067   6.113 -0.0074  0.4036  0.4649
 2138TIP3   OH227904   0.984   0.775  16.916  0.1271  0.2124 -0.0228
 2138TIP3    H127905   1.071   0.815  16.923 -0.3077  1.6805 -2.1333
 2138TIP3    H227906   0.943   0.794  17.001  1.3172  0.8221  0.4462
 2139TIP3   OH227907   1.687   2.761   2.318 -0.4020 -0.0908 -0.2687
 2139TIP3    H127908   1.741   2.682   2.316  0.7659  0.6359  0.4441
 2139TIP3    H227909   1.749   2.830   2.344 -1.7200  0.7692  0.6714
 2140TIP3   OH227910   4.401   5.174   5.085  0.1727  0.1909  0.0851
 2140TIP3    H127911   4.340   5.187   5.157  0.2810  0.2586  0.1650
 2140TIP3    H227912   4.415   5.079   5.082  1.8693  0.3438  1.5757
 2141TIP3   OH227913   4.774   1.521  14.431  0.0388  0.0600  0.1603
 2141TIP3    H127914   4.737   1.558  14.351 -1.6028 -0.8769  0.4371
 2141TIP3    H227915   4.831   1.450  14.401 -0.2247 -0.0008 -0.2032
 2142TIP3   OH227916   6.258   4.652   5.896 -0.2991 -0.0171 -0.0758
 2142TIP3    H127917   6.266   4.571   5.845  1.8167  0.6755 -0.9197
 2142TIP3    H227918   6.174   4.643   5.940 -1.0583 -1.7779 -1.7175
 2143TIP3   OH227919   3.542   1.301  11.019 -0.3876  0.2070 -0.0123
 2143TIP3    H127920   3.577   1.337  11.100 -1.7055  0.8778  0.2750
 2143TIP3    H227921   3.469   1.246  11.046 -0.4245 -0.0898 -0.6986
 2144TIP3   OH227922   5.760   6.554   4.907 -0.7172 -0.3727 -0.9872
 2144TIP3    H127923   5.754   6.548   5.002 -1.0082 -0.0422 -0.9807
 2144TIP3    H227924   5.745   6.464   4.876 -2.8921 -0.1348 -0.8073
 2145TIP3   OH227925   1.517   1.169  12.597  0.1875  0.0855 -0.4182
 2145TIP3    H127926   1.570   1.103  12.643  0.2970  0.1786 -0.4086
 2145TIP3    H227927   1.495   1.128  12.514  0.8813  0.3115 -0.7271
 2146TIP3   OH227928   4.622   0.454   0.539 -0.0897 -0.0984 -0.5340
 2146TIP3    H127929   4.644   0.420   0.452  1.3026  0.5383 -0.4560
 2146TIP3    H227930   4.534   0.418   0.557  0.5420 -2.1453 -1.2068
 2147TIP3   OH227931   5.790   1.122  12.688 -0.0249  0.1282 -0.2246
 2147TIP3    H127932   5.848   1.152  12.757 -0.0550  1.2860 -0.6743
 2147TIP3    H227933   5.828   1.157  12.608 -1.8218  1.7707 -0.4408
 2148TIP3   OH227934   1.724   0.151  14.092 -0.2577 -0.0895 -0.1566
 2148TIP3    H127935   1.662   0.189  14.155  0.3837  0.7200  0.0016
 2148TIP3    H227936   1.720   0.211  14.017  0.8110  0.3418  0.1185
 2149TIP3   OH227937   5.461   3.248   3.248  0.3458  0.4684  0.1244
 2149TIP3    H127938   5.414   3.281   3.325  1.8865  1.0052  0.8780
 2149TIP3    H227939   5.416   3.288   3.174 -0.0776  1.3691  0.8415
 2150TIP3   OH227940   2.185   1.645  16.428  0.0906 -0.4064  0.9577
 2150TIP3    H127941   2.241   1.662  16.353 -1.2958 -0.8766 -0.2293
 2150TIP3    H227942   2.245   1.617  16.497  1.2406 -2.3428 -0.6993
 2151TIP3   OH227943   3.559   4.650   0.258  0.0862 -0.0035  0.3796
 2151TIP3    H127944   3.507   4.651   0.177  0.2215  1.0453  0.2923
 2151TIP3    H227945   3.616   4.575   0.249  0.1672  0.1592 -0.5532
 2152TIP3   OH227946   5.640   0.216  11.247  0.4842 -0.1526  0.0242
 2152TIP3    H127947   5.677   0.216  11.336  0.3653  2.8426  0.1779
 2152TIP3    H227948   5.586   0.137  11.244  0.3377 -0.2570  2.7003
 2153TIP3   OH227949   0.468   4.972   5.499 -0.2158 -0.6685  0.0296
 2153TIP3    H127950   0.413   4.909   5.545 -0.6849 -0.4572 -0.2432
 2153TIP3    H227951   0.455   4.952   5.406 -0.6118  0.0385 -0.0695
 2154TIP3   OH227952   1.206   0.275   2.733  0.5226 -0.8036  0.2629
 2154TIP3    H127953   1.268   0.319   2.675 -1.8163  1.2735 -0.8186
 2154TIP3    H227954   1.127   0.264   2.681 -1.1424 -0.3558  2.5156
 2155TIP3   OH227955   1.933   4.627  16.909 -0.5080  0.1299 -0.1606
 2155TIP3    H127956   1.855   4.578  16.933  0.7784 -1.2461  1.5544
 2155TIP3    H227957   1.937   4.699  16.973 -0.3701  0.1605 -0.2022
 2156TIP3   OH227958   2.109   1.140  16.529  0.6173  0.6951 -0.5823
 2156TIP3    H127959   2.039   1.184  16.481  0.6154  0.4471 -0.8072
 2156TIP3    H227960   2.117   1.055  16.487 -1.8221 -1.0160  1.9858
 2157TIP3   OH227961   5.039   6.153  13.790  0.1266 -0.2559 -0.2786
 2157TIP3    H127962   4.954   6.136  13.832  0.0543 -0.5673 -0.5459
 2157TIP3    H227963   5.092   6.076  13.811 -0.8412 -1.8508 -3.1432
 2158TIP3   OH227964   1.017   0.470   3.566  0.9159 -0.0116 -0.0158
 2158TIP3    H127965   0.990   0.423   3.488 -1.1614 -2.0189  1.7790
 2158TIP3    H227966   1.042   0.557   3.534 -1.0747 -0.3087 -2.7308
 2159TIP3   OH227967   0.364   2.463  10.874  0.4147  0.1668 -0.2101
 2159TIP3    H127968   0.333   2.553  10.864  0.1152  0.1234  0.2832
 2159TIP3    H227969   0.457   2.467  10.854  0.1768  0.3720 -1.3299
 2160TIP3   OH227970   3.406   5.006  14.766  0.5392 -0.8185 -0.3450
 2160TIP3    H127971   3.465   5.081  14.759  2.4188 -1.8861  2.6053
 2160TIP3    H227972   3.462   4.932  14.788 -1.1622 -3.3719 -3.6081
 2161TIP3   OH227973   5.681   1.492  10.952 -0.3007  0.7749  0.1567
 2161TIP3    H127974   5.665   1.506  11.046 -2.2774  0.0916 -0.0318
 2161TIP3    H227975   5.598   1.512  10.910  0.5925  1.2017 -1.4995
 2162TIP3   OH227976   1.003   3.218  14.255 -0.0013  0.3154  0.4541
 2162TIP3    H127977   1.011   3.189  14.346  3.7136 -0.5900 -0.0246
 2162TIP3    H227978   1.041   3.305  14.254 -3.5335  2.0565  0.3000
 2163TIP3   OH227979   4.054   6.740  15.298  0.4421  0.2707 -0.3104
 2163TIP3    H127980   4.013   6.660  15.329  1.9394 -0.1794  0.5539
 2163TIP3    H227981   4.136   6.712  15.258  0.2892  1.2309 -1.3650
 2164TIP3   OH227982   1.270   5.920   4.365 -0.0114  0.3445 -0.8285
 2164TIP3    H127983   1.180   5.947   4.380  0.5534  2.3814 -0.8334
 2164TIP3    H227984   1.267   5.868   4.285 -1.2391 -0.0789 -0.5222
 2165TIP3   OH227985   3.307   5.387  16.557  0.7479 -0.3671 -0.2039
 2165TIP3    H127986   3.401   5.407  16.565  0.0507  3.5444 -0.1568
 2165TIP3    H227987   3.280   5.427  16.475 -1.5360  1.8979  1.5074
 2166TIP3   OH227988   1.860   1.210   2.584 -0.7149  0.4629 -0.0308
 2166TIP3    H127989   1.777   1.187   2.626 -0.9305  1.2669  0.0011
 2166TIP3    H227990   1.905   1.126   2.572 -0.6177  0.2227  1.8467
 2167TIP3   OH227991   5.818   1.228  11.631 -0.4030 -0.3499  0.4867
 2167TIP3    H127992   5.816   1.133  11.646 -2.1894 -1.1866 -3.6702
 2167TIP3    H227993   5.889   1.241  11.569  0.7750  1.3875  2.0775
 2168TIP3   OH227994   0.559   4.035  15.506 -0.1174  0.1307 -0.1693
 2168TIP3    H127995   0.538   4.126  15.528 -2.8869 -0.8889  2.1012
 2168TIP3    H227996   0.655   4.033  15.500  0.0350  3.1348 -0.2314
 2169TIP3   OH227997   4.859   6.803   5.671  0.3477 -0.6703 -0.2224
 2169TIP3    H127998   4.929   6.795   5.736  0.1751 -0.6851 -0.0360
 2169TIP3    H227999   4.807   6.723   5.682  0.2372 -0.6059 -0.2802
 2170TIP3   OH228000   0.924   0.713   0.621 -0.0631 -0.3241  0.6393
 2170TIP3    H128001   0.980   0.641   0.591  1.5483  0.3850  1.8207
 2170TIP3    H228002   0.870   0.734   0.544 -0.0714 -2.2796  0.0482
 2171TIP3   OH228003   4.090   1.230  13.599  0.2262  0.1927 -0.4102
 2171TIP3    H128004   4.157   1.187  13.546  0.6780  0.3870 -0.0057
 2171TIP3    H228005   4.020   1.165  13.605 -0.4864  0.6923 -2.4441
 2172TIP3   OH228006   0.395   4.135   2.084 -0.1370  0.4261  0.0849
 2172TIP3    H128007   0.348   4.191   2.145 -1.3586 -0.4596  0.0032
 2172TIP3    H228008   0.487   4.159   2.094 -0.4649  1.2508  1.2551
 2173TIP3   OH228009   2.393   6.541   2.471  0.1302  0.2299 -0.7643
 2173TIP3    H128010   2.475   6.551   2.424 -0.4117  0.3732 -1.7065
 2173TIP3    H228011   2.340   6.616   2.443 -0.2118  0.3139  0.0695
 2174TIP3   OH228012   4.381   3.289   0.048  0.1130  0.1502 -0.2742
 2174TIP3    H128013   4.374   3.362   0.109  0.3341 -0.9181  1.0867
 2174TIP3    H228014   4.377   3.329  -0.038 -0.7688  1.6613  0.4343
 2175TIP3   OH228015   3.043   4.384   4.352 -0.1341  0.3608 -0.3783
 2175TIP3    H128016   3.048   4.480   4.355 -1.2935  0.4597 -1.0386
 2175TIP3    H228017   3.110   4.355   4.414  1.6783  1.5523 -1.6768
 2176TIP3   OH228018   6.427   5.153   2.760  0.4289 -0.1888 -0.4338
 2176TIP3    H128019   6.486   5.114   2.695  2.5323  2.3023 -0.1940
 2176TIP3    H228020   6.467   5.133   2.844 -0.9850 -1.3416  0.0092
 2177TIP3   OH228021   2.216   4.320   0.674  0.6429  0.0964 -0.2711
 2177TIP3    H128022   2.134   4.298   0.630  0.3031  2.1074 -0.7362
 2177TIP3    H228023   2.260   4.236   0.685  0.3997 -0.6620 -3.7524
 2178TIP3   OH228024   4.369   5.934  11.239  0.4169  0.0174 -0.6671
 2178TIP3    H128025   4.451   5.916  11.285  0.4850  0.2099 -0.7140
 2178TIP3    H228026   4.389   5.914  11.148  0.8594  1.4819 -0.9204
 2179TIP3   OH228027   3.001   6.814  13.897  0.2432  0.0836  0.0349
 2179TIP3    H128028   2.912   6.850  13.903 -0.7517 -2.1737 -0.1112
 2179TIP3    H228029   3.024   6.792  13.987 -0.6076 -2.0122 -0.1916
 2180TIP3   OH228030   0.574   0.292   4.632  0.2985 -0.8657  0.1311
 2180TIP3    H128031   0.582   0.386   4.620 -2.1477 -0.3116  2.0435
 2180TIP3    H228032   0.656   0.266   4.674  1.4365  0.1744 -1.3517
 2181TIP3   OH228033   6.783   1.714   1.189 -0.1298  0.0816 -0.4032
 2181TIP3    H128034   6.857   1.684   1.136 -0.0814 -1.1623  0.3339
 2181TIP3    H228035   6.793   1.809   1.193  2.9158 -0.2158  1.8243
 2182TIP3   OH228036   0.862   1.385  15.277 -0.1409  0.5243 -0.2566
 2182TIP3    H128037   0.805   1.332  15.333 -1.6063  0.5996 -1.6160
 2182TIP3    H228038   0.886   1.460  15.332  0.9167 -0.8462  1.2451
 2183TIP3   OH228039   5.580   2.835   1.040  0.2844  0.1271  0.2988
 2183TIP3    H128040   5.488   2.822   1.064 -0.0572 -0.5891 -1.2508
 2183TIP3    H228041   5.576   2.876   0.954  1.4128 -0.4199 -0.0327
 2184TIP3   OH228042   4.657   5.860  14.938  0.0032 -0.0407  0.1086
 2184TIP3    H128043   4.587   5.924  14.946 -1.1506 -1.5488  4.5076
 2184TIP3    H228044   4.737   5.912  14.941 -0.8072  1.4699 -1.8928
 2185TIP3   OH228045   6.818   2.992   5.833 -0.2945 -0.6648 -0.1749
 2185TIP3    H128046   6.801   2.898   5.845  0.3908 -0.6266  1.3845
 2185TIP3    H228047   6.913   3.000   5.847 -0.5275  0.4101  0.8577
 2186TIP3   OH228048   1.580   4.389   0.775 -0.7723  0.0418 -0.0091
 2186TIP3    H128049   1.511   4.433   0.726  0.4025  2.3328  0.2108
 2186TIP3    H228050   1.617   4.458   0.831  0.7072 -1.4474  0.9579
 2187TIP3   OH228051   6.275   4.725  16.405 -0.4773  0.3524 -0.0728
 2187TIP3    H128052   6.295   4.785  16.477  0.1705 -0.2854  0.2901
 2187TIP3    H228053   6.347   4.662  16.405  0.2517  1.1072 -2.1336
 2188TIP3   OH228054   5.370   2.620   2.022 -0.7168  0.3185  0.0046
 2188TIP3    H128055   5.396   2.569   1.945  2.6075 -0.1732  1.2803
 2188TIP3    H228056   5.431   2.694   2.023 -1.2706  0.7882  1.6865
 2189TIP3   OH228057   2.698   3.297  12.020  0.3681 -0.1689 -0.1227
 2189TIP3    H128058   2.762   3.226  12.026  2.1029  1.3929  1.5844
 2189TIP3    H228059   2.726   3.360  12.087 -1.9314  1.4623 -0.5602
 2190TIP3   OH228060   4.239   5.446  15.649 -0.2723  0.4904 -0.4850
 2190TIP3    H128061   4.193   5.492  15.720 -0.8003 -1.1567  0.2841
 2190TIP3    H228062   4.183   5.458  15.573 -0.4760  1.0007 -0.2612
 2191TIP3   OH228063   6.374   1.269  15.213 -0.2114 -0.4315  0.0939
 2191TIP3    H128064   6.376   1.249  15.306  0.7632  0.1068  0.1909
 2191TIP3    H228065   6.295   1.223  15.181 -1.1191  0.1975  1.3516
 2192TIP3   OH228066   3.456   2.643  13.034  0.0741 -0.4664 -0.4019
 2192TIP3    H128067   3.371   2.613  13.002 -0.9942  0.4286  1.4757
 2192TIP3    H228068   3.506   2.562  13.049 -0.4400 -0.9974 -1.4464
 2193TIP3   OH228069   5.250   0.514   0.514 -0.2498  0.3651 -0.2151
 2193TIP3    H128070   5.215   0.428   0.540  0.3520  0.1022 -0.2644
 2193TIP3    H228071   5.255   0.564   0.596 -0.9739  0.4939 -0.2433
 2194TIP3   OH228072   6.148   2.886  11.553 -0.1502 -0.3195  0.1408
 2194TIP3    H128073   6.063   2.858  11.518 -0.7524  0.5164  0.8721
 2194TIP3    H228074   6.132   2.974  11.586  0.7370 -0.5543  1.2489
 2195TIP3   OH228075   4.821   5.328  16.440 -0.6873 -0.0582 -0.3445
 2195TIP3    H128076   4.755   5.345  16.374 -2.9886  1.8569  2.2021
 2195TIP3    H228077   4.898   5.376  16.409 -1.7365  0.9221 -1.5641
 2196TIP3   OH228078   1.122   2.169   3.800 -0.4392 -0.6953 -0.6155
 2196TIP3    H128079   1.179   2.246   3.792 -1.0822 -0.0698  0.5667
 2196TIP3    H228080   1.034   2.205   3.809 -0.8611 -1.6142 -0.9592
 2197TIP3   OH228081   1.294   4.381  11.849  0.1895  0.5280 -0.3444
 2197TIP3    H128082   1.266   4.471  11.865  0.9290  1.2595 -2.7114
 2197TIP3    H228083   1.219   4.339  11.807 -0.8794 -0.6443  2.4989
 2198TIP3   OH228084   6.044   5.539  16.456 -0.0809 -0.0740  0.4957
 2198TIP3    H128085   5.964   5.578  16.491 -0.3118 -1.6172  1.8023
 2198TIP3    H228086   6.023   5.446  16.446  1.4321 -0.4453  0.5369
 2199TIP3   OH228087   3.961   2.648   2.298 -0.0945  0.3800  0.0990
 2199TIP3    H128088   3.949   2.553   2.295 -0.4558  0.4455 -0.8052
 2199TIP3    H228089   3.963   2.669   2.392 -0.2352 -0.4870  0.3073
 2200TIP3   OH228090   5.646   3.972  13.235 -0.3944  0.3143  0.2994
 2200TIP3    H128091   5.673   4.062  13.218 -0.6552  0.3216 -0.0849
 2200TIP3    H228092   5.710   3.940  13.299 -1.0705  1.1838  1.4478
 2201TIP3   OH228093   5.515   2.349   1.193  0.2379  0.4549 -0.2742
 2201TIP3    H128094   5.550   2.281   1.136  1.3324  1.6791 -1.1247
 2201TIP3    H228095   5.477   2.414   1.133 -1.9610  0.0453  0.5579
 2202TIP3   OH228096   5.847   3.823   1.243 -0.7510  0.1503 -0.3094
 2202TIP3    H128097   5.869   3.823   1.336  0.2530  1.8544 -0.4926
 2202TIP3    H228098   5.891   3.745   1.208 -0.6863 -0.2055  0.5522
 2203TIP3   OH228099   5.589   1.543   0.321 -0.4041  0.4863  0.8036
 2203TIP3    H128100   5.512   1.502   0.360 -0.6600  0.4446  0.2680
 2203TIP3    H228101   5.620   1.604   0.388 -0.1573 -0.3974  1.5089
 2204TIP3   OH228102   4.047   3.414   5.145 -0.4126  0.3113  0.0032
 2204TIP3    H128103   4.121   3.393   5.202  0.4075  0.6992 -0.8972
 2204TIP3    H228104   4.001   3.331   5.133 -1.1047  0.3686  1.8969
 2205TIP3   OH228105   4.157   0.193  15.191  0.1281 -0.4957  0.2920
 2205TIP3    H128106   4.160   0.102  15.218 -2.2387 -0.6630  0.2579
 2205TIP3    H228107   4.075   0.226  15.229  0.0705  1.1214 -1.1267
 2206TIP3   OH228108   2.482   5.918  16.626 -0.3377 -0.3862 -0.6569
 2206TIP3    H128109   2.494   6.012  16.637 -1.4236 -0.1230 -1.5331
 2206TIP3    H228110   2.553   5.878  16.677  0.4761  0.9048 -0.7496
 2207TIP3   OH228111   6.512   0.627   4.440 -0.4639 -0.0514  0.2997
 2207TIP3    H128112   6.517   0.669   4.354 -0.2097  0.0045  0.3411
 2207TIP3    H228113   6.420   0.636   4.465 -0.4906  0.1399  0.1378
 2208TIP3   OH228114   3.993   5.054   4.457  0.1652 -0.0208 -0.3171
 2208TIP3    H128115   3.899   5.069   4.469  0.5127  0.6413  2.1436
 2208TIP3    H228116   4.028   5.140   4.434  0.2635 -0.1227 -0.5484
 2209TIP3   OH228117   0.349   2.884   5.635 -0.0831  0.5325 -0.0594
 2209TIP3    H128118   0.293   2.828   5.581 -0.0587  0.2014  0.2595
 2209TIP3    H228119   0.325   2.864   5.725  1.4006 -0.5293  0.1446
 2210TIP3   OH228120   6.765   5.127   0.845  0.4471  0.6865  0.0017
 2210TIP3    H128121   6.718   5.121   0.762  1.3625 -0.1377 -0.4814
 2210TIP3    H228122   6.721   5.063   0.901 -0.2423  1.3226  0.2030
 2211TIP3   OH228123   0.797   4.402  11.080 -0.5682  0.1070 -0.2055
 2211TIP3    H128124   0.736   4.475  11.089 -0.4126  0.7086 -2.9521
 2211TIP3    H228125   0.757   4.346  11.014  0.6153 -0.8453 -0.1446
 2212TIP3   OH228126   5.176   1.035   1.718 -0.6961 -0.0832 -0.2142
 2212TIP3    H128127   5.248   1.040   1.781  0.1821 -0.9790 -1.0939
 2212TIP3    H228128   5.191   1.108   1.658 -1.9245  1.1855  0.9726
 2213TIP3   OH228129   4.508   2.585  12.338 -0.1815  0.0202 -0.3945
 2213TIP3    H128130   4.455   2.555  12.412 -0.3514 -0.2594 -0.6283
 2213TIP3    H228131   4.487   2.678  12.330 -1.2586 -0.2443 -0.9762
 2214TIP3   OH228132   0.825   4.813   1.763  0.4222 -0.0507  0.0168
 2214TIP3    H128133   0.749   4.800   1.820 -0.0506 -1.3283 -0.8653
 2214TIP3    H228134   0.883   4.740   1.785  2.1132  1.7107  1.7320
 2215TIP3   OH228135   0.496   4.541  13.127 -0.3459 -0.1711 -0.2079
 2215TIP3    H128136   0.503   4.564  13.220  1.1724 -1.7686  0.1414
 2215TIP3    H228137   0.560   4.597  13.083 -2.6463  2.2114 -0.7002
 2216TIP3   OH228138   2.571   5.358  11.553  0.1849 -0.1846 -0.6939
 2216TIP3    H128139   2.520   5.389  11.478 -0.2414  1.5585  0.2602
 2216TIP3    H228140   2.509   5.305  11.603 -0.2899  0.7047 -0.3128
 2217TIP3   OH228141   2.222   3.704  16.020  0.5489  0.1659 -0.0505
 2217TIP3    H128142   2.163   3.710  15.945 -0.9923 -0.1192  1.0948
 2217TIP3    H228143   2.213   3.614  16.051 -0.4642  0.8242  1.7253
 2218TIP3   OH228144   6.292   2.734  11.393 -0.0359 -0.3549 -0.4160
 2218TIP3    H128145   6.219   2.730  11.332  0.9947  1.1505 -1.8188
 2218TIP3    H228146   6.265   2.797  11.460 -0.4658 -0.6758 -0.2854
 2219TIP3   OH228147   1.957   4.711  14.400 -0.2546  0.4037  0.4993
 2219TIP3    H128148   1.871   4.673  14.378 -0.0765 -0.1412  0.7151
 2219TIP3    H228149   2.010   4.698  14.321 -0.2950  0.5101  0.4545
 2220TIP3   OH228150   0.877   0.610  14.156 -0.4132 -0.1934  0.2254
 2220TIP3    H128151   0.848   0.550  14.225 -1.7868  1.1628  0.9019
 2220TIP3    H228152   0.922   0.680  14.204 -1.8609  1.0474 -0.1436
 2221TIP3   OH228153   3.709   4.737  13.405 -0.1176  0.0603 -0.5833
 2221TIP3    H128154   3.645   4.707  13.470  0.9479 -1.9810 -0.3628
 2221TIP3    H228155   3.773   4.666  13.401  0.9773  1.0687 -2.3666
 2222TIP3   OH228156   5.817   0.948   3.975 -0.6538 -0.0714 -0.6682
 2222TIP3    H128157   5.879   0.970   3.906 -0.9430 -0.1809 -0.9616
 2222TIP3    H228158   5.732   0.946   3.932 -0.8235 -0.2388 -0.3303
 2223TIP3   OH228159   6.547   3.723  14.885 -0.1151 -0.0615  0.1562
 2223TIP3    H128160   6.633   3.681  14.880 -0.5509 -1.4931  3.0100
 2223TIP3    H228161   6.566   3.816  14.883  1.8899 -0.2450  3.4695
 2224TIP3   OH228162   0.410   4.280  16.644  0.2792 -0.0478 -0.1389
 2224TIP3    H128163   0.472   4.211  16.624 -0.6393 -1.0604  0.3652
 2224TIP3    H228164   0.362   4.247  16.721  0.0473  1.2979  0.3225
 2225TIP3   OH228165   4.088   5.744  15.664  0.3754 -0.2233 -0.2598
 2225TIP3    H128166   4.136   5.730  15.745 -0.6382 -1.0395  0.2332
 2225TIP3    H228167   4.067   5.838  15.663  1.9073  0.1323 -0.4736
 2226TIP3   OH228168   0.139   3.273  12.951 -0.3689  0.3528 -0.3714
 2226TIP3    H128169   0.154   3.367  12.961 -3.3419  0.9077 -0.1787
 2226TIP3    H228170   0.193   3.232  13.019 -0.4628  2.1107  0.8163
 2227TIP3   OH228171   6.606   4.033  15.294  0.5918 -0.5477 -0.0880
 2227TIP3    H128172   6.597   4.128  15.304  2.4443 -0.4548  1.3495
 2227TIP3    H228173   6.685   4.022  15.241 -1.4965 -1.3236 -3.3365
 2228TIP3   OH228174   2.933   5.413   1.105  0.2607 -0.0074 -0.2305
 2228TIP3    H128175   2.908   5.496   1.064 -0.8052 -0.6815 -0.9939
 2228TIP3    H228176   3.001   5.437   1.168 -0.3803  1.5207 -0.0743
 2229TIP3   OH228177   1.271   1.921  14.309 -0.7374 -0.4899  0.1043
 2229TIP3    H128178   1.207   1.977  14.264 -2.0597 -0.7394  1.5981
 2229TIP3    H228179   1.248   1.929  14.402 -0.7039 -3.1874  0.4038
 2230TIP3   OH228180   0.675   0.413   1.165 -0.0165 -0.1515  0.0892
 2230TIP3    H128181   0.622   0.487   1.195  0.5958  0.3420 -0.0292
 2230TIP3    H228182   0.755   0.418   1.217  0.4883 -0.0909 -0.6759
 2231TIP3   OH228183   6.255   3.567  12.543 -0.0618  0.3446  0.0173
 2231TIP3    H128184   6.216   3.648  12.510  0.5611  0.1693 -1.2011
 2231TIP3    H228185   6.316   3.540  12.474  1.5020  0.1055  1.4475
 2232TIP3   OH228186   4.373   5.032   4.386  0.1142  0.0709  0.3386
 2232TIP3    H128187   4.353   5.102   4.448 -0.1189 -1.2964  1.8659
 2232TIP3    H228188   4.289   4.986   4.374  0.0636  0.5231 -1.3115
 2233TIP3   OH228189   0.555   6.816  14.565 -0.6386 -0.2349 -0.6976
 2233TIP3    H128190   0.583   6.859  14.646  1.0097  0.1710 -1.4263
 2233TIP3    H228191   0.462   6.835  14.559 -0.8604 -0.4750  1.2107
 2234TIP3   OH228192   1.361   6.714   2.326 -0.4607  0.2577 -0.3940
 2234TIP3    H128193   1.431   6.668   2.278 -1.3155 -2.4551  0.7837
 2234TIP3    H228194   1.402   6.741   2.408  0.5518  3.4691 -1.7915
 2235TIP3   OH228195   1.614   5.832   5.182 -0.3821 -0.0281  0.1502
 2235TIP3    H128196   1.687   5.770   5.186  0.0712  0.5151  0.3944
 2235TIP3    H228197   1.541   5.785   5.222  0.0625 -0.2757  0.6959
 2236TIP3   OH228198   4.774   1.024  13.065 -0.3208 -0.0761 -0.4261
 2236TIP3    H128199   4.814   0.948  13.023 -0.0304  1.1119 -2.4204
 2236TIP3    H228200   4.841   1.055  13.126 -0.6314 -1.6523  0.8027
 2237TIP3   OH228201   6.037   1.238   2.199  0.3801 -0.6808 -0.6405
 2237TIP3    H128202   6.065   1.275   2.115  1.3315  1.4977  0.5699
 2237TIP3    H228203   6.091   1.282   2.264  0.1761 -2.8446  1.1003
 2238TIP3   OH228204   5.009   6.695  15.020 -0.4183  0.1946  0.2652
 2238TIP3    H128205   5.025   6.762  14.954  2.9934 -0.3002  0.4110
 2238TIP3    H228206   5.048   6.730  15.100 -0.8391 -0.9194  0.9854
 2239TIP3   OH228207   4.636   5.643  11.665 -0.2148 -0.4808  0.5823
 2239TIP3    H128208   4.635   5.549  11.683  1.0787 -0.6405 -0.0146
 2239TIP3    H228209   4.617   5.650  11.571 -1.4475 -0.0498  0.8462
 2240TIP3   OH228210   4.753   2.017  17.089 -0.4653  0.0905  0.1843
 2240TIP3    H128211   4.799   1.945  17.132  0.8737  1.1409  0.5784
 2240TIP3    H228212   4.708   2.064  17.160  1.5233  1.6637  0.4883
 2241TIP3   OH228213   2.816   4.826   4.758 -0.4716 -0.0060  0.4455
 2241TIP3    H128214   2.809   4.733   4.781 -1.7767 -0.6860 -2.2122
 2241TIP3    H228215   2.767   4.871   4.826 -0.6611 -1.3518  1.2528
 2242TIP3   OH228216   4.018   3.682  13.805  0.1831  0.2482 -0.6148
 2242TIP3    H128217   3.950   3.693  13.872 -0.8288 -2.2458 -1.0989
 2242TIP3    H228218   4.080   3.620  13.843  1.8984  1.9635 -0.4625
 2243TIP3   OH228219   1.638   3.870  12.859  0.0424  0.3516  0.1144
 2243TIP3    H128220   1.604   3.958  12.843  0.9209  0.7086  0.1246
 2243TIP3    H228221   1.561   3.816  12.876 -0.6841  0.6859 -1.9046
 2244TIP3   OH228222   5.259   6.807   0.982 -0.2612 -0.0525 -0.4932
 2244TIP3    H128223   5.246   6.733   0.923  0.8227 -0.5178 -0.1804
 2244TIP3    H228224   5.354   6.814   0.991 -0.3789 -0.4675  1.7581
 2245TIP3   OH228225   2.793   4.154  16.008  0.1539 -0.3434 -0.1107
 2245TIP3    H128226   2.726   4.090  16.032  2.0081 -2.0013  1.0222
 2245TIP3    H228227   2.823   4.125  15.921 -0.2644  0.1331 -0.4205
 2246TIP3   OH228228   2.783   0.302   3.233  0.6136 -0.3767 -0.0583
 2246TIP3    H128229   2.736   0.226   3.198  0.9923 -0.9896  0.7596
 2246TIP3    H228230   2.723   0.375   3.216 -0.2992 -1.0267  0.2382
 2247TIP3   OH228231   0.194   2.316  14.627 -0.3413 -0.2611 -0.3377
 2247TIP3    H128232   0.133   2.256  14.584  0.2579 -0.7995 -0.4430
 2247TIP3    H228233   0.245   2.354  14.556  0.5758 -1.0708 -0.1213
 2248TIP3   OH228234   4.605   3.977   2.477 -0.0505  0.3975  0.4246
 2248TIP3    H128235   4.676   4.040   2.477  0.3331  0.0538 -1.8068
 2248TIP3    H228236   4.526   4.029   2.467  0.0639  0.6460  0.7952
 2249TIP3   OH228237   1.865   6.506   5.756 -0.3746  0.3529  0.4461
 2249TIP3    H128238   1.882   6.428   5.808  2.9310  0.1573 -0.7431
 2249TIP3    H228239   1.892   6.579   5.812 -0.3350  0.4181  0.3422
 2250TIP3   OH228240   1.275   5.894  11.246  0.1282  0.5401 -0.3292
 2250TIP3    H128241   1.193   5.888  11.198 -0.1171  1.7244 -0.0830
 2250TIP3    H228242   1.339   5.852  11.189 -0.8676 -1.7809  0.1259
 2251TIP3   OH228243   6.336   0.256   4.507 -0.3427  0.1854 -0.4078
 2251TIP3    H128244   6.314   0.279   4.416 -0.8932  0.6301 -0.1661
 2251TIP3    H228245   6.335   0.339   4.554  1.4181  0.1608 -0.2784
 2252TIP3   OH228246   6.655   6.509   5.749  0.0630 -0.4694 -0.3676
 2252TIP3    H128247   6.665   6.431   5.695 -0.2585  0.0884 -1.2586
 2252TIP3    H228248   6.561   6.517   5.763  0.2365 -1.4621  1.5909
 2253TIP3   OH228249   3.520   2.942  15.043 -0.1427 -0.1536 -0.1451
 2253TIP3    H128250   3.610   2.913  15.027  0.5930  0.8495  1.9341
 2253TIP3    H228251   3.472   2.861  15.061  0.9674 -0.5150  1.4110
 2254TIP3   OH228252   6.341   1.413  14.973 -0.1827 -0.5872 -0.5496
 2254TIP3    H128253   6.362   1.324  15.000  2.2054  0.0645  0.0548
 2254TIP3    H228254   6.258   1.406  14.926  0.3282 -3.2504 -1.2147
 2255TIP3   OH228255   2.496   2.110   2.714  0.3106 -0.7121 -0.3359
 2255TIP3    H128256   2.580   2.079   2.748  0.5133 -0.2624 -0.4182
 2255TIP3    H228257   2.504   2.104   2.619  0.8712  0.8870 -0.4099
 2256TIP3   OH228258   4.135   3.140   1.373  0.0596  0.5066  0.4308
 2256TIP3    H128259   4.074   3.066   1.379 -0.2559  0.7702  0.5350
 2256TIP3    H228260   4.098   3.205   1.433  0.3113  0.7659  0.3026
 2257TIP3   OH228261   0.074   0.692  14.178 -0.3682  0.3078  1.2285
 2257TIP3    H128262   0.105   0.782  14.191 -0.9647  0.5611  0.9493
 2257TIP3    H228263   0.121   0.640  14.243  0.9853  0.5966  0.5186
 2258TIP3   OH228264   2.042   3.423  11.465 -0.2360 -0.2537 -0.7067
 2258TIP3    H128265   2.056   3.516  11.481  0.7021 -0.4836 -0.0567
 2258TIP3    H228266   2.018   3.388  11.551 -2.4202 -0.3274 -1.2932
 2259TIP3   OH228267   0.502   5.278   2.598 -0.4609 -0.5158  0.0361
 2259TIP3    H128268   0.440   5.323   2.656  0.3522  1.1125 -0.3244
 2259TIP3    H228269   0.580   5.265   2.652 -0.1890 -0.2227 -0.2867
 2260TIP3   OH228270   0.235   1.954   5.983 -0.7215  0.2244  0.2029
 2260TIP3    H128271   0.162   1.898   5.956  0.2727 -1.2989  0.5146
 2260TIP3    H228272   0.194   2.038   6.005 -2.6022 -0.9850  1.7553
 2261TIP3   OH228273   6.644   1.413   5.267  0.2975  0.0053 -0.0650
 2261TIP3    H128274   6.689   1.476   5.323 -0.1749  0.2330  0.0632
 2261TIP3    H228275   6.703   1.338   5.263  0.3444 -0.0068  0.7358
 2262TIP3   OH228276   6.586   3.883  10.658  0.0833 -0.0391  0.0659
 2262TIP3    H128277   6.506   3.913  10.702 -0.6891  1.1750 -2.0121
 2262TIP3    H228278   6.560   3.873  10.566  2.0295 -0.8621 -0.4444
 2263TIP3   OH228279   0.334   3.510  11.295  0.0421  0.3166 -0.1864
 2263TIP3    H128280   0.276   3.434  11.301 -0.4955  0.7354 -0.1262
 2263TIP3    H228281   0.354   3.532  11.385  1.6904 -0.8757 -0.1995
 2264TIP3   OH228282   1.181   0.472   4.541  0.5209  0.2074  0.4777
 2264TIP3    H128283   1.222   0.387   4.559  0.3289 -0.6321 -2.4403
 2264TIP3    H228284   1.092   0.464   4.574  0.9973 -0.0761  1.7337
 2265TIP3   OH228285   6.049   3.201  15.021  0.4871 -0.1123  0.5124
 2265TIP3    H128286   6.042   3.271  15.087 -1.8949 -0.6899  0.9732
 2265TIP3    H228287   6.134   3.161  15.038 -0.0885 -0.3658  3.4169
 2266TIP3   OH228288   6.408   6.237   2.384  0.1948 -0.2555  0.3356
 2266TIP3    H128289   6.404   6.144   2.407  0.6517 -0.4155 -0.2357
 2266TIP3    H228290   6.322   6.271   2.411 -0.1205 -0.9193  0.1930
 2267TIP3   OH228291   4.091   3.536  16.615 -0.2276 -0.0053  0.2625
 2267TIP3    H128292   4.143   3.613  16.638 -1.6973  0.7571  1.1727
 2267TIP3    H228293   4.155   3.466  16.604  0.9993  0.9444  1.1201
 2268TIP3   OH228294   5.683   4.179  11.228  0.5986 -0.0472  0.6338
 2268TIP3    H128295   5.656   4.129  11.305 -1.6509 -1.4080 -0.8976
 2268TIP3    H228296   5.705   4.112  11.162 -0.1283  0.9710 -0.7101
 2269TIP3   OH228297   0.721   1.173  16.283 -0.0277 -0.2219 -0.0896
 2269TIP3    H128298   0.650   1.202  16.341 -0.0235 -0.4592  0.0359
 2269TIP3    H228299   0.758   1.097  16.327 -1.7730 -2.0964 -1.6857
 2270TIP3   OH228300   3.103   1.569  13.190 -0.3037 -0.2496  0.9774
 2270TIP3    H128301   3.062   1.522  13.262  1.1815  0.5617  2.4287
 2270TIP3    H228302   3.114   1.658  13.222  0.2760  0.1777 -0.3126
 2271TIP3   OH228303   4.918   4.750  13.574 -0.1916  0.1140  0.1985
 2271TIP3    H128304   4.964   4.832  13.593 -1.1085  0.6993 -0.0809
 2271TIP3    H228305   4.875   4.766  13.490 -1.3824 -0.2175  0.7268
 2272TIP3   OH228306   5.551   1.760  15.543  0.3078 -0.1869  1.0368
 2272TIP3    H128307   5.537   1.710  15.624 -0.1314 -2.2549 -0.2272
 2272TIP3    H228308   5.471   1.811  15.531  0.3421  0.0699  1.8460
 2273TIP3   OH228309   5.455   6.209  17.145 -0.5793  0.3639 -0.4186
 2273TIP3    H128310   5.405   6.129  17.135 -0.5219  0.2426  0.2204
 2273TIP3    H228311   5.540   6.180  17.179 -0.0858  0.5690 -1.4578
 2274TIP3   OH228312   5.415   3.933  13.786  0.1233 -0.1425 -0.3513
 2274TIP3    H128313   5.492   3.906  13.735 -0.1189 -0.9906 -0.2878
 2274TIP3    H228314   5.450   3.952  13.873  0.4422  0.7071 -0.6506
 2275TIP3   OH228315   5.070   5.373  13.846  0.5825 -0.0730  0.3442
 2275TIP3    H128316   5.012   5.302  13.818 -0.6242  0.4349  1.4528
 2275TIP3    H228317   5.017   5.425  13.906  1.0763  2.3700 -1.1612
 2276TIP3   OH228318   2.349   1.258   4.010 -0.0105 -0.1182  0.2315
 2276TIP3    H128319   2.343   1.170   4.046 -1.4777 -0.2914 -0.3640
 2276TIP3    H228320   2.442   1.280   4.014  0.5753 -2.2066 -0.8478
 2277TIP3   OH228321   4.289   1.098   3.961 -0.0486 -0.5655 -0.5083
 2277TIP3    H128322   4.259   1.129   4.047  0.1534 -1.6019 -0.0478
 2277TIP3    H228323   4.237   1.019   3.944 -0.9085  0.2594 -1.8849
 2278TIP3   OH228324   2.470   3.536  14.127 -0.2906  0.1074 -0.0035
 2278TIP3    H128325   2.510   3.468  14.181 -1.3041  0.3596  1.1156
 2278TIP3    H228326   2.520   3.615  14.146 -0.8290  0.2627  0.8372
 2279TIP3   OH228327   3.432   3.255   0.522 -0.4486 -0.2334  0.3132
 2279TIP3    H128328   3.510   3.301   0.553  0.3467 -1.2037 -0.1590
 2279TIP3    H228329   3.383   3.234   0.601  0.9213 -1.5771  0.8683
 2280TIP3   OH228330   4.464   2.728  14.170  0.0558 -0.6116 -0.3287
 2280TIP3    H128331   4.420   2.813  14.170  2.5376  0.7779 -0.1963
 2280TIP3    H228332   4.399   2.667  14.203 -1.4831  1.4340  0.6407
 2281TIP3   OH228333   3.038   3.419   0.206  0.0224  0.0479 -0.3842
 2281TIP3    H128334   3.000   3.363   0.274 -0.6492  0.5647 -0.3210
 2281TIP3    H228335   3.097   3.478   0.254  0.9667 -0.7883 -0.4889
 2282TIP3   OH228336   1.608   1.070  15.508  0.2526 -0.0091  0.3100
 2282TIP3    H128337   1.515   1.067  15.487  0.1462 -0.7325  0.8436
 2282TIP3    H228338   1.639   0.981  15.494  0.9345  0.2928 -0.1535
 2283TIP3   OH228339   3.278   1.391   1.719  0.0453  0.0978 -0.3544
 2283TIP3    H128340   3.350   1.412   1.780  0.1815 -0.2091 -0.4099
 2283TIP3    H228341   3.317   1.400   1.632  0.3156 -1.1196 -0.3740
 2284TIP3   OH228342   4.792   1.098   3.574 -0.6750  0.2929  0.1998
 2284TIP3    H128343   4.716   1.040   3.577 -0.1107 -0.5956 -1.2093
 2284TIP3    H228344   4.867   1.038   3.583 -0.1241  1.1904  1.9792
 2285TIP3   OH228345   4.867   6.120  16.544 -0.8546  0.6932  0.7483
 2285TIP3    H128346   4.927   6.186  16.577 -0.7687  0.9149  0.1588
 2285TIP3    H228347   4.793   6.170  16.509  0.6136  0.7229 -2.6523
 2286TIP3   OH228348   2.904   6.380   3.401 -0.0463 -0.3024 -0.2547
 2286TIP3    H128349   2.947   6.304   3.440  0.5981  0.7048  1.0625
 2286TIP3    H228350   2.835   6.403   3.464  1.1346  1.4663  0.4812
 2287TIP3   OH228351   6.650   5.446  13.647  0.3762  0.0537  0.1485
 2287TIP3    H128352   6.673   5.538  13.662  0.4516  0.1943 -0.7435
 2287TIP3    H228353   6.579   5.428  13.708  2.3742 -0.2031  2.5501
 2288TIP3   OH228354   2.568   3.120   3.716  0.2580  0.1851  1.0273
 2288TIP3    H128355   2.508   3.177   3.668  0.0033  0.1073  1.2457
 2288TIP3    H228356   2.653   3.163   3.709 -0.0513  0.9679  1.7663
 2289TIP3   OH228357   2.059   1.415   2.561  0.4355  0.3414 -0.0683
 2289TIP3    H128358   1.976   1.405   2.515 -0.4893  1.7591  1.1980
 2289TIP3    H228359   2.059   1.345   2.627  0.1143  0.5187  0.1180
 2290TIP3   OH228360   3.343   3.486   0.276  0.0617 -0.2855 -0.1043
 2290TIP3    H128361   3.358   3.560   0.335 -1.7588 -0.9953  1.3560
 2290TIP3    H228362   3.397   3.415   0.311  0.1916 -0.2550 -0.2418
 2291TIP3   OH228363   2.528   0.824  11.313  0.2751  0.3304 -0.5014
 2291TIP3    H128364   2.578   0.906  11.312 -1.4145  1.4444  0.8072
 2291TIP3    H228365   2.438   0.851  11.299 -0.3769 -1.2384  0.4486
 2292TIP3   OH228366   0.336   0.894   5.880 -0.0518 -0.3542  0.5458
 2292TIP3    H128367   0.389   0.872   5.957  0.1917  0.1763  0.5312
 2292TIP3    H228368   0.398   0.933   5.818 -0.5368  0.6769  0.6984
 2293TIP3   OH228369   0.773   5.302   6.268 -0.1270 -0.4987  0.0936
 2293TIP3    H128370   0.718   5.376   6.241  0.6519 -0.4306 -1.4051
 2293TIP3    H228371   0.716   5.226   6.261 -0.4955 -0.2303  0.1543
 2294TIP3   OH228372   6.711   0.119   3.517 -0.0953  0.6298  0.1842
 2294TIP3    H128373   6.641   0.108   3.581 -1.5518  0.6626 -1.3335
 2294TIP3    H228374   6.771   0.046   3.534 -0.3224  0.7795  1.7098
 2295TIP3   OH228375   0.928   0.718  16.327 -0.3201  0.0010 -0.3256
 2295TIP3    H128376   1.005   0.663  16.319 -0.9322 -0.8069 -0.7883
 2295TIP3    H228377   0.892   0.723  16.238 -1.3122 -0.3922  0.0407
 2296TIP3   OH228378   5.420   3.920   5.233 -0.0937  0.3483 -0.4629
 2296TIP3    H128379   5.463   3.888   5.153  1.4019 -0.1520  0.4912
 2296TIP3    H228380   5.474   3.886   5.304 -1.5018  0.6120  0.7889
 2297TIP3   OH228381   5.478   2.273  16.373  0.0646 -0.3490 -0.1035
 2297TIP3    H128382   5.513   2.305  16.290  2.3206  0.0797  0.9344
 2297TIP3    H228383   5.491   2.178  16.368 -0.1420 -0.3652 -0.3789
 2298TIP3   OH228384   5.140   5.148  12.305 -0.6124 -0.5015 -0.1203
 2298TIP3    H128385   5.133   5.101  12.223 -0.3317  1.5047 -1.3707
 2298TIP3    H228386   5.152   5.080  12.371 -0.5955 -2.1590 -1.7483
 2299TIP3   OH228387   5.469   4.985  15.182  0.1952 -0.3179  0.0899
 2299TIP3    H128388   5.403   4.982  15.112 -0.1585  0.0692  0.4025
 2299TIP3    H228389   5.453   4.906  15.234  1.6843 -1.6446 -1.3441
 2300TIP3   OH228390   2.673   0.231  14.361  0.2167 -0.3814 -0.4374
 2300TIP3    H128391   2.608   0.299  14.345 -1.1212 -1.5062 -0.0297
 2300TIP3    H228392   2.746   0.253  14.304 -0.4314  1.0464 -0.7556
 2301TIP3   OH228393   3.013   1.470   2.981  0.0061  0.0217  0.0381
 2301TIP3    H128394   2.982   1.401   3.040 -1.1987 -1.1007 -1.7820
 2301TIP3    H228395   3.096   1.436   2.947 -0.2349 -0.2085 -0.3237
 2302TIP3   OH228396   1.768   0.243  15.954 -0.1417  0.1576 -0.7889
 2302TIP3    H128397   1.827   0.228  16.028 -0.5443 -1.7639 -0.7951
 2302TIP3    H228398   1.681   0.225  15.989 -0.1840 -2.8507 -2.1447
 2303TIP3   OH228399   5.637   2.633  16.296 -0.0871  0.0057 -0.1107
 2303TIP3    H128400   5.613   2.581  16.219  2.7570  0.0363 -1.1318
 2303TIP3    H228401   5.666   2.717  16.260 -0.7002  0.8160  1.2026
 2304TIP3   OH228402   1.217   5.878  10.849  0.2129  0.0952 -0.1898
 2304TIP3    H128403   1.304   5.916  10.865  0.6463  1.5987 -4.5300
 2304TIP3    H228404   1.232   5.784  10.850  1.9743  0.3131 -0.7657
 2305TIP3   OH228405   5.695   5.502   4.927 -0.2634 -0.0976 -0.4140
 2305TIP3    H128406   5.628   5.562   4.959 -0.1437 -0.1538 -0.0494
 2305TIP3    H228407   5.778   5.542   4.953 -0.1522 -0.0284 -0.8647
 2306TIP3   OH228408   3.312   4.030   5.057  0.2290 -0.3873  1.2864
 2306TIP3    H128409   3.225   4.048   5.092  0.0054 -0.2876  0.6980
 2306TIP3    H228410   3.350   3.966   5.118 -0.0937 -0.1228  1.7716
 2307TIP3   OH228411   5.286   4.634   4.290 -0.2211  0.0589 -0.3590
 2307TIP3    H128412   5.330   4.602   4.211  2.1485  1.5504  0.2523
 2307TIP3    H228413   5.217   4.691   4.257  0.0432 -0.1850 -1.3678
 2308TIP3   OH228414   2.138   4.881  13.359  0.0502 -0.6108 -0.3648
 2308TIP3    H128415   2.052   4.909  13.394  0.5653 -0.3227  0.7387
 2308TIP3    H228416   2.183   4.963  13.341  0.7671 -0.7141  0.8302
 2309TIP3   OH228417   1.289   4.918   0.498  0.5028  0.0548 -0.0450
 2309TIP3    H128418   1.308   4.973   0.422 -1.7805  2.6836  1.1214
 2309TIP3    H228419   1.198   4.891   0.486  1.5417 -3.8798 -0.6495
 2310TIP3   OH228420   3.165   2.230  12.636  0.0761 -0.5330 -0.3005
 2310TIP3    H128421   3.098   2.297  12.622  0.7792  0.3079  0.2331
 2310TIP3    H228422   3.213   2.227  12.553  0.1174 -0.2742 -0.2885
 2311TIP3   OH228423   0.400   5.586   1.561  1.0192 -0.5422 -0.2373
 2311TIP3    H128424   0.332   5.526   1.532  2.2383 -1.7649 -0.6939
 2311TIP3    H228425   0.443   5.614   1.480  0.9269  0.3937  0.0269
 2312TIP3   OH228426   1.235   2.650  14.839 -0.5035 -0.2412  0.0643
 2312TIP3    H128427   1.166   2.585  14.829 -0.5999  0.0903 -1.7151
 2312TIP3    H228428   1.258   2.646  14.932 -2.0584 -1.2079  0.4484
 2313TIP3   OH228429   2.137   0.844   1.283 -0.6279  0.0296  0.2873
 2313TIP3    H128430   2.224   0.834   1.244 -1.2456 -2.4367 -0.6236
 2313TIP3    H228431   2.153   0.891   1.365  1.6900 -1.1383  0.5883
 2314TIP3   OH228432   2.519   4.467   4.687  0.4699 -0.2568 -0.2833
 2314TIP3    H128433   2.569   4.542   4.654 -0.0558 -0.1693 -0.8754
 2314TIP3    H228434   2.493   4.419   4.609  0.0670 -0.5895  0.0535
 2315TIP3   OH228435   6.345   6.000   2.042  0.5003 -0.2397  0.0669
 2315TIP3    H128436   6.425   6.023   2.090  0.2890 -0.3443  0.4768
 2315TIP3    H228437   6.341   5.905   2.047 -0.6179 -0.1525  1.6729
 2316TIP3   OH228438   5.864   4.317  12.980  0.1538 -0.2604 -0.1785
 2316TIP3    H128439   5.921   4.311  12.904 -0.4269 -1.7660 -0.5217
 2316TIP3    H228440   5.801   4.385  12.956 -0.6543 -1.4182 -1.5141
 2317TIP3   OH228441   3.806   6.254   2.702 -0.0235  0.0016  0.4140
 2317TIP3    H128442   3.794   6.159   2.705  2.1930 -0.3235  1.8122
 2317TIP3    H228443   3.743   6.288   2.765 -0.9728 -0.5209 -0.2428
 2318TIP3   OH228444   3.466   1.191  12.173 -0.5197 -0.1576  0.0685
 2318TIP3    H128445   3.485   1.254  12.104  3.6928  1.4712  2.3611
 2318TIP3    H228446   3.447   1.245  12.250 -2.5458 -1.8753  0.8826
 2319TIP3   OH228447   1.776   0.861   4.518 -0.4329 -0.2748 -0.0816
 2319TIP3    H128448   1.841   0.922   4.483  0.0325 -0.6525  0.1184
 2319TIP3    H228449   1.694   0.910   4.516 -0.2663 -0.0157 -0.9347
 2320TIP3   OH228450   6.044   2.388  12.102 -0.4696  0.4624  0.8407
 2320TIP3    H128451   6.075   2.298  12.092  2.3798  1.5339 -1.0428
 2320TIP3    H228452   5.953   2.385  12.072 -0.4065 -1.7322  0.6795
 2321TIP3   OH228453   2.188   4.057   6.477 -0.2170  0.2925 -0.2552
 2321TIP3    H128454   2.127   4.000   6.430 -0.3256  0.0119  0.2181
 2321TIP3    H228455   2.275   4.026   6.452 -0.2755 -0.2658  0.2045
 2322TIP3   OH228456   3.874   2.910   0.558 -0.5514 -0.0415 -0.6786
 2322TIP3    H128457   3.901   2.948   0.474 -1.6232  2.0258 -0.1670
 2322TIP3    H228458   3.785   2.942   0.570 -0.9526 -1.5419  0.5704
 2323TIP3   OH228459   3.047   5.792   0.209 -0.0212  0.0939 -0.6996
 2323TIP3    H128460   3.113   5.765   0.274 -2.5798  0.6426  2.3877
 2323TIP3    H228461   3.017   5.709   0.171  1.3380 -0.2628 -1.0841
 2324TIP3   OH228462   4.273   6.817  15.038  0.0581  0.0883  0.5108
 2324TIP3    H128463   4.285   6.811  15.133 -2.3157  3.3884  1.2065
 2324TIP3    H228464   4.303   6.905  15.016  1.0770 -0.7866 -1.9882
 2325TIP3   OH228465   5.576   1.877   4.835 -0.3699  0.2227  0.3265
 2325TIP3    H128466   5.637   1.873   4.761 -0.7958  0.2845 -0.0318
 2325TIP3    H228467   5.622   1.833   4.906 -0.8278 -1.8395 -0.5962
 2326TIP3   OH228468   6.150   4.975  11.638 -0.1703  0.1534  0.4638
 2326TIP3    H128469   6.119   4.947  11.724 -0.3194 -0.0550  0.3464
 2326TIP3    H228470   6.071   4.973  11.583  0.0215 -0.2502  0.1934
 2327TIP3   OH228471   0.940   3.381   3.644  0.3850 -0.0579  0.2303
 2327TIP3    H128472   0.965   3.460   3.692  0.3365 -0.1064  0.3355
 2327TIP3    H228473   0.997   3.381   3.566 -1.1046  1.2509 -0.9165
 2328TIP3   OH228474   5.984   6.624   6.616 -0.3458 -0.1549  0.2048
 2328TIP3    H128475   5.916   6.636   6.551 -0.3762  1.3626  0.4637
 2328TIP3    H228476   5.938   6.598   6.696 -0.4185 -0.9699 -0.1026
 2329TIP3   OH228477   2.272   1.733   1.807  0.2951 -0.2100 -0.1753
 2329TIP3    H128478   2.229   1.750   1.723 -0.3884  1.2197  0.4410
 2329TIP3    H228479   2.207   1.685   1.858  1.2446 -2.4665 -0.9358
 2330TIP3   OH228480   4.697   0.782  16.650  0.2930 -0.2863  0.0911
 2330TIP3    H128481   4.768   0.719  16.659 -0.5984 -1.3407 -0.0299
 2330TIP3    H228482   4.642   0.747  16.580 -1.1093 -0.2599  1.1281
 2331TIP3   OH228483   0.999   1.501  14.713  0.5629 -0.0293  0.5518
 2331TIP3    H128484   0.984   1.430  14.650 -2.1281  0.5596  0.3946
 2331TIP3    H228485   0.985   1.581  14.662  0.2878  0.5063  1.4453
 2332TIP3   OH228486   0.802   2.136   2.692 -0.7021 -0.5381  0.3273
 2332TIP3    H128487   0.860   2.061   2.680  1.1390  1.0351 -1.4891
 2332TIP3    H228488   0.763   2.150   2.606 -0.1842  1.1852  0.3385
 2333TIP3   OH228489   5.105   1.454   1.836 -0.0641  0.4952 -0.2190
 2333TIP3    H128490   5.144   1.540   1.826 -0.3439  0.5277 -1.2082
 2333TIP3    H228491   5.096   1.421   1.746 -0.5071 -0.3116  0.1043
 2334TIP3   OH228492   6.631   2.111  15.524 -0.2480 -0.4083  0.2837
 2334TIP3    H128493   6.568   2.065  15.468 -2.0770 -0.4900  2.2925
 2334TIP3    H228494   6.667   2.043  15.580  0.3405 -0.0713  0.3189
 2335TIP3   OH228495   3.200   4.192  13.292  0.3695  0.3659  0.1829
 2335TIP3    H128496   3.106   4.205  13.308  0.4982  1.3819  0.1761
 2335TIP3    H228497   3.204   4.115  13.235 -0.2502 -1.8702  2.8754
 2336TIP3   OH228498   0.532   5.777   2.928  0.0588 -0.2569 -0.7236
 2336TIP3    H128499   0.563   5.706   2.984  1.1111  2.0687  1.8909
 2336TIP3    H228500   0.447   5.802   2.966 -0.5024 -0.3542 -1.8761
 2337TIP3   OH228501   0.069   2.852   4.031  0.3665 -0.6406  0.4456
 2337TIP3    H128502   0.155   2.887   4.055  1.8119 -3.3154 -0.3912
 2337TIP3    H228503   0.044   2.798   4.106 -0.8459  0.4293  0.8560
 2338TIP3   OH228504   6.796   1.134   6.052  0.3292 -0.4257 -0.7777
 2338TIP3    H128505   6.869   1.138   6.115 -0.4205 -0.0443  0.0972
 2338TIP3    H228506   6.753   1.051   6.071  0.1943 -0.3820 -0.8963
 2339TIP3   OH228507   0.321   3.110   1.586 -0.2052  0.1789  0.1090
 2339TIP3    H128508   0.288   3.041   1.644  0.6523  0.6890  1.2614
 2339TIP3    H228509   0.351   3.178   1.646 -1.3522  1.7286 -1.0112
 2340TIP3   OH228510   2.380   0.437  11.121  0.6451  0.2883  0.5010
 2340TIP3    H128511   2.372   0.464  11.213  2.5846  1.1911  0.4716
 2340TIP3    H228512   2.473   0.452  11.101  0.2246  0.2481 -1.6454
 2341TIP3   OH228513   6.439   3.282  15.138 -0.0676  0.3157 -0.2228
 2341TIP3    H128514   6.466   3.313  15.052 -0.7790 -0.9631 -0.9408
 2341TIP3    H228515   6.513   3.302  15.195  1.1427 -0.3627 -1.4929
 2342TIP3   OH228516   0.935   6.595  14.467  0.3314 -0.1812  0.4045
 2342TIP3    H128517   0.963   6.659  14.532  2.0901  0.0160 -0.4801
 2342TIP3    H228518   0.845   6.575  14.490 -0.3892  2.7975  0.5530
 2343TIP3   OH228519   1.278   1.388  14.544  0.0228  0.2785  0.3110
 2343TIP3    H128520   1.274   1.443  14.622  0.3841  0.8395 -0.0574
 2343TIP3    H228521   1.341   1.320  14.565  1.4806  1.4507 -0.1081
 2344TIP3   OH228522   4.016   6.070  16.603 -0.3967  0.0646  0.0351
 2344TIP3    H128523   4.074   5.995  16.608 -0.8970 -0.3201  0.1471
 2344TIP3    H228524   4.027   6.115  16.687 -1.7524 -1.1344  0.9043
 2345TIP3   OH228525   6.630   0.617   2.054  0.6039 -0.3906 -0.4661
 2345TIP3    H128526   6.650   0.686   1.991 -2.9043  1.3508  0.1048
 2345TIP3    H228527   6.689   0.636   2.128 -0.0480  1.9267 -0.4440
 2346TIP3   OH228528   1.115   6.107   3.783 -0.2614 -0.0448 -0.2390
 2346TIP3    H128529   1.081   6.092   3.694 -2.8318  0.4962  0.5688
 2346TIP3    H228530   1.155   6.194   3.778 -2.7365  1.2030 -0.3665
 2347TIP3   OH228531   2.241   3.117   2.938  0.0108 -0.4686  0.5064
 2347TIP3    H128532   2.271   3.044   2.884 -0.8500 -1.2330  1.0374
 2347TIP3    H228533   2.316   3.177   2.941  0.5602 -1.0927 -0.3393
 2348TIP3   OH228534   1.838   3.193   1.686 -0.0119  0.3438  0.2738
 2348TIP3    H128535   1.861   3.120   1.744  0.1233 -1.8455 -2.3319
 2348TIP3    H228536   1.742   3.194   1.687 -0.0240 -0.2344 -0.0857
 2349TIP3   OH228537   0.988   4.701   0.080 -0.2575 -0.0765  0.6991
 2349TIP3    H128538   0.938   4.781   0.094 -0.3634  0.1360 -0.6892
 2349TIP3    H228539   0.933   4.648   0.022  0.3548 -0.6061  0.5910
 2350TIP3   OH228540   4.014   6.755  12.911  0.0153 -0.0549  0.0011
 2350TIP3    H128541   4.095   6.804  12.895  0.1572  0.1468  1.2602
 2350TIP3    H228542   4.011   6.689  12.841  0.8670  0.4304 -0.5025
 2351TIP3   OH228543   0.265   6.026  16.581 -0.1104  0.1201  0.1044
 2351TIP3    H128544   0.343   5.970  16.581 -0.3722 -0.2541  1.0129
 2351TIP3    H228545   0.290   6.102  16.634 -0.6846 -0.4819  1.2755
 2352TIP3   OH228546   6.223   5.626  14.481  0.4220 -0.3416 -0.2910
 2352TIP3    H128547   6.160   5.659  14.417  0.0760 -0.0024  0.2175
 2352TIP3    H228548   6.182   5.643  14.566  1.1230 -0.2869  0.0400
 2353TIP3   OH228549   6.628   3.684   0.889 -0.0168 -0.7637  0.0491
 2353TIP3    H128550   6.699   3.711   0.947  0.0935  0.1997 -0.5060
 2353TIP3    H228551   6.560   3.652   0.948 -0.2953  1.0774  0.8038
 2354TIP3   OH228552   2.153   4.342  14.945  0.7583  0.1290 -0.3651
 2354TIP3    H128553   2.229   4.285  14.960  0.3820 -0.0670  0.8297
 2354TIP3    H228554   2.165   4.372  14.855  3.0822  1.3184  0.2513
 2355TIP3   OH228555   1.091   2.136   1.858 -0.1750 -0.4653 -0.3668
 2355TIP3    H128556   1.011   2.086   1.875 -0.0464 -0.3587  0.6334
 2355TIP3    H228557   1.085   2.159   1.766 -1.5611 -0.0215 -0.1957
 2356TIP3   OH228558   5.599   4.097  14.215  0.1251 -0.7915  0.5765
 2356TIP3    H128559   5.585   4.071  14.124 -2.2494  0.3953  0.5531
 2356TIP3    H228560   5.536   4.045  14.265  0.6518 -0.6322  1.4275
 2357TIP3   OH228561   1.009   2.069   5.215  0.1035 -0.4415 -0.2901
 2357TIP3    H128562   1.082   2.064   5.277  0.8739 -2.2512 -1.2554
 2357TIP3    H228563   0.952   1.996   5.238 -1.2513  0.7499  0.2259
 2358TIP3   OH228564   0.295   2.364   2.289 -0.0939  0.1996 -0.4830
 2358TIP3    H128565   0.217   2.383   2.342 -0.3363  0.8256 -1.0617
 2358TIP3    H228566   0.337   2.291   2.335 -0.6588  0.2952  0.2065
 2359TIP3   OH228567   3.989   2.750   4.451 -0.5748  0.5446  0.2797
 2359TIP3    H128568   3.898   2.781   4.448 -0.6189  0.3521 -1.6211
 2359TIP3    H228569   3.982   2.655   4.447 -0.3003  0.4913  0.9608
 2360TIP3   OH228570   4.808   4.521  16.813 -0.0241  0.1900 -0.3138
 2360TIP3    H128571   4.849   4.525  16.899 -0.6027  0.4613 -0.0412
 2360TIP3    H228572   4.813   4.429  16.787 -0.4140 -0.0031  0.2896
 2361TIP3   OH228573   2.247   5.220   4.911 -0.4769  0.1511  0.1242
 2361TIP3    H128574   2.237   5.314   4.894 -0.7474  0.7972  3.3049
 2361TIP3    H228575   2.338   5.211   4.938  0.2528 -1.0114 -2.3849
 2362TIP3   OH228576   4.700   0.002   5.938  0.4769  0.0713 -0.3278
 2362TIP3    H128577   4.608  -0.007   5.966  0.4193  0.5118 -0.3690
 2362TIP3    H228578   4.750  -0.042   6.007  0.0953 -2.6023 -1.6166
 2363TIP3   OH228579   0.568   4.658   6.467 -0.5039  0.0071  0.1902
 2363TIP3    H128580   0.547   4.576   6.423 -1.8461  0.1821  0.4704
 2363TIP3    H228581   0.516   4.724   6.420  0.0094  0.5950  0.4245
 2364TIP3   OH228582   1.563   6.298  16.794  0.1932 -0.6677  0.0130
 2364TIP3    H128583   1.653   6.328  16.804  0.1288 -0.2133 -0.6747
 2364TIP3    H228584   1.567   6.230  16.726 -0.0420 -0.3138 -0.3640
 2365TIP3   OH228585   3.902   5.734  13.922  0.2676  0.1474 -0.1355
 2365TIP3    H128586   3.962   5.684  13.868  0.0044  0.7636 -1.0296
 2365TIP3    H228587   3.890   5.816  13.874 -0.7072  0.3289  0.3925
 2366TIP3   OH228588   4.714   0.047  12.794 -0.3752 -0.5983 -0.4738
 2366TIP3    H128589   4.713  -0.015  12.722  3.1396  0.1722 -1.3592
 2366TIP3    H228590   4.691  -0.005  12.871  0.7985 -2.6474 -1.4213
 2367TIP3   OH228591   6.044   1.263  12.618  0.0258 -0.4748 -0.4259
 2367TIP3    H128592   6.065   1.356  12.611 -3.7383  0.4309 -1.6181
 2367TIP3    H228593   6.067   1.227  12.532  2.3052 -0.9609  0.3104
 2368TIP3   OH228594   2.955   3.327  14.031  0.2451 -0.0423 -0.1738
 2368TIP3    H128595   2.933   3.262  14.097 -1.6646  1.2901  0.5882
 2368TIP3    H228596   2.979   3.405  14.082  2.5516 -0.0983 -1.0558
 2369TIP3   OH228597   6.069   6.829  11.497  0.3389  0.1289  0.0467
 2369TIP3    H128598   6.045   6.897  11.435  0.1012 -0.2847 -0.3268
 2369TIP3    H228599   6.029   6.856  11.580  0.2809  0.4587 -0.0878
 2370TIP3   OH228600   4.286   4.055   5.999 -0.1124 -0.0727 -0.1482
 2370TIP3    H128601   4.374   4.091   5.989 -0.6598  1.0606 -1.2171
 2370TIP3    H228602   4.275   4.044   6.094  0.5045  1.5703  0.1535
 2371TIP3   OH228603   6.108   2.340  10.437  0.1103 -0.3798 -0.5361
 2371TIP3    H128604   6.039   2.274  10.425  0.0022 -1.0526  2.8373
 2371TIP3    H228605   6.182   2.291  10.473  0.1025  1.2307  1.8828
 2372TIP3   OH228606   3.099   3.129  14.362 -0.0437  0.1757  0.6549
 2372TIP3    H128607   3.145   3.102  14.441 -0.8335  1.4544  1.5933
 2372TIP3    H228608   3.163   3.184  14.316  0.0935  0.2241  0.8997
 2373TIP3   OH228609   5.187   6.181  13.331  0.2596 -0.0496 -0.1674
 2373TIP3    H128610   5.209   6.153  13.242  0.8560  0.4896 -0.2046
 2373TIP3    H228611   5.120   6.120  13.360 -0.6118  0.3178 -1.3238
 2374TIP3   OH228612   1.553   5.482  17.068  0.0687 -0.0931 -0.2291
 2374TIP3    H128613   1.616   5.441  17.008 -0.2580  2.5494 -2.5962
 2374TIP3    H228614   1.605   5.545  17.118 -0.1817 -0.0682 -0.0002
 2375TIP3   OH228615   6.644   1.484   6.323 -0.1278  0.0979  0.0870
 2375TIP3    H128616   6.554   1.501   6.295 -0.0930  0.3390  0.1147
 2375TIP3    H228617   6.640   1.401   6.370 -0.0717 -0.6626 -1.2094
 2376TIP3   OH228618   0.787   4.751  13.114  0.1851  0.1069 -0.5740
 2376TIP3    H128619   0.714   4.812  13.115  0.8872  1.0241 -1.7280
 2376TIP3    H228620   0.795   4.720  13.204 -2.6594 -1.3224 -0.7251
 2377TIP3   OH228621   6.815   1.234   3.765 -0.4687 -0.1795 -0.0565
 2377TIP3    H128622   6.768   1.275   3.838 -1.1637 -0.7353 -0.1826
 2377TIP3    H228623   6.746   1.199   3.708  0.0609  0.3176 -1.0314
 2378TIP3   OH228624   6.137   4.310   0.140  0.7550 -0.7522 -0.6956
 2378TIP3    H128625   6.214   4.262   0.109  0.4516 -1.0553 -0.9986
 2378TIP3    H228626   6.066   4.278   0.084  0.6505  0.4827 -1.2989
 2379TIP3   OH228627   0.837   3.503  14.122 -0.1748 -0.4962  0.1499
 2379TIP3    H128628   0.824   3.585  14.073 -0.3950  0.1924  1.3336
 2379TIP3    H228629   0.749   3.466  14.130  0.0317 -1.3909 -1.2334
 2380TIP3   OH228630   5.161   0.256   1.313  0.2849 -0.4742  0.0766
 2380TIP3    H128631   5.159   0.312   1.236  0.7079  0.2523  0.5833
 2380TIP3    H228632   5.225   0.188   1.291  2.0851  0.9707  0.5971
 2381TIP3   OH228633   0.345   1.609   0.275 -0.0612  0.1526  0.5097
 2381TIP3    H128634   0.440   1.598   0.269  0.1723  2.0597 -0.3586
 2381TIP3    H228635   0.334   1.700   0.303 -1.6122  0.5619 -1.1974
 2382TIP3   OH228636   6.645   1.783  16.010  0.4284 -0.3129 -0.5156
 2382TIP3    H128637   6.627   1.755  15.920  3.7769 -2.0300 -0.8012
 2382TIP3    H228638   6.568   1.755  16.059 -0.4429 -1.5393 -2.4510
 2383TIP3   OH228639   3.263   3.662  11.742  0.2561  0.4070  0.1848
 2383TIP3    H128640   3.283   3.651  11.649 -0.2349 -2.1313  0.2821
 2383TIP3    H228641   3.177   3.703  11.744  0.6412  1.2626 -0.4488
 2384TIP3   OH228642   3.709   6.636  14.296  0.0096  0.2838  0.4731
 2384TIP3    H128643   3.703   6.543  14.317  1.2987  0.1874  0.5012
 2384TIP3    H228644   3.658   6.646  14.215  0.3953 -0.5864  0.1073
 2385TIP3   OH228645   0.076   4.893  13.986  0.3283 -0.1170 -0.7726
 2385TIP3    H128646  -0.016   4.870  13.999  0.3056  0.4973  0.2884
 2385TIP3    H228647   0.125   4.830  14.039  0.3164  1.4436  1.2620
 2386TIP3   OH228648   4.328   3.220  14.578  0.2726 -0.3456  0.8876
 2386TIP3    H128649   4.369   3.246  14.496  0.1420 -0.3107  0.8324
 2386TIP3    H228650   4.365   3.279  14.644 -0.8809  0.7614  0.5796
 2387TIP3   OH228651   4.155   2.659  12.874  0.8321  0.0471 -0.1316
 2387TIP3    H128652   4.147   2.682  12.967 -0.1240 -1.0367  0.0850
 2387TIP3    H228653   4.248   2.670  12.854  0.7825  2.0058  0.4675
 2388TIP3   OH228654   6.648   5.013   3.266 -0.2049 -0.0078  0.3988
 2388TIP3    H128655   6.583   4.943   3.266 -1.9431  1.5293  0.5690
 2388TIP3    H228656   6.678   5.018   3.357 -0.5680 -0.0824  0.5227
 2389TIP3   OH228657   5.296   3.183   2.133 -0.0271  0.4362 -0.2167
 2389TIP3    H128658   5.372   3.185   2.191 -1.2701  1.6544  1.4607
 2389TIP3    H228659   5.317   3.116   2.068  1.5405 -0.8272  1.5023
 2390TIP3   OH228660   2.853   0.986   5.817 -0.3984 -0.0957 -0.1451
 2390TIP3    H128661   2.883   1.070   5.851 -1.2370 -0.1232  0.6895
 2390TIP3    H228662   2.825   1.005   5.727  0.3832  0.2890 -0.3206
 2391TIP3   OH228663   1.032   3.682   0.867 -0.0292 -0.2216  0.1540
 2391TIP3    H128664   1.084   3.718   0.795  0.1250  0.7468  0.7406
 2391TIP3    H228665   1.077   3.601   0.891 -0.6433 -1.0889 -1.4844
 2392TIP3   OH228666   5.035   0.248   2.424  0.1687 -0.0059  0.1012
 2392TIP3    H128667   5.064   0.313   2.359 -1.3694  1.0564  0.4272
 2392TIP3    H228668   5.081   0.168   2.399 -1.2620 -0.0050 -3.1027
 2393TIP3   OH228669   0.004   4.667   1.800 -0.2040 -0.2159  0.1286
 2393TIP3    H128670  -0.013   4.591   1.855 -1.8673 -0.4507 -0.6470
 2393TIP3    H228671  -0.041   4.648   1.718 -1.1942  1.8470  0.1339
 2394TIP3   OH228672   5.016   4.492   3.806 -0.4587 -0.4106 -0.4323
 2394TIP3    H128673   5.068   4.561   3.846  1.1341 -2.1039  0.5596
 2394TIP3    H228674   4.962   4.457   3.877  0.5459 -1.7778 -0.3047
 2395TIP3   OH228675   5.558   3.703   2.838 -0.0009 -0.3028 -0.3463
 2395TIP3    H128676   5.614   3.739   2.908  1.0856  0.3395 -1.5033
 2395TIP3    H228677   5.618   3.655   2.781 -0.5718  0.5544 -1.7272
 2396TIP3   OH228678   3.408   3.833  16.777 -0.0798 -0.3407 -0.1392
 2396TIP3    H128679   3.407   3.928  16.768 -0.7150 -0.2581  0.6861
 2396TIP3    H228680   3.486   3.815  16.829  0.0613 -0.2758 -0.3275
 2397TIP3   OH228681   3.640   3.062   2.022 -0.1417  0.2513 -0.0684
 2397TIP3    H128682   3.655   2.988   1.964  1.9823  0.6846 -0.1370
 2397TIP3    H228683   3.616   3.022   2.106  2.8945 -0.6928  0.4619
 2398TIP3   OH228684   2.389   3.338   4.472 -0.1158  0.0000  0.4729
 2398TIP3    H128685   2.434   3.256   4.452  0.5684 -0.2663  2.8670
 2398TIP3    H228686   2.356   3.368   4.387  0.9122 -1.9619 -0.6927
 2399TIP3   OH228687   5.438   2.118   2.044 -0.3251  0.3727 -0.8040
 2399TIP3    H128688   5.357   2.070   2.032  0.2544  0.0854 -4.9233
 2399TIP3    H228689   5.414   2.192   2.100 -2.9137 -0.7502 -0.3046
 2400TIP3   OH228690   4.414   1.101   3.727 -0.0336 -0.8070  0.4707
 2400TIP3    H128691   4.339   1.112   3.786  0.8305 -2.8189  2.0644
 2400TIP3    H228692   4.478   1.166   3.757 -0.2476 -0.6733  0.6372
 2401TIP3   OH228693   4.561   0.109  13.319 -0.0946  0.3636 -0.5513
 2401TIP3    H128694   4.475   0.104  13.276  0.5844  0.0407 -1.9417
 2401TIP3    H228695   4.566   0.029  13.371 -0.2642 -0.0995 -1.2243
 2402TIP3   OH228696   1.195   3.232  17.054  0.0158  0.2560  0.2759
 2402TIP3    H128697   1.218   3.320  17.084  0.7718 -0.0640  0.6629
 2402TIP3    H228698   1.254   3.215  16.981 -0.6629  0.3644 -0.3132
 2403TIP3   OH228699   0.921   3.057   0.747  0.2588 -0.0750  0.0466
 2403TIP3    H128700   0.852   3.026   0.806  0.6352  1.2488  1.2219
 2403TIP3    H228701   0.876   3.070   0.663 -0.1752 -2.4614 -0.1610
 2404TIP3   OH228702   2.510   2.337   5.443  0.2174  0.6660 -0.0217
 2404TIP3    H128703   2.601   2.367   5.451  0.8429 -0.8332 -1.1005
 2404TIP3    H228704   2.503   2.267   5.508  0.4283 -0.5081 -1.2362
 2405TIP3   OH228705   3.181   1.772   0.798 -0.2836 -0.5106 -0.0691
 2405TIP3    H128706   3.116   1.804   0.734 -2.4851 -0.6068  1.9702
 2405TIP3    H228707   3.130   1.755   0.877  2.5144  1.2513  2.3356
 2406TIP3   OH228708   5.411   2.670  15.997 -0.0038  0.1868 -0.5333
 2406TIP3    H128709   5.350   2.738  15.971  0.0713  0.1861 -0.7119
 2406TIP3    H228710   5.360   2.589  15.992 -0.2040  0.2713  0.0526
 2407TIP3   OH228711   1.467   3.673  11.447  0.4840 -0.6156 -0.1338
 2407TIP3    H128712   1.405   3.601  11.434  1.4362 -1.4595 -0.0636
 2407TIP3    H228713   1.540   3.653  11.389  0.6629  0.4279 -0.2858
 2408TIP3   OH228714   5.636   1.576   0.806 -0.1112  0.2109 -0.3965
 2408TIP3    H128715   5.646   1.496   0.755  0.8572  0.9470 -1.4236
 2408TIP3    H228716   5.726   1.609   0.815 -0.6733  2.5639 -2.3311
 2409TIP3   OH228717   0.634   0.963  16.829 -0.1801  0.3376  0.6014
 2409TIP3    H128718   0.545   0.942  16.800 -0.3780  2.4399 -0.4917
 2409TIP3    H228719   0.676   0.878  16.841 -2.1137 -0.6870  0.4213
 2410TIP3   OH228720   6.167   1.801  14.154 -0.4887  0.8376  0.2455
 2410TIP3    H128721   6.105   1.789  14.226  1.7287  1.7034  2.4576
 2410TIP3    H228722   6.135   1.880  14.109 -2.1676  0.0290 -0.0559
 2411TIP3   OH228723   3.198   1.903  12.714 -0.0130  1.0436  0.2183
 2411TIP3    H128724   3.237   1.818  12.732 -2.1439 -0.4896 -1.8123
 2411TIP3    H228725   3.200   1.911  12.618  0.8209  3.6647  0.3711
 2412TIP3   OH228726   3.490   5.832  14.365 -0.2921 -0.4622 -0.9993
 2412TIP3    H128727   3.523   5.866  14.282  0.5010  0.5741 -0.2951
 2412TIP3    H228728   3.560   5.776  14.398  0.5287  1.1401  0.1397
 2413TIP3   OH228729   3.314   4.555   1.399 -0.2296  0.1006 -0.3778
 2413TIP3    H128730   3.383   4.603   1.444 -0.3997 -0.2564  0.2642
 2413TIP3    H228731   3.232   4.591   1.434 -0.3749  0.3891 -0.9960
 2414TIP3   OH228732   0.789   6.501   3.882 -0.1371  0.0758 -0.2674
 2414TIP3    H128733   0.706   6.469   3.917  0.7213 -0.6621  1.2387
 2414TIP3    H228734   0.821   6.429   3.827 -1.3745  1.1428 -2.5085
 2415TIP3   OH228735   2.673   1.603  14.342  0.0491  0.5488 -0.4183
 2415TIP3    H128736   2.654   1.626  14.433  1.1395 -0.7690  0.1749
 2415TIP3    H228737   2.764   1.574  14.343 -0.1353 -0.1569 -1.7940
 2416TIP3   OH228738   6.731   1.637   5.024 -0.1722 -0.0185  0.1012
 2416TIP3    H128739   6.786   1.576   4.975 -1.5889 -1.9452  0.7829
 2416TIP3    H228740   6.773   1.643   5.110  0.2141  0.3367 -0.1088
 2417TIP3   OH228741   6.191   6.562  17.037 -1.1282  0.6220 -0.3708
 2417TIP3    H128742   6.142   6.595  17.113  0.6492  0.8965  0.7095
 2417TIP3    H228743   6.150   6.478  17.017 -1.9208  0.7553  0.6103
 2418TIP3   OH228744   1.019   6.487   0.607 -0.7022  0.4799 -0.1442
 2418TIP3    H128745   1.046   6.440   0.528  1.8025 -0.9034  1.4333
 2418TIP3    H228746   1.051   6.434   0.679 -0.4197  3.1001  1.8001
 2419TIP3   OH228747   6.735   6.063  13.232 -0.4194  0.1698  0.3221
 2419TIP3    H128748   6.690   6.100  13.156 -1.4707  1.4598  1.5244
 2419TIP3    H228749   6.748   5.971  13.209 -2.2336  0.1251 -0.7349
 2420TIP3   OH228750   2.675   2.092  11.232  0.5017  0.9830 -0.4480
 2420TIP3    H128751   2.592   2.101  11.279  1.1712 -0.3271  1.0875
 2420TIP3    H228752   2.650   2.071  11.142 -0.8444  4.6734 -1.1332
 2421TIP3   OH228753   2.452   2.248  11.384  0.0510  0.2705  0.3531
 2421TIP3    H128754   2.401   2.309  11.437 -0.5004  0.8597 -0.8336
 2421TIP3    H228755   2.399   2.168  11.381 -0.2126  0.4553  0.1540
 2422TIP3   OH228756   1.075   0.354   2.029 -0.0374  0.1890  0.4245
 2422TIP3    H128757   1.153   0.391   2.071  0.7168  1.5590 -2.0020
 2422TIP3    H228758   1.004   0.372   2.091  1.5006 -1.1614  2.7404
 2423TIP3   OH228759   2.407   0.711   4.699  0.7419  0.1663  0.4963
 2423TIP3    H128760   2.364   0.796   4.705  0.4055 -0.0591  1.5366
 2423TIP3    H228761   2.467   0.709   4.774  1.1721 -0.2850  0.1471
 2424TIP3   OH228762   6.788   4.585   1.549 -0.3571 -0.7891  0.1583
 2424TIP3    H128763   6.835   4.503   1.563  2.3575  0.3854 -1.3015
 2424TIP3    H228764   6.721   4.563   1.484 -0.2299 -2.0040  0.4136
 2425TIP3   OH228765   0.371   4.179   5.323  0.5915  0.5276  0.2374
 2425TIP3    H128766   0.315   4.104   5.343 -0.0424  1.0265  0.3588
 2425TIP3    H228767   0.403   4.208   5.408  2.4848 -0.8326  0.0503
 2426TIP3   OH228768   0.615   2.752  15.412  0.5860  0.5580  0.1430
 2426TIP3    H128769   0.651   2.840  15.403  0.3234  0.4560 -3.2235
 2426TIP3    H228770   0.527   2.765  15.446  0.7901  1.5582  0.3061
 2427TIP3   OH228771   4.964   3.724  14.032  0.5954  0.0127  0.2917
 2427TIP3    H128772   5.027   3.655  14.053  1.9911  0.6368 -1.5658
 2427TIP3    H228773   4.913   3.688  13.959 -2.1413 -0.9700  2.5270
 2428TIP3   OH228774   4.348   4.332   1.276  0.3293 -0.6115  0.1446
 2428TIP3    H128775   4.404   4.340   1.199  0.3489 -0.2667  0.1922
 2428TIP3    H228776   4.285   4.404   1.268  0.6395 -0.2631  0.6987
 2429TIP3   OH228777   1.601   4.713   2.026  0.3546  0.3685  0.1213
 2429TIP3    H128778   1.521   4.676   2.062  1.4846 -1.1522  1.1997
 2429TIP3    H228779   1.624   4.784   2.086  0.5545 -0.1029  0.6031
 2430TIP3   OH228780   2.455   0.530   3.600 -0.4062  0.1677 -0.1989
 2430TIP3    H128781   2.418   0.445   3.621  0.4987 -0.4796 -1.1368
 2430TIP3    H228782   2.536   0.511   3.553  2.7168  1.3942  4.0394
 2431TIP3   OH228783   3.613   3.617  14.246  0.1379  0.3788 -0.0992
 2431TIP3    H128784   3.607   3.694  14.303 -2.7270 -0.2429  0.6298
 2431TIP3    H228785   3.577   3.545  14.298  1.5535 -1.2274 -1.2015
 2432TIP3   OH228786   0.526   3.104  15.215  0.3441  0.1232  0.0463
 2432TIP3    H128787   0.597   3.112  15.152 -0.1875 -0.8274 -0.7152
 2432TIP3    H228788   0.450   3.079  15.162 -0.3920  0.4131  0.9278
 2433TIP3   OH228789   3.774   5.571   6.630  0.2464  0.2339  0.0601
 2433TIP3    H128790   3.716   5.546   6.557 -0.9158  0.6320  0.8237
 2433TIP3    H228791   3.787   5.665   6.618  1.1759  0.0632 -0.3918
 2434TIP3   OH228792   5.899   1.144  13.014  0.4596 -0.1260  0.2376
 2434TIP3    H128793   5.962   1.074  12.998 -0.9153 -1.5129  0.7426
 2434TIP3    H228794   5.917   1.173  13.103 -1.0073 -2.0649  1.2343
 2435TIP3   OH228795   2.924   1.921  16.608 -0.0193  0.0401 -0.2686
 2435TIP3    H128796   2.997   1.901  16.550  0.6893 -2.1345  1.2679
 2435TIP3    H228797   2.955   1.994  16.662  1.4038 -1.3425  0.8879
 2436TIP3   OH228798   3.338   1.579  13.000 -0.1623  0.2287  0.5189
 2436TIP3    H128799   3.311   1.487  13.002  1.9537 -0.4486  2.3863
 2436TIP3    H228800   3.261   1.628  13.029 -1.1398 -0.9769  0.0430
 2437TIP3   OH228801   5.818   5.968   0.438  0.3477  0.1925  0.2623
 2437TIP3    H128802   5.826   6.049   0.388  2.0745  0.0010  0.1731
 2437TIP3    H228803   5.734   5.931   0.410 -0.3402  1.8046  0.1210
 2438TIP3   OH228804   5.974   1.291   0.933 -0.0169 -0.2066  0.5802
 2438TIP3    H128805   6.057   1.294   0.981 -0.7793 -0.7081  1.9572
 2438TIP3    H228806   5.915   1.241   0.989 -0.9052 -0.9208 -0.9438
 2439TIP3   OH228807   3.226   5.313  13.973 -1.2408  0.2321  0.3651
 2439TIP3    H128808   3.179   5.358  13.904 -1.4081  1.3489  1.1849
 2439TIP3    H228809   3.254   5.382  14.033 -0.4460 -0.6283  1.0290
 2440TIP3   OH228810   1.798   2.070   5.499 -0.1324  0.3667  0.3222
 2440TIP3    H128811   1.831   2.089   5.587 -0.8498  0.8584  0.4959
 2440TIP3    H228812   1.737   1.997   5.511  2.4695 -2.0780 -0.3175
 2441TIP3   OH228813   0.915   0.951   5.895  0.4254 -0.0329 -0.3002
 2441TIP3    H128814   0.834   0.934   5.847  1.5677 -2.1373 -1.6464
 2441TIP3    H228815   0.900   0.914   5.981 -0.7004  1.4016  0.1733
 2442TIP3   OH228816   5.133   4.162   3.636  0.1201  0.3455  0.0699
 2442TIP3    H128817   5.186   4.083   3.646  0.1324  0.2282 -0.7837
 2442TIP3    H228818   5.130   4.176   3.541 -1.0314  0.5874  0.1331
 2443TIP3   OH228819   5.139   0.308  14.161 -0.5087 -0.6276 -0.2914
 2443TIP3    H128820   5.084   0.318  14.084 -0.4901 -0.0068 -0.2248
 2443TIP3    H228821   5.083   0.333  14.234 -0.7682 -1.9352 -0.0139
 2444TIP3   OH228822   2.493   2.554   2.540 -0.9073  0.6637 -0.3743
 2444TIP3    H128823   2.515   2.596   2.456 -1.7274  0.8919 -0.4844
 2444TIP3    H228824   2.496   2.626   2.604 -0.8266  0.5975 -0.3038
 2445TIP3   OH228825   6.409   1.081   4.519  0.1359  0.5422  0.2607
 2445TIP3    H128826   6.499   1.072   4.551  0.4955  2.0804 -0.2198
 2445TIP3    H228827   6.411   1.042   4.432  0.2255  0.1827  0.4221
 2446TIP3   OH228828   4.122   3.159  11.983 -0.2537  0.2292  0.2746
 2446TIP3    H128829   4.159   3.101  12.049 -0.2378  0.3575  0.3807
 2446TIP3    H228830   4.174   3.143  11.904  0.3268  0.7278  0.5440
 2447TIP3   OH228831   4.007   2.799   4.767  0.0378 -0.8409  0.0194
 2447TIP3    H128832   4.049   2.736   4.708 -0.0460 -0.5943 -0.3009
 2447TIP3    H228833   3.927   2.826   4.722 -0.3693 -1.1548  0.5415
 2448TIP3   OH228834   1.943   0.822  12.352  0.6184  0.4643  0.4779
 2448TIP3    H128835   1.856   0.810  12.388 -0.0134  1.9605 -0.4302
 2448TIP3    H228836   1.999   0.762  12.401 -0.7962 -0.0254  1.5324
 2449TIP3   OH228837   5.586   1.767  14.085 -0.6649  0.2759 -0.2669
 2449TIP3    H128838   5.542   1.770  14.000 -1.0373 -0.2053 -0.0962
 2449TIP3    H228839   5.539   1.700  14.134 -1.0406  1.1890  0.6456
 2450TIP3   OH228840   5.280   0.697   1.665  0.0644 -0.0573 -0.7150
 2450TIP3    H128841   5.338   0.658   1.731  1.3783 -0.5988 -2.1144
 2450TIP3    H228842   5.334   0.699   1.586 -1.5235  0.4139 -1.8098
 2451TIP3   OH228843   6.709   1.743   2.402  0.4152  0.3329 -0.7858
 2451TIP3    H128844   6.644   1.783   2.459  1.6698 -0.6186  1.4331
 2451TIP3    H228845   6.671   1.658   2.377  0.9822 -0.4902  1.0048
 2452TIP3   OH228846   4.447   2.047   0.080  0.4008 -0.6826 -0.2899
 2452TIP3    H128847   4.439   2.121   0.140 -0.3653 -1.7527  0.9854
 2452TIP3    H228848   4.413   2.080  -0.004 -2.7834 -0.3819  0.9709
 2453TIP3   OH228849   1.043   6.126  16.875  0.0025  0.6738 -0.4401
 2453TIP3    H128850   1.116   6.185  16.894  0.5389  0.3775 -1.5109
 2453TIP3    H228851   1.061   6.049  16.929  0.5233  0.5737 -0.7475
 2454TIP3   OH228852   6.689   6.269   2.358 -0.9302  0.1573  0.2946
 2454TIP3    H128853   6.598   6.260   2.387 -0.6787 -0.9598  0.7677
 2454TIP3    H228854   6.736   6.198   2.402  0.4726  1.6081  1.2255
 2455TIP3   OH228855   4.696   5.217   1.688  0.5218 -0.3812 -0.0568
 2455TIP3    H128856   4.622   5.198   1.747  0.1156 -0.2042 -0.5003
 2455TIP3    H228857   4.769   5.236   1.747  0.1917 -0.4819  0.3936
 2456TIP3   OH228858   6.125   1.098  15.845  0.1030 -0.3943 -0.0322
 2456TIP3    H128859   6.206   1.145  15.824 -1.0579  1.0177 -1.5802
 2456TIP3    H228860   6.094   1.138  15.927  1.0963 -1.1747  0.7550
 2457TIP3   OH228861   6.816   0.673   1.277 -0.0647  0.8617  0.0390
 2457TIP3    H128862   6.895   0.619   1.272  0.7223  1.6879  2.1960
 2457TIP3    H228863   6.818   0.709   1.366 -4.1385 -1.0157  1.0993
 2458TIP3   OH228864   1.693   4.562  14.444  0.4315 -0.1550  0.2637
 2458TIP3    H128865   1.754   4.545  14.515 -0.2043 -0.0893  0.8388
 2458TIP3    H228866   1.609   4.578  14.488 -1.0953 -4.5537 -0.5828
 2459TIP3   OH228867   0.037   6.307   6.223 -0.1766 -0.0642 -0.2639
 2459TIP3    H128868  -0.014   6.227   6.230  1.7019 -1.4252 -1.1042
 2459TIP3    H228869   0.042   6.324   6.129 -1.1453  1.4793 -0.0670
 2460TIP3   OH228870   5.529   1.155  16.108 -0.1681 -0.0028 -0.6395
 2460TIP3    H128871   5.554   1.064  16.123 -1.1738 -0.2475 -0.3620
 2460TIP3    H228872   5.458   1.172  16.171  0.1168  1.0263 -0.5654
 2461TIP3   OH228873   1.721   5.642  13.111  0.1375  0.3701  0.1846
 2461TIP3    H128874   1.654   5.633  13.179  0.4558  2.3402  0.8473
 2461TIP3    H228875   1.800   5.669  13.159  0.8121  0.2301 -0.8128
 2462TIP3   OH228876   4.254   2.106   2.518 -0.6545 -0.3938  0.1627
 2462TIP3    H128877   4.301   2.100   2.601 -0.4959 -0.3109  0.0776
 2462TIP3    H228878   4.236   2.016   2.494  1.7007 -0.5862 -1.1034
 2463TIP3   OH228879   1.058   0.607   1.831  0.3298 -1.3230  0.2030
 2463TIP3    H128880   1.130   0.592   1.769 -0.4047 -0.1821 -0.9796
 2463TIP3    H228881   1.090   0.677   1.888 -0.4102  0.4272 -1.4100
 2464TIP3   OH228882   3.794   5.954  16.424  0.0744  0.3518 -0.0378
 2464TIP3    H128883   3.866   5.980  16.367  0.9591  0.2522  1.0170
 2464TIP3    H228884   3.822   5.871  16.463 -0.8553  0.0228 -0.0421
 2465TIP3   OH228885   3.437   6.792  16.596  0.3055  0.3846  0.1065
 2465TIP3    H128886   3.441   6.825  16.686  1.0154 -0.2351  0.3129
 2465TIP3    H228887   3.385   6.857  16.549  2.0164  2.0578  0.4022
 2466TIP3   OH228888   4.608   5.095  11.004  0.1628 -0.0139 -0.6164
 2466TIP3    H128889   4.676   5.153  10.969  0.4072  1.7957  2.4897
 2466TIP3    H228890   4.531   5.151  11.013  0.3272 -0.0882  2.2207
 2467TIP3   OH228891   2.247   4.518   4.774 -0.5795  0.2300 -0.0055
 2467TIP3    H128892   2.308   4.523   4.701 -1.4645  1.0731 -0.7147
 2467TIP3    H228893   2.200   4.602   4.773 -0.9013  0.1014  1.2748
 2468TIP3   OH228894   1.389   2.593   3.997 -0.3471 -0.1903  0.6511
 2468TIP3    H128895   1.476   2.601   3.957 -1.4190  1.2484 -1.6452
 2468TIP3    H228896   1.394   2.645   4.077  0.9169 -0.1863  0.5885
 2469TIP3   OH228897   1.401   3.857   5.435  0.2435 -0.0433 -0.2292
 2469TIP3    H128898   1.387   3.781   5.492 -0.5844 -0.7752 -1.3710
 2469TIP3    H228899   1.344   3.925   5.473  0.3924 -0.2281  0.3409
 2470TIP3   OH228900   2.294   0.923   6.628  0.4694 -0.7109 -0.6996
 2470TIP3    H128901   2.277   0.836   6.665 -0.0387 -0.3811 -0.1293
 2470TIP3    H228902   2.210   0.968   6.635  0.0510 -0.9551 -3.2161
 2471TIP3   OH228903   5.969   6.054   1.218 -0.0673 -0.2942  0.2855
 2471TIP3    H128904   5.974   6.001   1.138  2.8982 -0.9152  0.7621
 2471TIP3    H228905   5.904   6.010   1.273  1.5964 -2.9648  0.2667
 2472TIP3   OH228906   0.248   3.879  11.524  0.4269 -0.0227  0.5044
 2472TIP3    H128907   0.264   3.842  11.437  1.1053  0.6987  0.3126
 2472TIP3    H228908   0.193   3.813  11.568 -2.3885  0.8458 -1.4269
 2473TIP3   OH228909   2.768   2.350  16.358 -0.2210  0.1634  0.2358
 2473TIP3    H128910   2.824   2.273  16.351 -0.5076 -0.3095  2.4523
 2473TIP3    H228911   2.825   2.419  16.392 -1.0432 -0.6101  3.5942
 2474TIP3   OH228912   1.348   1.547   1.079 -0.3841  0.0377  0.0744
 2474TIP3    H128913   1.359   1.452   1.068 -2.0828 -0.3303  1.2599
 2474TIP3    H228914   1.357   1.561   1.173 -0.6195  1.0064 -0.0418
 2475TIP3   OH228915   3.957   4.711   2.489 -0.8396 -0.3660  0.2699
 2475TIP3    H128916   4.008   4.646   2.441 -0.5419  1.0133 -1.3977
 2475TIP3    H228917   3.887   4.662   2.531  0.2706 -1.9380  0.3580
 2476TIP3   OH228918   5.758   6.518  10.948 -0.2176  0.1462  0.3043
 2476TIP3    H128919   5.674   6.479  10.922 -0.5415  0.4663  0.8252
 2476TIP3    H228920   5.822   6.482  10.887 -0.5412 -1.0259  0.6337
 2477TIP3   OH228921   1.485   1.699  15.121  0.2999  0.3161 -0.2767
 2477TIP3    H128922   1.540   1.634  15.077 -2.0897 -0.3752 -2.5592
 2477TIP3    H228923   1.412   1.648  15.157  0.1861  1.3701  1.0406
 2478TIP3   OH228924   5.910   3.665  13.743  0.1045  0.3958  0.1400
 2478TIP3    H128925   5.968   3.669  13.667  2.0591  0.4504  1.5444
 2478TIP3    H228926   5.954   3.604  13.803 -3.0162 -2.2532 -0.0226
 2479TIP3   OH228927   2.315   2.702   2.725 -0.0635 -0.1341 -0.8758
 2479TIP3    H128928   2.300   2.613   2.693  2.4779 -1.0183  0.1747
 2479TIP3    H228929   2.280   2.702   2.814  2.9682 -1.2473  0.4259
 2480TIP3   OH228930   2.351   2.044  10.857 -0.2563  0.1380 -0.1261
 2480TIP3    H128931   2.258   2.027  10.867  0.1042 -1.5054  0.8123
 2480TIP3    H228932   2.366   2.042  10.762 -1.1906  0.6034 -0.2884
 2481TIP3   OH228933   2.804   1.479  11.573 -0.3858  0.1020 -0.4031
 2481TIP3    H128934   2.787   1.525  11.655 -0.4493 -0.5534 -0.0516
 2481TIP3    H228935   2.759   1.532  11.507  1.3782  1.8065 -0.3351
 2482TIP3   OH228936   3.950   1.343  13.795  0.3369 -0.1293  0.1065
 2482TIP3    H128937   4.013   1.329  13.724 -0.2508  2.5978 -1.0720
 2482TIP3    H228938   3.865   1.346  13.752 -0.2914 -0.6199  1.2677
 2483TIP3   OH228939   5.851   0.059  12.409  0.1430  0.0923 -0.0321
 2483TIP3    H128940   5.763   0.032  12.436  0.4096 -0.8152 -0.0388
 2483TIP3    H228941   5.874  -0.001  12.338  0.0251  1.5192 -1.3404
 2484TIP3   OH228942   5.251   0.916  15.882 -0.3432  0.1318  0.4761
 2484TIP3    H128943   5.331   0.968  15.885 -1.0071  1.1864  0.4578
 2484TIP3    H228944   5.201   0.944  15.958 -0.3710 -1.0870  0.9287
 2485TIP3   OH228945   5.251   2.773   0.031 -0.5361  0.0322 -0.0438
 2485TIP3    H128946   5.207   2.753  -0.052 -2.7351 -0.6812  1.2337
 2485TIP3    H228947   5.218   2.859   0.055 -1.2307 -0.4962  0.9229
 2486TIP3   OH228948   6.545   0.626  16.437  0.0637  0.6345  0.3673
 2486TIP3    H128949   6.597   0.579  16.502  1.4309 -2.4289 -2.6145
 2486TIP3    H228950   6.455   0.623  16.470  0.7290 -0.5723  2.1785
 2487TIP3   OH228951   5.260   4.187  13.769 -0.5945  0.2185  0.1446
 2487TIP3    H128952   5.323   4.115  13.776 -1.9506 -1.0712 -0.5240
 2487TIP3    H228953   5.192   4.155  13.711 -1.7786  1.6613  0.6606
 2488TIP3   OH228954   1.577   0.130   5.782  0.1502 -0.0458  0.3074
 2488TIP3    H128955   1.542   0.161   5.698  0.2292 -0.9962 -0.0899
 2488TIP3    H228956   1.647   0.192   5.803 -1.7557  1.9673  1.1617
 2489TIP3   OH228957   3.238   4.126   4.800  0.2630 -0.0680  0.5210
 2489TIP3    H128958   3.266   4.085   4.882 -0.2990 -2.5523 -0.4404
 2489TIP3    H228959   3.146   4.102   4.791 -0.8381  3.4385  0.9745
 2490TIP3   OH228960   6.057   3.373  15.220  0.4320 -0.4847  0.3786
 2490TIP3    H128961   5.983   3.398  15.275  0.9089  1.6704  0.1265
 2490TIP3    H228962   6.125   3.347  15.282  0.5756  0.8171  0.7952
 2491TIP3   OH228963   4.649   3.812  15.518  0.4216  0.1217 -0.2658
 2491TIP3    H128964   4.624   3.903  15.503  0.5139 -0.1895 -2.8235
 2491TIP3    H228965   4.581   3.761  15.475  2.3116 -0.8591 -2.3078
 2492TIP3   OH228966   3.617   3.182   1.430  0.0633  0.4308 -0.4850
 2492TIP3    H128967   3.654   3.263   1.395  0.4037 -0.3172 -1.9154
 2492TIP3    H228968   3.552   3.212   1.494  1.4115  1.7978  0.3444
 2493TIP3   OH228969   6.779   1.470  12.893  0.5491  0.1828 -0.0368
 2493TIP3    H128970   6.687   1.484  12.916  0.5360  0.2331 -0.1216
 2493TIP3    H228971   6.825   1.543  12.935  0.6462 -0.2509  0.6399
 2494TIP3   OH228972   1.943   3.247  16.417 -0.2577 -0.0538  0.7557
 2494TIP3    H128973   1.947   3.341  16.433 -2.1711 -0.0276  1.3348
 2494TIP3    H228974   1.962   3.238  16.324 -1.6334  1.0855  0.3264
 2495TIP3   OH228975   4.772   6.833  13.153  0.0510  0.3510 -0.0503
 2495TIP3    H128976   4.685   6.864  13.177 -1.0190 -1.7645 -0.9444
 2495TIP3    H228977   4.774   6.742  13.182  2.5708  0.7236  1.3286
 2496TIP3   OH228978   3.392   4.183   6.096 -0.2272 -0.6300 -0.4711
 2496TIP3    H128979   3.416   4.132   6.173  0.7045 -0.6383 -0.7522
 2496TIP3    H228980   3.361   4.267   6.130  0.8015 -0.3830 -0.0962
 2497TIP3   OH228981   1.825   0.325   5.820 -0.3299  0.4174  0.7115
 2497TIP3    H128982   1.867   0.380   5.754 -1.1002  1.1859  0.8427
 2497TIP3    H228983   1.789   0.387   5.884 -0.1081 -0.2881  1.5482
 2498TIP3   OH228984   5.279   2.085   3.538 -0.0591  0.1620  0.2426
 2498TIP3    H128985   5.243   1.997   3.544 -0.6345  0.4413  1.1822
 2498TIP3    H228986   5.374   2.072   3.534 -0.1828 -0.5278 -0.8087
 2499TIP3   OH228987   3.561   5.338   4.533 -0.2655 -0.2417 -0.1412
 2499TIP3    H128988   3.567   5.394   4.456 -0.2405 -0.5441 -0.3607
 2499TIP3    H228989   3.534   5.397   4.604  0.4000  0.1770 -0.2238
 2500TIP3   OH228990   3.646   4.042   5.617  0.1828  0.0694  0.1263
 2500TIP3    H128991   3.559   4.052   5.579  0.2474 -0.8529 -0.2971
 2500TIP3    H228992   3.692   4.123   5.594 -0.5370  0.5445  0.3179
 2501TIP3   OH228993   4.899   5.924   4.666  0.3756 -0.5672 -0.3868
 2501TIP3    H128994   4.985   5.965   4.657 -0.5123  1.5424  0.1721
 2501TIP3    H228995   4.918   5.831   4.676  2.5048 -0.3154 -1.5316
 2502TIP3   OH228996   5.333   0.950  15.589  0.1145 -0.2013 -0.3524
 2502TIP3    H128997   5.375   1.033  15.566  1.1187 -0.6534 -0.1790
 2502TIP3    H228998   5.246   0.976  15.622  0.4873  0.7994 -0.1099
 2503TIP3   OH228999   4.207   0.693   2.520  0.0273  0.4481  0.3666
 2503TIP3    H129000   4.168   0.606   2.523 -2.5220  1.4883  0.3955
 2503TIP3    H229001   4.254   0.695   2.436  3.0900 -1.9797  1.8111
 2504TIP3   OH229002   5.745   1.215  10.874 -0.1038  0.5021  0.3189
 2504TIP3    H129003   5.693   1.281  10.919 -1.5588  1.1971 -2.2185
 2504TIP3    H229004   5.690   1.137  10.873 -0.2764  0.6284 -0.6165
 2505TIP3   OH229005   0.366   2.121   2.613 -0.4621 -0.0807  0.0259
 2505TIP3    H129006   0.360   2.091   2.704 -1.9865  0.0210 -0.0273
 2505TIP3    H229007   0.276   2.134   2.585 -0.0333 -0.2260 -1.5525
 2506TIP3   OH229008   6.222   2.071   0.060  0.6297  0.2840 -0.0490
 2506TIP3    H129009   6.201   2.156   0.100  0.4237 -0.5326  1.6388
 2506TIP3    H229010   6.290   2.035   0.115  2.3364  0.2722 -2.0351
 2507TIP3   OH229011   5.260   4.763   2.339  0.0646  0.0039  0.2096
 2507TIP3    H129012   5.182   4.815   2.356 -0.6291 -1.3306  1.2728
 2507TIP3    H229013   5.286   4.729   2.424  0.0967 -1.9030 -0.4977
 2508TIP3   OH229014   0.905   0.049   1.846  0.0042 -0.9362 -0.4428
 2508TIP3    H129015   0.984   0.086   1.806  0.7964 -2.7411 -0.6392
 2508TIP3    H229016   0.910   0.074   1.938 -0.9927  1.8529 -1.0463
 2509TIP3   OH229017   1.528   2.335  15.517 -0.0243 -0.4881  0.5022
 2509TIP3    H129018   1.581   2.387  15.456  1.2780  0.0363  2.0134
 2509TIP3    H229019   1.471   2.399  15.560 -0.5045 -0.7626  0.2846
 2510TIP3   OH229020   2.538   6.635  16.914  0.6701 -0.3132  0.1571
 2510TIP3    H129021   2.540   6.717  16.963  1.6314  1.1168 -2.1225
 2510TIP3    H229022   2.504   6.570  16.977 -0.6106  1.8966  1.8789
 2511TIP3   OH229023   2.687   0.892  13.713  0.3263 -0.1012  0.5501
 2511TIP3    H129024   2.598   0.904  13.679  0.2032  3.6630  1.7439
 2511TIP3    H229025   2.730   0.837  13.648 -2.0799  0.3267 -1.5555
 2512TIP3   OH229026   0.813   6.749   4.731 -0.8087 -0.0769  0.5484
 2512TIP3    H129027   0.862   6.690   4.789 -0.3922 -0.0838  0.1926
 2512TIP3    H229028   0.815   6.706   4.646  0.3239  0.8883  0.0565
 2513TIP3   OH229029   6.388   0.503  15.112 -0.6443 -0.2229 -0.5270
 2513TIP3    H129030   6.355   0.584  15.073 -1.4051 -0.2191  0.1119
 2513TIP3    H229031   6.477   0.524  15.139 -0.3356 -0.0240 -1.6428
 2514TIP3   OH229032   5.945   6.399  13.403 -0.1002 -0.3788  0.0953
 2514TIP3    H129033   5.856   6.407  13.368  0.2189  0.7382 -0.5081
 2514TIP3    H229034   5.985   6.329  13.351 -0.7176 -1.1211  0.5970
 2515TIP3   OH229035   0.919   2.329   4.564  0.5958  0.1083  1.2648
 2515TIP3    H129036   0.861   2.355   4.635  0.7404 -2.2912  2.3320
 2515TIP3    H229037   0.929   2.409   4.511 -1.8146  1.1921  2.3012
 2516TIP3   OH229038   2.754   2.627  13.865 -0.0295  0.3193 -0.2413
 2516TIP3    H129039   2.697   2.694  13.902 -0.0483 -0.4664  1.2163
 2516TIP3    H229040   2.739   2.632  13.771 -0.7490  1.6975 -0.0672
 2517TIP3   OH229041   1.046   3.252   2.773 -0.0152  0.1883  0.3829
 2517TIP3    H129042   1.099   3.282   2.847  1.4426 -0.0237 -0.5290
 2517TIP3    H229043   1.102   3.189   2.728 -1.3160 -0.5459 -0.2644
 2518TIP3   OH229044   3.758   4.652  15.855 -0.4953  0.0818 -0.5848
 2518TIP3    H129045   3.780   4.738  15.892  0.7860 -0.4993  0.0820
 2518TIP3    H229046   3.740   4.670  15.763 -1.7302  1.2705 -0.1555
 2519TIP3   OH229047   5.505   4.316   1.402  0.2200 -0.0918 -0.4197
 2519TIP3    H129048   5.487   4.262   1.480  0.2600 -1.8100 -1.5546
 2519TIP3    H229049   5.600   4.319   1.397  0.2493 -1.6115 -1.4323
 2520TIP3   OH229050   5.089   2.176  16.237  0.3520  0.4260 -0.4092
 2520TIP3    H129051   5.006   2.189  16.191  0.3210  0.1964 -0.4207
 2520TIP3    H229052   5.090   2.243  16.305 -0.2872 -0.1801  0.2127
 2521TIP3   OH229053   6.385   6.062   4.500  0.3547 -0.0622 -0.0629
 2521TIP3    H129054   6.435   5.993   4.456  0.2675 -1.0085  1.2963
 2521TIP3    H229055   6.295   6.032   4.498 -0.4043  1.9648 -3.1332
 2522TIP3   OH229056   4.528   5.350  12.830  0.0139 -0.0624 -0.5136
 2522TIP3    H129057   4.624   5.356  12.830 -0.0151  0.3894 -0.0727
 2522TIP3    H229058   4.510   5.257  12.841  0.3971 -0.0625  0.1281
 2523TIP3   OH229059   5.386   6.490  12.789  0.0571 -0.4457 -0.2468
 2523TIP3    H129060   5.437   6.493  12.870  0.6313  1.5756 -0.6188
 2523TIP3    H229061   5.298   6.517  12.815  0.4859  1.2611 -0.3850
 2524TIP3   OH229062   5.657   5.867   0.816  0.9760  0.1965  0.2180
 2524TIP3    H129063   5.742   5.824   0.813  0.8139 -0.1061 -0.1002
 2524TIP3    H229064   5.654   5.907   0.903  0.9561 -0.7918  0.6861
 2525TIP3   OH229065   4.497   6.004  16.386 -0.6950  0.2398 -0.2870
 2525TIP3    H129066   4.537   5.952  16.456 -0.0527 -1.0124 -1.5251
 2525TIP3    H229067   4.447   6.072  16.431  0.6692  0.2029  1.3518
 2526TIP3   OH229068   0.412   5.311  12.106 -0.3748 -0.1281 -0.0589
 2526TIP3    H129069   0.397   5.293  12.199  1.9898 -0.6242  0.2825
 2526TIP3    H229070   0.398   5.405  12.097 -1.5033 -0.2222  0.5996
 2527TIP3   OH229071   4.791   3.622   1.048  0.0636  0.3618 -0.2557
 2527TIP3    H129072   4.869   3.660   1.089  0.4792 -0.1078 -0.6077
 2527TIP3    H229073   4.758   3.560   1.112 -1.9524  2.8720  1.3462
 2528TIP3   OH229074   0.212   3.031   3.761  0.2115 -0.7618 -0.2105
 2528TIP3    H129075   0.221   3.022   3.856  1.0807 -1.1775 -0.3271
 2528TIP3    H229076   0.120   3.011   3.744 -0.2342  0.4227  0.6685
 2529TIP3   OH229077   2.703   3.641   6.143 -0.0102 -0.3270  0.0815
 2529TIP3    H129078   2.673   3.716   6.195  0.4736 -0.5284  0.6712
 2529TIP3    H229079   2.710   3.570   6.207  0.9079 -0.4971 -0.1948
 2530TIP3   OH229080   3.588   6.678   0.587 -0.4841  0.3429 -0.0623
 2530TIP3    H129081   3.590   6.711   0.497  1.6985  0.4353 -0.0265
 2530TIP3    H229082   3.573   6.584   0.578 -0.3188  0.3586 -0.5264
 2531TIP3   OH229083   4.754   0.588   3.974  0.6152  0.0604 -0.0627
 2531TIP3    H129084   4.777   0.652   4.042 -2.1265  0.0292  1.0515
 2531TIP3    H229085   4.784   0.627   3.892 -1.0648  2.9041  0.5619
 2532TIP3   OH229086   2.912   0.903  16.757  0.3791  0.6934 -0.2618
 2532TIP3    H129087   2.954   0.954  16.688  2.1495 -0.2558  0.0730
 2532TIP3    H229088   2.984   0.861  16.804 -0.5586  2.8830  3.5020
 2533TIP3   OH229089   1.327   3.775  13.384 -0.1997  0.2078  0.5029
 2533TIP3    H129090   1.354   3.683  13.394 -1.0717  0.1773  3.5994
 2533TIP3    H229091   1.392   3.824  13.434 -0.2249  1.2447 -0.4355
 2534TIP3   OH229092   4.094   6.234  10.846  0.0217 -0.8540  0.6442
 2534TIP3    H129093   4.184   6.258  10.822 -0.8024  0.1306 -1.8198
 2534TIP3    H229094   4.051   6.216  10.762 -1.9413 -1.8729  1.8035
 2535TIP3   OH229095   2.484   4.618   5.387 -0.0428  0.1321  0.0376
 2535TIP3    H129096   2.421   4.669   5.336  0.9840  1.1379 -0.2609
 2535TIP3    H229097   2.508   4.676   5.460  0.8884 -0.0487 -0.1169
 2536TIP3   OH229098   4.089   3.054   4.011 -1.0212 -0.0394 -0.2028
 2536TIP3    H129099   4.005   3.014   4.036 -0.4554  0.5573  2.9330
 2536TIP3    H229100   4.155   3.000   4.054  0.2205  0.0690 -1.8662
 2537TIP3   OH229101   0.522   0.585  14.339 -0.0157  0.2814  0.0111
 2537TIP3    H129102   0.582   0.640  14.390  1.0524 -1.6909  0.9623
 2537TIP3    H229103   0.460   0.552  14.403 -1.0631  0.8699 -0.6701
 2538TIP3   OH229104   0.055   5.432   4.114 -0.3486  0.0529  0.4076
 2538TIP3    H129105  -0.017   5.479   4.154  0.4976  1.5993  0.2139
 2538TIP3    H229106   0.041   5.340   4.137 -3.1377  0.0851 -0.8160
 2539TIP3   OH229107   0.130   5.832   0.295  0.0152  0.2524 -0.9184
 2539TIP3    H129108   0.102   5.754   0.342  1.3333 -0.0810 -0.6539
 2539TIP3    H229109   0.145   5.802   0.205 -0.3210  0.3994 -1.0260
 2540TIP3   OH229110   1.160   5.381   5.933 -0.9522  0.4236  0.5237
 2540TIP3    H129111   1.234   5.400   5.991 -0.0706  1.4748 -0.8520
 2540TIP3    H229112   1.199   5.379   5.845 -2.3646 -0.2447 -0.1242
 2541TIP3   OH229113   3.317   5.678  11.812 -0.1574  0.2770  0.3948
 2541TIP3    H129114   3.269   5.752  11.851 -0.2985 -0.5258  1.7724
 2541TIP3    H229115   3.273   5.664  11.728  1.4328  3.3408 -1.1164
 2542TIP3   OH229116   4.082   1.005   2.024  0.1164 -0.3998 -0.1939
 2542TIP3    H129117   4.149   1.012   1.956  0.6166 -0.6381  0.2732
 2542TIP3    H229118   4.010   1.060   1.992 -0.1994 -1.5452 -1.5702
 2543TIP3   OH229119   5.185   3.884   5.673 -0.6928 -0.1749 -0.0401
 2543TIP3    H129120   5.175   3.795   5.639  0.2515 -1.0606  1.8753
 2543TIP3    H229121   5.260   3.919   5.625 -0.2265 -0.9020  0.1465
 2544TIP3   OH229122   6.054   6.002  13.473 -0.0385  0.0373 -0.3291
 2544TIP3    H129123   6.131   5.954  13.442  0.8965  0.6375  0.9773
 2544TIP3    H229124   6.031   6.059  13.400 -0.0647 -1.0740 -1.2257
 2545TIP3   OH229125   5.105   4.944   2.083 -0.1739 -0.0902 -0.3112
 2545TIP3    H129126   5.101   4.909   1.994  0.6376 -0.3968 -0.2368
 2545TIP3    H229127   5.049   5.021   2.081 -2.4156 -1.6283 -0.3485
 2546TIP3   OH229128   1.214   0.853  12.535  0.3945 -0.3864  0.4304
 2546TIP3    H129129   1.179   0.868  12.623 -0.2142 -3.5538  0.8585
 2546TIP3    H229130   1.137   0.834  12.482  0.9839 -1.7450  0.0283
 2547TIP3   OH229131   0.203   2.076   5.658 -0.1668 -0.2894 -0.0249
 2547TIP3    H129132   0.145   2.010   5.622 -0.1259 -0.5129  0.3225
 2547TIP3    H229133   0.145   2.143   5.694 -0.2066 -0.4120  0.1365
 2548TIP3   OH229134   3.718   6.031  15.136 -0.2071  0.2754  0.3241
 2548TIP3    H129135   3.788   6.095  15.148 -0.2584  0.3977 -0.0167
 2548TIP3    H229136   3.641   6.083  15.112  0.6241 -0.0682 -3.9516
 2549TIP3   OH229137   3.551   6.621  14.047  0.3240  0.2214 -0.4708
 2549TIP3    H129138   3.488   6.679  14.005  0.5104 -0.9593 -2.5366
 2549TIP3    H229139   3.504   6.538  14.057  0.8265  0.0030  0.1485
 2550TIP3   OH229140   2.078   2.264  17.040  0.3076  0.3298 -0.1791
 2550TIP3    H129141   2.138   2.328  17.077 -0.6172  0.7009  0.7274
 2550TIP3    H229142   1.992   2.306  17.043 -0.3218 -0.9343  0.4130
 2551TIP3   OH229143   6.763   4.295  16.748 -0.4670  0.4138 -0.3025
 2551TIP3    H129144   6.813   4.216  16.727  1.1802  1.5214 -0.7509
 2551TIP3    H229145   6.805   4.330  16.826 -2.6303 -0.3208  1.2753
 2552TIP3   OH229146   5.780   2.324   4.617  0.0455  0.4008 -0.4012
 2552TIP3    H129147   5.706   2.383   4.601 -0.1026  0.0304 -1.1516
 2552TIP3    H229148   5.818   2.310   4.530  0.6423  0.1225 -0.1026
 2553TIP3   OH229149   2.576   1.938   1.978  0.4014  0.0701 -0.5495
 2553TIP3    H129150   2.565   1.867   1.914 -1.2181  0.3599 -0.6452
 2553TIP3    H229151   2.521   1.911   2.052  0.0673  1.0467 -0.4345
 2554TIP3   OH229152   0.110   2.439  11.971  0.3694 -0.2020  0.3903
 2554TIP3    H129153   0.202   2.451  11.947  0.3366 -0.0405  0.3451
 2554TIP3    H229154   0.061   2.462  11.891  0.3118 -0.8105  0.2443
 2555TIP3   OH229155   6.618   5.624  14.277 -0.2643  0.0658  0.3528
 2555TIP3    H129156   6.529   5.599  14.249  0.3754 -1.6106 -0.3170
 2555TIP3    H229157   6.623   5.593  14.367 -0.6791  1.0753  0.7374
 2556TIP3   OH229158   5.560   5.863   0.409  0.5348  0.5039 -0.4270
 2556TIP3    H129159   5.568   5.905   0.495  0.9834 -0.1053 -0.1589
 2556TIP3    H229160   5.467   5.866   0.389  0.4614  0.8953 -0.0363
 2557TIP3   OH229161   0.037   0.155  14.268 -0.3971  0.3117  0.1229
 2557TIP3    H129162   0.021   0.237  14.315 -1.0951  0.1362  0.2022
 2557TIP3    H229163   0.128   0.162  14.239  0.3946  0.0186  2.3182
 2558TIP3   OH229164   6.663   0.124  11.655 -0.0127  0.3271  0.6344
 2558TIP3    H129165   6.587   0.114  11.597 -0.2416 -3.3365  1.3217
 2558TIP3    H229166   6.701   0.209  11.630 -2.2346  0.6566 -2.2194
 2559TIP3   OH229167   4.023   4.661  17.138  0.5596 -0.1543  0.6058
 2559TIP3    H129168   4.097   4.656  17.198 -0.8933  1.3109  2.6771
 2559TIP3    H229169   3.974   4.738  17.166 -1.0507 -0.3026 -1.5258
 2560TIP3   OH229170   0.047   4.377  10.765  0.4080 -0.0009  0.2663
 2560TIP3    H129171   0.034   4.381  10.670 -0.8207 -0.6083  0.3778
 2560TIP3    H229172  -0.038   4.401  10.802  0.1035 -2.1499  1.1509
 2561TIP3   OH229173   0.204   5.944   1.882 -0.5962 -0.0091  0.2588
 2561TIP3    H129174   0.184   6.037   1.892  0.0844  0.0204  1.6816
 2561TIP3    H229175   0.248   5.937   1.797 -2.0316  0.7029 -0.5618
 2562TIP3   OH229176   6.001   6.841   2.336 -0.0563  0.4444 -0.4092
 2562TIP3    H129177   5.984   6.828   2.429  1.3477  0.1766 -0.1718
 2562TIP3    H229178   6.091   6.811   2.324 -0.8172 -1.3692 -2.2187
 2563TIP3   OH229179   3.569   4.877   2.031 -0.5647  0.0292 -0.1386
 2563TIP3    H129180   3.531   4.952   2.076  0.9767  1.0171 -0.4175
 2563TIP3    H229181   3.663   4.895   2.028 -0.3136 -1.2658 -1.4106
 2564TIP3   OH229182   6.041   1.430  16.927 -0.3397 -0.4349  0.1111
 2564TIP3    H129183   5.958   1.476  16.935 -0.9144 -0.8638 -2.4976
 2564TIP3    H229184   6.107   1.493  16.954 -1.3715  0.6270  0.2095
 2565TIP3   OH229185   1.461   3.885   2.406  0.4367  0.5387  0.0913
 2565TIP3    H129186   1.500   3.837   2.479  2.9041 -2.0686 -2.6729
 2565TIP3    H229187   1.405   3.822   2.362 -0.7658  1.9668 -0.5246
 2566TIP3   OH229188   3.446   0.819   4.869  0.1645  0.1244  0.3654
 2566TIP3    H129189   3.472   0.728   4.856 -0.6393 -0.1919  0.9209
 2566TIP3    H229190   3.404   0.844   4.786  1.9482  0.5689 -0.4560
 2567TIP3   OH229191   5.231   5.980   0.694 -0.2348  0.1081  0.5094
 2567TIP3    H129192   5.152   5.956   0.742 -0.7318  0.3022 -0.2010
 2567TIP3    H229193   5.213   6.067   0.660  0.5886  0.4712  0.9713
 2568TIP3   OH229194   1.944   2.789   1.615 -0.0681 -0.2189  0.9249
 2568TIP3    H129195   1.859   2.750   1.592 -0.6191 -0.1076  2.6237
 2568TIP3    H229196   1.959   2.855   1.548 -0.0426 -1.9734 -0.9143
 2569TIP3   OH229197   3.536   1.167   1.733 -0.1610  0.3061  0.4544
 2569TIP3    H129198   3.519   1.252   1.775 -2.1652 -0.3546  1.1134
 2569TIP3    H229199   3.455   1.147   1.687  0.9056 -0.4601 -1.1666
 2570TIP3   OH229200   1.598   3.546   4.343  0.1500 -0.7770 -0.2590
 2570TIP3    H129201   1.586   3.628   4.390 -1.0996 -0.8111 -0.4884
 2570TIP3    H229202   1.571   3.565   4.253  1.0814 -1.1090 -0.6201
 2571TIP3   OH229203   3.058   2.569   5.850 -0.0811 -0.0487  0.6244
 2571TIP3    H129204   3.130   2.629   5.870 -1.4164  1.7387  0.2600
 2571TIP3    H229205   3.034   2.532   5.935 -0.7488  1.7249  1.2411
 2572TIP3   OH229206   3.890   0.252   4.262 -0.5328  0.8241 -0.1892
 2572TIP3    H129207   3.818   0.283   4.317  1.1919  0.7021  2.3095
 2572TIP3    H229208   3.862   0.166   4.232 -0.3284 -0.6646  3.3548
 2573TIP3   OH229209   2.921   5.258  14.299 -0.1522 -0.0304  0.2327
 2573TIP3    H129210   2.892   5.323  14.362 -0.0914 -1.1142  1.4198
 2573TIP3    H229211   2.924   5.305  14.216  1.2129  1.8343  1.2583
 2574TIP3   OH229212   2.922   3.044  11.918  0.1396  0.3632 -0.2035
 2574TIP3    H129213   2.938   3.015  12.008 -1.1776  0.6480  0.1402
 2574TIP3    H229214   2.998   3.098  11.897  0.9217 -0.4784  0.3939
 2575TIP3   OH229215   2.261   2.812   2.328  0.4079 -0.1063 -0.0482
 2575TIP3    H129216   2.274   2.907   2.340  2.0575  0.0522 -2.3704
 2575TIP3    H229217   2.192   2.805   2.263  1.7702 -0.3555 -1.5376
 2576TIP3   OH229218   6.311   1.968   1.085 -0.4250  0.0867 -0.1642
 2576TIP3    H129219   6.237   2.017   1.122  0.8516  2.1212 -0.1732
 2576TIP3    H229220   6.364   2.034   1.041  0.5788 -1.5794 -1.5860
 2577TIP3   OH229221   2.624   3.593   5.558  0.2548 -0.4594  0.1377
 2577TIP3    H129222   2.709   3.603   5.602  0.9405 -0.1279 -1.2284
 2577TIP3    H229223   2.621   3.501   5.532 -0.3994 -0.7979  1.3129
 2578TIP3   OH229224   0.276   5.541  12.515  0.1845 -0.4472  0.7467
 2578TIP3    H129225   0.226   5.621  12.499 -0.2782 -0.8083  0.3546
 2578TIP3    H229226   0.366   5.562  12.489 -0.1834 -0.4502 -0.5980
 2579TIP3   OH229227   5.756   2.132  12.916  0.1988 -0.0205 -0.1805
 2579TIP3    H129228   5.802   2.130  12.832 -0.5414  0.8069 -0.6271
 2579TIP3    H229229   5.742   2.225  12.934 -3.1162 -0.1844 -1.1438
 2580TIP3   OH229230   1.330   4.251  12.855 -0.5325  0.6639  0.3019
 2580TIP3    H129231   1.296   4.192  12.787 -1.3220  1.1590  0.2530
 2580TIP3    H229232   1.403   4.203  12.894 -1.0502 -0.2778  0.1468
 2581TIP3   OH229233   6.342   3.836  10.498 -0.1839 -0.3145  0.7865
 2581TIP3    H129234   6.253   3.819  10.469  0.5090 -1.1887 -0.9480
 2581TIP3    H229235   6.344   3.930  10.515 -1.7879 -0.4996  2.2589
 2582TIP3   OH229236   3.781   3.144  12.381 -0.4026  0.1368  0.2858
 2582TIP3    H129237   3.828   3.183  12.307  0.9473  0.6375  1.3777
 2582TIP3    H229238   3.754   3.219  12.434  1.1316 -0.2957  1.7550
 2583TIP3   OH229239   5.710   1.455   5.634 -0.2195  0.1675 -0.5939
 2583TIP3    H129240   5.698   1.548   5.612 -0.0198  0.3894  0.2122
 2583TIP3    H229241   5.660   1.442   5.715 -0.6274 -0.5485 -0.9474
 2584TIP3   OH229242   1.788   6.702  14.873 -0.1936  0.1564  0.7772
 2584TIP3    H129243   1.766   6.726  14.783  1.4139  0.7887  0.5223
 2584TIP3    H229244   1.862   6.641  14.864 -1.0727 -1.0886  1.6277
 2585TIP3   OH229245   2.922   2.883   3.219  0.1380  0.2237  0.5093
 2585TIP3    H129246   2.990   2.832   3.263  0.7521  1.1909  0.7066
 2585TIP3    H229247   2.932   2.860   3.126  0.9826  0.6244  0.4897
 2586TIP3   OH229248   0.189   1.125  14.491  0.3731 -0.4478 -0.1667
 2586TIP3    H129249   0.252   1.196  14.482  2.5350 -2.0096  1.5495
 2586TIP3    H229250   0.139   1.146  14.570  1.7245 -1.2447  0.9566
 2587TIP3   OH229251   2.739   2.306  15.911 -0.2920 -0.6501  0.3790
 2587TIP3    H129252   2.665   2.327  15.968 -0.3816 -0.2496  0.1216
 2587TIP3    H229253   2.784   2.233  15.955 -1.9766 -2.2789 -0.4284
 2588TIP3   OH229254   6.576   6.146   1.214  0.0728 -0.8253 -0.0076
 2588TIP3    H129255   6.639   6.183   1.152 -1.1442  1.3858 -0.0224
 2588TIP3    H229256   6.510   6.104   1.159  0.2516 -0.9968 -0.0937
 2589TIP3   OH229257   5.992   0.495  13.737  0.0201  0.0097 -0.4358
 2589TIP3    H129258   5.927   0.566  13.736 -0.9675 -0.8522 -0.0244
 2589TIP3    H229259   6.068   0.532  13.781 -0.0457  1.1560 -1.2294
 2590TIP3   OH229260   0.270   2.088  16.730 -0.7115 -0.0776  0.3844
 2590TIP3    H129261   0.203   2.039  16.777 -1.5510  1.1509  0.4967
 2590TIP3    H229262   0.225   2.123  16.654  0.0185  0.0552  0.0102
 2591TIP3   OH229263   1.280   3.697   2.287 -0.8678  0.0413 -0.5434
 2591TIP3    H129264   1.190   3.671   2.304 -0.5853 -0.2761  0.5233
 2591TIP3    H229265   1.326   3.616   2.265 -0.9983  0.3075 -1.9335
 2592TIP3   OH229266   5.075   4.811   4.780 -0.5664  0.0083 -0.4865
 2592TIP3    H129267   5.063   4.716   4.774  2.0993 -0.4951  0.7657
 2592TIP3    H229268   5.024   4.837   4.857 -0.0245 -0.6972  0.1247
 2593TIP3   OH229269   6.435   1.839  16.999  0.7479 -0.0550 -0.0520
 2593TIP3    H129270   6.524   1.868  16.980  0.7817  0.6583  1.1195
 2593TIP3    H229271   6.423   1.857  17.092 -0.2655 -1.1027  0.0434
 2594TIP3   OH229272   1.750   4.481   5.736 -0.2517  0.1479  0.2399
 2594TIP3    H129273   1.714   4.436   5.659 -0.9769  0.6499  0.2832
 2594TIP3    H229274   1.834   4.438   5.750 -1.3989 -1.9998  0.9806
 2595TIP3   OH229275   6.565   3.405  12.626  0.1322 -0.2621 -0.2648
 2595TIP3    H129276   6.614   3.338  12.673 -1.3268 -0.3109  1.2809
 2595TIP3    H229277   6.534   3.464  12.694 -0.3890  0.8066 -1.3922
 2596TIP3   OH229278   4.110   5.459   3.198 -0.1957  0.2351  0.4203
 2596TIP3    H129279   4.067   5.403   3.262 -1.6289  0.5973 -0.1673
 2596TIP3    H229280   4.097   5.548   3.232 -0.2818  0.3770  0.0252
 2597TIP3   OH229281   4.688   5.828   1.763  0.0065  0.5541 -0.6197
 2597TIP3    H129282   4.692   5.882   1.843  0.1051 -0.0731 -0.1979
 2597TIP3    H229283   4.607   5.856   1.720 -0.1420  0.7676 -0.2084
 2598TIP3   OH229284   5.170   2.616   2.815  0.8969  0.5722  0.2445
 2598TIP3    H129285   5.174   2.540   2.873  0.5617  0.8431  0.6286
 2598TIP3    H229286   5.125   2.584   2.736  3.2778 -0.3874 -0.8266
 2599TIP3   OH229287   3.587   2.065   1.299 -0.0805  0.0869  0.8119
 2599TIP3    H129288   3.602   1.972   1.316  1.8871  0.3659  0.8711
 2599TIP3    H229289   3.561   2.101   1.384  0.2526 -0.2279  1.0541
 2600TIP3   OH229290   2.425   0.288  15.651  0.4800  0.5345  0.2896
 2600TIP3    H129291   2.399   0.204  15.612 -0.1581 -0.3230  2.4264
 2600TIP3    H229292   2.406   0.352  15.582 -0.0124 -0.9433 -1.0265
 2601TIP3   OH229293   2.735   3.816  17.022 -0.5644 -0.2780 -0.1976
 2601TIP3    H129294   2.815   3.869  17.023  0.3787 -1.6482 -0.0120
 2601TIP3    H229295   2.748   3.751  17.092 -1.9436 -0.3871 -0.0143
 2602TIP3   OH229296   5.151   1.307   1.599  0.3880  0.5325 -0.0460
 2602TIP3    H129297   5.212   1.264   1.539  1.2865  0.5053  0.8724
 2602TIP3    H229298   5.069   1.314   1.548  1.4798  1.6854 -1.7492
 2603TIP3   OH229299   6.176   2.437  13.214  0.0925  0.6128 -0.7172
 2603TIP3    H129300   6.089   2.402  13.199  0.6903 -0.5227 -1.6984
 2603TIP3    H229301   6.172   2.476  13.302 -0.7763 -1.4776  0.2341
 2604TIP3   OH229302   5.237   3.598   1.398  0.8272  0.7456  0.0276
 2604TIP3    H129303   5.286   3.633   1.473  1.9404  0.6955 -0.6523
 2604TIP3    H229304   5.276   3.512   1.382 -0.2024  0.2471  0.1137
 2605TIP3   OH229305   5.739   0.931   2.433  0.3139  0.4921 -0.4090
 2605TIP3    H129306   5.778   0.879   2.503  2.6354 -0.0164 -1.9773
 2605TIP3    H229307   5.756   0.881   2.353 -2.2357  1.0535 -1.4025
 2606TIP3   OH229308   4.008   4.639  12.117 -0.7884  0.6858  0.3461
 2606TIP3    H129309   4.044   4.693  12.046  0.9052 -1.5055 -0.6153
 2606TIP3    H229310   3.914   4.652  12.112 -0.9520 -0.7167 -3.6053
 2607TIP3   OH229311   1.867   0.249  10.913  0.2879 -0.4362 -0.0569
 2607TIP3    H129312   1.791   0.194  10.893 -1.2717  1.6069 -0.0863
 2607TIP3    H229313   1.894   0.284  10.828 -0.4541  0.9152  0.2348
 2608TIP3   OH229314   0.428   2.279  12.011  0.4613  0.0042  0.0313
 2608TIP3    H129315   0.459   2.216  11.946 -0.0371  0.7691 -0.9610
 2608TIP3    H229316   0.414   2.360  11.962 -0.9359  0.3062  0.8712
 2609TIP3   OH229317   4.079   2.245  10.828 -0.2305  0.1463 -0.5213
 2609TIP3    H129318   4.029   2.318  10.865  0.6610  0.2752  0.4546
 2609TIP3    H229319   4.167   2.280  10.816  0.3656 -0.9286  0.5091
 2610TIP3   OH229320   5.125   1.845   0.128  0.1356 -0.4497 -0.2612
 2610TIP3    H129321   5.108   1.804   0.213  1.6162  0.6592  0.6344
 2610TIP3    H229322   5.191   1.789   0.087  0.1867 -0.4169 -0.2233
 2611TIP3   OH229323   2.826   2.198   1.017  0.0159 -0.2621 -0.0236
 2611TIP3    H129324   2.816   2.289   1.044 -0.9404  0.2021 -1.7935
 2611TIP3    H229325   2.915   2.175   1.043 -0.0162  0.8959  1.2095
 2612TIP3   OH229326   3.116   0.078   5.198 -0.0569  0.0023 -0.1711
 2612TIP3    H129327   3.055   0.106   5.266  0.1546 -0.8802  0.4007
 2612TIP3    H229328   3.064   0.022   5.140 -0.1261  0.3924 -0.4960
 2613TIP3   OH229329   3.203   4.180   2.087  0.2430  0.0439 -0.2124
 2613TIP3    H129330   3.129   4.133   2.050  1.6616 -2.3024 -0.3227
 2613TIP3    H229331   3.199   4.160   2.181  0.3714  0.4594 -0.1161
 2614TIP3   OH229332   6.110   5.954  15.391  0.1733  0.4182 -0.0014
 2614TIP3    H129333   6.055   6.033  15.389 -0.7593 -0.2324 -1.4244
 2614TIP3    H229334   6.196   5.985  15.363  0.1974  1.2023  0.9061
 2615TIP3   OH229335   0.015   3.516   0.338  0.5129 -0.0430 -0.2016
 2615TIP3    H129336   0.025   3.424   0.365 -2.6536 -0.7496 -0.9927
 2615TIP3    H229337  -0.005   3.562   0.420  0.7064 -0.3191  0.0055
 2616TIP3   OH229338   1.719   5.425  13.451  0.0616 -0.6538  0.6440
 2616TIP3    H129339   1.681   5.423  13.539 -0.5781  1.1167  0.4499
 2616TIP3    H229340   1.716   5.334  13.422 -1.3300 -1.0204  1.7960
 2617TIP3   OH229341   0.971   3.672  11.380  0.1881 -0.3939  0.7371
 2617TIP3    H129342   1.051   3.697  11.333  0.7566 -0.9238  1.4047
 2617TIP3    H229343   0.966   3.577  11.371  0.1809 -0.4782  1.5512
 2618TIP3   OH229344   6.584   6.386  15.120  0.2868  0.0789  0.4784
 2618TIP3    H129345   6.566   6.457  15.182 -0.5241  0.1106  0.2088
 2618TIP3    H229346   6.498   6.354  15.094  0.6372 -1.7756  1.4773
 2619TIP3   OH229347   4.134   6.548   4.411  0.1553 -0.1379 -0.0489
 2619TIP3    H129348   4.127   6.544   4.316 -1.2075 -0.1032  0.0436
 2619TIP3    H229349   4.067   6.487   4.443  0.5213 -0.0642  0.8970
 2620TIP3   OH229350   5.090   0.606   3.556 -0.2760 -0.3123 -0.7293
 2620TIP3    H129351   5.176   0.570   3.532 -0.0745 -1.0267  0.9068
 2620TIP3    H229352   5.032   0.530   3.556 -0.6746 -0.0076 -0.8059
 2621TIP3   OH229353   1.759   4.515  14.984 -0.2366 -0.7166 -0.0761
 2621TIP3    H129354   1.805   4.449  15.037 -0.7997 -1.4928 -0.5350
 2621TIP3    H229355   1.767   4.596  15.035  0.4106 -1.1513  0.5309
 2622TIP3   OH229356   2.580   5.671  16.059 -0.5015  0.3923  0.1091
 2622TIP3    H129357   2.538   5.656  15.974  0.4423 -2.2146 -0.0043
 2622TIP3    H229358   2.657   5.723  16.038 -0.9587  0.8684 -0.4301
 2623TIP3   OH229359   2.317   6.219  13.339 -0.3795 -0.5281  0.5708
 2623TIP3    H129360   2.341   6.151  13.402 -2.7585 -1.6284  0.4028
 2623TIP3    H229361   2.265   6.174  13.273 -1.6914  1.3534  0.2188
 2624TIP3   OH229362   2.993   0.701  13.690  0.2586  0.4638 -0.1486
 2624TIP3    H129363   2.987   0.619  13.642  2.5669  0.0867  0.0826
 2624TIP3    H229364   3.007   0.767  13.622  0.3944  0.3746 -0.2077
 2625TIP3   OH229365   5.862   4.602  17.115  0.2396 -0.5051  0.2047
 2625TIP3    H129366   5.822   4.689  17.116  0.0409 -0.5900 -0.1674
 2625TIP3    H229367   5.940   4.611  17.169 -0.5453 -0.4703  1.3727
 2626TIP3   OH229368   4.545   1.492   0.141  0.6511  0.2993  0.2926
 2626TIP3    H129369   4.552   1.449   0.055 -0.3608 -3.3543  1.8465
 2626TIP3    H229370   4.522   1.583   0.120 -1.8465 -0.9228 -3.3003
 2627TIP3   OH229371   3.124   4.482  14.690  0.3434 -0.1663 -0.3394
 2627TIP3    H129372   3.065   4.511  14.620  0.6266  0.7177 -0.2297
 2627TIP3    H229373   3.076   4.502  14.771  1.5616  2.4909 -0.1722
 2628TIP3   OH229374   4.343   6.215   0.632  0.1290 -0.0255 -0.0525
 2628TIP3    H129375   4.292   6.147   0.676 -1.2144 -0.1366 -1.6971
 2628TIP3    H229376   4.296   6.296   0.648  0.9250  0.3126  0.6607
 2629TIP3   OH229377   0.782   4.226   0.304 -0.5497 -0.0868  0.6941
 2629TIP3    H129378   0.818   4.244   0.217 -1.9285 -1.5704 -0.2407
 2629TIP3    H229379   0.734   4.306   0.327 -0.5794  0.1409 -0.1253
 2630TIP3   OH229380   0.178   3.670   1.880  0.0495 -0.2006 -0.0058
 2630TIP3    H129381   0.179   3.664   1.976 -0.5479 -0.8164 -0.0283
 2630TIP3    H229382   0.134   3.752   1.861 -0.2191 -0.2843  0.2471
 2631TIP3   OH229383   2.347   0.645  14.162 -0.9145 -0.5047  0.3608
 2631TIP3    H129384   2.391   0.679  14.239  1.2933 -1.8936 -0.1973
 2631TIP3    H229385   2.403   0.574  14.131 -0.3593  1.4818 -3.9042
 2632TIP3   OH229386   6.485   6.553  14.743  0.6507  0.0582 -0.1881
 2632TIP3    H129387   6.568   6.514  14.716  2.3148  2.8925  0.5082
 2632TIP3    H229388   6.467   6.620  14.677 -1.1712 -0.5306 -0.3627
 2633TIP3   OH229389   1.202   3.033  16.082  0.2617  0.4769  0.0853
 2633TIP3    H129390   1.141   2.958  16.079  0.1136  0.5864  0.2878
 2633TIP3    H229391   1.286   2.997  16.055  0.3558  0.0645  0.8743
 2634TIP3   OH229392   4.739   2.947  13.283 -0.4445 -0.6122 -0.1864
 2634TIP3    H129393   4.677   2.953  13.355 -0.5841  0.3754 -0.3650
 2634TIP3    H229394   4.698   2.997  13.212  0.7710  0.5424 -0.1294
 2635TIP3   OH229395   2.586   1.645   4.399 -0.2982  0.1591  0.1400
 2635TIP3    H129396   2.676   1.661   4.426 -0.2769 -0.5145  0.4835
 2635TIP3    H229397   2.560   1.726   4.354  0.2259  0.6427  0.6830
 2636TIP3   OH229398   3.856   2.453   4.061  0.1988  0.0429 -0.1332
 2636TIP3    H129399   3.787   2.388   4.076  0.8921 -0.7996 -0.4631
 2636TIP3    H229400   3.812   2.525   4.016 -0.5355 -0.3272 -0.0199
 2637TIP3   OH229401   1.230   0.084  12.839  0.0335 -0.6353  0.3894
 2637TIP3    H129402   1.168   0.061  12.908 -0.5471 -1.5236 -0.4095
 2637TIP3    H229403   1.299   0.018  12.846 -0.8411 -1.7326 -0.8957
 2638TIP3   OH229404   4.523   1.080  13.858  0.1325 -0.1786  0.3314
 2638TIP3    H129405   4.449   1.134  13.829  1.4003  1.3103 -0.2660
 2638TIP3    H229406   4.572   1.063  13.778 -0.1612 -2.1701  0.5349
 2639TIP3   OH229407   3.440   5.054  16.730 -0.0661 -0.5841 -0.5724
 2639TIP3    H129408   3.397   5.007  16.659 -1.9068  1.3480 -0.8038
 2639TIP3    H229409   3.465   5.138  16.693  1.9909 -0.7930  0.1961
 2640TIP3   OH229410   6.638   4.763   3.935  0.1549 -0.1761  0.2204
 2640TIP3    H129411   6.702   4.691   3.939  0.2749 -0.0298  1.1800
 2640TIP3    H229412   6.688   4.840   3.962 -0.5356 -0.1518  1.5007
 2641TIP3   OH229413   3.739   2.225   5.234  0.2193  0.1518 -0.1483
 2641TIP3    H129414   3.671   2.159   5.224 -0.6003  1.0831 -0.9154
 2641TIP3    H229415   3.810   2.196   5.177 -0.0997 -0.0983 -0.4200
 2642TIP3   OH229416   6.834   2.274  12.133  0.4487  0.5190  0.1420
 2642TIP3    H129417   6.901   2.208  12.147  1.4295  1.6024  0.6215
 2642TIP3    H229418   6.873   2.335  12.071 -0.5737  0.5084 -0.5528
 2643TIP3   OH229419   0.292   3.770  14.470 -0.3937  0.3673 -0.0827
 2643TIP3    H129420   0.364   3.787  14.530 -0.5062 -0.0263  0.1681
 2643TIP3    H229421   0.293   3.675  14.457 -1.5335  0.2081  0.7836
 2644TIP3   OH229422   5.289   0.837  14.235 -0.1605  0.6854 -0.4745
 2644TIP3    H129423   5.276   0.796  14.321  0.8727  0.2755 -0.5071
 2644TIP3    H229424   5.233   0.787  14.176  0.9440 -0.5935 -0.4792
 2645TIP3   OH229425   2.109   6.699  12.793 -0.3821  0.4208  0.0542
 2645TIP3    H129426   2.109   6.657  12.879 -0.9989  0.6357  0.1624
 2645TIP3    H229427   2.108   6.626  12.730  0.5243  0.2594  0.2199
 2646TIP3   OH229428   0.478   5.980  11.509 -0.0153  0.5531 -0.2021
 2646TIP3    H129429   0.506   5.945  11.425  1.3145 -0.4654  0.6153
 2646TIP3    H229430   0.523   6.064  11.517  0.0020  0.5631 -0.4231
 2647TIP3   OH229431   6.511   1.835   3.461 -0.1443  0.1932 -0.1328
 2647TIP3    H129432   6.532   1.741   3.456 -0.3558  0.1213  0.3459
 2647TIP3    H229433   6.589   1.878   3.428  0.3002 -0.1205  0.4876
 2648TIP3   OH229434   2.053   3.661  11.227 -0.4683 -0.5663  0.3432
 2648TIP3    H129435   1.989   3.681  11.296  0.2572  1.9165  0.3898
 2648TIP3    H229436   2.136   3.651  11.274  0.3452  2.6882 -0.1323
 2649TIP3   OH229437   4.347   4.187   2.236 -0.0993  0.2711  0.2422
 2649TIP3    H129438   4.344   4.098   2.273 -3.7283  0.1989  0.1633
 2649TIP3    H229439   4.389   4.239   2.304 -1.1263 -0.9350  1.9163
 2650TIP3   OH229440   6.814   3.398  11.351 -0.1405  0.1391  0.1002
 2650TIP3    H129441   6.739   3.345  11.380 -0.5328 -0.4378 -1.7989
 2650TIP3    H229442   6.885   3.335  11.342  0.7653  0.7612  2.3356
 2651TIP3   OH229443   1.470   6.390  13.099 -0.1526 -0.5192 -0.1985
 2651TIP3    H129444   1.548   6.425  13.143 -0.3104 -1.1171  0.5708
 2651TIP3    H229445   1.414   6.467  13.087  0.8428  0.0619 -1.4385
 2652TIP3   OH229446   5.044   6.341  14.807 -0.3452 -0.2738  0.3487
 2652TIP3    H129447   5.115   6.310  14.863 -0.2956  0.3794  0.6649
 2652TIP3    H229448   4.983   6.384  14.868 -0.3772  0.2897 -0.0695
 2653TIP3   OH229449   2.592   1.273  15.752  0.5569  0.6575  0.6507
 2653TIP3    H129450   2.656   1.220  15.800  1.5544  0.7704 -0.5197
 2653TIP3    H229451   2.508   1.232  15.772  1.0257  0.2307  1.8475
 2654TIP3   OH229452   0.469   1.074   5.722 -0.2105 -0.3464 -0.1303
 2654TIP3    H129453   0.381   1.111   5.721 -0.3609 -0.6754 -2.0773
 2654TIP3    H229454   0.527   1.149   5.715 -0.5138 -0.3004 -4.3234
 2655TIP3   OH229455   6.269   0.463  16.258 -0.7578  0.2991 -0.3152
 2655TIP3    H129456   6.320   0.498  16.185 -0.6218  0.4891 -0.1299
 2655TIP3    H229457   6.277   0.368  16.249 -1.2491  0.3044 -0.9063
 2656TIP3   OH229458   3.267   0.612  12.673  0.1260 -0.1277 -0.6546
 2656TIP3    H129459   3.340   0.586  12.616  0.5450 -0.7457  0.1313
 2656TIP3    H229460   3.290   0.574  12.758 -0.0636  1.4971  0.1428
 2657TIP3   OH229461   5.984   6.178  11.807 -0.0763 -0.5755  0.1631
 2657TIP3    H129462   5.990   6.249  11.744  0.8997 -1.6818 -1.0559
 2657TIP3    H229463   5.911   6.124  11.777 -0.8027 -0.1125  1.0685
 2658TIP3   OH229464   1.794   2.888  13.183 -0.0817  0.1770 -0.4848
 2658TIP3    H129465   1.748   2.834  13.119 -0.1625 -1.0460  0.5593
 2658TIP3    H229466   1.887   2.879  13.159 -0.2261  1.2613 -1.5478
 2659TIP3   OH229467   0.947   0.440   0.117  0.1569 -0.7448  0.4079
 2659TIP3    H129468   0.885   0.476   0.053  0.0923 -1.2284  0.1951
 2659TIP3    H229469   0.983   0.517   0.161 -0.2304 -0.4347  0.1927
 2660TIP3   OH229470   2.884   1.020   2.554  0.1470 -0.7607 -0.1083
 2660TIP3    H129471   2.923   0.949   2.605  0.2971  0.5757  1.7552
 2660TIP3    H229472   2.946   1.093   2.564  0.2445 -0.4720 -2.3756
 2661TIP3   OH229473   5.343   5.964  10.523  0.3879 -0.0315  0.4309
 2661TIP3    H129474   5.267   5.930  10.572  0.2617 -1.1915 -0.5186
 2661TIP3    H229475   5.327   5.937  10.433  1.2572  0.9375 -0.0262
 2662TIP3   OH229476   4.874   0.659   3.026  0.7983  0.2633  0.3724
 2662TIP3    H129477   4.885   0.628   3.116  1.3309 -0.6410  0.0097
 2662TIP3    H229478   4.790   0.622   2.998  0.3200  1.0846  0.7098
 2663TIP3   OH229479   4.624   3.409  11.203  0.3487  0.3171 -0.0807
 2663TIP3    H129480   4.640   3.401  11.109 -0.0445  0.0694 -0.1298
 2663TIP3    H229481   4.529   3.419  11.211  0.4620  1.2462  0.2360
 2664TIP3   OH229482   4.979   4.402  16.382  0.2275  0.3743  0.2722
 2664TIP3    H129483   4.893   4.442  16.396  0.4758  0.9298  0.2487
 2664TIP3    H229484   5.038   4.476  16.367  0.7816  0.0231  0.6505
 2665TIP3   OH229485   2.542   4.412  16.979  0.2927 -0.0344  0.4208
 2665TIP3    H129486   2.521   4.418  16.886  0.5918 -2.6835  0.1025
 2665TIP3    H229487   2.638   4.407  16.982  0.3197  0.6151  0.9370
 2666TIP3   OH229488   5.706   1.874  11.296 -0.9658 -0.3578 -0.2074
 2666TIP3    H129489   5.768   1.814  11.337 -1.2574 -0.5886 -0.0999
 2666TIP3    H229490   5.725   1.868  11.202  1.3416  1.9842  0.0069
 2667TIP3   OH229491   5.682   1.189   6.190 -0.1246  0.6114 -0.1730
 2667TIP3    H129492   5.678   1.278   6.153 -0.0187  0.9654  0.6385
 2667TIP3    H229493   5.755   1.148   6.145  0.5358  1.3168  0.2161
 2668TIP3   OH229494   0.107   0.494   0.038  0.4712  0.0176  0.3767
 2668TIP3    H129495   0.047   0.420   0.033  1.9329 -1.1902 -0.0417
 2668TIP3    H229496   0.095   0.528   0.127  0.1851 -1.0995  0.7813
 2669TIP3   OH229497   4.159   5.399  16.561  0.0928  0.4825 -0.5107
 2669TIP3    H129498   4.236   5.352  16.592 -0.5641 -0.6804 -0.5673
 2669TIP3    H229499   4.168   5.487  16.596  0.7146 -0.0541  0.7196
 2670TIP3   OH229500   5.142   5.231   1.946  0.0828 -0.4713  0.2279
 2670TIP3    H129501   5.117   5.177   1.871 -0.3544 -1.0468  0.7844
 2670TIP3    H229502   5.237   5.224   1.949  0.0558 -0.9629  0.1040
 2671TIP3   OH229503   5.860   0.463  10.804 -0.0020  0.6023  0.0830
 2671TIP3    H129504   5.897   0.550  10.785 -3.2886  2.0463 -0.3733
 2671TIP3    H229505   5.921   0.402  10.763  1.7640  2.7676 -0.7135
 2672TIP3   OH229506   6.290   5.183  15.198 -0.0110 -0.1747  0.1003
 2672TIP3    H129507   6.373   5.137  15.210  2.0326  3.2671  0.3055
 2672TIP3    H229508   6.280   5.236  15.276 -2.7449 -0.8181  0.2965
 2673TIP3   OH229509   5.770   2.792  16.826  0.3056 -0.9032  0.6622
 2673TIP3    H129510   5.823   2.813  16.749  0.1538  3.4597  1.4681
 2673TIP3    H229511   5.801   2.853  16.893 -1.2290 -2.8470  3.2958
 2674TIP3   OH229512   0.213   1.790  13.800 -0.1528 -0.4528 -0.3497
 2674TIP3    H129513   0.236   1.879  13.827 -1.6983 -0.2223  0.3075
 2674TIP3    H229514   0.174   1.751  13.878  1.0038 -1.9103 -0.4673
 2675TIP3   OH229515   4.352   2.192   6.058  0.5014  0.1891  0.3245
 2675TIP3    H129516   4.374   2.253   6.129 -0.6927  0.2385  0.6705
 2675TIP3    H229517   4.422   2.127   6.060  2.4256  2.1142 -0.7656
 2676TIP3   OH229518   6.507   2.700  14.645 -0.3999  0.0221 -0.4994
 2676TIP3    H129519   6.566   2.700  14.720  0.9907  2.1178 -1.5109
 2676TIP3    H229520   6.464   2.614  14.648  3.2377 -1.9763 -0.1430
 2677TIP3   OH229521   6.111   6.751   5.139  0.0783  0.2166  0.3203
 2677TIP3    H129522   6.110   6.702   5.221  0.9762  0.2743  0.3804
 2677TIP3    H229523   6.020   6.774   5.123  0.1082  2.1096  2.4487
 2678TIP3   OH229524   1.942   1.231  15.986 -0.0142 -0.2334  0.0332
 2678TIP3    H129525   1.952   1.158  15.925 -0.1315  1.2080 -1.8181
 2678TIP3    H229526   1.860   1.213  16.031 -1.5292  0.0540 -2.4079
 2679TIP3   OH229527   0.251   6.521  11.230 -0.0026 -0.7122 -0.5120
 2679TIP3    H129528   0.238   6.439  11.277  0.2583  0.4101  1.6606
 2679TIP3    H229529   0.345   6.527  11.217  0.0722 -0.3447  0.1617
 2680TIP3   OH229530   3.813   4.936   2.407 -0.0752 -0.5879  0.3979
 2680TIP3    H129531   3.892   4.888   2.384 -0.7577 -1.1057 -1.0105
 2680TIP3    H229532   3.829   5.025   2.377  0.3263 -0.4629  0.9702
 2681TIP3   OH229533   5.284   0.469  12.102  0.8643  0.4321  0.0575
 2681TIP3    H129534   5.221   0.468  12.030 -0.2866  2.4828  0.9358
 2681TIP3    H229535   5.340   0.544  12.084  0.0109  1.5131  1.6718
 2682TIP3   OH229536   3.153   2.828   4.562 -0.1879 -0.0584  0.2607
 2682TIP3    H129537   3.137   2.736   4.587  0.4867 -0.5070 -0.8928
 2682TIP3    H229538   3.245   2.829   4.535 -0.4077  0.8054 -0.4590
 2683TIP3   OH229539   2.053   1.542  10.384  0.6560  0.5045 -0.3981
 2683TIP3    H129540   2.008   1.557  10.468 -1.0298 -0.8018 -1.0044
 2683TIP3    H229541   2.112   1.617  10.375 -0.0629  1.3408  1.3498
 2684TIP3   OH229542   5.913   4.273   3.145 -0.6995  0.2331  0.5491
 2684TIP3    H129543   5.829   4.290   3.187 -0.9976  1.4923 -0.5047
 2684TIP3    H229544   5.974   4.332   3.189 -0.6449  0.2784  0.4133
 2685TIP3   OH229545   5.060   2.108   6.004  0.2385  0.1690  0.2888
 2685TIP3    H129546   5.119   2.043   6.042  0.6554  0.1091 -0.4416
 2685TIP3    H229547   4.987   2.114   6.066  0.6165 -0.3516  0.7939
 2686TIP3   OH229548   2.869   3.222   1.539 -0.1064 -0.2962 -0.0029
 2686TIP3    H129549   2.925   3.173   1.479  0.9472  1.5481 -0.6097
 2686TIP3    H229550   2.930   3.269   1.595 -1.0303  1.1417 -0.1488
 2687TIP3   OH229551   6.488   2.815  13.924 -0.4522 -0.2997 -0.1221
 2687TIP3    H129552   6.482   2.770  13.839  1.0039 -0.8289  0.0241
 2687TIP3    H229553   6.448   2.900  13.908 -0.0280 -0.3137 -1.4124
 2688TIP3   OH229554   2.811   2.521  17.008  0.2400 -0.1360  0.4549
 2688TIP3    H129555   2.855   2.604  16.990 -0.7312  0.4091  0.5446
 2688TIP3    H229556   2.838   2.464  16.936  0.1531  0.5555 -0.1390
 2689TIP3   OH229557   5.343   5.941  13.251 -0.0934 -0.2731 -0.7584
 2689TIP3    H129558   5.367   6.018  13.303 -1.0334  0.1647 -0.9379
 2689TIP3    H229559   5.413   5.933  13.186  0.7092 -0.3873  0.0951
 2690TIP3   OH229560   0.452   0.170  11.621 -0.3554 -0.1233 -0.4477
 2690TIP3    H129561   0.380   0.115  11.651 -0.1564 -0.0072  0.2694
 2690TIP3    H229562   0.410   0.236  11.566 -0.8111  0.0157  0.0577
 2691TIP3   OH229563   3.031   0.768  14.101 -0.0590 -0.2421  0.2960
 2691TIP3    H129564   2.985   0.832  14.155  0.7850  0.8598 -0.2442
 2691TIP3    H229565   3.123   0.790  14.110  0.0957  0.3126 -1.9198
 2692TIP3   OH229566   0.275   4.151  12.103  0.4692  0.1603 -0.3769
 2692TIP3    H129567   0.243   4.211  12.036 -0.8422 -0.1175 -0.0197
 2692TIP3    H229568   0.274   4.065  12.062 -2.0279 -0.2958  0.4687
 2693TIP3   OH229569   0.130   3.664  15.663  1.0145  0.3094  0.6608
 2693TIP3    H129570   0.161   3.609  15.591  0.9694 -0.5603  1.2791
 2693TIP3    H229571   0.173   3.749  15.649 -0.1001  0.6201 -1.1578
 2694TIP3   OH229572   6.193   2.259   4.513  0.6381 -0.5388  0.7478
 2694TIP3    H129573   6.203   2.175   4.557  0.9167 -0.7479  0.2885
 2694TIP3    H229574   6.107   2.254   4.470  0.9678 -0.8770  0.1132
 2695TIP3   OH229575   1.833   3.244   4.272 -0.1143  0.5346  0.0917
 2695TIP3    H129576   1.924   3.214   4.271 -0.5008 -0.8347  1.5914
 2695TIP3    H229577   1.837   3.333   4.237  2.0401  1.1325  1.6174
 2696TIP3   OH229578   4.994   5.797  12.834  0.2117  0.1764  0.9047
 2696TIP3    H129579   4.901   5.811  12.818 -0.4493 -2.0551  2.3230
 2696TIP3    H229580   5.028   5.762  12.752 -0.4821 -0.1598  0.7594
 2697TIP3   OH229581   4.846   3.605   1.711 -0.2667  0.0572  0.2127
 2697TIP3    H129582   4.863   3.668   1.641  0.0584  0.2145  0.4342
 2697TIP3    H229583   4.926   3.552   1.716 -0.9399 -1.1149 -0.7301
 2698TIP3   OH229584   4.990   6.799  11.856  0.2187 -0.0917  0.1665
 2698TIP3    H129585   4.968   6.764  11.770 -0.1657 -0.5687  0.4504
 2698TIP3    H229586   5.003   6.721  11.911 -1.0692  0.1867  0.9183
 2699TIP3   OH229587   6.137   1.640   2.854 -0.0948 -0.2276  0.5177
 2699TIP3    H129588   6.139   1.586   2.775 -1.3726 -0.3764  0.5695
 2699TIP3    H229589   6.149   1.730   2.822 -1.4047 -0.1972  0.0427
 2700TIP3   OH229590   1.008   6.148   1.371 -0.4168  0.1781 -0.3819
 2700TIP3    H129591   0.935   6.087   1.381 -0.1928 -0.2691 -1.3264
 2700TIP3    H229592   0.988   6.196   1.291 -0.7563  1.6040  0.5370
 2701TIP3   OH229593   2.476   1.509  11.469  0.4889 -0.3787  0.4498
 2701TIP3    H129594   2.409   1.540  11.530  1.0876  0.3385  0.7545
 2701TIP3    H229595   2.493   1.419  11.495 -0.5436 -0.6679  0.1979
 2702TIP3   OH229596   5.995   3.717  16.304 -0.2787  0.5989 -0.7145
 2702TIP3    H129597   6.082   3.697  16.270 -0.0759 -1.3815  0.7864
 2702TIP3    H229598   6.006   3.717  16.399 -1.9003  0.2790 -0.4929
 2703TIP3   OH229599   3.634   1.683   0.426  0.0188 -0.2618  0.0510
 2703TIP3    H129600   3.595   1.605   0.465 -0.7922  0.6903  1.1789
 2703TIP3    H229601   3.708   1.704   0.484 -1.2994  1.2626  1.2458
 2704TIP3   OH229602   3.524   0.373   3.346  0.0242 -0.3434  0.4435
 2704TIP3    H129603   3.568   0.304   3.395  1.8303  0.4915  0.0726
 2704TIP3    H229604   3.475   0.421   3.413 -0.3701 -1.2974  0.8699
 2705TIP3   OH229605   3.806   6.423   0.518 -0.1920 -0.1433 -0.3646
 2705TIP3    H129606   3.724   6.392   0.481 -0.4496  2.0392 -1.7434
 2705TIP3    H229607   3.834   6.352   0.576 -2.2947 -1.5414 -0.9606
 2706TIP3   OH229608   0.988   4.059   5.667  0.2155  0.0343 -0.3629
 2706TIP3    H129609   0.893   4.050   5.665  0.0717  0.6263  1.6943
 2706TIP3    H229610   1.012   4.045   5.759  1.8645  2.1184 -0.3891
 2707TIP3   OH229611   4.853   6.148  13.402  0.0996  0.3833  0.5018
 2707TIP3    H129612   4.804   6.171  13.481  1.7323  0.1035  1.6294
 2707TIP3    H229613   4.854   6.229  13.350 -1.8824  0.2860  0.2213
 2708TIP3   OH229614   6.575   2.048   0.707  0.3492 -0.4292  0.3298
 2708TIP3    H129615   6.612   1.989   0.641 -0.2924 -1.1963  0.6204
 2708TIP3    H229616   6.638   2.047   0.779 -0.5556 -2.3866  1.1762
 2709TIP3   OH229617   4.561   3.109  17.050 -0.0929  0.2993 -0.1029
 2709TIP3    H129618   4.542   3.157  17.131 -0.3332  0.4850 -0.2682
 2709TIP3    H229619   4.478   3.070  17.025  0.0051  0.1559 -0.2042
 2710TIP3   OH229620   1.070   2.315  12.390 -0.0550 -0.0970 -0.6471
 2710TIP3    H129621   1.154   2.283  12.357 -0.3726  1.3136 -3.0272
 2710TIP3    H229622   1.072   2.409  12.374 -0.9613  0.4578  1.9956
 2711TIP3   OH229623   5.030   0.502   0.169  0.1327 -1.2329 -0.5540
 2711TIP3    H129624   5.123   0.480   0.158  0.5308  1.2871 -3.4077
 2711TIP3    H229625   5.029   0.565   0.241  0.2660 -2.7423  0.8472
 2712TIP3   OH229626   2.164   5.020   0.677 -0.2996  0.3586 -0.7974
 2712TIP3    H129627   2.209   4.955   0.730 -0.1954  0.2127 -1.0597
 2712TIP3    H229628   2.127   5.082   0.740 -0.7002 -0.1469 -0.5280
 2713TIP3   OH229629   1.873   2.006   5.920  0.1108 -0.3960 -0.0022
 2713TIP3    H129630   1.926   1.979   5.996 -0.3509  0.2777  0.5753
 2713TIP3    H229631   1.783   1.993   5.949 -0.1022  0.9844  0.0113
 2714TIP3   OH229632   6.481   1.922  14.289 -0.7370 -0.7279 -0.3543
 2714TIP3    H129633   6.502   1.916  14.196  0.1121 -2.2937 -0.0945
 2714TIP3    H229634   6.562   1.953  14.331 -1.0754 -0.1497 -0.1145
 2715TIP3   OH229635   2.093   1.357   3.827 -0.2603  0.3698  0.4778
 2715TIP3    H129636   2.173   1.395   3.862 -0.1603  0.6606 -0.0444
 2715TIP3    H229637   2.123   1.297   3.758 -0.5043  0.8381 -0.0465
 2716TIP3   OH229638   4.306   0.586   3.964  0.2078  0.0619  0.5020
 2716TIP3    H129639   4.300   0.598   4.058 -1.0816  0.1175  0.4313
 2716TIP3    H229640   4.263   0.664   3.927  0.8070  0.1023 -0.1331
 2717TIP3   OH229641   0.285   2.628  11.205  0.0038  0.2237  0.9502
 2717TIP3    H129642   0.372   2.667  11.200  0.5394 -0.9817  0.7705
 2717TIP3    H229643   0.260   2.638  11.297  0.2520  0.7247  0.9675
 2718TIP3   OH229644   2.519   4.506  13.489 -0.2081  0.0860 -0.0894
 2718TIP3    H129645   2.433   4.530  13.523 -1.0889 -0.7585 -1.6043
 2718TIP3    H229646   2.567   4.475  13.566 -2.3910 -2.5550  0.3481
 2719TIP3   OH229647   6.176   1.369  12.081  0.0930  0.2377 -0.3101
 2719TIP3    H129648   6.124   1.313  12.023  1.0478 -0.3349 -0.6475
 2719TIP3    H229649   6.165   1.330  12.167  0.7214 -0.4715 -0.5380
 2720TIP3   OH229650   2.280   6.744   6.075  0.2202  0.2353 -0.2123
 2720TIP3    H129651   2.230   6.681   6.127 -1.4802  0.9731 -0.8742
 2720TIP3    H229652   2.224   6.821   6.070  2.4622  2.0629  1.0304
 2721TIP3   OH229653   5.368   4.002  16.320 -0.1690  0.1424 -0.3707
 2721TIP3    H129654   5.342   4.093  16.311  1.3234  0.5794 -0.4746
 2721TIP3    H229655   5.418   3.983  16.240  0.1358 -0.5480 -0.0257
 2722TIP3   OH229656   2.604   4.970  11.381  0.1874  0.3945 -0.0566
 2722TIP3    H129657   2.514   4.984  11.411  0.3200  1.3873 -0.0757
 2722TIP3    H229658   2.613   5.028  11.305  0.4539 -0.6520 -0.8371
 2723TIP3   OH229659   0.414   0.303  13.241 -0.1559 -0.1096  0.1519
 2723TIP3    H129660   0.447   0.391  13.259  0.7406 -0.5765  0.8413
 2723TIP3    H229661   0.383   0.271  13.326 -1.9618  0.1229 -0.3787
 2724TIP3   OH229662   6.657   4.845   0.445  0.2336  0.0366 -0.0916
 2724TIP3    H129663   6.727   4.900   0.481 -0.0550  0.7629 -0.6128
 2724TIP3    H229664   6.701   4.763   0.422  0.9585  0.5425 -0.5534
 2725TIP3   OH229665   3.877   2.910   2.253 -0.1610  0.1961 -0.0969
 2725TIP3    H129666   3.902   2.820   2.232 -1.1436 -0.3914  1.1638
 2725TIP3    H229667   3.790   2.903   2.291  0.3086  1.5060  1.3393
 2726TIP3   OH229668   5.700   3.381   3.660 -0.0284 -0.0606  0.2786
 2726TIP3    H129669   5.667   3.439   3.729  0.8703  0.6642  0.1185
 2726TIP3    H229670   5.666   3.295   3.683 -3.0097  0.7926 -0.5210
 2727TIP3   OH229671   2.620   0.842   5.441 -0.0455  0.1351  0.5233
 2727TIP3    H129672   2.629   0.808   5.352  0.0380  0.1234  0.5361
 2727TIP3    H229673   2.526   0.842   5.458  0.0106 -1.1259  0.9242
 2728TIP3   OH229674   5.129   2.391   2.977 -0.3908  0.0461  0.3282
 2728TIP3    H129675   5.165   2.314   3.021 -0.0640 -0.3976 -0.7009
 2728TIP3    H229676   5.111   2.453   3.049  0.5941 -0.4639  1.0356
 2729TIP3   OH229677   1.108   3.977  15.220 -0.2290 -0.4488 -0.4643
 2729TIP3    H129678   1.195   4.014  15.207  0.0973 -0.7957  0.6590
 2729TIP3    H229679   1.116   3.921  15.297 -1.8542  0.9317  0.7885
 2730TIP3   OH229680   6.737   2.395  14.408 -0.1441 -0.1890  0.1182
 2730TIP3    H129681   6.687   2.370  14.330 -2.6946  2.3255  0.7933
 2730TIP3    H229682   6.807   2.451  14.375 -1.0420  0.6372 -0.4496
 2731TIP3   OH229683   1.451   6.811  14.228  0.0769 -0.1487  0.1888
 2731TIP3    H129684   1.463   6.906  14.223 -0.8923 -0.0904 -2.9786
 2731TIP3    H229685   1.538   6.775  14.211  0.6356  0.1047  2.2803
 2732TIP3   OH229686   2.299   1.596   5.176 -0.3491 -0.0971  0.4110
 2732TIP3    H129687   2.312   1.682   5.136  0.3590 -0.2956  0.1961
 2732TIP3    H229688   2.273   1.539   5.103 -0.5299 -0.1284  0.4999
 2733TIP3   OH229689   1.652   1.623   1.162  0.0492 -0.8998  0.3584
 2733TIP3    H129690   1.728   1.668   1.124 -1.7113  2.1149  0.0726
 2733TIP3    H229691   1.662   1.532   1.134  2.3053 -0.1365 -1.6819
 2734TIP3   OH229692   6.421   0.927   4.270 -0.0349  0.1375  0.2095
 2734TIP3    H129693   6.349   0.914   4.208  1.0628 -1.1914 -0.8479
 2734TIP3    H229694   6.488   0.865   4.243  1.5828  1.4136  1.0785
 2735TIP3   OH229695   1.041   3.446  16.376 -0.5723  0.1214 -0.0159
 2735TIP3    H129696   1.055   3.511  16.445  3.0739 -0.4355 -0.0512
 2735TIP3    H229697   1.048   3.496  16.294 -0.2420  0.0923 -0.0089
 2736TIP3   OH229698   3.197   4.695  13.538 -0.1131 -0.2922 -0.1346
 2736TIP3    H129699   3.174   4.602  13.548  1.3879 -0.8499 -1.4854
 2736TIP3    H229700   3.125   4.731  13.486 -0.1879 -0.9532 -0.5065
 2737TIP3   OH229701   3.796   3.941   3.717  0.2460  0.1875  0.1047
 2737TIP3    H129702   3.769   3.925   3.807  0.5830 -1.6549 -0.0895
 2737TIP3    H229703   3.746   4.018   3.690 -0.9931 -0.1420  1.3699
 2738TIP3   OH229704   2.668   5.715   4.961  0.7130 -0.2327 -0.0765
 2738TIP3    H129705   2.703   5.661   5.032  1.0069  1.3872  1.0783
 2738TIP3    H229706   2.734   5.782   4.947  1.1207 -1.0955 -2.6410
 2739TIP3   OH229707   6.386   6.332  14.200 -0.5128 -0.0110  0.4748
 2739TIP3    H129708   6.463   6.384  14.224 -1.8714  1.1649  2.5664
 2739TIP3    H229709   6.365   6.360  14.111 -0.4644  2.1566  1.0990
 2740TIP3   OH229710   6.314   5.630  12.267 -0.3647 -0.0498 -0.0735
 2740TIP3    H129711   6.395   5.627  12.318 -0.4682 -1.5278  0.0290
 2740TIP3    H229712   6.275   5.544  12.279 -1.5474  0.3667 -0.7991
 2741TIP3   OH229713   1.572   3.034  12.902 -0.5899  0.0695  0.0501
 2741TIP3    H129714   1.654   3.082  12.910  0.1982 -1.4888  2.8745
 2741TIP3    H229715   1.504   3.101  12.902  0.5977  1.3306 -1.1065
 2742TIP3   OH229716   0.456   6.455  16.459  0.5252  0.3227 -0.1214
 2742TIP3    H129717   0.362   6.449  16.439  0.5338  0.6679 -0.2806
 2742TIP3    H229718   0.462   6.519  16.530  0.7242  1.0885 -0.8106
 2743TIP3   OH229719   4.743   0.106  13.933  0.0625 -0.0708 -0.4348
 2743TIP3    H129720   4.735   0.124  14.027 -0.5364 -0.2396 -0.4478
 2743TIP3    H229721   4.683   0.167  13.891  1.0473  0.6827 -0.7977
 2744TIP3   OH229722   3.481   2.763   0.375 -0.9236  0.0895  0.2697
 2744TIP3    H129723   3.488   2.842   0.428 -1.3835 -0.7834  1.6956
 2744TIP3    H229724   3.388   2.753   0.358 -0.9357 -0.4672  0.6314
 2745TIP3   OH229725   2.408   4.440  16.181  0.0135  0.4353  0.2261
 2745TIP3    H129726   2.435   4.426  16.272 -1.5480  1.1528  0.8333
 2745TIP3    H229727   2.397   4.534  16.173 -0.8611  0.2917 -0.4099
 2746TIP3   OH229728   1.833   5.209  14.392  0.3869  0.0558 -0.5285
 2746TIP3    H129729   1.850   5.130  14.341  0.1824 -0.3214 -0.0166
 2746TIP3    H229730   1.831   5.180  14.482 -2.3552  0.1681 -0.4812
 2747TIP3   OH229731   0.915   3.574  16.843 -0.1535 -0.1136 -0.2303
 2747TIP3    H129732   0.881   3.502  16.790  1.1807 -0.8275 -0.1735
 2747TIP3    H229733   0.876   3.561  16.930 -0.5955 -0.2543 -0.4487
 2748TIP3   OH229734   0.392   3.264  15.862  0.1009 -0.5919  0.2253
 2748TIP3    H129735   0.414   3.221  15.779  0.9632  1.1253 -0.4901
 2748TIP3    H229736   0.312   3.312  15.844 -0.6562 -1.5548  0.9127
 2749TIP3   OH229737   5.676   1.638   0.084  0.1049 -0.1327 -0.0334
 2749TIP3    H129738   5.662   1.732   0.070 -0.0284 -0.2620 -0.7963
 2749TIP3    H229739   5.638   1.622   0.171 -0.1673  0.4572 -0.0334
 2750TIP3   OH229740   5.600   0.627  16.469 -1.0440  0.3956 -0.2814
 2750TIP3    H129741   5.512   0.588  16.470 -0.8636 -0.0132 -0.0448
 2750TIP3    H229742   5.620   0.640  16.377  0.4775 -3.7147 -0.7427
 2751TIP3   OH229743   4.380   4.632  13.393  0.4847 -0.1440  0.3860
 2751TIP3    H129744   4.292   4.610  13.363  1.1479 -2.7521  0.0990
 2751TIP3    H229745   4.367   4.678  13.476 -1.1392 -0.8348  0.5517
 2752TIP3   OH229746   3.261   3.743  16.282  0.0983  0.0600  0.9495
 2752TIP3    H129747   3.323   3.813  16.261  0.4615 -0.6664 -0.4754
 2752TIP3    H229748   3.303   3.663  16.252 -1.4334 -0.4755  0.1091
 2753TIP3   OH229749   4.454   5.905   3.424 -0.4434 -0.1719  0.3277
 2753TIP3    H129750   4.383   5.842   3.411  0.0608 -1.2070  2.1811
 2753TIP3    H229751   4.488   5.885   3.511  3.0158 -0.6335 -0.9566
 2754TIP3   OH229752   3.569   5.292   5.404 -0.0292  0.8321  0.0222
 2754TIP3    H129753   3.491   5.341   5.432 -0.0571  1.6522 -1.4057
 2754TIP3    H229754   3.622   5.356   5.356 -0.3031 -0.5881 -2.3555
 2755TIP3   OH229755   1.326   5.752  15.926  0.6007 -0.1242 -0.3422
 2755TIP3    H129756   1.244   5.720  15.961 -0.2481  0.3814 -1.7760
 2755TIP3    H229757   1.311   5.846  15.911  1.3906 -0.0470 -0.7321
 2756TIP3   OH229758   3.325   3.344  11.269  0.6720  0.3923 -0.8080
 2756TIP3    H129759   3.330   3.439  11.265 -0.1534  0.4673 -0.2031
 2756TIP3    H229760   3.406   3.314  11.226  0.1113  1.3234 -2.6138
 2757TIP3   OH229761   0.573   6.275   2.409  0.0643 -0.1665 -0.4047
 2757TIP3    H129762   0.536   6.308   2.327 -1.0052  0.3555  0.2654
 2757TIP3    H229763   0.516   6.201   2.433 -0.3289  0.3836  0.4228
 2758TIP3   OH229764   1.757   0.611   3.124 -0.0532 -0.4228 -0.5640
 2758TIP3    H129765   1.813   0.628   3.048 -0.1680  1.4559 -0.2701
 2758TIP3    H229766   1.680   0.567   3.088  1.2461 -2.4275 -1.0693
 2759TIP3   OH229767   2.697   2.718   6.101  0.6122 -0.2100 -0.1257
 2759TIP3    H129768   2.762   2.742   6.034  0.4159  2.0409  0.4036
 2759TIP3    H229769   2.613   2.744   6.063  0.6705  3.3573  1.7525
 2760TIP3   OH229770   1.715   0.274   0.014 -0.0407 -0.1439 -0.4064
 2760TIP3    H129771   1.639   0.289  -0.042 -0.8062  1.0353  0.8827
 2760TIP3    H229772   1.773   0.347  -0.005 -0.3345  0.3001  0.3547
 2761TIP3   OH229773   3.704   0.946   1.803  0.0407  0.8194 -0.6355
 2761TIP3    H129774   3.634   1.010   1.813  0.5041  1.1398  0.8903
 2761TIP3    H229775   3.697   0.916   1.713 -3.8429 -1.2404  0.1517
 2762TIP3   OH229776   4.233   1.715   1.254  0.0387  0.4276 -0.3800
 2762TIP3    H129777   4.229   1.780   1.185 -0.9417  1.3615  0.5192
 2762TIP3    H229778   4.218   1.764   1.335  1.8524 -0.5224  0.5930
 2763TIP3   OH229779   5.543   3.670   5.109 -0.5253 -0.3948 -0.0925
 2763TIP3    H129780   5.622   3.665   5.055 -1.5866 -3.1175 -1.6159
 2763TIP3    H229781   5.484   3.728   5.062 -0.0599  0.3137  0.1846
 2764TIP3   OH229782   1.117   4.793   4.094  0.2463 -0.4013  0.6338
 2764TIP3    H129783   1.096   4.704   4.067  0.1343 -0.2787  0.3125
 2764TIP3    H229784   1.212   4.800   4.083  0.0757 -0.0328 -0.6986
 2765TIP3   OH229785   1.724   3.863   5.228 -0.3339 -0.3370  0.3923
 2765TIP3    H129786   1.790   3.889   5.164 -1.1047  0.6099 -0.0351
 2765TIP3    H229787   1.701   3.773   5.203  1.4258 -1.0333  1.1104
 2766TIP3   OH229788   2.887   1.606  12.351  1.0702  0.0723 -0.1011
 2766TIP3    H129789   2.821   1.661  12.309  0.7954  1.4545  1.9510
 2766TIP3    H229790   2.840   1.529  12.381  0.5303  0.6660  0.6140
 2767TIP3   OH229791   1.006   6.322   5.155 -0.5046  0.3921  0.4987
 2767TIP3    H129792   0.916   6.355   5.148 -0.6354  0.5405  2.3372
 2767TIP3    H229793   1.053   6.392   5.200 -0.1099 -0.7244  1.8915
 2768TIP3   OH229794   2.563   0.479   0.164 -0.7247  0.0975 -0.1649
 2768TIP3    H129795   2.537   0.391   0.193 -3.0541  0.4511 -0.9961
 2768TIP3    H229796   2.643   0.464   0.114 -0.5464 -1.4193  0.4931
 2769TIP3   OH229797   3.418   5.203  13.780 -0.3845  0.1525 -0.4488
 2769TIP3    H129798   3.383   5.114  13.787  0.0484  0.0503  0.4583
 2769TIP3    H229799   3.353   5.258  13.825 -1.8801  0.6634 -3.0153
 2770TIP3   OH229800   3.263   3.368   6.987 -0.3607  0.2119  0.5450
 2770TIP3    H129801   3.298   3.332   6.905 -0.8540  0.4971  0.2067
 2770TIP3    H229802   3.243   3.459   6.967 -1.8421 -0.0801  0.5439
 2771TIP3   OH229803   1.655   0.756   0.438  0.1893  0.2347 -0.3745
 2771TIP3    H129804   1.566   0.790   0.440 -0.6487 -1.6113  2.9632
 2771TIP3    H229805   1.703   0.809   0.502  0.5356 -0.7568  0.2336
 2772TIP3   OH229806   3.045   3.279  13.605  0.1320 -0.3899 -0.0208
 2772TIP3    H129807   3.099   3.260  13.682 -1.1251 -0.3087  0.9123
 2772TIP3    H229808   2.987   3.203  13.597 -0.4824  0.0978 -0.2296
 2773TIP3   OH229809   6.502   4.279  15.304  0.4252 -0.0383 -0.2371
 2773TIP3    H129810   6.525   4.300  15.394 -1.4591  0.2497  0.2243
 2773TIP3    H229811   6.471   4.361  15.267  1.5339 -0.0682 -1.2918
 2774TIP3   OH229812   1.027   1.528  12.147  0.3115  0.2758  0.2658
 2774TIP3    H129813   1.064   1.509  12.234  0.6194  0.4239  0.1683
 2774TIP3    H229814   0.934   1.545  12.164  0.1172 -0.8174  0.4307
 2775TIP3   OH229815   5.400   6.173   4.272  0.1474  0.4736 -0.3954
 2775TIP3    H129816   5.451   6.102   4.233  0.4052  0.9987 -1.0333
 2775TIP3    H229817   5.421   6.168   4.366  0.3289 -0.1517 -0.4607
 2776TIP3   OH229818   2.916   2.679   0.971  0.1373  0.4800 -0.3520
 2776TIP3    H129819   3.008   2.702   0.983 -0.1688  0.7451  1.9078
 2776TIP3    H229820   2.870   2.763   0.980 -0.3762  0.3131 -1.2598
 2777TIP3   OH229821   1.434   0.301  15.339  0.3558 -1.0754  0.0002
 2777TIP3    H129822   1.456   0.345  15.256 -0.6029 -0.5092  0.0294
 2777TIP3    H229823   1.482   0.218  15.335  0.1436 -1.1685 -1.2410
 2778TIP3   OH229824   2.626   2.084   5.347 -0.0611 -0.0301 -0.0011
 2778TIP3    H129825   2.548   2.030   5.360  0.2339 -0.1835  1.2207
 2778TIP3    H229826   2.594   2.174   5.346 -0.1511 -0.0221  1.5975
 2779TIP3   OH229827   0.446   4.297   4.263  0.0336  0.2377  0.2206
 2779TIP3    H129828   0.398   4.247   4.329  0.9571 -0.7701  0.1489
 2779TIP3    H229829   0.379   4.349   4.219 -0.9976 -1.1532  0.0926
 2780TIP3   OH229830   4.623   0.945  14.360 -0.5667  0.6772 -0.2470
 2780TIP3    H129831   4.628   0.909  14.449 -0.5095  1.4520  0.0717
 2780TIP3    H229832   4.534   0.927  14.332 -0.3257 -0.3649 -0.3809
 2781TIP3   OH229833   5.379   5.360   0.884  0.5381  0.5352 -0.7616
 2781TIP3    H129834   5.377   5.378   0.790 -0.6478  0.0662 -0.8299
 2781TIP3    H229835   5.374   5.264   0.891 -0.2000  0.6067 -0.2021
 2782TIP3   OH229836   5.478   4.125   0.664  0.1321 -0.1700 -0.2508
 2782TIP3    H129837   5.560   4.077   0.670 -1.0859 -2.1538  1.9538
 2782TIP3    H229838   5.437   4.092   0.584  0.4898 -0.8615 -0.1565
 2783TIP3   OH229839   3.627   3.974  13.532  0.5039 -0.5779 -0.1809
 2783TIP3    H129840   3.661   3.934  13.613 -3.5988  1.0126  2.6425
 2783TIP3    H229841   3.565   3.909  13.499  2.0492 -1.1488 -2.1234
 2784TIP3   OH229842   0.199   4.183  16.326 -0.5494 -0.2020  0.3042
 2784TIP3    H129843   0.167   4.212  16.411  0.4468 -2.5265  1.5504
 2784TIP3    H229844   0.203   4.088  16.332 -1.2645 -0.5297 -2.6697
 2785TIP3   OH229845   5.740   0.380   3.166  0.1978 -0.4596  0.4319
 2785TIP3    H129846   5.812   0.429   3.208  0.6877  1.4606 -2.3533
 2785TIP3    H229847   5.784   0.316   3.110 -0.2535  0.1335 -0.6257
 2786TIP3   OH229848   3.193   3.672  13.029  0.0139  0.4971  0.0062
 2786TIP3    H129849   3.152   3.744  13.077 -1.6930  0.1128 -0.8412
 2786TIP3    H229850   3.156   3.593  13.068  0.7372  0.1013 -0.0904
 2787TIP3   OH229851   0.289   6.813   6.030  0.1300  0.1216  0.1521
 2787TIP3    H129852   0.284   6.730   5.983  1.7568  0.9395 -1.6496
 2787TIP3    H229853   0.298   6.879   5.960  0.1439  1.6784  1.5568
 2788TIP3   OH229854   1.568   6.826  12.453  0.2359 -0.7017 -0.3700
 2788TIP3    H129855   1.476   6.849  12.469  0.3235 -0.4899 -0.1672
 2788TIP3    H229856   1.571   6.803  12.360  0.1667  0.2171 -0.6040
 2789TIP3   OH229857   6.337   1.541  15.861 -0.1869  0.0071 -0.3456
 2789TIP3    H129858   6.367   1.631  15.873  0.2551 -0.2283  0.4027
 2789TIP3    H229859   6.259   1.533  15.916  0.0776 -0.2149 -0.0006
 2790TIP3   OH229860   3.993   5.219  15.810 -0.0800 -0.0053 -0.3584
 2790TIP3    H129861   4.007   5.310  15.839  0.1568 -0.2593  0.3462
 2790TIP3    H229862   3.932   5.227  15.737  1.4737  0.8979 -1.6456
 2791TIP3   OH229863   1.596   1.707  11.798  0.1169 -0.0988 -0.1053
 2791TIP3    H129864   1.556   1.770  11.739  1.6331  0.0279 -1.0474
 2791TIP3    H229865   1.559   1.728  11.884 -2.1486 -0.3057 -0.9532
 2792TIP3   OH229866   1.273   6.371   1.411 -0.5196  0.6444  0.4355
 2792TIP3    H129867   1.242   6.398   1.497 -2.1588 -0.5704  0.2713
 2792TIP3    H229868   1.224   6.291   1.392 -0.3410  0.9974 -1.7268
 2793TIP3   OH229869   3.345   1.854  15.872 -0.7550  0.0763  0.1069
 2793TIP3    H129870   3.261   1.891  15.844 -0.7609 -0.4223 -0.5625
 2793TIP3    H229871   3.404   1.867  15.797  0.7643  3.3238  1.6576
 2794TIP3   OH229872   2.282   0.155   5.425 -0.1199 -0.2847  0.0174
 2794TIP3    H129873   2.230   0.129   5.349 -0.3424  0.5973 -0.1349
 2794TIP3    H229874   2.373   0.150   5.394 -0.1037 -1.5353  0.1972
 2795TIP3   OH229875   0.950   5.728   2.310  0.5086  0.5633 -0.6267
 2795TIP3    H129876   0.911   5.734   2.398  0.1470  1.4643 -0.8322
 2795TIP3    H229877   1.015   5.658   2.317  0.1560  0.3078  0.2348
 2796TIP3   OH229878   1.553   6.129  11.948  0.2328  0.3716 -0.1681
 2796TIP3    H129879   1.624   6.126  11.883  0.2113  1.2183 -0.2429
 2796TIP3    H229880   1.494   6.197  11.915 -0.8391 -0.6197 -0.3232
 2797TIP3   OH229881   3.206   2.919   3.683 -0.3574  0.2566 -0.6141
 2797TIP3    H129882   3.169   2.831   3.687 -0.4496  0.2945 -0.6370
 2797TIP3    H229883   3.140   2.975   3.724 -0.3431  0.3308 -0.6921
 2798TIP3   OH229884   3.606   0.391   4.034  0.2687 -0.3888 -0.1054
 2798TIP3    H129885   3.526   0.412   4.082  0.7012  0.1085  0.4162
 2798TIP3    H229886   3.576   0.343   3.957 -0.4971 -0.5882  0.3049
 2799TIP3   OH229887   4.140   3.602   1.094 -0.4533  0.2959  0.5767
 2799TIP3    H129888   4.061   3.552   1.118  1.0060 -1.4691  1.9929
 2799TIP3    H229889   4.165   3.646   1.175 -1.6719  3.5004 -0.6174
 2800TIP3   OH229890   6.367   1.738  12.509 -0.2140  0.4230  0.2323
 2800TIP3    H129891   6.325   1.702  12.587 -1.7187  0.3113 -0.5952
 2800TIP3    H229892   6.308   1.808  12.481 -0.4092 -0.4122 -1.5593
 2801TIP3   OH229893   6.481   1.358  12.067 -0.9426  0.3320 -0.3453
 2801TIP3    H129894   6.432   1.320  12.140  0.3667  0.1903  0.5040
 2801TIP3    H229895   6.517   1.282  12.021  0.7865  0.4325  0.7227
 2802TIP3   OH229896   4.152   3.923   1.428 -0.3765 -0.6694 -0.2813
 2802TIP3    H129897   4.087   3.852   1.427 -1.3608  0.2046  0.2185
 2802TIP3    H229898   4.162   3.948   1.336  0.2706 -1.6943 -0.5100
 2803TIP3   OH229899   1.849   1.084   2.128  0.4878 -0.0610  0.3004
 2803TIP3    H129900   1.803   1.086   2.211 -1.0452 -2.4686 -0.3932
 2803TIP3    H229901   1.885   0.995   2.123 -0.1802 -0.2620 -1.9367
 2804TIP3   OH229902   0.044   6.598  12.662  0.4518  0.2739 -0.2498
 2804TIP3    H129903   0.103   6.665  12.628  0.2761  0.6611  0.1977
 2804TIP3    H229904  -0.023   6.647  12.709  0.4729 -0.2335  0.3169
 2805TIP3   OH229905   0.292   2.373  12.752 -0.3510 -0.0374  0.4633
 2805TIP3    H129906   0.232   2.328  12.693 -3.1753  0.3352  2.8159
 2805TIP3    H229907   0.333   2.302  12.803  0.5853 -0.2385 -0.5284
 2806TIP3   OH229908   5.779   0.567  13.524 -0.2346 -0.2501  0.2408
 2806TIP3    H129909   5.755   0.576  13.616 -0.3188  0.6850  0.1357
 2806TIP3    H229910   5.793   0.473  13.512 -1.9153 -0.6159  0.7883
 2807TIP3   OH229911   2.890   4.744   1.522 -0.3794  0.2581 -0.4037
 2807TIP3    H129912   2.850   4.782   1.600  1.5276  3.7436 -0.9560
 2807TIP3    H229913   2.855   4.795   1.449  2.2471  1.0910 -1.1967
 2808TIP3   OH229914   2.293   3.299  12.655  0.2908 -0.0815  0.2964
 2808TIP3    H129915   2.244   3.216  12.651  2.1871 -1.2879  0.8582
 2808TIP3    H229916   2.374   3.281  12.608  1.2994  1.0648  1.5325
 2809TIP3   OH229917   2.409   1.635  15.579 -0.1109  0.4269 -0.2585
 2809TIP3    H129918   2.431   1.713  15.631 -0.5467  0.7802 -0.5951
 2809TIP3    H229919   2.321   1.612  15.607 -0.1127  0.2544 -0.4055
 2810TIP3   OH229920   2.468   3.880  15.133  0.3993  0.3202 -0.5798
 2810TIP3    H129921   2.477   3.799  15.081 -1.7558  0.3914 -1.1607
 2810TIP3    H229922   2.460   3.949  15.068 -2.0058  0.4528 -0.2284
 2811TIP3   OH229923   4.494   1.414  16.812  0.1914  0.4420  0.0893
 2811TIP3    H129924   4.482   1.500  16.850  0.9829 -0.2586  2.0270
 2811TIP3    H229925   4.529   1.360  16.883  0.7228 -1.2161 -1.3475
 2812TIP3   OH229926   5.765   1.613   4.611  0.0308 -0.2157 -0.0493
 2812TIP3    H129927   5.786   1.637   4.701  0.2683  1.4303 -0.5177
 2812TIP3    H229928   5.851   1.604   4.569 -0.0217  2.7976 -1.0202
 2813TIP3   OH229929   4.940   4.755  14.916  0.2715 -0.2836  0.1736
 2813TIP3    H129930   4.914   4.674  14.960 -0.4961  0.3848  1.0139
 2813TIP3    H229931   5.030   4.741  14.890  0.2140 -1.3312  0.5013
 2814TIP3   OH229932   0.538   4.509   2.285 -0.3849  0.2434  0.1258
 2814TIP3    H129933   0.450   4.506   2.247 -0.6710  0.3597  0.7562
 2814TIP3    H229934   0.525   4.547   2.372 -0.2739 -2.9285  1.6934
 2815TIP3   OH229935   2.004   2.503   5.681  0.3944  0.2285  0.1022
 2815TIP3    H129936   1.915   2.468   5.672 -1.0306  3.3638  0.7085
 2815TIP3    H229937   2.021   2.501   5.775 -0.0248  1.7733  0.2280
 2816TIP3   OH229938   4.230   1.341   5.852 -0.1077  0.0322 -0.3609
 2816TIP3    H129939   4.211   1.420   5.800  0.1696 -1.0157 -2.1258
 2816TIP3    H229940   4.182   1.271   5.807  1.9501 -1.3331 -0.5582
 2817TIP3   OH229941   6.469   5.510  11.735 -1.1579  0.2656 -0.1235
 2817TIP3    H129942   6.437   5.462  11.658  0.4747 -0.0122 -0.6506
 2817TIP3    H229943   6.448   5.601  11.716 -2.5984 -0.0043  0.0451
 2818TIP3   OH229944   1.605   0.344  16.449  0.4708  0.1149  0.4166
 2818TIP3    H129945   1.678   0.405  16.445  2.4874 -2.2082 -2.9304
 2818TIP3    H229946   1.537   0.384  16.394  1.1651  0.1218 -0.4589
 2819TIP3   OH229947   5.872   3.216   5.567  0.5798 -0.8219 -0.4914
 2819TIP3    H129948   5.852   3.308   5.549 -1.3396 -0.9656  0.5859
 2819TIP3    H229949   5.885   3.177   5.480 -2.2076 -0.2376 -1.2700
 2820TIP3   OH229950   1.764   0.112   6.615 -0.0704 -0.8099  0.2519
 2820TIP3    H129951   1.857   0.092   6.624  0.0261 -1.9096 -2.3500
 2820TIP3    H229952   1.761   0.181   6.549 -1.1512 -1.7376 -0.7026
 2821TIP3   OH229953   5.784   1.286  14.210  0.5722 -0.1381 -0.1021
 2821TIP3    H129954   5.712   1.259  14.153 -0.7722  1.8131  0.5585
 2821TIP3    H229955   5.754   1.266  14.298  1.8334 -1.3713  0.0912
 2822TIP3   OH229956   5.558   1.015  12.826  0.3683 -0.2144 -0.9645
 2822TIP3    H129957   5.614   1.091  12.846  0.3077 -0.4655  0.2221
 2822TIP3    H229958   5.562   0.961  12.904 -1.7746 -0.1019 -0.7328
 2823TIP3   OH229959   0.625   1.472  14.598 -0.0729  0.1307  0.4936
 2823TIP3    H129960   0.623   1.553  14.547  0.3493 -0.1474  0.0297
 2823TIP3    H229961   0.651   1.405  14.535 -2.1808 -0.7044  0.4234
 2824TIP3   OH229962   2.167   0.014  13.830  0.4156  0.4369  0.3804
 2824TIP3    H129963   2.109  -0.059  13.852 -0.4263  1.3248  1.1317
 2824TIP3    H229964   2.247  -0.029  13.798 -0.7818 -0.8149 -1.1379
 2825TIP3   OH229965   2.387   0.936  15.871  0.0394 -0.1919  0.4584
 2825TIP3    H129966   2.353   1.024  15.888 -0.8967 -0.6444  0.9832
 2825TIP3    H229967   2.357   0.883  15.945  1.2725 -0.7907  0.5602
 2826TIP3   OH229968   2.779   2.020  13.641 -0.9847 -0.3935  0.1111
 2826TIP3    H129969   2.797   2.085  13.709  1.1583  0.3980 -1.1113
 2826TIP3    H229970   2.725   1.954  13.685 -0.7472  0.7153  2.2145
 2827TIP3   OH229971   4.130   5.904   4.756 -0.2481 -0.5065  0.6171
 2827TIP3    H129972   4.212   5.855   4.759  0.3084  0.3848  0.5873
 2827TIP3    H229973   4.090   5.880   4.673  0.6579  0.0564 -0.0072
 2828TIP3   OH229974   3.502   6.781   0.045 -0.5161  0.1144  0.8376
 2828TIP3    H129975   3.576   6.722   0.055 -0.0964  0.3590 -0.5798
 2828TIP3    H229976   3.452   6.772   0.126  0.7141 -0.5342  1.5424
 2829TIP3   OH229977   3.991   4.143  11.043  0.0028  0.0229  0.6424
 2829TIP3    H129978   3.990   4.060  10.995 -0.5384 -0.0707  0.8065
 2829TIP3    H229979   4.084   4.161  11.058  0.3101  0.9119 -1.9088
 2830TIP3   OH229980   4.190   0.049   0.080 -0.1915 -0.2217 -0.4811
 2830TIP3    H129981   4.194   0.065   0.174  1.4305 -2.3391 -0.1015
 2830TIP3    H229982   4.222  -0.041   0.070 -1.1752 -0.3731 -2.9861
 2831TIP3   OH229983   6.309   6.037  15.109 -0.2112  0.0157 -0.5403
 2831TIP3    H129984   6.344   6.099  15.173  1.7207  1.2262 -2.5960
 2831TIP3    H229985   6.373   5.966  15.107  0.5832  0.7164 -2.1046
 2832TIP3   OH229986   0.820   5.938   1.431 -0.1183 -0.1648  0.0459
 2832TIP3    H129987   0.811   5.847   1.459  0.0592 -0.2410 -0.1426
 2832TIP3    H229988   0.789   5.989   1.505  0.4475 -0.3595  0.4238
 2833TIP3   OH229989   4.386   5.374  11.548  0.0783 -0.2584 -0.4649
 2833TIP3    H129990   4.440   5.355  11.625  1.2157  0.0711 -1.1614
 2833TIP3    H229991   4.331   5.296  11.537  1.1814 -1.0648 -0.3795
 2834TIP3   OH229992   2.247   2.652   2.975 -0.0694  0.1451 -0.9380
 2834TIP3    H129993   2.257   2.561   3.003  2.3436  0.9250  1.0923
 2834TIP3    H229994   2.223   2.699   3.055 -0.2770  1.4536 -1.7432
 2835TIP3   OH229995   5.018   0.519  13.278  0.5733 -0.0544 -0.2465
 2835TIP3    H129996   5.037   0.558  13.193  2.9846 -1.8326 -0.6420
 2835TIP3    H229997   5.105   0.507  13.318 -0.3531 -1.2204  1.5415
 2836TIP3   OH229998   2.413   0.446  14.588 -0.7056  0.2432 -0.4542
 2836TIP3    H129999   2.418   0.517  14.652 -1.8334 -0.8594  0.9207
 2836TIP3    H230000   2.487   0.389  14.609 -0.5672  0.3301 -0.7028
 2837TIP3   OH230001   1.475   3.061  17.003  0.1068 -0.2836  0.2535
 2837TIP3    H130002   1.452   3.037  16.914  0.1804 -1.7878  0.6125
 2837TIP3    H230003   1.478   3.156  17.003 -2.9000 -0.1037 -0.6050
 2838TIP3   OH230004   1.325   1.297  15.021  0.1808 -0.2151  0.3798
 2838TIP3    H130005   1.407   1.345  15.026 -0.5235  1.0121  0.4493
 2838TIP3    H230006   1.352   1.207  15.001  1.4750  0.4928 -1.4424
 2839TIP3   OH230007   0.926   0.065  16.200  0.4882  0.1573 -0.6118
 2839TIP3    H130008   1.019   0.065  16.221  0.6408 -0.1644 -1.2649
 2839TIP3    H230009   0.903   0.158  16.195  0.9581  0.2483 -1.2204
 2840TIP3   OH230010   4.499   0.896   1.373 -0.0176  0.0685 -0.2296
 2840TIP3    H130011   4.526   0.833   1.306  1.4428  0.8835 -0.4470
 2840TIP3    H230012   4.553   0.974   1.356 -2.1292  1.6129 -0.3095
 2841TIP3   OH230013   0.667   4.774  11.372 -1.0462 -0.2817  1.0587
 2841TIP3    H130014   0.650   4.847  11.313  2.2972 -1.1468 -1.2064
 2841TIP3    H230015   0.723   4.810  11.440 -0.2530 -0.4990  0.5241
 2842TIP3   OH230016   0.365   5.094   4.441 -0.1262  0.0735 -0.3072
 2842TIP3    H130017   0.428   5.083   4.370  0.3655 -0.0951  0.1537
 2842TIP3    H230018   0.279   5.090   4.397  0.1863  1.3847 -1.0911
 2843TIP3   OH230019   6.358   1.128   0.235  0.1329 -0.1091 -0.2010
 2843TIP3    H130020   6.423   1.079   0.185 -0.6257 -0.2992 -1.0096
 2843TIP3    H230021   6.392   1.218   0.235  0.2898 -0.1656 -0.7982
 2844TIP3   OH230022   0.242   3.430   6.340  0.1913  0.3013 -0.2466
 2844TIP3    H130023   0.204   3.343   6.328  0.0385  0.3424 -0.0611
 2844TIP3    H230024   0.179   3.489   6.301 -0.3646  0.4469  0.8423
 2845TIP3   OH230025   6.312   5.212   2.097  0.4785 -0.3635 -0.3651
 2845TIP3    H130026   6.347   5.124   2.080  1.1441 -0.3341  0.7201
 2845TIP3    H230027   6.286   5.245   2.011  0.9170 -1.3363 -0.8877
 2846TIP3   OH230028   3.360   0.580  11.917 -0.2062  0.0741  0.0926
 2846TIP3    H130029   3.441   0.632  11.925 -0.4674  1.1248 -2.6879
 2846TIP3    H230030   3.380   0.498  11.960  2.3185  0.3955 -0.2937
 2847TIP3   OH230031   5.680   0.602   4.422  0.0178 -0.0534 -0.4087
 2847TIP3    H130032   5.776   0.602   4.430  0.1309  0.0440 -1.5804
 2847TIP3    H230033   5.664   0.639   4.336 -1.1684  2.3773  0.7540
 2848TIP3   OH230034   1.989   3.930   0.655  0.0247 -0.0276  0.2385
 2848TIP3    H130035   1.953   4.011   0.617  2.3213 -0.2869 -2.8728
 2848TIP3    H230036   2.063   3.959   0.708  2.0919 -0.0393 -2.4508
 2849TIP3   OH230037   1.430   6.317   0.909 -0.7864 -0.2958  0.5470
 2849TIP3    H130038   1.513   6.278   0.938 -1.5378 -1.1073  1.6411
 2849TIP3    H230039   1.435   6.407   0.938 -0.2039 -0.2749  0.4130
 2850TIP3   OH230040   4.415   0.151  17.056  0.5145 -0.7319  0.6691
 2850TIP3    H130041   4.480   0.136  17.125  0.0261 -1.6264  0.9534
 2850TIP3    H230042   4.333   0.117  17.093 -0.4853  1.6553  0.9072
 2851TIP3   OH230043   0.491   3.691  13.432 -0.0888 -0.2600 -0.1026
 2851TIP3    H130044   0.493   3.742  13.513 -0.1437 -1.4335  0.6539
 2851TIP3    H230045   0.561   3.627  13.442 -0.9435 -1.2606 -0.4099
 2852TIP3   OH230046   2.595   1.329  16.445 -0.2502 -0.0866  0.3887
 2852TIP3    H130047   2.688   1.348  16.448 -0.4707  0.9292  2.3907
 2852TIP3    H230048   2.585   1.247  16.495 -0.1786 -1.6699 -2.0367
 2853TIP3   OH230049   0.549   2.624  11.634 -0.2650 -0.4311  0.3982
 2853TIP3    H130050   0.541   2.604  11.541  0.5431 -1.8610  0.6041
 2853TIP3    H230051   0.623   2.683  11.640  0.8855 -1.8023  0.2747
 2854TIP3   OH230052   3.052   2.100   4.926 -0.3139 -0.4129  0.5379
 2854TIP3    H130053   3.139   2.139   4.933 -0.8266  0.8835 -0.1200
 2854TIP3    H230054   3.038   2.058   5.011 -0.0590  1.5404  1.5863
 2855TIP3   OH230055   0.540   6.088  11.841  0.3085 -0.2487  0.1143
 2855TIP3    H130056   0.591   6.043  11.908 -1.4261 -0.9436  1.0439
 2855TIP3    H230057   0.555   6.037  11.762  1.2129 -0.3032  0.3103
 2856TIP3   OH230058   1.708   2.234   4.837  0.3377  0.2429 -0.5401
 2856TIP3    H130059   1.750   2.244   4.923  0.1599 -1.1206 -0.2665
 2856TIP3    H230060   1.617   2.216   4.857  0.3959 -0.6134 -0.9749
 2857TIP3   OH230061   4.906   3.293   1.251  0.3777 -0.2468 -0.0444
 2857TIP3    H130062   4.962   3.359   1.292  0.4787 -0.4366  0.1250
 2857TIP3    H230063   4.824   3.339   1.231  1.7035  0.9865 -3.3537
 2858TIP3   OH230064   1.360   4.177   1.054  0.4230 -0.9113 -0.7732
 2858TIP3    H130065   1.416   4.101   1.038 -0.4009 -1.8492  0.6045
 2858TIP3    H230066   1.273   4.150   1.022 -0.0039 -0.7999  0.2449
 2859TIP3   OH230067   0.508   5.649  13.886 -0.1300  0.0753 -0.6278
 2859TIP3    H130068   0.472   5.560  13.891  0.9178 -0.2938  1.8330
 2859TIP3    H230069   0.431   5.705  13.883 -0.8148 -0.8699 -2.8667
 2860TIP3   OH230070   0.287   5.578   1.855 -0.2289 -0.4216  0.1054
 2860TIP3    H130071   0.335   5.595   1.774 -0.8164 -1.6901 -0.5338
 2860TIP3    H230072   0.322   5.495   1.888 -0.8966 -0.5745  0.4590
 2861TIP3   OH230073   4.678   3.441  14.277 -0.0621  0.0900  0.1816
 2861TIP3    H130074   4.739   3.371  14.251  0.2963 -0.1423  1.5936
 2861TIP3    H230075   4.719   3.481  14.353 -1.1304  0.6933  0.4461
 2862TIP3   OH230076   0.772   6.618   1.834  0.0631 -0.4256 -0.6481
 2862TIP3    H130077   0.734   6.615   1.746 -0.6746 -0.7151 -0.3236
 2862TIP3    H230078   0.796   6.710   1.846 -0.4160 -0.2658 -0.9022
 2863TIP3   OH230079   3.046   0.426  12.152  0.2388  0.5878 -0.1157
 2863TIP3    H130080   3.072   0.518  12.151 -0.8438  0.9648  1.7547
 2863TIP3    H230081   3.028   0.407  12.245  2.8357 -2.2237 -0.0027
 2864TIP3   OH230082   5.548   4.886  11.687  0.3154 -0.1239  0.2470
 2864TIP3    H130083   5.561   4.963  11.632  0.3702  0.4823  1.0923
 2864TIP3    H230084   5.454   4.888  11.709 -0.1259 -1.4037 -1.3166
 2865TIP3   OH230085   4.220   1.535  11.064 -1.0673 -0.1286  0.0578
 2865TIP3    H130086   4.217   1.584  11.146  0.2452 -0.8885  0.6067
 2865TIP3    H230087   4.309   1.548  11.032 -1.2374 -0.7213 -0.6855
 2866TIP3   OH230088   1.022   2.706  15.398 -0.3703  0.3087 -0.3264
 2866TIP3    H130089   1.037   2.713  15.492  0.0963 -0.3481 -0.3408
 2866TIP3    H230090   0.974   2.786  15.375 -2.7658 -0.6449  0.9146
 2867TIP3   OH230091   2.000   5.298   3.339  0.0073 -0.5694 -0.5383
 2867TIP3    H130092   2.077   5.340   3.376  0.4817 -2.3486  0.6442
 2867TIP3    H230093   1.975   5.353   3.266  1.9882  0.4324 -0.5225
 2868TIP3   OH230094   2.028   4.081  12.247 -0.1575  0.0679  0.3665
 2868TIP3    H130095   1.936   4.087  12.220  0.2899  0.5330 -1.1988
 2868TIP3    H230096   2.060   4.171  12.241  0.7994 -0.3206 -0.6691
 2869TIP3   OH230097   5.588   1.855  16.641 -0.0665 -0.6397  0.2973
 2869TIP3    H130098   5.567   1.802  16.718  2.7596  0.6282  2.0700
 2869TIP3    H230099   5.569   1.945  16.667 -0.7304 -0.3305 -1.1503
 2870TIP3   OH230100   6.581   1.208   1.845  0.1685  0.7562  0.2166
 2870TIP3    H130101   6.572   1.173   1.756  0.9477 -0.4373  0.5855
 2870TIP3    H230102   6.640   1.283   1.835  1.7573 -0.4679 -0.0591
 2871TIP3   OH230103   1.245   5.106   4.379  0.2375  0.4486  0.6591
 2871TIP3    H130104   1.182   5.174   4.357 -2.2026 -1.8270  0.0828
 2871TIP3    H230105   1.207   5.063   4.456  0.7282 -1.3761 -0.0708
 2872TIP3   OH230106   5.641   3.451  11.118  0.2529  0.4214 -0.1218
 2872TIP3    H130107   5.602   3.365  11.103  0.4296 -0.3294  3.0648
 2872TIP3    H230108   5.642   3.492  11.031 -3.6288 -1.1609 -1.1358
 2873TIP3   OH230109   3.765   6.174  15.840  0.0513  0.1665 -0.1115
 2873TIP3    H130110   3.796   6.102  15.895  2.0683  0.7476 -0.4228
 2873TIP3    H230111   3.735   6.241  15.902 -1.5702 -0.7764  0.1792
 2874TIP3   OH230112   4.924   4.572   1.561  0.5094  0.5172  0.0038
 2874TIP3    H130113   4.846   4.532   1.524 -0.5692  3.5600 -1.3311
 2874TIP3    H230114   4.997   4.522   1.524 -0.7011 -2.0560  0.8835
 2875TIP3   OH230115   5.506   4.253  13.315 -0.3654  0.3673 -0.1597
 2875TIP3    H130116   5.465   4.206  13.387 -1.4208 -0.0786 -1.0122
 2875TIP3    H230117   5.469   4.341  13.319 -1.9808 -0.2066 -1.3046
 2876TIP3   OH230118   5.042   5.946  13.536  0.4997  0.0207  0.2669
 2876TIP3    H130119   4.967   5.998  13.567  1.7469  0.9922  1.7660
 2876TIP3    H230120   5.005   5.859  13.520 -1.0895  0.6562  0.2455
 2877TIP3   OH230121   1.881   2.389  13.516 -0.1983  0.0062  0.0784
 2877TIP3    H130122   1.944   2.444  13.469 -0.5532  0.3413 -0.0164
 2877TIP3    H230123   1.919   2.377  13.603 -0.1582  0.4754  0.1274
 2878TIP3   OH230124   4.346   1.448  11.701 -0.3744 -0.3751 -0.1291
 2878TIP3    H130125   4.345   1.367  11.753  1.9142 -2.0408 -2.4355
 2878TIP3    H230126   4.284   1.433  11.630 -1.4538  0.7837  0.5227
 2879TIP3   OH230127   3.514   1.403   1.883  0.3384 -0.1236 -0.2826
 2879TIP3    H130128   3.459   1.362   1.950 -2.2157 -0.2573 -2.2961
 2879TIP3    H230129   3.515   1.496   1.907 -0.5452 -0.1731  0.0082
 2880TIP3   OH230130   0.877   5.797   5.326 -0.3994  0.1146  0.2758
 2880TIP3    H130131   0.835   5.851   5.393 -0.0929  0.4512  0.2036
 2880TIP3    H230132   0.806   5.770   5.268 -0.3248  1.9969 -0.7670
 2881TIP3   OH230133   1.809   2.665  14.900 -0.6331  0.4097 -0.2674
 2881TIP3    H130134   1.837   2.670  14.809  0.0349  1.8213 -0.0054
 2881TIP3    H230135   1.873   2.608  14.942 -0.6139  0.2128 -0.5592
 2882TIP3   OH230136   5.095   6.490   3.951  0.0937  0.3675 -0.2002
 2882TIP3    H130137   5.015   6.474   4.002  0.4814 -1.2744 -0.0696
 2882TIP3    H230138   5.162   6.437   3.994  0.6396 -0.3785 -1.8856
 2883TIP3   OH230139   1.001   3.482   4.047  0.0260 -0.2019  0.3761
 2883TIP3    H130140   1.012   3.437   4.131 -2.5926 -0.9605  0.3941
 2883TIP3    H230141   0.907   3.478   4.029  0.4716  0.0702 -2.5464
 2884TIP3   OH230142   1.346   3.378   2.233  0.2866 -0.0036  0.3401
 2884TIP3    H130143   1.264   3.378   2.282 -0.8846 -1.9415 -1.4503
 2884TIP3    H230144   1.375   3.287   2.234  0.6397  0.0393 -1.7637
 2885TIP3   OH230145   6.137   6.424   4.314  0.2632  0.0608  0.0377
 2885TIP3    H130146   6.051   6.411   4.276  1.1327 -2.5711 -1.2709
 2885TIP3    H230147   6.120   6.444   4.406 -1.7198  0.4174 -0.3650
 2886TIP3   OH230148   0.666   5.245  11.373 -0.4599 -0.4545 -0.1046
 2886TIP3    H130149   0.711   5.326  11.347 -1.2138 -0.8433 -2.9459
 2886TIP3    H230150   0.581   5.275  11.406  0.1511  0.0175  1.0904
 2887TIP3   OH230151   6.611   1.544  12.615  0.2869 -0.1878  0.4442
 2887TIP3    H130152   6.678   1.613  12.616  0.4389 -0.2019 -2.2722
 2887TIP3    H230153   6.583   1.538  12.707  2.6375  1.1210  1.3598
 2888TIP3   OH230154   4.810   2.874   0.098 -0.2550  0.1020 -0.3438
 2888TIP3    H130155   4.750   2.918   0.158 -0.3292 -1.3561  0.6890
 2888TIP3    H230156   4.753   2.833   0.033 -0.1846  1.4366 -1.3182
 2889TIP3   OH230157   0.003   1.067  13.537  0.4346  0.1550  0.5386
 2889TIP3    H130158   0.042   1.019  13.610  1.1181  0.8786  0.6609
 2889TIP3    H230159  -0.079   1.104  13.572  0.1976 -0.4288  0.6060
 2890TIP3   OH230160   5.379   6.831  16.146  0.0657 -0.2346 -0.7245
 2890TIP3    H130161   5.340   6.757  16.099  1.3522 -1.4829  0.0954
 2890TIP3    H230162   5.397   6.896  16.078 -1.6579 -0.3709 -1.3795
 2891TIP3   OH230163   2.167   0.985   5.694  0.1172  0.3060 -0.2078
 2891TIP3    H130164   2.193   1.047   5.762  1.4149  0.7232 -1.0517
 2891TIP3    H230165   2.107   0.925   5.738  1.5691  0.0495  1.5473
 2892TIP3   OH230166   2.052   2.962  11.928 -0.2269 -0.0225  0.2017
 2892TIP3    H130167   1.977   2.904  11.939  0.7148 -1.4311 -0.5145
 2892TIP3    H230168   2.128   2.904  11.933  0.6966  0.9234 -1.9092
 2893TIP3   OH230169   5.124   3.868  11.449 -0.0011  0.0207  0.2080
 2893TIP3    H130170   5.085   3.955  11.440  2.6794  1.3712  0.3955
 2893TIP3    H230171   5.174   3.856  11.368 -0.9643 -1.7480 -0.1725
 2894TIP3   OH230172   3.287   3.554   1.672  0.5996 -0.5370 -0.4203
 2894TIP3    H130173   3.272   3.602   1.591  3.2274 -0.3775 -0.8768
 2894TIP3    H230174   3.309   3.621   1.736 -0.7671 -0.7338  0.3015
 2895TIP3   OH230175   0.904   2.313   2.887 -0.6507  0.1286  0.3136
 2895TIP3    H130176   0.877   2.289   2.975  1.0187 -1.3632  0.4691
 2895TIP3    H230177   0.865   2.246   2.830  0.4197 -0.4476  0.2384
 2896TIP3   OH230178   3.346   5.566   1.115  0.3792  0.0755 -0.3256
 2896TIP3    H130179   3.290   5.550   1.191  0.7568 -0.0833 -0.0767
 2896TIP3    H230180   3.433   5.579   1.153  0.7163 -0.7766 -0.7811
 2897TIP3   OH230181   4.083   1.848  13.471 -0.8745 -0.4781 -0.2318
 2897TIP3    H130182   4.133   1.832  13.552  1.4178 -1.0313 -1.6673
 2897TIP3    H230183   4.113   1.781  13.410  0.0504  1.9123 -2.6295
 2898TIP3   OH230184   4.273   3.216   1.115  0.0729 -0.1994 -0.6349
 2898TIP3    H130185   4.257   3.144   1.176  1.9255 -1.8065 -1.8997
 2898TIP3    H230186   4.231   3.187   1.033 -0.4297  0.8613 -0.7659
 2899TIP3   OH230187   5.483   6.258   6.013  0.2795 -0.1469 -0.7267
 2899TIP3    H130188   5.518   6.307   5.939 -0.3752  1.3490 -0.0901
 2899TIP3    H230189   5.392   6.287   6.020  0.0113 -1.1027 -0.0148
 2900TIP3   OH230190   2.288   2.065   3.461 -0.0457  0.1536 -0.6917
 2900TIP3    H130191   2.288   2.083   3.555  0.5731 -0.9833 -0.4647
 2900TIP3    H230192   2.325   2.145   3.422  1.1712  0.0240  0.1610
 2901TIP3   OH230193   5.310   6.108   6.213  0.1963 -0.0697  0.6619
 2901TIP3    H130194   5.246   6.066   6.269  0.2331 -0.6384  0.2785
 2901TIP3    H230195   5.262   6.179   6.170 -0.0404 -0.1636  0.7722
 2902TIP3   OH230196   2.441   1.405   2.760  0.0722  0.3661  0.7959
 2902TIP3    H130197   2.494   1.414   2.840 -0.6293  1.1515  1.1867
 2902TIP3    H230198   2.353   1.386   2.791 -0.5259  2.0979  0.2952
 2903TIP3   OH230199   5.782   5.249  13.679  0.0762 -0.1723 -0.2131
 2903TIP3    H130200   5.688   5.247  13.693  0.2317  1.2529  1.2743
 2903TIP3    H230201   5.804   5.342  13.671  1.4786 -0.4246  0.3988
 2904TIP3   OH230202   1.273   1.297   1.217  0.1715  0.0661 -0.5468
 2904TIP3    H130203   1.275   1.209   1.255  1.1991 -0.1620 -1.1177
 2904TIP3    H230204   1.179   1.316   1.207 -0.2207  0.4422  2.7671
 2905TIP3   OH230205   1.705   2.646  13.984 -0.4808  0.2537 -0.1272
 2905TIP3    H130206   1.712   2.576  14.048  1.0892  2.2313  2.0546
 2905TIP3    H230207   1.633   2.700  14.015  0.7002  1.5793  0.4235
 2906TIP3   OH230208   5.631   5.140  11.566  0.1552 -0.0614  0.4552
 2906TIP3    H130209   5.549   5.176  11.531  0.5936  1.0076  0.4858
 2906TIP3    H230210   5.692   5.214  11.565  2.1236 -1.5147 -2.6118
 2907TIP3   OH230211   1.311   1.801   2.101 -0.2330 -0.0783 -0.1305
 2907TIP3    H130212   1.311   1.890   2.065  1.8452 -0.8774 -2.4136
 2907TIP3    H230213   1.276   1.746   2.031 -0.7470 -1.1735  0.9493
 2908TIP3   OH230214   0.038   3.739  11.021  0.3601 -0.0731  0.1236
 2908TIP3    H130215   0.050   3.688  10.941  1.3384 -0.0405  0.2360
 2908TIP3    H230216  -0.003   3.821  10.991  1.6253  0.3540 -0.5047
 2909TIP3   OH230217   4.095   1.167   1.601  0.5875  0.3951  0.7029
 2909TIP3    H130218   4.009   1.164   1.643  1.4538 -0.5978  2.5174
 2909TIP3    H230219   4.097   1.090   1.544  1.3039 -1.3034  2.9070
 2910TIP3   OH230220   1.424   3.860   6.380  0.3734 -0.1422  0.1006
 2910TIP3    H130221   1.335   3.831   6.358 -0.0374 -0.4874  2.0444
 2910TIP3    H230222   1.411   3.947   6.419  0.9198 -0.1260  0.2454
 2911TIP3   OH230223   5.419   6.729  11.451  0.0388  0.4767 -0.0227
 2911TIP3    H130224   5.417   6.634  11.441 -0.6456  0.3657  0.9889
 2911TIP3    H230225   5.336   6.750  11.494  1.0596  1.2826  1.6604
 2912TIP3   OH230226   5.925   0.546  14.391  0.2893 -0.3325 -0.4619
 2912TIP3    H130227   6.012   0.554  14.429  0.3387 -1.3081 -0.3561
 2912TIP3    H230228   5.935   0.578  14.301  1.2646 -2.4386 -1.1431
 2913TIP3   OH230229   2.269   5.133   0.065  0.0003  0.9948 -0.7118
 2913TIP3    H130230   2.202   5.197   0.090 -1.8715 -0.7285 -1.1577
 2913TIP3    H230231   2.289   5.154  -0.026 -1.1921  0.4860 -1.1069
 2914TIP3   OH230232   2.222   6.604   1.943 -0.4990 -0.1221  0.2938
 2914TIP3    H130233   2.309   6.603   1.903 -0.0400  1.5506  1.1554
 2914TIP3    H230234   2.165   6.560   1.880  0.6289  0.4011 -1.1182
 2915TIP3   OH230235   2.708   4.183  12.628 -0.1243 -0.0272 -0.3425
 2915TIP3    H130236   2.695   4.215  12.539  0.2013 -0.6526 -0.6182
 2915TIP3    H230237   2.799   4.206  12.649  0.7940 -2.5243 -1.2980
 2916TIP3   OH230238   4.754   1.025   4.299  0.0791 -0.3083  0.3584
 2916TIP3    H130239   4.703   1.106   4.304 -0.7552 -0.8643  1.0887
 2916TIP3    H230240   4.750   1.000   4.206  1.2833  1.0515 -0.0987
 2917TIP3   OH230241   5.852   6.450   5.939  0.1831 -0.2721  0.0615
 2917TIP3    H130242   5.853   6.404   5.855  1.7527 -0.4295  0.1229
 2917TIP3    H230243   5.805   6.532   5.921  0.1616 -0.4772 -0.8804
 2918TIP3   OH230244   1.281   0.307   3.117 -0.4885  0.1440  0.3777
 2918TIP3    H130245   1.251   0.384   3.068  0.7887 -0.0521 -0.7645
 2918TIP3    H230246   1.242   0.233   3.071  0.5679 -0.0284 -0.2912
 2919TIP3   OH230247   2.412   4.137  15.752 -0.2078  0.4781  0.1051
 2919TIP3    H130248   2.479   4.156  15.686  0.8526  0.5059  1.1643
 2919TIP3    H230249   2.428   4.201  15.821 -1.1195  0.2553  0.5364
 2920TIP3   OH230250   4.032   3.986   5.391 -1.0168 -0.3944  0.6202
 2920TIP3    H130251   4.072   3.901   5.406 -0.6775 -0.2797  0.3780
 2920TIP3    H230252   4.095   4.049   5.427 -0.5628 -0.1638 -0.5304
 2921TIP3   OH230253   1.047   6.109  13.821  0.1256 -0.5879 -0.0413
 2921TIP3    H130254   0.985   6.135  13.888 -0.5297 -0.0163 -0.8524
 2921TIP3    H230255   1.006   6.133  13.738  2.6264  2.6632 -0.5461
 2922TIP3   OH230256   1.224   1.712   4.876 -0.6479 -0.6275  0.3751
 2922TIP3    H130257   1.139   1.705   4.919 -0.1828 -0.0177  1.4253
 2922TIP3    H230258   1.272   1.634   4.905 -0.9871 -1.2266 -0.5972
 2923TIP3   OH230259   2.436   1.263   0.541  0.3420  0.1133  0.5318
 2923TIP3    H130260   2.491   1.250   0.464  1.2348  1.1005  0.9698
 2923TIP3    H230261   2.346   1.253   0.509  0.7561 -1.3856 -0.2224
 2924TIP3   OH230262   3.070   3.508  11.313  0.0151 -0.1643 -0.1076
 2924TIP3    H130263   3.077   3.592  11.267  0.4411  0.1523  0.5162
 2924TIP3    H230264   3.127   3.449  11.265  0.8536  0.2972  0.2859
 2925TIP3   OH230265   5.848   2.912   4.288 -0.2433  0.4227  0.5549
 2925TIP3    H130266   5.926   2.939   4.239 -0.3052 -1.6408 -0.8014
 2925TIP3    H230267   5.790   2.987   4.283  0.1576  0.6596 -1.7531
 2926TIP3   OH230268   5.543   2.814   2.872  0.2065  0.4511 -0.1623
 2926TIP3    H130269   5.564   2.809   2.779  0.3683  1.5815 -0.1986
 2926TIP3    H230270   5.591   2.891   2.903  2.2078 -1.3172  1.4106
 2927TIP3   OH230271   2.745   1.977   5.897  0.0548 -0.7684 -0.0104
 2927TIP3    H130272   2.763   1.969   5.803  0.1029  0.3825 -0.1041
 2927TIP3    H230273   2.650   1.978   5.903  0.0527 -0.5332 -0.0765
 2928TIP3   OH230274   5.978   4.019   2.451  0.1336  0.3596  0.0571
 2928TIP3    H130275   5.939   3.998   2.536 -0.4542 -1.6100 -0.6346
 2928TIP3    H230276   5.946   4.107   2.431 -1.7129 -0.1047  0.7885
 2929TIP3   OH230277   0.761   0.460  15.529  0.2806 -0.2801 -0.8268
 2929TIP3    H130278   0.705   0.516  15.475  1.0929  0.8861 -0.5005
 2929TIP3    H230279   0.731   0.371  15.510 -0.4777  0.1991 -2.0103
 2930TIP3   OH230280   0.357   1.477   4.139  0.1926  0.3800 -1.4090
 2930TIP3    H130281   0.382   1.569   4.136  1.2505  0.0789 -2.0712
 2930TIP3    H230282   0.265   1.476   4.110 -0.3605  1.3843  0.1577
 2931TIP3   OH230283   0.904   5.048  17.016  0.0830 -0.3766 -0.8981
 2931TIP3    H130284   0.936   5.121  17.069 -1.0647 -0.8340  0.5114
 2931TIP3    H230285   0.925   5.073  16.926 -1.4355  2.3510 -0.6248
 2932TIP3   OH230286   3.216   5.349   4.338 -0.3238  0.0269 -0.0570
 2932TIP3    H130287   3.262   5.303   4.268  0.7355 -0.4324  0.8864
 2932TIP3    H230288   3.186   5.430   4.299  1.2904  0.3241 -0.7559
 2933TIP3   OH230289   0.829   3.041   5.948  0.8019  0.0278 -0.1086
 2933TIP3    H130290   0.832   3.101   6.023  1.8072  0.3727 -0.4037
 2933TIP3    H230291   0.904   2.983   5.960  0.4288 -0.5134 -0.3627
 2934TIP3   OH230292   5.969   2.926   2.430  0.2382  0.2659 -0.2204
 2934TIP3    H130293   5.967   2.902   2.522 -0.6368  2.7215  0.4861
 2934TIP3    H230294   6.061   2.947   2.412  0.3813 -0.0458  0.1487
 2935TIP3   OH230295   1.710   2.320   2.819  0.4137  0.1020  0.0538
 2935TIP3    H130296   1.806   2.318   2.828  0.2791  0.6131  1.8747
 2935TIP3    H230297   1.677   2.309   2.908 -1.2153  1.9612 -0.2582
 2936TIP3   OH230298   1.403   0.298   5.635  0.2400 -0.5559  0.6888
 2936TIP3    H130299   1.328   0.285   5.693 -0.7757  0.6988 -0.3180
 2936TIP3    H230300   1.438   0.383   5.659 -0.3870  0.1295 -0.7193
 2937TIP3   OH230301   6.050   1.980   3.626  0.0361  0.4927 -0.6513
 2937TIP3    H130302   6.120   2.045   3.636  0.1510  0.4322 -1.0586
 2937TIP3    H230303   5.996   1.991   3.704  1.4219 -0.5867  0.5067
 2938TIP3   OH230304   6.662   4.957  11.530  0.0701  0.0847  0.2158
 2938TIP3    H130305   6.595   4.971  11.462  0.8246  0.1885 -0.5251
 2938TIP3    H230306   6.662   4.862  11.544 -2.4336  0.2894  2.5464
 2939TIP3   OH230307   6.185   3.611   0.026  0.4494 -0.2569  0.7211
 2939TIP3    H130308   6.108   3.591  -0.028  0.9105  1.9343 -0.8780
 2939TIP3    H230309   6.258   3.609  -0.036  1.0160  2.3005  1.2150
 2940TIP3   OH230310   0.995   5.851   3.599  0.0078 -0.6840  0.0977
 2940TIP3    H130311   0.910   5.869   3.640  1.0877 -0.6493  2.5192
 2940TIP3    H230312   1.019   5.764   3.631  0.8047 -0.7851 -0.7170
 2941TIP3   OH230313   5.438   0.645  14.727 -0.0507 -0.8056  0.5840
 2941TIP3    H130314   5.510   0.582  14.731  0.1349 -0.5803  0.8577
 2941TIP3    H230315   5.460   0.710  14.793  1.5223  1.4059 -1.9062
 2942TIP3   OH230316   5.188   6.699  16.361  0.5005 -0.3535  0.0411
 2942TIP3    H130317   5.279   6.727  16.347  0.0348  0.8992 -0.6483
 2942TIP3    H230318   5.137   6.779  16.352 -0.8682 -1.3337 -1.5262
 2943TIP3   OH230319   4.697   5.766   6.580  0.4611  0.5532  0.7687
 2943TIP3    H130320   4.635   5.837   6.566 -1.0930 -0.5421  1.7713
 2943TIP3    H230321   4.702   5.758   6.675 -0.5463 -1.5983  0.6987
 2944TIP3   OH230322   3.628   6.564  12.767  0.2159 -0.1069 -0.2196
 2944TIP3    H130323   3.666   6.639  12.721 -0.9440 -0.0479 -1.1193
 2944TIP3    H230324   3.635   6.587  12.860  0.0035  1.0751 -0.4774
 2945TIP3   OH230325   2.016   3.423  11.757 -1.0323 -0.4173 -0.1766
 2945TIP3    H130326   2.081   3.445  11.823 -1.7466 -0.2882  0.4993
 2945TIP3    H230327   1.981   3.338  11.784 -1.6271 -0.1694 -0.1379
 2946TIP3   OH230328   6.476   0.742  16.201 -0.1933  0.1543  0.0715
 2946TIP3    H130329   6.478   0.669  16.139  0.1682  0.8948 -0.8126
 2946TIP3    H230330   6.493   0.701  16.286 -1.7789 -1.0375 -0.1336
 2947TIP3   OH230331   0.994   6.039  13.514  0.4646  0.1528  0.8363
 2947TIP3    H130332   0.905   6.025  13.482 -0.2146  0.2715  2.5646
 2947TIP3    H230333   1.034   5.951  13.514 -0.0766 -0.0975  1.2157
 2948TIP3   OH230334   5.461   6.397   1.705  0.1030 -0.3090 -0.4349
 2948TIP3    H130335   5.416   6.471   1.664 -1.0002 -1.0783 -0.6469
 2948TIP3    H230336   5.554   6.412   1.686 -0.0653  1.1896 -0.1732
 2949TIP3   OH230337   3.794   5.523   1.594  0.2322 -0.1688  0.0955
 2949TIP3    H130338   3.818   5.516   1.501  1.4465 -3.6531  0.4960
 2949TIP3    H230339   3.703   5.493   1.598 -0.2379  1.2016 -0.0804
 2950TIP3   OH230340   4.992   5.258   1.534  0.5056  0.2082 -0.3333
 2950TIP3    H130341   4.923   5.201   1.567 -0.1940  0.9573 -0.4613
 2950TIP3    H230342   5.052   5.270   1.608 -0.2666  0.6990  0.2285
 2951TIP3   OH230343   2.562   1.238   2.537 -0.2222 -0.8191 -0.0359
 2951TIP3    H130344   2.526   1.293   2.607  1.0428  0.6521 -0.4686
 2951TIP3    H230345   2.585   1.156   2.580  1.6276  0.4454  1.6273
 2952TIP3   OH230346   5.279   4.875  14.493 -0.5219  0.6073  0.1031
 2952TIP3    H130347   5.371   4.896  14.512 -0.7034  2.9148 -1.2375
 2952TIP3    H230348   5.278   4.855  14.399 -1.6217  2.4091 -0.3118
 2953TIP3   OH230349   2.656   0.806   1.470  0.1693  0.1854 -0.2272
 2953TIP3    H130350   2.564   0.780   1.462  0.0899  0.4300 -0.1147
 2953TIP3    H230351   2.653   0.900   1.487  0.3296 -0.1531  2.0251
 2954TIP3   OH230352   3.147   5.978  14.438  0.1128 -0.2744  0.2234
 2954TIP3    H130353   3.168   5.981  14.531 -1.2968 -0.9145  0.5939
 2954TIP3    H230354   3.053   5.958  14.435  0.0891 -0.0940 -1.3335
 2955TIP3   OH230355   5.202   5.708   1.986 -0.1023 -0.3788  0.3963
 2955TIP3    H130356   5.294   5.705   1.958  0.5381 -0.0540  2.3125
 2955TIP3    H230357   5.166   5.784   1.941  1.2836  1.0231  1.5492
 2956TIP3   OH230358   3.524   3.117  10.476  0.1545 -0.0337 -0.8028
 2956TIP3    H130359   3.594   3.063  10.438  0.1862 -0.4810 -0.1334
 2956TIP3    H230360   3.547   3.207  10.452 -0.6288 -0.3824 -3.1366
 2957TIP3   OH230361   4.594   1.293   1.977  0.0311  0.1327 -0.2942
 2957TIP3    H130362   4.606   1.378   2.019  1.4066 -0.4070  0.4930
 2957TIP3    H230363   4.606   1.230   2.047 -0.0321 -0.7347 -1.0421
 2958TIP3   OH230364   1.694   3.877  10.716 -0.4977 -0.4674  0.3003
 2958TIP3    H130365   1.760   3.945  10.708  0.7134 -1.8370 -3.1007
 2958TIP3    H230366   1.612   3.919  10.690  0.3380 -0.3507 -2.3586
 2959TIP3   OH230367   1.023   1.065  14.584 -0.0540  0.1758  0.4593
 2959TIP3    H130368   0.963   1.011  14.534 -0.4408  1.5477 -0.6218
 2959TIP3    H230369   1.080   1.003  14.629 -0.1844 -1.1181 -1.0878
 2960TIP3   OH230370   1.872   4.966  13.453 -0.4505 -0.3911 -0.0241
 2960TIP3    H130371   1.895   5.039  13.396 -3.5022 -0.9225 -2.2261
 2960TIP3    H230372   1.842   4.897  13.393 -0.4897 -2.3546  2.1039
 2961TIP3   OH230373   3.933   2.714  15.756 -0.4961  0.1084  0.1991
 2961TIP3    H130374   3.983   2.728  15.836 -0.0866 -0.4197  0.0395
 2961TIP3    H230375   3.842   2.726  15.782 -0.6292 -2.7354  1.3946
 2962TIP3   OH230376   5.480   4.579   4.475 -0.1227 -0.1030 -0.0890
 2962TIP3    H130377   5.568   4.600   4.444 -0.3890 -0.4390 -1.1199
 2962TIP3    H230378   5.422   4.609   4.405 -0.8756  0.5486  0.7755
 2963TIP3   OH230379   3.109   5.749   0.637  0.2708 -0.0332  0.1732
 2963TIP3    H130380   3.155   5.714   0.713 -1.6592  0.3977  1.6121
 2963TIP3    H230381   3.028   5.697   0.631 -1.3899  2.3095  0.7538
 2964TIP3   OH230382   2.812   3.472  16.717 -0.4237 -0.1600 -0.2730
 2964TIP3    H130383   2.766   3.396  16.684 -0.9740 -0.2117  0.5841
 2964TIP3    H230384   2.745   3.525  16.760  0.4463 -0.8320  2.0873
 2965TIP3   OH230385   4.636   1.985   2.553  0.2845 -0.0878 -0.1551
 2965TIP3    H130386   4.638   2.068   2.506  1.0768 -0.3296 -0.5641
 2965TIP3    H230387   4.570   1.933   2.507  0.7063 -0.1458 -0.7077
 2966TIP3   OH230388   5.788   1.838   1.125 -0.0948  0.1555  0.3388
 2966TIP3    H130389   5.823   1.902   1.186 -0.8528 -0.8626  1.9010
 2966TIP3    H230390   5.780   1.757   1.176 -3.3232 -0.0614 -0.3187
 2967TIP3   OH230391   4.233   3.868   3.740  0.2258 -0.2845 -0.0160
 2967TIP3    H130392   4.203   3.912   3.819 -1.1004 -1.8504  0.4057
 2967TIP3    H230393   4.224   3.934   3.671  0.9699  0.9596  1.0368
 2968TIP3   OH230394   4.082   3.350  11.122  0.2205  0.2814  0.6109
 2968TIP3    H130395   4.002   3.313  11.083 -0.5128  0.1593  2.1422
 2968TIP3    H230396   4.117   3.408  11.055 -0.4887 -0.5833 -0.5539
 2969TIP3   OH230397   5.138   4.164   0.241  0.1500  0.1633  0.4121
 2969TIP3    H130398   5.183   4.240   0.278 -0.6629  0.7319  0.2573
 2969TIP3    H230399   5.084   4.131   0.313 -0.1977  0.2911  0.2113
 2970TIP3   OH230400   5.547   6.472   4.399  0.0509  0.1904 -0.0361
 2970TIP3    H130401   5.632   6.445   4.363 -0.4339 -1.7615  0.1953
 2970TIP3    H230402   5.507   6.523   4.329 -0.1840 -2.1341 -1.7166
 2971TIP3   OH230403   6.552   3.920   6.461  0.0066  0.1118 -0.0521
 2971TIP3    H130404   6.636   3.935   6.417 -0.6850  0.8886 -1.1572
 2971TIP3    H230405   6.575   3.905   6.553  1.3177  0.7830 -0.2516
 2972TIP3   OH230406   4.937   4.044   2.213  0.3275  0.4367  0.0699
 2972TIP3    H130407   5.022   4.009   2.188  0.9558  1.7980  0.2110
 2972TIP3    H230408   4.939   4.048   2.308  0.0138  0.2455  0.0842
 2973TIP3   OH230409   2.736   2.779  12.036  0.6762 -0.3270  0.4317
 2973TIP3    H130410   2.677   2.752  11.964 -0.4041  0.2546  1.0765
 2973TIP3    H230411   2.707   2.867  12.059  0.1607 -0.9606  2.4112
 2974TIP3   OH230412   1.537   6.655   3.677  0.5086 -0.3266  0.6283
 2974TIP3    H130413   1.514   6.661   3.770 -0.4780  1.3523  0.3318
 2974TIP3    H230414   1.462   6.612   3.636  1.2359 -1.6850  0.6778
 2975TIP3   OH230415   2.884   2.513   2.842  0.1145 -0.3918 -0.1995
 2975TIP3    H130416   2.896   2.582   2.777 -0.5297  0.5986  0.6935
 2975TIP3    H230417   2.964   2.461   2.836  1.3732  1.3865  0.1726
 2976TIP3   OH230418   4.327   6.704   0.406  0.2520 -0.0716 -0.2169
 2976TIP3    H130419   4.286   6.663   0.330  0.3268 -0.1097 -0.2366
 2976TIP3    H230420   4.405   6.747   0.371 -0.0660  0.4718 -0.2738
 2977TIP3   OH230421   3.817   5.586  12.935 -0.0463 -0.0268  0.3731
 2977TIP3    H130422   3.732   5.629  12.935  0.8964  1.9697  0.3227
 2977TIP3    H230423   3.826   5.549  13.023 -1.2475 -0.9027  0.1407
 2978TIP3   OH230424   3.165   5.194  12.630 -0.0236  0.0545  0.7945
 2978TIP3    H130425   3.093   5.131  12.641  0.5546 -0.6093  0.7969
 2978TIP3    H230426   3.237   5.157  12.680  0.0776  1.1434  1.4823
 2979TIP3   OH230427   5.357   2.560   2.302 -0.5353  0.1173  0.1184
 2979TIP3    H130428   5.362   2.573   2.208  1.0563  0.1547  0.1688
 2979TIP3    H230429   5.302   2.631   2.334 -1.8954 -0.4580 -0.8602
 2980TIP3   OH230430   2.203   6.133  13.090 -0.3096 -0.0388 -0.1767
 2980TIP3    H130431   2.160   6.201  13.038 -0.4924  1.4240  1.7771
 2980TIP3    H230432   2.143   6.058  13.086 -2.5209  1.5181  1.4063
 2981TIP3   OH230433   6.186   5.798  16.603  0.5047  0.8697 -0.0321
 2981TIP3    H130434   6.106   5.760  16.568  1.0601 -2.3812  1.8932
 2981TIP3    H230435   6.236   5.825  16.525 -1.8027  1.7430 -1.2873
 2982TIP3   OH230436   1.725   6.668   1.840 -0.4583  0.2854  0.1389
 2982TIP3    H130437   1.775   6.707   1.769 -1.1010 -1.5926 -1.4554
 2982TIP3    H230438   1.650   6.627   1.797 -0.7079 -1.2052  1.8429
 2983TIP3   OH230439   4.782   3.284  14.916 -0.5579  0.2026 -0.5556
 2983TIP3    H130440   4.852   3.224  14.942 -0.4155 -0.0847 -1.5509
 2983TIP3    H230441   4.819   3.371  14.926 -0.5601  0.1112  0.3180
 2984TIP3   OH230442   4.325   5.439  13.513 -0.1190  0.8336  0.1167
 2984TIP3    H130443   4.408   5.392  13.523 -0.6707 -0.0954  0.4745
 2984TIP3    H230444   4.259   5.370  13.510 -1.1504  1.6163  2.4444
 2985TIP3   OH230445   3.632   0.477  11.786  0.3330  0.0490  0.2773
 2985TIP3    H130446   3.557   0.452  11.732 -0.0131  1.6887 -0.0520
 2985TIP3    H230447   3.685   0.533  11.729  2.3716 -1.8636  0.1615
 2986TIP3   OH230448   5.004   4.218  12.870 -0.1059 -0.7315 -0.3510
 2986TIP3    H130449   5.099   4.209  12.878  0.2514 -0.8073 -3.4007
 2986TIP3    H230450   4.973   4.128  12.859 -0.2221 -0.5622 -1.5133
 2987TIP3   OH230451   3.754   1.759  15.839  0.2131  0.7945  0.3278
 2987TIP3    H130452   3.797   1.680  15.872 -0.1356  0.2044 -0.5970
 2987TIP3    H230453   3.752   1.818  15.915 -2.9182 -1.4238  2.2351
 2988TIP3   OH230454   6.650   5.158   1.478 -0.2406 -1.0223  0.1046
 2988TIP3    H130455   6.744   5.169   1.470  0.0501 -0.8838  2.6495
 2988TIP3    H230456   6.633   5.071   1.441  0.9806 -1.2908  0.1343
 2989TIP3   OH230457   5.461   6.639   3.609 -0.5494 -0.4620  0.1872
 2989TIP3    H130458   5.441   6.709   3.547  2.1923  0.0246 -0.2569
 2989TIP3    H230459   5.376   6.617   3.648 -1.8615  1.4099 -1.4010
 2990TIP3   OH230460   2.742   0.001  14.092  0.3591  0.0261 -0.1257
 2990TIP3    H130461   2.833  -0.021  14.109  0.1859 -1.0920 -0.5752
 2990TIP3    H230462   2.723   0.073  14.152  1.8535  1.0555 -0.8038
 2991TIP3   OH230463   4.164   3.184  15.392  0.1842 -0.5112 -0.4252
 2991TIP3    H130464   4.189   3.273  15.416 -1.3177  0.7073 -2.9924
 2991TIP3    H230465   4.247   3.136  15.387  1.1082  0.9440  0.1769
 2992TIP3   OH230466   6.359   0.175  10.579 -0.3856  0.0589 -0.3103
 2992TIP3    H130467   6.267   0.148  10.576  0.1214 -1.7766 -0.8595
 2992TIP3    H230468   6.400   0.109  10.635  0.5455  1.0464  0.1805
 2993TIP3   OH230469   3.857   6.780  11.119 -0.0054  0.2021 -0.0439
 2993TIP3    H130470   3.776   6.826  11.137  0.1196  0.7088 -0.7428
 2993TIP3    H230471   3.870   6.789  11.025  0.2430 -0.9016 -0.1352
 2994TIP3   OH230472   4.021   4.106  14.946  0.2707  0.1394 -0.2299
 2994TIP3    H130473   3.987   4.194  14.930 -1.0176 -0.2310  0.3108
 2994TIP3    H230474   4.083   4.090  14.874 -0.6035  0.9106 -1.1817
 2995TIP3   OH230475   0.752   1.605  14.803 -0.0529 -0.3049 -0.0772
 2995TIP3    H130476   0.702   1.551  14.741  0.4359  1.7821 -2.4736
 2995TIP3    H230477   0.839   1.566  14.803 -0.6956 -1.8829  1.4363
 2996TIP3   OH230478   5.307   2.059   0.022 -0.5985 -0.2751 -0.2323
 2996TIP3    H130479   5.260   2.067  -0.061 -1.4431 -1.6712  0.0722
 2996TIP3    H230480   5.253   2.001   0.075  0.5238 -0.3744  0.8649
 2997TIP3   OH230481   2.335   2.804   3.874  0.4531 -0.3203  0.1432
 2997TIP3    H130482   2.356   2.893   3.903  0.5739 -0.3192  0.0550
 2997TIP3    H230483   2.416   2.772   3.835 -0.0430  0.1292 -1.3351
 2998TIP3   OH230484   0.982   2.856  13.949 -0.5073  0.1432  0.2996
 2998TIP3    H130485   0.931   2.801  14.008 -0.8730  0.3113  0.1457
 2998TIP3    H230486   1.041   2.795  13.904  0.5581  0.1599  1.6202
 2999TIP3   OH230487   4.045   4.795  14.664  0.1794 -0.4172 -0.1567
 2999TIP3    H130488   4.029   4.854  14.738  0.2571 -0.5230 -0.0547
 2999TIP3    H230489   4.105   4.729  14.699  0.2682 -0.4308 -0.3333
 3000TIP3   OH230490   4.763   5.781   0.175  0.1776 -0.0032  0.1919
 3000TIP3    H130491   4.796   5.694   0.149 -1.9086 -0.8779  0.2678
 3000TIP3    H230492   4.672   5.782   0.145  0.7427  3.1018 -1.9171
 3001TIP3   OH230493   6.765   5.646  12.940 -0.5174 -0.8138  0.6670
 3001TIP3    H130494   6.808   5.574  12.894  0.1003 -0.2795  0.3868
 3001TIP3    H230495   6.715   5.692  12.873  3.1721  2.1191 -0.4142
 3002TIP3   OH230496   3.898   4.182   0.807 -0.6040  0.3575 -0.2595
 3002TIP3    H130497   3.849   4.143   0.880  0.9591 -1.0994  0.0846
 3002TIP3    H230498   3.944   4.256   0.846  0.0743 -0.3009  0.2262
 3003TIP3   OH230499   6.086   6.549  15.974  0.2464 -0.1600  0.4392
 3003TIP3    H130500   6.006   6.498  15.966  0.6591 -0.7477  0.0218
 3003TIP3    H230501   6.113   6.538  16.065  1.2659 -2.1297 -0.0454
 3004TIP3   OH230502   1.643   3.392   1.059  0.4464 -0.2627 -0.1725
 3004TIP3    H130503   1.695   3.439   0.994  0.8027 -0.6640 -0.1785
 3004TIP3    H230504   1.679   3.419   1.144  0.8522 -0.7481 -0.1839
 3005TIP3   OH230505   0.017   5.886  15.374  0.0435 -0.2129 -0.2730
 3005TIP3    H130506  -0.066   5.929  15.354 -0.4485 -0.8744  0.3168
 3005TIP3    H230507   0.034   5.829  15.299 -1.6836 -2.5199  0.9580
 3006TIP3   OH230508   6.052   2.994   1.570 -0.0834 -0.4072 -0.2811
 3006TIP3    H130509   6.032   2.970   1.661 -1.5944  1.7443  0.0459
 3006TIP3    H230510   5.979   3.050   1.544  0.9111 -0.0236 -2.4561
 3007TIP3   OH230511   1.151   3.496   3.470  0.3299 -0.4815 -0.5141
 3007TIP3    H130512   1.101   3.566   3.428  0.1675 -0.6378 -0.5801
 3007TIP3    H230513   1.213   3.542   3.527  0.1446 -0.2869 -0.4683
 3008TIP3   OH230514   0.415   2.621  13.378  0.0659  1.0784 -0.0976
 3008TIP3    H130515   0.505   2.641  13.351  0.9201 -0.5452  1.3570
 3008TIP3    H230516   0.425   2.579  13.464 -2.1619  1.6684  0.5036
 3009TIP3   OH230517   0.085   0.110  12.747  0.3783  0.6063 -0.2790
 3009TIP3    H130518   0.174   0.087  12.720  1.0942 -1.1310  3.0187
 3009TIP3    H230519   0.097   0.186  12.804 -0.2324  0.2880  0.2757
 3010TIP3   OH230520   0.857   1.632  11.553  0.3430  0.5101 -0.1801
 3010TIP3    H130521   0.890   1.544  11.534  0.8408  0.4453  0.9006
 3010TIP3    H230522   0.788   1.618  11.618 -0.2502  0.8500 -0.7228
 3011TIP3   OH230523   0.677   1.555   1.125 -0.0124  0.4796  0.4851
 3011TIP3    H130524   0.749   1.572   1.064 -0.3866  0.5013  0.0492
 3011TIP3    H230525   0.642   1.471   1.098  1.4206 -0.7620  2.2434
 3012TIP3   OH230526   3.949   0.931  12.119  0.4168  0.4373 -0.1570
 3012TIP3    H130527   4.029   0.981  12.101 -0.6064  2.4010  0.4356
 3012TIP3    H230528   3.915   0.909  12.032  1.8653 -0.9424 -0.4168
 3013TIP3   OH230529   6.481   4.905  12.572  0.7728  0.0560  0.0622
 3013TIP3    H130530   6.388   4.928  12.577  0.9609  0.8037  0.2467
 3013TIP3    H230531   6.482   4.810  12.576 -0.1727 -0.1454 -2.6683
 3014TIP3   OH230532   2.198   3.647   0.832 -0.0705 -0.6875 -0.0513
 3014TIP3    H130533   2.146   3.654   0.912 -0.4042  0.1393 -0.3270
 3014TIP3    H230534   2.272   3.591   0.856  0.5033  0.5456  1.1840
 3015TIP3   OH230535   3.224   0.691  15.572  0.2938  0.0298 -0.3959
 3015TIP3    H130536   3.275   0.672  15.651  0.3632 -0.4099 -0.5441
 3015TIP3    H230537   3.221   0.608  15.524  1.1596  0.5198 -1.3726
 3016TIP3   OH230538   6.486   1.807   2.546 -0.2283  0.0282 -0.0926
 3016TIP3    H130539   6.454   1.863   2.475 -0.1401 -1.5573 -1.4638
 3016TIP3    H230540   6.432   1.728   2.540  0.8876 -0.8089  0.5379
 3017TIP3   OH230541   5.704   6.039  11.268 -0.3162  0.5797 -0.2328
 3017TIP3    H130542   5.760   5.962  11.261 -0.3488  0.5252  0.0856
 3017TIP3    H230543   5.675   6.039  11.359 -4.3990 -1.8420 -1.2899
 3018TIP3   OH230544   5.743   4.568  12.869  0.7686  0.1301 -0.4065
 3018TIP3    H130545   5.689   4.642  12.839 -0.5794 -0.5090  0.3769
 3018TIP3    H230546   5.799   4.606  12.937 -0.4943  0.2788  0.5805
 3019TIP3   OH230547   1.418   1.804   5.680 -0.2684 -0.4358 -0.7552
 3019TIP3    H130548   1.352   1.736   5.678 -0.3859 -0.3445 -0.1173
 3019TIP3    H230549   1.400   1.854   5.760 -0.7592  0.9214 -1.6659
 3020TIP3   OH230550   3.826   2.963   3.814 -0.3185  0.0924 -0.1052
 3020TIP3    H130551   3.849   3.003   3.730  2.0402  0.8063  0.8111
 3020TIP3    H230552   3.895   2.899   3.830 -0.3345  0.4450  1.5732
 3021TIP3   OH230553   4.314   5.904  15.435 -0.4548  0.2965 -0.7139
 3021TIP3    H130554   4.331   5.970  15.368  1.0556 -1.3590 -2.0577
 3021TIP3    H230555   4.247   5.943  15.491 -0.7530  2.3003 -2.3613
 3022TIP3   OH230556   1.163   6.822   2.052  0.0350 -0.0918  0.8062
 3022TIP3    H130557   1.095   6.850   2.113  0.0091 -1.1180  1.2844
 3022TIP3    H230558   1.193   6.738   2.087 -0.4576 -1.0486 -0.9523
 3023TIP3   OH230559   5.505   6.630  15.355 -0.3413  0.0149 -0.6176
 3023TIP3    H130560   5.420   6.623  15.311 -0.4559 -0.3936 -0.3288
 3023TIP3    H230561   5.558   6.560  15.317 -0.3560 -0.1718 -0.2977
 3024TIP3   OH230562   5.386   1.747   0.452  0.1195 -0.1942 -0.8485
 3024TIP3    H130563   5.301   1.719   0.417 -1.4958  1.5031  1.3883
 3024TIP3    H230564   5.370   1.835   0.486  2.4613 -0.3134  0.8148
 3025TIP3   OH230565   3.286   3.820   5.675 -0.3326 -0.0830  0.2844
 3025TIP3    H130566   3.216   3.811   5.739 -0.9393 -1.0380 -0.4725
 3025TIP3    H230567   3.299   3.914   5.665 -0.8406  0.0819  1.1406
 3026TIP3   OH230568   3.231   6.052  14.765 -0.2267  0.0121  0.1335
 3026TIP3    H130569   3.182   6.119  14.716  0.7056 -0.0112 -0.8726
 3026TIP3    H230570   3.321   6.084  14.765  0.0292 -0.6883  0.6487
 3027TIP3   OH230571   3.701   6.067   5.944 -0.5980  0.6003  0.0028
 3027TIP3    H130572   3.747   6.130   6.000  0.4886 -1.7369  1.8957
 3027TIP3    H230573   3.761   6.050   5.872 -0.5639  1.1287 -0.0973
 3028TIP3   OH230574   1.262   0.524   2.151 -0.1704  0.1433  0.0396
 3028TIP3    H130575   1.316   0.458   2.196 -2.0984 -0.3620  1.7755
 3028TIP3    H230576   1.321   0.597   2.136  1.4891 -1.1236  0.0511
 3029TIP3   OH230577   2.763   5.794  13.129  0.0613  0.6387  0.2439
 3029TIP3    H130578   2.839   5.779  13.074  0.4626  0.3373  0.8753
 3029TIP3    H230579   2.688   5.780  13.071  0.4269 -1.7054  0.2605
 3030TIP3   OH230580   0.472   4.383   1.665 -0.1678 -0.2084 -0.0865
 3030TIP3    H130581   0.400   4.320   1.660 -0.1455 -0.2572  0.2099
 3030TIP3    H230582   0.544   4.334   1.705 -0.2873  0.1301  0.5494
 3031TIP3   OH230583   0.266   1.771  12.497 -0.1087 -0.3475  0.0772
 3031TIP3    H130584   0.267   1.844  12.558 -1.7715 -0.3341  0.1458
 3031TIP3    H230585   0.274   1.811  12.410 -1.9460  0.0539  0.0484
 3032TIP3   OH230586   0.023   5.213  12.346  0.2633  0.0968 -0.3375
 3032TIP3    H130587  -0.018   5.293  12.379  0.4108  0.0021  0.0714
 3032TIP3    H230588  -0.003   5.145  12.408  1.3566  0.1085  0.1494
 3033TIP3   OH230589   6.382   4.513  11.722 -0.2328  0.0409  0.0525
 3033TIP3    H130590   6.324   4.574  11.676 -0.5075  0.8971  1.4716
 3033TIP3    H230591   6.324   4.461  11.777  0.1813 -0.2252  0.2446
 3034TIP3   OH230592   3.126   2.814  11.471 -0.0669  0.4765  0.0068
 3034TIP3    H130593   3.039   2.781  11.493 -0.2335  1.2486  0.5006
 3034TIP3    H230594   3.132   2.899  11.513  1.4403 -0.1323  1.1263
 3035TIP3   OH230595   0.624   5.965   2.371  0.1805 -0.3077 -0.4471
 3035TIP3    H130596   0.538   5.978   2.411 -0.6465 -1.3460 -1.8128
 3035TIP3    H230597   0.620   6.016   2.290  1.4156  0.8332  0.1686
 3036TIP3   OH230598   1.355   6.292  15.302  0.2707 -0.2708 -0.3153
 3036TIP3    H130599   1.321   6.379  15.323 -0.7259 -0.9781  1.1668
 3036TIP3    H230600   1.417   6.307  15.231 -0.7484  1.4912 -0.8844
 3037TIP3   OH230601   0.726   6.555   2.368  0.1042 -0.5471 -0.7019
 3037TIP3    H130602   0.682   6.476   2.400 -1.0307  0.4493  0.3239
 3037TIP3    H230603   0.783   6.582   2.441 -0.8126  0.5122 -0.3514
 3038TIP3   OH230604   2.158   1.660   0.493  0.5917  0.0336  0.0521
 3038TIP3    H130605   2.226   1.721   0.465  1.5173 -0.8725  0.2566
 3038TIP3    H230606   2.155   1.593   0.425  0.9403 -0.7061  0.7387
 3039TIP3   OH230607   0.629   2.478  10.835  0.3417  0.3759  0.0135
 3039TIP3    H130608   0.621   2.550  10.773  1.4793 -0.7903 -1.5501
 3039TIP3    H230609   0.716   2.489  10.874  0.0400  0.5194  0.6557
 3040TIP3   OH230610   3.262   3.146   4.111  0.0668  0.2566 -0.1674
 3040TIP3    H130611   3.249   3.220   4.051 -1.8147  1.4383  1.5480
 3040TIP3    H230612   3.300   3.078   4.057  1.7430  2.4039 -1.8832
 3041TIP3   OH230613   1.571   2.295   5.861 -0.7517 -0.4342 -0.4778
 3041TIP3    H130614   1.554   2.217   5.912  1.1756 -0.6465 -0.0985
 3041TIP3    H230615   1.586   2.364   5.926  2.3861 -0.8498 -0.6275
 3042TIP3   OH230616   4.687   2.446   5.370  0.1356  0.4622  0.0454
 3042TIP3    H130617   4.592   2.461   5.361  0.0318 -1.0152 -1.9706
 3042TIP3    H230618   4.704   2.461   5.463 -1.9260  1.5021  0.3304
 3043TIP3   OH230619   1.357   4.829   3.968  0.6922  0.1976 -0.0129
 3043TIP3    H130620   1.356   4.886   3.891  1.2519 -0.5200 -0.5602
 3043TIP3    H230621   1.449   4.820   3.991  0.6831 -1.1707 -0.4556
 3044TIP3   OH230622   2.352   3.669  15.327 -0.6503  0.6462 -0.2229
 3044TIP3    H130623   2.440   3.703  15.310 -0.8990  0.3287 -2.3551
 3044TIP3    H230624   2.300   3.699  15.253 -1.8029 -1.0832 -0.1571
 3045TIP3   OH230625   5.854   0.252   2.272  0.6227 -0.2815 -0.0118
 3045TIP3    H130626   5.927   0.207   2.315 -0.2939 -2.0611 -0.2191
 3045TIP3    H230627   5.844   0.207   2.188 -0.3873  0.2636 -0.2058
 3046TIP3   OH230628   6.758   4.232  13.861  0.9145 -0.2076 -0.0668
 3046TIP3    H130629   6.688   4.167  13.868  1.1437 -0.6624 -1.7060
 3046TIP3    H230630   6.838   4.180  13.858  1.1968  0.2206 -0.0082
 3047TIP3   OH230631   6.834   2.324   3.248 -0.4052 -0.1029  0.4570
 3047TIP3    H130632   6.764   2.329   3.313 -0.3375  0.9092  0.4602
 3047TIP3    H230633   6.861   2.415   3.233 -0.6803 -0.2668 -1.2690
 3048TIP3   OH230634   0.183   1.491  16.841 -0.3428 -0.2191  0.0779
 3048TIP3    H130635   0.138   1.443  16.911  0.4151 -1.9224 -0.5461
 3048TIP3    H230636   0.112   1.522  16.784 -0.8416 -1.0506  0.2325
 3049TIP3   OH230637   3.310   3.912  13.638 -0.4638  0.6544  0.2393
 3049TIP3    H130638   3.269   3.876  13.717 -2.2096  1.7312 -0.1305
 3049TIP3    H230639   3.363   3.840  13.604  1.1554  0.4523  2.8828
 3050TIP3   OH230640   4.345   4.994  13.803  0.8212 -0.4656  0.0718
 3050TIP3    H130641   4.351   5.053  13.878  0.6650 -0.9093  0.4391
 3050TIP3    H230642   4.262   4.948  13.815  1.1462 -1.0705  0.0187
 3051TIP3   OH230643   4.359   1.071  14.964 -0.3801 -0.1314 -0.0966
 3051TIP3    H130644   4.369   1.022  14.882  2.1953  1.1723 -0.6652
 3051TIP3    H230645   4.385   1.009  15.032 -1.3561 -0.8474 -0.3506
 3052TIP3   OH230646   4.366   0.453  13.935 -0.1072 -0.2232  0.1220
 3052TIP3    H130647   4.343   0.540  13.965  0.4981 -0.2451  0.6919
 3052TIP3    H230648   4.460   0.458  13.918  0.3861 -1.2919  2.1896
 3053TIP3   OH230649   1.931   1.234   2.974 -0.2767  0.3188 -0.8963
 3053TIP3    H130650   1.946   1.311   3.028  1.9226  1.0697 -2.4380
 3053TIP3    H230651   2.015   1.217   2.931 -1.5693 -0.8932 -3.1861
 3054TIP3   OH230652   4.446   5.851   2.174 -0.3538  0.2505  0.2270
 3054TIP3    H130653   4.459   5.774   2.231  1.6981  1.0940  0.9947
 3054TIP3    H230654   4.429   5.814   2.087  0.6110 -1.0999  0.5807
 3055TIP3   OH230655   1.284   1.142   5.944  0.5950  0.1105 -0.2696
 3055TIP3    H130656   1.377   1.139   5.967  1.6253  1.1434 -3.6307
 3055TIP3    H230657   1.253   1.225   5.981  1.2897  0.2419  0.0326
 3056TIP3   OH230658   5.242   0.914   1.098 -0.4868  0.6895  0.0122
 3056TIP3    H130659   5.253   0.933   1.004  2.3610  0.0791  0.1508
 3056TIP3    H230660   5.175   0.845   1.100 -1.5141  1.5575 -1.4271
 3057TIP3   OH230661   3.427   6.746   3.241 -0.2333  0.5917 -0.3347
 3057TIP3    H130662   3.398   6.800   3.167 -1.6436 -0.0688 -0.3107
 3057TIP3    H230663   3.346   6.709   3.276  0.4478  0.5418  1.2838
 3058TIP3   OH230664   0.388   2.929  14.341 -0.0340  0.8948 -0.0289
 3058TIP3    H130665   0.414   3.019  14.320 -3.9141  2.2262 -0.0763
 3058TIP3    H230666   0.335   2.902  14.266  0.5926 -1.2577  0.2491
 3059TIP3   OH230667   3.865   0.401   5.263 -0.3909 -0.1145  0.7162
 3059TIP3    H130668   3.848   0.307   5.251 -2.4635  0.2775 -0.0019
 3059TIP3    H230669   3.798   0.429   5.326 -0.5392  1.0623  0.0678
 3060TIP3   OH230670   5.123   1.186  14.141  0.1241 -0.4050  0.2334
 3060TIP3    H130671   5.028   1.190  14.133  0.0917  0.8741  0.9957
 3060TIP3    H230672   5.151   1.133  14.066 -1.2554 -1.7830  0.6447
 3061TIP3   OH230673   1.042   3.867   3.785 -0.1974  0.4171 -0.3072
 3061TIP3    H130674   1.038   3.926   3.861 -0.9811 -0.0499  0.0181
 3061TIP3    H230675   1.079   3.921   3.715  1.7488  0.5127  0.7159
 3062TIP3   OH230676   6.564   3.581   5.686  0.4744  0.1004 -0.3546
 3062TIP3    H130677   6.657   3.563   5.681  0.6771 -1.1988  4.0779
 3062TIP3    H230678   6.522   3.497   5.669  0.3050 -0.0435  0.7450
 3063TIP3   OH230679   3.630   0.228   0.769  0.3450  0.8118 -0.6412
 3063TIP3    H130680   3.628   0.158   0.835  1.6373  0.3199 -1.0839
 3063TIP3    H230681   3.715   0.271   0.782 -0.3317  2.1586 -0.5366
 3064TIP3   OH230682   5.098   1.375   2.095 -0.6982  0.6529  0.2119
 3064TIP3    H130683   5.112   1.388   2.001 -0.8791  1.7795  0.3178
 3064TIP3    H230684   5.004   1.387   2.106 -1.1997 -2.4314  0.1420
 3065TIP3   OH230685   0.970   6.809  15.791 -0.0633 -0.0311 -0.0349
 3065TIP3    H130686   1.019   6.838  15.868  0.3027 -0.2862 -0.1706
 3065TIP3    H230687   1.035   6.768  15.735 -0.5812 -1.1973  0.1872
 3066TIP3   OH230688   0.434   3.310  13.597  0.5901 -0.4318  0.7336
 3066TIP3    H130689   0.449   3.261  13.516 -1.2202 -1.7005  1.1189
 3066TIP3    H230690   0.396   3.246  13.657 -1.9399  1.4009  1.2413
 3067TIP3   OH230691   4.097   0.912  12.426  0.4890  0.5841 -0.1621
 3067TIP3    H130692   4.182   0.871  12.409 -0.6097 -2.4454  1.0528
 3067TIP3    H230693   4.046   0.895  12.347  0.5223  1.0734 -0.2918
 3068TIP3   OH230694   1.454   3.471  12.039 -0.0470 -0.0425 -0.6295
 3068TIP3    H130695   1.536   3.502  12.078 -0.6879  0.1897  0.6080
 3068TIP3    H230696   1.456   3.504  11.950  0.3113  1.6880 -0.0188
 3069TIP3   OH230697   2.505   2.555  10.490  0.3670  0.7307  0.0412
 3069TIP3    H130698   2.517   2.462  10.471 -0.4268  1.1751 -3.5051
 3069TIP3    H230699   2.583   2.597  10.455 -0.0516  1.5115  0.0133
 3070TIP3   OH230700   4.147   1.572  15.288  0.5355 -0.0685 -0.3521
 3070TIP3    H130701   4.117   1.532  15.369 -1.1711 -1.2125 -1.4668
 3070TIP3    H230702   4.070   1.570  15.230  2.2867 -1.5766 -2.8218
 3071TIP3   OH230703   1.300   6.321   5.674 -0.1429 -0.1566  1.1216
 3071TIP3    H130704   1.270   6.386   5.738 -0.7223  0.2014  0.5041
 3071TIP3    H230705   1.325   6.373   5.598  1.6058 -0.4794  1.4200
 3072TIP3   OH230706   5.063   6.540   1.078  1.0456  0.0872 -0.5915
 3072TIP3    H130707   5.026   6.477   1.139 -0.9285  1.9255  0.2664
 3072TIP3    H230708   5.033   6.511   0.992  3.4394 -2.2405 -0.7550
 3073TIP3   OH230709   6.339   6.173  15.348 -0.5717 -0.1074  0.0843
 3073TIP3    H130710   6.399   6.158  15.421 -1.6923 -0.5192  0.9579
 3073TIP3    H230711   6.305   6.261  15.362 -0.4682 -0.0234 -0.1851
 3074TIP3   OH230712   6.434   4.610   1.910 -0.2059 -0.5233  0.1186
 3074TIP3    H130713   6.471   4.629   1.996  1.7153 -0.5203 -0.6517
 3074TIP3    H230714   6.341   4.630   1.918 -0.0465 -0.4327  2.1477
 3075TIP3   OH230715   5.981   6.600  14.884  0.0991 -0.2728 -0.6491
 3075TIP3    H130716   5.952   6.622  14.972 -0.3869 -2.2538 -0.2732
 3075TIP3    H230717   5.976   6.683  14.836 -0.1847  0.7167  1.0138
 3076TIP3   OH230718   1.716   3.620   1.275 -0.2963 -0.6147  0.1290
 3076TIP3    H130719   1.783   3.688   1.265  0.9339 -2.0656 -2.7860
 3076TIP3    H230720   1.758   3.554   1.330  0.2397 -0.9626 -0.6770
 3077TIP3   OH230721   0.717   3.508  11.866  0.0622  0.5426 -0.0554
 3077TIP3    H130722   0.653   3.442  11.893  1.0745  0.2562  1.7483
 3077TIP3    H230723   0.664   3.583  11.837 -1.0958  0.3474  1.4852
 3078TIP3   OH230724   3.087   1.334  15.046  0.3320 -0.1691 -0.3039
 3078TIP3    H130725   3.104   1.362  15.136 -1.2161 -0.6551  0.1727
 3078TIP3    H230726   3.046   1.248  15.055  0.2055 -0.2384 -1.4721
 3079TIP3   OH230727   0.657   2.593   0.668  0.2806 -0.4890  0.1854
 3079TIP3    H130728   0.670   2.516   0.724 -1.3520  0.5677  2.1645
 3079TIP3    H230729   0.745   2.619   0.642  0.8817 -2.8775 -0.3904
 3080TIP3   OH230730   2.489   1.164   5.730  0.0757 -0.0189  0.6709
 3080TIP3    H130731   2.560   1.142   5.671 -0.9008 -1.7869  0.0890
 3080TIP3    H230732   2.507   1.115   5.810 -0.9815 -1.3331  0.1460
 3081TIP3   OH230733   2.961   5.247  11.565  0.3713 -0.4514 -0.3911
 3081TIP3    H130734   2.923   5.184  11.626 -0.7940  0.0791 -0.5370
 3081TIP3    H230735   3.024   5.196  11.513 -0.0079 -1.3188 -0.0183
 3082TIP3   OH230736   6.151   3.059   2.819 -0.9002  0.3540  0.3224
 3082TIP3    H130737   6.181   2.974   2.786  1.5384  0.8391  1.1091
 3082TIP3    H230738   6.192   3.123   2.761  0.1735  1.0678  1.8000
 3083TIP3   OH230739   1.475   1.332   5.117 -0.4073 -0.5388 -0.6341
 3083TIP3    H130740   1.421   1.408   5.094 -1.0948 -0.3980  1.2494
 3083TIP3    H230741   1.556   1.369   5.151 -0.6172 -0.6285 -0.0136
 3084TIP3   OH230742   6.490   4.121   5.825 -0.2853 -0.0934 -0.3774
 3084TIP3    H130743   6.513   4.147   5.914  0.2807 -0.7720 -0.3208
 3084TIP3    H230744   6.398   4.147   5.816 -0.4911 -0.4624  0.5701
 3085TIP3   OH230745   5.997   5.381  16.011  0.1213  1.0387  0.1771
 3085TIP3    H130746   5.999   5.391  16.107  0.8960 -0.7346  0.3819
 3085TIP3    H230747   6.083   5.411  15.982  0.2948  0.5507  0.1715
 3086TIP3   OH230748   3.309   3.273   1.489  0.5201  0.5981 -0.1447
 3086TIP3    H130749   3.386   3.330   1.497  3.2535 -2.6250 -1.1715
 3086TIP3    H230750   3.324   3.225   1.408 -1.8524 -1.2591  0.4223
 3087TIP3   OH230751   3.386   0.253  15.922 -0.3321 -0.2628 -0.2265
 3087TIP3    H130752   3.299   0.280  15.953 -0.6210  1.1153 -2.0708
 3087TIP3    H230753   3.415   0.325  15.866  1.7889 -0.9404 -0.0944
 3088TIP3   OH230754   2.613   1.410  10.549 -0.1154 -0.6460 -0.1656
 3088TIP3    H130755   2.673   1.452  10.611 -0.6636 -1.3890  0.9139
 3088TIP3    H230756   2.668   1.348  10.501  0.2565 -0.2959 -0.1998
 3089TIP3   OH230757   2.058   3.274   1.874 -0.1377  0.4093  0.0031
 3089TIP3    H130758   2.073   3.192   1.922 -0.0284  0.6701  0.4236
 3089TIP3    H230759   2.036   3.246   1.786  0.1963 -0.0682  0.0633
 3090TIP3   OH230760   2.860   6.064  15.483  0.6646  0.0739  0.2196
 3090TIP3    H130761   2.941   6.107  15.454  0.9492 -0.2722  0.4967
 3090TIP3    H230762   2.881   6.029  15.570 -0.4275  1.8104  1.2438
 3091TIP3   OH230763   4.718   1.989   0.322 -0.1042 -0.2911  0.5866
 3091TIP3    H130764   4.642   1.942   0.355 -1.0525  0.4836 -0.4211
 3091TIP3    H230765   4.748   1.938   0.246  0.5269 -0.7126  1.1100
 3092TIP3   OH230766   4.865   5.169  12.136  0.0868  0.5208 -0.2289
 3092TIP3    H130767   4.805   5.186  12.209  0.7217 -0.0961  0.4558
 3092TIP3    H230768   4.890   5.255  12.105 -0.6812  0.7885 -0.1332
 3093TIP3   OH230769   1.068   5.156   0.595 -0.0570  0.4806  0.3968
 3093TIP3    H130770   1.109   5.243   0.596 -0.8220  0.8648  1.3797
 3093TIP3    H230771   1.091   5.117   0.679 -0.7552  0.2573  0.4974
 3094TIP3   OH230772   3.658   1.643  14.977  0.1565 -0.7380 -0.5739
 3094TIP3    H130773   3.591   1.622  14.912 -2.5731  2.3733  0.9319
 3094TIP3    H230774   3.641   1.585  15.050  0.6983 -1.5529 -1.0762
 3095TIP3   OH230775   1.664   1.614  12.935  0.0432 -0.6343 -0.1680
 3095TIP3    H130776   1.744   1.632  12.886 -0.4322 -0.3506 -0.8652
 3095TIP3    H230777   1.618   1.698  12.937  1.1812  0.0484  2.9871
 3096TIP3   OH230778   6.561   5.403  15.103  0.1149 -0.2471  0.0147
 3096TIP3    H130779   6.610   5.349  15.041  0.1662  0.1698 -0.3173
 3096TIP3    H230780   6.530   5.342  15.170 -0.6415 -0.8384 -0.8545
 3097TIP3   OH230781   4.613   5.265  11.243 -0.2881  0.2496  0.3230
 3097TIP3    H130782   4.650   5.354  11.246  1.3265 -0.3263 -0.9530
 3097TIP3    H230783   4.541   5.271  11.181 -0.4786  0.7513  0.5821
 3098TIP3   OH230784   5.914   4.463   2.302 -0.0426  0.3964 -0.0104
 3098TIP3    H130785   5.872   4.549   2.306  1.7465  1.2802  1.4135
 3098TIP3    H230786   5.919   4.436   2.394  2.8063  0.5691 -0.0274
 3099TIP3   OH230787   5.605   2.337  15.142  0.2087  0.0247 -0.2887
 3099TIP3    H130788   5.576   2.424  15.167  1.8985  0.4600  0.2571
 3099TIP3    H230789   5.524   2.289  15.122 -0.6778  2.4938 -3.3784
 3100TIP3   OH230790   4.502   2.442   4.664 -0.2850  0.0802  0.4595
 3100TIP3    H130791   4.582   2.493   4.672  0.2646 -0.4020 -1.4041
 3100TIP3    H230792   4.434   2.506   4.643  0.4770  0.1335 -2.2985
 3101TIP3   OH230793   5.986   5.413  16.777  0.1556  0.1218  0.2420
 3101TIP3    H130794   6.006   5.327  16.815  1.5269  1.5801  3.0552
 3101TIP3    H230795   6.070   5.458  16.773 -0.6374  1.5891 -0.6097
 3102TIP3   OH230796   4.397   0.185   5.832  0.1449 -0.0452  0.5655
 3102TIP3    H130797   4.354   0.178   5.918 -0.0022 -1.1000  0.4087
 3102TIP3    H230798   4.325   0.180   5.769  0.2884  0.3957  0.3623
 3103TIP3   OH230799   4.541   2.130  11.825 -0.0079  0.2444  0.5495
 3103TIP3    H130800   4.468   2.087  11.870  1.1401 -0.7050  1.5843
 3103TIP3    H230801   4.517   2.223  11.825 -1.8473 -0.1832 -0.4146
 3104TIP3   OH230802   4.281   4.501   4.634  0.1575 -0.6553  0.0274
 3104TIP3    H130803   4.288   4.559   4.558 -0.0901  0.2110  0.6499
 3104TIP3    H230804   4.328   4.547   4.704  0.1704 -1.3226  0.4631
 3105TIP3   OH230805   5.383   3.840   0.953  0.0803 -0.3581 -0.2967
 3105TIP3    H130806   5.454   3.886   0.998  0.9604 -3.4932  1.8462
 3105TIP3    H230807   5.303   3.872   0.995  0.6569 -0.6139  1.0517
 3106TIP3   OH230808   1.870   5.132  12.610 -0.1176 -0.4113  0.0844
 3106TIP3    H130809   1.949   5.087  12.639  0.5248  0.2445 -0.6081
 3106TIP3    H230810   1.815   5.063  12.572 -0.3391 -1.0356  1.4794
 3107TIP3   OH230811   2.691   5.961   5.303 -0.3247  0.2231  0.1041
 3107TIP3    H130812   2.612   5.926   5.342 -1.7294  1.6975 -1.2617
 3107TIP3    H230813   2.741   5.996   5.377 -0.5171 -1.4744  1.0735
 3108TIP3   OH230814   0.345   3.068  12.794  0.0556 -0.1305  0.6640
 3108TIP3    H130815   0.438   3.091  12.801 -0.1768  0.9639  0.3461
 3108TIP3    H230816   0.343   2.973  12.801  1.2618 -0.2155  0.0227
 3109TIP3   OH230817   6.297   3.720  16.231  0.0528 -0.0653  0.0407
 3109TIP3    H130818   6.379   3.769  16.224  1.1710 -2.0003 -1.6141
 3109TIP3    H230819   6.244   3.750  16.158 -0.3285  0.5035  0.5477
 3110TIP3   OH230820   6.699   1.914  12.349 -0.4677 -0.3783 -0.0869
 3110TIP3    H130821   6.786   1.924  12.311 -1.4351  0.0070 -2.3705
 3110TIP3    H230822   6.670   1.827  12.320 -1.0315 -0.2997  0.2354
 3111TIP3   OH230823   0.455   5.496   1.014 -0.0587 -0.2688 -0.6552
 3111TIP3    H130824   0.507   5.577   1.009 -2.4467  1.3987 -0.1754
 3111TIP3    H230825   0.506   5.439   1.071  0.4320  1.9898  1.3525
 3112TIP3   OH230826   6.285   2.526   1.929  0.4984  0.2804 -0.0978
 3112TIP3    H130827   6.369   2.541   1.973  0.8045 -0.4236 -0.4191
 3112TIP3    H230828   6.306   2.467   1.857  0.1541  2.1159 -1.7591
 3113TIP3   OH230829   4.713   3.077   1.301  0.6934 -0.0181 -0.4551
 3113TIP3    H130830   4.643   3.110   1.246  0.9280  0.3685 -0.5219
 3113TIP3    H230831   4.793   3.094   1.252  1.2261  3.1182  1.2384
 3114TIP3   OH230832   0.267   5.620   4.740 -0.0444  0.5885 -0.0816
 3114TIP3    H130833   0.293   5.647   4.828  1.3429  0.1578 -0.3289
 3114TIP3    H230834   0.263   5.701   4.690 -0.3229  0.7800  0.2435
 3115TIP3   OH230835   5.452   5.838  17.018  0.0900 -0.1067 -0.1144
 3115TIP3    H130836   5.522   5.898  17.045  0.0273  0.0824 -0.3606
 3115TIP3    H230837   5.496   5.777  16.959 -0.0651  0.3722 -0.7417
 3116TIP3   OH230838   0.310   4.490  12.368 -0.6173  0.1260 -0.1948
 3116TIP3    H130839   0.253   4.520  12.439 -1.1717 -1.3914  0.0586
 3116TIP3    H230840   0.307   4.560  12.303 -0.0964  1.5604  1.2600
 3117TIP3   OH230841   1.989   4.057  12.840 -0.2223  0.3189  0.4512
 3117TIP3    H130842   2.031   4.097  12.917  0.6190 -1.4004  0.9271
 3117TIP3    H230843   2.052   3.992  12.809 -1.3234 -0.2877 -0.6023
 3118TIP3   OH230844   2.209   1.397   5.645  0.2240 -0.0191  0.1046
 3118TIP3    H130845   2.231   1.444   5.565 -1.3625  0.0740 -0.3026
 3118TIP3    H230846   2.157   1.459   5.696  0.7212 -0.2847  0.9575
 3119TIP3   OH230847   6.219   3.213   5.470  0.1907  0.7961  0.0101
 3119TIP3    H130848   6.202   3.126   5.435  1.2666  0.5673  0.0423
 3119TIP3    H230849   6.207   3.205   5.565  0.1663  0.7150 -0.0004
 3120TIP3   OH230850   5.641   2.555  16.867  0.2870  0.0316 -0.5930
 3120TIP3    H130851   5.596   2.557  16.952  1.6371 -0.3631  0.1599
 3120TIP3    H230852   5.693   2.635  16.866  1.8479 -0.9295 -0.1271
 3121TIP3   OH230853   1.122   2.869   4.220 -0.0538  0.2116 -0.9744
 3121TIP3    H130854   1.092   2.804   4.284  1.0278  1.8579  1.3754
 3121TIP3    H230855   1.217   2.860   4.220  0.1407  1.8917 -0.3974
 3122TIP3   OH230856   6.074   6.132  13.703 -0.0160  0.5560 -0.0484
 3122TIP3    H130857   6.006   6.090  13.755  0.1344  1.4371  0.9053
 3122TIP3    H230858   6.069   6.090  13.617  0.5160 -1.7715  0.9922
 3123TIP3   OH230859   3.793   2.306   0.019 -0.0585 -0.2569 -0.2965
 3123TIP3    H130860   3.753   2.271   0.098 -0.8053  0.7590 -0.1953
 3123TIP3    H230861   3.770   2.399   0.020  2.4615  0.4176 -0.1724
 3124TIP3   OH230862   1.341   4.635  14.302  0.6264  0.3097 -0.1112
 3124TIP3    H130863   1.385   4.668  14.380  0.2329  0.3954  0.0761
 3124TIP3    H230864   1.285   4.565  14.334 -0.6774  1.3401 -0.0773
 3125TIP3   OH230865   0.620   6.292   1.894 -0.2312 -0.2630  0.8767
 3125TIP3    H130866   0.556   6.332   1.836 -1.0846 -0.0105  1.9595
 3125TIP3    H230867   0.625   6.351   1.970 -0.0599 -1.1924  1.6166
 3126TIP3   OH230868   6.571   1.420   2.716  0.1016 -0.2140 -0.3483
 3126TIP3    H130869   6.490   1.436   2.765 -0.0983 -1.3270 -0.2825
 3126TIP3    H230870   6.625   1.369   2.775  1.3820  1.5485  0.0680
 3127TIP3   OH230871   2.216   1.116  11.111 -0.2979  0.0646  0.5477
 3127TIP3    H130872   2.155   1.100  11.039 -1.0139 -0.6774  1.3036
 3127TIP3    H230873   2.193   1.203  11.143  0.2281  0.5362 -0.2882
 3128TIP3   OH230874   4.143   5.356   5.762 -0.1979 -0.2152  0.6116
 3128TIP3    H130875   4.236   5.354   5.783 -0.3700 -2.2909  1.4091
 3128TIP3    H230876   4.102   5.300   5.828 -1.7495 -0.9233 -0.8699
 3129TIP3   OH230877   5.786   2.763   6.013 -0.5265 -0.4300  0.0436
 3129TIP3    H130878   5.712   2.736   5.958 -0.3631 -1.2640  0.2270
 3129TIP3    H230879   5.863   2.751   5.958 -0.5338  0.7426 -0.2584
 3130TIP3   OH230880   0.280   0.030  14.567 -0.0487 -0.5892  0.0732
 3130TIP3    H130881   0.280  -0.031  14.640 -1.8114  0.1484  0.7567
 3130TIP3    H230882   0.202   0.083  14.581  0.6458  0.8629 -1.2928
 3131TIP3   OH230883   6.765   6.740  16.173  0.4101  0.3068 -0.4118
 3131TIP3    H130884   6.723   6.823  16.152 -0.2646 -0.4686 -2.3649
 3131TIP3    H230885   6.857   6.761  16.187  0.0793  1.4925  0.0640
 3132TIP3   OH230886   4.651   0.848   0.796 -0.3274 -0.1214 -0.0133
 3132TIP3    H130887   4.563   0.829   0.763 -0.4678  0.4129  0.0535
 3132TIP3    H230888   4.665   0.940   0.777  0.4174 -0.3203 -0.4626
 3133TIP3   OH230889   1.629   5.173  13.320 -0.5907  0.4376  0.4385
 3133TIP3    H130890   1.618   5.088  13.277 -2.4843  1.2245 -0.7590
 3133TIP3    H230891   1.579   5.234  13.266  1.7259  2.5929  0.5519
 3134TIP3   OH230892   0.816   1.732  15.278  0.6030 -0.3152  0.5559
 3134TIP3    H130893   0.794   1.697  15.364  0.6533 -0.7060  0.4132
 3134TIP3    H230894   0.795   1.825  15.284 -1.8871 -0.7934  0.1728
 3135TIP3   OH230895   0.245   2.451  11.464 -0.1831 -0.4258  0.1458
 3135TIP3    H130896   0.158   2.487  11.483  0.9569  1.8054  1.5812
 3135TIP3    H230897   0.303   2.527  11.465  1.7093 -1.7308 -1.5727
 3136TIP3   OH230898   4.555   0.720  13.478  0.4372 -0.7311  0.6496
 3136TIP3    H130899   4.502   0.658  13.428 -0.9138  0.0050  1.0937
 3136TIP3    H230900   4.607   0.766  13.412  0.7455 -1.6587  0.2266
 3137TIP3   OH230901   5.447   0.503  13.990  0.2213 -0.4836  0.0440
 3137TIP3    H130902   5.533   0.503  14.033  0.9365 -3.3866 -1.1603
 3137TIP3    H230903   5.385   0.512  14.062  1.4330 -3.3920  1.6268
 3138TIP3   OH230904   1.784   1.766   6.190 -0.4474 -0.1419 -0.0320
 3138TIP3    H130905   1.714   1.799   6.134  0.0153 -1.3094 -1.3622
 3138TIP3    H230906   1.850   1.835   6.190  0.8983 -1.1931 -3.4740
 3139TIP3   OH230907   3.396   1.597  16.394  0.1019  0.3990  0.0311
 3139TIP3    H130908   3.482   1.555  16.403 -0.9264 -2.5642 -2.1574
 3139TIP3    H230909   3.408   1.663  16.327  0.7701  0.3519  0.0968
 3140TIP3   OH230910   1.230   2.719  16.449  0.6766 -0.1199  0.6349
 3140TIP3    H130911   1.136   2.712  16.465  0.2787 -1.3281 -1.8552
 3140TIP3    H230912   1.240   2.806  16.410  0.3537 -0.5082 -0.3474
 3141TIP3   OH230913   2.316   5.337  10.275  0.2899  0.1502 -0.5971
 3141TIP3    H130914   2.279   5.249  10.288  2.7705 -0.8873  0.0654
 3141TIP3    H230915   2.373   5.350  10.351 -2.7982  4.0037  1.4112
 3142TIP3   OH230916   4.337   3.485  17.001  0.0211  0.2339  1.1767
 3142TIP3    H130917   4.379   3.544  16.939  3.1390 -2.9469 -0.0954
 3142TIP3    H230918   4.251   3.467  16.962  0.4434  1.1853 -0.2754
 3143TIP3   OH230919   5.055   2.429   0.783 -0.3258  0.1702  0.0949
 3143TIP3    H130920   4.990   2.444   0.851 -0.3728  0.0624  0.0754
 3143TIP3    H230921   5.140   2.434   0.828 -0.3761 -0.4782  0.2770
 3144TIP3   OH230922   5.905   2.058   5.302 -0.1299 -0.2717  0.1822
 3144TIP3    H130923   5.815   2.065   5.272 -0.0377  1.1102  0.1521
 3144TIP3    H230924   5.899   2.065   5.397  0.0646  1.7229  0.0838
 3145TIP3   OH230925   5.269   2.515   4.324  0.0851  0.3040 -0.3844
 3145TIP3    H130926   5.312   2.482   4.403 -0.4058 -2.1414 -1.0520
 3145TIP3    H230927   5.341   2.539   4.265  0.5080 -0.6360 -0.2667
 3146TIP3   OH230928   5.451   0.314   0.669 -0.3632  0.4718  0.1606
 3146TIP3    H130929   5.401   0.284   0.745 -0.6270 -0.3531 -0.3304
 3146TIP3    H230930   5.542   0.316   0.699 -0.3105 -1.0228  0.1547
 3147TIP3   OH230931   2.682   3.742  15.799 -0.1648 -0.8751 -0.7396
 3147TIP3    H130932   2.641   3.746  15.712  1.3254 -0.4813 -1.4590
 3147TIP3    H230933   2.719   3.654  15.804 -0.5423 -1.0162 -0.3488
 3148TIP3   OH230934   2.545   1.255   1.884 -0.4200 -0.0136 -0.0329
 3148TIP3    H130935   2.537   1.349   1.901 -1.5279  0.3744 -2.2544
 3148TIP3    H230936   2.638   1.241   1.866 -0.2278  0.6361  0.4273
 3149TIP3   OH230937   3.635   3.755  16.948 -0.4699  0.0639 -0.0552
 3149TIP3    H130938   3.681   3.671  16.951 -2.5016 -1.2409 -1.9436
 3149TIP3    H230939   3.570   3.749  17.018 -0.6684  0.0181 -0.2422
 3150TIP3   OH230940   4.545   4.303  12.788  0.2159 -0.0733 -0.1394
 3150TIP3    H130941   4.546   4.351  12.705 -0.6277 -0.9943 -0.7046
 3150TIP3    H230942   4.623   4.247  12.785 -0.2259 -0.6690 -0.6648
 3151TIP3   OH230943   3.237   4.203   3.403 -0.5854 -0.0855 -0.1557
 3151TIP3    H130944   3.238   4.219   3.309 -1.0068 -1.4494 -0.4147
 3151TIP3    H230945   3.155   4.242   3.433 -0.3785  0.4834 -0.3308
 3152TIP3   OH230946   5.661   0.586  13.772  0.0429 -0.3173  0.2978
 3152TIP3    H130947   5.640   0.664  13.823 -1.1170 -0.8872  0.7175
 3152TIP3    H230948   5.638   0.513  13.828  0.7392 -0.9738 -0.2487
 3153TIP3   OH230949   4.736   2.353  10.728  0.0347  0.6389 -0.3866
 3153TIP3    H130950   4.794   2.422  10.697  1.0232 -0.4949 -1.1430
 3153TIP3    H230951   4.650   2.375  10.692  0.6454  0.6935 -1.8576
 3154TIP3   OH230952   2.240   6.754   3.742  0.0523 -0.0480 -0.4659
 3154TIP3    H130953   2.275   6.832   3.785 -0.9052  0.6177 -0.8637
 3154TIP3    H230954   2.216   6.696   3.814  0.3042  0.2245 -0.1582
 3155TIP3   OH230955   2.983   6.275  11.560 -0.0984  0.5357 -0.5400
 3155TIP3    H130956   3.013   6.210  11.496 -1.1116 -0.7590  0.2263
 3155TIP3    H230957   2.903   6.311  11.522 -0.7535 -0.3024 -0.0203
 3156TIP3   OH230958   1.677   5.631  14.578 -0.0938  0.5353  0.4363
 3156TIP3    H130959   1.653   5.694  14.646 -1.7488  0.2655  0.1290
 3156TIP3    H230960   1.731   5.681  14.517 -0.9440  1.5106  0.4723
 3157TIP3   OH230961   4.306   5.533   4.435  0.0148 -0.1876  0.0591
 3157TIP3    H130962   4.340   5.570   4.353 -0.5468 -1.6780 -0.8935
 3157TIP3    H230963   4.383   5.500   4.480  0.2786  0.2277 -0.0748
 3158TIP3   OH230964   6.627   2.598   4.448 -0.5153  0.5113 -0.1633
 3158TIP3    H130965   6.671   2.574   4.529  0.4750  0.0901 -0.8012
 3158TIP3    H230966   6.560   2.661   4.474 -0.1388  0.4627  0.9587
 3159TIP3   OH230967   1.188   5.748  15.586  0.1926  0.1580 -1.1152
 3159TIP3    H130968   1.136   5.738  15.506  1.1290  1.6638 -1.9711
 3159TIP3    H230969   1.156   5.829  15.625 -0.1726 -0.5042 -0.0011
 3160TIP3   OH230970   5.762   1.164  17.119 -0.0343 -0.4122 -0.1544
 3160TIP3    H130971   5.832   1.102  17.138  0.6033 -0.2606 -1.8386
 3160TIP3    H230972   5.786   1.202  17.035 -1.0828  1.1856  0.2233
 3161TIP3   OH230973   4.845   4.836   2.644 -0.1255 -0.4304 -0.2689
 3161TIP3    H130974   4.837   4.928   2.617  0.5814 -0.2371  0.1714
 3161TIP3    H230975   4.915   4.801   2.588 -1.1518 -1.0112 -1.2226
 3162TIP3   OH230976   4.803   6.477  15.946  0.0562  0.1011  0.2563
 3162TIP3    H130977   4.741   6.486  16.019 -0.5012 -1.3021 -0.0141
 3162TIP3    H230978   4.784   6.551  15.889  1.1641  1.8133  1.9745
 3163TIP3   OH230979   0.734   2.030  11.662 -0.1019  0.3967 -0.0285
 3163TIP3    H130980   0.778   1.945  11.654 -0.8430  0.0929 -1.1882
 3163TIP3    H230981   0.721   2.059  11.571 -1.5587  0.8483  0.2897
 3164TIP3   OH230982   2.482   1.887  13.387  0.6287  0.5456 -0.2004
 3164TIP3    H130983   2.444   1.948  13.450  2.0991  0.7844  0.4935
 3164TIP3    H230984   2.434   1.904  13.305 -1.1134  0.4293  0.7516
 3165TIP3   OH230985   1.030   1.126  13.057 -0.3849 -0.6020 -0.1726
 3165TIP3    H130986   0.988   1.043  13.033 -1.0276 -0.0785 -0.8903
 3165TIP3    H230987   1.119   1.118  13.022 -0.5642 -0.8340 -0.5864
 3166TIP3   OH230988   0.031   6.431   5.940 -0.1147 -0.1132 -0.3928
 3166TIP3    H130989  -0.025   6.450   5.864  0.5767 -0.8063 -1.0902
 3166TIP3    H230990   0.013   6.502   6.001 -1.2856  0.0250 -0.8698
 3167TIP3   OH230991   5.947   4.126   4.213 -0.2626 -0.2243 -0.2564
 3167TIP3    H130992   5.924   4.167   4.130 -1.1252 -1.2374 -0.5404
 3167TIP3    H230993   5.980   4.197   4.268 -1.5198  0.7908 -0.7965
 3168TIP3   OH230994   2.167   1.213  11.903 -0.1786 -0.0329  0.2449
 3168TIP3    H130995   2.236   1.260  11.856  0.0969 -0.9555 -0.2813
 3168TIP3    H230996   2.096   1.277  11.909 -0.0436  0.2681 -1.0190
 3169TIP3   OH230997   6.104   5.739   1.717  0.3751  0.2358  0.3714
 3169TIP3    H130998   6.136   5.676   1.782 -0.9312 -0.1768  0.6395
 3169TIP3    H230999   6.066   5.810   1.769 -0.9737 -0.2523  0.0796
 3170TIP3   OH231000   1.884   1.966   4.293 -0.2839  0.3311 -0.0339
 3170TIP3    H131001   1.885   2.060   4.307  0.3376  0.3184 -0.0013
 3170TIP3    H231002   1.807   1.936   4.342  0.2820  0.6444  1.0674
 3171TIP3   OH231003   0.876   3.509  15.362 -0.0860 -1.0405  0.5834
 3171TIP3    H131004   0.907   3.563  15.434 -0.7627 -0.3656  0.3755
 3171TIP3    H231005   0.784   3.492  15.381 -0.5786  0.0670 -0.6419
 3172TIP3   OH231006   1.503   5.797   6.000  0.2214 -0.9213  0.2289
 3172TIP3    H131007   1.460   5.815   6.083 -0.0462 -3.2147  0.6771
 3172TIP3    H231008   1.444   5.833   5.934 -0.3214 -0.4067  0.9781
 3173TIP3   OH231009   2.219   4.189   2.675  0.2832  0.6866  0.5630
 3173TIP3    H131010   2.278   4.116   2.657 -1.7425 -0.7971 -0.3920
 3173TIP3    H231011   2.149   4.151   2.728 -0.9654  1.8417 -0.1907
 3174TIP3   OH231012   4.141   2.200  13.241 -0.4751  0.2498  0.3415
 3174TIP3    H131013   4.226   2.158  13.227 -1.5121 -1.8173 -0.0444
 3174TIP3    H231014   4.151   2.287  13.202  1.0731 -0.4051 -0.8282
 3175TIP3   OH231015   0.078   1.519   2.219  0.4608  0.0115 -0.2102
 3175TIP3    H131016   0.051   1.461   2.148 -0.4860  0.0245  0.1172
 3175TIP3    H231017   0.014   1.591   2.216  0.0415 -0.2881  1.0164
 3176TIP3   OH231018   5.035   0.409   0.944  0.1533 -0.0596 -0.0394
 3176TIP3    H131019   5.110   0.433   0.998  0.2246  0.8273 -0.5161
 3176TIP3    H231020   4.962   0.460   0.980  0.4670  1.5349 -1.5323
 3177TIP3   OH231021   0.467   2.339  15.325  0.0438 -0.2833  0.1515
 3177TIP3    H131022   0.538   2.286  15.289  0.9905  0.9088  0.2088
 3177TIP3    H231023   0.387   2.292  15.301  0.7958 -1.0747 -0.8661
 3178TIP3   OH231024   1.058   2.175  14.710 -0.4598  0.5173  0.3910
 3178TIP3    H131025   1.128   2.241  14.712 -0.4975  0.8173 -2.8598
 3178TIP3    H231026   0.977   2.226  14.716 -0.4656  0.4476  0.9983
 3179TIP3   OH231027   1.644   5.473   0.265  0.2846 -0.0562  0.0445
 3179TIP3    H131028   1.693   5.491   0.184  0.5337  1.3133  0.4787
 3179TIP3    H231029   1.702   5.503   0.335 -0.5746  0.2363  0.6408
 3180TIP3   OH231030   6.448   2.494   2.295  0.5020 -0.0577  0.0360
 3180TIP3    H131031   6.465   2.427   2.229  2.2025  0.9986 -0.6745
 3180TIP3    H231032   6.474   2.576   2.252 -1.7398  1.1164  0.7844
 3181TIP3   OH231033   0.228   5.234  16.134  0.0858  0.4059 -0.4904
 3181TIP3    H131034   0.173   5.305  16.101 -2.2250  0.0321  2.2315
 3181TIP3    H231035   0.182   5.154  16.110  1.1021 -0.0932 -0.8737
 3182TIP3   OH231036   4.663   1.217  12.272  0.9097  0.5006 -0.4997
 3182TIP3    H131037   4.685   1.306  12.242  0.3409  0.9160  0.3016
 3182TIP3    H231038   4.725   1.200  12.343  2.2860 -0.5037 -1.8700
 3183TIP3   OH231039   2.330   4.683  11.603  0.2873 -0.2820  0.0445
 3183TIP3    H131040   2.284   4.628  11.540 -1.3783 -0.1049  1.0389
 3183TIP3    H231041   2.353   4.623  11.675 -1.5308  0.2494  1.1308
 3184TIP3   OH231042   1.608   1.697  13.915  0.5295 -0.4277  0.3964
 3184TIP3    H131043   1.538   1.679  13.977  0.2235 -2.6343 -0.5055
 3184TIP3    H231044   1.584   1.649  13.836  0.4122  3.0039 -1.8658
 3185TIP3   OH231045   6.087   1.811  10.445 -0.3277 -0.1240  0.4471
 3185TIP3    H131046   6.147   1.876  10.481 -0.3562 -0.2222  0.6732
 3185TIP3    H231047   6.144   1.747  10.402 -0.2130 -0.6377  1.3366
 3186TIP3   OH231048   4.572   4.569   3.494 -0.3534  0.1175  0.5324
 3186TIP3    H131049   4.484   4.577   3.531 -1.6799 -1.8072 -1.8801
 3186TIP3    H231050   4.622   4.523   3.560 -2.3711 -2.4068  0.4531
 3187TIP3   OH231051   3.218   5.511  11.305  0.5945  0.5413 -0.2229
 3187TIP3    H131052   3.127   5.486  11.289  0.5838 -0.4503  1.1414
 3187TIP3    H231053   3.224   5.601  11.273 -0.7925  0.5372 -0.5754
 3188TIP3   OH231054   4.456   0.642  14.826 -0.4263  0.2126 -0.3813
 3188TIP3    H131055   4.391   0.619  14.892  0.4250 -1.7069 -0.1727
 3188TIP3    H231056   4.409   0.637  14.743 -1.0813  1.0523 -0.0832
 3189TIP3   OH231057   1.998   2.866  11.265 -0.4678  0.2648  0.1932
 3189TIP3    H131058   1.969   2.940  11.319  1.6168  0.8894  0.5426
 3189TIP3    H231059   2.034   2.906  11.186 -0.2419 -0.4415 -0.0726
 3190TIP3   OH231060   3.689   4.533   3.778  0.4030  0.0610 -0.4052
 3190TIP3    H131061   3.653   4.520   3.691 -2.0763  1.5169  0.3131
 3190TIP3    H231062   3.663   4.622   3.803  2.9135  0.5040  1.0119
 3191TIP3   OH231063   0.376   4.625  13.395  0.3514 -0.0936  0.2026
 3191TIP3    H131064   0.293   4.623  13.443 -0.6006  1.4067 -1.2545
 3191TIP3    H231065   0.428   4.693  13.439 -0.0100  0.3754 -0.0801
 3192TIP3   OH231066   4.504   0.822  12.155 -0.1315  0.4607 -0.1398
 3192TIP3    H131067   4.534   0.898  12.105  1.3833  0.4331  0.6612
 3192TIP3    H231068   4.536   0.747  12.105  1.6515  0.4359  0.9456
 3193TIP3   OH231069   3.825   2.037   2.132 -0.1687 -0.1514  0.2627
 3193TIP3    H131070   3.889   2.068   2.196 -1.3805 -0.2799  1.5783
 3193TIP3    H231071   3.752   2.099   2.139 -0.1572  0.0895 -1.3287
 3194TIP3   OH231072   4.771   5.420  13.964  0.1173  0.0717  0.2607
 3194TIP3    H131073   4.707   5.489  13.945 -0.2650  0.0851  1.5326
 3194TIP3    H231074   4.815   5.449  14.043  1.1936 -0.3099 -0.1827
 3195TIP3   OH231075   2.084   0.583  15.431  0.1470 -0.0883  0.0842
 3195TIP3    H131076   2.159   0.523  15.436  1.9177  1.9937 -0.0010
 3195TIP3    H231077   2.099   0.646  15.501 -1.0913  0.8819 -0.4935
 3196TIP3   OH231078   1.967   5.448  11.155  0.3250  0.8922  0.4487
 3196TIP3    H131079   2.017   5.500  11.219 -0.7746  1.8240  0.5866
 3196TIP3    H231080   2.031   5.424  11.088  1.3948  0.3188  1.6327
 3197TIP3   OH231081   6.154   4.685   0.902 -0.3872  0.1844  0.3176
 3197TIP3    H131082   6.095   4.736   0.847 -1.1868 -0.2959  0.7277
 3197TIP3    H231083   6.236   4.682   0.852 -1.3615 -1.0118 -1.3054
 3198TIP3   OH231084   0.548   1.005  15.094 -0.0755 -0.1203 -0.8569
 3198TIP3    H131085   0.523   0.997  15.186 -1.2342 -0.5306 -1.1887
 3198TIP3    H231086   0.621   1.067  15.094 -0.7161  0.6647  0.2338
 3199TIP3   OH231087   0.132   3.874  13.806  0.1240 -0.0912 -0.5134
 3199TIP3    H131088   0.038   3.891  13.805 -0.1177 -1.1307  0.7501
 3199TIP3    H231089   0.139   3.787  13.845  1.6475  0.3143  0.1848
 3200TIP3   OH231090   2.067   4.730  13.122 -0.8278  0.2445  0.0433
 3200TIP3    H131091   2.094   4.763  13.208  1.3976 -1.4196  0.0669
 3200TIP3    H231092   2.082   4.636  13.127  2.3027  0.3735 -3.0472
 3201TIP3   OH231093   5.067   4.667   4.474 -0.1591 -0.2061 -0.3210
 3201TIP3    H131094   5.151   4.627   4.450  0.4691  0.1072  1.2354
 3201TIP3    H231095   5.036   4.614   4.547 -0.8004  0.3457 -0.1859
 3202TIP3   OH231096   0.472   2.910   4.744  0.3146 -0.2230  0.3222
 3202TIP3    H131097   0.411   2.957   4.688  1.2942  0.1960 -0.4234
 3202TIP3    H231098   0.417   2.849   4.793 -0.8757  1.1458  0.7447
 3203TIP3   OH231099   1.266   5.010   5.780 -0.5657  0.2110 -0.2462
 3203TIP3    H131100   1.238   4.990   5.691 -3.7803  1.6500  0.2995
 3203TIP3    H231101   1.259   4.927   5.827  0.4279 -0.3851 -1.0943
 3204TIP3   OH231102   0.533   0.345   1.519  1.0718 -0.2457 -0.2091
 3204TIP3    H131103   0.498   0.257   1.507  1.3232 -0.5496  1.0786
 3204TIP3    H231104   0.613   0.332   1.570  0.8761  0.7527  0.3796
 3205TIP3   OH231105   2.667   6.645   5.119  0.7648 -0.2014 -0.2654
 3205TIP3    H131106   2.632   6.569   5.073  1.4505 -0.9628  0.4443
 3205TIP3    H231107   2.640   6.633   5.210 -0.3747  1.1666 -0.3708
 3206TIP3   OH231108   0.693   6.720  11.982 -0.1987 -0.1878  0.4526
 3206TIP3    H131109   0.625   6.771  12.026  1.4318  0.8438  1.9178
 3206TIP3    H231110   0.737   6.782  11.924  0.0289 -0.6329  0.1420
 3207TIP3   OH231111   1.886   4.798   5.211 -0.5180 -0.1701  0.0242
 3207TIP3    H131112   1.883   4.752   5.127  1.8420 -1.1267  0.3831
 3207TIP3    H231113   1.850   4.735   5.274 -1.0784  0.0529 -0.0686
 3208TIP3   OH231114   1.504   2.228  16.528  0.3113  0.0739 -0.1335
 3208TIP3    H131115   1.552   2.306  16.501 -0.8539  0.5116 -1.0289
 3208TIP3    H231116   1.430   2.262  16.578  0.0059 -0.4760 -0.2078
 3209TIP3   OH231117   3.464   2.960  15.438  0.1563  0.1792  0.2035
 3209TIP3    H131118   3.430   3.029  15.381 -1.8968 -0.1991  0.8884
 3209TIP3    H231119   3.501   3.006  15.513  0.8583  0.5883 -0.3751
 3210TIP3   OH231120   4.233   5.134  17.027  0.0325 -0.1327  0.4445
 3210TIP3    H131121   4.188   5.168  17.104 -2.4621 -2.8880  0.3892
 3210TIP3    H231122   4.239   5.208  16.967 -1.1510  1.2269  1.9358
 3211TIP3   OH231123   0.867   6.347   1.784  0.4178 -0.2468  0.3716
 3211TIP3    H131124   0.872   6.432   1.828 -0.9441  0.6951 -1.1662
 3211TIP3    H231125   0.780   6.314   1.808  0.6628 -0.8776  0.3948
 3212TIP3   OH231126   1.175   0.681  12.821  0.4799 -0.2058  0.2517
 3212TIP3    H131127   1.113   0.628  12.770  0.0479  0.7207 -0.2244
 3212TIP3    H231128   1.251   0.625  12.832  0.4223 -0.5794 -1.0876
 3213TIP3   OH231129   6.136   3.132   0.675  0.4396 -0.0385 -0.0882
 3213TIP3    H131130   6.088   3.208   0.643  1.4210  0.8882  0.5968
 3213TIP3    H231131   6.227   3.161   0.683  0.9823 -1.5033 -0.5295
 3214TIP3   OH231132   4.201   6.146   3.220  0.1401 -0.1220  0.3060
 3214TIP3    H131133   4.229   6.161   3.310 -0.6198 -2.0863  0.9252
 3214TIP3    H231134   4.282   6.122   3.174  0.7696  2.1689  0.0785
 3215TIP3   OH231135   3.599   3.810   3.126 -0.0663  0.4032 -0.2974
 3215TIP3    H131136   3.557   3.894   3.144  0.9789  1.2581 -1.5650
 3215TIP3    H231137   3.643   3.824   3.042  1.8257 -0.7471  0.4398
 3216TIP3   OH231138   5.828   2.893  14.542  0.1408 -0.2470 -0.0195
 3216TIP3    H131139   5.772   2.921  14.615  0.6235  0.4141  0.1112
 3216TIP3    H231140   5.770   2.891  14.466 -0.3069 -0.6670  0.3271
 3217TIP3   OH231141   6.673   2.658  14.095 -0.4708 -0.1556 -0.2350
 3217TIP3    H131142   6.645   2.688  14.009 -1.9278  2.0562  0.9214
 3217TIP3    H231143   6.593   2.623  14.136 -0.1334  0.1838  0.7431
 3218TIP3   OH231144   5.434   3.266   0.207  0.1108 -0.0700 -0.1355
 3218TIP3    H131145   5.372   3.222   0.266  1.1473 -1.4762 -0.0474
 3218TIP3    H231146   5.519   3.253   0.248  0.5630  1.1895 -0.6454
 3219TIP3   OH231147   2.320   2.428  12.626 -0.2984  0.6236  0.1611
 3219TIP3    H131148   2.257   2.487  12.667 -0.5006 -1.2851  2.8550
 3219TIP3    H231149   2.404   2.451  12.666  0.0956  0.7525 -0.7140
 3220TIP3   OH231150   6.371   1.231   6.274  0.1202 -0.6742 -0.3722
 3220TIP3    H131151   6.291   1.263   6.315  1.3747 -0.6702  2.2528
 3220TIP3    H231152   6.439   1.245   6.339  2.1392 -1.4879 -2.1780
 3221TIP3   OH231153   1.246   3.847  16.661 -0.1427 -0.6059 -0.4117
 3221TIP3    H131154   1.166   3.869  16.710 -0.0791 -0.9812 -0.1336
 3221TIP3    H231155   1.316   3.850  16.727  0.2994  1.0402 -0.9102
 3222TIP3   OH231156   3.030   4.494  11.103 -0.4117 -0.3095  0.3036
 3222TIP3    H131157   2.984   4.558  11.157 -1.5666  0.7211 -1.7858
 3222TIP3    H231158   2.971   4.477  11.029  1.7241 -0.3979 -1.5091
 3223TIP3   OH231159   3.880   0.639   1.864  0.3112 -0.0316 -0.3425
 3223TIP3    H131160   3.952   0.577   1.876 -1.1160 -1.9192 -0.9315
 3223TIP3    H231161   3.859   0.669   1.952 -0.1217 -1.8163  0.1989
 3224TIP3   OH231162   4.109   3.154  17.075  0.3657 -0.1523 -0.0986
 3224TIP3    H131163   4.204   3.159  17.067  0.5347 -2.5621 -0.3142
 3224TIP3    H231164   4.075   3.200  16.999  1.3780  0.0605 -0.4256
 3225TIP3   OH231165   1.712   6.064  13.054 -0.4587 -0.1744 -0.1667
 3225TIP3    H131166   1.777   6.044  12.986 -0.3378  0.6701 -0.3172
 3225TIP3    H231167   1.641   6.106  13.006 -0.5542  0.0546  0.1747
 3226TIP3   OH231168   1.568   0.646   4.230  0.0717 -0.5214 -0.4540
 3226TIP3    H131169   1.521   0.679   4.306 -0.1268  1.1194 -1.2523
 3226TIP3    H231170   1.534   0.557   4.217 -2.0995  0.2549 -0.4182
 3227TIP3   OH231171   1.494   6.458   1.265  0.1645 -0.1962  0.2589
 3227TIP3    H131172   1.544   6.495   1.338 -0.1302  2.2618 -0.7048
 3227TIP3    H231173   1.405   6.450   1.299 -0.1312  1.6368 -0.0096
 3228TIP3   OH231174   0.439   1.952   3.103  0.1358 -0.4660 -0.3881
 3228TIP3    H131175   0.484   1.981   3.024  0.1626 -1.7030 -0.8516
 3228TIP3    H231176   0.426   2.032   3.154  0.8617  0.2305 -1.2575
 3229TIP3   OH231177   1.565   5.178  11.142  0.1541 -0.0517  0.1509
 3229TIP3    H131178   1.560   5.092  11.184  0.6434  0.4441  1.2734
 3229TIP3    H231179   1.635   5.224  11.189  1.3768  0.2320 -1.8295
 3230TIP3   OH231180   2.791   5.471  13.111 -0.0936  0.1535 -0.1865
 3230TIP3    H131181   2.801   5.505  13.022  0.6149 -2.1678 -1.0642
 3230TIP3    H231182   2.704   5.430  13.111 -0.2393  0.4602  0.3034
 3231TIP3   OH231183   5.876   6.258   0.362 -0.3505 -0.3447 -0.2252
 3231TIP3    H131184   5.872   6.296   0.274  1.1884 -2.5689 -1.3354
 3231TIP3    H231185   5.968   6.267   0.388 -0.0939 -2.5016 -0.2111
 3232TIP3   OH231186   0.399   0.174   5.280 -0.0383 -0.0606 -0.3476
 3232TIP3    H131187   0.488   0.167   5.245  0.6244 -1.5415  1.4590
 3232TIP3    H231188   0.373   0.083   5.297 -1.7707  0.3792 -0.5074
 3233TIP3   OH231189   6.075   6.754  12.561  0.4495 -0.0382 -0.0318
 3233TIP3    H131190   6.043   6.782  12.646  2.2301 -2.0554  1.3989
 3233TIP3    H231191   5.996   6.729  12.513 -0.5738  1.1115  0.9840
 3234TIP3   OH231192   5.144   6.181   3.473  0.4029  0.4550 -0.0215
 3234TIP3    H131193   5.226   6.135   3.491  0.3133  0.7432  1.2474
 3234TIP3    H231194   5.127   6.230   3.554 -0.3671  1.3866 -0.7307
 3235TIP3   OH231195   0.055   5.854   3.054 -0.2625  0.1385  0.0418
 3235TIP3    H131196   0.084   5.792   2.987  0.9543  0.9017 -0.1613
 3235TIP3    H231197  -0.034   5.878   3.027 -0.0373 -0.0736 -0.9270
 3236TIP3   OH231198   3.654   4.794   4.102  0.2991 -0.4287 -0.3390
 3236TIP3    H131199   3.597   4.807   4.026  0.4657  1.1359 -0.2249
 3236TIP3    H231200   3.617   4.718   4.148 -0.2965 -0.8707 -1.5172
 3237TIP3   OH231201   0.985   5.888   4.296 -0.4275  0.9004 -0.2959
 3237TIP3    H131202   0.935   5.970   4.294 -1.8424  0.2483  2.3973
 3237TIP3    H231203   0.963   5.844   4.214 -3.5123  1.1634  0.2629
 3238TIP3   OH231204   3.366   5.345  15.524 -0.3621 -0.2551  0.2062
 3238TIP3    H131205   3.375   5.249  15.523  0.9655 -0.1467 -0.6755
 3238TIP3    H231206   3.451   5.376  15.556 -0.8700  0.6284  0.7141
 3239TIP3   OH231207   3.404   4.048   0.427 -0.2982  0.0821 -0.6359
 3239TIP3    H131208   3.319   4.071   0.391 -0.0967 -0.3320 -1.3944
 3239TIP3    H231209   3.466   4.101   0.378  0.1466 -1.7833 -2.2043
 3240TIP3   OH231210   1.753   1.983  14.347 -0.4060 -0.3303 -0.6648
 3240TIP3    H131211   1.839   1.942  14.354 -0.5130 -0.3685  0.6632
 3240TIP3    H231212   1.698   1.936  14.410 -1.1268  0.3634 -0.7534
 3241TIP3   OH231213   4.125   3.418  16.269  0.5050 -0.2216 -0.4048
 3241TIP3    H131214   4.038   3.386  16.242 -0.4781  0.7301  1.4437
 3241TIP3    H231215   4.173   3.427  16.187 -1.1222 -0.8325 -1.4911
 3242TIP3   OH231216   5.118   5.853  15.638 -0.0115 -0.2242 -0.4910
 3242TIP3    H131217   5.172   5.894  15.571 -0.6319 -0.2973 -1.0435
 3242TIP3    H231218   5.134   5.759  15.628 -0.2860 -0.2506 -0.7003
 3243TIP3   OH231219   4.227   0.372   3.346 -0.4350  0.2955 -0.1269
 3243TIP3    H131220   4.215   0.309   3.274  1.9077 -0.3055 -0.0896
 3243TIP3    H231221   4.198   0.455   3.309  0.8395  0.0297 -1.8763
 3244TIP3   OH231222   4.036   4.912  11.694  0.1332 -0.3863 -0.8028
 3244TIP3    H131223   4.079   4.957  11.622 -0.0507 -0.3427 -0.8869
 3244TIP3    H231224   3.964   4.864  11.653 -2.7537  3.0127 -0.2386
 3245TIP3   OH231225   4.468   2.448   3.807 -0.5771 -0.2076  0.5934
 3245TIP3    H131226   4.538   2.492   3.758  1.1607 -1.1539  2.1066
 3245TIP3    H231227   4.389   2.465   3.756  0.5049  2.0528 -0.4819
 3246TIP3   OH231228   0.554   0.337   3.146  0.2396  0.4044 -0.1721
 3246TIP3    H131229   0.543   0.409   3.084 -0.0599  0.3528 -0.1803
 3246TIP3    H231230   0.631   0.361   3.197 -0.1277  0.9684  0.1353
 3247TIP3   OH231231   5.078   6.765   6.135 -0.1003 -0.3049  0.1067
 3247TIP3    H131232   4.991   6.727   6.122 -0.4073  0.2859  0.3584
 3247TIP3    H231233   5.130   6.695   6.174 -0.1657 -0.9857 -1.0040
 3248TIP3   OH231234   2.984   3.571  11.946  0.0939  0.1130 -0.3216
 3248TIP3    H131235   3.050   3.510  11.977 -1.1980 -0.4264  1.5668
 3248TIP3    H231236   2.968   3.629  12.020 -0.5392  1.1072 -1.2084
 3249TIP3   OH231237   3.616   2.148  16.783  0.4603  0.7949 -0.4114
 3249TIP3    H131238   3.630   2.235  16.822  1.1502  1.0023 -1.1013
 3249TIP3    H231239   3.667   2.089  16.839  2.1250  1.2062 -1.4456
 3250TIP3   OH231240   1.826   1.107  12.811 -0.0027  0.2993 -0.5543
 3250TIP3    H131241   1.776   1.185  12.834 -0.9523 -0.0577 -1.3158
 3250TIP3    H231242   1.761   1.037  12.805  0.8219 -0.5588  0.0656
 3251TIP3   OH231243   4.192   6.657  16.866 -0.4418  0.5003  0.2538
 3251TIP3    H131244   4.260   6.650  16.934  0.6860 -0.4123 -0.9290
 3251TIP3    H231245   4.240   6.658  16.784 -1.8610  0.1058 -0.6130
 3252TIP3   OH231246   3.931   1.179   5.495  0.0667 -0.3445  0.2771
 3252TIP3    H131247   3.909   1.234   5.570 -0.2511  0.0919 -0.1262
 3252TIP3    H231248   3.850   1.172   5.445  0.8344  1.5921 -1.4277
 3253TIP3   OH231249   0.935   0.802  13.610  0.4025 -0.4210  0.2417
 3253TIP3    H131250   0.989   0.824  13.685 -1.0158  3.6019  0.3400
 3253TIP3    H231251   0.848   0.836  13.632 -0.6265 -1.1587 -2.2874
 3254TIP3   OH231252   0.620   2.802   6.356  0.1151 -0.2523  0.3778
 3254TIP3    H131253   0.587   2.748   6.284 -1.2946  0.3333  0.5412
 3254TIP3    H231254   0.658   2.878   6.313 -0.2443 -0.1587  0.2150
 3255TIP3   OH231255   3.814   5.710   3.492  0.6453  0.1214  0.6070
 3255TIP3    H131256   3.842   5.706   3.401  0.5799  0.9160  0.5444
 3255TIP3    H231257   3.736   5.654   3.495 -1.4955  2.7788 -0.6627
 3256TIP3   OH231258   0.477   1.709  15.257 -0.3588 -0.1845 -0.2260
 3256TIP3    H131259   0.395   1.719  15.208 -1.6910  0.7681  2.0516
 3256TIP3    H231260   0.515   1.797  15.258  0.0925 -0.3764 -0.2577
 3257TIP3   OH231261   4.890   4.912  15.889  0.1227  0.7073  0.0249
 3257TIP3    H131262   4.858   4.929  15.800  0.7938 -3.0264 -1.1415
 3257TIP3    H231263   4.811   4.886  15.938  0.2192 -0.9528 -0.6410
 3258TIP3   OH231264   1.442   6.589   4.164  0.3035 -0.0604 -0.2217
 3258TIP3    H131265   1.522   6.543   4.139 -0.8781 -1.3404 -1.8547
 3258TIP3    H231266   1.406   6.621   4.081 -1.6219 -0.8094  0.2788
 3259TIP3   OH231267   0.343   3.924   4.754  0.2972  0.6785  0.1856
 3259TIP3    H131268   0.353   3.853   4.691  1.0942  1.6745 -0.8510
 3259TIP3    H231269   0.282   3.985   4.712  1.5470  1.7947 -0.0486
 3260TIP3   OH231270   5.805   3.991  15.820  0.2745 -0.2135 -0.0321
 3260TIP3    H131271   5.716   3.986  15.786  0.5965 -0.6108 -0.8393
 3260TIP3    H231272   5.854   4.038  15.753  0.7510 -0.2806  0.2630
 3261TIP3   OH231273   1.485   0.157  15.028  0.2882 -0.0469  0.1385
 3261TIP3    H131274   1.401   0.179  15.067  0.4711  1.9776 -0.4661
 3261TIP3    H231275   1.547   0.159  15.101  0.1753  0.9100  0.2249
 3262TIP3   OH231276   6.116   3.304   5.183  0.0487 -0.1230 -0.0992
 3262TIP3    H131277   6.113   3.380   5.125 -1.1533 -0.0426  0.0380
 3262TIP3    H231278   6.187   3.322   5.244  1.4177 -0.2463 -1.5824
 3263TIP3   OH231279   1.475   4.395  15.496 -0.4176  0.0880 -0.3222
 3263TIP3    H131280   1.494   4.488  15.510 -0.9032 -0.0750  1.7336
 3263TIP3    H231281   1.556   4.358  15.460  0.3763  0.9624  0.5440
 3264TIP3   OH231282   1.094   5.574  13.107  0.6729 -0.3543 -0.2451
 3264TIP3    H131283   1.066   5.664  13.093 -1.5042 -1.0414 -0.6556
 3264TIP3    H231284   1.030   5.538  13.168 -0.1343 -2.3649 -2.1658
 3265TIP3   OH231285   4.171   2.490  15.507 -0.1147 -0.1655  0.1279
 3265TIP3    H131286   4.110   2.455  15.442 -0.3323  0.4707 -0.0112
 3265TIP3    H231287   4.150   2.583  15.512 -0.0978 -0.2070  1.1020
 3266TIP3   OH231288   4.852   1.891   4.185 -0.2041  0.5321 -0.3637
 3266TIP3    H131289   4.862   1.915   4.277 -0.1007  2.5545 -0.8520
 3266TIP3    H231290   4.794   1.958   4.149  0.4944  0.3164 -1.9801
 3267TIP3   OH231291   1.860   5.158  12.911  0.6021  0.1715 -0.4086
 3267TIP3    H131292   1.806   5.182  12.987  0.5059  0.4838 -0.5783
 3267TIP3    H231293   1.819   5.202  12.837  1.5682  1.1021 -0.4140
 3268TIP3   OH231294   5.168   1.848  11.866 -0.5056 -0.7782  0.0086
 3268TIP3    H131295   5.175   1.924  11.808 -0.7434  0.1975  1.2235
 3268TIP3    H231296   5.147   1.885  11.952  0.5291 -2.1324  0.8835
 3269TIP3   OH231297   3.802   4.475   4.029 -0.1903 -0.0244  0.0670
 3269TIP3    H131298   3.734   4.462   4.095  0.8823 -1.0392  1.0143
 3269TIP3    H231299   3.753   4.485   3.947 -1.4883 -2.1860  0.4848
 3270TIP3   OH231300   3.063   4.626  10.417  0.3144  0.1056  0.8726
 3270TIP3    H131301   3.033   4.554  10.362  0.4362 -0.3813  1.4276
 3270TIP3    H231302   3.143   4.592  10.459  0.4958  0.6432  0.9680
 3271TIP3   OH231303   5.317   2.976   5.057  0.3953 -0.1210  0.2229
 3271TIP3    H131304   5.313   2.888   5.095 -1.8736  0.8283  2.5450
 3271TIP3    H231305   5.246   2.977   4.993  1.1133 -0.2693 -0.5882
 3272TIP3   OH231306   0.619   3.625   5.624 -0.4324 -0.6305  0.6387
 3272TIP3    H131307   0.560   3.567   5.576  1.0734 -1.9285  0.2759
 3272TIP3    H231308   0.667   3.672   5.556 -1.0192  0.4565  0.9346
 3273TIP3   OH231309   6.237   4.110   1.085  0.5687 -0.3305 -0.2448
 3273TIP3    H131310   6.271   4.168   1.016  0.5085  0.7946  0.6433
 3273TIP3    H231311   6.152   4.081   1.053  0.7848 -0.2665 -0.8877
 3274TIP3   OH231312   3.681   1.567  16.424  0.0437  0.0801  0.0440
 3274TIP3    H131313   3.734   1.609  16.357  0.5370 -0.6994 -0.0664
 3274TIP3    H231314   3.745   1.531  16.486 -0.3756 -0.1842  0.3298
 3275TIP3   OH231315   4.390   3.527   0.225  0.5738  0.1039 -0.6495
 3275TIP3    H131316   4.404   3.575   0.306  0.0447  0.5051 -0.7904
 3275TIP3    H231317   4.303   3.555   0.195 -1.4761 -3.5237  1.1041
 3276TIP3   OH231318   6.202   5.196  16.176  0.3540  0.0466 -0.6780
 3276TIP3    H131319   6.278   5.245  16.206 -0.9127  0.9255  1.2546
 3276TIP3    H231320   6.129   5.231  16.226 -1.0680 -1.9583 -1.2192
 3277TIP3   OH231321   5.967   5.210   3.047 -0.4640 -0.0582 -0.8113
 3277TIP3    H131322   6.054   5.174   3.064 -0.8546 -1.3629 -1.4665
 3277TIP3    H231323   5.910   5.165   3.109 -1.0585 -1.0539 -2.0405
 3278TIP3   OH231324   1.183   1.781   0.866 -0.3217 -0.0980  0.1552
 3278TIP3    H131325   1.226   1.803   0.783  0.1812 -0.7703  0.2231
 3278TIP3    H231326   1.163   1.687   0.858 -0.8339 -0.0260  0.5471
 3279TIP3   OH231327   1.011   2.725  15.679  0.0367 -0.0370  0.5037
 3279TIP3    H131328   1.069   2.797  15.701  0.9929 -0.5225 -0.3221
 3279TIP3    H231329   0.938   2.732  15.740  0.8085  0.7851  1.3443
 3280TIP3   OH231330   6.104   4.409  16.059  0.0056  0.1799 -0.1260
 3280TIP3    H131331   6.100   4.466  15.981  1.6614  0.0574 -0.3194
 3280TIP3    H231332   6.030   4.350  16.048 -0.1966  0.6085 -1.2633
 3281TIP3   OH231333   4.571   5.953  11.532  0.5771 -0.2638  0.1385
 3281TIP3    H131334   4.499   5.903  11.571  0.8364 -0.3011  0.5794
 3281TIP3    H231335   4.590   5.909  11.449 -1.4714  1.1137 -1.1697
 3282TIP3   OH231336   2.885   0.156   3.437  0.2652  0.2766 -0.3234
 3282TIP3    H131337   2.875   0.207   3.356 -0.0883  0.7726  0.0268
 3282TIP3    H231338   2.798   0.120   3.453  0.6757 -1.0236 -0.9448
 3283TIP3   OH231339   1.270   2.550  12.100 -0.4763 -0.2383  0.0407
 3283TIP3    H131340   1.294   2.510  12.016 -0.5355 -1.0628  0.4024
 3283TIP3    H231341   1.320   2.501  12.165  0.6961  1.3472  0.3838
 3284TIP3   OH231342   4.331   1.366  14.139  0.2475 -0.2797  0.1700
 3284TIP3    H131343   4.404   1.393  14.083  0.5772 -0.3510  0.5675
 3284TIP3    H231344   4.272   1.441  14.139 -0.8059 -1.0109 -1.9946
 3285TIP3   OH231345   5.442   4.271  15.127 -0.1701 -1.1236  0.2319
 3285TIP3    H131346   5.394   4.345  15.089 -0.1744  0.4030  2.8912
 3285TIP3    H231347   5.482   4.308  15.206 -0.9858 -4.2048  2.2327
 3286TIP3   OH231348   2.933   5.162   0.357  0.0644  0.0262 -0.4397
 3286TIP3    H131349   2.921   5.067   0.365  0.2588  0.0798  0.5731
 3286TIP3    H231350   2.864   5.190   0.297 -0.9705 -0.5408  0.4613
 3287TIP3   OH231351   2.799   1.181  16.905  0.1986  0.4663  0.3452
 3287TIP3    H131352   2.843   1.209  16.825 -0.1019  1.0880  0.3927
 3287TIP3    H231353   2.720   1.136  16.873 -0.5833  1.8086  0.2826
 3288TIP3   OH231354   5.796   4.371   1.371  0.6003 -0.5954  0.0667
 3288TIP3    H131355   5.766   4.415   1.450  1.6053 -0.3650  0.3440
 3288TIP3    H231356   5.877   4.327   1.397  0.2709 -1.5681 -0.5247
 3289TIP3   OH231357   3.006   3.029   4.427  0.1709  0.0363 -0.0482
 3289TIP3    H131358   2.959   3.076   4.496 -0.5676 -0.8778  0.0963
 3289TIP3    H231359   3.071   2.976   4.474  1.8643  1.8103 -0.2907
 3290TIP3   OH231360   1.711   6.411  13.512  0.0272 -0.5459  0.2106
 3290TIP3    H131361   1.725   6.318  13.493 -1.9743 -0.8944  0.1361
 3290TIP3    H231362   1.748   6.423  13.599  0.2042 -1.4508  0.2734
 3291TIP3   OH231363   0.249   1.815   2.845 -0.3400  0.0725  0.1076
 3291TIP3    H131364   0.297   1.890   2.879  0.0488 -0.7259  1.3603
 3291TIP3    H231365   0.204   1.849   2.768  0.7337  1.3058 -0.0147
 3292TIP3   OH231366   1.517   1.615   3.948  0.1000  0.2412 -0.4238
 3292TIP3    H131367   1.584   1.605   3.880  1.3793  0.3211  0.7756
 3292TIP3    H231368   1.514   1.530   3.993  1.0246  0.8769  0.9277
 3293TIP3   OH231369   2.046   0.632  12.503  0.1377  0.1311 -0.4049
 3293TIP3    H131370   2.042   0.573  12.579  0.3685  0.9062  0.2273
 3293TIP3    H231371   2.064   0.574  12.429  1.4929 -0.4832  0.3485
 3294TIP3   OH231372   3.873   1.925   4.797  0.3717 -0.4084 -0.5184
 3294TIP3    H131373   3.869   2.019   4.780 -1.7098 -0.4401 -0.5192
 3294TIP3    H231374   3.966   1.905   4.807  0.7541  2.1046  1.9919
 3295TIP3   OH231375   0.380   3.650   1.154 -0.4360 -0.3391  0.4300
 3295TIP3    H131376   0.459   3.605   1.185 -0.2865  1.8144  3.6758
 3295TIP3    H231377   0.311   3.584   1.163  0.7121 -1.8802 -1.2993
 3296TIP3   OH231378   4.303   4.912   5.082 -0.1927 -0.0000  0.1577
 3296TIP3    H131379   4.301   4.818   5.099 -1.3641 -0.1130 -0.5094
 3296TIP3    H231380   4.249   4.950   5.151 -0.9451  0.0198 -0.4254
 3297TIP3   OH231381   2.618   5.479  11.044 -0.1665 -0.1414 -0.0352
 3297TIP3    H131382   2.552   5.410  11.057 -1.4534  1.1019  0.3855
 3297TIP3    H231383   2.581   5.534  10.975  0.4696  0.5476  0.1662
 3298TIP3   OH231384   1.744   0.316  12.097  0.2200  0.2402 -0.6368
 3298TIP3    H131385   1.735   0.381  12.166 -1.2623 -1.6302  1.0301
 3298TIP3    H231386   1.820   0.264  12.123  0.1754  0.0537 -0.8771
 3299TIP3   OH231387   3.703   2.202   1.069 -1.0420  0.0474  0.5315
 3299TIP3    H131388   3.733   2.288   1.099 -1.9186  0.2555  0.8390
 3299TIP3    H231389   3.701   2.149   1.149 -0.1454 -0.3738  0.2843
 3300TIP3   OH231390   3.127   5.048   5.692 -0.0446 -0.3712  0.1965
 3300TIP3    H131391   3.197   5.104   5.726  0.4337 -0.9064  0.1178
 3300TIP3    H231392   3.150   5.034   5.600 -0.7131  0.1335 -0.0566
 3301TIP3   OH231393   3.712   2.445  16.902 -0.1233 -0.4088 -0.0762
 3301TIP3    H131394   3.642   2.461  16.966  0.2607 -0.8352  0.4591
 3301TIP3    H231395   3.689   2.500  16.827  0.2625  1.3637  1.0430
 3302TIP3   OH231396   4.596   6.809   3.899  0.1115 -0.0007  0.0162
 3302TIP3    H131397   4.621   6.717   3.906 -1.9738 -0.5509  1.3053
 3302TIP3    H231398   4.675   6.858   3.922  1.1527 -1.4631 -0.3196
 3303TIP3   OH231399   3.903   6.516  11.987  0.2823  0.5564  0.2778
 3303TIP3    H131400   3.979   6.550  11.940  1.0397 -2.3631 -0.8424
 3303TIP3    H231401   3.939   6.447  12.043 -1.4862 -1.0397 -0.4325
 3304TIP3   OH231402   6.609   5.017  14.762  0.3228 -0.0965  0.1427
 3304TIP3    H131403   6.676   4.949  14.767  1.7161  1.1963 -0.2448
 3304TIP3    H231404   6.551   4.990  14.691  0.2425 -1.3681  0.6613
 3305TIP3   OH231405   2.080   0.159   4.376  0.7101  0.4453 -0.3190
 3305TIP3    H131406   2.020   0.112   4.434  0.2595 -2.5460 -2.9152
 3305TIP3    H231407   2.167   0.126   4.400  0.5417 -0.6491 -1.1287
 3306TIP3   OH231408   5.743   4.440  15.437  0.1179 -0.0063  0.0650
 3306TIP3    H131409   5.665   4.481  15.400 -0.0655 -0.1700  0.2712
 3306TIP3    H231410   5.815   4.472  15.382  0.4513  3.1352  2.0362
 3307TIP3   OH231411   5.604   3.201  10.478 -0.3168  0.3838 -0.2321
 3307TIP3    H131412   5.632   3.280  10.523  1.9628  0.2657 -1.3328
 3307TIP3    H231413   5.685   3.156  10.454 -1.5179 -1.6771 -0.7320
 3308TIP3   OH231414   2.166   1.480   1.107 -0.1569 -0.0360 -0.6903
 3308TIP3    H131415   2.150   1.388   1.085 -0.8218 -0.2399  0.5183
 3308TIP3    H231416   2.210   1.477   1.192  0.3920  0.7507 -0.9393
 3309TIP3   OH231417   2.589   6.174   0.132 -0.3824 -0.6551  0.1527
 3309TIP3    H131418   2.612   6.196   0.042  1.7805 -1.5659  0.4297
 3309TIP3    H231419   2.493   6.179   0.134 -0.5340 -1.1906 -2.3343
 3310TIP3   OH231420   3.515   1.501   2.757  0.2742  0.0362  0.1740
 3310TIP3    H131421   3.596   1.484   2.806  0.2397  1.2775  0.7036
 3310TIP3    H231422   3.544   1.548   2.678 -0.0673  2.7138  1.5262
 3311TIP3   OH231423   4.237   6.103   4.925 -0.1182 -0.6946  0.0942
 3311TIP3    H131424   4.182   6.180   4.910  0.2045 -0.4632  0.0989
 3311TIP3    H231425   4.197   6.034   4.871  0.8426  0.0374 -1.6436
 3312TIP3   OH231426   4.766   1.353  10.798 -0.0054  0.3636  0.3787
 3312TIP3    H131427   4.758   1.437  10.843  0.5080 -0.5223  2.2365
 3312TIP3    H231428   4.822   1.371  10.723 -1.0383  1.9453 -0.0572
 3313TIP3   OH231429   6.295   2.500  15.116 -0.3788  0.2479 -0.2306
 3313TIP3    H131430   6.286   2.553  15.195 -0.7971 -2.3330  1.5868
 3313TIP3    H231431   6.224   2.529  15.059 -1.0042  1.1593  0.9771
 3314TIP3   OH231432   6.402   3.043   3.833 -0.5622  0.0742 -0.2773
 3314TIP3    H131433   6.492   3.013   3.843 -0.9048 -0.8328  0.1175
 3314TIP3    H231434   6.410   3.129   3.791  0.3991 -0.7828 -1.9166
 3315TIP3   OH231435   3.115   6.792   3.242  0.2518 -0.2631  0.2753
 3315TIP3    H131436   3.132   6.874   3.197  1.0667 -2.4047 -3.8114
 3315TIP3    H231437   3.022   6.796   3.265  0.5947  2.2786  1.5628
 3316TIP3   OH231438   1.161   6.793  10.595 -0.1669 -0.6145 -0.1300
 3316TIP3    H131439   1.137   6.885  10.583  2.2661  0.2957  1.3697
 3316TIP3    H231440   1.236   6.779  10.537  1.1923 -0.8270  1.5871
 3317TIP3   OH231441   3.783   0.511   2.878  0.6682  0.2367 -0.3289
 3317TIP3    H131442   3.765   0.555   2.961  1.4752 -0.8653  0.4440
 3317TIP3    H231443   3.831   0.432   2.902  2.3206  0.6864 -1.9460
 3318TIP3   OH231444   3.114   0.544  17.074  0.2316  0.0870 -1.1438
 3318TIP3    H131445   3.188   0.496  17.114  0.5535  2.1959  1.0000
 3318TIP3    H231446   3.074   0.591  17.147 -1.4947  1.2569 -2.7643
 3319TIP3   OH231447   0.506   6.535  11.076 -0.1526  0.3243  0.2175
 3319TIP3    H131448   0.531   6.558  11.166 -0.9467  0.6828  0.3551
 3319TIP3    H231449   0.574   6.476  11.047  0.3639  0.5671  0.9012
 3320TIP3   OH231450   2.281   2.675   0.181  0.5813 -0.5951  0.2500
 3320TIP3    H131451   2.376   2.682   0.179  0.5724  0.1030  1.3853
 3320TIP3    H231452   2.249   2.765   0.181  0.0040 -0.7583  1.7194
 3321TIP3   OH231453   6.210   3.364  11.023 -0.2315 -0.0709  0.3443
 3321TIP3    H131454   6.132   3.408  11.056 -1.7171 -1.3388 -1.2484
 3321TIP3    H231455   6.259   3.339  11.101 -0.9102  1.6185  1.3607
 3322TIP3   OH231456   1.043   1.606  17.043 -0.5275  0.2596  0.2551
 3322TIP3    H131457   0.948   1.599  17.041 -0.4705 -1.4329  1.2506
 3322TIP3    H231458   1.067   1.582  17.133  0.7884  1.7120  0.3317
 3323TIP3   OH231459   5.039   6.154  14.511  0.4016 -0.0453  0.3659
 3323TIP3    H131460   5.097   6.210  14.563  0.1912  2.2960 -1.7588
 3323TIP3    H231461   4.951   6.182  14.534  0.2542 -0.2796  0.0949
 3324TIP3   OH231462   0.325   0.023  14.974  0.0756 -0.0596 -0.0666
 3324TIP3    H131463   0.268   0.062  15.040 -0.3333 -0.4799 -0.1677
 3324TIP3    H231464   0.326  -0.070  14.994 -0.3703 -0.2503 -0.8858
 3325TIP3   OH231465   5.766   2.389  12.069  0.3611  0.2032  0.1269
 3325TIP3    H131466   5.712   2.454  12.024  0.6350 -0.4386 -1.1634
 3325TIP3    H231467   5.711   2.357  12.140 -0.8207 -0.1558 -0.9259
 3326TIP3   OH231468   6.274   0.328   4.222  0.0050 -0.1236  0.4920
 3326TIP3    H131469   6.261   0.423   4.230 -2.4766 -0.3782  0.4522
 3326TIP3    H231470   6.262   0.310   4.128 -0.7857 -0.5939  0.6719
 3327TIP3   OH231471   1.374   0.898  12.929  0.2997 -0.3730  0.7324
 3327TIP3    H131472   1.352   0.857  13.012 -1.0965 -2.0342 -0.3965
 3327TIP3    H231473   1.376   0.826  12.866 -2.3129  1.2049 -1.3588
 3328TIP3   OH231474   0.302   1.033  11.672 -0.3888 -0.0574 -0.0282
 3328TIP3    H131475   0.226   1.087  11.650 -0.9943  0.3455  2.7070
 3328TIP3    H231476   0.273   0.943  11.657 -1.3833  0.1041  0.7954
 3329TIP3   OH231477   3.658   2.922   0.946 -0.5025 -0.0102  0.1079
 3329TIP3    H131478   3.583   2.979   0.961  0.5480  1.0281  1.7432
 3329TIP3    H231479   3.657   2.904   0.851 -2.1713  0.8413 -0.0566
 3330TIP3   OH231480   0.063   3.325  16.155 -0.0060  0.1401  0.3179
 3330TIP3    H131481  -0.010   3.373  16.195  1.1090 -0.2595  3.1178
 3330TIP3    H231482   0.135   3.389  16.153  0.3854 -0.2883  0.4344
 3331TIP3   OH231483   2.347   3.157   0.238 -0.0051  0.1400 -0.0854
 3331TIP3    H131484   2.304   3.242   0.234  1.5087  0.9001 -0.9682
 3331TIP3    H231485   2.395   3.150   0.156  2.3893 -0.1806  1.2388
 3332TIP3   OH231486   3.843   3.828   5.641 -0.0883 -0.0049 -0.1497
 3332TIP3    H131487   3.929   3.869   5.657 -0.5932  0.2542  2.3519
 3332TIP3    H231488   3.786   3.902   5.620 -0.0292  0.0058 -0.2766
 3333TIP3   OH231489   0.556   3.924  14.955 -0.1156 -0.0617  0.7064
 3333TIP3    H131490   0.471   3.922  14.998 -0.3301  1.4921  0.4263
 3333TIP3    H231491   0.568   4.016  14.931  0.4132 -0.6745 -1.6827
 3334TIP3   OH231492   3.799   3.738  14.982  0.5484  0.4242  0.2259
 3334TIP3    H131493   3.712   3.761  15.014  0.6121  0.6455  0.2433
 3334TIP3    H231494   3.802   3.643  14.987  0.0323  0.3677 -0.5118
 3335TIP3   OH231495   6.559   3.758  16.837 -0.4004  0.4995  0.3743
 3335TIP3    H131496   6.556   3.850  16.861  0.6942  0.8741 -0.8343
 3335TIP3    H231497   6.651   3.741  16.818 -0.6983 -0.6546 -0.1147
 3336TIP3   OH231498   3.880   3.404  15.759 -0.0092 -0.3993 -0.8125
 3336TIP3    H131499   3.974   3.391  15.771  0.1348  0.1971 -1.2535
 3336TIP3    H231500   3.840   3.326  15.798  0.6793 -0.7994 -0.8867
 3337TIP3   OH231501   2.522   3.838   5.616  0.2278  0.4683  0.2261
 3337TIP3    H131502   2.432   3.816   5.640 -0.1703 -0.8088 -2.1368
 3337TIP3    H231503   2.561   3.755   5.589  0.7616  1.5470 -2.7350
 3338TIP3   OH231504   0.472   0.285   4.327 -0.0948  0.1953  0.0856
 3338TIP3    H131505   0.549   0.247   4.284  0.2544 -0.7603  1.4669
 3338TIP3    H231506   0.494   0.377   4.339  1.2077 -0.2092  1.1422
 3339TIP3   OH231507   2.947   6.132  16.180 -0.1109  0.2795  0.0496
 3339TIP3    H131508   3.004   6.184  16.237  1.5437 -0.4613 -0.8624
 3339TIP3    H231509   2.886   6.089  16.240  1.6942 -0.6302  1.3426
 3340TIP3   OH231510   6.699   3.349   4.321  0.5326  0.5576  0.2878
 3340TIP3    H131511   6.771   3.332   4.382 -1.2040 -1.7227  1.9169
 3340TIP3    H231512   6.620   3.337   4.375 -1.1232 -1.6227 -2.3948
 3341TIP3   OH231513   0.888   6.485  11.453  0.7947 -0.0104 -0.0514
 3341TIP3    H131514   0.933   6.424  11.512  0.9591  1.7420  1.7548
 3341TIP3    H231515   0.864   6.432  11.377  1.8009 -2.0668  0.9816
 3342TIP3   OH231516   5.436   4.202   5.257  0.7709  0.1412  0.0304
 3342TIP3    H131517   5.423   4.238   5.169  0.3698 -0.4036 -0.1377
 3342TIP3    H231518   5.421   4.108   5.247 -1.9741  0.3605  1.1837
 3343TIP3   OH231519   4.785   2.371   4.243 -0.5203  0.4542 -0.1252
 3343TIP3    H131520   4.704   2.364   4.295 -0.2756 -1.0295  0.0953
 3343TIP3    H231521   4.849   2.318   4.292  0.4072  1.0762 -0.6448
 3344TIP3   OH231522   0.690   3.511   2.089  0.2585  0.1236  0.3721
 3344TIP3    H131523   0.696   3.551   2.002  2.5979  0.8254  0.8028
 3344TIP3    H231524   0.609   3.548   2.126 -0.6304  0.0311 -1.3558
 3345TIP3   OH231525   0.043   3.871  14.471  0.0403 -0.4727  0.3466
 3345TIP3    H131526   0.050   3.931  14.546  1.0466  1.0533 -0.8821
 3345TIP3    H231527   0.134   3.848  14.451 -0.2504 -1.2561 -0.1167
 3346TIP3   OH231528   4.129   4.027  14.421 -0.0429 -0.1347  0.5036
 3346TIP3    H131529   4.084   4.003  14.502 -1.8436  0.1685 -0.3560
 3346TIP3    H231530   4.173   3.946  14.393  2.3542  0.2539  2.7815
 3347TIP3   OH231531   5.158   0.552   3.095 -0.0012 -0.1174 -0.2577
 3347TIP3    H131532   5.231   0.607   3.122 -0.1555  0.0307 -0.1359
 3347TIP3    H231533   5.084   0.613   3.088 -0.2886 -0.3911  0.3620
 3348TIP3   OH231534   0.450   1.587  12.427 -0.6490 -0.1452  0.3276
 3348TIP3    H131535   0.490   1.541  12.500  0.6867  1.7189  0.8473
 3348TIP3    H231536   0.375   1.634  12.465 -0.4943  0.1107  0.3179
 3349TIP3   OH231537   4.654   6.093   2.894  1.0559  0.2941 -0.0087
 3349TIP3    H131538   4.629   6.178   2.856  1.3233  1.2694  1.8639
 3349TIP3    H231539   4.699   6.116   2.975  0.3329 -1.6596  1.0089
 3350TIP3   OH231540   4.378   3.734   5.000 -0.5189 -0.0473 -0.2458
 3350TIP3    H131541   4.300   3.704   4.954 -0.6766 -0.5909  0.3619
 3350TIP3    H231542   4.448   3.733   4.934 -0.6095 -1.3875 -0.3308
 3351TIP3   OH231543   6.629   2.686  11.037  0.0606  0.3761  0.0943
 3351TIP3    H131544   6.685   2.613  11.065 -0.8907 -0.3337  0.2081
 3351TIP3    H231545   6.690   2.759  11.025  1.2017 -0.7079 -1.0903
 3352TIP3   OH231546   6.014   5.859  16.189 -0.0335  0.0005 -0.6669
 3352TIP3    H131547   6.060   5.780  16.217 -2.7324 -1.3487  0.3116
 3352TIP3    H231548   5.953   5.879  16.260 -1.2285  1.4515 -2.0012
 3353TIP3   OH231549   5.141   5.612  15.516 -0.3332  0.1129 -0.9006
 3353TIP3    H131550   5.076   5.544  15.534  1.8063 -2.5807 -2.7142
 3353TIP3    H231551   5.111   5.653  15.435  0.0185 -0.9088 -1.5635
 3354TIP3   OH231552   1.621   2.786  15.575 -0.0034  0.0305 -0.3269
 3354TIP3    H131553   1.710   2.771  15.544 -0.0189 -0.4107 -0.1680
 3354TIP3    H231554   1.623   2.764  15.668 -1.0953 -3.7466 -1.0211
 3355TIP3   OH231555   5.628   0.346  15.374  0.2004  0.8658  0.0796
 3355TIP3    H131556   5.558   0.295  15.334  0.8013  1.4506 -1.8100
 3355TIP3    H231557   5.645   0.302  15.457 -2.0296  0.4135  0.3554
 3356TIP3   OH231558   1.083   4.221  11.775  0.7016  0.3626  0.0287
 3356TIP3    H131559   1.011   4.251  11.720  0.0125 -1.7146 -0.2930
 3356TIP3    H231560   1.154   4.202  11.714  0.2034 -1.1901 -0.1056
 3357TIP3   OH231561   2.285   2.418  13.631  0.2922  0.0015  0.3322
 3357TIP3    H131562   2.306   2.395  13.721  0.2521  0.1877  0.3907
 3357TIP3    H231563   2.270   2.513  13.634 -0.9114 -0.1743  0.3722
 3358TIP3   OH231564   6.185   5.903  12.356  0.1023 -0.0987 -0.3082
 3358TIP3    H131565   6.173   5.827  12.412  0.9882  0.0890  0.1560
 3358TIP3    H231566   6.197   5.867  12.268  1.3474 -0.5526  0.0356
 3359TIP3   OH231567   0.999   4.455   1.462  0.0764  0.3735 -0.1994
 3359TIP3    H131568   0.940   4.523   1.430 -0.4941 -0.7504 -1.6657
 3359TIP3    H231569   1.001   4.390   1.391 -0.4717 -1.7901  1.6474
 3360TIP3   OH231570   1.745   0.516  12.288  0.0508  0.3354 -0.0795
 3360TIP3    H131571   1.797   0.480  12.360  0.4461 -1.2460 -1.0967
 3360TIP3    H231572   1.689   0.582  12.329  1.0793  0.2928  1.4652
 3361TIP3   OH231573   2.791   0.427   0.804 -0.0045 -0.0576 -0.3138
 3361TIP3    H131574   2.815   0.343   0.764  0.0592  0.4024 -1.2764
 3361TIP3    H231575   2.873   0.459   0.841 -0.2910 -1.0082  1.2197
 3362TIP3   OH231576   4.796   0.656   5.056  0.5368 -0.0020 -0.7775
 3362TIP3    H131577   4.703   0.667   5.041  0.6757  1.3161 -0.7658
 3362TIP3    H231578   4.826   0.601   4.982 -0.2273 -0.4275 -0.7816
 3363TIP3   OH231579   5.942   3.553  12.799  0.3693  0.4651 -0.5930
 3363TIP3    H131580   5.977   3.641  12.812  0.8053 -0.0693  2.5027
 3363TIP3    H231581   6.008   3.494  12.835 -2.4066 -0.7215  3.1497
 3364TIP3   OH231582   1.490   1.957   0.246  0.3284 -0.3040 -0.0293
 3364TIP3    H131583   1.532   1.872   0.236  0.6660 -0.3759  1.6683
 3364TIP3    H231584   1.406   1.948   0.201  1.3466 -0.7281 -1.9483
 3365TIP3   OH231585   5.666   5.608  13.318 -0.1684 -0.4666 -0.8865
 3365TIP3    H131586   5.752   5.636  13.286 -0.2984 -0.9357 -1.6762
 3365TIP3    H231587   5.641   5.675  13.381  0.9300 -0.5063 -0.3808
 3366TIP3   OH231588   4.310   1.722   1.954  0.5107  0.5642 -0.2344
 3366TIP3    H131589   4.371   1.765   1.893  1.5021  0.7601  0.8486
 3366TIP3    H231590   4.328   1.629   1.944 -1.1306  0.3762 -2.0556
 3367TIP3   OH231591   2.085   3.759   2.300  0.1846 -0.8836 -0.1852
 3367TIP3    H131592   2.065   3.851   2.318  2.9157 -0.5823  1.8989
 3367TIP3    H231593   2.034   3.710   2.364  0.8718 -0.6116  0.5775
 3368TIP3   OH231594   3.992   6.464  10.946 -0.0434 -0.3467 -0.0898
 3368TIP3    H131595   3.946   6.488  10.865 -0.8706 -0.4272  0.3392
 3368TIP3    H231596   4.010   6.371  10.936  0.3278 -0.2408 -0.4059
 3369TIP3   OH231597   4.828   0.413   2.763  0.3743 -0.0021 -0.4104
 3369TIP3    H131598   4.910   0.370   2.787 -0.4463  0.1107  3.1323
 3369TIP3    H231599   4.762   0.373   2.819 -1.3996  2.1469 -0.8122
 3370TIP3   OH231600   5.412   2.446   5.723  0.0609  0.2489  0.0054
 3370TIP3    H131601   5.482   2.381   5.712 -1.3810 -1.3361 -0.2792
 3370TIP3    H231602   5.403   2.486   5.637 -1.1430 -1.4922 -0.7536
 3371TIP3   OH231603   0.770   1.380  11.916 -0.2255  0.1176 -0.2584
 3371TIP3    H131604   0.757   1.472  11.895  3.4181  0.2204 -3.2384
 3371TIP3    H231605   0.719   1.333  11.850 -0.6612  0.0321  0.1372
 3372TIP3   OH231606   4.614   3.479   5.103 -0.5916  0.1564 -0.5036
 3372TIP3    H131607   4.673   3.414   5.141 -0.9093 -0.0522 -0.3578
 3372TIP3    H231608   4.671   3.541   5.059 -0.3343 -0.9086 -1.7296
 3373TIP3   OH231609   2.894   4.580   4.904 -0.2820 -0.3280  0.1571
 3373TIP3    H131610   2.975   4.591   4.954 -0.3715 -0.6036  0.3706
 3373TIP3    H231611   2.847   4.510   4.950 -1.1210  0.5410  0.6639
 3374TIP3   OH231612   2.194   2.477   3.490 -0.1176 -0.0476 -0.6662
 3374TIP3    H131613   2.107   2.451   3.520  0.3759 -0.6559  0.2896
 3374TIP3    H231614   2.182   2.499   3.397 -0.7510 -2.8563 -1.3305
 3375TIP3   OH231615   0.919   5.458   0.200  0.0408 -0.1108  0.0620
 3375TIP3    H131616   0.954   5.404   0.130 -0.2141 -1.1435  0.7122
 3375TIP3    H231617   0.990   5.465   0.263  0.4018  1.1353 -0.4482
 3376TIP3   OH231618   3.822   5.954  15.995 -0.0675  0.2999 -0.2684
 3376TIP3    H131619   3.888   5.963  16.063 -0.7654  0.8035  0.3539
 3376TIP3    H231620   3.749   5.910  16.038  0.8641 -2.8919 -1.6426
 3377TIP3   OH231621   2.547   1.679   4.070  0.2898 -0.1732  0.0739
 3377TIP3    H131622   2.594   1.762   4.065 -0.6932  0.3484 -2.5738
 3377TIP3    H231623   2.464   1.701   4.112 -0.5803  0.5966 -1.9160
 3378TIP3   OH231624   1.064   5.645  16.352 -0.9828  0.3836 -0.0979
 3378TIP3    H131625   1.099   5.642  16.441  0.4457  1.7368 -0.5680
 3378TIP3    H231626   0.969   5.636  16.363 -0.9290  1.5231  1.6483
 3379TIP3   OH231627   5.321   2.733   5.767  0.8657 -0.1830  0.0654
 3379TIP3    H131628   5.342   2.796   5.836 -0.4959 -0.0608  0.3955
 3379TIP3    H231629   5.405   2.690   5.747  1.1785 -0.6942  2.2693
 3380TIP3   OH231630   1.598   0.269   4.852  0.4800 -0.2706  0.3744
 3380TIP3    H131631   1.573   0.243   4.763 -0.8802  0.7823  0.4236
 3380TIP3    H231632   1.642   0.353   4.842  1.6555 -0.8470  0.5685
 3381TIP3   OH231633   5.449   5.432  12.128 -0.8767  0.2498  0.0710
 3381TIP3    H131634   5.353   5.430  12.128 -1.0416  2.9182  1.6103
 3381TIP3    H231635   5.473   5.468  12.043 -1.2569 -0.1471 -0.2031
 3382TIP3   OH231636   5.866   2.044  11.480 -0.4219 -0.3464  0.2426
 3382TIP3    H131637   5.817   1.975  11.525 -3.4063  0.0261 -2.0749
 3382TIP3    H231638   5.817   2.058  11.399  1.5879  2.6864 -0.5915
 3383TIP3   OH231639   0.124   6.138   0.738  0.3483 -0.7945  0.1645
 3383TIP3    H131640   0.098   6.230   0.744  0.1417 -0.8304 -0.1732
 3383TIP3    H231641   0.144   6.124   0.646  1.1988 -0.8713  0.3512
 3384TIP3   OH231642   6.385   3.963  12.551  0.5199  0.1079  0.4524
 3384TIP3    H131643   6.360   3.897  12.487  0.9712 -2.2112  2.5257
 3384TIP3    H231644   6.479   3.951  12.563  0.1674 -0.8237  2.8335
 3385TIP3   OH231645   5.713   1.937   2.596  0.3316 -0.2192 -0.2941
 3385TIP3    H131646   5.791   1.957   2.647 -0.3154  0.5794  0.4135
 3385TIP3    H231647   5.706   1.841   2.601 -0.4703 -0.1186  2.3566
 3386TIP3   OH231648   5.466   2.680   5.540  0.2522  0.2716  0.1503
 3386TIP3    H131649   5.388   2.629   5.518 -0.5702  0.6808  1.8965
 3386TIP3    H231650   5.435   2.771   5.539  0.5883  0.4108  1.2045
 3387TIP3   OH231651   0.462   1.964  10.475 -0.2968  0.2180 -0.4740
 3387TIP3    H131652   0.405   1.953  10.399 -0.6685  0.1148 -0.1784
 3387TIP3    H231653   0.484   1.874  10.501 -0.5235  0.2435 -0.1915
 3388TIP3   OH231654   4.775   1.981   6.341 -0.3051 -0.4487  0.1097
 3388TIP3    H131655   4.752   1.925   6.268  1.3799 -1.0348 -0.0080
 3388TIP3    H231656   4.774   1.923   6.417  2.9054 -1.1069 -0.2186
 3389TIP3   OH231657   5.403   6.630  15.666  0.4321 -0.5648 -0.6793
 3389TIP3    H131658   5.463   6.608  15.595  1.5524  0.0595  0.0443
 3389TIP3    H231659   5.452   6.612  15.746 -0.2703  0.1531 -0.0699
 3390TIP3   OH231660   6.105   5.638  14.749  0.1108  0.0896 -0.6222
 3390TIP3    H131661   6.125   5.638  14.843 -0.1949  0.0167 -0.5564
 3390TIP3    H231662   6.023   5.686  14.742 -0.7749 -1.3554 -0.6475
 3391TIP3   OH231663   0.523   4.931  16.000  0.0839 -0.2871 -0.7531
 3391TIP3    H131664   0.514   4.970  16.087  1.7412  0.5307 -0.9050
 3391TIP3    H231665   0.536   4.838  16.017  1.0728 -0.0370 -0.0650
 3392TIP3   OH231666   3.037   6.789   2.057 -0.0647  0.3241  0.6611
 3392TIP3    H131667   3.127   6.820   2.059  0.9304 -2.2714 -0.5223
 3392TIP3    H231668   3.040   6.702   2.096 -1.9140 -0.1702 -0.1780
 3393TIP3   OH231669   0.074   5.195   3.131 -0.5019 -0.2056 -0.4996
 3393TIP3    H131670   0.143   5.156   3.077  0.0321 -0.9621  0.7046
 3393TIP3    H231671   0.051   5.127   3.194  0.7765  1.5272  1.9642
 3394TIP3   OH231672   0.918   2.769  13.278  0.7392  0.2401 -0.4817
 3394TIP3    H131673   0.934   2.861  13.256  0.5022  0.0303 -1.5470
 3394TIP3    H231674   0.935   2.722  13.197  1.4474 -0.7344  0.2113
 3395TIP3   OH231675   5.895   1.702  11.448 -0.1298  0.4951 -0.0359
 3395TIP3    H131676   5.922   1.628  11.503  0.6721  0.2265 -0.7617
 3395TIP3    H231677   5.938   1.778  11.487 -2.6923  1.0233  2.0377
 3396TIP3   OH231678   3.060   2.317  14.836 -0.1938  0.2566 -0.2489
 3396TIP3    H131679   3.134   2.272  14.796 -1.5649 -0.8860 -1.6070
 3396TIP3    H231680   3.100   2.388  14.887  1.9133 -1.1963  0.2554
 3397TIP3   OH231681   3.122   2.666   3.701 -0.2135  0.4114 -0.4244
 3397TIP3    H131682   3.205   2.638   3.739 -0.9694  0.3873  1.3100
 3397TIP3    H231683   3.073   2.585   3.686 -0.6042  0.5149  0.2441
 3398TIP3   OH231684   4.667   0.389  15.612 -0.1181  0.3605 -0.7551
 3398TIP3    H131685   4.680   0.426  15.699  1.8361  0.1662 -0.9193
 3398TIP3    H231686   4.586   0.338  15.620 -0.1309  0.5726  0.8642
 3399TIP3   OH231687   6.446   5.499   2.142  0.4121 -0.3612 -0.2580
 3399TIP3    H131688   6.399   5.443   2.080  1.0777 -1.3055  0.0552
 3399TIP3    H231689   6.457   5.582   2.096 -1.2380 -0.2254 -0.4659
 3400TIP3   OH231690   5.197   5.484   5.126  0.0476  0.5281  0.0084
 3400TIP3    H131691   5.144   5.523   5.056 -2.5190 -0.4631  1.2510
 3400TIP3    H231692   5.199   5.391   5.105  1.0632  0.5140  0.1537
 3401TIP3   OH231693   1.467   6.203  10.532  0.1996  0.0073 -0.2002
 3401TIP3    H131694   1.473   6.112  10.560  0.2567  0.2725  0.6852
 3401TIP3    H231695   1.375   6.227  10.545  0.6267  0.7627  1.8970
 3402TIP3   OH231696   0.705   5.061  13.801 -0.0734 -0.4409 -0.0899
 3402TIP3    H131697   0.725   5.136  13.858  1.3140  0.3469 -1.5295
 3402TIP3    H231698   0.651   5.004  13.855 -0.3057  1.1068  1.4097
 3403TIP3   OH231699   6.746   5.577  14.888  0.2885 -0.4609  0.1661
 3403TIP3    H131700   6.774   5.488  14.907  0.9687 -0.2285  0.2850
 3403TIP3    H231701   6.777   5.628  14.963 -0.8943 -0.2718  0.5493
 3404TIP3   OH231702   4.243   2.179   1.427 -0.1391  0.1423 -0.6450
 3404TIP3    H131703   4.242   2.263   1.381 -1.0144  0.7326  0.4012
 3404TIP3    H231704   4.256   2.202   1.519  1.3408 -0.9989 -0.5326
 3405TIP3   OH231705   0.693   6.262   0.634 -0.0338 -0.8968 -0.4233
 3405TIP3    H131706   0.696   6.356   0.652 -0.5512 -0.9057 -0.2693
 3405TIP3    H231707   0.602   6.245   0.607  0.3081 -1.1663 -1.4866
 3406TIP3   OH231708   1.504   4.528   3.672 -0.6658  0.0224  0.8694
 3406TIP3    H131709   1.572   4.551   3.608  1.0459 -0.4150  2.4394
 3406TIP3    H231710   1.423   4.562   3.634  0.5497  1.4160 -0.6430
 3407TIP3   OH231711   1.047   2.886  11.842 -0.5737 -0.1294 -0.1101
 3407TIP3    H131712   1.083   2.797  11.848 -0.4628 -0.2587 -1.9793
 3407TIP3    H231713   1.124   2.943  11.848 -0.4720 -0.2312 -0.4295
 3408TIP3   OH231714   4.129   5.935  14.328 -0.3142  0.2228  0.1144
 3408TIP3    H131715   4.077   5.882  14.267  0.2936 -1.0512  0.6546
 3408TIP3    H231716   4.140   6.019  14.284 -0.9458 -0.2472 -0.9820
 3409TIP3   OH231717   3.193   5.119  14.234 -0.6038 -0.0081  0.5226
 3409TIP3    H131718   3.117   5.162  14.274  0.6050  1.9577  0.8175
 3409TIP3    H231719   3.229   5.184  14.174  0.6110 -1.0528  0.0687
 3410TIP3   OH231720   4.570   0.374  16.038  0.1075  0.0175  0.2809
 3410TIP3    H131721   4.629   0.318  16.089  0.5052 -1.7926 -2.0119
 3410TIP3    H231722   4.624   0.405  15.965 -1.1000  0.4607 -0.4474
 3411TIP3   OH231723   6.695   2.588  13.080  0.0505  0.0309 -0.1841
 3411TIP3    H131724   6.740   2.669  13.055  1.5327 -0.4413  0.8193
 3411TIP3    H231725   6.614   2.617  13.121 -0.3981  0.9194 -1.6177
 3412TIP3   OH231726   4.150   0.392  14.210  0.1470  0.2532 -0.3169
 3412TIP3    H131727   4.120   0.316  14.259  0.7358  0.4723  0.3991
 3412TIP3    H231728   4.180   0.357  14.126  0.6027 -0.3285  0.0885
 3413TIP3   OH231729   4.619   2.026  15.952 -0.2656 -0.0468  0.2919
 3413TIP3    H131730   4.614   2.081  16.030  1.9400 -0.0559  0.4921
 3413TIP3    H231731   4.708   2.036  15.921 -0.5594 -1.5133 -1.1631
 3414TIP3   OH231732   0.058   4.593  16.230 -0.3493  0.2933 -0.3270
 3414TIP3    H131733   0.054   4.688  16.232 -0.7075  0.2782 -0.2680
 3414TIP3    H231734   0.047   4.571  16.137 -1.6807  0.2606 -0.1921
 3415TIP3   OH231735   1.314   6.262   6.283 -0.1251  0.2631  0.4248
 3415TIP3    H131736   1.230   6.293   6.249  1.0828  0.3981 -2.8209
 3415TIP3    H231737   1.327   6.311   6.364 -0.7322  4.4397 -1.7468
 3416TIP3   OH231738   4.286   0.720   2.148  0.1229 -0.0366  0.1077
 3416TIP3    H131739   4.349   0.755   2.085  0.8705 -0.8225  0.3960
 3416TIP3    H231740   4.316   0.754   2.233  0.4888 -0.8426  0.3122
 3417TIP3   OH231741   3.993   2.420  15.280  0.3351 -0.0035  0.0331
 3417TIP3    H131742   4.033   2.365  15.213 -0.2247  0.2271 -0.4937
 3417TIP3    H231743   3.900   2.400  15.276  0.3014 -0.0230  0.7781
 3418TIP3   OH231744   2.702   0.690   4.121 -0.8700  0.7279  0.5112
 3418TIP3    H131745   2.610   0.693   4.144 -1.0728  0.1894 -0.1856
 3418TIP3    H231746   2.715   0.762   4.060 -1.1001  0.1096 -0.2850
 3419TIP3   OH231747   3.411   4.771   4.727 -0.0738 -0.5279  0.8080
 3419TIP3    H131748   3.442   4.861   4.718  0.6500 -0.7539  0.9279
 3419TIP3    H231749   3.316   4.778   4.734 -0.3419  0.0027 -2.2490
 3420TIP3   OH231750   1.020   5.825  16.656  0.2970  0.3776  0.5612
 3420TIP3    H131751   0.974   5.812  16.739  0.4392 -0.4405  0.5182
 3420TIP3    H231752   1.074   5.746  16.646 -3.0496 -1.8236 -2.5155
 3421TIP3   OH231753   5.844   6.023  13.846  0.0307  0.2315  0.4695
 3421TIP3    H131754   5.860   6.063  13.931  0.0896  0.0341  0.5517
 3421TIP3    H231755   5.799   5.940  13.866 -2.0268  1.2126  0.2062
 3422TIP3   OH231756   1.597   6.798   2.819  0.5036 -0.2237  0.5209
 3422TIP3    H131757   1.657   6.732   2.784 -1.2860 -1.4319 -0.4274
 3422TIP3    H231758   1.641   6.881   2.803  2.0230 -1.0684  0.1083
 3423TIP3   OH231759   0.804   5.234   2.326 -0.1117 -0.1929 -0.0827
 3423TIP3    H131760   0.785   5.212   2.234  0.1638  0.4371 -0.2993
 3423TIP3    H231761   0.751   5.173   2.377 -0.0851 -0.7124 -0.6608
 3424TIP3   OH231762   5.154   6.567   5.489 -1.1828 -0.2469  0.3767
 3424TIP3    H131763   5.059   6.559   5.487 -1.2683  0.2643  1.4140
 3424TIP3    H231764   5.173   6.651   5.449 -1.1833 -0.2536  0.3619
 3425TIP3   OH231765   6.682   5.810  15.869 -0.1677 -0.0138  0.2503
 3425TIP3    H131766   6.746   5.738  15.876 -0.7623 -0.6179 -0.3384
 3425TIP3    H231767   6.615   5.789  15.934  0.6125  1.0494  1.4415
 3426TIP3   OH231768   3.065   3.649  14.745  0.1132 -0.7092 -0.5472
 3426TIP3    H131769   3.015   3.568  14.761  0.7670 -0.9229  0.4758
 3426TIP3    H231770   3.016   3.717  14.790  1.3063 -1.1090  1.4541
 3427TIP3   OH231771   1.009   0.579  15.895  0.6863  0.5090 -0.5496
 3427TIP3    H131772   1.017   0.532  15.812  1.4123 -1.9164  0.8024
 3427TIP3    H231773   1.099   0.586  15.928  0.3265  0.5733  0.4762
 3428TIP3   OH231774   1.735   3.285   5.971  0.3684 -0.0324 -0.5017
 3428TIP3    H131775   1.816   3.336   5.970  1.3587 -1.5333  0.0232
 3428TIP3    H231776   1.698   3.300   6.057 -0.2881  1.1789 -0.9705
 3429TIP3   OH231777   6.028   6.070   2.346  0.1841 -0.0960 -0.3956
 3429TIP3    H131778   6.086   6.040   2.417 -0.6624  2.1897  1.4211
 3429TIP3    H231779   6.087   6.089   2.273  1.6638  1.1249  1.0349
 3430TIP3   OH231780   1.939   4.021   1.139 -0.7202 -0.2208 -0.4056
 3430TIP3    H131781   2.031   4.040   1.155 -0.6639 -2.1722  2.0936
 3430TIP3    H231782   1.938   3.935   1.099 -1.4748 -1.2988  1.7799
 3431TIP3   OH231783   1.799   4.422   1.951 -0.4096 -0.2788  0.3221
 3431TIP3    H131784   1.858   4.479   2.000 -0.2153  1.2135 -1.5363
 3431TIP3    H231785   1.745   4.481   1.899 -0.5861 -1.7477 -1.2841
 3432TIP3   OH231786   5.221   4.786   2.954 -0.0885  0.1137 -0.3938
 3432TIP3    H131787   5.311   4.759   2.935 -0.4864 -1.8505  0.2741
 3432TIP3    H231788   5.216   4.787   3.050 -1.3418 -2.0617 -0.3809
 3433TIP3   OH231789   2.694   0.466   2.911 -0.1644  0.5355  0.0633
 3433TIP3    H131790   2.757   0.402   2.878  1.3263  1.4441  1.0110
 3433TIP3    H231791   2.608   0.427   2.894  0.5721 -0.1013 -2.5718
 3434TIP3   OH231792   5.593   6.048  11.967  0.5365  0.3732  0.1731
 3434TIP3    H131793   5.546   6.128  11.943 -1.5991 -1.2400 -1.4602
 3434TIP3    H231794   5.675   6.079  12.005 -0.9761  3.3555  1.3876
 3435TIP3   OH231795   3.679   1.821   1.337 -0.1188  0.5289 -1.0263
 3435TIP3    H131796   3.746   1.783   1.281 -1.1880 -0.3289 -1.7728
 3435TIP3    H231797   3.703   1.793   1.426  1.7862  2.1972 -0.9484
 3436TIP3   OH231798   6.544   5.596   4.968  0.0890  0.3567 -0.2478
 3436TIP3    H131799   6.634   5.575   4.943  0.3812  1.0226  0.2350
 3436TIP3    H231800   6.528   5.542   5.046  0.7760  1.7229  0.8785
 3437TIP3   OH231801   3.192   2.928   0.921 -0.9699 -0.0642 -0.2109
 3437TIP3    H131802   3.267   2.882   0.959  0.5036  2.8248  0.6732
 3437TIP3    H231803   3.141   2.957   0.996 -1.5651  0.2252 -0.7173
 3438TIP3   OH231804   3.328   0.656   2.997 -0.1001 -0.1520 -0.7841
 3438TIP3    H131805   3.234   0.645   2.982 -1.2440  2.2273  3.0832
 3438TIP3    H231806   3.360   0.568   3.016 -1.9212 -0.8207 -0.5976
 3439TIP3   OH231807   6.356   0.403  13.273 -0.0328  0.5129  0.8276
 3439TIP3    H131808   6.413   0.352  13.216 -1.5352 -0.1433 -0.1422
 3439TIP3    H231809   6.324   0.341  13.338  1.4949  1.2079  2.3365
 3440TIP3   OH231810   5.731   0.711  11.358 -0.0844  0.2734  0.1429
 3440TIP3    H131811   5.738   0.771  11.283 -0.6896 -1.5914 -1.5079
 3440TIP3    H231812   5.637   0.697  11.368  0.0606 -0.6677  0.2450
 3441TIP3   OH231813   4.985   3.454   2.566  0.0876 -0.1869  0.2001
 3441TIP3    H131814   5.042   3.455   2.490 -0.6877  0.7253 -0.3897
 3441TIP3    H231815   5.004   3.371   2.610  0.8403 -0.5301 -0.7529
 3442TIP3   OH231816   3.606   2.767   4.235 -0.2512  0.2775 -0.0191
 3442TIP3    H131817   3.654   2.735   4.159  1.7275  0.3332  1.1389
 3442TIP3    H231818   3.516   2.774   4.205  0.1903 -1.1982 -1.8805
 3443TIP3   OH231819   3.582   3.590  15.168 -0.2860  0.4305  0.4439
 3443TIP3    H131820   3.599   3.507  15.212  0.8252 -0.0167 -0.7661
 3443TIP3    H231821   3.500   3.621  15.206  0.1586 -0.3541  2.1695
 3444TIP3   OH231822   4.965   5.710   5.883 -0.5645 -0.1750 -0.1743
 3444TIP3    H131823   4.985   5.762   5.960 -0.7307 -0.1683 -0.1353
 3444TIP3    H231824   4.944   5.623   5.917  0.0049 -0.3540 -0.2600
 3445TIP3   OH231825   2.000   5.091   3.127 -0.1716  0.0328 -0.4996
 3445TIP3    H131826   1.995   5.174   3.175 -0.7229 -0.3578  0.1389
 3445TIP3    H231827   2.093   5.081   3.106  0.1633 -0.0104  0.9109
 3446TIP3   OH231828   5.853   4.446  11.499  0.1965 -0.3218  0.3987
 3446TIP3    H131829   5.876   4.426  11.408  1.2439  0.6208  0.4528
 3446TIP3    H231830   5.898   4.379  11.550 -2.3361 -2.4017  0.1325
 3447TIP3   OH231831   1.776   2.796   6.504 -0.3062  0.1148 -0.0043
 3447TIP3    H131832   1.838   2.735   6.464  0.2222  0.4345  0.3183
 3447TIP3    H231833   1.819   2.881   6.499 -0.6778  0.3225  0.3056
 3448TIP3   OH231834   1.057   0.449  11.414  0.1584 -0.0896  0.8846
 3448TIP3    H131835   0.986   0.436  11.476 -1.8400  0.6337 -1.1047
 3448TIP3    H231836   1.066   0.544  11.407  0.7476 -0.1688  0.4874
 3449TIP3   OH231837   6.251   4.484   4.304  0.1572 -0.1202 -0.3151
 3449TIP3    H131838   6.211   4.571   4.299 -0.5059 -0.4754 -1.6815
 3449TIP3    H231839   6.190   4.427   4.257  0.5190 -1.3621  0.6638
 3450TIP3   OH231840   1.677   5.319  16.874  1.0257  0.1481 -0.3789
 3450TIP3    H131841   1.680   5.263  16.796  1.8240  1.3333 -1.2468
 3450TIP3    H231842   1.747   5.286  16.930  1.8610  0.5823 -1.1329
 3451TIP3   OH231843   5.823   0.804   2.669 -0.3196 -0.5321 -0.0564
 3451TIP3    H131844   5.785   0.826   2.754  1.2990 -1.0161  0.8446
 3451TIP3    H231845   5.917   0.813   2.683 -0.0241 -0.7843 -1.7647
 3452TIP3   OH231846   5.998   5.548   5.436 -0.6315 -0.2885 -0.1200
 3452TIP3    H131847   5.927   5.557   5.500 -0.2229 -1.3446  0.5098
 3452TIP3    H231848   5.967   5.481   5.376 -0.6550  0.1001 -0.5463
 3453TIP3   OH231849   1.350   2.288  12.329  0.0625  0.3562  0.3100
 3453TIP3    H131850   1.405   2.214  12.355  1.8526  0.4544 -2.7424
 3453TIP3    H231851   1.407   2.365  12.340 -0.1884  0.7229 -0.8694
 3454TIP3   OH231852   4.608   0.711   0.411 -0.1040  0.1746 -0.2197
 3454TIP3    H131853   4.631   0.703   0.318 -0.3016 -0.8339 -0.1962
 3454TIP3    H231854   4.611   0.621   0.444 -1.3063  0.3613  0.4478
 3455TIP3   OH231855   0.412   1.312  14.743  0.0950  0.0809 -0.4743
 3455TIP3    H131856   0.447   1.385  14.691 -0.0701  1.2652  1.0089
 3455TIP3    H231857   0.332   1.286  14.697 -0.7597  1.9717 -0.1526
 3456TIP3   OH231858   3.159   4.326   1.704 -0.4194 -0.4489  0.3037
 3456TIP3    H131859   3.160   4.376   1.785 -0.3342 -0.2712  0.1914
 3456TIP3    H231860   3.093   4.369   1.650  0.9337  0.6732 -0.5150
 3457TIP3   OH231861   0.267   2.543   1.083  0.2480 -0.2126 -0.1517
 3457TIP3    H131862   0.226   2.584   1.159  0.3390 -0.9579  0.3161
 3457TIP3    H231863   0.359   2.537   1.105  0.1623 -1.1318  0.0269
 3458TIP3   OH231864   4.897   3.148   2.076 -0.2167 -0.2136 -0.2863
 3458TIP3    H131865   4.816   3.167   2.124  0.1005  1.7292 -0.4809
 3458TIP3    H231866   4.967   3.170   2.137  0.1764 -0.2001 -0.7378
 3459TIP3   OH231867   1.461   4.327   5.106 -0.1266  0.2192 -0.1764
 3459TIP3    H131868   1.417   4.301   5.025 -0.6742 -0.9435  0.4722
 3459TIP3    H231869   1.535   4.268   5.114  0.3162  0.7673 -0.1550
 3460TIP3   OH231870   2.830   0.150   5.836  0.3651 -0.4626  0.4536
 3460TIP3    H131871   2.923   0.143   5.856  0.4657 -1.1950 -0.2244
 3460TIP3    H231872   2.788   0.082   5.889  0.1422  0.2029  1.1493
 3461TIP3   OH231873   1.545   2.134  12.983  0.2403  0.0347  0.5053
 3461TIP3    H131874   1.569   2.057  12.931 -0.7530 -0.7882  1.2226
 3461TIP3    H231875   1.462   2.163  12.946 -0.5666 -0.6630  1.7095
 3462TIP3   OH231876   5.316   0.263  16.498 -0.2168  0.4116 -0.5157
 3462TIP3    H131877   5.329   0.356  16.482  0.6965  0.3620 -0.1249
 3462TIP3    H231878   5.397   0.221  16.468 -0.4654 -0.2097 -0.3479
 3463TIP3   OH231879   5.032   0.671  11.138 -0.1425 -0.0360 -0.1443
 3463TIP3    H131880   5.120   0.689  11.104  0.0297  0.5850  0.5909
 3463TIP3    H231881   4.976   0.738  11.098  0.0382  0.6187  0.6596
 3464TIP3   OH231882   1.413   6.722  15.809  0.2204  0.5346 -0.6532
 3464TIP3    H131883   1.317   6.723  15.806  0.1993  1.8212 -0.0423
 3464TIP3    H231884   1.439   6.726  15.718 -0.3176  1.5718 -0.7747
 3465TIP3   OH231885   0.622   4.251   2.167  0.5494  0.3648  0.6569
 3465TIP3    H131886   0.593   4.331   2.210 -2.2307 -0.7756  1.1163
 3465TIP3    H231887   0.665   4.201   2.236 -0.3867  0.2090  1.1402
 3466TIP3   OH231888   2.480   6.812   4.216 -0.2291  0.0395 -0.1236
 3466TIP3    H131889   2.478   6.729   4.262 -0.5640 -0.5237 -1.1046
 3466TIP3    H231890   2.513   6.790   4.129  0.4112  1.0677 -0.1480
 3467TIP3   OH231891   3.135   6.584  13.726  0.4044  0.0618  0.0255
 3467TIP3    H131892   3.124   6.520  13.655  1.2994  1.2620 -1.2572
 3467TIP3    H231893   3.109   6.668  13.687  4.0006  1.3195 -0.0000
 3468TIP3   OH231894   4.643   2.714   5.640  0.0258 -0.1424  0.4436
 3468TIP3    H131895   4.578   2.703   5.710 -0.0803  0.4868  0.4532
 3468TIP3    H231896   4.722   2.741   5.686  0.5324 -1.6784  0.5089
 3469TIP3   OH231897   5.124   1.431   3.760  0.2822 -0.1534  0.7399
 3469TIP3    H131898   5.154   1.347   3.726  1.2847  0.8760 -1.0726
 3469TIP3    H231899   5.202   1.487   3.759 -0.8962  1.5619 -0.6827
 3470TIP3   OH231900   2.875   4.499  15.220  0.2259 -0.2109 -0.0409
 3470TIP3    H131901   2.860   4.489  15.126 -0.0560 -0.7350  0.0560
 3470TIP3    H231902   2.918   4.418  15.246 -1.1154 -0.7590  0.5666
 3471TIP3   OH231903   3.386   0.956  12.598  0.2701  0.0553  0.6504
 3471TIP3    H131904   3.334   0.897  12.544 -1.0775  1.1145  0.7309
 3471TIP3    H231905   3.321   1.008  12.646  1.4109 -0.6353  3.0623
 3472TIP3   OH231906   6.364   3.453   4.762 -0.5522  0.3488 -0.4234
 3472TIP3    H131907   6.344   3.543   4.737 -1.5157 -0.3219 -2.2910
 3472TIP3    H231908   6.287   3.403   4.735 -0.5765 -0.8820  1.7189
 3473TIP3   OH231909   4.981   0.356  13.913 -0.1361  0.5141  0.3560
 3473TIP3    H131910   4.890   0.386  13.919  0.0624  1.2757 -0.3187
 3473TIP3    H231911   4.977   0.279  13.855 -0.5392 -0.3535  1.4959
 3474TIP3   OH231912   6.627   6.725  16.983  0.6063 -0.5197  0.2899
 3474TIP3    H131913   6.533   6.743  16.975  1.0823  1.7800 -1.2552
 3474TIP3    H231914   6.636   6.682  17.068 -1.7780 -0.4009  0.6880
 3475TIP3   OH231915   1.210   0.468   5.514  0.6576  0.7799 -0.0523
 3475TIP3    H131916   1.283   0.482   5.454  1.0231  0.2521  0.2671
 3475TIP3    H231917   1.248   0.479   5.601  0.4484  0.1029  0.1284
 3476TIP3   OH231918   0.884   5.281  12.358 -0.2167 -0.2355  0.1853
 3476TIP3    H131919   0.859   5.283  12.450  1.8693  0.4342  0.7947
 3476TIP3    H231920   0.844   5.201  12.324 -0.8135 -0.6259  1.7367
 3477TIP3   OH231921   0.362   0.176  13.498 -0.1769 -0.4167  1.0593
 3477TIP3    H131922   0.454   0.150  13.508 -0.0327 -0.7254 -0.7781
 3477TIP3    H231923   0.317   0.095  13.474 -0.7522 -0.0613  0.9309
 3478TIP3   OH231924   0.376   0.155   3.442  0.1756 -0.7500  0.2050
 3478TIP3    H131925   0.455   0.193   3.481  1.9717 -2.9048 -1.0696
 3478TIP3    H231926   0.323   0.128   3.517  1.0597 -0.0302  1.1143
 3479TIP3   OH231927   6.013   0.428   3.969  0.1417 -0.1800  0.3992
 3479TIP3    H131928   5.958   0.472   4.033  1.2506 -0.8882  1.9159
 3479TIP3    H231929   5.957   0.360   3.931 -0.3375 -0.1795  1.1029
 3480TIP3   OH231930   2.528   4.251  13.364 -0.0404  0.7117  0.0466
 3480TIP3    H131931   2.541   4.337  13.404 -1.2465  1.1509 -0.4485
 3480TIP3    H231932   2.575   4.256  13.281  1.0526  0.3924  0.6330
 3481TIP3   OH231933   5.993   3.547  16.956 -0.2189  0.4544 -0.1050
 3481TIP3    H131934   6.033   3.556  16.870 -0.0719  1.3670  0.0406
 3481TIP3    H231935   5.963   3.457  16.960  2.4229 -0.4880  0.0434
 3482TIP3   OH231936   4.372   3.758  14.686 -0.7635  0.2958 -0.3386
 3482TIP3    H131937   4.277   3.758  14.675 -0.7552  0.7625 -0.4157
 3482TIP3    H231938   4.387   3.788  14.776 -0.7519 -1.6083  0.3409
 3483TIP3   OH231939   2.624   2.872   0.087 -0.7046 -0.0057 -0.1815
 3483TIP3    H131940   2.650   2.951   0.041  0.3847  0.1462  0.6433
 3483TIP3    H231941   2.587   2.815   0.020 -0.3299  0.7121 -1.0054
 3484TIP3   OH231942   4.310   1.831  16.785 -0.2696  0.7882  0.2393
 3484TIP3    H131943   4.370   1.770  16.828  0.0769  0.6450 -0.4391
 3484TIP3    H231944   4.230   1.781  16.772  0.3053  0.1664 -1.1227
 3485TIP3   OH231945   4.017   5.622   0.439 -0.1215  0.3075 -0.2608
 3485TIP3    H131946   4.024   5.564   0.515  1.1610 -0.0863 -0.6583
 3485TIP3    H231947   3.972   5.700   0.473 -0.1420 -0.1246  0.7437
 3486TIP3   OH231948   2.721   3.187   2.368 -0.3739  0.0645  0.3843
 3486TIP3    H131949   2.803   3.147   2.396  0.0309  0.3870 -0.3102
 3486TIP3    H231950   2.737   3.282   2.372 -0.3530  0.1185 -0.7681
 3487TIP3   OH231951   2.857   0.396  16.000 -0.4607 -0.0434 -0.2512
 3487TIP3    H131952   2.920   0.399  16.072  1.7358 -1.2336 -1.9933
 3487TIP3    H231953   2.831   0.304  15.994  0.6854 -0.3153 -1.9373
 3488TIP3   OH231954   1.892   5.894  16.450 -0.0994 -1.0169 -0.3659
 3488TIP3    H131955   1.829   5.879  16.520 -0.2416 -1.0041 -0.4896
 3488TIP3    H231956   1.846   5.868  16.370 -0.6362  0.7451 -0.6930
 3489TIP3   OH231957   6.429   3.483   1.343 -0.0050 -0.1409 -0.0835
 3489TIP3    H131958   6.507   3.483   1.399  2.0672  0.2082 -2.7894
 3489TIP3    H231959   6.444   3.412   1.280 -2.3410 -0.6522 -0.1599
 3490TIP3   OH231960   0.558   5.226   5.835 -0.3805  0.3819  0.6875
 3490TIP3    H131961   0.541   5.234   5.929  0.8280  0.5999  0.9151
 3490TIP3    H231962   0.576   5.133   5.822 -1.0430  0.2687  0.5769
 3491TIP3   OH231963   0.142   3.865   5.154  0.0328  0.0417  0.3110
 3491TIP3    H131964   0.180   3.831   5.073  1.1040  0.7878  0.4816
 3491TIP3    H231965   0.102   3.788   5.196 -1.4026 -0.1782 -1.3739
 3492TIP3   OH231966   4.236   2.542  15.798 -0.6610  0.9907  0.0898
 3492TIP3    H131967   4.261   2.595  15.722  0.3770  0.9564  0.3895
 3492TIP3    H231968   4.227   2.453  15.764 -1.1574  1.1363 -0.1707
 3493TIP3   OH231969   6.575   2.193   4.032  0.2230  0.2806 -0.2844
 3493TIP3    H131970   6.547   2.184   3.941  0.6407  0.7484 -0.4660
 3493TIP3    H231971   6.623   2.276   4.034  0.0563  0.3675  0.4037
 3494TIP3   OH231972   3.937   5.762  14.622 -0.0112  0.5198 -0.0057
 3494TIP3    H131973   4.005   5.826  14.643 -0.1646  0.5861  0.2915
 3494TIP3    H231974   3.874   5.769  14.694  0.0731 -0.1077  0.1418
 3495TIP3   OH231975   5.517   2.391   4.955  0.2617 -0.7982  0.0889
 3495TIP3    H131976   5.540   2.298   4.955  0.4555 -0.7543  0.5995
 3495TIP3    H231977   5.582   2.432   4.899  0.3055 -0.9417  0.0355
 3496TIP3   OH231978   0.637   2.744  15.739 -0.0799 -0.0171 -0.0629
 3496TIP3    H131979   0.687   2.826  15.739 -1.0257  0.6421 -2.4264
 3496TIP3    H231980   0.689   2.683  15.687 -0.2416 -0.3457  0.1502
 3497TIP3   OH231981   4.392   3.463  14.669 -0.2808 -0.3132 -0.0001
 3497TIP3    H131982   4.375   3.552  14.640  0.0595 -0.0089  0.7102
 3497TIP3    H231983   4.431   3.473  14.756 -0.8456 -1.1768  0.3622
 3498TIP3   OH231984   2.253   4.249  11.292 -0.3593 -0.1292 -0.0859
 3498TIP3    H131985   2.271   4.255  11.198 -1.4533 -0.3582 -0.3216
 3498TIP3    H231986   2.194   4.322  11.310  1.7322  1.4195  0.9401
 3499TIP3   OH231987   3.633   6.179  15.475 -0.1933  0.1314 -0.1586
 3499TIP3    H131988   3.658   6.125  15.550 -1.0056  0.2662  0.2194
 3499TIP3    H231989   3.562   6.131  15.434  0.8017 -0.3738 -1.3754
 3500TIP3   OH231990   3.823   1.527  16.656 -0.1576 -0.2315  0.2807
 3500TIP3    H131991   3.878   1.475  16.715  1.0081  0.0987 -0.4671
 3500TIP3    H231992   3.764   1.575  16.713 -0.5580 -1.5865  1.0491
 3501TIP3   OH231993   0.584   5.690   3.206  0.5143 -0.1829  0.0639
 3501TIP3    H131994   0.677   5.678   3.183  0.7493 -1.2669  1.4896
 3501TIP3    H231995   0.541   5.612   3.173  0.4848 -0.7012  1.2836
 3502TIP3   OH231996   0.404   4.411  16.341  0.0760 -0.7376 -0.0585
 3502TIP3    H131997   0.379   4.379  16.428  0.6648 -0.1728  0.3243
 3502TIP3    H231998   0.379   4.503  16.341 -1.2248 -1.0588 -1.0078
 3503TIP3   OH231999   2.858   0.651  16.187  0.0190  0.0815 -0.1268
 3503TIP3    H132000   2.900   0.696  16.261 -1.4630 -0.3032  0.9989
 3503TIP3    H232001   2.806   0.582  16.228 -2.8514  1.4082 -1.2688
 3504TIP3   OH232002   1.775   0.970  15.251  0.1081 -0.0036 -0.3596
 3504TIP3    H132003   1.793   0.926  15.168 -0.1427  2.3873 -1.7733
 3504TIP3    H232004   1.726   0.905  15.303 -0.5385 -1.2613 -2.4263
 3505TIP3   OH232005   4.453   1.865  12.952 -0.2673 -0.0341 -0.8281
 3505TIP3    H132006   4.373   1.847  12.902 -0.7127 -0.8425  0.1519
 3505TIP3    H232007   4.519   1.809  12.911 -0.1017  0.8858 -1.8581
 3506TIP3   OH232008   2.103   3.694  16.886  0.0980  0.3641  0.5528
 3506TIP3    H132009   2.043   3.768  16.874  0.1287  0.5800  1.6637
 3506TIP3    H232010   2.071   3.628  16.824 -0.1849  1.1445 -0.1546
 3507TIP3   OH232011   2.494   4.695   2.382  0.4580 -0.1747  0.0729
 3507TIP3    H132012   2.531   4.783   2.373 -0.0418  0.0465  0.1551
 3507TIP3    H232013   2.570   4.637   2.382  0.7529  0.1794 -0.9433
 3508TIP3   OH232014   4.447   5.756   1.082  0.2743  0.7648  0.2844
 3508TIP3    H132015   4.435   5.711   1.166  0.6001  0.0087 -0.0653
 3508TIP3    H232016   4.535   5.730   1.054 -0.8902 -1.4236 -1.7061
 3509TIP3   OH232017   3.234   6.322   4.637 -0.1377 -0.1507 -0.1667
 3509TIP3    H132018   3.281   6.282   4.711  0.8201  0.4675 -0.4151
 3509TIP3    H232019   3.148   6.345   4.673  0.5314  0.7473  0.9749
 3510TIP3   OH232020   5.504   5.980   6.006 -0.0413 -0.0076 -0.1029
 3510TIP3    H132021   5.502   6.075   5.993 -0.1737  0.0732  0.4808
 3510TIP3    H232022   5.468   5.967   6.094 -1.7378 -0.7403 -0.8825
 3511TIP3   OH232023   5.515   1.902  14.442  0.4430 -0.6527  0.2665
 3511TIP3    H132024   5.557   1.918  14.358  1.9087 -1.6755  0.7599
 3511TIP3    H232025   5.576   1.936  14.507  0.2735 -1.6512  0.9833
 3512TIP3   OH232026   6.040   0.356  13.070 -0.1759 -0.2370  0.0168
 3512TIP3    H132027   6.096   0.374  12.995  0.8460 -0.5767  0.6743
 3512TIP3    H232028   6.094   0.376  13.146 -1.2560  0.2999  0.6778
 3513TIP3   OH232029   3.557   4.853  16.219  0.0102 -0.1852 -0.0186
 3513TIP3    H132030   3.547   4.821  16.130  0.4646 -2.3925  0.6658
 3513TIP3    H232031   3.486   4.811  16.268  0.2208  0.3920  0.7996
 3514TIP3   OH232032   5.083   3.406  16.042 -0.4746  0.2374  0.0551
 3514TIP3    H132033   5.035   3.365  15.971  1.0102  0.9279 -1.4182
 3514TIP3    H232034   5.048   3.496  16.047 -0.4955  0.2257  0.1242
 3515TIP3   OH232035   2.081   4.287   2.007 -0.1267 -0.0686  0.5484
 3515TIP3    H132036   2.117   4.199   1.996  0.7435  0.2859  0.5026
 3515TIP3    H232037   1.998   4.285   1.958  0.5417 -0.4599 -0.6238
 3516TIP3   OH232038   1.312   3.615   4.278 -0.1232  0.3508  0.2637
 3516TIP3    H132039   1.229   3.567   4.285 -0.7107  1.5449  1.9276
 3516TIP3    H232040   1.302   3.691   4.335  2.4047  0.1259  1.1484
 3517TIP3   OH232041   6.335   0.689  12.928 -0.2644 -0.0096  0.1346
 3517TIP3    H132042   6.353   0.748  12.855 -2.1283  0.3073 -0.1265
 3517TIP3    H232043   6.262   0.635  12.897 -1.1453  0.1765  1.7830
 3518TIP3   OH232044   0.416   5.714   1.197 -0.4042 -0.2895 -0.0913
 3518TIP3    H132045   0.490   5.692   1.253 -0.4306  1.0952  0.5320
 3518TIP3    H232046   0.400   5.634   1.146  1.3598 -0.6938 -0.0881
 3519TIP3   OH232047   0.629   4.350  15.248 -0.4869  0.1807  0.2034
 3519TIP3    H132048   0.666   4.433  15.278 -0.3593 -0.5355  2.2203
 3519TIP3    H232049   0.548   4.340  15.298  0.5208 -1.8190  1.5821
 3520TIP3   OH232050   1.323   1.139   2.715  0.2284  0.2052  0.5488
 3520TIP3    H132051   1.277   1.056   2.732 -0.4938  0.3114 -0.7406
 3520TIP3    H232052   1.258   1.193   2.671  1.0088  1.0966  0.4819
 3521TIP3   OH232053   1.511   2.449  11.659  0.4505 -0.5013  0.5211
 3521TIP3    H132054   1.596   2.491  11.646  0.8849 -1.5373 -0.1049
 3521TIP3    H232055   1.516   2.368  11.608 -1.4628  0.1256 -0.7773
 3522TIP3   OH232056   6.486   3.890  16.520 -0.0674  0.6033  0.3035
 3522TIP3    H132057   6.444   3.896  16.434 -0.5082  0.1412  0.4759
 3522TIP3    H232058   6.415   3.909  16.582  0.2315  0.8659  0.5630
 3523TIP3   OH232059   4.504   5.060   2.235 -0.3362  0.7046  0.5574
 3523TIP3    H132060   4.536   5.027   2.151 -0.6875  1.1578  0.2411
 3523TIP3    H232061   4.551   5.009   2.300 -0.6031 -0.1697  0.0787
 3524TIP3   OH232062   4.204   2.146  11.107 -0.3354  0.4866 -0.1959
 3524TIP3    H132063   4.208   2.062  11.060 -0.4226  0.0271  0.6069
 3524TIP3    H232064   4.116   2.179  11.089 -0.6484 -0.0704  0.2857
 3525TIP3   OH232065   2.990   4.015  15.112  0.6504 -0.3511 -0.2251
 3525TIP3    H132066   3.080   4.044  15.093  0.7493 -0.4334  0.1188
 3525TIP3    H232067   3.000   3.949  15.181  0.3507 -0.5729 -0.3915
 3526TIP3   OH232068   5.432   3.423  13.980  0.5716  0.2790  0.7311
 3526TIP3    H132069   5.380   3.399  13.903  1.3763 -0.6810  0.4671
 3526TIP3    H232070   5.486   3.496  13.950  0.8407 -0.0547  0.3820
 3527TIP3   OH232071   1.078   6.602  11.227  0.1038 -0.0004 -0.1377
 3527TIP3    H132072   0.983   6.597  11.233 -0.0670  2.1022 -0.2508
 3527TIP3    H232073   1.095   6.626  11.136  0.7398 -0.1961 -0.0755
 3528TIP3   OH232074   2.193   2.508  15.884 -0.6429  0.3955 -0.3523
 3528TIP3    H132075   2.124   2.484  15.823  1.1241 -3.5233 -1.1406
 3528TIP3    H232076   2.162   2.479  15.969 -0.1649 -1.2188 -0.6830
 3529TIP3   OH232077   5.709   0.583   5.862  0.1149  0.3446 -0.3033
 3529TIP3    H132078   5.682   0.608   5.950  0.7375  1.2399 -0.3504
 3529TIP3    H232079   5.639   0.525   5.831 -1.4273  2.0425 -0.1799
 3530TIP3   OH232080   2.146   3.257   5.711  0.2385  1.3786  0.0063
 3530TIP3    H132081   2.068   3.292   5.669 -0.8099 -1.3312 -0.5352
 3530TIP3    H232082   2.197   3.220   5.638  0.1619 -0.1429  0.6728
 3531TIP3   OH232083   1.848   5.226  17.070 -0.8595 -0.1432  0.0839
 3531TIP3    H132084   1.928   5.212  17.122  0.2002  0.0339 -1.4106
 3531TIP3    H232085   1.777   5.196  17.126 -0.0813  2.4485  2.6647
 3532TIP3   OH232086   1.671   5.665   0.458  0.2958  0.3393  0.0745
 3532TIP3    H132087   1.746   5.711   0.496  0.9032  0.5411 -1.2699
 3532TIP3    H232088   1.613   5.735   0.428 -0.6884  0.1812  1.5417
 3533TIP3   OH232089   0.443   1.421   4.806  0.1437 -0.7080  0.0596
 3533TIP3    H132090   0.390   1.501   4.804 -0.7855 -1.2150  2.1624
 3533TIP3    H232091   0.510   1.438   4.872  1.1142 -1.0078 -0.8188
 3534TIP3   OH232092   2.151   1.538  15.651 -0.7641  0.3002  0.1176
 3534TIP3    H132093   2.105   1.623  15.649 -1.2745  0.0530  0.9241
 3534TIP3    H232094   2.109   1.490  15.723 -1.3598 -1.1338 -1.1304
 3535TIP3   OH232095   1.670   5.235   4.842 -0.7515  0.1985  0.3031
 3535TIP3    H132096   1.655   5.190   4.759 -1.9001 -0.6768  0.9622
 3535TIP3    H232097   1.591   5.288   4.855 -0.4918  0.4845  0.7469
 3536TIP3   OH232098   6.018   6.292  17.086 -0.3214 -0.4630 -0.0385
 3536TIP3    H132099   6.061   6.263  17.167 -1.6163 -1.7204  0.2288
 3536TIP3    H232100   6.086   6.283  17.019  0.5122 -0.2128  0.7411
 3537TIP3   OH232101   6.157   0.250   5.436  0.1609  0.2339 -0.0615
 3537TIP3    H132102   6.154   0.344   5.416 -1.9054  0.9617  2.9919
 3537TIP3    H232103   6.223   0.242   5.504  1.0215 -0.7530 -0.9711
 3538TIP3   OH232104   1.157   2.678  13.821 -0.7083  0.1690 -0.4467
 3538TIP3    H132105   1.156   2.597  13.770 -0.7736  0.4593 -0.9117
 3538TIP3    H232106   1.211   2.738  13.769 -1.8599  0.8954 -0.8457
 3539TIP3   OH232107   3.545   1.533  16.064 -0.1788  0.0767 -0.1484
 3539TIP3    H132108   3.519   1.541  15.972 -0.0423  0.3549 -0.1652
 3539TIP3    H232109   3.484   1.590  16.111 -1.1760 -1.1764  0.1173
 3540TIP3   OH232110   0.158   6.050   0.446 -0.1066  0.2960  0.0338
 3540TIP3    H132111   0.079   6.103   0.453 -0.1891  0.3744 -1.3765
 3540TIP3    H232112   0.134   5.977   0.389  0.7535  0.1553 -0.1616
 3541TIP3   OH232113   0.936   6.738   6.468 -0.5664  0.3008  0.1470
 3541TIP3    H132114   0.923   6.668   6.404  0.8155  1.2489 -1.2194
 3541TIP3    H232115   0.866   6.800   6.451  1.1558  1.7518 -2.1859
 3542TIP3   OH232116   6.371   1.551   6.296 -0.1460  1.0505  0.3819
 3542TIP3    H132117   6.335   1.506   6.219  1.3986  2.0680 -1.0073
 3542TIP3    H232118   6.295   1.587   6.340 -1.4636 -2.6083  1.4512
 3543TIP3   OH232119   3.155   6.006  13.403 -0.2530  0.3453  0.0768
 3543TIP3    H132120   3.249   5.990  13.401 -0.4065 -0.9472  1.7270
 3543TIP3    H232121   3.142   6.061  13.480 -1.0860 -1.5697  1.3779
 3544TIP3   OH232122   4.736   5.653   2.448 -0.4396 -0.5875 -0.4009
 3544TIP3    H132123   4.812   5.611   2.488 -0.6273 -1.6962 -1.1794
 3544TIP3    H232124   4.773   5.710   2.381 -0.1727  0.7140  0.7844
 3545TIP3   OH232125   2.163   6.369   4.165 -0.0678 -0.1189 -0.4438
 3545TIP3    H132126   2.165   6.280   4.128 -0.8559 -0.3876  0.1386
 3545TIP3    H232127   2.092   6.367   4.228  0.7247  0.5780  0.4937
 3546TIP3   OH232128   2.819   5.786  15.983 -0.0468 -0.1334 -0.1823
 3546TIP3    H132129   2.834   5.815  16.073  1.5449 -0.4336 -0.3060
 3546TIP3    H232130   2.889   5.828  15.933 -1.1710  0.3764 -1.3671
 3547TIP3   OH232131   0.941   3.891  12.424  0.0811 -0.1195  0.0729
 3547TIP3    H132132   0.896   3.959  12.474 -0.8813 -0.7879  0.1365
 3547TIP3    H232133   0.884   3.874  12.349  1.0091  0.1393 -0.7269
 3548TIP3   OH232134   0.704   1.945   3.242 -0.3749 -0.0723  0.0111
 3548TIP3    H132135   0.751   1.903   3.170  0.4758  0.3972  0.2742
 3548TIP3    H232136   0.612   1.925   3.226 -0.2872  0.7367 -1.6870
 3549TIP3   OH232137   6.187   4.845  16.993  0.2578  0.3147  0.8883
 3549TIP3    H132138   6.214   4.778  16.930 -2.3429 -0.7014  0.7357
 3549TIP3    H232139   6.260   4.851  17.055  1.6645 -0.7117 -0.5903
 3550TIP3   OH232140   1.785   1.039   6.654  0.1810 -0.2995  0.2583
 3550TIP3    H132141   1.783   1.127   6.691  1.6792 -0.5431  1.0242
 3550TIP3    H232142   1.783   1.051   6.559 -1.1725  0.4692  0.3720
 3551TIP3   OH232143   1.458   6.368   1.789 -0.0698  0.2409  0.0072
 3551TIP3    H132144   1.504   6.315   1.854 -2.3412  0.1533  1.6534
 3551TIP3    H232145   1.473   6.321   1.706  0.0406 -1.6069  1.0097
 3552TIP3   OH232146   6.549   1.138  11.931 -0.1649  0.9274 -0.1352
 3552TIP3    H132147   6.540   1.116  11.838 -0.3204  1.6141 -0.2939
 3552TIP3    H232148   6.521   1.060  11.977 -2.3017  1.3042 -0.6597
 3553TIP3   OH232149   3.511   5.693  15.515  0.1611  0.9652 -0.3643
 3553TIP3    H132150   3.558   5.720  15.436  2.9497 -0.2240  0.7414
 3553TIP3    H232151   3.503   5.774  15.566 -1.2922  1.6568 -1.6181
 3554TIP3   OH232152   1.214   1.853  12.655 -0.4008 -0.2658  0.4058
 3554TIP3    H132153   1.256   1.937  12.673 -0.9403  0.0897  0.0441
 3554TIP3    H232154   1.228   1.838  12.561 -1.0927 -0.1318  0.2759
 3555TIP3   OH232155   4.722   3.141   6.321 -0.1006  0.0357 -0.1694
 3555TIP3    H132156   4.812   3.118   6.299  0.7118  2.3460  0.4166
 3555TIP3    H232157   4.689   3.066   6.371  1.8205 -0.4675  0.4351
 3556TIP3   OH232158   0.734   5.111   2.089 -1.0529 -0.5624  0.6159
 3556TIP3    H132159   0.712   5.127   1.997  3.5679  1.3614 -0.4566
 3556TIP3    H232160   0.725   5.017   2.100  0.5277 -1.2522 -2.6650
 3557TIP3   OH232161   3.548   5.339  12.092 -0.0995  0.6003  0.0688
 3557TIP3    H132162   3.605   5.278  12.045 -1.5834 -1.1731  0.4128
 3557TIP3    H232163   3.514   5.397  12.024  3.2601  2.8175  0.0803
 3558TIP3   OH232164   3.592   1.765  15.450 -0.1838  0.6553 -0.7382
 3558TIP3    H132165   3.559   1.819  15.523  1.9285  1.5462 -0.3799
 3558TIP3    H232166   3.652   1.703  15.491 -0.4442 -0.1404 -1.5166
 3559TIP3   OH232167   5.368   4.586   4.015  0.3490 -0.2887 -0.0024
 3559TIP3    H132168   5.450   4.615   4.055 -0.4317  0.6893  0.9275
 3559TIP3    H232169   5.392   4.565   3.925  1.7035 -0.4484  0.3712
 3560TIP3   OH232170   1.769   1.348   1.632 -0.6394 -0.2297  0.2742
 3560TIP3    H132171   1.713   1.311   1.700 -0.9564  0.4577  0.3951
 3560TIP3    H232172   1.857   1.340   1.667 -0.7767 -0.1270  0.6553
 3561TIP3   OH232173   2.807   6.165   5.840  0.2104  0.5330 -1.0229
 3561TIP3    H132174   2.739   6.148   5.906 -0.5823  0.0091 -1.9544
 3561TIP3    H232175   2.887   6.176   5.891 -0.1476 -1.1164 -0.0330
 3562TIP3   OH232176   1.754   4.091   3.721  0.6648  0.2216 -0.2229
 3562TIP3    H132177   1.752   4.040   3.640 -2.7748 -1.1574  0.5315
 3562TIP3    H232178   1.757   4.182   3.692  0.3090 -0.2605 -1.8999
 3563TIP3   OH232179   0.360   5.789  15.126 -0.6760  0.3422  0.1889
 3563TIP3    H132180   0.312   5.779  15.044  0.6223  0.0071 -0.5581
 3563TIP3    H232181   0.378   5.700  15.155  0.7997  0.4330 -0.3576
 3564TIP3   OH232182   4.021   0.861   1.761 -0.0445 -0.2198  0.0330
 3564TIP3    H132183   3.966   0.784   1.770 -2.4720  1.3286 -0.5614
 3564TIP3    H232184   3.960   0.933   1.745  2.1508  1.6974 -0.3698
 3565TIP3   OH232185   3.348   6.530   1.248 -0.0657 -0.0195  0.4183
 3565TIP3    H132186   3.434   6.563   1.274 -0.0501  1.5769 -1.4927
 3565TIP3    H232187   3.285   6.588   1.292 -0.0942  0.7002 -0.5547
 3566TIP3   OH232188   1.720   1.080  13.331 -0.2881  0.1811  0.5332
 3566TIP3    H132189   1.783   1.141  13.292  0.5089 -0.9308  0.0283
 3566TIP3    H232190   1.635   1.110  13.299 -0.0406  1.5965  1.0777
 3567TIP3   OH232191   3.108   3.499  13.753 -0.1141  0.6409 -0.3895
 3567TIP3    H132192   3.028   3.547  13.774  0.4046  1.7204 -0.8248
 3567TIP3    H232193   3.077   3.422  13.705 -0.8285  1.6917 -1.6752
 3568TIP3   OH232194   2.004   0.476   5.484  0.2221  0.0762  0.0380
 3568TIP3    H132195   2.086   0.455   5.441 -0.7480  1.4177 -2.7446
 3568TIP3    H232196   2.028   0.534   5.556  1.8896 -1.9364  1.2013
 3569TIP3   OH232197   3.462   6.583   4.090 -0.2931  0.0673 -0.4399
 3569TIP3    H132198   3.509   6.659   4.123 -1.1492  0.0399  0.9039
 3569TIP3    H232199   3.487   6.578   3.997 -0.6031  2.2577 -0.6865
 3570TIP3   OH232200   5.929   0.982  13.627  0.0998  0.4107 -0.7620
 3570TIP3    H132201   5.939   1.059  13.683  2.5280 -0.1971 -0.2286
 3570TIP3    H232202   5.857   1.004  13.568 -0.9581  2.0445  1.0263
 3571TIP3   OH232203   6.418   5.054  13.246 -0.7031 -0.0614  0.2699
 3571TIP3    H132204   6.412   4.991  13.174  0.4357 -1.0324  1.0012
 3571TIP3    H232205   6.351   5.119  13.226 -1.5371 -1.2038 -0.7891
 3572TIP3   OH232206   0.674   4.493   4.803 -0.2426  0.1600 -0.2844
 3572TIP3    H132207   0.711   4.481   4.890  0.1571  0.6853 -0.3721
 3572TIP3    H232208   0.697   4.413   4.755 -3.1587 -1.5811  0.9767
 3573TIP3   OH232209   6.639   2.151  11.218 -0.1102 -0.2949 -0.1395
 3573TIP3    H132210   6.644   2.191  11.131  1.3971  0.7791  0.3985
 3573TIP3    H232211   6.649   2.224  11.278 -0.4834 -1.1074  0.9280
 3574TIP3   OH232212   1.654   4.907  14.638  0.1677 -0.1998  0.2351
 3574TIP3    H132213   1.711   4.978  14.670 -0.3970  0.5169 -0.3105
 3574TIP3    H232214   1.595   4.950  14.576 -1.3343 -0.8167  1.1751
 3575TIP3   OH232215   0.409   3.928   1.781  0.7397 -0.0961  0.2751
 3575TIP3    H132216   0.470   3.886   1.721 -0.2810  0.4398 -1.2058
 3575TIP3    H232217   0.431   3.893   1.867  3.2341  0.2440 -0.1714
 3576TIP3   OH232218   1.982   4.691   6.570 -0.1787 -0.0118 -0.0586
 3576TIP3    H132219   1.937   4.636   6.506 -0.6887 -0.1985  0.4577
 3576TIP3    H232220   1.988   4.777   6.529 -0.5085 -0.1293 -0.3509
 3577TIP3   OH232221   2.474   1.368  15.514  0.6793 -0.9832  0.2641
 3577TIP3    H132222   2.474   1.463  15.516  0.4000 -0.9485 -0.7691
 3577TIP3    H232223   2.504   1.342  15.601  1.8656  0.0471  0.1889
 3578TIP3   OH232224   0.652   6.205  13.623  0.3044  0.0414  0.1458
 3578TIP3    H132225   0.585   6.264  13.657 -1.0180 -1.3525  0.0920
 3578TIP3    H232226   0.728   6.260  13.607 -0.4513  1.4738  1.3175
 3579TIP3   OH232227   5.414   1.259  13.286  0.4282  0.3359  0.3129
 3579TIP3    H132228   5.478   1.274  13.216  0.3599  2.4743  0.6217
 3579TIP3    H232229   5.359   1.188  13.253  1.0595  0.5524 -1.3442
 3580TIP3   OH232230   5.130   3.341   0.998 -0.1812 -0.1278 -0.0317
 3580TIP3    H132231   5.081   3.419   1.024  0.6061  0.1555  0.6216
 3580TIP3    H232232   5.212   3.346   1.047  0.2911 -0.8638 -0.7276
 3581TIP3   OH232233   3.617   5.092   6.019 -0.8269 -0.3688  0.0336
 3581TIP3    H132234   3.549   5.129   6.076 -2.3020 -3.2609  0.3395
 3581TIP3    H232235   3.693   5.084   6.076 -0.8271  0.9856  0.2679
 3582TIP3   OH232236   2.053   0.341  13.406 -0.1045 -0.1096 -0.6175
 3582TIP3    H132237   1.996   0.414  13.429  2.0861  1.7268 -0.6934
 3582TIP3    H232238   2.072   0.298  13.489 -1.4283 -0.6658 -0.5739
 3583TIP3   OH232239   3.831   6.606   4.665 -0.6178  0.0753  0.3225
 3583TIP3    H132240   3.818   6.561   4.582  1.4476 -1.5297  0.7957
 3583TIP3    H232241   3.880   6.685   4.642 -0.9127  0.1517 -0.0655
 3584TIP3   OH232242   0.423   5.974   4.328 -0.0412 -0.2426 -0.2282
 3584TIP3    H132243   0.333   5.963   4.361 -0.1514 -1.2354 -0.8017
 3584TIP3    H232244   0.413   6.018   4.244  0.0358 -0.1048 -0.1662
 3585TIP3   OH232245   1.785   4.433   4.959 -0.0811  0.0923  0.1062
 3585TIP3    H132246   1.706   4.480   4.933 -0.8621 -1.1683  0.1023
 3585TIP3    H232247   1.852   4.501   4.970 -1.4869  1.3222  1.3483
 3586TIP3   OH232248   3.507   3.378  10.392 -0.1071 -0.1013  0.3881
 3586TIP3    H132249   3.489   3.472  10.394 -0.7000 -0.2115  2.1872
 3586TIP3    H232250   3.453   3.345  10.321 -2.0399  0.5674  1.4614
 3587TIP3   OH232251   5.565   4.411  11.550 -0.3642  0.3044  0.1276
 3587TIP3    H132252   5.644   4.428  11.498 -0.7770 -0.0642 -0.6468
 3587TIP3    H232253   5.577   4.461  11.630  1.3421 -0.8829  0.6866
 3588TIP3   OH232254   4.338   3.838   4.500 -0.1868 -0.5820  0.4821
 3588TIP3    H132255   4.414   3.780   4.496  0.3758  0.1620 -0.0405
 3588TIP3    H232256   4.335   3.878   4.413  0.1075  0.9854  1.1631
 3589TIP3   OH232257   6.510   5.932  13.334  0.1046  0.6766 -0.0587
 3589TIP3    H132258   6.572   6.005  13.329  1.2151 -0.2841 -0.8816
 3589TIP3    H232259   6.495   5.907  13.243  1.3833 -1.4342  0.2402
 3590TIP3   OH232260   1.730   6.121  13.505 -0.9342  0.4065  0.0183
 3590TIP3    H132261   1.711   6.068  13.582  0.2664  0.0306  0.0899
 3590TIP3    H232262   1.670   6.089  13.438 -0.5712 -0.7119  0.2068
 3591TIP3   OH232263   6.116   6.334   5.328 -0.3257  0.0870 -0.4004
 3591TIP3    H132264   6.033   6.297   5.359 -0.7847 -2.6470 -4.2529
 3591TIP3    H232265   6.098   6.428   5.318 -1.4771  0.3437  2.8038
 3592TIP3   OH232266   6.325   3.889  14.872  0.0326 -0.4233 -0.3098
 3592TIP3    H132267   6.382   3.846  14.936  0.7414 -0.1200 -0.7201
 3592TIP3    H232268   6.384   3.913  14.800 -0.2260  1.7078  0.1324
 3593TIP3   OH232269   0.815   6.714  16.390  0.0310 -0.5244 -0.0364
 3593TIP3    H132270   0.833   6.682  16.478  1.2780  1.5992  0.5603
 3593TIP3    H232271   0.897   6.699  16.342  0.6973  1.6578  0.2945
 3594TIP3   OH232272   0.085   5.112  13.833  0.6298  0.2083  0.5736
 3594TIP3    H132273   0.079   5.100  13.738 -2.0655 -1.5759  0.8582
 3594TIP3    H232274   0.136   5.037  13.863  1.0532  0.5007  0.5884
 3595TIP3   OH232275   4.945   5.568   5.624 -0.2756  0.3436 -0.4388
 3595TIP3    H132276   5.030   5.534   5.595 -0.0348  0.2644  0.3196
 3595TIP3    H232277   4.961   5.597   5.714 -0.9935  0.5605 -0.3757
 3596TIP3   OH232278   0.149   1.618  14.042 -0.4052  0.3080  0.4289
 3596TIP3    H132279   0.149   1.576  14.128  0.7832 -0.7543 -0.0445
 3596TIP3    H232280   0.105   1.555  13.984 -1.4399  1.1317  0.2912
 3597TIP3   OH232281   6.178   2.454  11.063 -0.2793  0.1679  0.2852
 3597TIP3    H132282   6.268   2.427  11.048 -0.6751 -1.4085  0.6156
 3597TIP3    H232283   6.149   2.489  10.979 -0.9070 -3.9303 -1.3959
 3598TIP3   OH232284   5.479   1.122  17.042 -0.1091 -0.1014  0.3252
 3598TIP3    H132285   5.571   1.105  17.064 -0.5540 -0.6460  1.9527
 3598TIP3    H232286   5.476   1.121  16.947  1.4933 -0.5245  0.2475
 3599TIP3   OH232287   1.102   4.429   3.078  0.7715  0.4440  0.6050
 3599TIP3    H132288   1.098   4.334   3.072  2.3982  0.4227 -0.6128
 3599TIP3    H232289   1.010   4.457   3.073  0.2053 -1.0683  1.7679
 3600TIP3   OH232290   3.549   1.231   3.719  0.0010  0.1417  0.2279
 3600TIP3    H132291   3.634   1.187   3.730  1.1488  1.5081 -2.1999
 3600TIP3    H232292   3.572   1.316   3.679 -2.5493  0.2662 -1.1385
 3601TIP3   OH232293   4.263   2.073  12.579 -0.2375  0.0724 -0.0815
 3601TIP3    H132294   4.222   1.987  12.573  1.5639 -0.7778 -0.8552
 3601TIP3    H232295   4.236   2.118  12.499 -1.1419  0.2393  0.3025
 3602TIP3   OH232296   1.424   5.709   3.280 -0.1125  0.1391 -0.0631
 3602TIP3    H132297   1.459   5.776   3.221  1.1314 -0.4792 -0.0577
 3602TIP3    H232298   1.394   5.758   3.357  0.3782  0.7334 -0.2442
 3603TIP3   OH232299   1.076   4.195   2.124  0.3323  0.2098  0.0132
 3603TIP3    H132300   1.010   4.197   2.055 -1.8556  0.2559  1.9811
 3603TIP3    H232301   1.094   4.101   2.137 -0.3628  0.1155  0.3461
 3604TIP3   OH232302   3.856   1.030   3.416  0.1753 -0.5748  0.0007
 3604TIP3    H132303   3.909   1.066   3.488 -1.0799 -1.1807  1.2790
 3604TIP3    H232304   3.770   1.069   3.429 -0.2513 -1.2314 -0.7857
 3605TIP3   OH232305   0.878   3.787   4.857 -0.3918  0.9222 -0.2139
 3605TIP3    H132306   0.825   3.757   4.931  0.6875  0.6932  0.4996
 3605TIP3    H232307   0.954   3.829   4.898  2.0104 -2.2055 -1.0525
 3606TIP3   OH232308   2.934   6.043   3.645  0.0864  0.2295 -0.3690
 3606TIP3    H132309   3.007   6.045   3.583  0.2442  1.1440 -0.1674
 3606TIP3    H232310   2.976   6.050   3.731 -0.2133  0.4643 -0.2396
 3607TIP3   OH232311   4.897   6.142  12.821  0.8503  0.1890 -0.0775
 3607TIP3    H132312   4.948   6.177  12.748  1.7679 -2.0223 -0.5760
 3607TIP3    H232313   4.827   6.092  12.779 -0.1225  0.9448  0.6022
 3608TIP3   OH232314   0.416   3.705   4.610 -0.7962  0.2371 -0.1985
 3608TIP3    H132315   0.480   3.661   4.667 -0.7767  0.1358 -0.2973
 3608TIP3    H232316   0.469   3.740   4.538 -0.7576  0.7722  0.0831
 3609TIP3   OH232317   0.372   4.362  12.693 -0.3477 -0.3590  0.2924
 3609TIP3    H132318   0.299   4.371  12.632  1.6028  2.9795 -1.8572
 3609TIP3    H232319   0.337   4.393  12.777 -1.3370  1.8798 -0.8544
 3610TIP3   OH232320   2.048   1.245  12.744  0.4718 -0.0492 -0.5298
 3610TIP3    H132321   1.965   1.202  12.765  0.5292 -0.2772 -0.7577
 3610TIP3    H232322   2.110   1.173  12.732  0.9292  0.1485  0.5444
 3611TIP3   OH232323   6.740   6.301   1.029 -0.1877  0.0422  0.3008
 3611TIP3    H132324   6.834   6.313   1.046 -0.3513 -0.9848  2.2355
 3611TIP3    H232325   6.700   6.380   1.065 -0.2581 -0.7436  2.0489
 3612TIP3   OH232326   1.837   5.892  14.890  0.2679 -0.0238 -0.1300
 3612TIP3    H132327   1.876   5.814  14.849  1.5369  1.0240 -0.9798
 3612TIP3    H232328   1.909   5.935  14.935 -0.3529  0.8299  0.0768
 3613TIP3   OH232329   2.512   4.439  11.211 -0.0398  0.7437  0.0925
 3613TIP3    H132330   2.562   4.370  11.255  0.0664  0.7683  0.0140
 3613TIP3    H232331   2.447   4.391  11.159  0.0645  0.6980  0.0003
 3614TIP3   OH232332   0.235   4.556  15.384 -0.2360 -0.8876  0.0468
 3614TIP3    H132333   0.288   4.569  15.462 -1.6588  1.3761  0.7425
 3614TIP3    H232334   0.162   4.618  15.393 -0.5162 -0.5751 -3.0181
 3615TIP3   OH232335   5.993   3.010   4.545  0.2515  0.0248  0.1190
 3615TIP3    H132336   6.079   3.013   4.504  0.8637  0.4718  1.4000
 3615TIP3    H232337   5.984   2.920   4.576  0.4430  0.0855  0.3558
 3616TIP3   OH232338   6.706   3.628  15.804 -0.4947  0.0922  0.6874
 3616TIP3    H132339   6.698   3.534  15.785 -0.6942  0.1357  0.5519
 3616TIP3    H232340   6.785   3.656  15.759 -1.1071  0.2554 -0.3071
 3617TIP3   OH232341   0.120   5.983  15.786 -0.0996 -0.1430 -0.7538
 3617TIP3    H132342   0.187   6.024  15.841  3.5436 -2.6984 -2.7937
 3617TIP3    H232343   0.089   6.053  15.729 -0.0837  1.3913  1.0451
 3618TIP3   OH232344   0.431   5.121  15.588 -0.2238  0.7467 -0.1154
 3618TIP3    H132345   0.508   5.109  15.532  0.9400  1.6012  1.2183
 3618TIP3    H232346   0.447   5.204  15.633 -0.7118 -0.2579  2.0381
 3619TIP3   OH232347   3.415   3.158  13.617  0.4791  0.1781 -0.4152
 3619TIP3    H132348   3.405   3.130  13.707  2.2670 -1.8976 -0.7865
 3619TIP3    H232349   3.420   3.254  13.622  0.6970  0.1013  1.6935
 3620TIP3   OH232350   1.033   1.821   4.379  1.0151 -0.0144  0.9295
 3620TIP3    H132351   1.023   1.814   4.474  2.7653 -2.2880  1.0339
 3620TIP3    H232352   1.125   1.846   4.366  0.3992  1.9137 -0.1998
 3621TIP3   OH232353   6.274   1.402   0.472 -0.2462  0.0850  0.5660
 3621TIP3    H132354   6.201   1.380   0.414 -1.1257  0.6153  1.4341
 3621TIP3    H232355   6.303   1.489   0.441 -0.0235 -0.0911  0.2713
 3622TIP3   OH232356   2.724   0.424  16.863  0.0875  0.1657  0.0856
 3622TIP3    H132357   2.666   0.350  16.843  0.4755 -0.4431  1.1314
 3622TIP3    H232358   2.671   0.502  16.845 -0.9950 -0.3791  0.8163
 3623TIP3   OH232359   2.452   3.793   0.714 -0.9586  0.0051  0.1840
 3623TIP3    H132360   2.444   3.698   0.705 -0.3232  0.1104 -2.3014
 3623TIP3    H232361   2.498   3.821   0.635 -0.2430  2.3027  1.3122
 3624TIP3   OH232362   3.676   4.054   6.015 -0.5274 -0.5225 -0.4623
 3624TIP3    H132363   3.593   4.100   6.022  0.5720  2.1497 -3.0238
 3624TIP3    H232364   3.661   3.988   5.947 -0.6713 -0.2997 -0.6487
 3625TIP3   OH232365   0.994   0.954  12.091  0.4420  0.1545  0.1736
 3625TIP3    H132366   0.901   0.935  12.103  0.1879  1.2228  0.0421
 3625TIP3    H232367   1.039   0.881  12.133 -0.4543 -0.3560  0.2758
 3626TIP3   OH232368   3.782   3.642  14.534  0.0780  0.1021  0.1241
 3626TIP3    H132369   3.781   3.711  14.468 -0.0304  1.2267  1.2731
 3626TIP3    H232370   3.690   3.632  14.559  0.2637  0.5962  1.0265
 3627TIP3   OH232371   4.383   0.536   5.945 -0.2252  0.3097  0.1112
 3627TIP3    H132372   4.294   0.504   5.957 -0.1197 -0.1910 -0.3630
 3627TIP3    H232373   4.437   0.480   6.001 -0.2798  1.0624  0.9372
 3628TIP3   OH232374   0.228   0.579   4.969 -0.1249  0.1901  0.7127
 3628TIP3    H132375   0.191   0.580   5.057  1.9727 -1.0481  1.6614
 3628TIP3    H232376   0.236   0.672   4.945 -0.8726  0.5346  1.7266
 3629TIP3   OH232377   6.401   1.126  14.637  0.0781 -0.2131 -0.1188
 3629TIP3    H132378   6.308   1.138  14.655 -0.2317 -0.0031 -1.7046
 3629TIP3    H232379   6.407   1.122  14.541  1.8334  0.8832 -0.1015
 3630TIP3   OH232380   3.494   4.438  16.553  0.1609 -0.3060  0.5916
 3630TIP3    H132381   3.560   4.482  16.606  0.6743 -1.5019  0.9743
 3630TIP3    H232382   3.542   4.371  16.506 -0.7267 -0.9635  0.6030
 3631TIP3   OH232383   2.627   0.762   0.201 -0.6993  0.2312 -0.2853
 3631TIP3    H132384   2.683   0.812   0.142  2.1597 -0.5689  1.5430
 3631TIP3    H232385   2.621   0.675   0.161  0.8020 -0.1596  0.2846
 3632TIP3   OH232386   0.783   3.217  15.785 -0.3636  0.0986 -0.4306
 3632TIP3    H132387   0.733   3.211  15.704 -2.9679  3.2247  0.7452
 3632TIP3    H232388   0.725   3.185  15.853  0.7176  0.1071  0.5369
 3633TIP3   OH232389   2.296   5.399   5.877 -0.3903  0.4571  0.4935
 3633TIP3    H132390   2.291   5.355   5.962 -0.4253  0.6014  0.5662
 3633TIP3    H232391   2.214   5.447   5.870  1.1394  3.6241  2.1237
 3634TIP3   OH232392   2.543   4.441   1.706 -0.5262  0.0332  0.0562
 3634TIP3    H132393   2.456   4.483   1.707 -1.1671 -1.1935 -0.9650
 3634TIP3    H232394   2.527   4.354   1.671  1.0374 -0.4747  0.5330
 3635TIP3   OH232395   6.368   1.228  14.100  0.0162  0.2712  0.2483
 3635TIP3    H132396   6.407   1.144  14.124  0.7092  0.3512 -0.5502
 3635TIP3    H232397   6.281   1.206  14.066 -0.1130 -0.0428  0.7798
 3636TIP3   OH232398   1.669   4.146   0.718 -0.1392  0.2477  0.0512
 3636TIP3    H132399   1.633   4.232   0.737  0.8019  0.7378 -0.3319
 3636TIP3    H232400   1.626   4.119   0.637  0.8133  1.1166 -0.7655
 3637TIP3   OH232401   4.627   6.676   5.746 -0.1144  0.4732 -0.4134
 3637TIP3    H132402   4.661   6.744   5.803 -1.7945  1.1885 -0.2295
 3637TIP3    H232403   4.562   6.630   5.798 -1.7059  1.1612 -1.7073
 3638TIP3   OH232404   5.927   1.960   2.818 -0.2079  0.1264  0.2378
 3638TIP3    H132405   5.948   1.975   2.910 -0.9695  2.9251  0.0571
 3638TIP3    H232406   6.000   2.000   2.770 -1.2427  1.4197 -0.3305
 3639TIP3   OH232407   0.013   0.865  16.667 -0.4553 -0.0614  0.2052
 3639TIP3    H132408   0.027   0.959  16.669 -1.8170  0.1642  0.2931
 3639TIP3    H232409   0.039   0.838  16.579 -0.6782  0.5090 -0.0366
 3640TIP3   OH232410   3.782   1.986   2.490 -0.1136  0.6854 -0.3450
 3640TIP3    H132411   3.825   1.908   2.525 -1.3390  0.6030  1.1054
 3640TIP3    H232412   3.849   2.055   2.494 -0.1599  0.6719  2.2615
 3641TIP3   OH232413   2.135   6.001   1.891 -0.2536  0.5922  0.3287
 3641TIP3    H132414   2.206   5.940   1.912 -0.0366  0.8461  0.3367
 3641TIP3    H232415   2.063   5.945   1.865  0.2932  0.3625 -0.7335
 3642TIP3   OH232416   4.876   2.749   1.869  0.0110  0.2993 -0.0621
 3642TIP3    H132417   4.899   2.658   1.853 -1.3779 -0.1246  0.2599
 3642TIP3    H232418   4.862   2.786   1.782 -0.6762 -0.1399 -0.1398
 3643TIP3   OH232419   0.563   3.229  11.970  0.0068  0.6986 -0.2119
 3643TIP3    H132420   0.560   3.158  11.906  1.9405  0.0503  0.3576
 3643TIP3    H232421   0.495   3.290  11.941 -0.5320 -0.5357 -1.7071
 3644TIP3   OH232422   1.474   3.354  17.059  0.2590  0.1133 -0.2023
 3644TIP3    H132423   1.407   3.391  17.117 -0.1895  0.3122 -0.8400
 3644TIP3    H232424   1.444   3.375  16.971  0.7300 -0.5355 -0.5259
 3645TIP3   OH232425   6.149   5.637  10.747 -0.6289 -0.2052  0.3663
 3645TIP3    H132426   6.233   5.593  10.735 -0.0795  1.2312 -1.5922
 3645TIP3    H232427   6.086   5.579  10.705 -0.0535  0.3344 -1.3334
 3646TIP3   OH232428   2.323   3.120  16.638  0.2027  0.3152  0.3125
 3646TIP3    H132429   2.362   3.206  16.653 -0.9563  0.7542  0.9006
 3646TIP3    H232430   2.236   3.125  16.677  0.3491 -1.3497  0.9538
 3647TIP3   OH232431   5.922   1.032  16.101  0.1819  0.0665 -0.1550
 3647TIP3    H132432   5.891   0.947  16.070 -0.1158 -0.5469  1.6884
 3647TIP3    H232433   5.889   1.095  16.037 -0.6778 -1.0790 -0.8676
 3648TIP3   OH232434   3.554   3.019  11.371  0.2825 -0.2067  0.6343
 3648TIP3    H132435   3.611   3.089  11.402 -0.3629  0.2893  0.7294
 3648TIP3    H232436   3.532   2.969  11.449 -0.5613  0.4625  0.8366
 3649TIP3   OH232437   3.475   0.066  12.676  0.7068  0.0784 -0.2164
 3649TIP3    H132438   3.555   0.015  12.671  0.5660 -0.4304  1.9750
 3649TIP3    H232439   3.417   0.015  12.732 -0.9861  0.6871 -1.3239
 3650TIP3   OH232440   3.853   1.053  10.680  0.3342 -0.3029  0.4325
 3650TIP3    H132441   3.858   0.979  10.619 -1.4123  0.0727 -0.2270
 3650TIP3    H232442   3.938   1.095  10.674  0.6726 -1.1043 -0.7056
 3651TIP3   OH232443   1.990   5.048  11.671 -0.0757 -0.2129  0.0365
 3651TIP3    H132444   1.966   5.041  11.763  2.8990  0.2093  0.9508
 3651TIP3    H232445   2.009   5.140  11.658  0.9080 -0.4853 -0.5840
 3652TIP3   OH232446   4.215   2.420   0.364  0.0435 -0.0114  0.3553
 3652TIP3    H132447   4.129   2.442   0.399 -0.0754 -0.3660  0.2898
 3652TIP3    H232448   4.275   2.478   0.411 -0.1717 -0.1326  0.7935
 3653TIP3   OH232449   3.458   0.346   0.588  0.0553 -0.1574  0.4092
 3653TIP3    H132450   3.524   0.317   0.651  0.6735  0.3600  0.0083
 3653TIP3    H232451   3.416   0.265   0.559 -0.4236 -0.3795  1.6763
 3654TIP3   OH232452   5.738   6.377  11.877 -0.3122 -0.5630  0.1215
 3654TIP3    H132453   5.790   6.336  11.946 -1.1842 -0.5521  0.8152
 3654TIP3    H232454   5.801   6.401  11.809  0.8406  1.0211  1.6694
 3655TIP3   OH232455   0.295   0.465  11.920  0.4447 -0.5991  0.3530
 3655TIP3    H132456   0.271   0.408  11.846 -0.8865  0.1028  0.2211
 3655TIP3    H232457   0.293   0.553  11.884 -0.7929 -0.1942  1.3370
 3656TIP3   OH232458   5.130   0.681  14.699  0.0971 -0.0210  0.0399
 3656TIP3    H132459   5.217   0.640  14.698  0.5616  0.8525  1.2754
 3656TIP3    H232460   5.146   0.770  14.730 -1.5553 -0.7668  3.5511
 3657TIP3   OH232461   0.201   3.201   6.186  0.1886  0.1640 -0.7328
 3657TIP3    H132462   0.278   3.150   6.162  1.3610 -0.1556  3.0391
 3657TIP3    H232463   0.172   3.162   6.269 -1.7929  2.6093 -0.1607
 3658TIP3   OH232464   5.194   4.868   2.641 -0.1268 -0.5623 -0.3418
 3658TIP3    H132465   5.253   4.814   2.695  1.3902 -0.6561 -2.0106
 3658TIP3    H232466   5.176   4.944   2.695 -0.8810 -1.8791  1.3727
 3659TIP3   OH232467   1.691   4.434   3.851  0.2405 -0.3407 -0.3319
 3659TIP3    H132468   1.619   4.430   3.787 -0.9620  2.0057  0.7492
 3659TIP3    H232469   1.648   4.460   3.933  2.1711 -0.1191  0.6561
 3660TIP3   OH232470   4.779   4.949   2.323 -0.2158 -0.0855  0.4390
 3660TIP3    H132471   4.798   5.002   2.401 -0.7450  1.5771 -0.4967
 3660TIP3    H232472   4.831   4.870   2.334 -0.1729  0.1747  2.4069
 3661TIP3   OH232473   3.785   5.460  13.194  0.1033  0.8115  0.2850
 3661TIP3    H132474   3.865   5.430  13.152 -0.6592  1.2333 -1.5785
 3661TIP3    H232475   3.749   5.381  13.234  1.6625  0.7154  1.5781
 3662TIP3   OH232476   6.329   5.540   3.029 -0.2884  0.2726  0.7351
 3662TIP3    H132477   6.417   5.549   2.995 -0.6535  0.4254 -0.1911
 3662TIP3    H232478   6.287   5.475   2.972 -1.2352  1.3129  0.2018
 3663TIP3   OH232479   3.777   0.490  13.236 -0.0314  0.1818 -0.3534
 3663TIP3    H132480   3.710   0.434  13.197  0.9748 -1.0875 -0.3430
 3663TIP3    H232481   3.738   0.577  13.237 -1.5384 -0.4510 -0.6656
 3664TIP3   OH232482   2.194   2.769   5.621  0.5333 -0.4557  0.5894
 3664TIP3    H132483   2.190   2.853   5.668  1.8515 -0.7717  1.3339
 3664TIP3    H232484   2.167   2.704   5.686  0.7029 -0.7218  0.3980
 3665TIP3   OH232485   2.001   6.092  13.656 -0.5157  0.5501 -0.4627
 3665TIP3    H132486   1.907   6.113  13.652 -0.7313 -0.4601 -0.8987
 3665TIP3    H232487   2.007   6.025  13.723  0.1586  1.8569  0.8446
 3666TIP3   OH232488   3.100   1.266   2.182  0.4551  0.3830  0.0874
 3666TIP3    H132489   3.098   1.337   2.245 -0.9427  1.5302 -1.1887
 3666TIP3    H232490   3.114   1.187   2.235  2.8345  1.6112  1.4654
 3667TIP3   OH232491   3.926   4.722  16.604 -0.0279 -0.1741  0.2887
 3667TIP3    H132492   3.979   4.750  16.679 -0.0842 -0.8873  0.6073
 3667TIP3    H232493   3.987   4.718  16.531  0.0570  0.3909  0.3227
 3668TIP3   OH232494   5.686   6.670  13.510  0.0421  0.2455  0.0812
 3668TIP3    H132495   5.776   6.699  13.497  0.0319  0.3548  0.2523
 3668TIP3    H232496   5.670   6.607  13.439 -0.0928  1.0063 -0.5822
 3669TIP3   OH232497   5.678   6.840  12.793  0.5647  0.1280 -0.0715
 3669TIP3    H132498   5.586   6.842  12.765  0.8826  0.3601 -1.1338
 3669TIP3    H232499   5.690   6.923  12.839  0.5388  0.6167 -0.9292
 3670TIP3   OH232500   6.148   5.995  14.898  0.1373  0.6097  0.3580
 3670TIP3    H132501   6.200   5.972  14.975 -0.0873 -0.6444  0.1610
 3670TIP3    H232502   6.187   5.944  14.827 -0.6154  0.5687 -0.0362
 3671TIP3   OH232503   0.341   6.592   5.660  0.8887  0.5891  0.2028
 3671TIP3    H132504   0.422   6.643   5.666  1.0386  0.3523  0.1994
 3671TIP3    H232505   0.367   6.510   5.619  0.2410  1.3823 -1.9026
 3672TIP3   OH232506   2.612   2.829   3.801  0.2126 -0.2909 -0.5565
 3672TIP3    H132507   2.642   2.919   3.787  0.6409 -0.2569  0.5082
 3672TIP3    H232508   2.692   2.779   3.813 -0.0801 -0.5379  0.4243
 3673TIP3   OH232509   3.140   6.142   2.741 -0.4385 -0.3980 -0.4134
 3673TIP3    H132510   3.183   6.062   2.770  0.3373 -0.2935 -1.2396
 3673TIP3    H232511   3.140   6.199   2.818 -1.5949 -1.4140  0.3793
 3674TIP3   OH232512   4.799   4.643   6.059 -0.3375 -0.2143  0.5098
 3674TIP3    H132513   4.777   4.729   6.023 -0.1244 -0.0823  0.6925
 3674TIP3    H232514   4.884   4.622   6.021 -0.0811 -0.0461  0.9794
 3675TIP3   OH232515   5.224   6.826   0.694  0.0120 -0.1549  0.5504
 3675TIP3    H132516   5.209   6.732   0.683 -2.3591  0.1121  0.8815
 3675TIP3    H232517   5.176   6.848   0.774  1.0883  1.2425  0.8541
 3676TIP3   OH232518   0.269   2.673  16.885  0.2535 -0.1298 -0.2708
 3676TIP3    H132519   0.233   2.701  16.801 -1.4171 -1.8065 -0.1709
 3676TIP3    H232520   0.356   2.639  16.864  0.1661  0.1857 -1.1800
 3677TIP3   OH232521   3.680   5.692   3.928 -0.0012 -0.0379 -0.0300
 3677TIP3    H132522   3.743   5.637   3.882 -0.9321 -0.4851 -0.8072
 3677TIP3    H232523   3.633   5.739   3.859 -0.1456  0.7068  0.5599
 3678TIP3   OH232524   4.093   1.039  10.876  0.3615 -0.0312  0.1086
 3678TIP3    H132525   4.170   1.072  10.921 -0.2491  1.0916  0.3478
 3678TIP3    H232526   4.102   1.071  10.786 -0.5365  1.3627  0.4879
 3679TIP3   OH232527   0.039   5.333  15.657  0.6585 -0.2667 -0.2277
 3679TIP3    H132528   0.005   5.268  15.595 -3.5322  0.7007  0.7950
 3679TIP3    H232529  -0.006   5.414  15.635  0.0058  0.4423  3.1672
 3680TIP3   OH232530   3.777   1.113  11.420  0.0544  0.2014 -0.0042
 3680TIP3    H132531   3.778   1.018  11.410 -0.2256  0.2147 -0.1516
 3680TIP3    H232532   3.690   1.140  11.390  0.2219  0.5314 -0.1916
 3681TIP3   OH232533   4.934   6.762  14.231  0.8107  0.0547 -0.1553
 3681TIP3    H132534   4.918   6.798  14.144  1.5337 -0.1584 -0.3799
 3681TIP3    H232535   4.987   6.684  14.216 -0.0125 -0.6395  0.3940
 3682TIP3   OH232536   2.200   4.691   3.303 -0.0568 -0.1495 -0.1765
 3682TIP3    H132537   2.193   4.752   3.230  1.2794  0.7725  0.4360
 3682TIP3    H232538   2.294   4.679   3.316 -0.2140  0.6056  2.0953
 3683TIP3   OH232539   6.269   5.818  12.090 -0.4182 -0.2168 -0.0936
 3683TIP3    H132540   6.347   5.873  12.080  0.1559 -0.9334  0.2800
 3683TIP3    H232541   6.304   5.734  12.119 -1.3108 -0.6605 -0.2852
 3684TIP3   OH232542   3.903   0.341  11.785  0.1293 -0.5493  1.0373
 3684TIP3    H132543   3.838   0.411  11.776  0.5907 -0.3909 -2.3218
 3684TIP3    H232544   3.855   0.261  11.765  0.4964 -0.6693  0.6129
 3685TIP3   OH232545   6.283   5.450  15.104  0.2671  0.3805 -0.9244
 3685TIP3    H132546   6.251   5.360  15.094 -1.3994  0.8552 -0.1006
 3685TIP3    H232547   6.375   5.440  15.127 -0.4514 -1.2606  1.6963
 3686TIP3   OH232548   2.952   2.431  11.687  0.3041 -0.3730  0.2866
 3686TIP3    H132549   2.889   2.369  11.651 -0.6728 -0.2559  1.7107
 3686TIP3    H232550   3.032   2.418  11.636 -0.4761 -1.4523 -0.6772
 3687TIP3   OH232551   3.315   6.444  11.190  0.0570 -0.9054  0.3866
 3687TIP3    H132552   3.261   6.507  11.237  0.7055 -0.2080  0.2212
 3687TIP3    H232553   3.402   6.454  11.227  0.4819 -0.6676 -0.6305
 3688TIP3   OH232554   2.101   5.712   3.666 -0.0712  1.0493  0.3208
 3688TIP3    H132555   2.041   5.640   3.685 -0.9388  1.1299 -1.8621
 3688TIP3    H232556   2.050   5.791   3.681 -0.0420  1.1387 -0.0300
 3689TIP3   OH232557   6.149   0.025   1.454  0.2390  0.2207  0.0139
 3689TIP3    H132558   6.152   0.064   1.541  1.4178  0.1119  0.0385
 3689TIP3    H232559   6.210   0.078   1.402 -1.0656  0.8101 -0.9831
 3690TIP3   OH232560   1.033   2.523  13.014  0.3869 -0.2632  0.2563
 3690TIP3    H132561   1.119   2.560  12.995  0.7126 -0.2803  1.5736
 3690TIP3    H232562   1.043   2.429  13.002  0.3164 -0.1882 -0.4077
 3691TIP3   OH232563   6.760   2.327  16.075  0.1852  0.8646  0.2797
 3691TIP3    H132564   6.732   2.236  16.084  3.0321 -0.1132  0.4597
 3691TIP3    H232565   6.714   2.373  16.145 -1.9453 -0.2204 -0.3270
 3692TIP3   OH232566   6.685   3.586   2.206 -0.0925  0.2080  0.3033
 3692TIP3    H132567   6.604   3.537   2.195  0.7944 -1.2775  0.1575
 3692TIP3    H232568   6.754   3.520   2.201  1.2227  1.5982 -1.0323
 3693TIP3   OH232569   6.026   4.757  16.701  0.4487 -0.0229 -0.0491
 3693TIP3    H132570   5.986   4.838  16.733  0.0434  0.9220 -2.6560
 3693TIP3    H232571   5.980   4.739  16.619  2.1448 -1.5986 -0.7161
 3694TIP3   OH232572   0.480   2.023  15.570  0.2441  0.3230 -0.2482
 3694TIP3    H132573   0.401   2.058  15.611  0.8041 -0.1851  1.3343
 3694TIP3    H232574   0.552   2.072  15.610  0.8744 -0.8424  0.0844
 3695TIP3   OH232575   4.423   1.378   6.726  0.6361 -0.5804 -0.5716
 3695TIP3    H132576   4.363   1.311   6.758 -1.0843  0.7706 -0.8101
 3695TIP3    H232577   4.500   1.330   6.697 -0.3142 -2.3862 -0.2351
 3696TIP3   OH232578   2.146   4.412  16.456  0.7858  0.4453 -0.1338
 3696TIP3    H132579   2.170   4.323  16.480 -0.2972  0.5241  1.4015
 3696TIP3    H232580   2.142   4.459  16.539  0.6870  1.7570 -0.8528
 3697TIP3   OH232581   4.872   4.247   2.523  0.1079 -0.1789  1.1721
 3697TIP3    H132582   4.883   4.178   2.588  1.0976  0.1020  1.3212
 3697TIP3    H232583   4.947   4.238   2.464  0.1377  0.6231  1.0681
 3698TIP3   OH232584   6.360   5.350   5.757  0.4476 -0.2049 -0.1819
 3698TIP3    H132585   6.445   5.388   5.778  0.5612 -2.0276  3.3156
 3698TIP3    H232586   6.380   5.263   5.723  0.0960 -1.6151  2.9189
 3699TIP3   OH232587   3.696   6.078   3.658 -0.4028 -0.0692 -0.1234
 3699TIP3    H132588   3.652   6.160   3.682 -0.6953 -0.1439 -0.3965
 3699TIP3    H232589   3.767   6.069   3.722 -0.1591  0.5697 -0.2888
 3700TIP3   OH232590   3.331   5.501   3.674 -0.2525 -0.2133 -0.1017
 3700TIP3    H132591   3.268   5.557   3.629  0.3904  0.6071 -0.0078
 3700TIP3    H232592   3.286   5.475   3.755 -0.2901  0.8052  0.2191
 3701TIP3   OH232593   4.868   3.815  10.829  0.3417  0.4547  0.4404
 3701TIP3    H132594   4.889   3.833  10.737  2.0673 -1.9647  0.2728
 3701TIP3    H232595   4.773   3.824  10.835  0.3676  2.4134 -1.1184
 3702TIP3   OH232596   4.217   3.916  16.892 -0.5253 -0.1007  0.2820
 3702TIP3    H132597   4.222   4.007  16.866 -2.2857 -0.3859 -1.2101
 3702TIP3    H232598   4.258   3.914  16.979 -0.0921  2.0021  0.1772
 3703TIP3   OH232599   1.616   6.076  16.628 -0.0039  0.6238 -0.2627
 3703TIP3    H132600   1.545   6.027  16.670  0.3726 -0.0531 -0.4074
 3703TIP3    H232601   1.683   6.010  16.609  0.1466  1.0424 -1.2344
 3704TIP3   OH232602   0.767   0.842  15.448 -0.3535  0.1574  0.2036
 3704TIP3    H132603   0.698   0.908  15.459 -0.5325 -0.3064  2.2948
 3704TIP3    H232604   0.768   0.794  15.531 -0.3249 -2.5944 -1.2726
 3705TIP3   OH232605   4.573   3.521  14.001 -0.8196 -0.8993 -0.6035
 3705TIP3    H132606   4.631   3.507  14.076 -0.8771  1.5562  0.0161
 3705TIP3    H232607   4.485   3.503  14.035 -0.7432 -0.9013 -0.4051
 3706TIP3   OH232608   6.410   4.436   3.241  0.2643  0.0453  0.4657
 3706TIP3    H132609   6.343   4.497   3.271 -0.7862 -0.0635 -1.5031
 3706TIP3    H232610   6.379   4.350   3.268 -0.1791  0.0327 -0.0877
 3707TIP3   OH232611   3.225   5.855   3.536  0.1317 -0.2753 -0.0079
 3707TIP3    H132612   3.308   5.836   3.492 -0.5254  0.1122 -1.4591
 3707TIP3    H232613   3.160   5.804   3.488 -0.4895 -0.5160  1.0719
 3708TIP3   OH232614   3.083   5.400  10.846  0.3737 -0.0249 -0.2561
 3708TIP3    H132615   3.014   5.423  10.909  0.2623 -1.9581  0.3794
 3708TIP3    H232616   3.099   5.307  10.861  0.0877 -0.6757 -3.3248
 3709TIP3   OH232617   4.715   1.062  15.002  0.1248  0.0040 -0.1767
 3709TIP3    H132618   4.662   1.135  15.035 -2.6013 -2.0375  0.2899
 3709TIP3    H232619   4.735   1.087  14.911  0.0918  1.7045  0.2385
 3710TIP3   OH232620   6.192   0.581   4.268 -0.0382  0.1349 -0.1526
 3710TIP3    H132621   6.247   0.640   4.215  2.2610  0.7441  2.6822
 3710TIP3    H232622   6.153   0.638   4.335 -0.8789 -0.9915  0.3499
 3711TIP3   OH232623   1.803   6.669  11.028 -0.0859 -0.3171  0.0730
 3711TIP3    H132624   1.832   6.588  10.987 -0.1985 -1.5386  2.2482
 3711TIP3    H232625   1.720   6.691  10.985  1.3358  0.3154 -2.5457
 3712TIP3   OH232626   0.349   4.636   4.724 -0.8362  0.5297 -0.3380
 3712TIP3    H132627   0.418   4.665   4.783 -1.6822 -0.5489  1.2793
 3712TIP3    H232628   0.390   4.569   4.669 -0.1229  1.2984 -0.7583
 3713TIP3   OH232629   4.547   1.736   3.077 -0.1390  0.0960  0.5884
 3713TIP3    H132630   4.641   1.725   3.062 -0.0928  0.9519  0.1708
 3713TIP3    H232631   4.529   1.826   3.051 -1.6198 -0.8952 -2.2550
 3714TIP3   OH232632   4.852   2.942   3.353 -0.3157 -0.3770 -0.4274
 3714TIP3    H132633   4.819   2.852   3.349  0.6200 -1.0156  2.8412
 3714TIP3    H232634   4.776   2.994   3.377 -0.5598 -0.5128 -0.8866
 3715TIP3   OH232635   2.558   6.093  15.491  0.2073 -0.1512  0.2240
 3715TIP3    H132636   2.531   6.015  15.441  0.1622 -0.3885  0.6119
 3715TIP3    H232637   2.642   6.068  15.530 -0.8476 -0.8476  2.1767
 3716TIP3   OH232638   6.254   0.485   4.647  0.1910 -0.0215 -0.1758
 3716TIP3    H132639   6.179   0.450   4.695 -0.1942 -0.6227 -1.1692
 3716TIP3    H232640   6.320   0.502   4.714 -0.8588  0.6058  0.7233
 3717TIP3   OH232641   6.128   1.446  13.980  0.4770 -0.1198  0.3361
 3717TIP3    H132642   6.163   1.516  14.036 -0.2991  0.6609 -0.1164
 3717TIP3    H232643   6.192   1.437  13.910  2.3448 -2.3106  2.1977
 3718TIP3   OH232644   1.618   1.840  12.479 -0.2030 -0.1744  0.0807
 3718TIP3    H132645   1.660   1.914  12.435 -2.1342 -0.4079 -2.3575
 3718TIP3    H232646   1.584   1.876  12.561  1.1442  0.9660  0.1697
 3719TIP3   OH232647   3.537   2.880   2.226  0.6127 -0.3100 -0.2527
 3719TIP3    H132648   3.442   2.880   2.210  0.5472  1.9275 -0.1363
 3719TIP3    H232649   3.552   2.802   2.279 -1.2284 -0.5140  0.0511
 3720TIP3   OH232650   5.180   5.631  11.030  0.0529 -0.0070  0.0417
 3720TIP3    H132651   5.258   5.614  10.977  1.5747  0.9310  1.8323
 3720TIP3    H232652   5.214   5.643  11.119 -2.1444  0.5665  0.8710
 3721TIP3   OH232653   3.440   1.174   5.056 -0.1586 -0.3139 -0.3008
 3721TIP3    H132654   3.437   1.251   5.000  0.9676  0.5041  0.7041
 3721TIP3    H232655   3.512   1.191   5.116 -1.0317 -1.3536  1.1120
 3722TIP3   OH232656   3.376   2.042  16.708 -0.8580 -0.0467  0.1112
 3722TIP3    H132657   3.471   2.054  16.709 -0.7922 -0.1236 -1.8891
 3722TIP3    H232658   3.362   1.962  16.657 -1.9763 -0.4702  1.0439
 3723TIP3   OH232659   1.314   5.341  17.088  0.0920  0.3793  0.0191
 3723TIP3    H132660   1.385   5.405  17.085  1.3189 -0.7139  2.8542
 3723TIP3    H232661   1.356   5.257  17.068 -0.7369 -0.0516  0.0435
 3724TIP3   OH232662   4.608   2.984  12.036  0.3870 -0.0283  0.1300
 3724TIP3    H132663   4.526   2.951  12.000  1.1195 -1.7879 -0.0065
 3724TIP3    H232664   4.662   3.002  11.959 -0.0367  1.7178  0.1904
 3725TIP3   OH232665   0.698   6.112   4.785 -0.3750 -0.3517  0.3023
 3725TIP3    H132666   0.695   6.027   4.827 -1.4181  0.0620  1.0958
 3725TIP3    H232667   0.729   6.094   4.696 -2.5033 -1.8541 -0.2166
 3726TIP3   OH232668   5.385   0.068   1.298 -0.3987  0.2672  0.5821
 3726TIP3    H132669   5.465   0.120   1.302 -0.7507  0.9886 -0.9420
 3726TIP3    H232670   5.413  -0.018   1.267 -0.1714  0.4477  0.2813
 3727TIP3   OH232671   3.533   6.166   2.105  0.0840  0.0728 -0.2775
 3727TIP3    H132672   3.524   6.099   2.037 -0.1212 -0.6324  0.4284
 3727TIP3    H232673   3.448   6.167   2.149 -0.2702  1.5612 -0.9513
 3728TIP3   OH232674   0.350   5.005   0.174 -0.3800  0.0611 -0.4555
 3728TIP3    H132675   0.379   5.072   0.113 -0.4147  0.8343  0.3625
 3728TIP3    H232676   0.268   5.039   0.210  0.2406  0.1791  0.8980
 3729TIP3   OH232677   1.588   3.686   3.487 -0.6699 -0.3799 -0.0270
 3729TIP3    H132678   1.493   3.679   3.476 -0.8195  1.0571  0.1799
 3729TIP3    H232679   1.607   3.779   3.475  0.9374 -0.8442 -1.6684
 3730TIP3   OH232680   1.217   6.004  13.311 -0.1899  0.5428  0.1129
 3730TIP3    H132681   1.161   6.039  13.380  0.0073 -1.0682  1.1379
 3730TIP3    H232682   1.166   5.933  13.272 -0.8184  2.2119 -2.3209
 3731TIP3   OH232683   3.641   5.543   1.155 -0.5485  0.1247 -0.1945
 3731TIP3    H132684   3.723   5.544   1.106  0.3073  3.7914  0.9252
 3731TIP3    H232685   3.668   5.561   1.246 -2.4330 -1.6376  0.7958
 3732TIP3   OH232686   6.311   6.321   3.877 -0.2641  0.2892 -0.0288
 3732TIP3    H132687   6.303   6.342   3.784 -0.2527  1.8023  0.2803
 3732TIP3    H232688   6.405   6.329   3.895 -0.2199 -0.3395  0.0560
 3733TIP3   OH232689   2.152   0.302  15.414 -0.0479 -0.2592  0.4032
 3733TIP3    H132690   2.153   0.297  15.318 -1.0535  0.0433  0.3691
 3733TIP3    H232691   2.191   0.219  15.442  0.5094 -0.2387 -0.2630
 3734TIP3   OH232692   5.511   6.275  16.448 -0.3904  0.3407 -0.4229
 3734TIP3    H132693   5.423   6.247  16.421  0.3359 -0.7917 -1.7393
 3734TIP3    H232694   5.544   6.326  16.374  1.1283 -1.6818 -1.2207
 3735TIP3   OH232695   2.228   5.757  11.792 -0.4606  0.3627  0.0651
 3735TIP3    H132696   2.195   5.668  11.804 -0.5663  0.1738 -1.3550
 3735TIP3    H232697   2.320   5.746  11.771 -0.9876  0.3089 -2.6906
 3736TIP3   OH232698   2.288   0.176   2.637 -0.1152  0.8993  0.1864
 3736TIP3    H132699   2.216   0.214   2.587  0.7662  0.0608 -1.7802
 3736TIP3    H232700   2.277   0.081   2.628  0.8410  0.7523  0.4237
 3737TIP3   OH232701   4.388   0.553   0.876 -0.0895 -0.6851  0.3254
 3737TIP3    H132702   4.466   0.527   0.925  2.3756  1.4409 -2.1395
 3737TIP3    H232703   4.384   0.491   0.803 -0.0091 -0.1387 -0.1517
 3738TIP3   OH232704   0.308   0.450  15.275 -0.3603  0.4281 -0.5781
 3738TIP3    H132705   0.291   0.524  15.333  1.2555  1.5703 -1.4949
 3738TIP3    H232706   0.288   0.373  15.329  0.8047  1.4349  1.4208
 3739TIP3   OH232707   2.191   6.661   5.603  0.8122  0.0593 -0.1420
 3739TIP3    H132708   2.260   6.724   5.627 -0.4806  2.5258 -2.3566
 3739TIP3    H232709   2.223   6.621   5.523  1.6468 -2.3126  1.2822
 3740TIP3   OH232710   3.148   5.546  10.420 -0.4437  0.1715  0.1852
 3740TIP3    H132711   3.199   5.475  10.380 -1.3167 -0.6655  0.5306
 3740TIP3    H232712   3.151   5.616  10.355  1.5308  0.3423  0.3857
 3741TIP3   OH232713   3.276   6.473   5.293  0.0032  0.9751 -0.4483
 3741TIP3    H132714   3.367   6.456   5.269 -0.2530  0.7043 -1.2597
 3741TIP3    H232715   3.229   6.393   5.267 -0.1297  0.1760  2.0186
 3742TIP3   OH232716   2.841   6.321  12.116 -0.3350 -0.4098 -0.1598
 3742TIP3    H132717   2.759   6.314  12.067 -0.2499  0.8250 -0.5133
 3742TIP3    H232718   2.846   6.239  12.166 -1.7934 -0.4990 -0.1033
 3743TIP3   OH232719   5.375   2.196  14.459  0.3220 -0.2939  0.2426
 3743TIP3    H132720   5.420   2.115  14.438  0.7906  0.4058 -1.6815
 3743TIP3    H232721   5.358   2.191  14.553  1.1311 -2.1966  0.3257
 3744TIP3   OH232722   6.408   0.706  11.186  0.1004 -0.7339 -1.0556
 3744TIP3    H132723   6.454   0.691  11.103  3.4058 -0.9469  0.6281
 3744TIP3    H232724   6.407   0.620  11.229 -0.5594 -0.4144 -0.4104
 3745TIP3   OH232725   0.188   4.510   3.591  0.4479 -0.2314  0.4952
 3745TIP3    H132726   0.172   4.590   3.642 -1.5487 -0.9778  1.1329
 3745TIP3    H232727   0.214   4.445   3.656 -3.0723 -1.4633  0.8825
 3746TIP3   OH232728   0.011   1.065   3.466  0.1619 -0.3827  0.1532
 3746TIP3    H132729   0.059   0.982   3.462  1.2207  0.2434 -0.4527
 3746TIP3    H232730  -0.029   1.065   3.554  1.1889 -0.9679  0.6391
 3747TIP3   OH232731   0.815   6.129   0.404 -0.0955 -0.4450  0.4497
 3747TIP3    H132732   0.798   6.164   0.491  2.8501  2.3438  0.1386
 3747TIP3    H232733   0.795   6.202   0.345  0.1610 -1.4730 -0.9658
 3748TIP3   OH232734   5.078   0.179  13.358  0.3154  0.4844  0.1180
 3748TIP3    H132735   5.142   0.206  13.292  0.5469 -0.5424 -0.1008
 3748TIP3    H232736   4.996   0.219  13.330  0.2825 -0.4035 -1.1511
 3749TIP3   OH232737   2.293   4.793  14.498  0.1493  0.5252 -0.2536
 3749TIP3    H132738   2.213   4.768  14.545 -0.2957  0.0706 -1.2346
 3749TIP3    H232739   2.330   4.864  14.551 -0.6551  0.4308  0.4608
 3750TIP3   OH232740   0.136   5.803  14.603 -0.3309 -0.3144  0.0995
 3750TIP3    H132741   0.160   5.889  14.569  0.9554  0.0897  1.8698
 3750TIP3    H232742   0.085   5.822  14.682  1.8782 -1.0944  1.7995
 3751TIP3   OH232743   6.132   5.369  13.605 -0.1940 -0.1089  0.1901
 3751TIP3    H132744   6.128   5.364  13.700 -1.9886  1.3851  0.2479
 3751TIP3    H232745   6.057   5.422  13.580  1.2249  1.0494 -1.9501
 3752TIP3   OH232746   5.988   1.143   0.280  0.1404  0.0267  0.0749
 3752TIP3    H132747   5.910   1.194   0.301  1.0908  0.7861  2.1084
 3752TIP3    H232748   6.036   1.197   0.217  0.2085  0.7938  0.7531
 3753TIP3   OH232749   1.475   0.444   3.482  0.0609 -0.1620 -0.4550
 3753TIP3    H132750   1.478   0.536   3.454  0.5131  0.1372  0.5179
 3753TIP3    H232751   1.559   0.408   3.454 -0.0325 -0.2272 -0.6544
 3754TIP3   OH232752   4.421   3.606   1.638 -0.7950  0.3439  0.4443
 3754TIP3    H132753   4.375   3.685   1.612 -0.4842  0.3389 -0.1196
 3754TIP3    H232754   4.488   3.637   1.700 -0.5660  0.5411  0.0984
 3755TIP3   OH232755   3.040   0.873  15.624 -0.3475  0.3304 -0.1305
 3755TIP3    H132756   3.076   0.786  15.608  0.7309  0.7624 -0.1115
 3755TIP3    H232757   3.085   0.930  15.562 -1.4982  0.7889 -0.5858
 3756TIP3   OH232758   0.497   2.843   2.790  0.6571 -0.2190 -0.0172
 3756TIP3    H132759   0.566   2.814   2.849  0.1748 -0.4482  0.4500
 3756TIP3    H232760   0.418   2.846   2.845  0.4257  0.6617 -0.3892
 3757TIP3   OH232761   4.796   3.795   2.576  0.4466  0.8217  0.5573
 3757TIP3    H132762   4.706   3.815   2.549  0.4977 -0.9585 -1.1375
 3757TIP3    H232763   4.822   3.869   2.631 -1.1729  2.6009 -0.9629
 3758TIP3   OH232764   3.980   4.016   2.213  0.5389 -0.2938 -0.2019
 3758TIP3    H132765   3.940   3.929   2.219 -1.3314  0.6180  2.1501
 3758TIP3    H232766   4.051   4.014   2.277  0.0959  0.0600  0.3156
 3759TIP3   OH232767   4.615   3.184  12.368 -0.1995 -0.7938  0.2034
 3759TIP3    H132768   4.595   3.219  12.281  1.5942  0.7539  0.3253
 3759TIP3    H232769   4.703   3.148  12.359 -0.1934 -1.0660  1.2533
 3760TIP3   OH232770   0.914   0.209   5.094 -0.5120  0.2943 -0.1960
 3760TIP3    H132771   0.975   0.172   5.030 -0.1188  0.3130  0.1657
 3760TIP3    H232772   0.965   0.274   5.141 -1.1024  1.0596 -0.5849
 3761TIP3   OH232773   4.379   0.565  15.857  0.0674 -0.2709 -0.0566
 3761TIP3    H132774   4.357   0.523  15.940  0.7753 -1.8720 -0.6366
 3761TIP3    H232775   4.443   0.632  15.880  0.7534 -1.1401  0.6501
 3762TIP3   OH232776   0.877   6.106   2.373 -0.2703 -0.3833 -0.6755
 3762TIP3    H132777   0.786   6.076   2.362 -0.0962 -0.3649 -2.3444
 3762TIP3    H232778   0.916   6.042   2.433 -2.1474  1.2687  2.5717
 3763TIP3   OH232779   2.287   4.409   6.088 -0.4017 -0.1066  0.2401
 3763TIP3    H132780   2.307   4.377   6.176 -1.5801 -1.1647  0.1645
 3763TIP3    H232781   2.201   4.450   6.096 -0.7801 -0.7150 -0.5050
 3764TIP3   OH232782   6.680   6.480   1.446  0.5859 -0.0840  0.0681
 3764TIP3    H132783   6.700   6.464   1.538 -0.5143  3.2695  1.0090
 3764TIP3    H232784   6.592   6.446   1.433  1.0067 -1.2117 -0.0243
 3765TIP3   OH232785   2.674   0.161   2.095  0.1784 -0.1237 -0.2970
 3765TIP3    H132786   2.714   0.215   2.163 -0.6037 -0.3121  0.3287
 3765TIP3    H232787   2.586   0.197   2.084 -1.5135 -2.9552  2.2370
 3766TIP3   OH232788   3.394   4.561  14.734 -0.1374  0.0396 -0.1779
 3766TIP3    H132789   3.431   4.611  14.661  0.7127  1.3381  1.0750
 3766TIP3    H232790   3.316   4.520  14.698  1.9283 -2.0148 -2.6835
 3767TIP3   OH232791   1.420   5.455  15.157  0.4739  0.5871 -0.6886
 3767TIP3    H132792   1.439   5.499  15.074 -0.3874  2.4718  0.0349
 3767TIP3    H232793   1.361   5.516  15.202  0.1058 -0.8648  0.8710
 3768TIP3   OH232794   5.997   3.018  15.325 -0.0953  0.7244 -0.8253
 3768TIP3    H132795   5.985   2.937  15.275  0.5843 -0.7733  1.2890
 3768TIP3    H232796   6.039   3.078  15.264  2.2316 -1.5529 -1.6232
 3769TIP3   OH232797   4.665   0.428  16.353  0.5985 -0.7111 -0.2053
 3769TIP3    H132798   4.684   0.504  16.409 -0.1496 -0.1259 -0.7374
 3769TIP3    H232799   4.690   0.456  16.265 -1.4459 -0.3769 -0.7163
 3770TIP3   OH232800   3.882   6.476   5.508 -0.2769 -0.1836  0.5016
 3770TIP3    H132801   3.965   6.522   5.497  0.2826 -1.3403 -0.5029
 3770TIP3    H232802   3.891   6.429   5.591  0.0551 -0.2281  0.4427
 3771TIP3   OH232803   4.882   6.104   1.881  0.9554  0.2080 -0.1384
 3771TIP3    H132804   4.918   6.040   1.942  2.3022  1.2079  0.1464
 3771TIP3    H232805   4.792   6.117   1.911  1.2894 -0.0606  1.0190
 3772TIP3   OH232806   2.350   6.177   0.019  0.5174 -0.4432 -0.1843
 3772TIP3    H132807   2.312   6.091  -0.002  3.0900 -1.7248 -0.0562
 3772TIP3    H232808   2.290   6.214   0.083 -0.3891 -2.4156  0.2098
 3773TIP3   OH232809   1.809   2.334  16.248 -0.3701  0.0262 -0.8218
 3773TIP3    H132810   1.875   2.313  16.314 -1.1562  0.0155 -0.0222
 3773TIP3    H232811   1.746   2.263  16.254  0.4538 -0.9322 -2.8526
 3774TIP3   OH232812   0.268   1.180  16.831  0.0129  0.2347  0.3347
 3774TIP3    H132813   0.181   1.156  16.801  0.1956  0.8925 -0.7885
 3774TIP3    H232814   0.327   1.118  16.787  0.1307 -0.1564  1.0225
 3775TIP3   OH232815   0.201   6.510  15.876 -0.5175  1.0259 -0.1266
 3775TIP3    H132816   0.124   6.468  15.913  1.1568 -1.9959  0.2344
 3775TIP3    H232817   0.237   6.563  15.947  0.1983 -1.1998  1.2771
 3776TIP3   OH232818   3.524   5.478  12.363 -0.1221  0.0295  0.6252
 3776TIP3    H132819   3.440   5.519  12.342  0.9625  1.3332 -1.5707
 3776TIP3    H232820   3.540   5.417  12.291 -0.2340 -2.0171  2.2542
 3777TIP3   OH232821   4.269   3.871  13.140  0.3513 -0.1561  0.2200
 3777TIP3    H132822   4.213   3.803  13.177 -2.0154  1.4249 -0.2096
 3777TIP3    H232823   4.285   3.932  13.212  1.3726 -0.4688  0.2776
 3778TIP3   OH232824   2.195   0.423  17.145 -0.1619 -0.0263 -0.0594
 3778TIP3    H132825   2.163   0.487  17.209  4.0900  1.2835  1.0716
 3778TIP3    H232826   2.144   0.344  17.162 -1.3759  1.2236  2.7561
 3779TIP3   OH232827   3.595   5.558   3.520 -0.2139 -0.0180  0.2081
 3779TIP3    H132828   3.508   5.538   3.556 -1.3038  1.4563 -1.4147
 3779TIP3    H232829   3.611   5.486   3.458 -0.1942 -0.3653  0.6081
 3780TIP3   OH232830   4.346   0.109  11.014  0.1916 -0.3466 -0.4652
 3780TIP3    H132831   4.260   0.104  10.973  0.4386 -0.2059 -1.0003
 3780TIP3    H232832   4.395   0.171  10.960 -0.2496  1.8016  1.4150
 3781TIP3   OH232833   5.285   4.140  14.140  0.1214  0.3168 -0.1671
 3781TIP3    H132834   5.355   4.126  14.204 -0.0843 -0.5742 -0.1221
 3781TIP3    H232835   5.319   4.207  14.081  0.8252  0.2351  0.1339
 3782TIP3   OH232836   0.819   4.485  13.006 -0.1619 -0.1714 -0.0057
 3782TIP3    H132837   0.789   4.529  13.086  1.1663  0.5901  0.1072
 3782TIP3    H232838   0.803   4.548  12.936  1.0820  0.2425  0.0536
 3783TIP3   OH232839   5.296   5.139   3.517 -0.1614 -0.3113  0.1857
 3783TIP3    H132840   5.313   5.233   3.511 -0.7765 -0.1639  0.6441
 3783TIP3    H232841   5.340   5.102   3.441  3.1536 -0.1258  1.8375
 3784TIP3   OH232842   2.508   2.287   2.149  0.1802 -1.0350 -0.4567
 3784TIP3    H132843   2.599   2.315   2.136 -0.3788  0.1279 -2.1488
 3784TIP3    H232844   2.491   2.304   2.242  0.4370  2.8592 -0.9291
 3785TIP3   OH232845   5.223   5.913  12.964  0.1095  0.4973  0.2632
 3785TIP3    H132846   5.192   5.998  12.997  0.6522  0.2458  1.4867
 3785TIP3    H232847   5.143   5.864  12.944 -0.2490  0.7303  1.0710
 3786TIP3   OH232848   3.908   0.609   0.343  0.3105 -0.5507  0.2592
 3786TIP3    H132849   3.982   0.594   0.402  1.0177 -2.0512 -0.9319
 3786TIP3    H232850   3.866   0.523   0.335 -0.9666  0.0618  0.1275
 3787TIP3   OH232851   2.085   2.430   3.905  0.0157  0.3899 -0.0263
 3787TIP3    H132852   2.175   2.448   3.932 -0.1617  2.0906 -0.4311
 3787TIP3    H232853   2.036   2.425   3.988  0.6362 -1.8989  0.2863
 3788TIP3   OH232854   2.859   1.439  16.380 -0.5236 -0.2558 -0.1145
 3788TIP3    H132855   2.944   1.472  16.350 -0.4027 -1.0006 -0.6027
 3788TIP3    H232856   2.869   1.344  16.383 -0.8515 -0.2608  1.3494
 3789TIP3   OH232857   0.435   5.950  15.393  0.2603  0.3558  0.1207
 3789TIP3    H132858   0.408   5.866  15.430 -2.4621 -0.0005 -2.2677
 3789TIP3    H232859   0.423   5.939  15.298 -0.7052  3.5442 -0.2436
 3790TIP3   OH232860   4.489   3.718   0.438 -0.2532  0.0845 -0.7132
 3790TIP3    H132861   4.539   3.664   0.499 -0.5891 -0.2922 -0.7601
 3790TIP3    H232862   4.554   3.770   0.391  0.0293  0.1459 -0.2499
 3791TIP3   OH232863   3.682   2.687   4.960 -0.6319  0.6160  0.0944
 3791TIP3    H132864   3.589   2.683   4.984 -0.6790  0.2890 -0.1402
 3791TIP3    H232865   3.691   2.770   4.912 -1.1076 -0.0184 -1.1395
 3792TIP3   OH232866   1.808   1.518   6.079  0.1818 -0.6230  0.0878
 3792TIP3    H132867   1.804   1.439   6.132 -0.7046 -1.0253 -0.5564
 3792TIP3    H232868   1.786   1.589   6.139  2.2090 -0.6763  0.9795
 3793TIP3   OH232869   5.296   6.600   2.283 -0.0156 -1.0322 -0.1712
 3793TIP3    H132870   5.320   6.686   2.249 -3.1217  0.2496  0.6217
 3793TIP3    H232871   5.298   6.610   2.378 -2.8402 -0.9620 -0.0339
 3794TIP3   OH232872   1.547   0.137   2.229  0.0114  0.3871 -0.0288
 3794TIP3    H132873   1.636   0.146   2.265  0.1964  3.1472 -0.9315
 3794TIP3    H232874   1.550   0.056   2.178  1.8103  0.0677  0.5177
 3795TIP3   OH232875   2.359   5.190  15.107 -0.1375  0.1522  0.5430
 3795TIP3    H132876   2.409   5.169  15.028 -1.2211 -1.8435  0.3405
 3795TIP3    H232877   2.399   5.137  15.176 -1.4136 -0.8645  0.5431
 3796TIP3   OH232878   3.373   0.997  15.759 -0.2835 -0.2268  0.6210
 3796TIP3    H132879   3.439   0.941  15.799  0.0155 -0.3269 -0.0038
 3796TIP3    H232880   3.400   1.086  15.782  0.1957 -0.2562  0.1780
 3797TIP3   OH232881   4.207   1.908   0.044 -0.0115  0.4390  0.2413
 3797TIP3    H132882   4.296   1.942   0.053  0.3771 -0.8611  1.7913
 3797TIP3    H232883   4.177   1.940  -0.042  2.0050  0.7288 -0.3956
 3798TIP3   OH232884   6.428   3.594   5.091 -0.1877 -0.1539  0.3645
 3798TIP3    H132885   6.468   3.681   5.089 -0.4853 -0.0284 -0.4252
 3798TIP3    H232886   6.424   3.572   5.184 -1.7718  1.4544  0.7422
 3799TIP3   OH232887   1.320   6.725   3.237 -0.4926  0.2558  0.3679
 3799TIP3    H132888   1.361   6.768   3.162  0.8166  0.3097  1.0884
 3799TIP3    H232889   1.301   6.797   3.298 -0.7153  0.1108  0.4702
 3800TIP3   OH232890   1.756   3.253  17.133 -0.5450 -0.7956  0.7690
 3800TIP3    H132891   1.732   3.161  17.121 -2.1399 -0.3725  0.5322
 3800TIP3    H232892   1.713   3.299  17.061 -1.7991  0.4397  2.2399
 3801TIP3   OH232893   0.225   6.724   0.306  0.3658  0.0545  0.1533
 3801TIP3    H132894   0.182   6.727   0.391 -1.5178  0.5612 -0.7544
 3801TIP3    H232895   0.171   6.781   0.250  2.3778  0.9306 -1.0210
 3802TIP3   OH232896   2.041   6.053   2.259  0.6469 -0.4618 -0.0147
 3802TIP3    H132897   1.951   6.019   2.258  0.2956  0.3371  1.5918
 3802TIP3    H232898   2.045   6.114   2.186 -0.3256 -0.0109  0.2965
 3803TIP3   OH232899   2.656   1.769  16.198 -0.3566  0.5850 -0.4593
 3803TIP3    H132900   2.688   1.738  16.283 -1.3208  0.6730 -0.0538
 3803TIP3    H232901   2.679   1.862  16.197  1.5728  0.1448 -1.2217
 3804TIP3   OH232902   3.629   3.108   4.049  1.0954 -0.0108  0.4526
 3804TIP3    H132903   3.536   3.093   4.032  0.9242  0.4892  0.9238
 3804TIP3    H232904   3.665   3.139   3.966  0.4583  1.5456  0.7307
 3805TIP3   OH232905   2.783   1.190   1.729  0.5068  0.3396 -0.8709
 3805TIP3    H132906   2.784   1.204   1.635  0.3982  0.3585 -0.8689
 3805TIP3    H232907   2.832   1.264   1.765 -1.1465  1.4382 -0.7626
 3806TIP3   OH232908   4.850   2.823   1.613  0.3187  0.4412 -0.9522
 3806TIP3    H132909   4.776   2.840   1.555  0.4942  0.5340 -1.1533
 3806TIP3    H232910   4.927   2.852   1.562  0.5382 -0.1009 -0.9338
 3807TIP3   OH232911   4.350   6.173   0.322  0.0840 -0.0795  0.6039
 3807TIP3    H132912   4.298   6.251   0.340 -0.3114 -0.2449  0.2018
 3807TIP3    H232913   4.364   6.133   0.408  2.1869  1.5958  1.1302
 3808TIP3   OH232914   0.595   3.470  11.138  0.2470  0.4973 -0.5418
 3808TIP3    H132915   0.575   3.470  11.045 -0.3580  0.2232 -0.4204
 3808TIP3    H232916   0.509   3.464  11.181  0.5214  0.5635  0.0271
 3809TIP3   OH232917   1.835   1.621  14.182  0.0422 -0.7654  0.2700
 3809TIP3    H132918   1.833   1.578  14.096 -0.1199 -0.1499 -0.0441
 3809TIP3    H232919   1.892   1.697  14.168  0.1827 -0.7801  0.7644
 3810TIP3   OH232920   0.161   2.838  16.674  0.2942  0.1194  0.4214
 3810TIP3    H132921   0.143   2.876  16.588 -2.3601 -2.3572 -0.2993
 3810TIP3    H232922   0.088   2.868  16.729  1.1869  0.5276  1.4050
 3811TIP3   OH232923   0.183   3.948  13.215  0.0829 -0.3585  0.3214
 3811TIP3    H132924   0.230   3.875  13.174 -1.2158 -0.7847 -0.4950
 3811TIP3    H232925   0.175   3.924  13.307 -1.3666 -1.8604 -0.1532
 3812TIP3   OH232926   3.189   1.591   5.162 -0.2776 -0.0043  0.3193
 3812TIP3    H132927   3.197   1.668   5.218  1.8029 -0.0708  0.2235
 3812TIP3    H232928   3.145   1.622   5.083  0.4861  1.0934  0.2998
 3813TIP3   OH232929   6.097   2.282  12.670 -0.5153  0.1302 -0.3370
 3813TIP3    H132930   6.105   2.332  12.589  0.5693  1.4589  0.5394
 3813TIP3    H232931   6.126   2.342  12.738 -3.3608 -0.2271  1.3365
 3814TIP3   OH232932   5.366   1.443  11.163  0.0334 -0.6181 -0.3659
 3814TIP3    H132933   5.357   1.525  11.115  1.1947 -1.4263 -2.0572
 3814TIP3    H232934   5.453   1.448  11.204 -0.0407 -0.8627 -0.1675
 3815TIP3   OH232935   3.454   1.469   3.064 -0.0336 -0.7877  1.7382
 3815TIP3    H132936   3.391   1.540   3.051 -0.4540 -1.6319 -2.1453
 3815TIP3    H232937   3.539   1.510   3.051 -0.2845 -0.8507 -0.6918
 3816TIP3   OH232938   0.029   0.004  15.278  0.4115  0.3287  0.6052
 3816TIP3    H132939   0.019  -0.019  15.186  1.3928  1.8592  0.0824
 3816TIP3    H232940  -0.009   0.092  15.285 -1.3043 -0.4731  2.0646
 3817TIP3   OH232941   1.836   3.028   0.210 -0.5076 -0.3779 -0.1630
 3817TIP3    H132942   1.922   2.987   0.200 -1.0167 -1.4093 -0.5144
 3817TIP3    H232943   1.780   2.980   0.148 -1.4267 -0.0031  0.3621
 3818TIP3   OH232944   1.392   0.938   2.359  0.1653  0.3995 -0.8435
 3818TIP3    H132945   1.447   0.999   2.408  1.2292 -1.0311 -0.1722
 3818TIP3    H232946   1.314   0.989   2.337  1.5967  2.4084 -1.5696
 3819TIP3   OH232947   3.236   6.807   3.498  0.1758  0.2443 -0.0568
 3819TIP3    H132948   3.170   6.825   3.430 -0.2075 -0.7396  0.0394
 3819TIP3    H232949   3.199   6.845   3.577 -0.4063 -0.5237  0.0481
 3820TIP3   OH232950   3.810   4.764  11.848 -0.6252 -0.5638  0.2916
 3820TIP3    H132951   3.836   4.761  11.756  1.3405 -0.4188  0.8076
 3820TIP3    H232952   3.809   4.672  11.876  0.5433 -0.4995  0.5743
 3821TIP3   OH232953   3.822   4.491   4.849  0.2573  0.3263  0.0793
 3821TIP3    H132954   3.855   4.507   4.761 -0.3176  1.1065 -0.0043
 3821TIP3    H232955   3.750   4.553   4.860 -0.3084 -0.4158  0.7449
 3822TIP3   OH232956   3.392   0.873   1.817 -0.3688  0.3556  0.4937
 3822TIP3    H132957   3.304   0.840   1.801 -0.0583 -0.6944  0.8914
 3822TIP3    H232958   3.444   0.795   1.835  0.4438  1.0465  1.1968
 3823TIP3   OH232959   6.618   0.618   5.661 -0.2118 -0.1284 -0.2122
 3823TIP3    H132960   6.634   0.679   5.733 -0.8697  0.2364 -0.3718
 3823TIP3    H232961   6.690   0.554   5.667  0.1558  0.3276  0.3060
 3824TIP3   OH232962   5.925   2.240   2.871 -0.4426  0.5784 -0.1822
 3824TIP3    H132963   5.870   2.171   2.833  1.7474 -0.4626 -1.6583
 3824TIP3    H232964   5.919   2.312   2.809 -0.2002  0.4798 -0.3228
 3825TIP3   OH232965   1.572   4.801   5.711 -0.1601 -0.0120  0.2092
 3825TIP3    H132966   1.488   4.799   5.666  0.2296 -1.9848 -0.4988
 3825TIP3    H232967   1.577   4.718   5.759  1.1366  0.3313  0.7275
 3826TIP3   OH232968   5.201   5.293  16.826  0.1439  0.5355  0.1548
 3826TIP3    H132969   5.111   5.274  16.800 -0.5694 -1.1322  3.3871
 3826TIP3    H232970   5.199   5.384  16.857 -0.1052  0.8965 -0.8800
 3827TIP3   OH232971   6.689   0.703   1.669 -0.2583  0.1149 -0.6295
 3827TIP3    H132972   6.759   0.658   1.622 -0.3733 -1.6964  0.8328
 3827TIP3    H232973   6.731   0.736   1.749 -0.9215 -0.4570 -0.0357
 3828TIP3   OH232974   2.657   6.287   2.277 -0.2745  0.5024 -0.2551
 3828TIP3    H132975   2.622   6.242   2.200  0.2708  0.9470 -0.7685
 3828TIP3    H232976   2.638   6.379   2.262 -2.5890  0.3697  1.4244
 3829TIP3   OH232977   4.126   4.147  13.318 -0.0176  0.1043 -0.1501
 3829TIP3    H132978   4.197   4.097  13.358 -1.4255  0.3817  2.9791
 3829TIP3    H232979   4.047   4.097  13.339 -1.1633  2.0904  0.5118
 3830TIP3   OH232980   5.854   6.414   0.118 -0.2309 -0.3509  0.4257
 3830TIP3    H132981   5.892   6.500   0.102  2.3709 -1.0677  2.1096
 3830TIP3    H232982   5.874   6.364   0.039 -0.8590  0.2479 -0.1342
 3831TIP3   OH232983   1.070   1.741  13.303 -0.1684  0.2420 -0.1679
 3831TIP3    H132984   1.131   1.677  13.265 -0.3258  0.6013 -1.0522
 3831TIP3    H232985   1.091   1.741  13.397 -0.0075 -0.9282 -0.1852
 3832TIP3   OH232986   2.661   6.125   4.258  1.0634  0.7855  0.3811
 3832TIP3    H132987   2.635   6.035   4.282  0.7693  0.3607 -1.4048
 3832TIP3    H232988   2.753   6.118   4.236  1.1832  1.0549  0.7862
 3833TIP3   OH232989   3.287   0.643  11.649  0.2915 -0.1920  0.4069
 3833TIP3    H132990   3.295   0.562  11.599 -0.6971 -0.2388  0.3023
 3833TIP3    H232991   3.311   0.619  11.739  0.9115 -0.3749  0.1977
 3834TIP3   OH232992   6.660   5.289   3.812  0.5456 -0.5191 -0.6670
 3834TIP3    H132993   6.745   5.329   3.832 -0.5612  1.9420 -0.5082
 3834TIP3    H232994   6.649   5.222   3.879  1.7608  0.0845  0.1825
 3835TIP3   OH232995   4.685   1.250  12.938  0.0147 -0.6192 -0.0640
 3835TIP3    H132996   4.750   1.185  12.963  0.4064  0.1253  0.9397
 3835TIP3    H232997   4.637   1.269  13.019 -0.2921  0.1019 -0.4009
 3836TIP3   OH232998   6.220   0.170  13.396  0.0126 -0.7119  0.2405
 3836TIP3    H132999   6.139   0.219  13.380  0.1650 -0.7811 -0.8496
 3836TIP3    H233000   6.245   0.193  13.485  0.3899  1.6770 -0.4061
 3837TIP3   OH233001   1.982   6.232  15.687  0.4472 -0.4863  0.1932
 3837TIP3    H133002   1.914   6.196  15.630 -0.4639  2.4803 -0.7733
 3837TIP3    H233003   2.060   6.181  15.666 -0.6778 -1.7529 -1.1581
 3838TIP3   OH233004   6.662   2.365   1.064  0.6568  0.6313  0.1083
 3838TIP3    H133005   6.746   2.374   1.109  0.9070  0.6365 -0.3527
 3838TIP3    H233006   6.685   2.350   0.972  0.2329 -2.0413  0.3701
 3839TIP3   OH233007   2.330   3.047  12.445 -0.7101  0.1142 -0.2176
 3839TIP3    H133008   2.293   3.042  12.356  0.6054 -2.2511 -0.6982
 3839TIP3    H233009   2.417   3.084  12.432 -0.4473 -0.4049  0.0426
 3840TIP3   OH233010   6.682   0.180  10.589  0.0530  0.6377  0.2945
 3840TIP3    H133011   6.761   0.140  10.625 -0.7119 -0.1975  1.0717
 3840TIP3    H233012   6.655   0.119  10.519 -2.1853 -1.3653  2.7107
 3841TIP3   OH233013   5.842   3.745   0.063 -0.3382 -0.3870  0.7485
 3841TIP3    H133014   5.820   3.666   0.113  0.9534  0.0211  2.0221
 3841TIP3    H233015   5.834   3.719  -0.028 -2.6340 -1.2034  1.1172
 3842TIP3   OH233016   2.153   1.313  13.775 -0.4246 -0.4827 -0.0501
 3842TIP3    H133017   2.241   1.307  13.737 -0.0188  0.3015  0.7352
 3842TIP3    H233018   2.096   1.272  13.710  0.1469  1.4355 -1.8874
 3843TIP3   OH233019   0.955   2.799   3.990 -0.0507 -0.4594  0.1620
 3843TIP3    H133020   1.014   2.822   4.062  0.8317  0.2544 -0.7735
 3843TIP3    H233021   0.997   2.725   3.947  1.4886  1.5015 -1.9656
 3844TIP3   OH233022   1.342   6.617  14.382 -0.3235  0.0524 -0.7719
 3844TIP3    H133023   1.304   6.704  14.367 -0.0870  0.2444 -0.2862
 3844TIP3    H233024   1.384   6.595  14.299 -1.5944 -0.2221 -1.3630
 3845TIP3   OH233025   0.252   4.744  15.935 -0.1481  0.0730 -0.0775
 3845TIP3    H133026   0.288   4.791  15.859  1.0850  0.6227  0.8205
 3845TIP3    H233027   0.325   4.693  15.969 -0.2508  1.0005  1.6345
 3846TIP3   OH233028   2.449   3.455   0.371 -0.2079  0.3009  0.7448
 3846TIP3    H133029   2.521   3.442   0.432  0.0806 -1.0869  0.1661
 3846TIP3    H233030   2.375   3.409   0.410  0.1954 -1.3098 -0.2682
 3847TIP3   OH233031   6.100   3.928   1.326  0.4454 -0.3438  0.3943
 3847TIP3    H133032   6.186   3.930   1.284  0.4696 -1.1072  0.3955
 3847TIP3    H233033   6.038   3.939   1.254  0.4943 -1.4267  0.1755
 3848TIP3   OH233034   6.193   5.919   6.378 -0.1054  0.3379 -0.5095
 3848TIP3    H133035   6.200   6.009   6.347  1.3389  0.0643 -1.0233
 3848TIP3    H233036   6.109   5.917   6.425  0.1032  2.0897  0.0153
 3849TIP3   OH233037   0.760   5.776  16.038 -0.1487  0.4569 -0.0122
 3849TIP3    H133038   0.736   5.864  16.009 -2.1662 -0.5580 -1.7152
 3849TIP3    H233039   0.676   5.729  16.042  1.1064 -2.3331 -2.6498
 3850TIP3   OH233040   3.533   1.275  13.468 -0.3030 -0.4010  0.3011
 3850TIP3    H133041   3.476   1.245  13.397 -1.1399 -0.5092  0.9905
 3850TIP3    H233042   3.580   1.350  13.432  1.0580 -1.8674 -1.1186
 3851TIP3   OH233043   1.774   0.482  13.431  0.4024  0.2384  0.5162
 3851TIP3    H133044   1.730   0.490  13.346 -1.0299 -0.6768  1.1380
 3851TIP3    H233045   1.743   0.558  13.480 -1.1751 -0.8055  1.2185
 3852TIP3   OH233046   2.582   5.755  16.958 -0.0358 -0.4468 -0.4236
 3852TIP3    H133047   2.536   5.832  16.993  1.2825 -0.1863  0.8732
 3852TIP3    H233048   2.638   5.790  16.889 -2.5518 -0.9433 -2.8840
 3853TIP3   OH233049   6.170   1.015  12.733  0.1732  0.4781  0.2493
 3853TIP3    H133050   6.135   1.103  12.717 -0.7539 -0.0148 -0.5959
 3853TIP3    H233051   6.186   0.980  12.645 -0.8003 -0.7032  0.5208
 3854TIP3   OH233052   2.153   2.950   0.184 -0.1509 -0.1363  0.2854
 3854TIP3    H133053   2.222   3.013   0.202 -0.5015  0.3481 -0.0433
 3854TIP3    H233054   2.148   2.946   0.088  0.5644 -1.4345  0.2839
 3855TIP3   OH233055   6.255   5.300   1.845 -0.0459  0.2847  0.0289
 3855TIP3    H133056   6.306   5.373   1.809  2.4057  0.3531  3.2351
 3855TIP3    H233057   6.218   5.256   1.767  2.7939  1.7839 -2.3760
 3856TIP3   OH233058   1.566   4.485  16.848  0.6597  0.1617 -0.2590
 3856TIP3    H133059   1.480   4.521  16.825  0.1196 -0.5745  0.5383
 3856TIP3    H233060   1.582   4.416  16.784 -1.2371 -2.4835  1.8554
 3857TIP3   OH233061   6.832   1.975   1.191 -0.5757 -0.1283 -0.4488
 3857TIP3    H133062   6.838   1.984   1.286 -0.3840 -0.9292 -0.3746
 3857TIP3    H233063   6.914   1.932   1.166 -2.3377 -3.8800 -0.4343
 3858TIP3   OH233064   2.869   3.618   0.115  0.3407 -0.1465 -0.0449
 3858TIP3    H133065   2.895   3.533   0.149  0.4994  0.4009  1.2543
 3858TIP3    H233066   2.947   3.651   0.071  0.4214 -0.4710 -0.1462
 3859TIP3   OH233067   3.349   2.631  15.835  0.1251  0.0749 -0.0608
 3859TIP3    H133068   3.393   2.707  15.796 -1.3807  1.4351  0.7614
 3859TIP3    H233069   3.415   2.562  15.833  2.5910  2.1476  1.7031
 3860TIP3   OH233070   2.070   5.734  13.051  0.3181  0.3394 -0.1246
 3860TIP3    H133071   2.159   5.768  13.044  0.5508 -0.4363 -1.1225
 3860TIP3    H233072   2.081   5.640  13.065 -0.3530  0.1808 -0.6470
 3861TIP3   OH233073   2.579   5.311  13.956 -0.1539 -0.1465 -0.2414
 3861TIP3    H133074   2.498   5.321  13.905 -0.7464 -1.2639  0.4570
 3861TIP3    H233075   2.566   5.367  14.032 -1.2058 -1.8931  0.9427
 3862TIP3   OH233076   6.514   5.446  13.009  0.3252  0.1036 -0.0579
 3862TIP3    H133077   6.434   5.395  13.003  1.7470 -2.1694 -1.1556
 3862TIP3    H233078   6.499   5.522  12.952 -1.1704 -0.0369  0.1125
 3863TIP3   OH233079   2.205   6.804   5.245 -0.3179 -0.0450 -0.1096
 3863TIP3    H133080   2.125   6.852   5.266 -1.2335  0.0374 -3.3064
 3863TIP3    H233081   2.175   6.717   5.219  0.8823 -0.8012  0.9175
 3864TIP3   OH233082   0.988   5.846   0.266 -0.1044 -0.8964 -0.0668
 3864TIP3    H133083   0.937   5.920   0.299 -1.4907 -1.3336 -1.1643
 3864TIP3    H233084   1.049   5.886   0.204 -0.3678 -0.5989 -0.1370
 3865TIP3   OH233085   2.001   4.896  16.249  0.4508 -0.1868 -0.5038
 3865TIP3    H133086   2.050   4.847  16.316  1.2608  1.3429  0.0700
 3865TIP3    H233087   1.912   4.859  16.253  0.5143 -0.2361  1.3245
 3866TIP3   OH233088   4.363   3.805   1.184  0.3789 -0.5676  0.1842
 3866TIP3    H133089   4.446   3.800   1.136 -0.8658  1.4265 -2.3834
 3866TIP3    H233090   4.346   3.898   1.194 -1.8828 -0.9191  0.0356
 3867TIP3   OH233091   3.678   5.231  16.377  0.4946  0.4558 -0.1528
 3867TIP3    H133092   3.717   5.147  16.400 -1.1172  0.0223  1.1896
 3867TIP3    H233093   3.600   5.208  16.327  0.2013  1.1582 -0.0317
 3868TIP3   OH233094   4.976   0.664  12.132  0.5199 -0.1862 -0.8569
 3868TIP3    H133095   5.020   0.589  12.172  2.6440 -0.4277 -3.3906
 3868TIP3    H233096   5.010   0.740  12.180 -1.1017 -0.6628  1.2393
 3869TIP3   OH233097   6.459   6.621  13.716  0.4908  0.1504 -0.4493
 3869TIP3    H133098   6.536   6.671  13.744  0.3031 -0.3615  1.0220
 3869TIP3    H233099   6.417   6.678  13.651  0.2179  1.9946  1.2546
 3870TIP3   OH233100   2.749   4.613  10.922 -0.3449  0.4020  0.1436
 3870TIP3    H133101   2.787   4.527  10.903 -0.6818 -0.3081  2.3107
 3870TIP3    H233102   2.658   4.606  10.892 -0.3000  0.0921  0.0733
 3871TIP3   OH233103   3.026   3.774  11.720  0.0754 -0.0740  0.1857
 3871TIP3    H133104   3.057   3.854  11.763 -0.3317  0.5395 -0.6419
 3871TIP3    H233105   2.945   3.752  11.765 -1.1034  1.3596 -1.1330
 3872TIP3   OH233106   2.443   3.841  17.039  0.4666  0.5152  0.4602
 3872TIP3    H133107   2.402   3.872  16.958  1.8200  0.3354 -0.3194
 3872TIP3    H233108   2.528   3.885  17.041  1.3599 -1.1337  0.6563
 3873TIP3   OH233109   5.424   4.623   1.412 -0.5670  0.4982 -0.3467
 3873TIP3    H133110   5.422   4.527   1.410 -0.6784  0.5038 -1.9884
 3873TIP3    H233111   5.451   4.648   1.324 -1.4273  1.9964 -0.2156
 3874TIP3   OH233112   1.721   0.823   5.482  0.1038  0.4287 -0.7656
 3874TIP3    H133113   1.684   0.885   5.545  0.4150 -0.3407  0.1979
 3874TIP3    H233114   1.813   0.817   5.505  0.0703 -0.4154 -0.8222
 3875TIP3   OH233115   3.008   3.133   4.780 -0.8367  0.6436  0.0345
 3875TIP3    H133116   2.933   3.160   4.726 -1.0006  3.2236  1.4110
 3875TIP3    H233117   3.066   3.209   4.781  0.5463 -0.3722  1.1570
 3876TIP3   OH233118   2.040   0.566  13.621 -0.5190  0.0391 -0.0917
 3876TIP3    H133119   2.089   0.525  13.692 -0.9151 -2.3645 -1.1157
 3876TIP3    H233120   2.036   0.658  13.645  1.2923 -0.3157  1.8556
 3877TIP3   OH233121   2.102   6.017  15.543 -0.0126  0.4244  0.0814
 3877TIP3    H133122   2.114   5.924  15.564  1.0461  0.9584  2.0921
 3877TIP3    H233123   2.112   6.021  15.448 -1.0309 -1.6278 -0.1739
 3878TIP3   OH233124   5.575   5.748  14.293 -0.6253  0.1221 -0.3721
 3878TIP3    H133125   5.510   5.686  14.326 -0.8185  0.4378 -0.1481
 3878TIP3    H233126   5.523   5.819  14.256 -0.4122  0.6276  0.2789
 3879TIP3   OH233127   1.294   1.898   0.633  0.4812  0.3310  0.6045
 3879TIP3    H133128   1.255   1.981   0.607  1.4507  0.7473  0.4431
 3879TIP3    H233129   1.291   1.844   0.554 -2.6993 -0.8672  1.3572
 3880TIP3   OH233130   1.011   0.770  14.315 -0.2386 -0.4467  0.4365
 3880TIP3    H133131   1.068   0.844  14.290  1.0616 -1.5014  0.1732
 3880TIP3    H233132   1.040   0.746  14.403  0.4188 -1.6150 -0.0786
 3881TIP3   OH233133   5.635   3.242  16.112 -0.4325  0.1434  0.0303
 3881TIP3    H133134   5.553   3.220  16.155  0.2105 -0.6264  0.8805
 3881TIP3    H233135   5.691   3.276  16.182 -0.0229  0.6858 -0.5453
 3882TIP3   OH233136   1.822   1.777  11.659  0.0090  0.0570 -0.2061
 3882TIP3    H133137   1.765   1.756  11.733  1.0979 -1.1848  0.2999
 3882TIP3    H233138   1.763   1.780  11.584 -1.1561  1.5603  0.6992
 3883TIP3   OH233139   5.633   0.326   3.646 -0.3513 -0.2461  0.0347
 3883TIP3    H133140   5.705   0.334   3.708 -0.2510 -0.7363 -0.0141
 3883TIP3    H233141   5.562   0.285   3.696 -0.8787  0.9400  0.2999
 3884TIP3   OH233142   3.310   4.226  12.284 -0.0865 -0.1447 -0.0727
 3884TIP3    H133143   3.250   4.238  12.211  0.3656  0.0606 -0.4110
 3884TIP3    H233144   3.391   4.268  12.257  1.1584 -2.7599 -0.7914
 3885TIP3   OH233145   4.014   4.699   3.308  0.5052 -0.5792 -0.1243
 3885TIP3    H133146   4.042   4.770   3.249  0.1944  0.9356  1.4685
 3885TIP3    H233147   3.944   4.654   3.259 -0.3241  1.1493 -0.6170
 3886TIP3   OH233148   2.273   2.850   5.082  0.0691 -0.1395  0.1500
 3886TIP3    H133149   2.341   2.789   5.112 -0.1347 -0.6169 -0.3398
 3886TIP3    H233150   2.197   2.795   5.066 -1.2791  0.6637  3.0312
 3887TIP3   OH233151   0.946   0.251   2.618 -0.6156  0.1026 -0.1108
 3887TIP3    H133152   0.917   0.294   2.698  1.9522  0.7954  0.5449
 3887TIP3    H233153   0.881   0.275   2.552 -1.7018  1.1724  1.3065
 3888TIP3   OH233154   0.888   2.130   1.364 -0.5328 -0.6107  0.1650
 3888TIP3    H133155   0.931   2.200   1.412 -0.2847 -0.8748  0.3305
 3888TIP3    H233156   0.834   2.175   1.299 -0.5331 -0.2626  0.4029
 3889TIP3   OH233157   0.906   4.237  13.085 -0.0063  0.3549  0.6004
 3889TIP3    H133158   0.829   4.210  13.034 -0.8769  1.0475  1.5006
 3889TIP3    H233159   0.938   4.316  13.042  0.9913 -0.6308 -0.5230
 3890TIP3   OH233160   3.269   0.505  10.691 -0.1468  0.0612 -0.3582
 3890TIP3    H133161   3.322   0.522  10.769  0.0543  1.5966 -0.7962
 3890TIP3    H233162   3.302   0.421  10.657  2.7742  1.4013 -1.1837
 3891TIP3   OH233163   0.928   0.335  15.049 -0.2604  0.5443  0.2451
 3891TIP3    H133164   0.978   0.266  15.006 -0.3447  0.6545 -0.0319
 3891TIP3    H233165   0.882   0.290  15.120 -3.6878 -0.6500 -2.4037
 3892TIP3   OH233166   1.582   3.282   0.779  0.7398 -0.0190 -0.7491
 3892TIP3    H133167   1.654   3.320   0.728  1.7429  0.5356  1.0034
 3892TIP3    H233168   1.561   3.350   0.843  0.0795 -1.0132  0.1071
 3893TIP3   OH233169   5.297   0.998  10.877  0.8062 -0.3997 -0.0855
 3893TIP3    H133170   5.218   1.033  10.917  0.9714 -1.7285  1.5379
 3893TIP3    H233171   5.323   1.063  10.812 -0.6495  0.8764  0.5603
 3894TIP3   OH233172   4.375   4.718   2.356 -0.0659  0.2935 -0.0796
 3894TIP3    H133173   4.378   4.623   2.368  2.1366  0.1663 -1.1583
 3894TIP3    H233174   4.450   4.751   2.406  0.6604  1.1714 -1.6663
 3895TIP3   OH233175   2.388   1.145  16.584 -0.2455  0.0777  0.4654
 3895TIP3    H133176   2.425   1.057  16.579 -1.2617 -0.3376 -0.1425
 3895TIP3    H233177   2.306   1.139  16.535 -1.3616  0.8312  2.1504
 3896TIP3   OH233178   4.919   4.635  14.273 -0.1881  0.1115  0.6190
 3896TIP3    H133179   4.924   4.608  14.181  0.5699 -0.5034  0.8157
 3896TIP3    H233180   5.004   4.675  14.291 -0.5493  0.7619  0.8956
 3897TIP3   OH233181   2.191   3.512   3.467 -0.0820 -0.2135 -0.2047
 3897TIP3    H133182   2.148   3.516   3.381  0.8145 -1.2648 -0.7333
 3897TIP3    H233183   2.283   3.532   3.449 -0.1327  1.0270  0.7581
 3898TIP3   OH233184   1.840   3.490   1.872  0.2562 -0.5915 -0.5134
 3898TIP3    H133185   1.841   3.490   1.777 -1.1071 -1.3979 -0.5548
 3898TIP3    H233186   1.912   3.432   1.897  0.4229 -0.6181 -1.0509
 3899TIP3   OH233187   6.081   1.550  12.554  0.0564 -0.5226 -0.3293
 3899TIP3    H133188   6.056   1.574  12.643  1.8230  0.1236  0.0316
 3899TIP3    H233189   6.022   1.600  12.498 -1.8617 -1.8148  0.4330
 3900TIP3   OH233190   1.744   5.489  14.245 -0.0347  0.0708  0.2191
 3900TIP3    H133191   1.746   5.449  14.159 -1.0979  1.1230 -0.3219
 3900TIP3    H233192   1.659   5.466  14.281 -0.4685  1.3882  0.0969
 3901TIP3   OH233193   0.485   2.359   2.870  0.0909  0.0634  0.4493
 3901TIP3    H133194   0.394   2.329   2.862  0.4112 -0.6986 -0.4336
 3901TIP3    H233195   0.492   2.431   2.806  0.5263 -0.9238 -0.6472
 3902TIP3   OH233196   6.643   4.716  14.398  0.3784 -0.2578 -0.0831
 3902TIP3    H133197   6.673   4.806  14.415  1.0657 -0.3192 -0.8993
 3902TIP3    H233198   6.721   4.663  14.408 -0.1062 -0.8235  0.7600
 3903TIP3   OH233199   1.187   0.837   6.188 -0.1240  0.0740  0.2370
 3903TIP3    H133200   1.239   0.762   6.218 -0.1515  0.1136  0.3878
 3903TIP3    H233201   1.206   0.845   6.095 -0.2112 -0.1947  0.1950
 3904TIP3   OH233202   1.889   4.543  15.504 -0.5211  0.3602  0.0408
 3904TIP3    H133203   1.922   4.516  15.589  3.1857 -2.2530 -1.8957
 3904TIP3    H233204   1.951   4.609  15.474  0.2363 -1.0726 -1.7859
 3905TIP3   OH233205   5.808   0.225  13.176 -0.7608 -0.4875 -0.3000
 3905TIP3    H133206   5.785   0.268  13.094 -1.0311  0.4658  0.2638
 3905TIP3    H233207   5.900   0.247  13.190 -0.1144 -2.3024 -1.3273
 3906TIP3   OH233208   6.668   3.543   1.488 -0.5671 -0.6035  0.3916
 3906TIP3    H133209   6.700   3.488   1.416  0.4906  1.6117 -0.9434
 3906TIP3    H233210   6.715   3.625   1.478 -3.3576  1.2400  1.1500
 3907TIP3   OH233211   1.954   3.450   6.308  0.3448 -0.4080 -0.3749
 3907TIP3    H133212   1.936   3.358   6.292  0.3725 -0.5222  0.2155
 3907TIP3    H233213   2.031   3.469   6.254  0.7427 -0.9059  0.0052
 3908TIP3   OH233214   5.420   4.662   3.742  0.8042 -0.1456 -0.5728
 3908TIP3    H133215   5.484   4.631   3.677 -1.1331  0.6466 -3.0068
 3908TIP3    H233216   5.453   4.747   3.769  1.6900 -0.5219 -0.4228
 3909TIP3   OH233217   6.743   3.212  16.437  0.5517 -0.2579  0.4750
 3909TIP3    H133218   6.703   3.150  16.376  1.0575 -0.6040  0.4876
 3909TIP3    H233219   6.684   3.287  16.438  0.9862  0.1358 -1.1337
 3910TIP3   OH233220   0.851   5.492  12.567  0.2317 -0.1243 -0.1391
 3910TIP3    H133221   0.845   5.457  12.656 -0.9421 -1.7755 -0.8124
 3910TIP3    H233222   0.928   5.548  12.568  0.4483 -0.3972  1.8223
 3911TIP3   OH233223   6.649   3.949   2.223  0.8825 -0.5054 -0.1985
 3911TIP3    H133224   6.615   3.921   2.307  2.9786 -2.8263 -0.0154
 3911TIP3    H233225   6.585   4.013   2.191 -1.5432 -1.8161  1.7306
 3912TIP3   OH233226   4.457   1.696  13.856  0.0670 -0.3835 -0.2194
 3912TIP3    H133227   4.496   1.755  13.792  0.9525 -1.6611 -0.9192
 3912TIP3    H233228   4.442   1.750  13.933 -0.5161  1.0709 -1.3060
 3913TIP3   OH233229   1.507   3.262   3.155  0.7885 -0.1246 -0.7593
 3913TIP3    H133230   1.566   3.301   3.219  1.3825 -1.0982 -0.7020
 3913TIP3    H233231   1.447   3.208   3.207  0.8779 -0.4268 -0.9675
 3914TIP3   OH233232   0.071   6.501  11.571  0.1290 -0.5903 -0.1604
 3914TIP3    H133233   0.111   6.431  11.520  1.5559 -0.7925  1.1632
 3914TIP3    H233234   0.052   6.462  11.656  1.2307  0.6608  0.7132
 3915TIP3   OH233235   1.509   0.822   4.960  0.0822  0.2814  0.4472
 3915TIP3    H133236   1.539   0.829   4.869 -0.7926  0.8089  0.1962
 3915TIP3    H233237   1.574   0.870   5.010 -0.7649  2.1830 -0.1921
 3916TIP3   OH233238   5.387   6.384  11.452  0.2493  0.2425 -0.3793
 3916TIP3    H133239   5.464   6.405  11.400  1.5719 -1.6590  0.7213
 3916TIP3    H233240   5.343   6.315  11.403 -1.7293  2.3657 -1.8103
 3917TIP3   OH233241   2.110   3.214   3.465  0.0169 -0.0666 -0.4226
 3917TIP3    H133242   2.106   3.195   3.371  0.6176  0.6180 -0.5936
 3917TIP3    H233243   2.127   3.308   3.470 -0.5429  0.0012  0.3857
 3918TIP3   OH233244   5.057   5.568   3.853  0.1616  0.7706  0.3811
 3918TIP3    H133245   4.979   5.557   3.799 -1.0106  2.9684  1.4846
 3918TIP3    H233246   5.107   5.487   3.840 -2.1895 -0.6441 -0.4923
 3919TIP3   OH233247   6.289   3.543   1.919 -0.2880  0.4133  0.5587
 3919TIP3    H133248   6.239   3.475   1.964  1.5775 -0.8601  0.8247
 3919TIP3    H233249   6.380   3.516   1.929  0.4203  2.1665 -0.6674
 3920TIP3   OH233250   3.038   4.078   0.817 -0.1827 -0.3066  0.6003
 3920TIP3    H133251   3.127   4.054   0.791  0.1632  1.0056  0.5349
 3920TIP3    H233252   3.000   4.121   0.741 -0.3198  0.5596  1.1423
 3921TIP3   OH233253   4.681   6.519   1.116  0.0125 -0.8253 -0.0560
 3921TIP3    H133254   4.650   6.443   1.165  0.8130 -1.1455 -0.0272
 3921TIP3    H233255   4.738   6.566   1.177 -2.5078  1.2861  0.8381
 3922TIP3   OH233256   6.283   2.392   5.299 -0.4245  0.7254 -0.5083
 3922TIP3    H133257   6.201   2.418   5.256 -1.3695  0.1738  0.8931
 3922TIP3    H233258   6.321   2.328   5.239 -2.3057 -0.9155 -0.0853
 3923TIP3   OH233259   5.999   5.274   3.500  0.8294 -0.3927 -0.1712
 3923TIP3    H133260   5.930   5.295   3.563  0.4384 -0.7441 -0.4752
 3923TIP3    H233261   6.039   5.358   3.480  0.9816 -0.2820  0.5700
 3924TIP3   OH233262   4.526   5.723   4.962  0.0084 -0.3480 -0.2371
 3924TIP3    H133263   4.531   5.699   5.055 -0.4504  1.2358  0.2303
 3924TIP3    H233264   4.542   5.817   4.961  0.4847 -0.4144 -1.8361
 3925TIP3   OH233265   5.656   3.133  13.131 -0.0488  0.4558 -0.1375
 3925TIP3    H133266   5.631   3.196  13.198 -1.5867 -0.2281 -0.0167
 3925TIP3    H233267   5.660   3.049  13.177  2.1035  0.4259 -0.2629
 3926TIP3   OH233268   6.430   3.840  15.776 -0.3114  0.1774 -0.0331
 3926TIP3    H133269   6.521   3.820  15.753 -0.0288 -1.8138  2.3234
 3926TIP3    H233270   6.437   3.894  15.855 -1.1255 -0.7095  0.6722
 3927TIP3   OH233271   5.883   0.777  13.811 -0.0416  0.0485  0.2904
 3927TIP3    H133272   5.798   0.794  13.850 -0.5570 -2.1182  0.2326
 3927TIP3    H233273   5.886   0.834  13.734 -0.0415  2.5157  2.0071
 3928TIP3   OH233274   4.008   5.495  11.761 -0.2410 -0.0004 -0.1889
 3928TIP3    H133275   4.044   5.526  11.678  1.7978  3.0920  1.6242
 3928TIP3    H233276   4.071   5.430  11.792 -0.2873 -0.1766 -0.4665
 3929TIP3   OH233277   1.350   4.122  14.176 -0.0519 -0.0294  0.6913
 3929TIP3    H133278   1.351   4.191  14.110 -1.7413 -1.2096 -0.6434
 3929TIP3    H233279   1.391   4.162  14.253  0.3464  1.9601 -0.4862
 3930TIP3   OH233280   0.012   4.028   4.951  0.1652  0.7266 -0.0271
 3930TIP3    H133281   0.079   3.984   5.003  1.3214 -0.3099 -2.2422
 3930TIP3    H233282  -0.017   3.961   4.889 -3.0348  1.1298  0.8760
 3931TIP3   OH233283   3.116   2.464  16.311  0.2954 -0.2484 -0.5215
 3931TIP3    H133284   3.175   2.473  16.236 -0.5134 -1.0123 -1.2761
 3931TIP3    H233285   3.072   2.548  16.317  0.7583  0.0007 -0.5575
 3932TIP3   OH233286   0.116   1.264   0.145 -0.5686  0.2385  0.4090
 3932TIP3    H133287   0.087   1.349   0.178 -0.9976  0.5349 -0.7113
 3932TIP3    H233288   0.077   1.256   0.058  1.5459  0.0273 -0.5985
 3933TIP3   OH233289   0.826   6.689  16.080  0.7784 -0.0331 -0.0896
 3933TIP3    H133290   0.825   6.774  16.124  0.1876  0.2397 -0.5980
 3933TIP3    H233291   0.892   6.638  16.126 -1.5618 -0.6783  2.8429
 3934TIP3   OH233292   2.553   4.076   1.368  0.1255 -0.2387  0.2130
 3934TIP3    H133293   2.492   4.081   1.294  1.2101 -0.7223 -0.7516
 3934TIP3    H233294   2.640   4.084   1.328  0.8039 -1.7871  1.2778
 3935TIP3   OH233295   3.770   3.115  13.023 -0.3037  0.1171  0.1407
 3935TIP3    H133296   3.836   3.057  12.984 -0.7586 -0.2235 -0.1380
 3935TIP3    H233297   3.688   3.068  13.012 -0.3614 -0.3853  2.2775
 3936TIP3   OH233298   5.655   4.696  16.630 -0.7091 -0.1084 -0.3266
 3936TIP3    H133299   5.634   4.653  16.547  0.9068 -1.2367 -0.2133
 3936TIP3    H233300   5.705   4.774  16.605  0.5773 -0.9342 -0.4343
 3937TIP3   OH233301   0.899   3.193  13.400 -0.8077 -0.5102 -0.7638
 3937TIP3    H133302   0.958   3.127  13.362  0.4763  0.8648 -1.2517
 3937TIP3    H233303   0.878   3.157  13.487  2.6479 -0.0888  0.4336
 3938TIP3   OH233304   1.827   5.654  13.897  0.0541 -0.1960 -0.0148
 3938TIP3    H133305   1.805   5.564  13.922 -0.6030 -0.0774 -0.1422
 3938TIP3    H233306   1.755   5.682  13.840 -0.0526  0.6075  0.4902
 3939TIP3   OH233307   1.273   3.347  15.179 -0.0177  0.2266 -0.0064
 3939TIP3    H133308   1.321   3.271  15.211  0.0085  0.3468  0.2386
 3939TIP3    H233309   1.190   3.346  15.228 -0.5872 -0.4011 -0.9520
 3940TIP3   OH233310   2.397   5.434  11.371 -0.1708 -0.0175  0.6846
 3940TIP3    H133311   2.313   5.476  11.356  1.0236  2.0708 -0.5729
 3940TIP3    H233312   2.417   5.390  11.289 -0.1421 -0.7746  1.0832
 3941TIP3   OH233313   5.717   2.958  14.818  0.4530 -0.1545  0.7839
 3941TIP3    H133314   5.771   2.920  14.887 -0.0326  0.6820  1.6432
 3941TIP3    H233315   5.761   3.039  14.794  0.8329 -0.6301 -0.1862
 3942TIP3   OH233316   1.178   5.384  10.968  0.4381  0.1535  0.0245
 3942TIP3    H133317   1.226   5.323  10.913  0.6526  0.9770 -0.7205
 3942TIP3    H233318   1.090   5.345  10.975  1.0041 -1.0340  0.8799
 3943TIP3   OH233319   2.038   3.978   1.527  0.2725 -0.4728 -0.0734
 3943TIP3    H133320   1.984   3.995   1.604  0.5160  0.9222 -0.1777
 3943TIP3    H233321   2.107   3.919   1.558  1.2189  1.2021  1.1706
 3944TIP3   OH233322   4.200   1.380  14.619  0.2756  0.0423 -0.8177
 3944TIP3    H133323   4.144   1.420  14.552 -0.0902  0.2851 -0.3749
 3944TIP3    H233324   4.203   1.445  14.690  0.2648 -0.4098 -0.3981
 3945TIP3   OH233325   1.286   3.677   1.158 -0.0602 -0.5432  0.1892
 3945TIP3    H133326   1.191   3.689   1.169  0.1721  0.1022  1.6173
 3945TIP3    H233327   1.315   3.755   1.112  0.0182  0.0423  1.2140
 3946TIP3   OH233328   2.482   3.248   2.946  0.4928  0.6964  0.1965
 3946TIP3    H133329   2.491   3.271   2.854  2.0890  1.4583  0.5214
 3946TIP3    H233330   2.548   3.300   2.992 -0.5593  0.6791  1.8455
 3947TIP3   OH233331   6.741   3.898   0.398 -0.4887 -0.6372  0.0850
 3947TIP3    H133332   6.807   3.965   0.418 -0.4357 -0.6133 -0.1684
 3947TIP3    H233333   6.707   3.871   0.484 -0.2286 -0.5705  0.2086
 3948TIP3   OH233334   5.019   6.542  14.345  0.0793  0.7852  0.2971
 3948TIP3    H133335   4.939   6.495  14.319  1.1005 -1.6770  1.2824
 3948TIP3    H233336   5.073   6.475  14.386  2.8880  2.2709 -0.7590
 3949TIP3   OH233337   0.077   0.170   3.119 -0.1623 -0.5095 -0.0804
 3949TIP3    H133338   0.002   0.180   3.177 -0.9404  0.1550 -1.1666
 3949TIP3    H233339   0.122   0.254   3.124  1.0755 -1.1937  1.2656
 3950TIP3   OH233340   0.044   6.763  16.917 -0.1909 -0.2926 -0.1431
 3950TIP3    H133341  -0.050   6.766  16.935 -0.2550  0.2577 -0.5521
 3950TIP3    H233342   0.069   6.673  16.937 -0.7672 -0.3891  0.1571
 3951TIP3   OH233343   4.721   1.747  16.042 -0.0033  0.3687  0.0743
 3951TIP3    H133344   4.709   1.831  15.997 -0.1156  0.6510  0.6231
 3951TIP3    H233345   4.657   1.689  16.001 -0.1073  0.6234 -0.1311
 3952TIP3   OH233346   3.604   0.012   5.165  0.7332  0.2031  0.1712
 3952TIP3    H133347   3.541   0.069   5.121  0.9300  1.5436  1.5393
 3952TIP3    H233348   3.573  -0.077   5.147 -0.9906  0.7993 -0.0004
 3953TIP3   OH233349   4.436   0.169   3.119 -0.0594 -0.5291  0.0441
 3953TIP3    H133350   4.347   0.184   3.088 -0.2900 -2.0309 -0.0841
 3953TIP3    H233351   4.426   0.114   3.196  0.6863  0.6555  1.0143
 3954TIP3   OH233352   0.907   2.622  16.352  0.1595 -0.2594 -0.1929
 3954TIP3    H133353   0.962   2.564  16.403 -0.0892 -0.0786  0.2886
 3954TIP3    H233354   0.870   2.682  16.416 -2.9558 -2.1775  0.0157
 3955TIP3   OH233355   2.572   1.974  10.992 -0.2189 -0.5457  0.0626
 3955TIP3    H133356   2.519   2.020  10.927 -0.2048 -1.5370 -0.6882
 3955TIP3    H233357   2.551   1.881  10.979  1.3231 -0.9302  0.0726
 3956TIP3   OH233358   0.235   2.935  13.411  0.1079  0.0311  0.2122
 3956TIP3    H133359   0.167   2.929  13.344 -1.9621  2.4906  1.8715
 3956TIP3    H233360   0.202   2.881  13.483  0.0058  0.9947  0.9079
 3957TIP3   OH233361   5.585   1.364  13.498 -0.2969  0.1447  0.1654
 3957TIP3    H133362   5.525   1.332  13.431  0.1991 -0.3744 -0.0418
 3957TIP3    H233363   5.543   1.343  13.581 -0.2353 -0.5440  0.0234
 3958TIP3   OH233364   6.234   2.314   3.407 -0.4681  0.1292 -0.1140
 3958TIP3    H133365   6.329   2.312   3.422 -0.4974 -0.4187  0.0432
 3958TIP3    H233366   6.199   2.362   3.482 -0.6502 -2.9295  1.9375
 3959TIP3   OH233367   0.210   6.054   6.265 -0.7108 -0.3626 -0.0724
 3959TIP3    H133368   0.165   6.136   6.284  2.7115  1.6977  0.1494
 3959TIP3    H233369   0.277   6.047   6.334  0.7598 -1.9618 -1.5479
 3960TIP3   OH233370   2.484   1.230   1.477 -0.3926 -0.6747 -0.3560
 3960TIP3    H133371   2.436   1.300   1.521 -0.7024 -0.8397 -0.4319
 3960TIP3    H233372   2.516   1.270   1.396  1.6907  0.1638  0.7939
 3961TIP3   OH233373   4.790   2.668  13.239  0.5400  0.2167 -0.0430
 3961TIP3    H133374   4.796   2.757  13.275 -1.2931  0.5689 -0.5268
 3961TIP3    H233375   4.805   2.610  13.314 -3.0558  0.9201  1.3790
 3962TIP3   OH233376   5.808   4.903   3.434 -0.7029 -0.8360  0.1874
 3962TIP3    H133377   5.849   4.880   3.350 -0.5489  2.4808 -0.7697
 3962TIP3    H233378   5.716   4.881   3.423 -0.7126 -0.2852 -0.9272
 3963TIP3   OH233379   6.839   4.815  13.743 -0.1808 -0.0123 -0.3945
 3963TIP3    H133380   6.890   4.859  13.811  0.1368 -0.1145 -0.5663
 3963TIP3    H233381   6.893   4.741  13.716 -0.5095 -0.2418 -0.4362
 3964TIP3   OH233382   3.351   0.387   0.333  0.0094 -0.2678  0.3601
 3964TIP3    H133383   3.269   0.408   0.377 -1.0849 -1.8378 -0.8067
 3964TIP3    H233384   3.399   0.334   0.396 -1.9331 -3.2709 -0.4962
 3965TIP3   OH233385   0.647   4.322   6.064 -0.3395  0.3563  0.2535
 3965TIP3    H133386   0.675   4.406   6.026 -1.1309  0.3153 -0.4541
 3965TIP3    H233387   0.723   4.265   6.054  0.0668  0.8695  0.3642
 3966TIP3   OH233388   1.840   1.201  11.415 -0.0432  0.5734 -0.3187
 3966TIP3    H133389   1.899   1.130  11.439  0.6158  1.4535  0.7734
 3966TIP3    H233390   1.849   1.209  11.320 -0.4641 -1.0598 -0.5218
 3967TIP3   OH233391   2.178   3.879   6.160  0.3397 -0.1560  0.2983
 3967TIP3    H133392   2.200   3.972   6.155 -1.1026  0.1908 -0.0105
 3967TIP3    H233393   2.083   3.877   6.167  0.3529 -1.6144  0.3757
 3968TIP3   OH233394   6.472   4.780   3.270  0.9268  0.7415 -0.4936
 3968TIP3    H133395   6.393   4.820   3.307  0.1309  0.5535 -1.9183
 3968TIP3    H233396   6.485   4.700   3.322  0.2002  0.7925 -0.2217
 3969TIP3   OH233397   3.271   2.129  12.177 -0.1175  0.0518 -0.1900
 3969TIP3    H133398   3.308   2.192  12.115  0.7683  0.0702  0.3484
 3969TIP3    H233399   3.307   2.154  12.262  0.9034 -1.6659 -0.0851
 3970TIP3   OH233400   3.456   1.130  13.747 -0.6167 -0.1925  0.9014
 3970TIP3    H133401   3.479   1.053  13.694 -0.3863  0.2101  0.4098
 3970TIP3    H233402   3.419   1.192  13.685  0.3639  0.5888  1.0616
 3971TIP3   OH233403   2.099   2.993   0.439  0.5728  0.0028 -0.2250
 3971TIP3    H133404   2.155   2.936   0.492 -1.0705 -0.4043  1.1397
 3971TIP3    H233405   2.103   2.955   0.351 -0.5017 -2.2994  0.6481
 3972TIP3   OH233406   1.175   3.160   0.792 -0.4524 -0.7302 -0.0151
 3972TIP3    H133407   1.215   3.175   0.706 -2.6008  0.2084 -0.9360
 3972TIP3    H233408   1.102   3.101   0.775 -0.1681 -1.5244  1.3987
 3973TIP3   OH233409   2.405   0.324   4.998  0.1314  0.0178 -0.1509
 3973TIP3    H133410   2.333   0.388   4.998  1.5630  1.6983 -1.2646
 3973TIP3    H233411   2.445   0.334   5.085  0.4804  0.8195 -0.3938
 3974TIP3   OH233412   2.352   4.913   0.212  0.1528  0.2409 -0.2495
 3974TIP3    H133413   2.412   4.959   0.270 -0.0976  1.3341 -0.8220
 3974TIP3    H233414   2.316   4.982   0.155 -1.4559 -0.4039 -0.0795
 3975TIP3   OH233415   4.263   2.040  11.515  0.1974  0.2261  0.1549
 3975TIP3    H133416   4.310   1.968  11.473  0.0203  0.5079 -0.5355
 3975TIP3    H233417   4.184   1.999  11.551  0.8930 -0.2212  1.1978
 3976TIP3   OH233418   5.435   3.043  11.727  0.1005 -0.5777 -0.1181
 3976TIP3    H133419   5.396   2.970  11.679 -2.3863  0.3804  0.2619
 3976TIP3    H233420   5.432   3.016  11.819  0.9208 -0.7201 -0.1256
 3977TIP3   OH233421   4.995   5.869   3.676 -0.1049  0.2898  0.0540
 3977TIP3    H133422   4.924   5.929   3.696 -0.2556  0.7085 -1.6024
 3977TIP3    H233423   5.053   5.918   3.617  1.2451 -0.2553  0.8697
 3978TIP3   OH233424   3.945   4.176   1.526  0.3237  0.4958  0.1230
 3978TIP3    H133425   3.862   4.129   1.515  0.7785 -0.1871 -0.4961
 3978TIP3    H233426   3.983   4.140   1.606 -0.0719  0.9625  0.5255
 3979TIP3   OH233427   3.475   6.089  12.215  0.6278 -0.4689  0.0491
 3979TIP3    H133428   3.436   6.039  12.288  2.4259 -0.6809  0.9256
 3979TIP3    H233429   3.558   6.045  12.198  1.3249  1.0113 -0.5459
 3980TIP3   OH233430   2.525   3.102  12.699 -0.5159 -0.0760  0.4704
 3980TIP3    H133431   2.525   3.011  12.671  0.3905  0.1487 -0.3360
 3980TIP3    H233432   2.615   3.132  12.685 -1.0042  1.1927 -0.2063
 3981TIP3   OH233433   5.481   3.560   4.206  0.3970  0.1993  0.2998
 3981TIP3    H133434   5.398   3.531   4.168  0.7602  0.7098 -0.9406
 3981TIP3    H233435   5.473   3.656   4.210  1.1931  0.3166 -0.5333
 3982TIP3   OH233436   6.293   6.318   2.742  0.5492 -0.2519 -0.5784
 3982TIP3    H133437   6.267   6.230   2.770  0.5278  0.1616  0.7849
 3982TIP3    H233438   6.231   6.376   2.786  0.6660  0.4562 -1.3351
 3983TIP3   OH233439   6.207   3.952   0.665 -0.5117  0.1273  0.3963
 3983TIP3    H133440   6.199   3.999   0.748 -0.0822  0.5458  0.2064
 3983TIP3    H233441   6.260   4.010   0.610 -0.5585 -0.2730 -0.0747
 3984TIP3   OH233442   1.000   1.175   0.058  0.6163 -0.0023 -0.0811
 3984TIP3    H133443   0.988   1.109   0.126  0.3599 -0.3461 -0.4596
 3984TIP3    H233444   0.924   1.233   0.067 -0.2441 -0.9566 -1.0967
 3985TIP3   OH233445   6.752   0.617   4.579 -0.2373  0.0503 -0.4850
 3985TIP3    H133446   6.737   0.543   4.638  0.1903 -1.6165 -2.3442
 3985TIP3    H233447   6.675   0.619   4.523 -0.0854  0.8006 -0.6737
 3986TIP3   OH233448   4.794   5.759   5.319 -0.5820 -0.5588 -0.1070
 3986TIP3    H133449   4.878   5.715   5.330 -0.0679 -0.1207 -1.9977
 3986TIP3    H233450   4.816   5.851   5.305 -1.5603  0.1131  2.1835
 3987TIP3   OH233451   3.472   4.656  14.996 -0.0627 -0.2642 -0.0725
 3987TIP3    H133452   3.447   4.602  14.921  0.4196  1.3941 -1.5099
 3987TIP3    H233453   3.530   4.723  14.959  1.5472 -0.3508  2.0751
 3988TIP3   OH233454   1.475   3.477  14.680  0.0933 -0.4467  0.3502
 3988TIP3    H133455   1.480   3.572  14.688 -0.5161 -0.3505 -0.3005
 3988TIP3    H233456   1.540   3.455  14.613  0.1982 -0.4867  0.4636
 3989TIP3   OH233457   5.462   6.432   1.995 -0.8685 -0.0343 -0.1512
 3989TIP3    H133458   5.382   6.388   2.023 -0.7125  1.4570  3.2011
 3989TIP3    H233459   5.461   6.427   1.900 -2.8408 -3.5789 -0.0870
 3990TIP3   OH233460   1.916   5.212  13.341  0.2303  0.2061 -0.0862
 3990TIP3    H133461   1.839   5.229  13.287  1.1409  0.7545 -1.2784
 3990TIP3    H233462   1.946   5.299  13.368 -0.5737 -0.0849  1.9024
 3991TIP3   OH233463   1.665   2.693  16.308  0.4856 -0.2655  0.1301
 3991TIP3    H133464   1.697   2.718  16.221 -0.2013  0.7227  0.1510
 3991TIP3    H233465   1.686   2.768  16.364  0.0737 -0.5092  0.6157
 3992TIP3   OH233466   1.437   6.223  16.375 -0.0192  0.6081 -0.4613
 3992TIP3    H133467   1.456   6.316  16.380 -1.9949  0.9947  1.4816
 3992TIP3    H233468   1.351   6.218  16.331  1.0886 -0.5337 -2.7003
 3993TIP3   OH233469   5.394   0.697   1.191  0.2455  0.5013 -0.1208
 3993TIP3    H133470   5.403   0.780   1.145  1.4167  0.4446 -0.0227
 3993TIP3    H233471   5.449   0.636   1.141  1.8795  0.5333  1.5277
 3994TIP3   OH233472   0.207   5.312  16.489 -0.2383  0.1764  0.0666
 3994TIP3    H133473   0.134   5.361  16.451 -0.4645 -0.7645 -0.7646
 3994TIP3    H233474   0.195   5.321  16.584 -1.3194  0.2033 -0.0547
 3995TIP3   OH233475   5.837   1.155  15.622 -0.3488 -0.4706  0.1686
 3995TIP3    H133476   5.906   1.139  15.558 -1.3792  0.3987 -1.1903
 3995TIP3    H233477   5.822   1.249  15.619 -0.2802 -0.3745  1.8630
 3996TIP3   OH233478   3.268   2.866   0.634 -0.0880 -0.1814  0.3816
 3996TIP3    H133479   3.248   2.931   0.567  0.9732 -1.9152 -1.7205
 3996TIP3    H233480   3.239   2.907   0.716 -1.1907  2.1259 -1.0567
 3997TIP3   OH233481   2.919   6.496   1.511  0.7851  0.1446 -0.2375
 3997TIP3    H133482   2.844   6.532   1.558  0.9210 -0.3439  0.3706
 3997TIP3    H233483   2.923   6.546   1.430 -0.4345 -0.0748 -0.4616
 3998TIP3   OH233484   4.970   2.992   2.986 -0.6505 -0.1666  0.1923
 3998TIP3    H133485   4.949   3.079   2.953 -0.0980 -0.7009 -1.7481
 3998TIP3    H233486   5.060   2.976   2.956 -0.9975 -1.6656 -0.1681
 3999TIP3   OH233487   6.693   2.704  17.071  0.1938 -0.1928  0.9014
 3999TIP3    H133488   6.742   2.784  17.087  1.0996 -0.4820 -0.2405
 3999TIP3    H233489   6.756   2.645  17.030 -0.9042 -0.8565  0.0926
 4000TIP3   OH233490   2.820   2.853  15.358  0.1311  0.0188 -0.2047
 4000TIP3    H133491   2.734   2.888  15.383  0.4429  1.2647 -0.7976
 4000TIP3    H233492   2.867   2.844  15.441 -0.7543 -1.2126  0.1797
 4001TIP3   OH233493   5.917   4.898  17.049 -0.3116 -0.1899 -0.1507
 4001TIP3    H133494   6.000   4.851  17.037 -1.7977 -2.7474 -0.9635
 4001TIP3    H233495   5.894   4.930  16.962 -0.2279  0.5121  0.0736
 4002TIP3   OH233496   6.186   1.829  12.326 -0.0111  0.3673 -0.3712
 4002TIP3    H133497   6.109   1.773  12.313  0.5777 -0.8259  1.0372
 4002TIP3    H233498   6.161   1.889  12.396  0.4140 -0.1965  0.2740
 4003TIP3   OH233499   4.539   1.129   6.620 -0.1660 -0.2081  0.1088
 4003TIP3    H133500   4.632   1.128   6.597  0.0370  2.6913  0.4175
 4003TIP3    H233501   4.494   1.133   6.536 -0.1376 -2.6581 -0.0882
 4004TIP3   OH233502   1.829   2.285   2.089 -0.5519 -0.3845  0.0752
 4004TIP3    H133503   1.742   2.315   2.117 -0.0829  0.6052  0.5219
 4004TIP3    H233504   1.887   2.357   2.113  0.3403 -0.8875 -0.5546
 4005TIP3   OH233505   5.449   6.017   3.996 -0.0728  0.3049  0.6066
 4005TIP3    H133506   5.445   5.959   3.920 -0.8343  0.9169  0.1649
 4005TIP3    H233507   5.366   6.004   4.040  0.6024 -0.4874  1.6865
 4006TIP3   OH233508   3.000   4.704   1.966 -0.3910 -0.4536 -0.4228
 4006TIP3    H133509   3.037   4.633   2.018 -0.5140 -0.3778 -0.2286
 4006TIP3    H233510   2.913   4.672   1.941 -0.9326  0.1039  0.6785
 4007TIP3   OH233511   4.579   1.716   2.298  0.3681  0.2341 -0.6887
 4007TIP3    H133512   4.620   1.692   2.381 -0.0313 -0.3057 -0.6495
 4007TIP3    H233513   4.640   1.779   2.260 -0.2386  1.8128  0.7797
 4008TIP3   OH233514   4.232   5.041  12.125 -0.7587 -0.2410 -0.1478
 4008TIP3    H133515   4.261   5.125  12.089  2.7782 -1.6118 -0.8739
 4008TIP3    H233516   4.224   5.056  12.219  2.4332  0.4010  0.1221
 4009TIP3   OH233517   3.323   4.725   3.139 -0.2934  0.2196 -0.2004
 4009TIP3    H133518   3.256   4.678   3.091 -0.7034 -0.4504  0.9724
 4009TIP3    H233519   3.322   4.814   3.103 -0.7445 -0.1979 -1.2294
 4010TIP3   OH233520   2.134   5.543  11.375 -0.1124 -0.1412 -0.1638
 4010TIP3    H133521   2.084   5.499  11.443  0.4684 -0.3930  0.1056
 4010TIP3    H233522   2.132   5.636  11.399 -1.0952 -0.0387 -0.5769
 4011TIP3   OH233523   2.270   6.597  14.817  0.2556 -0.9862 -0.3691
 4011TIP3    H133524   2.329   6.552  14.756  0.7261 -0.6208 -0.1838
 4011TIP3    H233525   2.305   6.685  14.824 -0.9982 -0.3898 -1.1887
 4012TIP3   OH233526   1.166   3.634   5.333  0.2369  0.0475  0.0094
 4012TIP3    H133527   1.227   3.639   5.407  1.8401 -0.2339 -1.2359
 4012TIP3    H233528   1.220   3.606   5.259 -1.5053 -0.6536 -1.0700
 4013TIP3   OH233529   6.107   4.124  15.729  0.0821  0.9960  0.3160
 4013TIP3    H133530   6.117   4.029  15.737  1.5375  1.0847 -0.1840
 4013TIP3    H233531   6.082   4.152  15.817 -0.2289  0.1797  0.5018
 4014TIP3   OH233532   3.901   2.831   3.046 -0.1405  0.0295  0.6033
 4014TIP3    H133533   3.904   2.767   2.975  0.4165  1.8534 -1.1130
 4014TIP3    H233534   3.945   2.788   3.119  0.5259 -1.4195 -0.5916
 4015TIP3   OH233535   1.567   1.925   0.927 -0.6287  0.2619  0.6041
 4015TIP3    H133536   1.523   1.891   1.005  1.1990  2.3884  2.7071
 4015TIP3    H233537   1.654   1.949   0.957  1.4599 -1.9788 -2.9200
 4016TIP3   OH233538   0.434   5.540  16.372  0.2359 -0.0198 -0.1416
 4016TIP3    H133539   0.469   5.563  16.286  0.4242  0.6575  0.1077
 4016TIP3    H233540   0.458   5.448  16.384 -0.3491 -0.3056 -1.0788
 4017TIP3   OH233541   3.283   2.682   1.339  0.4183 -0.7472  0.3276
 4017TIP3    H133542   3.211   2.714   1.394  0.5009 -0.4752  0.2804
 4017TIP3    H233543   3.322   2.610   1.389  0.8623 -0.1247  0.9005
 4018TIP3   OH233544   4.072   5.595  13.753 -0.5603  0.6022  0.6757
 4018TIP3    H133545   4.163   5.566  13.745 -0.4454 -0.0901  3.2949
 4018TIP3    H233546   4.034   5.535  13.817 -2.3411  1.9715  0.9879
 4019TIP3   OH233547   1.324   4.332  13.982  0.0951  0.0753  0.1219
 4019TIP3    H133548   1.250   4.356  13.926  0.0124  1.3170  0.7250
 4019TIP3    H233549   1.390   4.398  13.964  1.0491 -0.9685 -0.3373
 4020TIP3   OH233550   5.855   5.786  12.407  0.0004 -0.0880  0.5237
 4020TIP3    H133551   5.769   5.823  12.385 -1.5079 -2.7154  1.4549
 4020TIP3    H233552   5.880   5.736  12.330 -0.1194 -0.6057  0.8103
 4021TIP3   OH233553   2.661   3.176   5.753 -0.2282  0.6173  0.4405
 4021TIP3    H133554   2.633   3.267   5.768  0.7509  1.0379 -0.1623
 4021TIP3    H233555   2.581   3.125   5.755 -0.9568  1.6837 -0.5154
 4022TIP3   OH233556   5.618   1.127   2.581 -0.1914 -0.4954  0.2975
 4022TIP3    H133557   5.667   1.064   2.527 -1.9140 -0.1622 -1.8143
 4022TIP3    H233558   5.683   1.192   2.606  0.3843  0.6066 -3.4567
 4023TIP3   OH233559   0.054   5.241  11.572 -0.1442  1.1223 -0.3877
 4023TIP3    H133560  -0.014   5.267  11.635 -1.6891 -0.4745 -1.3008
 4023TIP3    H233561   0.055   5.312  11.508 -0.9014  1.2142 -0.3110
 4024TIP3   OH233562   3.173   2.811   3.307 -0.3359  0.1599  0.3516
 4024TIP3    H133563   3.183   2.866   3.228  2.3275  0.7191  0.9903
 4024TIP3    H233564   3.174   2.874   3.379 -0.8588 -0.4980  0.9377
 4025TIP3   OH233565   0.050   5.197   1.905 -0.1161  0.6506 -0.0513
 4025TIP3    H133566  -0.036   5.160   1.883 -0.6094 -0.0392  2.6904
 4025TIP3    H233567   0.112   5.127   1.886 -0.0848  1.1429 -2.0249
 4026TIP3   OH233568   6.628   0.320   5.103  0.7409  0.4853  0.4220
 4026TIP3    H133569   6.660   0.266   5.031 -0.1183  1.0534 -0.4061
 4026TIP3    H233570   6.534   0.328   5.087  0.5266  0.5527  1.6606
 4027TIP3   OH233571   0.584   5.347   1.272 -0.4052 -0.0426 -0.0014
 4027TIP3    H133572   0.494   5.319   1.257  0.2897 -1.4056 -2.0319
 4027TIP3    H233573   0.622   5.281   1.330  0.0925 -1.2267 -1.5923
 4028TIP3   OH233574   4.366   6.271   2.719  0.3887  0.5021 -0.5699
 4028TIP3    H133575   4.383   6.211   2.647  1.8894  1.3022 -0.9282
 4028TIP3    H233576   4.289   6.320   2.692 -0.2799 -0.6056 -0.6956
 4029TIP3   OH233577   2.166   3.198  11.303 -0.0794 -0.7150 -0.3047
 4029TIP3    H133578   2.082   3.158  11.281 -0.5108  0.5624 -1.0676
 4029TIP3    H233579   2.144   3.276  11.355  0.6210 -0.3340 -0.5612
 4030TIP3   OH233580   1.868   4.742  13.647  0.3356  0.5017 -0.1273
 4030TIP3    H133581   1.911   4.785  13.720 -0.3969 -0.3792  0.8457
 4030TIP3    H233582   1.823   4.813  13.601  3.2917  1.6006 -1.6300
 4031TIP3   OH233583   2.239   2.826   3.199 -0.5416  0.1975 -0.2012
 4031TIP3    H133584   2.298   2.869   3.261  1.6186 -1.2836 -1.1033
 4031TIP3    H233585   2.152   2.857   3.224  0.6403  3.5154  0.3975
 4032TIP3   OH233586   5.479   6.622   4.630 -0.0181  0.2947 -0.0662
 4032TIP3    H133587   5.538   6.697   4.631  0.6330 -0.2012 -0.6646
 4032TIP3    H233588   5.509   6.568   4.556  0.8969 -1.6317  1.5973
 4033TIP3   OH233589   1.977   2.798   2.184  0.3801 -0.2913  0.3085
 4033TIP3    H133590   1.929   2.881   2.195 -0.5070 -0.6143 -0.9206
 4033TIP3    H233591   1.980   2.785   2.089  1.9315 -0.8704  0.4201
 4034TIP3   OH233592   2.527   5.783  11.809  0.5606 -0.1098  0.0623
 4034TIP3    H133593   2.496   5.694  11.828  1.1726 -0.3991 -0.2611
 4034TIP3    H233594   2.617   5.785  11.841  1.0202 -0.0530 -1.1621
 4035TIP3   OH233595   5.258   4.599   1.639  0.6607  0.3607 -0.1927
 4035TIP3    H133596   5.226   4.685   1.665  0.4914 -0.1196  1.2759
 4035TIP3    H233597   5.298   4.613   1.553 -0.7786  1.5737 -0.6957
 4036TIP3   OH233598   3.593   2.847  11.645 -0.1870 -0.2133  0.6164
 4036TIP3    H133599   3.502   2.875  11.651 -1.1530 -2.1725 -2.3809
 4036TIP3    H233600   3.592   2.754  11.667  0.6283 -0.7571 -1.3431
 4037TIP3   OH233601   0.657   3.533   3.477  0.0147  0.0513  0.4660
 4037TIP3    H133602   0.594   3.592   3.518 -0.8594 -1.8516  2.0344
 4037TIP3    H233603   0.705   3.494   3.550  0.9526 -0.7593 -0.5379
 4038TIP3   OH233604   6.691   0.921   5.265  0.1101  0.0999  0.9397
 4038TIP3    H133605   6.745   0.878   5.199  3.0023  1.2333  2.4184
 4038TIP3    H233606   6.703   0.869   5.344 -1.7724 -0.1397  1.1182
 4039TIP3   OH233607   1.670   2.463  11.166  0.4054 -0.3359 -0.2395
 4039TIP3    H133608   1.660   2.481  11.073  0.6414  0.3501 -0.1382
 4039TIP3    H233609   1.605   2.395  11.185  0.1592 -0.2693 -0.8390
 4040TIP3   OH233610   6.214   4.112   3.335 -0.7214 -0.2077 -0.5829
 4040TIP3    H133611   6.200   4.017   3.344 -2.2447  0.0069 -0.4171
 4040TIP3    H233612   6.177   4.149   3.416  1.4978  0.4245  0.2321
 4041TIP3   OH233613   5.615   3.041   5.825 -0.1907 -0.7687 -0.0855
 4041TIP3    H133614   5.538   2.991   5.851 -0.8496  0.8573  1.2259
 4041TIP3    H233615   5.635   3.096   5.901  2.0083 -0.8268 -0.5588
 4042TIP3   OH233616   2.098   2.032  11.701 -0.8476  0.5601  0.2109
 4042TIP3    H133617   2.063   2.090  11.633 -0.1410  2.8693  1.7175
 4042TIP3    H233618   2.114   2.089  11.776 -1.5727 -1.8881  2.3584
 4043TIP3   OH233619   2.023   6.088  11.405  0.0924  0.5039  0.1060
 4043TIP3    H133620   2.062   6.096  11.318 -0.7251  1.2531 -0.1989
 4043TIP3    H233621   2.087   6.131  11.463  0.4554  0.3450 -0.1697
 4044TIP3   OH233622   2.086   5.068  16.837 -0.0388  0.2263  0.0222
 4044TIP3    H133623   2.080   5.163  16.827 -2.3409  0.2039  0.5680
 4044TIP3    H233624   2.110   5.035  16.751  0.2379  1.2786 -0.3069
 4045TIP3   OH233625   5.490   0.051  12.138  0.1321 -0.1845  0.2532
 4045TIP3    H133626   5.569   0.055  12.085  0.0808 -1.0583  0.0972
 4045TIP3    H233627   5.492   0.131  12.190  1.8524 -0.8283  1.2758
 4046TIP3   OH233628   3.252   2.731  16.514  0.1290  0.1240  0.1451
 4046TIP3    H133629   3.240   2.666  16.584  1.4096 -0.5511 -0.2352
 4046TIP3    H233630   3.181   2.712  16.452 -0.4457  0.1143  0.7955
 4047TIP3   OH233631   6.161   0.069   3.153  0.9109  0.3619  0.9112
 4047TIP3    H133632   6.116   0.095   3.233  1.2822 -1.1712  1.6572
 4047TIP3    H233633   6.158  -0.026   3.153 -0.1346  0.2985 -1.5429
 4048TIP3   OH233634   4.955   1.879   1.706  0.4089  0.2069 -0.7073
 4048TIP3    H133635   4.928   1.954   1.653  1.0056  0.2266 -0.9984
 4048TIP3    H233636   4.897   1.881   1.782 -0.8706 -0.1876 -1.6488
 4049TIP3   OH233637   0.355   5.962   1.149  0.2070  0.9023 -0.1153
 4049TIP3    H133638   0.349   5.869   1.172  0.5845  0.7319 -0.6782
 4049TIP3    H233639   0.351   5.963   1.053 -0.2636  1.5065 -0.0946
 4050TIP3   OH233640   5.102   6.822  16.671 -0.4753  0.0602  0.0848
 4050TIP3    H133641   5.009   6.800  16.669 -0.0655 -1.8952 -1.2091
 4050TIP3    H233642   5.117   6.870  16.590 -0.9274  3.5249  1.8860
 4051TIP3   OH233643   5.108   6.233   1.780 -0.1552 -0.0921  0.3479
 4051TIP3    H133644   5.031   6.182   1.806  0.6417 -2.6293 -1.8556
 4051TIP3    H233645   5.092   6.256   1.688  2.8910 -3.4069 -1.2364
 4052TIP3   OH233646   4.329   5.114  16.466 -0.0867 -0.3824  0.0704
 4052TIP3    H133647   4.246   5.103  16.513  0.3649 -0.3737  0.8955
 4052TIP3    H233648   4.305   5.158  16.385 -0.6681  1.5540  1.2250
 4053TIP3   OH233649   2.561   1.448  12.691 -0.2690  0.0569  0.1546
 4053TIP3    H133650   2.583   1.379  12.755 -2.7107 -1.9033 -0.9592
 4053TIP3    H233651   2.629   1.440  12.624 -0.3701 -1.1126  0.1688
 4054TIP3   OH233652   4.187   5.318  12.565  0.7620  0.0029  0.3520
 4054TIP3    H133653   4.238   5.399  12.568  1.5657 -0.5027  0.5941
 4054TIP3    H233654   4.161   5.303  12.656  2.0448 -0.8905  0.5926
 4055TIP3   OH233655   5.250   1.158   1.307 -0.6478 -0.8458  0.4112
 4055TIP3    H133656   5.292   1.077   1.336 -1.0243 -0.5190  1.9588
 4055TIP3    H233657   5.232   1.143   1.214 -1.7760 -3.0053  0.9040
 4056TIP3   OH233658   5.923   2.861  17.055  0.2865  0.7431 -0.1132
 4056TIP3    H133659   6.005   2.892  17.095 -0.4070  0.6525  1.4480
 4056TIP3    H233660   5.866   2.842  17.129 -0.7892 -0.2281 -1.1502
 4057TIP3   OH233661   3.418   3.891  13.203  0.4663  0.6360  0.6682
 4057TIP3    H133662   3.463   3.807  13.191 -0.0022  0.5109 -0.3185
 4057TIP3    H233663   3.355   3.874  13.274 -0.6398 -0.3006 -0.4822
 4058TIP3   OH233664   4.285   2.574   5.666  0.3102  0.2820 -0.6884
 4058TIP3    H133665   4.253   2.655   5.626  0.7971  0.5925 -0.4718
 4058TIP3    H233666   4.236   2.567   5.748  0.3380  0.4130 -0.6599
 4059TIP3   OH233667   3.111   3.695  10.395 -0.0286  0.2037 -0.3959
 4059TIP3    H133668   3.173   3.711  10.324  2.1381 -0.7900  1.1432
 4059TIP3    H233669   3.154   3.732  10.472 -1.2058 -0.8384  0.7950
 4060TIP3   OH233670   2.402   0.000  15.020 -0.2182  0.0213 -0.0636
 4060TIP3    H133671   2.469   0.012  14.952 -1.0807  2.2755 -0.6291
 4060TIP3    H233672   2.400   0.084  15.066 -1.9431 -0.3415  0.5935
 4061TIP3   OH233673   2.906   4.057  13.744  0.4390 -0.4388  0.4337
 4061TIP3    H133674   2.970   4.105  13.691  0.1686 -1.0605 -0.4807
 4061TIP3    H233675   2.882   4.118  13.813  1.8803 -0.1218  0.6998
 4062TIP3   OH233676   0.833   1.396   1.339  0.0941 -0.1825  0.4302
 4062TIP3    H133677   0.783   1.458   1.287 -0.4944 -0.8183  0.2153
 4062TIP3    H233678   0.909   1.373   1.285 -0.6491 -1.0378 -0.2820
 4063TIP3   OH233679   0.541   2.312  11.345  0.1051 -0.0164  0.2909
 4063TIP3    H133680   0.495   2.336  11.265  0.2194 -0.2203  0.1653
 4063TIP3    H233681   0.474   2.314  11.413  0.3902  2.1930  0.5769
 4064TIP3   OH233682   3.193   1.001   4.902 -0.3143  0.6166 -0.0440
 4064TIP3    H133683   3.238   0.996   4.817 -0.1909  4.8600 -0.4287
 4064TIP3    H233684   3.102   1.017   4.879 -0.9517 -1.4927  0.7540
 4065TIP3   OH233685   3.014   2.850   1.990  0.1953 -0.0601  0.5824
 4065TIP3    H133686   3.050   2.905   1.921 -1.5064  0.2389 -0.1289
 4065TIP3    H233687   2.984   2.912   2.057 -1.3459 -0.1060 -0.0326
 4066TIP3   OH233688   4.388   6.525   1.242 -0.0495  0.1632  0.4127
 4066TIP3    H133689   4.442   6.604   1.239 -0.1808  0.2380 -0.7172
 4066TIP3    H233690   4.452   6.454   1.248  0.2688  0.2136 -1.5819
 4067TIP3   OH233691   5.127   5.940   6.368 -0.0186  0.0429 -1.0483
 4067TIP3    H133692   5.186   5.869   6.392 -0.8920  0.0319  1.3968
 4067TIP3    H233693   5.091   5.971   6.452 -1.9710  1.3410 -2.2679
 4068TIP3   OH233694   2.412   3.941   2.861 -0.6180  0.0311 -0.2828
 4068TIP3    H133695   2.388   3.872   2.923  2.2411 -0.6107  0.2213
 4068TIP3    H233696   2.386   4.023   2.904  1.0632 -0.4202  1.6937
 4069TIP3   OH233697   6.618   4.219   3.564 -0.3497 -0.1802  0.3346
 4069TIP3    H133698   6.661   4.280   3.504  0.4221 -0.0300  1.0222
 4069TIP3    H233699   6.528   4.252   3.572  0.1968  1.2101  1.1116
 4070TIP3   OH233700   5.092   2.382   5.917 -0.1214  0.3305 -0.1046
 4070TIP3    H133701   5.090   2.288   5.932  1.5556  0.3439  0.3783
 4070TIP3    H233702   5.093   2.392   5.822 -0.7213 -0.1117 -0.1600
 4071TIP3   OH233703   0.609   0.807  16.171  0.1558 -0.3662 -0.0281
 4071TIP3    H133704   0.555   0.886  16.166  1.2381  0.4490  0.4871
 4071TIP3    H233705   0.693   0.834  16.134  0.5380 -1.2768  0.1610
 4072TIP3   OH233706   4.792   4.266  16.679 -0.0355  0.2340  0.1187
 4072TIP3    H133707   4.880   4.243  16.708 -0.2917 -0.3004  0.4983
 4072TIP3    H233708   4.790   4.241  16.586  0.5707  1.3168 -0.1973
 4073TIP3   OH233709   2.501   2.663   3.108  0.2854  0.7699  0.1379
 4073TIP3    H133710   2.456   2.618   3.037  1.3665  0.4652 -0.3746
 4073TIP3    H233711   2.438   2.728   3.139 -0.5077  0.3349 -0.5297
 4074TIP3   OH233712   4.253   6.510  11.053 -0.4277  0.0829 -0.1336
 4074TIP3    H133713   4.325   6.532  10.993  0.3478 -0.3973  0.5959
 4074TIP3    H233714   4.174   6.530  11.003  0.1523 -1.5874 -1.8481
 4075TIP3   OH233715   5.534   1.535  14.256 -0.8099 -0.0910  0.3300
 4075TIP3    H133716   5.547   1.503  14.167 -0.9651  1.2918 -0.2159
 4075TIP3    H233717   5.447   1.502  14.280 -0.2758 -1.4946  0.4655
 4076TIP3   OH233718   3.238   1.262  16.960  0.0785 -0.2851  0.6766
 4076TIP3    H133719   3.265   1.279  17.050  1.0726  1.6324  0.0745
 4076TIP3    H233720   3.151   1.303  16.953 -0.1388 -0.7137  0.8411
 4077TIP3   OH233721   3.249   4.247  14.734  0.0656  0.4189  0.2176
 4077TIP3    H133722   3.220   4.337  14.746  0.4560  0.4246  1.2474
 4077TIP3    H233723   3.269   4.217  14.823  1.0691 -0.2985 -0.2381
 4078TIP3   OH233724   5.608   2.373  13.227  0.4147  0.1401 -0.0379
 4078TIP3    H133725   5.643   2.400  13.142 -1.0572  1.2329 -0.3327
 4078TIP3    H233726   5.675   2.314  13.262  0.7554 -0.9151 -2.2508
 4079TIP3   OH233727   0.914   1.477  15.896 -0.3943  0.2193  0.1398
 4079TIP3    H133728   1.008   1.486  15.876 -0.0816  3.5184  2.3115
 4079TIP3    H233729   0.912   1.438  15.983 -1.0219  0.4161  0.2160
 4080TIP3   OH233730   6.480   6.259   0.486  0.0689  0.5480 -0.7564
 4080TIP3    H133731   6.437   6.334   0.526  0.1129  1.2720 -2.0337
 4080TIP3    H233732   6.549   6.296   0.432  0.7485 -0.4761 -0.6312
 4081TIP3   OH233733   2.304   3.743   3.054  0.0753  0.4802  0.2640
 4081TIP3    H133734   2.220   3.730   3.010  0.0694  1.4095 -0.0227
 4081TIP3    H233735   2.316   3.664   3.106 -0.8536  0.2182  0.1041
 4082TIP3   OH233736   1.758   5.763   5.968  0.1922  0.1226 -0.1329
 4082TIP3    H133737   1.801   5.787   6.050  1.8429  0.5062 -1.0618
 4082TIP3    H233738   1.665   5.778   5.984  0.5887  1.2792  1.3105
 4083TIP3   OH233739   3.308   1.128   1.589 -0.2773  0.8978 -0.0661
 4083TIP3    H133740   3.222   1.130   1.630 -0.3195  0.1207 -0.1036
 4083TIP3    H233741   3.293   1.164   1.501 -0.7372 -0.0464 -0.3800
 4084TIP3   OH233742   0.474   3.965  12.251  0.2745  0.4815  0.3620
 4084TIP3    H133743   0.422   4.044  12.242  0.8177  0.9431  1.1490
 4084TIP3    H233744   0.563   3.992  12.227  0.2961 -0.1249 -0.2893
 4085TIP3   OH233745   6.356   6.801  13.512 -0.6914 -0.2231  0.4232
 4085TIP3    H133746   6.395   6.756  13.437  0.4524  1.4906 -0.0666
 4085TIP3    H233747   6.278   6.844  13.477 -2.2285 -2.2946  1.0528
 4086TIP3   OH233748   3.582   3.124  15.229 -0.4776  0.3860  0.1881
 4086TIP3    H133749   3.555   3.061  15.162 -0.6360  0.6779 -0.0272
 4086TIP3    H233750   3.666   3.090  15.261  0.9664  1.6147 -2.0103
 4087TIP3   OH233751   1.859   2.089   2.280 -0.9239  0.3843 -0.3076
 4087TIP3    H133752   1.870   2.154   2.211  0.8291 -0.5350 -0.9547
 4087TIP3    H233753   1.853   2.140   2.361 -1.7027  1.4195 -0.9897
 4088TIP3   OH233754   0.476   1.591   2.477 -0.2706 -0.0903  0.5121
 4088TIP3    H133755   0.441   1.680   2.488  0.6313  0.0923  2.2685
 4088TIP3    H233756   0.486   1.558   2.567  1.4077 -1.1472 -0.0161
 4089TIP3   OH233757   1.635   6.135   1.004  0.0893  0.0312  0.4159
 4089TIP3    H133758   1.707   6.077   1.028  0.6369  0.2648 -0.6029
 4089TIP3    H233759   1.560   6.077   0.993  1.1952 -0.9834 -3.1914
 4090TIP3   OH233760   3.239   5.872  16.950  0.1080  0.2935  0.5773
 4090TIP3    H133761   3.324   5.833  16.927  0.9941  1.9158  0.9117
 4090TIP3    H233762   3.203   5.900  16.866  0.5144  0.7514  0.5494
 4091TIP3   OH233763   2.103   0.153   5.610 -0.0720  0.2490 -0.2826
 4091TIP3    H133764   2.174   0.146   5.547  0.9587  0.5509  0.8150
 4091TIP3    H233765   2.133   0.219   5.673 -0.8021 -0.4894  0.8626
 4092TIP3   OH233766   2.547   3.783  11.171 -0.1861 -0.5699 -0.0960
 4092TIP3    H133767   2.588   3.758  11.088  0.5902  1.0064 -0.2330
 4092TIP3    H233768   2.592   3.730  11.237 -1.5606 -2.6452 -0.7338
 4093TIP3   OH233769   0.898   5.075   1.704 -0.0170  0.1369 -0.0577
 4093TIP3    H133770   0.969   5.070   1.768 -0.4112  0.6280  0.4294
 4093TIP3    H233771   0.859   4.987   1.705 -1.0890  0.5892  1.6447
 4094TIP3   OH233772   2.657   3.040   2.996 -0.0023 -0.6596 -0.4741
 4094TIP3    H133773   2.573   3.073   2.965  0.6188  0.1246 -1.3541
 4094TIP3    H233774   2.647   3.034   3.091 -1.7879 -2.7080 -0.7292
 4095TIP3   OH233775   5.000   4.274  12.227  1.0005  0.0397 -0.4255
 4095TIP3    H133776   5.064   4.229  12.172  1.4997  0.9825 -0.6345
 4095TIP3    H233777   4.938   4.313  12.165  2.2569  2.1524 -0.4348
 4096TIP3   OH233778   2.792   5.214  15.474 -0.8049 -0.4533 -0.2122
 4096TIP3    H133779   2.789   5.118  15.472  0.5211 -0.5062 -0.3852
 4096TIP3    H233780   2.702   5.240  15.492 -0.9982 -1.7600  0.8767
 4097TIP3   OH233781   3.923   0.761   3.331  0.7513 -0.0909  0.3287
 4097TIP3    H133782   3.849   0.701   3.324 -0.4269  1.2924  0.3703
 4097TIP3    H233783   3.882   0.848   3.337  2.3413  0.6172  1.5777
 4098TIP3   OH233784   4.636   0.153   5.687 -0.0971 -0.7381  0.2798
 4098TIP3    H133785   4.559   0.174   5.740  1.1193 -1.0100  2.2618
 4098TIP3    H233786   4.689   0.096   5.743  2.1700  0.4937 -0.4941
 4099TIP3   OH233787   1.778   5.980   2.253  0.6924  0.4380 -0.4722
 4099TIP3    H133788   1.771   6.062   2.204 -1.8203  1.7473  1.8086
 4099TIP3    H233789   1.734   5.916   2.198  0.8755  1.0811 -1.3968
 4100TIP3   OH233790   3.790   6.614   5.185 -0.0727  0.0211  0.3927
 4100TIP3    H133791   3.765   6.625   5.276  2.1424  1.0304  0.9366
 4100TIP3    H233792   3.829   6.526   5.181 -2.0455 -0.9086 -0.1217
 4101TIP3   OH233793   4.974   3.320  13.564 -0.1814  0.4867 -0.1169
 4101TIP3    H133794   4.884   3.342  13.587 -0.6333 -0.4258 -0.9448
 4101TIP3    H233795   4.984   3.347  13.473  0.2661  0.2472 -0.1441
 4102TIP3   OH233796   0.759   3.193   4.532 -0.3197 -0.8219  0.5651
 4102TIP3    H133797   0.811   3.233   4.462 -0.4557 -1.1041  0.3022
 4102TIP3    H233798   0.816   3.198   4.609 -0.8259  1.0849  0.8751
 4103TIP3   OH233799   2.652   6.816   3.463  0.1684  0.4106 -0.3264
 4103TIP3    H133800   2.614   6.843   3.546  0.9814  1.0290 -0.1361
 4103TIP3    H233801   2.577   6.808   3.403 -0.3526  0.5937  0.2915
 4104TIP3   OH233802   5.773   0.088   5.651 -0.0353  0.1266  0.5353
 4104TIP3    H133803   5.804   0.178   5.656  0.9912 -0.1988  0.3160
 4104TIP3    H233804   5.835   0.045   5.592 -0.1919 -0.8467  1.0567
 4105TIP3   OH233805   0.359   4.384  15.896 -0.2534  0.1064 -0.1704
 4105TIP3    H133806   0.447   4.370  15.930  0.2269 -0.0265 -1.4242
 4105TIP3    H233807   0.302   4.340  15.959  0.5500  0.3896  0.7766
 4106TIP3   OH233808   4.719   1.659  17.080 -0.3418  0.4351 -0.4445
 4106TIP3    H133809   4.682   1.717  17.147  0.3945 -0.9149  1.2258
 4106TIP3    H233810   4.780   1.603  17.129  1.7483  0.6986 -2.5862
 4107TIP3   OH233811   0.656   2.716  13.744 -0.6042  0.4652 -0.2667
 4107TIP3    H133812   0.723   2.748  13.684  1.0105  0.2453  1.3314
 4107TIP3    H233813   0.605   2.654  13.692  0.5637  0.4938 -1.4965
 4108TIP3   OH233814   3.452   4.429   3.062 -0.0099 -0.0363  0.3835
 4108TIP3    H133815   3.411   4.475   2.989 -0.7568  0.6725  1.2273
 4108TIP3    H233816   3.525   4.381   3.022 -0.0749  0.7534 -0.7336
 4109TIP3   OH233817   4.551   2.077  15.589 -0.3016 -0.4592  0.4476
 4109TIP3    H133818   4.574   2.064  15.497  0.6934 -1.2678  0.7961
 4109TIP3    H233819   4.459   2.102  15.587  0.5749  3.4455 -1.0535
 4110TIP3   OH233820   5.594   5.794  15.008  0.2021 -0.0586  0.1128
 4110TIP3    H133821   5.522   5.733  15.020 -0.0647  0.4809  1.4313
 4110TIP3    H233822   5.588   5.853  15.083  1.1863  0.8396 -0.4872
 4111TIP3   OH233823   0.155   1.607  14.901 -0.2204  0.1374 -0.5661
 4111TIP3    H133824   0.078   1.637  14.853 -1.3196 -1.2222  0.2852
 4111TIP3    H233825   0.209   1.686  14.911 -1.8505  1.2965 -0.5418
 4112TIP3   OH233826   4.048   0.139  13.720 -0.1170  0.7316 -0.6022
 4112TIP3    H133827   4.007   0.131  13.634 -0.1348 -1.4507 -0.4417
 4112TIP3    H233828   4.026   0.227  13.748 -1.4819  0.9449 -2.1483
 4113TIP3   OH233829   0.428   3.188  14.250  0.1260 -0.2776  0.1011
 4113TIP3    H133830   0.367   3.226  14.187  0.0578  0.1517  0.4190
 4113TIP3    H233831   0.448   3.259  14.311  1.8070 -0.0896 -0.6188
 4114TIP3   OH233832   4.520   0.571   4.545  0.3667 -0.2537 -0.1258
 4114TIP3    H133833   4.480   0.484   4.551 -1.0203  0.3111 -0.7317
 4114TIP3    H233834   4.614   0.555   4.559  0.1697 -1.8677 -0.4275
 4115TIP3   OH233835   0.932   1.082   5.115 -0.1084 -0.1257 -0.1757
 4115TIP3    H133836   0.846   1.114   5.142 -0.0880 -0.4173  0.2362
 4115TIP3    H233837   0.980   1.068   5.196 -0.1520 -1.3105 -0.3308
 4116TIP3   OH233838   4.345   5.490   6.107 -0.5169 -0.4395 -0.2101
 4116TIP3    H133839   4.345   5.530   6.193 -1.2690  0.8414 -0.7839
 4116TIP3    H233840   4.312   5.558   6.048  0.2971 -1.1586 -1.5660
 4117TIP3   OH233841   0.093   3.091  14.294 -0.2653 -0.3003  0.0492
 4117TIP3    H133842   0.038   3.053  14.226  0.7984 -1.1345 -0.3779
 4117TIP3    H233843   0.144   3.159  14.250  0.0375 -0.4726  0.1284
 4118TIP3   OH233844   6.672   1.244  14.621  0.6236  0.0899  0.2669
 4118TIP3    H133845   6.688   1.156  14.654  0.1884 -0.6560 -1.3786
 4118TIP3    H233846   6.579   1.260  14.637  0.5951  0.0474  0.1499
 4119TIP3   OH233847   1.876   4.021   3.291 -0.4450 -0.4783  0.3956
 4119TIP3    H133848   1.956   3.975   3.317  0.7586  0.5907 -1.2242
 4119TIP3    H233849   1.902   4.075   3.217 -2.6156  0.1735  0.0286
 4120TIP3   OH233850   2.465   4.129   4.299 -0.5521  0.0228 -0.5178
 4120TIP3    H133851   2.478   4.036   4.282 -0.6054  0.1342 -1.1968
 4120TIP3    H233852   2.375   4.146   4.272 -0.4925  0.3008 -0.5446
 4121TIP3   OH233853   0.951   5.268  15.333 -0.4449 -0.0582  0.2326
 4121TIP3    H133854   0.928   5.346  15.283 -1.3254 -1.4797 -1.6783
 4121TIP3    H233855   0.974   5.302  15.420 -0.2178  2.3598 -0.6918
 4122TIP3   OH233856   0.580   6.353  11.943 -0.7060 -0.4693 -0.9992
 4122TIP3    H133857   0.508   6.392  11.893 -0.8937 -0.8330 -1.0136
 4122TIP3    H233858   0.575   6.259  11.923 -0.3305 -0.5165 -0.8710
 4123TIP3   OH233859   3.173   3.103   6.471 -0.3100  0.1814 -0.2924
 4123TIP3    H133860   3.160   3.118   6.564 -0.5719 -0.9121 -0.1412
 4123TIP3    H233861   3.225   3.022   6.467  0.1874  0.5278 -1.0789
 4124TIP3   OH233862   2.974   2.169   1.706 -0.4397 -0.3404  0.0900
 4124TIP3    H133863   2.904   2.183   1.771 -0.0878  1.0065  0.2153
 4124TIP3    H233864   2.928   2.168   1.622 -0.7445 -0.7449  0.2546
 4125TIP3   OH233865   2.495   4.785   4.649 -0.2826  0.7851 -0.1361
 4125TIP3    H133866   2.458   4.838   4.719  1.6078  2.5365 -0.3509
 4125TIP3    H233867   2.588   4.779   4.671  0.0120 -0.1923 -1.5355
 4126TIP3   OH233868   1.368   3.510  13.442  0.1767  0.4021 -0.0288
 4126TIP3    H133869   1.458   3.488  13.468 -0.2757 -2.0538 -0.2464
 4126TIP3    H233870   1.317   3.432  13.464 -1.4315  0.7249 -2.2599
 4127TIP3   OH233871   5.299   4.131  12.459 -1.0593  0.8253 -0.1755
 4127TIP3    H133872   5.319   4.209  12.406 -0.8712  0.5311 -0.5415
 4127TIP3    H233873   5.377   4.076  12.451 -1.9264 -0.2702 -1.4938
 4128TIP3   OH233874   4.112   0.399  13.797  0.2190 -0.0330 -0.0571
 4128TIP3    H133875   4.145   0.447  13.873 -0.0239  0.0307  0.0093
 4128TIP3    H233876   4.182   0.405  13.732  0.7981 -0.8435  0.4716
 4129TIP3   OH233877   5.974   0.194   4.188 -0.0956  0.1304  0.0955
 4129TIP3    H133878   6.052   0.145   4.216  0.2382 -0.2729 -1.4617
 4129TIP3    H233879   5.992   0.219   4.098 -1.2358  1.1826  0.1284
 4130TIP3   OH233880   1.570   4.904  13.655  0.6660 -0.6811 -0.0388
 4130TIP3    H133881   1.532   4.824  13.617 -1.4686 -0.6292  1.7854
 4130TIP3    H233882   1.599   4.877  13.742 -0.0496  0.4985  0.5833
 4131TIP3   OH233883   5.524   3.539   3.842  0.1104  0.3473 -0.2117
 4131TIP3    H133884   5.485   3.605   3.899 -0.2555 -1.6186  1.9630
 4131TIP3    H233885   5.456   3.519   3.777 -0.6567  0.4165  0.5607
 4132TIP3   OH233886   1.302   4.227   5.361 -0.0551 -0.0160 -0.8726
 4132TIP3    H133887   1.232   4.290   5.345 -0.1779 -0.4788 -2.3087
 4132TIP3    H233888   1.355   4.229   5.282  2.2175  1.0944  0.5780
 4133TIP3   OH233889   6.452   1.465   4.473 -0.5332  0.7218 -0.0220
 4133TIP3    H133890   6.377   1.435   4.422 -1.1397  0.9821  0.6930
 4133TIP3    H233891   6.414   1.492   4.557  0.0894  2.5534 -0.2767
 4134TIP3   OH233892   1.498   1.741   2.434  0.1654  0.0361 -0.6108
 4134TIP3    H133893   1.504   1.742   2.530 -1.2118 -2.4236 -0.4114
 4134TIP3    H233894   1.508   1.832   2.409 -0.9971  1.0097  2.0171
 4135TIP3   OH233895   6.288   3.158   1.834  0.3710  0.2260 -0.0161
 4135TIP3    H133896   6.290   3.194   1.745 -0.2089  0.8274  0.2018
 4135TIP3    H233897   6.312   3.066   1.823 -1.5791 -0.2323 -1.0809
 4136TIP3   OH233898   1.127   2.648   3.835  0.0909 -0.8136 -0.3063
 4136TIP3    H133899   1.222   2.635   3.840  0.3387  0.7320 -0.3053
 4136TIP3    H233900   1.112   2.673   3.744 -0.0393  0.5550  0.0547
 4137TIP3   OH233901   5.176   2.843  13.090 -0.0232  0.0881  0.9491
 4137TIP3    H133902   5.127   2.855  13.171 -0.6590 -0.2160  0.6180
 4137TIP3    H233903   5.148   2.758  13.057 -2.5135  1.6377 -1.4082
 4138TIP3   OH233904   3.382   6.484  12.994  0.1062 -0.1243  0.2560
 4138TIP3    H133905   3.305   6.427  12.991 -0.4983  0.6711  0.2729
 4138TIP3    H233906   3.375   6.529  13.079  0.2941  0.3562  0.0183
 4139TIP3   OH233907   3.666   2.462  11.087 -0.1078  0.1136 -0.6657
 4139TIP3    H133908   3.614   2.534  11.052  0.6015  0.0081 -2.0050
 4139TIP3    H233909   3.610   2.422  11.153 -0.8116  1.4061 -0.4602
 4140TIP3   OH233910   2.985   2.458  11.362  0.0930  0.5525  0.2971
 4140TIP3    H133911   3.005   2.550  11.347 -0.8282  0.6303 -0.5674
 4140TIP3    H233912   3.049   2.429  11.427  1.0534  1.5249 -0.1980
 4141TIP3   OH233913   6.771   0.374  14.417  0.1538 -0.4591  0.3197
 4141TIP3    H133914   6.693   0.385  14.472  0.5698  0.2818  0.7860
 4141TIP3    H233915   6.797   0.464  14.396  1.1472 -0.6775  0.5598
 4142TIP3   OH233916   0.200   5.566   6.090  0.0098  0.7558 -0.3649
 4142TIP3    H133917   0.161   5.651   6.109 -0.3819  0.1857  1.6082
 4142TIP3    H233918   0.277   5.561   6.147 -0.8841 -0.8343  0.7723
 4143TIP3   OH233919   3.993   4.630  11.102  0.4903  0.2364  0.6059
 4143TIP3    H133920   3.964   4.623  11.011  0.2817  0.8286  0.6267
 4143TIP3    H233921   3.922   4.589  11.153  0.3129  0.4776  0.5526
 4144TIP3   OH233922   5.634   5.481   3.433  0.0566  0.1091  0.0970
 4144TIP3    H133923   5.607   5.479   3.525 -2.6022  0.6798 -0.6054
 4144TIP3    H233924   5.666   5.570   3.419 -0.7138  0.3979  0.1637
 4145TIP3   OH233925   2.696   4.305   3.921  0.3850 -0.5058 -0.0344
 4145TIP3    H133926   2.791   4.303   3.931  0.2947 -1.0967  0.7520
 4145TIP3    H233927   2.676   4.229   3.866  0.3788 -0.2875 -0.3365
 4146TIP3   OH233928   1.805   6.714  11.447  0.2648 -0.0242  0.0418
 4146TIP3    H133929   1.772   6.624  11.437 -2.5067  0.8402  0.4572
 4146TIP3    H233930   1.837   6.737  11.360  2.4211 -1.8479  0.2689
 4147TIP3   OH233931   0.768   3.976   4.713  0.4473  0.2032 -0.2528
 4147TIP3    H133932   0.812   3.907   4.762  0.2663 -0.7807 -1.4303
 4147TIP3    H233933   0.690   3.996   4.765  0.0793 -1.0638 -0.2802
 4148TIP3   OH233934   1.721   1.094   2.376  0.2258  0.1091  0.2311
 4148TIP3    H133935   1.635   1.100   2.416  0.4114 -0.5087  0.7321
 4148TIP3    H233936   1.774   1.159   2.424 -0.3420  1.6562 -1.1387
 4149TIP3   OH233937   0.666   3.118  16.961 -0.8689 -0.2323 -0.2721
 4149TIP3    H133938   0.602   3.090  17.026 -0.4016 -2.3536 -0.6482
 4149TIP3    H233939   0.666   3.049  16.896  1.2321  0.0995 -0.6944
 4150TIP3   OH233940   6.269   2.244   5.669  0.1631 -0.0530 -1.1390
 4150TIP3    H133941   6.193   2.299   5.652  0.2752  0.3546 -0.3542
 4150TIP3    H233942   6.262   2.174   5.604 -0.1662  0.6869 -1.9297
 4151TIP3   OH233943   5.079   5.669   4.955  0.0697  0.2787 -0.3669
 4151TIP3    H133944   4.994   5.689   4.992  0.2292  0.0336  0.1414
 4151TIP3    H233945   5.134   5.743   4.978  0.1698  0.1254 -0.1070
 4152TIP3   OH233946   1.362   1.259   5.419  0.4468  0.5540  0.3883
 4152TIP3    H133947   1.300   1.213   5.475 -1.4191  2.5825  0.1177
 4152TIP3    H233948   1.389   1.195   5.354 -1.0823 -0.4847  0.7400
 4153TIP3   OH233949   1.763   3.301  11.478 -0.2181 -0.4752 -0.0769
 4153TIP3    H133950   1.841   3.284  11.531 -1.1318 -4.3380  0.3397
 4153TIP3    H233951   1.692   3.308  11.541 -0.4492  2.1796 -0.5090
 4154TIP3   OH233952   6.536   4.861  13.653 -0.3814 -0.0931 -0.6737
 4154TIP3    H133953   6.622   4.886  13.686 -0.2320 -1.4792  0.0443
 4154TIP3    H233954   6.507   4.937  13.603  1.1536  0.4802 -0.7423
 4155TIP3   OH233955   6.279   0.083  12.838  0.1657 -0.7114  0.9028
 4155TIP3    H133956   6.332   0.010  12.807  1.8900  0.6034  0.6048
 4155TIP3    H233957   6.198   0.079  12.786  1.2795 -0.9564 -0.8815
 4156TIP3   OH233958   6.490   2.883   2.876 -0.1492  0.8127 -0.4159
 4156TIP3    H133959   6.573   2.899   2.830  0.5359  0.4667  0.6407
 4156TIP3    H233960   6.429   2.855   2.808  0.3259  2.0179 -1.3638
 4157TIP3   OH233961   1.812   5.406   1.479  0.6440 -0.1498  0.4863
 4157TIP3    H133962   1.734   5.423   1.530  0.9974 -2.0791  1.7760
 4157TIP3    H233963   1.780   5.363   1.400  0.4017 -1.6410  1.3568
 4158TIP3   OH233964   3.325   6.262  12.591 -0.3860 -0.2535 -0.7312
 4158TIP3    H133965   3.397   6.270  12.530  0.5051  0.8058  0.4114
 4158TIP3    H233966   3.348   6.188  12.647  1.4977  1.9281  1.6552
 4159TIP3   OH233967   3.184   4.786   4.262  0.1461 -0.4485  0.3574
 4159TIP3    H133968   3.262   4.840   4.246 -0.9026  1.2013  0.5352
 4159TIP3    H233969   3.202   4.704   4.217  1.3487  0.4683 -0.9347
 4160TIP3   OH233970   3.939   0.182   5.553  0.4402 -0.5566 -0.2184
 4160TIP3    H133971   3.879   0.237   5.604  2.4188  3.5596 -1.8470
 4160TIP3    H233972   3.889   0.157   5.475  0.5971  2.7142 -1.5036
 4161TIP3   OH233973   1.835   1.189   5.087 -0.2846 -0.2466  0.0489
 4161TIP3    H133974   1.790   1.110   5.118  0.0539 -0.3361  0.3111
 4161TIP3    H233975   1.825   1.185   4.991  0.2314 -0.9134  0.0193
 4162TIP3   OH233976   4.315   4.609   0.946  0.1927  0.3886  0.3307
 4162TIP3    H133977   4.308   4.533   0.888 -0.2854 -0.0324  0.9263
 4162TIP3    H233978   4.263   4.677   0.903 -1.1860 -0.2993  0.8484
 4163TIP3   OH233979   3.215   6.791   1.738  0.2506  0.6723  0.3778
 4163TIP3    H133980   3.236   6.884   1.750  1.7898  0.3867  0.1673
 4163TIP3    H233981   3.120   6.787   1.739  0.1760  2.1034  1.5269
 4164TIP3   OH233982   5.574   0.189  16.389 -0.0032 -0.2424  0.4557
 4164TIP3    H133983   5.594   0.098  16.365  0.4363  0.0314 -0.2455
 4164TIP3    H233984   5.615   0.241  16.321 -1.4725  0.4315  0.0394
 4165TIP3   OH233985   4.045   5.531  16.878  0.1105  0.2035  0.5301
 4165TIP3    H133986   4.018   5.495  16.962  0.3029 -1.5768 -0.1151
 4165TIP3    H233987   4.007   5.619  16.876 -0.7993 -0.1202  2.0119
 4166TIP3   OH233988   1.077   4.535   4.003  0.9165  0.3546  0.2436
 4166TIP3    H133989   1.070   4.470   3.933 -0.5027  0.8156 -0.0642
 4166TIP3    H233990   1.063   4.485   4.083 -0.5448  0.3143 -0.0163
 4167TIP3   OH233991   2.494   2.233   1.823 -0.0344  0.7532  0.1264
 4167TIP3    H133992   2.424   2.272   1.771 -0.9615 -0.5116  0.4063
 4167TIP3    H233993   2.450   2.188   1.895  0.9716 -0.9618 -0.2697
 4168TIP3   OH233994   3.728   5.453  11.646 -0.5432  0.7401 -0.1281
 4168TIP3    H133995   3.781   5.464  11.568 -1.5385 -0.9320 -1.0950
 4168TIP3    H233996   3.661   5.522  11.639 -0.0433  1.2298 -0.2057
 4169TIP3   OH233997   4.544   2.548   5.052 -0.7689  0.4822  0.0995
 4169TIP3    H133998   4.622   2.603   5.059  0.8150 -1.2414 -2.2201
 4169TIP3    H233999   4.483   2.599   4.999 -0.3582  0.9762  0.0907
 4170TIP3   OH234000   0.594   3.378  14.153 -0.0114 -0.2781  0.4543
 4170TIP3    H134001   0.521   3.431  14.183  0.6614  0.6663  0.4711
 4170TIP3    H234002   0.561   3.288  14.154 -1.0987  0.1114  0.6434
 4171TIP3   OH234003   5.462   4.356   2.854  0.2148  0.6687 -0.3329
 4171TIP3    H134004   5.445   4.266   2.825  1.2778 -0.1491  1.3709
 4171TIP3    H234005   5.381   4.403   2.837 -0.0061 -0.3334 -2.2724
 4172TIP3   OH234006   0.968   1.596   0.744 -1.0891  0.6916  0.0105
 4172TIP3    H134007   1.009   1.633   0.667  0.1551 -0.3170  0.1545
 4172TIP3    H234008   0.884   1.562   0.713 -0.0589 -0.8744 -1.2269
 4173TIP3   OH234009   1.522   5.334  15.791  0.6625  0.2316  0.4008
 4173TIP3    H134010   1.497   5.252  15.833  1.5745 -0.3187 -0.0956
 4173TIP3    H234011   1.440   5.370  15.758  0.1921 -0.2521  0.9997
 4174TIP3   OH234012   0.062   0.595  16.703  0.1243  0.3014 -0.4938
 4174TIP3    H134013   0.001   0.565  16.636 -0.9240 -0.3651  0.6970
 4174TIP3    H234014   0.033   0.683  16.726 -0.8665 -0.2666  0.5480
 4175TIP3   OH234015   2.760   2.037   2.832 -0.3884 -0.1716 -0.4306
 4175TIP3    H134016   2.776   2.023   2.925 -1.1104  1.6219  0.0109
 4175TIP3    H234017   2.757   2.132   2.822 -2.3468 -0.3102 -1.9170
 4176TIP3   OH234018   6.632   1.397  15.731 -0.1309  0.9215 -0.0382
 4176TIP3    H134019   6.612   1.479  15.687  1.9821  1.0788 -0.8118
 4176TIP3    H234020   6.657   1.423  15.820  0.3809  1.1178 -0.2354
 4177TIP3   OH234021   6.517   1.147   4.979 -0.1359  0.1978  0.3645
 4177TIP3    H134022   6.595   1.099   5.008 -0.3682 -0.9516 -0.8384
 4177TIP3    H234023   6.543   1.239   4.983  1.4584 -0.1793 -0.4418
 4178TIP3   OH234024   0.754   6.186   1.571  0.0354  0.0391 -0.8931
 4178TIP3    H134025   0.808   6.257   1.606 -0.5287  0.4627 -0.8724
 4178TIP3    H234026   0.731   6.215   1.483  0.6656 -0.5975 -1.2795
 4179TIP3   OH234027   1.446   4.082   0.165 -0.8108 -0.2536  0.2671
 4179TIP3    H134028   1.485   4.169   0.154  0.3479 -1.0081 -2.0953
 4179TIP3    H234029   1.520   4.025   0.186 -1.3831 -0.8997  0.5867
 4180TIP3   OH234030   1.986   0.361   5.050 -0.0571 -0.5106 -0.2170
 4180TIP3    H134031   2.071   0.365   5.094 -1.2433 -5.4531  3.4234
 4180TIP3    H234032   1.930   0.419   5.102 -0.4990 -3.2945  2.7523
 4181TIP3   OH234033   2.566   1.698   0.341 -0.1757 -0.3059 -0.9383
 4181TIP3    H134034   2.582   1.652   0.424 -0.0762  0.9667 -0.2385
 4181TIP3    H234035   2.592   1.634   0.274  0.2881 -1.1507  0.0083
 4182TIP3   OH234036   1.524   6.123  11.319 -0.2787 -0.1174 -0.2506
 4182TIP3    H134037   1.461   6.127  11.246 -2.0685 -1.2139  1.1382
 4182TIP3    H234038   1.571   6.041  11.305  0.0134  0.1109 -0.6360
 4183TIP3   OH234039   4.717   5.951  16.893 -0.4174 -0.0919  0.5019
 4183TIP3    H134040   4.758   5.980  16.975 -1.8468 -0.4575  1.3867
 4183TIP3    H234041   4.630   5.923  16.919 -0.0174 -2.7895 -0.6978
 4184TIP3   OH234042   0.348   6.617  15.121 -0.0631  0.0146  0.2859
 4184TIP3    H134043   0.393   6.533  15.115 -1.0433 -0.5804  0.8602
 4184TIP3    H234044   0.384   6.659  15.199  0.6211  0.2521 -0.1549
 4185TIP3   OH234045   1.834   2.233   4.074 -0.1034 -0.0024 -0.1785
 4185TIP3    H134046   1.927   2.243   4.092 -0.2845  1.5112  0.0140
 4185TIP3    H234047   1.801   2.175   4.143  0.6845 -0.5794 -0.2777
 4186TIP3   OH234048   1.603   1.948  15.592  0.2661  0.0807  0.0358
 4186TIP3    H134049   1.539   1.879  15.610  1.1270 -0.5660  0.7212
 4186TIP3    H234050   1.588   1.972  15.500 -0.3219 -0.7332 -0.0893
 4187TIP3   OH234051   4.639   0.418  14.869 -0.5406  0.1655  0.0903
 4187TIP3    H134052   4.704   0.425  14.939  0.2232 -1.2686 -0.4382
 4187TIP3    H234053   4.598   0.505  14.866  1.5164  1.2194  0.2575
 4188TIP3   OH234054   6.234   6.756  14.430  0.0350 -0.6287  0.0075
 4188TIP3    H134055   6.265   6.728  14.344  2.0895 -0.7775  0.7314
 4188TIP3    H234056   6.238   6.676  14.484 -0.5052 -0.3810  0.4174
 4189TIP3   OH234057   0.288   1.209  12.849  0.1131  0.5562  0.2333
 4189TIP3    H134058   0.380   1.185  12.853  0.0255 -0.4414 -2.1452
 4189TIP3    H234059   0.247   1.138  12.799 -1.6785  1.6859  0.0035
 4190TIP3   OH234060   5.033   6.770  13.961  0.5290 -0.1864  0.7380
 4190TIP3    H134061   5.026   6.843  13.900  1.6793 -1.3019 -0.8045
 4190TIP3    H234062   4.959   6.712  13.939  0.4218 -0.1587  1.0180
 4191TIP3   OH234063   1.887   6.649  16.552  0.2756  0.3029 -0.7653
 4191TIP3    H134064   1.979   6.660  16.575  0.4303 -0.6201 -0.8934
 4191TIP3    H234065   1.840   6.650  16.635  0.4177  0.6027 -0.6886
 4192TIP3   OH234066   3.132   4.804  12.602 -0.7238  0.3296 -0.5859
 4192TIP3    H134067   3.199   4.871  12.601  0.7034 -1.0374 -0.9741
 4192TIP3    H234068   3.063   4.837  12.545 -0.6412  1.9889  0.2337
 4193TIP3   OH234069   6.212   3.500  16.752  0.1268 -0.1859 -0.0783
 4193TIP3    H134070   6.203   3.419  16.702 -0.8037 -0.0190 -0.2176
 4193TIP3    H234071   6.246   3.564  16.689 -0.2814 -0.1762 -0.2943
 4194TIP3   OH234072   6.359   5.432   0.943  0.1433  0.4573  0.6752
 4194TIP3    H134073   6.312   5.348   0.940  0.3246  0.3655  0.3696
 4194TIP3    H234074   6.373   5.455   0.852 -0.8044  1.3379  0.7348
 4195TIP3   OH234075   6.714   4.971  14.453 -0.5269 -0.1667  0.8749
 4195TIP3    H134076   6.795   4.977  14.505  1.2255  1.2120 -1.7704
 4195TIP3    H234077   6.693   5.062  14.431  0.2158 -0.6733 -2.6124
 4196TIP3   OH234078   1.180   1.887  16.099 -0.0137 -0.9242  0.1795
 4196TIP3    H134079   1.204   1.871  16.190 -0.6562 -2.3372  0.1245
 4196TIP3    H234080   1.121   1.962  16.102 -0.5696 -1.3844  1.0199
 4197TIP3   OH234081   5.479   0.858  12.159  0.1814  0.3216  0.2914
 4197TIP3    H134082   5.520   0.886  12.078 -1.8006 -0.8679 -1.2343
 4197TIP3    H234083   5.421   0.930  12.183  0.9306  0.7652  0.7903
 4198TIP3   OH234084   3.671   2.500   0.890 -0.6893  0.5531  0.1277
 4198TIP3    H134085   3.581   2.496   0.858 -0.3018  0.8468 -1.0563
 4198TIP3    H234086   3.713   2.567   0.836  0.0205  1.0228  1.2326
 4199TIP3   OH234087   6.697   6.741  13.809  0.2704 -0.8573  0.1925
 4199TIP3    H134088   6.779   6.759  13.855 -0.3791  2.1642  0.4099
 4199TIP3    H234089   6.707   6.784  13.724 -2.2744  3.0294  1.5674
 4200TIP3   OH234090   2.028   5.960   1.369 -0.5560 -0.0932  0.2327
 4200TIP3    H134091   1.964   5.998   1.430 -0.1629  0.9497  0.0111
 4200TIP3    H234092   2.042   6.027   1.303 -1.7217 -1.5769 -1.6203
 4201TIP3   OH234093   6.119   4.562  11.403 -0.6704 -0.1135 -0.0937
 4201TIP3    H134094   6.118   4.617  11.482 -0.4132  0.3912 -0.4333
 4201TIP3    H234095   6.079   4.480  11.430  0.2041 -0.2581  0.7856
 4202TIP3   OH234096   3.676   3.550  16.100 -0.3476  0.0220 -0.0932
 4202TIP3    H134097   3.620   3.621  16.132 -1.4947  0.3258 -2.5631
 4202TIP3    H234098   3.615   3.485  16.065  0.7126 -1.9175  1.4521
 4203TIP3   OH234099   0.195   3.758   4.909  0.9948  0.2090 -0.4020
 4203TIP3    H134100   0.156   3.688   4.857  2.1485 -0.2624 -0.6605
 4203TIP3    H234101   0.252   3.805   4.848  1.4905  0.3512  0.1550
 4204TIP3   OH234102   4.814   1.952  11.373  0.3313 -0.0384 -0.6856
 4204TIP3    H134103   4.851   2.036  11.401  0.6764 -0.7699  1.2893
 4204TIP3    H234104   4.866   1.927  11.297  1.3100  0.8064 -0.3201
 4205TIP3   OH234105   0.350   6.406  12.293 -0.9271 -0.1268 -0.0135
 4205TIP3    H134106   0.347   6.311  12.303  1.9619 -0.4215 -1.0875
 4205TIP3    H234107   0.426   6.434  12.344 -0.4327  1.2889 -1.4379
 4206TIP3   OH234108   5.139   2.989  16.792  0.5064 -0.7474 -0.4431
 4206TIP3    H134109   5.137   3.057  16.859 -2.4204  0.1929 -1.3560
 4206TIP3    H234110   5.208   3.017  16.732  0.2587  0.7167 -0.0765
 4207TIP3   OH234111   3.566   5.451  16.531  0.2546 -0.0221 -0.5796
 4207TIP3    H134112   3.625   5.397  16.478  1.2760  0.3697  0.1137
 4207TIP3    H234113   3.555   5.532  16.481  0.2184 -0.1378 -0.7595
 4208TIP3   OH234114   4.111   5.928   2.383 -0.2144 -0.3701  0.5518
 4208TIP3    H134115   4.113   5.851   2.327  0.2249  0.6640 -0.9150
 4208TIP3    H234116   4.189   5.921   2.437  0.4931 -0.3576 -0.4380
 4209TIP3   OH234117   4.034   5.829  11.518 -0.9996 -0.0397 -0.3272
 4209TIP3    H134118   4.087   5.875  11.453 -0.8604 -1.6266 -1.3681
 4209TIP3    H234119   4.097   5.797  11.582 -1.0016  0.3693 -0.1144
 4210TIP3   OH234120   5.934   2.552   0.171 -0.0146  0.2361 -0.1857
 4210TIP3    H134121   6.018   2.595   0.153  0.5345 -1.2110 -1.2426
 4210TIP3    H234122   5.895   2.604   0.241  2.2117  0.3736  1.0175
 4211TIP3   OH234123   6.005   5.493   2.799  0.5827 -0.2911  0.1318
 4211TIP3    H134124   6.064   5.424   2.769  0.4427 -0.2710 -0.1933
 4211TIP3    H234125   6.025   5.504   2.891  0.9864 -0.3876  0.0538
 4212TIP3   OH234126   0.273   6.614   3.811 -0.0462 -0.0718 -0.2985
 4212TIP3    H134127   0.276   6.592   3.718  0.5456 -0.5666 -0.1676
 4212TIP3    H234128   0.284   6.709   3.814 -1.4738  0.1326 -0.8050
 4213TIP3   OH234129   0.926   4.447  16.078  0.4259  0.1083 -0.4551
 4213TIP3    H134130   0.863   4.381  16.108  0.2124  1.6061  2.9198
 4213TIP3    H234131   0.881   4.531  16.092  2.5140  1.1621  0.5245
 4214TIP3   OH234132   2.422   0.224   4.240 -0.0517  0.3041 -0.2889
 4214TIP3    H134133   2.438   0.131   4.227 -1.8321  0.1348 -1.6845
 4214TIP3    H234134   2.330   0.236   4.216 -0.0494  2.3100  0.5168
 4215TIP3   OH234135   5.676   2.703   2.637 -0.2200  0.4164 -0.0945
 4215TIP3    H134136   5.709   2.617   2.613  0.7561  1.0706 -1.1786
 4215TIP3    H234137   5.603   2.719   2.578 -1.3191 -0.2336  1.0451
 4216TIP3   OH234138   4.757   5.326  14.888 -0.0481 -0.0899 -0.2345
 4216TIP3    H134139   4.758   5.397  14.824 -2.2022 -1.8958 -2.4484
 4216TIP3    H234140   4.668   5.328  14.925  0.0280 -1.2903  0.0584
 4217TIP3   OH234141   3.940   0.514   4.478  0.0652 -0.0503  0.1700
 4217TIP3    H134142   4.004   0.446   4.501  0.1340  0.0077  0.1489
 4217TIP3    H234143   3.927   0.503   4.383  1.7442  1.3865 -0.2848
 4218TIP3   OH234144   6.265   0.858   6.314  0.4160 -0.2429  0.0066
 4218TIP3    H134145   6.301   0.906   6.388 -1.3229  0.2584  0.5614
 4218TIP3    H234146   6.222   0.781   6.352  0.6546 -0.7010 -0.6137
 4219TIP3   OH234147   3.277   3.326  14.267  0.1213  0.1262 -0.3393
 4219TIP3    H134148   3.295   3.345  14.175  0.1620  1.7461 -0.0279
 4219TIP3    H234149   3.339   3.381  14.316 -0.2842 -0.2744  0.6593
 4220TIP3   OH234150   4.421   4.356  16.457  0.1792  0.4161  0.0874
 4220TIP3    H134151   4.335   4.351  16.414 -0.2694  1.7172  0.7821
 4220TIP3    H234152   4.410   4.422  16.525  1.1519 -0.8961  1.6006
 4221TIP3   OH234153   1.704   5.548  12.860 -0.1099  0.2699 -0.5985
 4221TIP3    H134154   1.787   5.513  12.830 -0.3800  0.2962 -1.3861
 4221TIP3    H234155   1.721   5.577  12.950  0.2510 -1.3805 -0.1051
 4222TIP3   OH234156   1.279   3.081  13.943  0.1810 -0.4656  0.1784
 4222TIP3    H134157   1.257   3.165  13.905  0.4737 -0.1507  0.6868
 4222TIP3    H234158   1.200   3.055  13.991  0.2991 -0.1764  0.5396
 4223TIP3   OH234159   0.467   2.285  16.110  0.5140 -0.2070  0.6847
 4223TIP3    H134160   0.432   2.236  16.184  0.3248  1.0963  1.4878
 4223TIP3    H234161   0.484   2.372  16.145  0.2169  0.5059 -0.8612
 4224TIP3   OH234162   0.124   6.678   0.571  0.0569 -0.0672  0.0255
 4224TIP3    H134163   0.106   6.663   0.664  0.1397 -0.2109  0.0198
 4224TIP3    H234164   0.043   6.654   0.527  0.8771 -2.8450 -0.1998
 4225TIP3   OH234165   5.018   2.365   5.390 -0.0976 -0.4012 -0.2853
 4225TIP3    H134166   5.014   2.437   5.328 -2.2384 -1.2112 -1.1812
 4225TIP3    H234167   5.054   2.292   5.339 -1.2776 -0.8955 -0.4568
 4226TIP3   OH234168   5.275   2.744   3.368 -0.1919  0.3978 -0.0686
 4226TIP3    H134169   5.343   2.750   3.435 -1.8922 -2.2782  2.0976
 4226TIP3    H234170   5.303   2.806   3.300  2.5518  1.9429  2.2532
 4227TIP3   OH234171   3.713   5.913   3.138 -0.2435  0.0184  0.3078
 4227TIP3    H134172   3.716   5.922   3.234  1.1507 -0.3339  0.3175
 4227TIP3    H234173   3.745   5.824   3.122 -1.3928 -0.2770 -0.4530
 4228TIP3   OH234174   1.664   2.360  13.071 -0.2121  0.3340  0.3281
 4228TIP3    H134175   1.603   2.293  13.041  0.2060  0.0799  0.0276
 4228TIP3    H234176   1.677   2.341  13.164  0.4659 -0.4568  0.0812
 4229TIP3   OH234177   5.572   1.677  14.816  0.7108 -0.1876 -0.1886
 4229TIP3    H134178   5.650   1.630  14.847  2.5579  1.3128 -2.2116
 4229TIP3    H234179   5.532   1.617  14.753  1.3984 -0.2008 -0.6280
 4230TIP3   OH234180   1.914   2.682  13.511  0.0416  0.6073 -0.8664
 4230TIP3    H134181   1.986   2.634  13.471  0.7488  2.5362 -2.0634
 4230TIP3    H234182   1.954   2.762  13.546 -1.5426  2.1005 -2.2310
 4231TIP3   OH234183   2.885   6.527  13.837  0.2923  0.4119  0.3160
 4231TIP3    H134184   2.819   6.591  13.813  0.0640  0.1104  0.1247
 4231TIP3    H234185   2.966   6.577  13.844  0.4683  0.4623 -1.5472
 4232TIP3   OH234186   4.133   3.252  15.818  0.1503 -0.2146 -0.4135
 4232TIP3    H134187   4.083   3.171  15.827 -0.2518 -0.2103 -2.2364
 4232TIP3    H234188   4.214   3.225  15.774  1.4281 -0.0861  1.7534
 4233TIP3   OH234189   5.342   1.121  14.317 -0.1307  0.0609 -0.1925
 4233TIP3    H134190   5.349   1.031  14.283 -3.5032 -0.3068 -0.2337
 4233TIP3    H234191   5.269   1.159  14.269 -0.0156  2.1846  1.2128
 4234TIP3   OH234192   2.136   4.577   5.201 -0.1531  0.2660  0.2598
 4234TIP3    H134193   2.136   4.570   5.297  0.2056  0.9163  0.3136
 4234TIP3    H234194   2.193   4.506   5.172  3.0269  2.4187  0.7617
 4235TIP3   OH234195   0.286   3.336  13.248 -0.4407  0.5791  0.3465
 4235TIP3    H134196   0.317   3.264  13.303 -0.3316 -0.1537 -0.6475
 4235TIP3    H234197   0.361   3.358  13.192 -0.6839  1.0199  0.1859
 4236TIP3   OH234198   4.661   3.079  15.784  0.0103 -0.4316 -0.1217
 4236TIP3    H134199   4.697   3.109  15.701  0.4696  1.4423  0.7100
 4236TIP3    H234200   4.720   3.010  15.813  1.0159  0.2904 -0.4003
 4237TIP3   OH234201   1.619   6.320  17.070 -0.2863  0.0825 -0.0524
 4237TIP3    H134202   1.714   6.331  17.075 -0.4865  1.3207  2.1408
 4237TIP3    H234203   1.597   6.345  16.980  1.3835  0.2932 -0.4353
 4238TIP3   OH234204   1.662   0.287  11.567  0.3094  0.9185 -0.0008
 4238TIP3    H134205   1.638   0.311  11.656  2.3864 -2.1713  1.5565
 4238TIP3    H234206   1.623   0.201  11.554  2.2638  0.1439 -1.0315
 4239TIP3   OH234207   2.971   5.826   4.047  0.5174  0.3618 -0.1920
 4239TIP3    H134208   3.007   5.784   4.125  1.7604 -0.2910 -1.0813
 4239TIP3    H234209   2.943   5.754   3.991  0.4858  0.7836 -0.7297
 4240TIP3   OH234210   1.602   1.987   2.445  0.3681 -0.4193  0.0461
 4240TIP3    H134211   1.611   2.073   2.402 -0.6935 -0.3324 -0.0390
 4240TIP3    H234212   1.683   1.941   2.423  1.4917  0.9715  1.0692
 4241TIP3   OH234213   1.659   5.195  12.316  0.0303 -0.5416  0.1360
 4241TIP3    H134214   1.644   5.220  12.224  2.3293 -1.0575 -0.4325
 4241TIP3    H234215   1.641   5.101  12.318  0.7466 -0.6832  0.0216
 4242TIP3   OH234216   5.728   1.959   5.750  0.1357  0.2821 -0.4516
 4242TIP3    H134217   5.672   1.962   5.827  0.9209 -1.9510  0.2707
 4242TIP3    H234218   5.814   1.988   5.781  0.8269 -2.0280 -0.0672
 4243TIP3   OH234219   2.035   2.462   0.840 -0.4821 -0.3808 -0.1239
 4243TIP3    H134220   2.067   2.394   0.900 -0.0701  0.4992  0.6669
 4243TIP3    H234221   2.025   2.416   0.756 -0.1195 -1.3977  0.3690
 4244TIP3   OH234222   1.886   0.048   2.166 -0.4365 -0.0934  0.4953
 4244TIP3    H134223   1.826  -0.026   2.159  0.0841 -0.4387 -0.4587
 4244TIP3    H234224   1.971   0.014   2.137  0.1382  0.4998  1.4122
 4245TIP3   OH234225   1.499   2.381   2.226  0.4970 -0.1345  0.6270
 4245TIP3    H134226   1.484   2.387   2.320 -1.0801  2.0295  0.3262
 4245TIP3    H234227   1.490   2.471   2.194 -0.4983 -0.9915 -1.7784
 4246TIP3   OH234228   3.214   3.539  13.396 -0.0456  0.0484  0.7917
 4246TIP3    H134229   3.300   3.556  13.358 -0.9267  0.9311 -0.9497
 4246TIP3    H234230   3.169   3.486  13.329 -1.0608  0.1165  1.4027
 4247TIP3   OH234231   1.799   1.326   4.770 -0.1059  0.3075 -0.7697
 4247TIP3    H134232   1.868   1.274   4.728  0.3116 -1.7112  2.0809
 4247TIP3    H234233   1.722   1.268   4.768 -0.2858  0.4810  0.4360
 4248TIP3   OH234234   0.258   3.134  16.073 -0.7902  0.7353  0.0714
 4248TIP3    H134235   0.284   3.162  15.985 -1.9279 -2.0831 -1.3100
 4248TIP3    H234236   0.180   3.186  16.092 -0.8987  0.9455 -0.8874
 4249TIP3   OH234237   0.963   1.726   4.982 -0.1223  0.3778 -0.3419
 4249TIP3    H134238   0.914   1.662   4.931  0.1376 -1.5359  1.6630
 4249TIP3    H234239   0.912   1.807   4.974 -2.2978 -0.9122 -0.3097
 4250TIP3   OH234240   3.526   1.230   2.846 -0.4234  0.3799  0.3671
 4250TIP3    H134241   3.602   1.267   2.891  0.7020  1.8849 -2.4677
 4250TIP3    H234242   3.550   1.232   2.753 -3.3147 -0.6155 -0.5215
 4251TIP3   OH234243   3.422   5.918   5.870  0.0862  0.4376 -0.1018
 4251TIP3    H134244   3.395   6.006   5.895  2.5635  1.3916 -0.5576
 4251TIP3    H234245   3.517   5.918   5.880  0.0897 -2.5081  0.8195
 4252TIP3   OH234246   2.590   5.404  14.983  0.2410 -0.1284 -0.4508
 4252TIP3    H134247   2.657   5.472  14.985 -0.8236  0.9584  0.6850
 4252TIP3    H234248   2.627   5.331  15.033  0.7917  0.2474 -0.3084
 4253TIP3   OH234249   3.050   2.651   2.656  0.1469 -0.1989 -0.3805
 4253TIP3    H134250   3.047   2.743   2.632  1.6613 -0.4662 -1.7886
 4253TIP3    H234251   3.062   2.605   2.573  2.9087 -1.3687  0.5336
 4254TIP3   OH234252   1.877   1.579   3.103 -0.1268  0.6614  0.2399
 4254TIP3    H134253   1.925   1.588   3.186 -0.4829  1.2780  0.3904
 4254TIP3    H234254   1.819   1.505   3.117  0.5641  0.0981  0.1637
 4255TIP3   OH234255   4.952   6.102  15.949 -0.0423 -0.2681 -0.4235
 4255TIP3    H134256   4.885   6.165  15.922  1.2331  0.9809 -0.7738
 4255TIP3    H234257   4.958   6.041  15.875 -2.1721 -1.6385  0.4255
 4256TIP3   OH234258   0.330   2.302   1.406 -0.3134 -0.1303  0.0176
 4256TIP3    H134259   0.385   2.316   1.483  0.7369  2.3768 -1.0734
 4256TIP3    H234260   0.369   2.227   1.362 -0.8270 -1.4923  1.7652
 4257TIP3   OH234261   4.477   5.281   2.856 -0.1247  0.4150  0.4549
 4257TIP3    H134262   4.458   5.264   2.764  0.2733  0.8453  0.2901
 4257TIP3    H234263   4.396   5.256   2.902 -0.1442 -0.2800  0.0529
 4258TIP3   OH234264   0.459   0.531  12.319 -0.3476  0.3046 -0.1353
 4258TIP3    H134265   0.460   0.618  12.280  1.4707  0.8536  1.0207
 4258TIP3    H234266   0.490   0.544  12.409  1.4189 -1.6802 -0.3774
 4259TIP3   OH234267   4.546   0.193   1.188 -0.1647  0.0707  0.1612
 4259TIP3    H134268   4.522   0.148   1.107  0.1798 -2.5339  1.3963
 4259TIP3    H234269   4.641   0.184   1.193 -0.1299  0.6428  0.6213
 4260TIP3   OH234270   3.578   2.225   4.554 -0.4935 -0.6901 -0.6169
 4260TIP3    H134271   3.509   2.172   4.514 -0.1775 -1.9851  0.4714
 4260TIP3    H234272   3.633   2.161   4.600  0.9521  0.4142 -0.7776
 4261TIP3   OH234273   2.065   1.618  12.708 -0.5030 -0.4455 -0.5394
 4261TIP3    H134274   2.072   1.646  12.617 -1.0016  1.2977 -0.0819
 4261TIP3    H234275   1.975   1.639  12.733 -0.0830  0.0318  0.6380
 4262TIP3   OH234276   3.507   3.399  14.356 -0.7377 -0.6011 -0.3449
 4262TIP3    H134277   3.592   3.357  14.350 -0.6862 -0.3034 -2.6838
 4262TIP3    H234278   3.493   3.413  14.450 -0.2443 -4.6761  0.5044
 4263TIP3   OH234279   4.370   6.809   2.093 -0.1391 -0.1556 -0.3191
 4263TIP3    H134280   4.328   6.797   2.007  0.1529  0.5499 -0.5727
 4263TIP3    H234281   4.335   6.739   2.147 -0.5349 -0.4508 -0.9441
 4264TIP3   OH234282   2.417   0.962  10.601 -0.0127  0.1072  0.0590
 4264TIP3    H134283   2.330   0.952  10.640 -0.3796  0.6064 -0.6058
 4264TIP3    H234284   2.417   1.050  10.563  0.9829  0.3224  0.5246
 4265TIP3   OH234285   5.519   0.088   1.861  0.4319  0.3252 -0.0579
 4265TIP3    H134286   5.562   0.007   1.890  0.4851  0.7245  1.0453
 4265TIP3    H234287   5.430   0.062   1.841  0.9331 -0.3486 -1.5107
 4266TIP3   OH234288   1.376   5.896  14.008  0.4101 -0.2293 -0.0802
 4266TIP3    H134289   1.286   5.925  13.993  0.4887 -0.0714 -0.2436
 4266TIP3    H234290   1.423   5.975  14.035  0.1463 -0.6053  1.5630
 4267TIP3   OH234291   6.194   5.557  12.757 -0.1994  0.5855  0.2413
 4267TIP3    H134292   6.152   5.639  12.730 -0.1153  0.2855 -0.8222
 4267TIP3    H234293   6.174   5.495  12.687  2.0911  0.4574 -0.3695
 4268TIP3   OH234294   1.336   6.769   4.365 -0.7569  0.3818  0.2970
 4268TIP3    H134295   1.373   6.853   4.338 -0.3034 -0.2005 -0.9510
 4268TIP3    H234296   1.389   6.703   4.321 -0.9461 -0.5839  1.4575
 4269TIP3   OH234297   6.616   2.573  12.431  0.7691 -0.4125 -0.6920
 4269TIP3    H134298   6.596   2.509  12.363  0.3326  0.1400 -1.0940
 4269TIP3    H234299   6.543   2.634  12.428  1.1295  0.0442 -0.2446
 4270TIP3   OH234300   6.164   3.817  14.617 -0.2518  0.6752  0.0375
 4270TIP3    H134301   6.070   3.808  14.599 -0.1661  1.3614 -0.8251
 4270TIP3    H234302   6.185   3.741  14.672 -1.1580  0.1122 -0.3622
 4271TIP3   OH234303   0.614   6.399  13.076  0.2860  0.3892 -0.1315
 4271TIP3    H134304   0.659   6.403  12.992  1.3008 -1.3730  0.2696
 4271TIP3    H234305   0.523   6.378  13.053  0.8156 -1.3652 -0.7879
 4272TIP3   OH234306   1.323   2.812  10.505 -0.0008 -0.1160  0.4238
 4272TIP3    H134307   1.232   2.822  10.534 -0.5182 -1.6178 -0.5651
 4272TIP3    H234308   1.332   2.719  10.485  2.1779 -0.2438  1.7543
 4273TIP3   OH234309   2.771   3.234  10.626 -0.0425 -0.1528 -0.2675
 4273TIP3    H134310   2.837   3.201  10.564 -1.4805 -2.4150 -0.7140
 4273TIP3    H234311   2.689   3.232  10.577 -0.5860  2.0214  0.4773
 4274TIP3   OH234312   4.512   3.597  11.783  0.4864 -0.3089 -0.8117
 4274TIP3    H134313   4.426   3.632  11.762  0.4498 -0.8792 -1.6985
 4274TIP3    H234314   4.545   3.563  11.699  0.0836 -3.2964  0.1150
 4275TIP3   OH234315   2.187   1.440  16.639 -0.6259  0.1749 -0.0720
 4275TIP3    H134316   2.181   1.352  16.604 -1.6682  0.8685 -1.7684
 4275TIP3    H234317   2.273   1.444  16.681  0.2140 -1.0920 -1.5749
 4276TIP3   OH234318   2.291   2.526   2.230  0.3160  0.2490  0.1547
 4276TIP3    H134319   2.269   2.594   2.294 -0.2360  1.2572 -1.0582
 4276TIP3    H234320   2.300   2.446   2.282  0.4978  1.1436  1.5602
 4277TIP3   OH234321   1.414   6.752  15.251 -0.1222  0.2111 -0.1998
 4277TIP3    H134322   1.487   6.703  15.213  0.1945  1.0614 -0.6908
 4277TIP3    H234323   1.362   6.685  15.296  0.6285 -0.4901 -0.3521
 4278TIP3   OH234324   1.555   0.045  11.545  0.2649  0.2952  0.2673
 4278TIP3    H134325   1.583   0.018  11.632  0.1570  0.7922  0.4616
 4278TIP3    H234326   1.610  -0.005  11.485 -2.5340 -3.3863  0.4727
 4279TIP3   OH234327   1.450   6.467   3.305  0.3579  0.0746  0.1834
 4279TIP3    H134328   1.534   6.473   3.351  1.0419  0.3389 -1.0820
 4279TIP3    H234329   1.428   6.557   3.283 -0.8037  0.1232  1.4208
 4280TIP3   OH234330   0.050   4.585   5.418 -0.4736 -0.3551 -0.4331
 4280TIP3    H134331   0.138   4.615   5.394  0.2514 -2.0545 -0.0004
 4280TIP3    H234332   0.062   4.494   5.444 -2.1011 -0.1139  1.2934
 4281TIP3   OH234333   2.827   2.879   1.582 -0.3340  0.0800 -0.3353
 4281TIP3    H134334   2.835   2.878   1.487  0.8058  0.3972 -0.2597
 4281TIP3    H234335   2.843   2.971   1.606  1.7960 -0.4092  0.3159
 4282TIP3   OH234336   1.510   4.533  16.487  0.2353  0.1911  0.5276
 4282TIP3    H134337   1.434   4.488  16.450 -0.4717  0.2676  1.8414
 4282TIP3    H234338   1.516   4.615  16.437 -0.9288  0.4658  0.8173
 4283TIP3   OH234339   6.800   4.621  12.433 -0.0146 -0.3322 -0.5470
 4283TIP3    H134340   6.877   4.678  12.434  0.5100 -1.0169  1.0121
 4283TIP3    H234341   6.815   4.563  12.358  1.5570 -1.1612  0.3398
 4284TIP3   OH234342   6.418   4.630   4.998 -0.3101 -0.0357  0.5548
 4284TIP3    H134343   6.409   4.724   4.983 -2.1250 -0.1560  0.7301
 4284TIP3    H234344   6.478   4.623   5.073  0.9000  0.9014 -0.2922
 4285TIP3   OH234345   2.686   6.560   3.747  0.0746 -0.5850 -0.3112
 4285TIP3    H134346   2.762   6.503   3.761  0.6334 -0.2969 -1.8939
 4285TIP3    H234347   2.668   6.551   3.653 -0.3208  1.2260 -0.4279
 4286TIP3   OH234348   0.543   4.523  11.383 -0.4628 -0.0458  0.3256
 4286TIP3    H134349   0.564   4.513  11.290 -0.1094 -0.0575  0.4062
 4286TIP3    H234350   0.614   4.576  11.418 -0.6734  0.0802  0.5600
 4287TIP3   OH234351   5.962   0.271  14.385  0.3340  0.3979 -0.5642
 4287TIP3    H134352   5.931   0.359  14.404 -1.0534  0.1758 -1.6582
 4287TIP3    H234353   5.883   0.221  14.365  1.2312 -0.6737 -1.6188
 4288TIP3   OH234354   1.342   2.377   5.669  0.0541  0.8658 -0.1079
 4288TIP3    H134355   1.396   2.357   5.746  0.4233  0.2233 -0.5218
 4288TIP3    H234356   1.394   2.438   5.618  1.5356 -1.5449 -1.7049
 4289TIP3   OH234357   0.851   3.346  12.342  0.2200  0.0124  0.0549
 4289TIP3    H134358   0.877   3.322  12.252 -1.8042  0.2846 -0.6455
 4289TIP3    H234359   0.758   3.326  12.346  0.0853  0.8585  1.8416
 4290TIP3   OH234360   3.991   3.745   3.208 -0.4412  0.2310 -0.0079
 4290TIP3    H134361   3.953   3.659   3.228  1.4931 -0.8707 -0.8446
 4290TIP3    H234362   3.992   3.749   3.113  0.2766  0.8060  0.0177
 4291TIP3   OH234363   5.072   3.302   3.222  0.6933  0.1217  0.2167
 4291TIP3    H134364   4.979   3.319   3.239  0.1498 -1.6446 -0.7591
 4291TIP3    H234365   5.100   3.376   3.169 -0.1789  0.6344  0.4484
 4292TIP3   OH234366   0.707   4.379  15.768  0.6017 -0.1301 -0.6864
 4292TIP3    H134367   0.690   4.360  15.860  1.3621  2.4618  0.0755
 4292TIP3    H234368   0.802   4.380  15.760  0.5512  0.4701 -1.2978
 4293TIP3   OH234369   0.063   3.395  10.888 -0.1018  0.7445 -0.8627
 4293TIP3    H134370   0.137   3.383  10.948 -0.5449 -0.8624 -0.5981
 4293TIP3    H234371   0.072   3.485  10.857  0.6006  1.3545  0.9908
 4294TIP3   OH234372   0.253   6.750  13.497 -0.0645 -0.0060 -0.0736
 4294TIP3    H134373   0.244   6.787  13.585 -1.6209  0.8129 -0.5305
 4294TIP3    H234374   0.344   6.722  13.491  0.5137  1.4693  1.2221
 4295TIP3   OH234375   3.296   1.680   2.896 -0.0045 -0.2866  0.4457
 4295TIP3    H134376   3.237   1.633   2.838  0.9897 -2.7415  1.2811
 4295TIP3    H234377   3.253   1.679   2.981  0.5004 -0.6540  0.7024
 4296TIP3   OH234378   1.199   4.065   5.114  0.2299  0.5392 -0.2414
 4296TIP3    H134379   1.266   4.003   5.142  0.0599  1.0947  1.5334
 4296TIP3    H234380   1.147   4.017   5.049 -0.3426 -1.4586  1.5824
 4297TIP3   OH234381   6.178   0.803  16.868 -0.6627 -0.3984  0.0502
 4297TIP3    H134382   6.191   0.824  16.960 -0.0268  0.3242 -0.1932
 4297TIP3    H234383   6.106   0.858  16.840 -1.2145 -1.0103  0.2401
 4298TIP3   OH234384   1.556   1.327   0.818 -0.7779 -0.1439  0.6097
 4298TIP3    H134385   1.529   1.408   0.774 -0.0288  1.4955  2.9682
 4298TIP3    H234386   1.570   1.265   0.746  0.1891  2.2881 -1.4745
 4299TIP3   OH234387   0.319   2.926  12.139 -0.2871 -0.4496  0.2477
 4299TIP3    H134388   0.371   2.926  12.219 -2.4798 -1.4415  1.7762
 4299TIP3    H234389   0.267   2.846  12.144 -1.9005  0.4274 -1.2073
 4300TIP3   OH234390   5.364   5.629   2.774 -0.5545 -0.2100 -0.3404
 4300TIP3    H134391   5.321   5.544   2.761  0.1153 -0.7134  0.6561
 4300TIP3    H234392   5.350   5.675   2.691 -2.5019 -0.5737 -0.2625
 4301TIP3   OH234393   2.870   3.047  16.380  0.4241  0.1114  0.1180
 4301TIP3    H134394   2.855   3.132  16.339  2.2921  0.4077 -0.0692
 4301TIP3    H234395   2.869   2.984  16.308 -1.7440 -0.2042  0.3445
 4302TIP3   OH234396   4.870   0.094  15.715  0.1452  0.6474 -0.2782
 4302TIP3    H134397   4.858   0.028  15.784 -0.1917  0.4591 -0.5126
 4302TIP3    H234398   4.834   0.053  15.636  0.3013  0.9578 -0.5141
 4303TIP3   OH234399   6.349   2.177   4.202 -0.5128  0.3845  0.1215
 4303TIP3    H134400   6.419   2.140   4.149 -0.7682  0.9118 -0.6002
 4303TIP3    H234401   6.379   2.266   4.222 -1.4130  0.9861 -1.0721
 4304TIP3   OH234402   3.100   6.003  12.706  0.1464  0.1771 -0.2462
 4304TIP3    H134403   3.066   5.924  12.663 -0.4179  0.1786  0.1858
 4304TIP3    H234404   3.195   5.990  12.710 -0.0251 -0.8703  0.6006
 4305TIP3   OH234405   3.498   2.135  13.496 -0.5391  0.0634 -0.3956
 4305TIP3    H134406   3.437   2.166  13.430 -0.9214 -0.7456 -0.4282
 4305TIP3    H234407   3.483   2.193  13.571 -0.5392  0.5824 -0.7860
 4306TIP3   OH234408   6.031   0.433   4.857  0.0106  0.4861  0.0241
 4306TIP3    H134409   5.937   0.432   4.879 -1.0949  0.4452 -3.8801
 4306TIP3    H234410   6.068   0.362   4.909 -1.7935  1.2769  2.6313
 4307TIP3   OH234411   6.491   5.994  11.447  0.3270 -0.1352 -0.1004
 4307TIP3    H134412   6.442   6.018  11.525 -0.3681  1.3080 -0.9320
 4307TIP3    H234413   6.460   5.907  11.425  1.0606 -0.8725  1.5993
 4308TIP3   OH234414   1.769   3.385  10.419  1.1187  0.3686  0.1519
 4308TIP3    H134415   1.847   3.430  10.453  0.7071  0.6130  0.7775
 4308TIP3    H234416   1.709   3.456  10.396  1.8141  0.2989 -2.2331
 4309TIP3   OH234417   3.514   4.151   1.929 -0.5612 -0.0582  0.1417
 4309TIP3    H134418   3.520   4.061   1.963 -1.8427 -0.2258 -0.0412
 4309TIP3    H234419   3.504   4.205   2.007  3.2328  0.3314  0.5566
 4310TIP3   OH234420   5.709   4.902  10.545  0.3676 -0.3437 -0.3884
 4310TIP3    H134421   5.642   4.880  10.480 -0.6774  1.6848 -0.0886
 4310TIP3    H234422   5.680   4.857  10.625  1.4779 -2.5706 -1.1670
 4311TIP3   OH234423   5.142   5.743  14.214 -0.1479  0.0971  0.3276
 4311TIP3    H134424   5.177   5.654  14.216  0.2603  0.2454 -0.1016
 4311TIP3    H234425   5.047   5.731  14.208 -0.0391 -0.3181 -0.8467
 4312TIP3   OH234426   0.357   0.133   2.120  0.6572  0.0724 -0.3366
 4312TIP3    H134427   0.309   0.113   2.200  1.4932  1.5658  0.5717
 4312TIP3    H234428   0.292   0.175   2.063  0.5480  0.8895  0.3736
 4313TIP3   OH234429   4.740   4.849  12.841  0.5216 -0.2174 -0.4423
 4313TIP3    H134430   4.823   4.813  12.812  1.9594  0.6937  2.2189
 4313TIP3    H234431   4.699   4.778  12.890  0.4156 -0.2083 -0.5182
 4314TIP3   OH234432   6.839   4.692  10.982 -0.0432 -0.1285 -0.2070
 4314TIP3    H134433   6.803   4.781  10.979  0.9030  0.2535 -0.3948
 4314TIP3    H234434   6.769   4.637  10.946 -0.0052  0.7496 -1.7233
 4315TIP3   OH234435   4.801   1.076   0.225 -0.5531 -0.5385  0.2728
 4315TIP3    H134436   4.706   1.083   0.218 -0.5767  0.1362  1.1460
 4315TIP3    H234437   4.832   1.089   0.136 -1.2533 -0.3512  0.0463
 4316TIP3   OH234438   5.176   6.431  14.584  0.4174  0.2420 -0.1730
 4316TIP3    H134439   5.132   6.409  14.666 -0.7690  0.4477 -0.7325
 4316TIP3    H234440   5.191   6.525  14.589  1.9920 -0.0181  0.5631
 4317TIP3   OH234441   6.277   5.483  10.986 -0.3956  0.0547 -0.1672
 4317TIP3    H134442   6.301   5.437  10.906  1.7051 -1.6995  1.3327
 4317TIP3    H234443   6.320   5.568  10.980  1.8806 -0.9986  0.0745
 4318TIP3   OH234444   0.414   1.578   0.689  0.0608 -0.5876 -0.3091
 4318TIP3    H134445   0.339   1.633   0.713  1.1865  0.5185  0.8325
 4318TIP3    H234446   0.381   1.488   0.698 -1.2684 -0.1294 -0.3397
 4319TIP3   OH234447   2.045   3.953  14.768 -0.6160 -0.5014  0.4361
 4319TIP3    H134448   2.061   4.037  14.726  2.4079 -0.9269  0.5316
 4319TIP3    H234449   2.007   3.898  14.698 -0.4034  0.2515 -0.2808
 4320TIP3   OH234450   1.422   3.208   2.798 -0.2476 -0.0177 -0.0719
 4320TIP3    H134451   1.420   3.126   2.849  0.5007 -0.2546 -0.4143
 4320TIP3    H234452   1.425   3.277   2.864 -0.9509 -0.2544  0.2223
 4321TIP3   OH234453   1.046   2.719  16.771  0.1736  0.2483  0.4525
 4321TIP3    H134454   0.958   2.684  16.784 -0.3545  0.9121 -1.0850
 4321TIP3    H234455   1.033   2.814  16.761  1.0465  0.3471  0.1363
 4322TIP3   OH234456   6.205   2.809  14.819  0.2465 -0.1399 -0.1544
 4322TIP3    H134457   6.244   2.807  14.732  2.5100 -2.4318  0.7431
 4322TIP3    H234458   6.214   2.900  14.848  0.1371  0.4862 -1.9915
 4323TIP3   OH234459   6.329   3.775   2.100  0.2100  0.4838 -0.0033
 4323TIP3    H134460   6.337   3.750   2.192 -0.7170  0.2396  0.0133
 4323TIP3    H234461   6.292   3.698   2.058  0.6651  0.5838 -0.5952
 4324TIP3   OH234462   3.143   2.823  13.672  0.2616  0.1628 -0.3264
 4324TIP3    H134463   3.178   2.800  13.586  1.7622 -0.1111  0.3321
 4324TIP3    H234464   3.203   2.783  13.734 -1.5682 -0.8251  0.8973
 4325TIP3   OH234465   6.626   3.072  16.648 -0.1661  1.5971 -0.4492
 4325TIP3    H134466   6.615   2.989  16.602  1.0441  0.5286  1.0658
 4325TIP3    H234467   6.617   3.139  16.580  1.6238  0.1147 -2.2729
 4326TIP3   OH234468   0.716   1.269  14.855  0.0196 -0.0996 -0.9626
 4326TIP3    H134469   0.701   1.180  14.825 -2.2602 -0.5810  1.2531
 4326TIP3    H234470   0.644   1.320  14.817 -0.0760  0.2611 -0.3173
 4327TIP3   OH234471   4.112   2.031  14.313 -0.1924  0.4906  0.6008
 4327TIP3    H134472   4.142   2.025  14.222  1.1804  1.3618  0.9681
 4327TIP3    H234473   4.075   2.119  14.320 -0.6635  0.2804  0.7865
 4328TIP3   OH234474   1.467   4.425  16.091  0.4586 -0.3295 -0.0789
 4328TIP3    H134475   1.531   4.434  16.020 -1.1487  0.7518 -1.4715
 4328TIP3    H234476   1.452   4.330  16.098  0.4202 -0.4394 -1.4312
 4329TIP3   OH234477   4.451   0.983  14.724  0.0364  0.4314 -0.5655
 4329TIP3    H134478   4.518   1.041  14.760  0.9294  0.2693 -1.9331
 4329TIP3    H234479   4.499   0.919  14.672 -1.0027 -1.0334  0.1869
 4330TIP3   OH234480   0.451   4.224   5.622  0.0054 -0.3441  0.2514
 4330TIP3    H134481   0.473   4.202   5.712  1.4091 -2.2969 -0.4947
 4330TIP3    H234482   0.536   4.236   5.578 -0.6418  0.4918 -0.8489
 4331TIP3   OH234483   0.312   1.064   3.463 -0.1180 -0.4715 -0.9022
 4331TIP3    H134484   0.313   1.024   3.550  0.2767  1.1998 -0.0938
 4331TIP3    H234485   0.312   0.990   3.402  2.1191 -1.7248  0.4897
 4332TIP3   OH234486   0.736   6.007   6.858 -0.4270  0.3733  0.1283
 4332TIP3    H134487   0.694   5.933   6.814 -0.3061 -0.1645  0.9051
 4332TIP3    H234488   0.803   5.967   6.914  0.4363  1.1471 -0.3234
 4333TIP3   OH234489   4.973   5.616   2.155 -0.1223  0.7031 -0.0045
 4333TIP3    H134490   4.885   5.649   2.136 -1.3539 -2.2076  0.0252
 4333TIP3    H234491   5.028   5.651   2.085 -1.1708  2.9739  0.2395
 4334TIP3   OH234492   3.113   6.061   5.711 -0.2721  0.6527 -0.1138
 4334TIP3    H134493   3.144   6.097   5.628 -1.2167 -0.2537 -0.8810
 4334TIP3    H234494   3.099   6.137   5.767 -0.9408  1.3862 -1.2542
 4335TIP3   OH234495   6.169   5.688  11.244  0.6126 -0.3088  0.2126
 4335TIP3    H134496   6.252   5.723  11.276  1.8389 -0.9723 -2.0255
 4335TIP3    H234497   6.175   5.594  11.258 -0.6407 -0.2104  1.7843
 4336TIP3   OH234498   5.468   4.357  16.770 -0.3409  0.4702 -0.1704
 4336TIP3    H134499   5.494   4.436  16.818  0.3628 -0.5374  1.2112
 4336TIP3    H234500   5.457   4.291  16.839 -1.5561 -0.4775 -1.2300
 4337TIP3   OH234501   0.765   0.321   2.820 -0.7760 -0.4872  0.1793
 4337TIP3    H134502   0.676   0.357   2.816 -0.7234 -0.0512  1.9681
 4337TIP3    H234503   0.799   0.352   2.903  0.3892 -2.1952  0.3843
 4338TIP3   OH234504   1.169   3.944   2.901 -0.3293  0.0690  0.0623
 4338TIP3    H134505   1.123   3.897   2.831  0.5075  0.0733 -0.5140
 4338TIP3    H234506   1.230   3.880   2.936  0.5228  0.5776 -0.4452
 4339TIP3   OH234507   3.406   2.295   5.513  0.4565 -0.2183 -0.3156
 4339TIP3    H134508   3.483   2.344   5.541  0.0162  0.3239 -0.0461
 4339TIP3    H234509   3.332   2.345   5.547  0.0028 -1.2756  0.3247
 4340TIP3   OH234510   5.350   3.300  11.773 -0.1084  0.5497 -0.3311
 4340TIP3    H134511   5.377   3.337  11.689 -0.9141 -0.1996 -0.9518
 4340TIP3    H234512   5.387   3.211  11.773 -1.3255  0.0173 -0.5779
 4341TIP3   OH234513   4.402   5.129  15.139 -0.3577  0.3603  0.3464
 4341TIP3    H134514   4.366   5.068  15.203  1.4136 -0.2734  0.7812
 4341TIP3    H234515   4.447   5.073  15.076 -2.4589  0.9231 -1.7945
 4342TIP3   OH234516   3.451   5.607  15.150  0.2179  0.3290  0.4559
 4342TIP3    H134517   3.466   5.699  15.128 -1.8321  1.1911  2.2313
 4342TIP3    H234518   3.488   5.596  15.237 -0.4393 -0.2119  0.6820
 4343TIP3   OH234519   0.094   3.919  14.864 -0.1227 -0.7956  0.0372
 4343TIP3    H134520   0.142   3.917  14.947  0.7024  2.0227 -0.2807
 4343TIP3    H234521   0.003   3.903  14.888 -0.0763  1.0577  1.7102
 4344TIP3   OH234522   1.801   0.124  13.288  0.1120  0.0888 -0.6947
 4344TIP3    H134523   1.817   0.210  13.249  0.6704 -0.1260 -0.9590
 4344TIP3    H234524   1.888   0.083  13.290 -0.2778 -0.7938 -1.3386
 4345TIP3   OH234525   6.432   0.863   2.117 -0.6092  0.3450  0.7268
 4345TIP3    H134526   6.499   0.876   2.049 -0.4121  2.0245  1.2004
 4345TIP3    H234527   6.432   0.945   2.166 -2.2152 -0.0748  1.4736
 4346TIP3   OH234528   0.765   1.104   1.822 -0.0825  0.3227  0.6844
 4346TIP3    H134529   0.692   1.159   1.794 -0.7304 -0.7944  0.0865
 4346TIP3    H234530   0.724   1.023   1.851  0.9702 -1.1880 -1.6836
 4347TIP3   OH234531   2.169   0.283   2.093 -0.0483  0.0758  0.0500
 4347TIP3    H134532   2.079   0.253   2.087 -0.1883  0.7922 -2.7530
 4347TIP3    H234533   2.186   0.290   2.187 -3.1495  0.6390  0.6717
 4348TIP3   OH234534   1.709   2.616   4.291  0.4424 -0.7247 -0.4237
 4348TIP3    H134535   1.761   2.686   4.330 -1.0567  0.2823 -0.1572
 4348TIP3    H234536   1.625   2.619   4.337 -0.0996 -1.8703 -1.2795
 4349TIP3   OH234537   4.244   3.900  12.456 -0.3109  0.3164  0.3719
 4349TIP3    H134538   4.255   3.965  12.387  1.7387 -0.3169  0.0429
 4349TIP3    H234539   4.222   3.951  12.534  0.5255  1.3484 -0.0462
 4350TIP3   OH234540   3.051   5.521  16.103 -0.2906 -0.3996  0.3093
 4350TIP3    H134541   3.016   5.606  16.130  1.7670  0.6118  0.0463
 4350TIP3    H234542   3.011   5.505  16.017 -0.3428  0.5425  0.1461
 4351TIP3   OH234543   3.853   2.863  11.589  0.2747  0.4470 -0.0644
 4351TIP3    H134544   3.868   2.941  11.535  0.1358  0.9831  0.6554
 4351TIP3    H234545   3.764   2.875  11.623  0.5030  0.3112  0.5895
 4352TIP3   OH234546   6.481   4.987  16.868  0.3244 -0.2286  0.4640
 4352TIP3    H134547   6.498   4.944  16.952 -1.0727 -0.4552  0.6506
 4352TIP3    H234548   6.534   4.939  16.805 -0.8308 -1.9653  0.7428
 4353TIP3   OH234549   6.643   0.214  16.946 -0.1693  0.1290  0.7867
 4353TIP3    H134550   6.643   0.152  16.873  2.6253 -0.6700  1.3475
 4353TIP3    H234551   6.718   0.271  16.929 -1.1234  1.6972  1.6554
 4354TIP3   OH234552   2.246   6.648   3.162 -0.6196 -0.4326  0.3589
 4354TIP3    H134553   2.260   6.604   3.246 -1.8535 -0.2593  0.6772
 4354TIP3    H234554   2.251   6.578   3.097  1.7715 -0.3738  0.3771
 4355TIP3   OH234555   3.360   4.984   1.531  0.1068  0.2445 -0.3413
 4355TIP3    H134556   3.352   4.903   1.482 -2.1498  0.8450 -1.1047
 4355TIP3    H234557   3.436   4.971   1.588 -1.1563 -3.0911  0.8368
 4356TIP3   OH234558   2.447   0.029   2.993 -0.0653  0.0188  0.9331
 4356TIP3    H134559   2.441  -0.052   3.044 -0.4244 -1.0219 -0.6790
 4356TIP3    H234560   2.359   0.043   2.958 -0.1283  1.3943  1.5582
 4357TIP3   OH234561   3.364   6.456  16.690  0.3574 -0.1863 -0.5510
 4357TIP3    H134562   3.396   6.519  16.754  2.5826 -1.3119 -0.4598
 4357TIP3    H234563   3.441   6.405  16.665  0.4739  2.1213 -6.5041
 4358TIP3   OH234564   2.551   6.706  15.660  0.3337  0.3278 -0.1714
 4358TIP3    H134565   2.472   6.721  15.712  0.7208  0.6349  0.3435
 4358TIP3    H234566   2.584   6.621  15.689  0.3556  0.3383 -0.1652
 4359TIP3   OH234567   5.260   6.371   4.122  0.2454  0.1821 -0.5182
 4359TIP3    H134568   5.223   6.434   4.183  0.4321 -0.2903  0.0884
 4359TIP3    H234569   5.288   6.298   4.176 -0.2766 -0.5809 -1.2404
 4360TIP3   OH234570   0.643   3.428   0.824 -0.3916  0.0017  0.3105
 4360TIP3    H134571   0.596   3.509   0.843  0.8628  0.6415  0.7914
 4360TIP3    H234572   0.612   3.402   0.737 -1.0662  0.8130  0.2978
 4361TIP3   OH234573   6.165   2.010   5.568  0.0370 -0.3094 -0.1279
 4361TIP3    H134574   6.074   2.040   5.571 -0.9563 -3.0750  0.8911
 4361TIP3    H234575   6.176   1.960   5.648  2.4175 -0.2738 -0.3657
 4362TIP3   OH234576   6.389   4.534  15.193 -0.4093  0.0449  0.3588
 4362TIP3    H134577   6.450   4.569  15.128 -0.9657 -1.7811 -1.2426
 4362TIP3    H234578   6.332   4.608  15.215  1.5868  1.4815  1.0425
 4363TIP3   OH234579   2.824   4.473   3.678  0.2123  0.2307  0.2506
 4363TIP3    H134580   2.811   4.568   3.678 -0.4836  0.1893  2.2712
 4363TIP3    H234581   2.737   4.437   3.657  0.6751  0.0135 -1.4175
 4364TIP3   OH234582   6.723   4.135  11.376  0.0177  0.3399  0.3974
 4364TIP3    H134583   6.798   4.148  11.433 -0.4624  1.3585  0.8300
 4364TIP3    H234584   6.676   4.218  11.379 -1.0502 -0.2266  0.0335
 4365TIP3   OH234585   5.545   4.418  16.413 -0.0949 -0.0644  0.3674
 4365TIP3    H134586   5.527   4.331  16.377  1.3194 -0.8521  1.4767
 4365TIP3    H234587   5.536   4.407  16.507  0.7304  0.8246  0.5678
 4366TIP3   OH234588   0.992   2.472  16.133 -0.2370 -0.3988  0.2583
 4366TIP3    H134589   0.944   2.528  16.194 -0.6121  2.4921 -2.4715
 4366TIP3    H234590   0.925   2.440  16.072  0.3540 -1.9784  0.3842
 4367TIP3   OH234591   6.453   6.832   4.298  0.8998  0.3275 -0.0038
 4367TIP3    H134592   6.464   6.844   4.392  2.4743 -2.1652  0.2185
 4367TIP3    H234593   6.487   6.744   4.281 -0.5354  0.1897 -2.7182
 4368TIP3   OH234594   4.071   3.447  16.928 -0.0152  0.1208  0.4376
 4368TIP3    H134595   3.988   3.413  16.893  0.0473 -2.5478  2.5499
 4368TIP3    H234596   4.050   3.536  16.955 -1.9423 -0.1531  0.0287
 4369TIP3   OH234597   0.964   3.491  14.926  0.0265 -0.3516  0.2428
 4369TIP3    H134598   0.941   3.572  14.881  0.5448 -0.5707 -0.4310
 4369TIP3    H234599   1.056   3.476  14.904  0.0220 -0.9660  0.6096
 4370TIP3   OH234600   5.388   3.779  16.779 -0.0836 -0.0487 -0.5768
 4370TIP3    H134601   5.475   3.789  16.817  1.0081 -2.5719 -2.1171
 4370TIP3    H234602   5.403   3.784  16.684 -1.4459 -1.2237 -0.8921
 4371TIP3   OH234603   5.181   5.601  16.621  0.1797  0.1785 -0.2430
 4371TIP3    H134604   5.195   5.613  16.714  0.4673  0.1081 -0.2769
 4371TIP3    H234605   5.097   5.643  16.603 -1.1184 -1.9593  0.5034
 4372TIP3   OH234606   3.271   3.863  14.348 -0.0910  0.5105 -0.3666
 4372TIP3    H134607   3.275   3.887  14.440  0.7540  0.8429 -0.4883
 4372TIP3    H234608   3.344   3.909  14.307  1.0119 -1.4701 -0.7752
 4373TIP3   OH234609   1.068   3.526   2.167 -0.5536  0.1242 -0.1539
 4373TIP3    H134610   0.981   3.526   2.205  0.3121 -0.0482  1.9838
 4373TIP3    H234611   1.094   3.434   2.164  0.6762  0.3430  2.1124
 4374TIP3   OH234612   6.203   1.024   0.019 -0.2787  0.2463  0.6569
 4374TIP3    H134613   6.236   1.081   0.088 -1.1883  1.3547  0.2039
 4374TIP3    H234614   6.173   1.084  -0.050 -1.2833 -0.7692  0.1744
 4375TIP3   OH234615   4.431   3.002   1.221  0.3862  0.7277  0.3804
 4375TIP3    H134616   4.467   2.914   1.209  1.0592  1.1440 -0.7843
 4375TIP3    H234617   4.410   3.007   1.314  0.9824 -0.4260  0.5907
 4376TIP3   OH234618   6.584   2.470   2.938 -0.2801 -0.1821 -0.3364
 4376TIP3    H134619   6.531   2.469   2.858 -1.7262  0.3707  0.5716
 4376TIP3    H234620   6.546   2.403   2.994 -0.3786  0.5883  0.5516
 4377TIP3   OH234621   1.840   5.470   0.947 -0.5842 -0.0281  0.2009
 4377TIP3    H134622   1.747   5.465   0.965 -0.2741  0.4186  2.1534
 4377TIP3    H234623   1.862   5.386   0.907 -1.5436 -0.7634  1.1846
 4378TIP3   OH234624   0.116   4.103   4.689  0.5031  0.6042 -0.4638
 4378TIP3    H134625   0.099   4.105   4.783  1.2101 -0.2404 -0.3055
 4378TIP3    H234626   0.029   4.095   4.649  0.2738 -0.1258  0.1681
 4379TIP3   OH234627   6.177   3.385   1.513  0.3586  0.7632 -0.2098
 4379TIP3    H134628   6.202   3.460   1.566 -1.1690  0.6682  0.7105
 4379TIP3    H234629   6.097   3.412   1.468 -0.0142 -0.1665 -0.1497
 4380TIP3   OH234630   6.187   3.355  14.822 -0.2331 -0.1907 -0.3902
 4380TIP3    H134631   6.194   3.347  14.917  1.2454  1.6393 -0.2941
 4380TIP3    H234632   6.241   3.284  14.787  1.2118  0.5692  0.2079
 4381TIP3   OH234633   5.156   6.776  14.518 -0.1537  0.1176  0.2254
 4381TIP3    H134634   5.199   6.815  14.442 -2.9313  0.8569 -1.1275
 4381TIP3    H234635   5.096   6.711  14.481 -0.0258 -1.0906  1.9932
 4382TIP3   OH234636   2.006   6.302   3.424 -0.9472  0.5118 -0.0310
 4382TIP3    H134637   2.098   6.284   3.406 -1.0774 -1.5032  0.9823
 4382TIP3    H234638   2.007   6.352   3.505 -0.7634 -1.5495  1.3039
 4383TIP3   OH234639   0.361   0.640  14.790 -0.3092  0.0728  0.3021
 4383TIP3    H134640   0.302   0.650  14.715 -1.0025  0.4865  0.8859
 4383TIP3    H234641   0.340   0.554  14.826 -0.3261  0.0789  0.3076
 4384TIP3   OH234642   0.416   6.344   0.621 -0.0332  0.7783 -0.3448
 4384TIP3    H134643   0.418   6.428   0.574 -0.3370  1.5605  0.9920
 4384TIP3    H234644   0.382   6.366   0.708 -0.3745 -0.7887 -0.0617
 4385TIP3   OH234645   6.714   4.449   4.592 -0.1903  0.2245  0.7505
 4385TIP3    H134646   6.801   4.461   4.630  0.8507 -1.1126 -1.0469
 4385TIP3    H234647   6.665   4.401   4.658  0.9097 -0.2675  1.2366
 4386TIP3   OH234648   1.111   5.163  11.184 -0.1194 -0.1729 -0.2157
 4386TIP3    H134649   1.021   5.149  11.155  0.0644 -0.7059 -0.5383
 4386TIP3    H234650   1.131   5.253  11.159  0.2181 -0.7818 -2.2634
 4387TIP3   OH234651   4.397   3.092   1.483  0.3356  0.2299  0.0314
 4387TIP3    H134652   4.431   3.017   1.530  2.0390  0.9539  0.0410
 4387TIP3    H234653   4.305   3.096   1.507  0.6655 -0.6822  1.5891
 4388TIP3   OH234654   1.689   5.374   2.521  0.0356 -0.1154  0.3920
 4388TIP3    H134655   1.643   5.423   2.453  0.0641  1.4536  1.4448
 4388TIP3    H234656   1.774   5.353   2.482 -0.3087 -0.1065 -0.3862
 4389TIP3   OH234657   4.804   3.397   5.761 -0.0057 -0.6003 -0.8748
 4389TIP3    H134658   4.887   3.364   5.727  1.1685 -0.7725  1.9159
 4389TIP3    H234659   4.812   3.390   5.856 -2.9901 -0.0143 -0.4697
 4390TIP3   OH234660   4.574   4.816   4.273 -0.5207  0.6087  0.2653
 4390TIP3    H134661   4.640   4.805   4.204 -0.5351  0.1755  0.3167
 4390TIP3    H234662   4.622   4.800   4.355 -0.8608 -0.5179  0.2564
 4391TIP3   OH234663   5.586   6.546  16.960 -0.4038 -0.3043 -0.0365
 4391TIP3    H134664   5.507   6.491  16.965 -0.0656 -0.7482  0.6106
 4391TIP3    H234665   5.613   6.558  17.051 -0.2472  0.6201 -0.1970
 4392TIP3   OH234666   3.122   4.634   3.419 -0.7278 -0.2120  0.3541
 4392TIP3    H134667   3.124   4.540   3.400  1.4048  0.0224 -0.8815
 4392TIP3    H234668   3.201   4.651   3.470 -1.2782  0.8764  0.9008
 4393TIP3   OH234669   3.643   0.664   1.547  0.1648 -0.1939 -0.2468
 4393TIP3    H134670   3.577   0.725   1.514  0.7138 -0.7315 -2.5138
 4393TIP3    H234671   3.726   0.708   1.533  0.3599  0.6277  2.9392
 4394TIP3   OH234672   0.513   1.270  12.277  0.2019 -0.4436 -0.2891
 4394TIP3    H134673   0.593   1.235  12.237  1.9215  1.2219  1.5020
 4394TIP3    H234674   0.536   1.359  12.303 -1.0761 -1.0106  3.3503
 4395TIP3   OH234675   1.794   3.209   2.903 -0.1693  0.1839  0.2528
 4395TIP3    H134676   1.710   3.235   2.866 -0.3687  0.4327  0.8662
 4395TIP3    H234677   1.781   3.119   2.933 -0.8325  0.8520  2.1101
 4396TIP3   OH234678   2.450   5.524   3.263 -0.1843  0.0889 -0.2040
 4396TIP3    H134679   2.407   5.509   3.347  0.0117  0.7759  0.0217
 4396TIP3    H234680   2.389   5.486   3.199 -0.8600  0.5347  0.1545
 4397TIP3   OH234681   1.558   1.741  12.097 -0.4335  0.2647  0.3512
 4397TIP3    H134682   1.463   1.743  12.102 -0.4169  1.7854  0.5901
 4397TIP3    H234683   1.584   1.664  12.147 -1.4257  1.3099  2.5712
 4398TIP3   OH234684   1.017   2.116  16.064 -0.0725 -0.0852 -0.3346
 4398TIP3    H134685   0.992   2.092  15.974  1.0751  0.2777 -0.7613
 4398TIP3    H234686   0.938   2.155  16.101 -0.7490 -0.8078 -0.9716
 4399TIP3   OH234687   1.992   3.513  10.544 -0.1690  0.4566 -0.3195
 4399TIP3    H134688   2.029   3.520  10.456  1.7070  0.5570  0.4125
 4399TIP3    H234689   1.924   3.580  10.548 -0.1703  0.5530 -1.6257
 4400TIP3   OH234690   5.973   3.814  16.947 -0.5681  0.0752  0.2468
 4400TIP3    H134691   5.965   3.719  16.955  0.3681 -0.1732 -1.4340
 4400TIP3    H234692   5.944   3.834  16.858  2.4864  0.8819 -0.7031
 4401TIP3   OH234693   3.164   1.371   5.754  0.0477 -1.2978 -0.4789
 4401TIP3    H134694   3.239   1.313   5.750  0.9482 -0.1153 -1.9984
 4401TIP3    H234695   3.088   1.314   5.740  0.7867 -2.2975 -0.4937
 4402TIP3   OH234696   1.238   1.268  14.208  0.1570 -0.6587  0.1054
 4402TIP3    H134697   1.196   1.278  14.122  2.7083 -0.3311 -1.1739
 4402TIP3    H234698   1.224   1.353  14.251  1.0346  0.1048 -1.0509
 4403TIP3   OH234699   6.839   6.464  12.979  0.0262 -0.2143 -1.1562
 4403TIP3    H134700   6.831   6.370  12.961 -3.4970 -0.2408 -0.2914
 4403TIP3    H234701   6.758   6.502  12.943  1.1800  2.4485 -1.1614
 4404TIP3   OH234702   5.693   0.826   3.010 -0.3340  0.6645  0.0793
 4404TIP3    H134703   5.674   0.733   3.021 -0.1704  0.4727 -1.1908
 4404TIP3    H234704   5.718   0.856   3.098  1.4363 -0.9078  0.1819
 4405TIP3   OH234705   4.673   4.958   5.629  0.0642 -0.1863 -0.4143
 4405TIP3    H134706   4.654   4.899   5.557 -1.0862  0.8236 -0.9641
 4405TIP3    H234707   4.746   5.012   5.597 -0.1147 -0.0683 -0.6213
 4406TIP3   OH234708   4.522   2.780   5.903  0.1371 -0.0938 -0.0477
 4406TIP3    H134709   4.616   2.790   5.920  0.1935 -1.6595  0.7124
 4406TIP3    H234710   4.479   2.828   5.975  0.3543  0.1743 -0.0964
 4407TIP3   OH234711   6.265   6.369  12.085 -0.1725  0.0317 -0.5460
 4407TIP3    H134712   6.255   6.275  12.073 -1.1564  0.1896 -1.0709
 4407TIP3    H234713   6.360   6.384  12.084 -0.0159 -0.9271 -0.5938
 4408TIP3   OH234714   2.494   4.907  11.048 -0.2952 -0.2005 -0.1137
 4408TIP3    H134715   2.588   4.891  11.045 -0.5350 -1.7791 -2.5229
 4408TIP3    H234716   2.460   4.864  10.969 -2.7711  2.1406 -0.4757
 4409TIP3   OH234717   3.483   1.176   3.993 -0.0992 -0.1403  0.2017
 4409TIP3    H134718   3.536   1.163   3.914 -0.5881 -1.1973  0.0340
 4409TIP3    H234719   3.514   1.259   4.029  2.0841 -0.9814  0.4147
 4410TIP3   OH234720   3.968   3.725   2.209  0.0747 -0.1467  0.2527
 4410TIP3    H134721   4.032   3.727   2.280  2.1067 -0.0963 -1.4985
 4410TIP3    H234722   3.992   3.648   2.157  0.2242  1.1985 -1.7603
 4411TIP3   OH234723   1.978   3.727   1.317  0.3910 -0.0847 -0.1529
 4411TIP3    H134724   2.031   3.670   1.373  0.2084  1.1482  1.3161
 4411TIP3    H234725   2.000   3.816   1.345 -1.2354  0.5057 -0.6263
 4412TIP3   OH234726   2.239   0.935   1.725  0.0665  0.1270  0.0894
 4412TIP3    H134727   2.197   0.969   1.804 -0.1327  0.5129 -0.1777
 4412TIP3    H234728   2.320   0.986   1.718 -1.2127  2.1299 -1.4736
 4413TIP3   OH234729   4.842   5.442   4.897  0.0935 -0.5147 -0.3294
 4413TIP3    H134730   4.870   5.385   4.968  1.1545 -1.6482 -1.5965
 4413TIP3    H234731   4.923   5.481   4.864 -0.2891 -0.5721 -1.3768
 4414TIP3   OH234732   5.797   5.466   2.300  0.0733  0.3074 -0.1109
 4414TIP3    H134733   5.727   5.404   2.278  0.6485 -0.5550  0.4389
 4414TIP3    H234734   5.753   5.551   2.303 -0.4895  0.1595 -2.2032
 4415TIP3   OH234735   6.397   2.722  16.960 -0.6890  0.4456 -0.1915
 4415TIP3    H134736   6.405   2.675  17.044  0.6106 -0.6391 -0.8920
 4415TIP3    H234737   6.484   2.717  16.922 -2.1759 -3.4328 -3.8700
 4416TIP3   OH234738   6.284   2.312   2.495 -0.0050  0.2367 -0.0259
 4416TIP3    H134739   6.333   2.362   2.431  0.7610 -0.2031  0.1976
 4416TIP3    H234740   6.236   2.247   2.444  1.4963 -0.8618 -0.0998
 4417TIP3   OH234741   0.629   4.621   4.136  0.3655  0.2283 -0.2896
 4417TIP3    H134742   0.630   4.711   4.167  0.8304 -0.2896  1.2749
 4417TIP3    H234743   0.536   4.598   4.132  0.1986  1.0519 -1.6000
 4418TIP3   OH234744   3.109   0.021   2.558  0.0096 -0.2381 -0.1549
 4418TIP3    H134745   3.021  -0.002   2.528  0.1655  1.0706 -1.7550
 4418TIP3    H234746   3.168  -0.037   2.510  0.1323  0.3136 -0.6786
 4419TIP3   OH234747   4.870   2.183   6.192  0.2493 -0.3864  0.2009
 4419TIP3    H134748   4.814   2.257   6.217 -1.0350 -1.4314  0.5224
 4419TIP3    H234749   4.837   2.110   6.244  0.9828 -1.3741 -0.6973
 4420TIP3   OH234750   4.310   3.984  11.274 -0.1937 -0.2081  0.8335
 4420TIP3    H134751   4.308   4.030  11.190  0.9215 -1.4110  0.0912
 4420TIP3    H234752   4.401   3.955  11.283 -0.7106 -1.7762  1.4875
 4421TIP3   OH234753   3.250   5.144  13.436 -0.2346 -0.3193 -0.3265
 4421TIP3    H134754   3.243   5.073  13.372 -1.2932 -0.9935  0.4957
 4421TIP3    H234755   3.341   5.142  13.464  0.2721  0.0465 -1.8563
 4422TIP3   OH234756   4.586   1.251  16.155 -0.0901  1.0530 -0.1851
 4422TIP3    H134757   4.555   1.294  16.075 -1.0421  0.4161 -0.1765
 4422TIP3    H234758   4.518   1.188  16.176  1.7636 -1.3427 -0.8647
 4423TIP3   OH234759   5.720   4.761  14.721 -0.0538 -0.3804  0.1217
 4423TIP3    H134760   5.647   4.741  14.663  2.0020 -1.7771 -2.1588
 4423TIP3    H234761   5.782   4.811  14.667  1.1287 -0.0858  1.6572
 4424TIP3   OH234762   2.953   0.150   6.215  0.0331  0.1860 -0.1667
 4424TIP3    H134763   2.994   0.159   6.129  1.4349 -3.1765  0.0456
 4424TIP3    H234764   2.878   0.092   6.200 -0.1879  0.2149  0.7566
 4425TIP3   OH234765   3.931   5.167  12.255  0.5517 -0.6997 -0.2864
 4425TIP3    H134766   3.973   5.234  12.202 -0.6653 -0.3407 -0.8156
 4425TIP3    H234767   3.840   5.194  12.261 -0.6877 -3.6440 -2.8319
 4426TIP3   OH234768   3.979   3.454  12.357 -0.0341 -0.2714  0.1877
 4426TIP3    H134769   3.994   3.491  12.270  0.5200  2.3278  1.2855
 4426TIP3    H234770   4.063   3.414  12.381  0.2012  0.1203  0.0188
 4427TIP3   OH234771   1.672   2.975  15.069  0.1290 -0.6178 -0.5840
 4427TIP3    H134772   1.761   2.972  15.105  0.2932 -2.1280 -1.0455
 4427TIP3    H234773   1.622   3.023  15.134  1.0176 -0.8612  0.3113
 4428TIP3   OH234774   5.521   6.633  14.154  0.1707 -0.1789 -0.1562
 4428TIP3    H134775   5.445   6.681  14.120  0.4451 -0.1266 -0.7157
 4428TIP3    H234776   5.484   6.576  14.221 -0.1016  1.0746  0.8031
 4429TIP3   OH234777   0.830   6.781  13.369 -0.0109 -0.1719 -0.4249
 4429TIP3    H134778   0.840   6.702  13.422  2.2311 -0.0841 -0.6224
 4429TIP3    H234779   0.891   6.844  13.408 -0.7329  0.9991 -1.1195
 4430TIP3   OH234780   1.692   3.358   5.445  0.0081  0.7008  0.3432
 4430TIP3    H134781   1.692   3.379   5.538 -1.1802 -0.1717  0.5622
 4430TIP3    H234782   1.620   3.296   5.434 -0.5651  1.5991 -1.3462
 4431TIP3   OH234783   4.048   4.605   0.648 -0.3780 -0.0155 -0.1184
 4431TIP3    H134784   3.969   4.553   0.657 -0.9119  0.8182  0.1612
 4431TIP3    H234785   4.105   4.553   0.591 -1.5774 -0.1266 -1.2809
 4432TIP3   OH234786   5.662   6.076  15.324 -0.3796 -0.0981  0.6506
 4432TIP3    H134787   5.718   6.005  15.294 -0.8852 -0.0365 -0.4846
 4432TIP3    H234788   5.632   6.047  15.410 -1.2092 -1.6523 -0.1133
 4433TIP3   OH234789   0.932   4.121  15.035  0.1241 -0.5021 -0.6196
 4433TIP3    H134790   0.869   4.113  15.107  0.4308  0.5892 -0.2154
 4433TIP3    H234791   1.004   4.063  15.060  0.2594 -0.0786 -0.0069
 4434TIP3   OH234792   3.629   5.061  13.667  0.1061  0.3800 -0.2143
 4434TIP3    H134793   3.717   5.059  13.703  0.9393  2.8408 -1.8897
 4434TIP3    H234794   3.580   5.117  13.727 -0.4839 -1.2450  0.8965
 4435TIP3   OH234795   0.815   1.882  15.570 -0.0610 -0.0819 -0.0777
 4435TIP3    H134796   0.893   1.858  15.620 -0.3988 -1.4125 -0.1398
 4435TIP3    H234797   0.742   1.848  15.622 -0.5678  0.6511 -0.2962
 4436TIP3   OH234798   4.032   6.016  15.768  0.4386  0.2060 -0.9225
 4436TIP3    H134799   4.072   6.001  15.854 -1.8243 -0.6975  0.0366
 4436TIP3    H234800   4.001   6.106  15.770  0.6487  0.2788 -0.9150
 4437TIP3   OH234801   6.666   6.169   5.109  0.1953  0.2680  0.7410
 4437TIP3    H134802   6.649   6.233   5.040  0.3902 -0.1843  0.2631
 4437TIP3    H234803   6.642   6.084   5.070 -2.7777  0.2807  2.3044
 4438TIP3   OH234804   2.843   3.248   4.601  0.2160  0.0121  0.1970
 4438TIP3    H134805   2.753   3.216   4.608  0.2297 -0.6857 -2.0192
 4438TIP3    H234806   2.837   3.322   4.541  1.4279 -1.8990 -2.4682
 4439TIP3   OH234807   0.770   1.959   5.093  0.7927  0.0454 -0.0431
 4439TIP3    H134808   0.711   2.032   5.072 -1.1076 -1.2988  0.3694
 4439TIP3    H234809   0.752   1.940   5.185  0.2698 -1.7605 -0.4834
 4440TIP3   OH234810   5.692   6.447   3.816  0.2859 -0.0903  0.9340
 4440TIP3    H134811   5.680   6.361   3.855  0.7354  0.1142  1.5413
 4440TIP3    H234812   5.629   6.504   3.862 -1.3983 -0.4634 -0.7928
 4441TIP3   OH234813   4.510   0.596   1.896  0.2101  0.0303  0.4255
 4441TIP3    H134814   4.459   0.632   1.824 -0.0284 -0.3888  0.3845
 4441TIP3    H234815   4.577   0.542   1.853  0.1161 -0.1573  0.5146
 4442TIP3   OH234816   6.281   4.267  12.232 -0.6241 -0.0096 -0.5025
 4442TIP3    H134817   6.191   4.281  12.204 -1.4877 -0.5379  1.7572
 4442TIP3    H234818   6.274   4.207  12.306  1.4603  0.9346  0.5609
 4443TIP3   OH234819   5.390   6.033  10.791  0.2484 -0.0655  0.5646
 4443TIP3    H134820   5.475   6.009  10.827  0.6773 -1.0727 -0.9871
 4443TIP3    H234821   5.398   6.015  10.697 -1.9161 -0.9516  0.4866
 4444TIP3   OH234822   5.842   4.604   1.194  0.3063 -0.0016 -0.1296
 4444TIP3    H134823   5.902   4.674   1.218  1.9431 -0.8749 -1.4298
 4444TIP3    H234824   5.844   4.543   1.268  2.2428 -0.7441 -0.7321
 4445TIP3   OH234825   2.103   0.180   1.704  0.0300  0.2139 -0.0575
 4445TIP3    H134826   2.128   0.270   1.723 -1.5556  0.4233  1.2687
 4445TIP3    H234827   2.180   0.128   1.727  1.2945  1.2547 -1.7218
 4446TIP3   OH234828   6.532   3.926   1.896 -0.0779 -0.9371 -0.3006
 4446TIP3    H134829   6.446   3.885   1.904 -0.3626 -0.6223 -1.5331
 4446TIP3    H234830   6.593   3.852   1.890 -0.5237 -1.2075 -1.8535
 4447TIP3   OH234831   0.520   2.676   0.387 -0.5658 -0.6679 -0.3191
 4447TIP3    H134832   0.523   2.601   0.328 -1.8331 -2.0342  1.2438
 4447TIP3    H234833   0.488   2.640   0.470 -0.0431  1.3923  0.8497
 4448TIP3   OH234834   5.492   5.180  13.672  0.6078  0.3659  0.3583
 4448TIP3    H134835   5.507   5.193  13.578  2.1634 -1.6621  0.2664
 4448TIP3    H234836   5.401   5.150  13.678  0.2018  1.3866 -0.3747
 4449TIP3   OH234837   0.765   4.249  16.331 -0.0962  0.7366 -0.1503
 4449TIP3    H134838   0.713   4.309  16.385  0.2865  0.9585 -0.0199
 4449TIP3    H234839   0.851   4.291  16.326  0.4135 -0.1896  0.5988
 4450TIP3   OH234840   2.456   4.451  14.169 -0.2900  0.4022  0.1846
 4450TIP3    H134841   2.378   4.496  14.137 -0.2111 -0.2202 -0.9252
 4450TIP3    H234842   2.519   4.521  14.186 -0.1135  0.7437 -1.6703
 4451TIP3   OH234843   5.108   2.094   3.913 -0.1307  0.1658  0.2258
 4451TIP3    H134844   5.037   2.145   3.950  0.0189  0.7989 -0.3375
 4451TIP3    H234845   5.182   2.109   3.972 -0.4499 -0.4986  0.8154
 4452TIP3   OH234846   1.735   1.093   1.280  0.1778  0.9392 -0.0877
 4452TIP3    H134847   1.695   1.008   1.300  1.9894  0.2422  0.7629
 4452TIP3    H234848   1.661   1.149   1.257 -1.1116 -0.7345 -0.2250
 4453TIP3   OH234849   3.017   4.428   5.267  0.2780 -0.1953 -0.4223
 4453TIP3    H134850   3.012   4.519   5.298  2.1594  0.6587 -2.4159
 4453TIP3    H234851   2.945   4.421   5.204  0.9376  0.3494 -1.2529
 4454TIP3   OH234852   3.703   3.405   4.346 -0.0013  0.5734  0.4057
 4454TIP3    H134853   3.656   3.389   4.428 -0.8907  2.3238  0.2753
 4454TIP3    H234854   3.782   3.452   4.373 -0.4404  1.4125  0.2433
 4455TIP3   OH234855   2.699   1.294  12.879 -0.5527 -0.0849 -0.2650
 4455TIP3    H134856   2.692   1.334  12.966 -1.1401 -0.5289 -0.0963
 4455TIP3    H234857   2.781   1.245  12.881 -0.6903 -0.3052  0.1346
 4456TIP3   OH234858   0.266   5.193   6.373 -0.2291 -0.1434 -0.0540
 4456TIP3    H134859   0.347   5.232   6.406 -0.4179  1.2275 -1.1107
 4456TIP3    H234860   0.199   5.221   6.434 -0.2060  0.3930 -0.2693
 4457TIP3   OH234861   2.942   2.272   3.199  0.2760  0.2523 -0.3427
 4457TIP3    H134862   2.948   2.348   3.142 -1.0898  0.8984  0.3238
 4457TIP3    H234863   2.944   2.308   3.288 -0.8095 -0.4225 -0.0212
 4458TIP3   OH234864   1.817   1.498   6.477  0.0475  0.5087 -0.3434
 4458TIP3    H134865   1.735   1.532   6.441 -0.3269  0.2493  0.2472
 4458TIP3    H234866   1.856   1.448   6.405  0.5777  2.1110 -1.2022
 4459TIP3   OH234867   1.021   2.371  16.491  0.2705  0.0242 -0.5071
 4459TIP3    H134868   1.026   2.361  16.586  1.6647  0.1614 -0.5434
 4459TIP3    H234869   1.067   2.295  16.456 -1.2450 -0.6606 -1.1387
 4460TIP3   OH234870   3.914   2.258  12.914  0.3604 -0.4025  0.1579
 4460TIP3    H134871   3.897   2.215  12.997 -0.9936 -0.3535 -0.0604
 4460TIP3    H234872   3.986   2.209  12.875  2.1685  0.5800  2.0515
 4461TIP3   OH234873   4.340   2.937  11.931  0.2217 -0.0709 -0.0653
 4461TIP3    H134874   4.340   2.991  11.853  0.0296  1.6269  1.0660
 4461TIP3    H234875   4.257   2.890  11.928  0.2620 -0.1035 -0.9108
 4462TIP3   OH234876   1.607   2.699   5.234  0.4333  0.2198 -0.4589
 4462TIP3    H134877   1.656   2.742   5.304 -1.2389  1.0988  0.2512
 4462TIP3    H234878   1.671   2.645   5.188  1.6149 -0.3555  1.7263
 4463TIP3   OH234879   4.778   1.940   1.906  0.4068  0.1126  0.1827
 4463TIP3    H134880   4.771   1.988   1.988 -1.4086  1.3167 -0.6150
 4463TIP3    H234881   4.688   1.932   1.875  1.0945  0.3927 -2.0748
 4464TIP3   OH234882   2.430   6.045   5.410  0.5577 -0.4746 -0.3135
 4464TIP3    H134883   2.480   6.109   5.360  1.6177 -0.8540  0.2167
 4464TIP3    H234884   2.444   6.069   5.501 -2.0727  0.7448 -0.1276
 4465TIP3   OH234885   2.350   3.480   3.112 -0.2526 -1.0034 -0.0367
 4465TIP3    H134886   2.410   3.442   3.176  0.2922  0.3692  0.3202
 4465TIP3    H234887   2.394   3.469   3.028  1.1375  1.0494  0.3510
 4466TIP3   OH234888   4.100   6.472   0.004 -0.7981  0.2250 -0.0890
 4466TIP3    H134889   4.112   6.378   0.015  2.4826  0.1737 -2.6272
 4466TIP3    H234890   4.057   6.481  -0.081  1.3688  0.9488 -1.1901
 4467TIP3   OH234891   5.239   2.712  15.480 -0.4836  0.0978  0.0481
 4467TIP3    H134892   5.264   2.643  15.542  0.3930 -0.9106 -1.3555
 4467TIP3    H234893   5.282   2.791  15.513 -0.3727 -0.3276  0.9410
 4468TIP3   OH234894   5.532   1.343   0.058  0.0673 -0.5755  0.0822
 4468TIP3    H134895   5.600   1.403   0.088  0.3220 -0.3346 -0.9406
 4468TIP3    H234896   5.579   1.279   0.003 -0.4473 -0.7154 -0.2033
 4469TIP3   OH234897   1.410   4.020  11.104 -0.4306  0.6676 -0.2006
 4469TIP3    H134898   1.383   3.976  11.185 -0.0519  1.4545  0.3757
 4469TIP3    H234899   1.332   4.069  11.077  0.1238  2.3976  1.0927
 4470TIP3   OH234900   3.638   5.992   2.296 -0.1021  0.0428 -0.4425
 4470TIP3    H134901   3.628   6.064   2.234  0.7075  0.1263 -0.4851
 4470TIP3    H234902   3.645   5.914   2.241  0.4174  0.0947 -0.4558
 4471TIP3   OH234903   1.065   3.257  15.747 -0.2562  0.1969  0.2927
 4471TIP3    H134904   0.970   3.248  15.748 -0.2899  0.4592 -0.2971
 4471TIP3    H234905   1.087   3.297  15.831 -0.3740 -2.6809  1.8174
 4472TIP3   OH234906   5.135   3.623  14.319  0.2010  0.0947 -0.5383
 4472TIP3    H134907   5.066   3.603  14.382  0.8534  1.0544  0.5255
 4472TIP3    H234908   5.174   3.704  14.351  1.9623 -0.5344 -0.9568
 4473TIP3   OH234909   5.855   1.228   5.892  0.0018 -0.1292  0.5841
 4473TIP3    H134910   5.857   1.272   5.977  1.1909  0.1729  0.4124
 4473TIP3    H234911   5.940   1.247   5.852 -0.1264 -1.1404 -0.2338
 4474TIP3   OH234912   0.179   5.916   4.709  0.0836 -0.5113  0.4793
 4474TIP3    H134913   0.092   5.878   4.716 -0.1731  0.2164  1.4890
 4474TIP3    H234914   0.178   5.990   4.769  1.1138  0.0614 -0.1735
 4475TIP3   OH234915   5.351   5.083  13.982  0.0184  0.0289 -0.0231
 4475TIP3    H134916   5.318   5.059  13.896 -0.8107 -2.2263  0.8532
 4475TIP3    H234917   5.273   5.088  14.037  0.5888  0.8746  0.7388
 4476TIP3   OH234918   6.798   6.619  14.319  0.6284 -0.1963  0.6090
 4476TIP3    H134919   6.847   6.608  14.400 -2.4634  1.3902  2.8837
 4476TIP3    H234920   6.746   6.539  14.310  1.4066 -0.6323 -0.2091
 4477TIP3   OH234921   4.323   1.707   2.237  0.2386 -0.0495 -0.1470
 4477TIP3    H134922   4.404   1.752   2.263 -0.2543 -0.2701  1.8606
 4477TIP3    H234923   4.330   1.701   2.141  1.5730  1.8680 -0.2353
 4478TIP3   OH234924   5.192   2.142   0.891 -0.1154 -0.1756 -0.2088
 4478TIP3    H134925   5.226   2.231   0.894  0.5969 -0.4347 -0.3331
 4478TIP3    H234926   5.240   2.095   0.959 -0.7107 -0.3911  0.0654
 4479TIP3   OH234927   2.098   2.604  11.882  0.1891  0.7952 -0.3176
 4479TIP3    H134928   2.161   2.631  11.815  1.5466 -1.2612  0.0006
 4479TIP3    H234929   2.148   2.606  11.964 -0.3023 -0.3089  0.0362
 4480TIP3   OH234930   2.210   0.096  16.932 -0.1737  0.3494  0.6730
 4480TIP3    H134931   2.161   0.147  16.998 -1.1742  0.5729 -0.2119
 4480TIP3    H234932   2.189   0.005  16.951 -1.3754  0.4650 -0.0037
 4481TIP3   OH234933   3.979   3.924   4.691  0.0314 -0.5261 -0.5460
 4481TIP3    H134934   4.071   3.947   4.693  0.5407 -2.4475 -0.0024
 4481TIP3    H234935   3.955   3.931   4.598  0.7351 -0.1195 -0.7023
 4482TIP3   OH234936   0.957   0.698   1.568  0.2767 -0.1589  0.2460
 4482TIP3    H134937   1.023   0.709   1.500 -0.1716 -0.8562 -0.3121
 4482TIP3    H234938   1.008   0.681   1.648  0.7893  0.0480 -0.0301
 4483TIP3   OH234939   0.501   4.433   6.290 -0.0823 -0.8210  0.3305
 4483TIP3    H134940   0.584   4.411   6.247 -1.3038  0.8471 -3.2139
 4483TIP3    H234941   0.473   4.351   6.331  1.8903 -2.1918 -0.8500
 4484TIP3   OH234942   2.606   0.821   1.816  0.4072 -0.1900  0.1311
 4484TIP3    H134943   2.683   0.841   1.869 -1.1418  1.9491  1.7055
 4484TIP3    H234944   2.575   0.906   1.785 -2.2418 -0.7593  0.9476
 4485TIP3   OH234945   1.551   3.018   0.715 -0.1153 -0.2705  0.0836
 4485TIP3    H134946   1.579   3.103   0.750  2.1466 -1.4741  1.4421
 4485TIP3    H234947   1.577   3.019   0.623  1.4071 -0.0582  0.4921
 4486TIP3   OH234948   6.698   6.546   4.230 -0.4158  0.6361 -0.5707
 4486TIP3    H134949   6.610   6.546   4.268 -0.8945  1.5823 -1.6191
 4486TIP3    H234950   6.693   6.610   4.159  0.7488 -0.2591 -1.5007
 4487TIP3   OH234951   2.376   1.969   0.098  0.0854  0.3252 -0.0976
 4487TIP3    H134952   2.284   1.992   0.084 -0.7005 -0.9137  2.4359
 4487TIP3    H234953   2.394   1.899   0.035 -0.8817  0.1971 -0.2425
 4488TIP3   OH234954   4.046   0.934   1.374 -0.2159 -0.1252 -0.3641
 4488TIP3    H134955   4.131   0.977   1.364 -0.1672 -0.3070 -0.7599
 4488TIP3    H234956   4.053   0.854   1.322  0.1506 -1.2988  1.3991
 4489TIP3   OH234957   3.121   4.819  14.902 -0.1229  0.2823  0.3973
 4489TIP3    H134958   3.098   4.726  14.908  2.1690 -0.4679 -1.0872
 4489TIP3    H234959   3.058   4.863  14.959 -2.2620 -1.9964 -0.0495
 4490TIP3   OH234960   6.757   2.536   0.119  0.2807 -0.0983  0.3047
 4490TIP3    H134961   6.748   2.599   0.047 -0.3916 -0.9906 -0.4225
 4490TIP3    H234962   6.850   2.513   0.120  0.4506  0.5829  0.3010
 4491TIP3   OH234963   4.965   2.487   1.855  0.5406  0.5277 -0.0871
 4491TIP3    H134964   5.027   2.471   1.926  0.0904 -1.9183 -0.1633
 4491TIP3    H234965   5.020   2.500   1.778  0.9971  0.4839  0.2244
 4492TIP3   OH234966   5.511   5.206   4.585  0.0002 -0.5211 -0.1567
 4492TIP3    H134967   5.550   5.129   4.541  0.9945  0.7275 -1.5892
 4492TIP3    H234968   5.587   5.260   4.609 -0.7124  0.3853  0.0923
 4493TIP3   OH234969   6.389   0.883  10.801 -0.1066 -0.9161  0.5597
 4493TIP3    H134970   6.309   0.881  10.749  1.4363 -1.5764 -2.0283
 4493TIP3    H234971   6.402   0.975  10.823 -0.7661 -0.5856 -0.3870
 4494TIP3   OH234972   4.821   6.607  11.414  0.0029  0.2269 -0.1812
 4494TIP3    H134973   4.777   6.523  11.400  0.2852  0.3024 -1.7017
 4494TIP3    H234974   4.909   6.593  11.381  0.6814  0.5555  1.3895
 4495TIP3   OH234975   6.623   0.535  17.103 -0.4935  0.2224  0.1336
 4495TIP3    H134976   6.670   0.609  17.142  1.3304 -0.9433  0.2874
 4495TIP3    H234977   6.589   0.485  17.178  1.2858 -0.9320  0.2264
 4496TIP3   OH234978   4.571   5.247   5.418 -0.2747 -0.5627  0.3260
 4496TIP3    H134979   4.573   5.287   5.331  0.5831 -1.0118  0.1243
 4496TIP3    H234980   4.481   5.256   5.448 -0.2275  1.0232  0.0520
 4497TIP3   OH234981   6.793   3.613  11.969  0.1762  0.2429 -0.2718
 4497TIP3    H134982   6.846   3.535  11.981  0.3285  0.2251 -1.0572
 4497TIP3    H234983   6.703   3.582  11.972  0.1372  0.3793  1.8999
 4498TIP3   OH234984   1.526   2.761  12.911  0.4611 -0.3341  0.2980
 4498TIP3    H134985   1.545   2.851  12.884 -0.4265 -0.4337 -0.7631
 4498TIP3    H234986   1.611   2.725  12.937  0.9790  0.5228 -0.1520
 4499TIP3   OH234987   6.430   0.868   2.419  0.1539 -0.4926  0.1367
 4499TIP3    H134988   6.446   0.888   2.511 -0.2965 -0.7763  0.2806
 4499TIP3    H234989   6.502   0.809   2.394  0.0283 -0.7759  0.4337
 4500TIP3   OH234990   3.905   6.244  15.469  0.2825 -0.4531 -0.6909
 4500TIP3    H134991   3.907   6.151  15.447  0.0495 -0.4170 -0.8636
 4500TIP3    H234992   3.821   6.257  15.513 -1.0036  0.2235 -3.1482
 4501TIP3   OH234993   5.507   5.261  15.101 -0.2807  0.2491  0.8611
 4501TIP3    H134994   5.565   5.249  15.025 -0.4312  0.4530  0.7145
 4501TIP3    H234995   5.491   5.172  15.132  0.7976  0.2314  1.4194
 4502TIP3   OH234996   4.622   6.238   2.435 -0.2003  0.0043  0.5419
 4502TIP3    H134997   4.650   6.183   2.509  0.3425  0.5217  0.7286
 4502TIP3    H234998   4.632   6.327   2.467  1.1752  0.2805 -0.5532
 4503TIP3   OH234999   3.251   6.239  11.982 -0.3145  0.0418  0.0946
 4503TIP3    H135000   3.213   6.326  11.997 -0.5613  0.0418 -0.5243
 4503TIP3    H235001   3.346   6.253  11.993 -0.4757 -0.0405  2.0187
 4504TIP3   OH235002   4.150   1.856  13.999  0.0863 -0.1209 -0.5248
 4504TIP3    H135003   4.169   1.950  13.995  0.7351 -0.2001  0.3305
 4504TIP3    H235004   4.222   1.819  14.051 -0.6034 -0.9712 -0.1443
 4505TIP3   OH235005   4.364   4.339  11.785 -0.4311  0.2090  0.4909
 4505TIP3    H135006   4.367   4.277  11.713  0.3028  0.8942 -0.0831
 4505TIP3    H235007   4.313   4.412  11.752  0.3933  0.7806  0.4475
 4506TIP3   OH235008   2.110   2.399  16.131 -0.2734 -0.1841 -0.4270
 4506TIP3    H135009   2.044   2.338  16.166 -1.2362  0.3319 -1.2916
 4506TIP3    H235010   2.158   2.429  16.208  0.2985 -2.0975  0.0172
 4507TIP3   OH235011   4.358   5.616   2.362  0.7292  0.2238 -0.1927
 4507TIP3    H135012   4.336   5.536   2.316 -1.4949 -0.5941  2.0853
 4507TIP3    H235013   4.279   5.670   2.356  1.4319  1.3362  0.1806
 4508TIP3   OH235014   0.611   6.628  12.274  0.4768 -0.2566 -0.6990
 4508TIP3    H135015   0.623   6.534  12.290 -0.6243 -0.6541 -2.0144
 4508TIP3    H235016   0.662   6.646  12.195  2.6366  0.8212  0.8398
 4509TIP3   OH235017   2.436   6.015  11.987  0.0748 -0.4690  1.0841
 4509TIP3    H135018   2.350   5.980  12.009 -0.7909 -0.0808 -1.2920
 4509TIP3    H235019   2.479   5.945  11.938 -0.9085  0.8996 -1.9940
 4510TIP3   OH235020   6.455   6.778   5.997  0.7743 -0.1233  0.1225
 4510TIP3    H135021   6.414   6.849   5.947  2.2660  1.0399  0.4725
 4510TIP3    H235022   6.497   6.822   6.071 -0.8317 -1.7130  2.1033
 4511TIP3   OH235023   3.386   5.002   4.943  0.2149 -0.3258 -0.0141
 4511TIP3    H135024   3.312   4.947   4.921  1.0132 -1.1018 -0.8421
 4511TIP3    H235025   3.408   5.047   4.862  0.1859  0.4694  0.4105
 4512TIP3   OH235026   2.417   5.177  12.741 -0.6581  0.4038 -0.5956
 4512TIP3    H135027   2.395   5.168  12.649 -0.0920 -1.5936 -0.5601
 4512TIP3    H235028   2.426   5.088  12.774  0.7394  1.0710  1.0184
 4513TIP3   OH235029   2.058   4.509  15.745 -0.6602 -0.2544  0.0772
 4513TIP3    H135030   2.133   4.550  15.787 -1.0355 -0.1877  0.6850
 4513TIP3    H235031   2.014   4.460  15.814 -0.1034 -1.8883 -0.6650
 4514TIP3   OH235032   5.160   5.900   5.515  0.1491  0.1728  0.4706
 4514TIP3    H135033   5.144   5.969   5.451  0.6204  0.7003  0.9057
 4514TIP3    H235034   5.095   5.915   5.583 -0.1235 -0.1716  0.2884
 4515TIP3   OH235035   0.969   0.567   5.461 -0.0058  0.1110  0.6735
 4515TIP3    H135036   1.055   0.534   5.484  1.1742  2.3928 -0.1565
 4515TIP3    H235037   0.923   0.576   5.545  0.8057 -0.4491  1.1906
 4516TIP3   OH235038   4.908   4.918  11.027 -0.0955 -0.9323  0.1001
 4516TIP3    H135039   4.835   4.965  11.067 -0.3346 -0.7844 -0.5029
 4516TIP3    H235040   4.901   4.829  11.061 -2.0520 -1.5980 -1.8356
 4517TIP3   OH235041   6.647   0.402  16.565  0.0555  0.3126  0.1877
 4517TIP3    H135042   6.597   0.332  16.522  1.6217 -1.0875  0.5377
 4517TIP3    H235043   6.738   0.374  16.558  0.8111  2.5890 -0.0770
 4518TIP3   OH235044   4.949   0.504  15.955 -0.6274  0.7144  0.1355
 4518TIP3    H135045   4.964   0.436  15.889  0.1464 -1.0096  1.9882
 4518TIP3    H235046   5.037   0.537  15.975 -0.7164  0.4146  1.0725
 4519TIP3   OH235047   3.678   0.019   3.304 -0.3736  0.2199  0.0203
 4519TIP3    H135048   3.604  -0.036   3.277  0.6446 -1.3994  0.3900
 4519TIP3    H235049   3.700   0.069   3.225 -0.6188 -0.7447 -0.6887
 4520TIP3   OH235050   6.589   1.298  17.015 -0.1646 -0.0380 -0.0642
 4520TIP3    H135051   6.507   1.315  16.968  0.0735  2.5846  0.3554
 4520TIP3    H235052   6.632   1.230  16.963 -2.4531 -1.3370 -0.4178
 4521TIP3   OH235053   4.855   0.991   3.173 -0.0829 -0.2583  0.8258
 4521TIP3    H135054   4.841   1.053   3.102  0.7353  0.6977  1.4736
 4521TIP3    H235055   4.770   0.949   3.186 -0.4766  0.2566 -0.0603
 4522TIP3   OH235056   0.542   6.800  16.280  0.4268 -0.3570 -0.4146
 4522TIP3    H135057   0.568   6.828  16.192  0.8312 -1.3879 -0.6313
 4522TIP3    H235058   0.618   6.753  16.314 -0.5753 -2.0850 -0.4643
 4523TIP3   OH235059   0.407   5.063  11.963  0.2693  0.5325 -0.2079
 4523TIP3    H135060   0.368   5.100  11.884 -0.6637 -1.3637 -0.6765
 4523TIP3    H235061   0.435   5.140  12.014 -2.5039  1.9497 -0.6383
 4524TIP3   OH235062   1.120   5.391   4.645 -0.4820 -0.8720 -0.2788
 4524TIP3    H135063   1.204   5.346   4.657  0.5522  1.1843  0.7083
 4524TIP3    H235064   1.066   5.361   4.718  0.4034 -0.1033  0.7256
 4525TIP3   OH235065   1.180   3.258  12.549 -0.0966 -0.2878  0.0216
 4525TIP3    H135066   1.122   3.187  12.521 -0.7160  0.1596  0.1576
 4525TIP3    H235067   1.203   3.303  12.467 -0.6592  0.0729  0.0563
 4526TIP3   OH235068   4.428   3.631  10.776 -0.0153 -0.0251  0.0009
 4526TIP3    H135069   4.499   3.658  10.718 -0.1900 -0.9712 -0.6724
 4526TIP3    H235070   4.365   3.703  10.772  0.8910  0.8364  0.6243
 4527TIP3   OH235071   4.850   0.984  14.225  0.0479 -0.2031  0.3162
 4527TIP3    H135072   4.760   0.986  14.257  0.2928  1.2129  0.9947
 4527TIP3    H235073   4.902   0.957  14.301  0.6490  3.3202  1.3426
 4528TIP3   OH235074   2.989   5.063  13.960  0.4174 -0.1231 -0.4369
 4528TIP3    H135075   2.958   5.010  14.034 -0.6107 -1.0689 -1.4967
 4528TIP3    H235076   2.977   5.153  13.989  0.6203 -0.4550  0.7706
 4529TIP3   OH235077   5.332   3.571  10.569  0.3439 -0.1079 -0.0160
 4529TIP3    H135078   5.342   3.522  10.487 -0.3930 -1.0063  0.4096
 4529TIP3    H235079   5.249   3.618  10.559  0.6832  0.4702 -0.1267
 4530TIP3   OH235080   4.077   0.672  14.554  0.0687 -0.6072  0.1903
 4530TIP3    H135081   4.066   0.599  14.615  0.2110 -1.1727 -0.4446
 4530TIP3    H235082   4.065   0.751  14.608 -1.7904 -1.1032  0.5583
 4531TIP3   OH235083   6.290   4.891   1.166 -0.4449 -0.8260  0.4451
 4531TIP3    H135084   6.338   4.822   1.121 -1.9168 -0.8254 -1.2116
 4531TIP3    H235085   6.255   4.946   1.096 -0.7668  0.6072  1.6776
 4532TIP3   OH235086   4.419   1.887   0.657  0.1816 -0.2909 -0.3597
 4532TIP3    H135087   4.455   1.885   0.746 -0.4531 -3.0918 -0.0724
 4532TIP3    H235088   4.328   1.915   0.669  0.3913  0.3836 -0.2850
 4533TIP3   OH235089   0.069   1.020  13.115 -0.5701 -0.4840 -0.6062
 4533TIP3    H135090   0.076   1.007  13.021 -1.2910 -0.7970 -0.6254
 4533TIP3    H235091  -0.004   1.080  13.126 -2.8370 -3.1207 -0.1139
 4534TIP3   OH235092   4.910   1.115  13.270 -0.1470  0.4846  0.2490
 4534TIP3    H135093   4.874   1.192  13.313  2.7307  2.4202 -0.4909
 4534TIP3    H235094   4.951   1.065  13.341  1.7755  2.0063  0.3094
 4535TIP3   OH235095   0.999   0.980   0.498  0.0017 -0.4044 -0.1991
 4535TIP3    H135096   1.043   0.934   0.570 -0.6824 -1.2592 -0.3132
 4535TIP3    H235097   0.906   0.978   0.522 -0.2448 -0.7816 -1.1504
 4536TIP3   OH235098   2.578   5.888   2.845 -0.2474 -0.0516 -0.7189
 4536TIP3    H135099   2.514   5.818   2.828  0.5078 -0.6633 -1.1373
 4536TIP3    H235100   2.637   5.850   2.910  1.0069 -0.3645 -1.9850
 4537TIP3   OH235101   0.576   2.424   1.061  0.3412  0.6270 -0.1252
 4537TIP3    H135102   0.617   2.510   1.066 -1.0244  1.2335  2.4873
 4537TIP3    H235103   0.590   2.386   1.148 -2.2046 -0.2570 -0.0305
 4538TIP3   OH235104   6.225   5.812   3.064  0.4732 -0.4112 -0.4683
 4538TIP3    H135105   6.137   5.850   3.058  1.1373  1.0240 -2.1760
 4538TIP3    H235106   6.213   5.720   3.041 -0.8506 -0.7734  1.4604
 4539TIP3   OH235107   1.286   2.867  14.437  0.0355  0.1582 -0.4359
 4539TIP3    H135108   1.364   2.811  14.430 -0.1132  0.0937 -2.0957
 4539TIP3    H235109   1.213   2.810  14.413 -0.8024 -0.1959  2.5417
 4540TIP3   OH235110   3.832   6.068  14.602  0.5297  0.0075  0.1611
 4540TIP3    H135111   3.737   6.062  14.609  0.4928  0.0105 -0.2848
 4540TIP3    H235112   3.847   6.109  14.516  0.9282  0.1197  0.2814
 4541TIP3   OH235113   3.730   2.463  14.156  0.0150 -0.0709 -0.1486
 4541TIP3    H135114   3.674   2.424  14.089 -0.6915  1.6467 -0.6074
 4541TIP3    H235115   3.689   2.439  14.239 -0.2834 -0.4602 -0.4075
 4542TIP3   OH235116   1.671   2.070  14.893 -0.8275 -0.0300  0.5061
 4542TIP3    H135117   1.583   2.051  14.925 -1.4870  0.6459 -0.8118
 4542TIP3    H235118   1.708   1.985  14.870 -0.6868 -0.4304  2.0958
 4543TIP3   OH235119   5.003   6.646  13.328  0.0029  0.6701 -0.7065
 4543TIP3    H135120   5.013   6.718  13.392  1.2168 -0.2931  0.2477
 4543TIP3    H235121   5.023   6.567  13.378  0.2964 -0.1876 -2.1312
 4544TIP3   OH235122   5.133   5.568  15.808 -0.4055  0.1740  0.1737
 4544TIP3    H135123   5.176   5.483  15.809  1.4683  1.0433 -0.1936
 4544TIP3    H235124   5.054   5.555  15.755 -1.2335 -1.7475  1.7591
 4545TIP3   OH235125   4.403   3.365  13.751  0.8053  0.3707  0.3506
 4545TIP3    H135126   4.445   3.307  13.815  1.5693  1.4374  0.8454
 4545TIP3    H235127   4.457   3.358  13.673  0.0772 -0.6548 -0.0896
 4546TIP3   OH235128   4.836   2.560  15.851  0.2610  0.5535 -0.5977
 4546TIP3    H135129   4.820   2.648  15.819 -0.7299  0.8610  0.6485
 4546TIP3    H235130   4.774   2.549  15.924  1.6287 -0.4866  0.4738
 4547TIP3   OH235131   1.284   4.482   2.894 -0.7860 -0.6489  0.4374
 4547TIP3    H135132   1.275   4.401   2.844 -1.6487  0.1945 -0.8539
 4547TIP3    H235133   1.224   4.473   2.968 -0.5459 -1.3534  0.5507
 4548TIP3   OH235134   5.696   0.451  11.128 -0.0332  0.3663  0.8199
 4548TIP3    H135135   5.674   0.374  11.181  1.5030  0.6692  1.9808
 4548TIP3    H235136   5.782   0.478  11.160  0.9041  0.6734 -1.7385
 4549TIP3   OH235137   1.996   5.982   3.602 -0.3432  0.0243  0.4800
 4549TIP3    H135138   2.003   6.051   3.536  2.8634 -0.7686 -0.1928
 4549TIP3    H235139   1.979   5.902   3.552  0.6597 -0.3543  0.7066
 4550TIP3   OH235140   4.025   2.324  14.335 -0.0469  0.3631  0.0942
 4550TIP3    H135141   4.007   2.302  14.427 -0.6657  0.4703  0.0045
 4550TIP3    H235142   4.090   2.394  14.340  2.6847 -2.0331  0.3621
 4551TIP3   OH235143   4.283   2.971  13.639 -0.1326 -0.2663  0.0231
 4551TIP3    H135144   4.358   2.948  13.584  0.6943  1.6011  0.2903
 4551TIP3    H235145   4.311   2.948  13.728  1.1715  2.5822  0.4525
 4552TIP3   OH235146   1.986   1.319  14.243 -0.6032  0.5121  0.2455
 4552TIP3    H135147   2.001   1.226  14.257 -1.4381  0.3370  0.0477
 4552TIP3    H235148   1.988   1.357  14.331 -0.7111  0.2350  0.3678
 4553TIP3   OH235149   4.878   1.488  13.920 -0.0100 -0.2317 -0.5546
 4553TIP3    H135150   4.958   1.483  13.972 -0.9367 -0.6954  0.8904
 4553TIP3    H235151   4.848   1.397  13.912 -1.4603  0.0935  0.7114
 4554TIP3   OH235152   3.422   3.582   4.671  0.0097  0.2912  0.1976
 4554TIP3    H135153   3.422   3.654   4.734  0.0888 -0.9777  1.7100
 4554TIP3    H235154   3.355   3.522   4.703 -0.3704 -0.1242 -1.2903
 4555TIP3   OH235155   5.172   2.703  12.672  0.4559  0.2937  0.6709
 4555TIP3    H135156   5.252   2.651  12.682  1.1805  1.3260  0.5299
 4555TIP3    H235157   5.202   2.794  12.683 -0.6705  0.7104  0.4175
 4556TIP3   OH235158   5.139   1.828   2.631 -0.1368 -0.7306  0.4060
 4556TIP3    H135159   5.120   1.750   2.683 -0.2053 -1.1996 -0.3037
 4556TIP3    H235160   5.235   1.831   2.626 -0.1439 -1.1551 -0.1181
 4557TIP3   OH235161   2.270   4.079   2.205 -0.1015  0.4987 -0.1103
 4557TIP3    H135162   2.193   4.027   2.227 -1.7177  1.7080 -2.4917
 4557TIP3    H235163   2.254   4.163   2.248 -0.1637  0.7861 -0.6963
 4558TIP3   OH235164   4.078   6.712   1.154 -0.2486  0.0161 -0.2861
 4558TIP3    H135165   4.121   6.737   1.072 -0.7990 -0.0276 -0.5939
 4558TIP3    H235166   4.049   6.622   1.140 -1.1326  0.3057 -0.3802
 4559TIP3   OH235167   6.480   4.586   2.175 -0.1835 -0.0767  0.5264
 4559TIP3    H135168   6.401   4.555   2.219  0.1996  0.4381  1.5959
 4559TIP3    H235169   6.549   4.526   2.204  0.3450  1.0697  1.7509
 4560TIP3   OH235170   5.417   5.262  15.723  0.7338  0.8770  0.1439
 4560TIP3    H135171   5.385   5.216  15.645 -0.4725  0.4902  0.8330
 4560TIP3    H235172   5.491   5.209  15.753  0.0598 -0.0218  0.2854
 4561TIP3   OH235173   1.631   6.080  15.309  1.1048 -0.6281 -0.2087
 4561TIP3    H135174   1.582   6.129  15.375  0.1989 -0.3868 -1.0333
 4561TIP3    H235175   1.614   5.988  15.331 -0.7370 -0.5674 -1.1538
 4562TIP3   OH235176   6.006   6.283  14.124  0.2160 -0.5338 -0.0944
 4562TIP3    H135177   5.947   6.321  14.189  0.9044 -0.0995  0.2913
 4562TIP3    H235178   6.002   6.344  14.050 -0.3369 -0.8697 -0.3492
 4563TIP3   OH235179   2.042   2.482   4.379 -0.3225  0.6766 -0.4944
 4563TIP3    H135180   2.003   2.504   4.295 -0.8744 -1.5508 -0.8909
 4563TIP3    H235181   2.130   2.520   4.375  0.9130 -2.0117 -3.5082
 4564TIP3   OH235182   5.563   0.514   3.352  0.0393  0.1148 -0.3124
 4564TIP3    H135183   5.611   0.460   3.290  0.0199  0.9695 -1.0898
 4564TIP3    H235184   5.630   0.551   3.409  0.0833 -0.4435  0.0064
 4565TIP3   OH235185   4.074   0.520   5.489 -0.1392 -0.2476 -0.6640
 4565TIP3    H135186   3.985   0.553   5.499  0.1878  0.4524  0.0275
 4565TIP3    H235187   4.075   0.479   5.402 -0.5493  1.6650 -1.6359
 4566TIP3   OH235188   4.892   5.401  17.015 -0.4560  0.0502  0.2962
 4566TIP3    H135189   4.848   5.318  17.033 -1.4563  0.0878 -1.7357
 4566TIP3    H235190   4.871   5.421  16.924  3.7482  0.1232 -0.8374
 4567TIP3   OH235191   3.062   5.426   2.305 -0.3573  0.2219 -0.2643
 4567TIP3    H135192   3.070   5.438   2.399 -1.4102  0.7426 -0.2296
 4567TIP3    H235193   3.041   5.333   2.294 -1.1416  0.3533  0.0799
 4568TIP3   OH235194   0.851   5.474  11.733 -0.0750 -0.2424  0.1132
 4568TIP3    H135195   0.926   5.531  11.718 -0.8813  1.3560  1.7002
 4568TIP3    H235196   0.777   5.534  11.743 -1.2158 -1.6500  0.5295
 4569TIP3   OH235197   6.764   5.992   5.561 -0.0173  0.1890 -0.7427
 4569TIP3    H135198   6.727   6.005   5.473  1.7327 -0.7342 -1.6742
 4569TIP3    H235199   6.838   6.052   5.564 -0.6021  0.8740  0.4851
 4570TIP3   OH235200   2.267   5.700   2.589 -0.5307 -0.3055 -0.1781
 4570TIP3    H135201   2.310   5.675   2.508  0.8195  0.5646  0.2475
 4570TIP3    H235202   2.247   5.793   2.579 -0.8621 -0.3216  0.2713
 4571TIP3   OH235203   4.787   3.911   2.011  0.6125  0.3016 -0.4523
 4571TIP3    H135204   4.839   3.939   1.936  2.7254 -0.6656  0.5737
 4571TIP3    H235205   4.815   3.968   2.083  2.9035 -2.3393  0.9556
 4572TIP3   OH235206   3.972   0.160  13.456  0.0951  0.2084 -0.1340
 4572TIP3    H135207   3.878   0.155  13.442  0.2010  0.1744 -0.8806
 4572TIP3    H235208   4.008   0.087  13.406  0.3783 -1.0363  1.7881
 4573TIP3   OH235209   5.138   4.729   3.876  0.1033  0.5847  0.6296
 4573TIP3    H135210   5.138   4.824   3.883 -0.8222  0.6545 -0.1891
 4573TIP3    H235211   5.218   4.708   3.829  0.8422  0.8732  1.7286
 4574TIP3   OH235212   3.987   0.641  16.522  0.3440  0.0076  0.1782
 4574TIP3    H135213   3.956   0.685  16.442 -0.9126  0.5039  0.9062
 4574TIP3    H235214   4.016   0.555  16.492  0.5751  0.4472 -0.9186
 4575TIP3   OH235215   1.633   3.202  10.995 -0.0099 -0.2261  0.3772
 4575TIP3    H135216   1.588   3.162  11.070 -0.2165 -1.6645 -0.4554
 4575TIP3    H235217   1.562   3.231  10.938  0.0441 -2.1730 -0.7717
 4576TIP3   OH235218   5.914   5.899   4.231 -0.3052  0.3916  0.3099
 4576TIP3    H135219   5.820   5.915   4.224  0.0772  3.2526  0.7291
 4576TIP3    H235220   5.931   5.897   4.325 -0.0424 -1.0903  0.2545
 4577TIP3   OH235221   1.943   0.971  11.933 -0.4012 -0.2428 -0.0798
 4577TIP3    H135222   1.892   1.026  11.873 -0.1165  2.4215  1.9172
 4577TIP3    H235223   2.034   0.984  11.905 -0.4675 -1.5999 -1.0091
 4578TIP3   OH235224   5.800   5.419  12.599  0.2600  0.8399  0.6596
 4578TIP3    H135225   5.856   5.492  12.623 -0.9534  1.1011  3.1144
 4578TIP3    H235226   5.724   5.427  12.658 -2.7009  0.8649 -2.7801
 4579TIP3   OH235227   6.074   2.901   4.113 -0.1920  0.4232  0.2735
 4579TIP3    H135228   6.048   2.866   4.027  1.1533 -2.0173  0.7621
 4579TIP3    H235229   6.169   2.888   4.116 -0.0423  1.6455  1.6392
 4580TIP3   OH235230   5.168   3.107   4.640 -0.2401  0.1117 -1.2546
 4580TIP3    H135231   5.136   3.196   4.624 -1.5639 -0.3794 -1.4225
 4580TIP3    H235232   5.191   3.075   4.553 -1.7744 -0.4368 -1.4898
 4581TIP3   OH235233   4.606   0.791  13.896 -0.0599 -0.5387 -0.1641
 4581TIP3    H135234   4.524   0.786  13.846 -0.4513 -1.1201  0.5235
 4581TIP3    H235235   4.637   0.701  13.901  0.9111 -0.2649 -0.8630
 4582TIP3   OH235236   2.048   0.024   0.183  0.2136 -1.1020  0.0816
 4582TIP3    H135237   2.080   0.026   0.273 -1.3058  0.2958  0.6253
 4582TIP3    H235238   1.960  -0.011   0.190  0.2506 -1.4209 -0.9344
 4583TIP3   OH235239   0.959   1.280  16.563  0.2402  0.0759  0.2925
 4583TIP3    H135240   0.898   1.354  16.573  0.9748  0.9343 -1.1601
 4583TIP3    H235241   0.906   1.203  16.580 -1.9025  0.6238 -2.9019
 4584TIP3   OH235242   4.536   4.956   5.365  0.3916 -0.4888  0.0102
 4584TIP3    H135243   4.551   5.044   5.399  0.2946 -0.9151  1.1824
 4584TIP3    H235244   4.441   4.948   5.357  0.4369 -0.1177 -1.1509
 4585TIP3   OH235245   0.763   4.985  16.280 -0.3624  0.0459  0.1519
 4585TIP3    H135246   0.708   4.907  16.294  0.4608 -0.3319  1.4756
 4585TIP3    H235247   0.718   5.054  16.328 -0.4961  0.1176 -0.0743
 4586TIP3   OH235248   3.460   4.146   5.350 -0.4301  0.3829 -0.3877
 4586TIP3    H135249   3.484   4.204   5.279  1.6441  1.1932  0.8819
 4586TIP3    H235250   3.421   4.203   5.416 -0.2993  0.0065  0.0222
 4587TIP3   OH235251   2.291   4.733  16.138  0.0920 -0.1832  0.1747
 4587TIP3    H135252   2.219   4.726  16.075 -0.1258  2.3739  0.0729
 4587TIP3    H235253   2.251   4.712  16.223 -0.7450  1.0398  0.0952
 4588TIP3   OH235254   0.589   2.032  13.675 -0.0831  0.4848 -0.3352
 4588TIP3    H135255   0.617   2.014  13.585 -0.7902 -1.1406 -0.2642
 4588TIP3    H235256   0.543   1.952  13.702 -1.8468  1.7958  0.6958
 4589TIP3   OH235257   4.260   2.963  14.514  0.2269 -0.1362  0.3173
 4589TIP3    H135258   4.184   2.943  14.570 -1.3712  1.1453 -1.2651
 4589TIP3    H235259   4.284   3.052  14.538  1.7953 -0.7929  1.3452
 4590TIP3   OH235260   2.612   5.213   2.948 -0.0332 -0.3554 -0.2968
 4590TIP3    H135261   2.537   5.270   2.965 -0.3072 -0.5760 -0.7400
 4590TIP3    H235262   2.683   5.273   2.923  0.1641 -0.0873  0.8391
 4591TIP3   OH235263   1.337   3.252   0.588  0.3398  0.2091 -0.3465
 4591TIP3    H135264   1.417   3.304   0.597  0.8362 -0.4744 -0.6794
 4591TIP3    H235265   1.350   3.201   0.508 -1.4369  1.7680 -1.7267
 4592TIP3   OH235266   3.622   2.565  11.401  0.0057 -0.5013  0.2397
 4592TIP3    H135267   3.561   2.599  11.466 -1.5647 -0.4339 -1.1807
 4592TIP3    H235268   3.625   2.471  11.417  1.8060 -0.1783  2.1138
 4593TIP3   OH235269   1.328   5.686  12.529  0.3320  0.1398 -0.7210
 4593TIP3    H135270   1.317   5.751  12.599 -3.1587 -0.3807 -0.6508
 4593TIP3    H235271   1.331   5.738  12.448  0.0817  0.5079 -0.4932
 4594TIP3   OH235272   6.026   2.192  15.821 -0.5550 -0.6699  0.1209
 4594TIP3    H135273   6.097   2.141  15.859  0.1930 -1.3833 -2.0656
 4594TIP3    H235274   6.057   2.216  15.734 -2.5064  0.0732 -0.4403
 4595TIP3   OH235275   3.304   3.749   0.775  0.1514 -0.0482  1.0866
 4595TIP3    H135276   3.226   3.778   0.727  1.3049 -0.9300 -1.5169
 4595TIP3    H235277   3.356   3.829   0.787  0.4085  0.0144 -0.3056
 4596TIP3   OH235278   1.030   6.376  12.527  0.1486  0.1632  0.0351
 4596TIP3    H135279   1.121   6.380  12.556  0.0701  0.1247  0.2848
 4596TIP3    H235280   1.002   6.468  12.524 -0.0040  0.1354  0.5855
 4597TIP3   OH235281   4.989   2.615   1.317  1.1162 -0.6245 -0.4701
 4597TIP3    H135282   4.904   2.646   1.287  0.5796 -0.5715  1.0117
 4597TIP3    H235283   5.024   2.686   1.370  0.7189 -1.7355  1.3937
 4598TIP3   OH235284   3.704   5.803   5.714 -0.4357  0.3515 -0.4451
 4598TIP3    H135285   3.690   5.771   5.625 -0.2494  1.2078 -0.8006
 4598TIP3    H235286   3.777   5.751   5.747 -0.0086  0.5365 -1.0766
 4599TIP3   OH235287   0.696   5.559  13.698 -0.3556 -0.1579  0.4831
 4599TIP3    H135288   0.638   5.609  13.755 -0.3970  0.8194 -0.3936
 4599TIP3    H235289   0.682   5.596  13.611 -0.5031 -1.8143 -0.2232
 4600TIP3   OH235290   0.719   0.390   2.420 -0.4582  0.4362  0.7314
 4600TIP3    H135291   0.632   0.356   2.399 -1.0673  0.5964  2.7440
 4600TIP3    H235292   0.703   0.476   2.458  0.6102  0.5924  0.8665
 4601TIP3   OH235293   3.178   0.352   5.407  0.2343  0.3750  0.2641
 4601TIP3    H135294   3.249   0.350   5.343 -0.4324  0.1652 -0.4966
 4601TIP3    H235295   3.209   0.411   5.476  1.2653  0.0356  0.1060
 4602TIP3   OH235296   3.106   1.701   2.669  0.5664  0.3152  0.0293
 4602TIP3    H135297   3.043   1.773   2.667 -0.4893 -0.5676  0.7733
 4602TIP3    H235298   3.054   1.623   2.653  1.6473 -0.3348 -0.4009
 4603TIP3   OH235299   0.038   0.477  13.547  0.1438 -0.1661 -0.2813
 4603TIP3    H135300   0.091   0.412  13.594  0.7377  1.1919  1.0010
 4603TIP3    H235301   0.098   0.515  13.482  0.1803  0.0280 -0.1338
 4604TIP3   OH235302   0.379   2.454   0.564  0.0649 -0.0017 -0.2228
 4604TIP3    H135303   0.366   2.405   0.483 -0.2536  0.0025 -0.1738
 4604TIP3    H235304   0.330   2.535   0.552 -1.0792 -0.5626  0.4803
 4605TIP3   OH235305   1.952   0.248  11.817  0.3141 -0.2135  0.6424
 4605TIP3    H135306   1.866   0.288  11.807  0.8227  1.1611  1.4973
 4605TIP3    H235307   1.934   0.154  11.826 -0.8748 -0.2702 -1.7652
 4606TIP3   OH235308   4.241   3.861  10.644 -0.3945 -0.4634 -0.4261
 4606TIP3    H135309   4.320   3.831  10.598 -0.9778  0.3523 -2.0529
 4606TIP3    H235310   4.171   3.806  10.609 -1.0070  0.8148 -1.2698
 4607TIP3   OH235311   0.988   2.382  10.654  0.1212 -0.3907 -0.4007
 4607TIP3    H135312   1.027   2.370  10.568  2.1092  1.3491  0.1799
 4607TIP3    H235313   0.986   2.477  10.667  1.8824 -0.6171  2.2905
 4608TIP3   OH235314   1.525   0.573   2.979 -0.3283  0.0174 -0.4692
 4608TIP3    H135315   1.525   0.668   2.987  0.4765  0.0234 -0.4841
 4608TIP3    H235316   1.435   0.547   3.002 -0.5068  0.7612 -0.3004
 4609TIP3   OH235317   1.577   4.980  15.268  0.4578 -0.3052 -0.1903
 4609TIP3    H135318   1.596   5.073  15.256  0.7338 -0.3959 -0.4539
 4609TIP3    H235319   1.582   4.967  15.363  0.2058 -0.0073 -0.1356
 4610TIP3   OH235320   1.346   5.407   2.794  0.3186  0.1070  0.0623
 4610TIP3    H135321   1.357   5.500   2.772  1.5091 -0.0763 -0.1412
 4610TIP3    H235322   1.373   5.401   2.885 -0.8524  0.1436  0.4360
 4611TIP3   OH235323   2.156   2.526   5.350  0.1814  0.3820 -0.4726
 4611TIP3    H135324   2.087   2.577   5.394 -1.0627 -1.1010 -0.6206
 4611TIP3    H235325   2.125   2.436   5.353  0.9933 -0.0392 -2.6879
 4612TIP3   OH235326   3.725   0.911  12.296 -0.4106  0.5407  0.3355
 4612TIP3    H135327   3.796   0.959  12.254  0.2073  1.0957  1.9464
 4612TIP3    H235328   3.766   0.835  12.335 -0.9367  0.1484  0.1428
 4613TIP3   OH235329   0.109   0.914  13.716  0.4288  0.2128 -0.1643
 4613TIP3    H135330   0.173   0.903  13.787 -0.8094  0.9066  1.1062
 4613TIP3    H235331   0.055   0.835  13.721  0.7043 -0.0183 -0.7481
 4614TIP3   OH235332   1.525   0.454   5.162 -0.2154  0.3340  0.8801
 4614TIP3    H135333   1.482   0.529   5.203  0.0448  2.9237 -2.9839
 4614TIP3    H235334   1.463   0.426   5.094  0.5840 -1.6775  0.9185
 4615TIP3   OH235335   3.161   4.740   1.535  0.1466  0.4390 -0.1447
 4615TIP3    H135336   3.072   4.770   1.519  0.6760  1.6889 -0.9503
 4615TIP3    H235337   3.168   4.734   1.630 -0.9438 -0.1853 -0.0903
 4616TIP3   OH235338   0.782   0.489  16.515 -0.3174  0.9928 -0.1360
 4616TIP3    H135339   0.783   0.568  16.461  0.4380 -0.8615 -3.0366
 4616TIP3    H235340   0.696   0.450  16.499 -0.4620  0.9055  0.8016
 4617TIP3   OH235341   0.473   5.545  15.164 -0.1614 -0.0646  0.0980
 4617TIP3    H135342   0.554   5.502  15.192 -0.5553 -0.7631  0.1838
 4617TIP3    H235343   0.485   5.563  15.071 -0.3704 -1.2515 -0.1689
 4618TIP3   OH235344   4.484   4.389   2.042 -0.4077  0.8144 -0.3990
 4618TIP3    H135345   4.464   4.382   2.135  2.8750 -3.6361  0.3426
 4618TIP3    H235346   4.576   4.414   2.040  0.2197 -1.3417 -2.2222
 4619TIP3   OH235347   2.766   4.838  11.053 -0.2388  0.3747  0.5499
 4619TIP3    H135348   2.860   4.857  11.049 -0.5600  1.8624 -1.6113
 4619TIP3    H235349   2.761   4.743  11.037  0.9377 -0.0367  2.3343
 4620TIP3   OH235350   2.712   3.751  13.509 -0.0362 -0.0776 -0.3277
 4620TIP3    H135351   2.646   3.717  13.448  0.7238 -0.8258 -0.7418
 4620TIP3    H235352   2.779   3.683  13.513 -0.2726 -0.2450  1.6905
 4621TIP3   OH235353   3.768   5.011  13.064  0.2195  0.2182 -0.0650
 4621TIP3    H135354   3.847   5.045  13.106 -0.7815  0.2142  1.9983
 4621TIP3    H235355   3.768   4.917  13.086 -0.7805  0.3912  0.7757
 4622TIP3   OH235356   0.337   2.409  14.408  0.1332 -0.1277 -0.6230
 4622TIP3    H135357   0.387   2.441  14.333 -0.2679  1.4585 -0.2549
 4622TIP3    H235358   0.294   2.487  14.443 -1.0399 -1.1241  0.2424
 4623TIP3   OH235359   1.912   6.462   1.434  0.4491 -0.1809 -0.0660
 4623TIP3    H135360   1.962   6.501   1.362 -0.1129  1.8328  0.5630
 4623TIP3    H235361   1.826   6.504   1.430  0.6623  0.6191  2.2323
 4624TIP3   OH235362   6.130   3.889   3.827 -0.2877  0.2378 -0.3002
 4624TIP3    H135363   6.081   3.960   3.867 -0.7686  1.8356 -3.3743
 4624TIP3    H235364   6.064   3.824   3.804 -0.1737 -0.1432  0.4351
 4625TIP3   OH235365   3.333   0.513   5.569 -0.3452 -0.4727  0.1247
 4625TIP3    H135366   3.276   0.524   5.644 -3.0962  2.0268 -2.0804
 4625TIP3    H235367   3.393   0.588   5.573  1.4452 -1.8946  1.2510
 4626TIP3   OH235368   4.761   1.209   4.589  0.7995 -0.1344  0.0485
 4626TIP3    H135369   4.704   1.194   4.664  0.8032 -0.6176 -0.0433
 4626TIP3    H235370   4.783   1.303   4.594  1.6707 -0.3688  1.2702
 4627TIP3   OH235371   2.198   2.813  14.033  0.6970  0.0217  0.3254
 4627TIP3    H135372   2.113   2.856  14.048  0.7295 -0.2187  1.2471
 4627TIP3    H235373   2.238   2.863  13.962 -0.4699 -0.2214 -0.5410
 4628TIP3   OH235374   2.238   4.889   2.773  0.7195 -0.6380  0.7350
 4628TIP3    H135375   2.283   4.939   2.705  1.1949 -1.4614  0.4288
 4628TIP3    H235376   2.246   4.943   2.852  1.1441 -0.1943  0.3988
 4629TIP3   OH235377   0.362   5.398  13.888 -0.1353 -0.3580 -0.3792
 4629TIP3    H135378   0.284   5.448  13.868  0.6779  0.1740 -2.5090
 4629TIP3    H235379   0.391   5.363  13.803  3.0012  1.1089 -0.0712
 4630TIP3   OH235380   4.454   1.312  13.381  0.1102 -0.2812 -0.1814
 4630TIP3    H135381   4.511   1.340  13.309  2.8644 -1.8769  1.2030
 4630TIP3    H235382   4.508   1.324  13.459 -2.9615  1.9331  1.8051
 4631TIP3   OH235383   3.146   4.901  13.322 -0.0559 -0.1303  0.2450
 4631TIP3    H135384   3.062   4.854  13.323 -0.3287  0.3520  0.6718
 4631TIP3    H235385   3.210   4.834  13.300 -0.7565 -0.1504 -2.0856
 4632TIP3   OH235386   4.266   6.157  12.626  0.4236  0.1702 -0.4993
 4632TIP3    H135387   4.321   6.079  12.624 -1.9576 -1.5980 -1.2351
 4632TIP3    H235388   4.197   6.139  12.563  0.4154  3.4219 -1.5869
 4633TIP3   OH235389   2.476   3.088   4.977  0.4374  0.1090  0.1294
 4633TIP3    H135390   2.418   3.012   4.984  0.5544 -0.1999 -1.8646
 4633TIP3    H235391   2.528   3.072   4.899  0.7024  2.1054 -0.1517
 4634TIP3   OH235392   6.612   2.291   4.395 -0.0113  0.7109 -0.3514
 4634TIP3    H135393   6.554   2.349   4.346  1.4785  0.8099 -2.1127
 4634TIP3    H235394   6.565   2.208   4.401 -1.7395  1.7552  1.3091
 4635TIP3   OH235395   6.295   4.244   0.838 -0.5232  0.3934 -0.3760
 4635TIP3    H135396   6.338   4.322   0.803  0.4199 -0.5333 -1.3486
 4635TIP3    H235397   6.208   4.244   0.797 -0.3018  0.6132 -0.8481
 4636TIP3   OH235398   4.141   4.333   2.124 -0.5681 -0.1064  0.7957
 4636TIP3    H135399   4.208   4.371   2.066 -0.5652 -0.5004  0.5306
 4636TIP3    H235400   4.191   4.277   2.184 -0.5790  0.2472  1.1328
 4637TIP3   OH235401   6.106   5.272  11.660 -0.3728  0.2143  0.1222
 4637TIP3    H135402   6.018   5.268  11.698  0.3674 -0.0230  1.9406
 4637TIP3    H235403   6.130   5.180  11.647  0.3418  0.1744  1.5359
 4638TIP3   OH235404   1.172   0.889   5.901  0.2717 -0.2821  0.4667
 4638TIP3    H135405   1.211   0.974   5.920 -0.0512  0.3695 -1.5368
 4638TIP3    H235406   1.082   0.909   5.875  0.4428 -1.1153 -0.8879
 4639TIP3   OH235407   1.083   6.249   5.898 -0.1762 -0.2769 -0.1653
 4639TIP3    H135408   1.095   6.179   5.834  0.8556 -0.3595  0.0950
 4639TIP3    H235409   0.993   6.239   5.929 -0.3868 -0.8023 -0.9275
 4640TIP3   OH235410   3.776   2.605  11.965 -0.0041 -0.1955  0.1337
 4640TIP3    H135411   3.799   2.690  12.004 -3.4515 -0.0991  2.3718
 4640TIP3    H235412   3.710   2.626  11.899 -0.4476 -1.0496  0.2904
 4641TIP3   OH235413   5.065   1.399   0.493  0.4621 -0.2856 -0.0008
 4641TIP3    H135414   5.070   1.314   0.449 -1.3279 -0.3319 -0.1877
 4641TIP3    H235415   4.999   1.387   0.560  1.7856  0.3586  1.4712
 4642TIP3   OH235416   4.644   6.394  17.028 -0.2144 -0.9749  0.0336
 4642TIP3    H135417   4.616   6.336  16.957  0.4942  0.0041 -1.0884
 4642TIP3    H235418   4.719   6.349  17.067  0.1428 -0.9589 -0.6272
 4643TIP3   OH235419   3.291   3.741  14.647 -0.2516  0.3151  0.4384
 4643TIP3    H135420   3.308   3.832  14.672 -0.2696  0.7543 -1.0363
 4643TIP3    H235421   3.210   3.719  14.691 -0.2391  1.0176  0.8266
 4644TIP3   OH235422   6.608   0.917   1.866 -0.0211  0.3700 -0.1187
 4644TIP3    H135423   6.703   0.919   1.872  0.2711  1.0117 -3.0675
 4644TIP3    H235424   6.585   1.002   1.828 -1.5316 -0.4871 -1.2416
 4645TIP3   OH235425   4.078   1.798   6.152 -0.1335  0.7128 -0.3406
 4645TIP3    H135426   4.016   1.814   6.081 -0.8988  0.1515  0.1837
 4645TIP3    H235427   4.088   1.883   6.195  0.9388  1.2464 -1.5636
 4646TIP3   OH235428   0.041   3.690   4.031 -0.2000  0.4913 -0.3543
 4646TIP3    H135429  -0.011   3.739   3.967  1.8000 -1.0320 -3.3649
 4646TIP3    H235430  -0.021   3.626   4.066 -1.8998  2.6927  0.9809
 4647TIP3   OH235431   2.193   6.044   0.361  0.3262 -0.0406  0.0775
 4647TIP3    H135432   2.232   5.957   0.346 -0.5648 -0.4247 -0.0410
 4647TIP3    H235433   2.268   6.100   0.381  0.8481 -0.9780  0.8200
 4648TIP3   OH235434   1.331   2.402   4.969  0.6942 -0.5458  0.2278
 4648TIP3    H135435   1.368   2.318   4.941 -2.0596 -2.5837  2.1875
 4648TIP3    H235436   1.381   2.425   5.047  2.1444  0.2522 -0.8918
 4649TIP3   OH235437   4.912   2.329  15.762 -0.1219 -0.7325  0.3353
 4649TIP3    H135438   4.830   2.329  15.711 -1.3634 -1.8961  2.2028
 4649TIP3    H235439   4.921   2.420  15.791 -1.1632 -0.7253  0.6962
 4650TIP3   OH235440   3.673   0.002  15.738  0.7628 -0.1092 -0.5395
 4650TIP3    H135441   3.611  -0.059  15.777  0.0203 -0.4282 -2.1486
 4650TIP3    H235442   3.621   0.053  15.675  1.9988  0.0065 -1.5192
 4651TIP3   OH235443   6.236   6.607  16.653  0.3855 -0.4478  0.6833
 4651TIP3    H135444   6.260   6.530  16.602  1.6942  0.5618 -0.3039
 4651TIP3    H235445   6.311   6.623  16.711 -0.4688 -0.7162  1.9157
 4652TIP3   OH235446   4.805   0.965  15.823  0.6595  0.2056  0.2157
 4652TIP3    H135447   4.826   0.942  15.913  1.5765 -0.0250 -0.0435
 4652TIP3    H235448   4.848   1.050  15.809  0.7794  0.0972 -0.0909
 4653TIP3   OH235449   4.542   1.058  13.581 -0.2827  0.2164 -0.0951
 4653TIP3    H135450   4.550   1.046  13.486 -2.2204 -0.4637 -0.2146
 4653TIP3    H235451   4.448   1.063  13.597 -0.1379 -1.8151  2.0109
 4654TIP3   OH235452   2.339   5.459   5.121  0.0797 -0.7784  0.0040
 4654TIP3    H135453   2.367   5.550   5.116  0.8190 -1.0570 -1.2763
 4654TIP3    H235454   2.243   5.463   5.114  0.0435 -0.0510  0.8518
 4655TIP3   OH235455   4.451   0.081   5.005 -0.1961 -0.7069  0.5683
 4655TIP3    H135456   4.361   0.099   5.031 -0.3002 -0.8092  0.2734
 4655TIP3    H235457   4.452   0.091   4.910  0.4219  0.6849  0.6969
 4656TIP3   OH235458   4.511   2.207   1.153  0.3996 -0.0278  0.1909
 4656TIP3    H135459   4.588   2.249   1.115  0.2222 -0.0200 -0.1727
 4656TIP3    H235460   4.452   2.280   1.173  0.2020 -0.0817 -0.1873
 4657TIP3   OH235461   4.654   5.224  15.358  0.5491  0.3394  0.3876
 4657TIP3    H135462   4.589   5.173  15.311 -0.2478  0.6499  1.1363
 4657TIP3    H235463   4.647   5.196  15.449  1.3904  0.4505  0.4973
 4658TIP3   OH235464   4.709   0.596  12.209 -0.4959  0.1653 -0.3230
 4658TIP3    H135465   4.802   0.619  12.210 -0.6287  0.7090 -0.3359
 4658TIP3    H235466   4.690   0.580  12.116 -0.1845 -0.9418 -0.2166
 4659TIP3   OH235467   2.515   5.975  11.576  0.2745  0.4899  0.6975
 4659TIP3    H135468   2.446   6.041  11.587  0.3777  0.7997 -0.4784
 4659TIP3    H235469   2.515   5.928  11.660 -2.9618 -1.0651  0.0015
 4660TIP3   OH235470   1.140   2.973   2.907  0.5361 -0.0442  0.0692
 4660TIP3    H135471   1.112   2.882   2.904  1.3959 -0.2869 -2.1974
 4660TIP3    H235472   1.067   3.019   2.949 -0.9921 -1.4105 -0.9652
 4661TIP3   OH235473   3.740   4.738  14.663 -0.3433  0.1374  0.1934
 4661TIP3    H135474   3.700   4.686  14.594  1.0227  0.2457 -0.7111
 4661TIP3    H235475   3.820   4.773  14.624 -0.1745  1.2333  1.4335
 4662TIP3   OH235476   5.599   3.852   1.150  0.3836 -0.1068  0.5729
 4662TIP3    H135477   5.691   3.856   1.177  0.3939  1.6053  0.4079
 4662TIP3    H235478   5.554   3.816   1.226  1.0282  0.2540  1.1454
 4663TIP3   OH235479   4.462   3.734  15.331  0.1776  0.3291 -0.3925
 4663TIP3    H135480   4.404   3.791  15.281  1.1959  1.1928 -0.6423
 4663TIP3    H235481   4.537   3.720  15.273 -0.4315 -2.0192 -0.6792
 4664TIP3   OH235482   6.782   2.906   0.378  0.2392 -0.0928 -0.0635
 4664TIP3    H135483   6.715   2.949   0.432  0.0018  1.2010 -1.3302
 4664TIP3    H235484   6.853   2.887   0.439 -0.1984  0.9124  0.7959
 4665TIP3   OH235485   0.955   3.900   1.023 -0.3376 -0.0301  0.2540
 4665TIP3    H135486   0.886   3.878   1.086  0.1544 -1.0992  0.4388
 4665TIP3    H235487   0.990   3.815   0.996  0.0111  0.4503 -0.8513
 4666TIP3   OH235488   1.939   2.425  11.010 -0.4353  0.5994  0.0596
 4666TIP3    H135489   1.972   2.512  10.990  0.0692  0.3312 -0.2712
 4666TIP3    H235490   1.855   2.420  10.963 -0.4281  0.8775  0.0159
 4667TIP3   OH235491   0.854   1.442   3.140 -0.6548 -0.2031 -0.2574
 4667TIP3    H135492   0.920   1.510   3.151  0.9582 -1.7176  0.0280
 4667TIP3    H235493   0.814   1.434   3.227 -1.2830  0.7692 -0.4471
 4668TIP3   OH235494   3.322   5.827  13.857  0.0320 -0.3170  0.1336
 4668TIP3    H135495   3.318   5.876  13.775 -0.0720  0.0952  0.3866
 4668TIP3    H235496   3.358   5.888  13.921 -0.1129 -0.5618  0.4549
 4669TIP3   OH235497   3.664   5.852  13.735 -0.1100 -0.0254  0.0616
 4669TIP3    H135498   3.629   5.842  13.824  0.6325 -0.1988  0.3449
 4669TIP3    H235499   3.587   5.855  13.679 -0.7226  2.2233  0.9053
 4670TIP3   OH235500   1.265   4.165  11.559  0.0329  0.2633 -0.3378
 4670TIP3    H135501   1.252   4.070  11.568 -2.4667  0.6130  0.7429
 4670TIP3    H235502   1.293   4.176  11.468 -3.3406 -1.3324 -1.7814
 4671TIP3   OH235503   3.370   1.685  16.880  0.0536 -0.6851 -0.7261
 4671TIP3    H135504   3.332   1.635  16.807  0.5621 -1.3457 -0.5509
 4671TIP3    H235505   3.294   1.713  16.931 -0.2477 -1.4110 -0.7508
 4672TIP3   OH235506   0.860   6.748   3.274  0.2943  0.0125  0.0531
 4672TIP3    H135507   0.899   6.835   3.266 -0.1417  0.1466 -0.6241
 4672TIP3    H235508   0.931   6.688   3.252  0.9610  0.1292  1.7482
 4673TIP3   OH235509   5.780   4.298  14.047 -0.2649  0.1572 -0.0453
 4673TIP3    H135510   5.836   4.226  14.016 -0.9583  0.2346 -1.6084
 4673TIP3    H235511   5.713   4.256  14.100 -0.2571 -0.2709 -0.3704
 4674TIP3   OH235512   1.964   2.392   1.302  0.4664  0.3094 -0.0647
 4674TIP3    H135513   2.013   2.452   1.359  0.2313 -1.2654  1.9111
 4674TIP3    H235514   1.917   2.335   1.363 -0.3240 -1.0615 -1.8818
 4675TIP3   OH235515   3.209   2.780  13.983  0.5027  0.0935  0.3703
 4675TIP3    H135516   3.244   2.822  14.061  0.2852  0.0255  0.5078
 4675TIP3    H235517   3.284   2.766  13.927  0.9089 -1.1797  1.1776
 4676TIP3   OH235518   2.959   6.141  17.019 -0.6055 -0.1390 -0.4025
 4676TIP3    H135519   2.993   6.129  17.108 -0.3706  1.1721 -0.3001
 4676TIP3    H235520   2.965   6.054  16.979 -1.1372 -0.8531  1.0001
 4677TIP3   OH235521   5.272   6.337   1.028  0.6980 -0.4178  0.1938
 4677TIP3    H135522   5.335   6.286   0.977  0.3268 -0.3916 -0.3080
 4677TIP3    H235523   5.211   6.371   0.962  1.7293  1.8587  0.3400
 4678TIP3   OH235524   0.870   3.059  12.680  0.0783 -0.3131 -0.2222
 4678TIP3    H135525   0.917   3.075  12.598  1.2050 -0.2089  0.4147
 4678TIP3    H235526   0.824   2.977  12.666 -1.3682  0.6815 -1.6408
 4679TIP3   OH235527   6.131   5.987   4.450 -0.4358 -0.0681  0.2196
 4679TIP3    H135528   6.101   6.059   4.394  1.5090 -0.9628 -2.1783
 4679TIP3    H235529   6.058   5.970   4.509 -1.2251  3.3856  0.4623
 4680TIP3   OH235530   6.750   4.013  15.787  0.2056  0.6664  0.9437
 4680TIP3    H135531   6.690   4.009  15.862  1.0389  1.0951  1.6445
 4680TIP3    H235532   6.724   3.938  15.732  1.3372 -1.3721  2.9957
 4681TIP3   OH235533   5.636   2.322  14.693 -0.0669  1.0380  0.3160
 4681TIP3    H135534   5.545   2.304  14.716  0.1492 -0.6961 -0.0590
 4681TIP3    H235535   5.645   2.290  14.603  1.4615 -1.0219  1.1120
 4682TIP3   OH235536   2.316   5.844  10.789  0.2876  0.5061 -0.3731
 4682TIP3    H135537   2.349   5.905  10.722 -1.1498  0.8530 -0.7865
 4682TIP3    H235538   2.256   5.896  10.842 -0.0648 -0.2620 -0.0022
 4683TIP3   OH235539   0.206   6.361  13.355 -0.8998 -0.0767 -0.7230
 4683TIP3    H135540   0.295   6.388  13.374 -1.0189  0.0847 -0.3988
 4683TIP3    H235541   0.212   6.318  13.269 -0.2771 -1.2745 -0.0976
 4684TIP3   OH235542   0.113   6.597  16.671 -0.8819 -0.0641 -0.2106
 4684TIP3    H135543   0.018   6.606  16.667 -0.9196 -0.6353 -2.8514
 4684TIP3    H235544   0.129   6.505  16.650  0.2442 -0.3257  1.5931
 4685TIP3   OH235545   5.403   3.371  10.763  0.5150 -0.1954  0.0804
 4685TIP3    H135546   5.359   3.447  10.724 -1.0446 -0.2727  1.5793
 4685TIP3    H235547   5.493   3.379  10.734  0.3714  2.1682  0.0291
 4686TIP3   OH235548   3.677   2.369   5.659  0.5590  0.4160  0.1386
 4686TIP3    H135549   3.751   2.387   5.602  0.1550  1.7059 -0.0186
 4686TIP3    H235550   3.687   2.431   5.732 -0.5296  0.8547 -0.0565
 4687TIP3   OH235551   3.816   3.405   1.122  0.2907 -0.0841  0.4598
 4687TIP3    H135552   3.883   3.357   1.073  0.5353 -1.9069  2.4336
 4687TIP3    H235553   3.735   3.388   1.074  0.6653 -1.0023  0.1268
 4688TIP3   OH235554   6.046   1.652  13.579  1.0540 -0.2483  0.0295
 4688TIP3    H135555   6.106   1.701  13.635 -0.6041  0.4630  1.3167
 4688TIP3    H235556   6.055   1.561  13.608  1.8986 -0.2339 -0.1817
 4689TIP3   OH235557   1.654   3.828  11.580  0.2927 -0.6211 -0.4361
 4689TIP3    H135558   1.577   3.771  11.577  0.7561 -1.2207 -1.3248
 4689TIP3    H235559   1.627   3.901  11.636 -0.4724 -1.4686  0.3404
 4690TIP3   OH235560   2.702   0.897  13.059  0.0619 -0.0391  0.4552
 4690TIP3    H135561   2.657   0.929  12.981  0.3502 -1.9470 -0.5513
 4690TIP3    H235562   2.771   0.961  13.076 -0.7003  0.9720 -0.1875
 4691TIP3   OH235563   5.420   5.128   4.277 -0.6644  0.0486  0.4428
 4691TIP3    H135564   5.414   5.034   4.293 -0.3370  0.0117  0.3532
 4691TIP3    H235565   5.388   5.139   4.187  1.0798 -0.2235 -0.2574
 4692TIP3   OH235566   2.662   6.198   1.233  0.0606  0.4436  0.8854
 4692TIP3    H135567   2.568   6.218   1.237  0.1951  0.9610  1.6414
 4692TIP3    H235568   2.675   6.131   1.300 -0.2572 -1.7645 -1.1449
 4693TIP3   OH235569   6.505   1.446  14.354  0.3799  0.2182  0.4447
 4693TIP3    H135570   6.563   1.410  14.421 -0.1231 -1.5675 -0.0263
 4693TIP3    H235571   6.444   1.502  14.401 -0.6720 -1.8645  1.6924
 4694TIP3   OH235572   4.758   3.801  16.297 -0.0799 -0.0437  0.3719
 4694TIP3    H135573   4.698   3.745  16.345 -0.5703 -0.3372 -0.5592
 4694TIP3    H235574   4.701   3.867  16.255  0.1322 -0.7995 -1.1675
 4695TIP3   OH235575   4.358   4.115   3.812  0.3087 -0.1751  0.5843
 4695TIP3    H135576   4.429   4.177   3.793 -0.7668  0.6545 -0.9954
 4695TIP3    H235577   4.280   4.170   3.817 -0.3709 -1.1836  1.2966
 4696TIP3   OH235578   2.440   5.498   4.393 -0.1570  0.0488 -0.5760
 4696TIP3    H135579   2.465   5.407   4.405  0.7217  0.3136 -0.2925
 4696TIP3    H235580   2.355   5.495   4.348 -0.9687 -0.9246  0.9357
 4697TIP3   OH235581   6.533   6.410  12.067 -0.2494  0.5592  0.2852
 4697TIP3    H135582   6.617   6.364  12.072  0.0884  1.2397  0.9844
 4697TIP3    H235583   6.541   6.467  11.991 -1.1367 -1.4057 -1.3757
 4698TIP3   OH235584   0.745   2.055  14.956 -0.1999 -0.1660  0.3293
 4698TIP3    H135585   0.725   1.965  14.982 -0.2298 -0.2838 -0.0968
 4698TIP3    H235586   0.840   2.060  14.958  0.0307 -1.1974 -2.8202
 4699TIP3   OH235587   3.650   1.826   0.196 -0.2445  0.2942 -0.8881
 4699TIP3    H135588   3.744   1.814   0.185  0.1681  1.1812  1.3255
 4699TIP3    H235589   3.630   1.784   0.279 -1.3853  2.0684 -0.2218
 4700TIP3   OH235590   1.171   1.042  15.791 -0.2011  0.6455  0.5839
 4700TIP3    H135591   1.160   1.077  15.880  0.8417 -0.6136  1.2507
 4700TIP3    H235592   1.259   1.004  15.792  0.0798  1.2051 -1.2119
 4701TIP3   OH235593   1.933   2.714  15.994 -0.3451  0.3702 -0.1721
 4701TIP3    H135594   1.855   2.662  15.972 -1.0953  1.0710  0.7594
 4701TIP3    H235595   1.985   2.656  16.049 -0.9833  0.4285  0.5183
 4702TIP3   OH235596   0.235   3.862   1.052  0.6590 -0.5641 -0.0775
 4702TIP3    H135597   0.308   3.809   1.083  1.8162  0.0611 -1.6315
 4702TIP3    H235598   0.269   3.952   1.052  0.3628 -0.4181 -2.0914
 4703TIP3   OH235599   1.012   5.899   0.832  0.0847 -0.1667 -0.4412
 4703TIP3    H135600   0.943   5.867   0.773 -1.4978  2.0396  0.0738
 4703TIP3    H235601   1.045   5.978   0.790  1.3906 -0.4521 -0.0006
 4704TIP3   OH235602   2.834   1.300  13.483 -0.6418 -0.8603  0.1319
 4704TIP3    H135603   2.884   1.282  13.563 -3.5183 -0.1706  2.2614
 4704TIP3    H235604   2.862   1.387  13.455 -1.4469  0.0609  2.0276
 4705TIP3   OH235605   5.635   1.715   0.526 -0.3555  0.0188  0.0727
 4705TIP3    H135606   5.547   1.750   0.511 -0.3083  0.9198  1.6188
 4705TIP3    H235607   5.629   1.672   0.611  0.6654 -0.0277  0.1349
 4706TIP3   OH235608   3.719   4.574  17.069  0.2257 -0.2077 -0.4877
 4706TIP3    H135609   3.734   4.516  17.143 -2.2560 -1.6255 -0.9740
 4706TIP3    H235610   3.786   4.551  17.005 -0.1906 -1.9678 -0.3208
 4707TIP3   OH235611   5.239   2.429  15.337  0.8419  0.4089 -0.0193
 4707TIP3    H135612   5.256   2.504  15.394 -0.5686  1.2441 -0.6371
 4707TIP3    H235613   5.148   2.405  15.355  0.2733  0.8547 -2.0401
 4708TIP3   OH235614   6.199   4.528  12.561 -0.3759  0.3836 -0.2720
 4708TIP3    H135615   6.284   4.530  12.517 -0.6909  0.4118 -0.8893
 4708TIP3    H235616   6.212   4.582  12.639  1.1021 -2.1751  1.3952
 4709TIP3   OH235617   2.699   0.488   0.497 -0.1373  0.6386 -0.5158
 4709TIP3    H135618   2.683   0.501   0.590  0.5448  1.6064 -0.5262
 4709TIP3    H235619   2.642   0.415   0.473 -0.3527  0.4142  0.6439
 4710TIP3   OH235620   6.618   0.226   2.525  0.1108  0.2452  0.5705
 4710TIP3    H135621   6.532   0.188   2.506  0.2645 -0.1047  0.5795
 4710TIP3    H235622   6.628   0.215   2.620 -0.5377  1.7448  0.8549
 4711TIP3   OH235623   1.878   0.488   1.092 -0.1228  0.5609 -0.4429
 4711TIP3    H135624   1.878   0.444   1.176  1.3355  1.2963 -0.0091
 4711TIP3    H235625   1.787   0.515   1.078 -0.5554 -0.3889  0.4308
 4712TIP3   OH235626   4.100   2.782  11.929 -0.1257 -0.4595 -0.0331
 4712TIP3    H135627   4.009   2.806  11.947 -0.2990 -1.0123 -0.1469
 4712TIP3    H235628   4.112   2.700  11.976  0.2873 -0.4406 -0.1069
 4713TIP3   OH235629   2.219   2.999   3.680 -0.0097 -0.6979 -0.3935
 4713TIP3    H135630   2.260   3.056   3.744 -0.5558 -2.4749  1.6516
 4713TIP3    H235631   2.172   3.058   3.621 -0.1046  0.9683  1.2859
 4714TIP3   OH235632   3.468   2.433   0.165 -0.2620 -0.1525 -0.5411
 4714TIP3    H135633   3.451   2.448   0.072  1.3299  0.0860 -0.8131
 4714TIP3    H235634   3.548   2.482   0.183  1.7328 -3.3370  0.0073
 4715TIP3   OH235635   0.712   4.271   2.651  0.4018 -0.3988  0.2975
 4715TIP3    H135636   0.673   4.351   2.686 -0.9990 -0.7298 -0.4193
 4715TIP3    H235637   0.653   4.202   2.679  1.2311 -1.1070  0.3326
 4716TIP3   OH235638   0.285   3.066  15.090 -0.3323  0.1927  0.2879
 4716TIP3    H135639   0.261   3.154  15.061 -0.3145  0.9272  2.3491
 4716TIP3    H235640   0.203   3.026  15.117 -0.2997 -0.3317 -0.3696
 4717TIP3   OH235641   4.226   5.015  16.698 -0.1851 -0.0621  0.4604
 4717TIP3    H135642   4.133   5.029  16.680  0.1466  0.8218 -0.7397
 4717TIP3    H235643   4.250   4.942  16.640 -0.0719 -0.1278  0.5912
 4718TIP3   OH235644   5.422   4.540   3.480 -0.1593 -0.5064  0.6604
 4718TIP3    H135645   5.442   4.628   3.447  2.0968 -1.2375 -0.0921
 4718TIP3    H235646   5.327   4.535   3.478 -0.2845  1.3045 -0.9239
 4719TIP3   OH235647   4.380   6.718  16.180  0.0624 -0.0983  0.6937
 4719TIP3    H135648   4.327   6.737  16.103 -1.2899 -2.5435  0.9197
 4719TIP3    H235649   4.320   6.729  16.254  0.1042 -1.8478  1.0350
 4720TIP3   OH235650   1.510   0.472   1.765 -0.6142 -0.7677 -0.8728
 4720TIP3    H135651   1.444   0.515   1.819  0.4898 -0.9562  0.7046
 4720TIP3    H235652   1.522   0.530   1.690 -1.9683 -0.3358 -0.7728
 4721TIP3   OH235653   2.698   4.923  15.513  0.0325  0.3998  0.1961
 4721TIP3    H135654   2.769   4.872  15.475 -0.3175 -0.8932  1.1914
 4721TIP3    H235655   2.699   4.900  15.606  0.5951  3.1028  0.9596
 4722TIP3   OH235656   3.704   0.099   3.004 -0.2292 -0.4639  0.0024
 4722TIP3    H135657   3.644   0.071   2.935  1.1038 -0.2775 -1.2763
 4722TIP3    H235658   3.788   0.062   2.979  0.6471  1.0438  0.6133
 4723TIP3   OH235659   5.927   6.062  14.545 -0.6498 -0.4906 -0.2742
 4723TIP3    H135660   5.866   6.106  14.487  0.8760  1.7719 -0.2749
 4723TIP3    H235661   5.930   6.116  14.624  0.2349 -1.3626  0.3317
 4724TIP3   OH235662   3.306   1.830   5.004  0.4558 -0.3120  0.5289
 4724TIP3    H135663   3.341   1.810   4.917  1.0516 -1.2759  0.9822
 4724TIP3    H235664   3.351   1.770   5.063 -1.7355 -1.3878  1.1928
 4725TIP3   OH235665   2.558   6.399  10.842 -0.7167 -0.1772 -0.0040
 4725TIP3    H135666   2.564   6.350  10.760 -0.4222  1.4803 -1.0209
 4725TIP3    H235667   2.531   6.487  10.815 -2.5738 -0.0959  1.8695
 4726TIP3   OH235668   5.718   6.247   4.204  0.0590  0.9562 -0.0424
 4726TIP3    H135669   5.769   6.199   4.269 -0.7028  2.3296  1.6233
 4726TIP3    H235670   5.744   6.339   4.216  1.7730  1.0847 -3.3943
 4727TIP3   OH235671   5.777   0.086  12.073  0.1119 -0.1181 -0.3300
 4727TIP3    H135672   5.820   0.022  12.129 -0.0936  0.4239  0.4592
 4727TIP3    H235673   5.834   0.163  12.076 -0.1780  0.1019 -0.4442
 4728TIP3   OH235674   6.756   0.894   2.784 -0.1624  0.0057  0.8945
 4728TIP3    H135675   6.753   0.835   2.709 -0.0725  2.8874 -1.5753
 4728TIP3    H235676   6.664   0.912   2.804 -0.1879 -0.8402  1.5893
 4729TIP3   OH235677   3.651   3.872   0.915  0.0772  0.5486 -0.1539
 4729TIP3    H135678   3.698   3.795   0.947  1.5221  1.8031  0.9058
 4729TIP3    H235679   3.710   3.945   0.934 -2.5068  2.3082  1.6899
 4730TIP3   OH235680   1.114   1.143   3.878 -0.8840  0.0581  0.1693
 4730TIP3    H135681   1.161   1.147   3.961 -0.3276  0.2026 -0.1449
 4730TIP3    H235682   1.054   1.218   3.880  0.5007  1.2185 -0.3573
 4731TIP3   OH235683   4.922   0.662  16.637  0.0199  0.2906 -0.2225
 4731TIP3    H135684   4.979   0.586  16.624  2.4958  2.1940 -1.4036
 4731TIP3    H235685   4.953   0.702  16.718  1.0338  1.7804 -1.2756
 4732TIP3   OH235686   6.209   2.827  14.516 -0.3976 -0.1523  0.1790
 4732TIP3    H135687   6.168   2.913  14.522 -0.7501 -0.2914 -0.2105
 4732TIP3    H235688   6.216   2.810  14.422  0.2817 -0.2598  0.2447
 4733TIP3   OH235689   3.878   2.246  10.470 -0.7709 -0.2145 -0.5190
 4733TIP3    H135690   3.798   2.202  10.442 -0.8550 -1.0604  0.9374
 4733TIP3    H235691   3.940   2.174  10.487 -0.7886  0.1741  1.5325
 4734TIP3   OH235692   0.096   6.215   5.655  0.5203  0.0187 -0.4959
 4734TIP3    H135693   0.108   6.300   5.612  1.9760 -0.1621 -0.4868
 4734TIP3    H235694   0.184   6.178   5.660  0.4036 -0.1288  2.2788
 4735TIP3   OH235695   5.162   0.767   2.668  0.2939  0.9358 -0.3781
 4735TIP3    H135696   5.171   0.682   2.626 -0.8808 -0.5326  2.1210
 4735TIP3    H235697   5.194   0.829   2.603  3.4122 -1.5361 -1.4593
 4736TIP3   OH235698   0.153   6.343  16.569  0.4184 -0.3698 -0.0635
 4736TIP3    H135699   0.064   6.309  16.572  0.5861 -0.8760 -0.4907
 4736TIP3    H235700   0.204   6.285  16.625  0.6460 -0.6335 -0.5348
 4737TIP3   OH235701   6.616   1.354   1.405  0.3244 -0.0635 -0.5636
 4737TIP3    H135702   6.696   1.372   1.355  0.5570 -0.0658 -0.2009
 4737TIP3    H235703   6.546   1.395   1.355  0.5757  0.0686 -0.8081
 4738TIP3   OH235704   6.476   3.062   2.425 -0.2522 -0.1423 -0.4289
 4738TIP3    H135705   6.518   2.987   2.468 -0.5395 -1.7283 -2.7028
 4738TIP3    H235706   6.384   3.037   2.419 -0.4470  0.6296 -0.7386
 4739TIP3   OH235707   0.095   1.276  11.155  0.3014  0.2555 -0.5317
 4739TIP3    H135708   0.064   1.209  11.095  0.2257 -0.1418 -0.0525
 4739TIP3    H235709   0.032   1.276  11.227  0.8647  0.1210 -0.0247
 4740TIP3   OH235710   3.349   0.662   1.479  0.4839  0.4728 -0.0254
 4740TIP3    H135711   3.399   0.727   1.528 -3.4247  1.4811  3.1050
 4740TIP3    H235712   3.330   0.704   1.395  0.4018  2.2312  0.8382
 4741TIP3   OH235713   5.736   5.645   1.873 -0.2907 -0.2323  0.2771
 4741TIP3    H135714   5.765   5.722   1.824 -0.3123 -1.0027 -0.9915
 4741TIP3    H235715   5.645   5.632   1.845  0.0744 -1.3936 -0.4281
 4742TIP3   OH235716   0.901   4.089   0.038 -0.2083 -0.6265  0.0533
 4742TIP3    H135717   0.834   4.144  -0.002  0.2886  0.4750  0.7083
 4742TIP3    H235718   0.967   4.150   0.071  0.7419 -1.6488  0.1174
 4743TIP3   OH235719   5.314   6.712  11.784 -0.5599  0.2949 -0.1760
 4743TIP3    H135720   5.307   6.805  11.808 -1.0394  0.5782 -1.3091
 4743TIP3    H235721   5.252   6.702  11.711  0.3617 -0.6330 -0.8660
 4744TIP3   OH235722   6.243   0.199  16.189 -0.1291 -0.4245 -0.1744
 4744TIP3    H135723   6.260   0.121  16.242 -0.7994 -1.0987 -0.9192
 4744TIP3    H235724   6.273   0.175  16.101  0.9185  0.6593 -0.1440
 4745TIP3   OH235725   6.368   6.565   2.106 -0.2013  0.1361  0.5840
 4745TIP3    H135726   6.402   6.646   2.068 -0.1388  0.5466  1.4754
 4745TIP3    H235727   6.340   6.513   2.031 -1.0162  1.3272  0.0294
 4746TIP3   OH235728   2.446   1.762  16.565  0.8054 -0.1144  0.1787
 4746TIP3    H135729   2.516   1.764  16.630 -0.9809  0.8264  2.2384
 4746TIP3    H235730   2.484   1.800  16.486  2.6136  0.2541  1.1740
 4747TIP3   OH235731   3.903   2.904  16.605 -0.0005  0.0866 -0.1271
 4747TIP3    H135732   3.941   2.956  16.533 -2.5751  1.7521 -0.3991
 4747TIP3    H235733   3.979   2.875  16.655  1.7102  2.6823 -0.9768
 4748TIP3   OH235734   1.903   2.863  14.012  0.0564  0.2488 -0.4078
 4748TIP3    H135735   1.851   2.783  14.007 -1.2453  0.9945  0.4597
 4748TIP3    H235736   1.930   2.880  13.922  0.6860 -1.3447 -0.5588
 4749TIP3   OH235737   2.240   5.096  11.115  0.4326 -0.2240 -0.1463
 4749TIP3    H135738   2.217   5.062  11.028 -0.5768 -1.3898  0.5406
 4749TIP3    H235739   2.269   5.019  11.163  1.7269  0.5391  0.3380
 4750TIP3   OH235740   5.418   0.937   5.253 -0.0971  0.1386 -0.1721
 4750TIP3    H135741   5.413   0.844   5.278  0.1515  0.0703 -0.3615
 4750TIP3    H235742   5.328   0.962   5.235 -0.2767  0.1904  0.7872
 4751TIP3   OH235743   1.523   2.525   1.558  0.0641  0.0711  0.0228
 4751TIP3    H135744   1.568   2.446   1.588  1.7207  0.8669 -0.2733
 4751TIP3    H235745   1.473   2.496   1.481 -0.1094 -0.8700  0.4704
 4752TIP3   OH235746   3.846   3.662   4.781 -0.1120  0.6805 -0.2069
 4752TIP3    H135747   3.885   3.742   4.816  2.5725 -1.0041  1.0182
 4752TIP3    H235748   3.802   3.622   4.856 -0.4889  0.4623 -0.5398
 4753TIP3   OH235749   5.722   0.249   0.743 -0.0590  0.0891 -0.8470
 4753TIP3    H135750   5.736   0.164   0.703  0.8326  0.0199 -0.4012
 4753TIP3    H235751   5.655   0.234   0.809  0.8497 -0.5026 -0.0425
 4754TIP3   OH235752   1.127   1.030  15.232  0.2015 -0.6313  0.1139
 4754TIP3    H135753   1.128   1.029  15.327 -0.4975 -0.6292  0.1277
 4754TIP3    H235754   1.059   0.966  15.208 -0.2599  0.0307 -0.3646
 4755TIP3   OH235755   1.910   1.261   0.512  0.1918  0.4519  0.7941
 4755TIP3    H135756   1.889   1.220   0.596 -1.3525 -0.2440  0.1020
 4755TIP3    H235757   1.834   1.315   0.492  0.1844 -0.0262 -0.5472
 4756TIP3   OH235758   0.679   0.909   5.458 -0.1848  0.4818  0.0029
 4756TIP3    H135759   0.727   0.877   5.381  1.7800 -0.2187  1.4472
 4756TIP3    H235760   0.645   0.994   5.430  1.1772  0.6230 -1.3827
 4757TIP3   OH235761   2.350   3.816   0.368 -0.3382 -0.3435 -0.6733
 4757TIP3    H135762   2.295   3.894   0.377 -1.5744 -1.3181  0.6893
 4757TIP3    H235763   2.430   3.837   0.414 -0.5946  0.1721 -0.4547
 4758TIP3   OH235764   1.215   3.023   3.547 -0.2646 -0.0533  0.1724
 4758TIP3    H135765   1.255   2.980   3.622 -0.3779 -2.0641 -0.8310
 4758TIP3    H235766   1.129   2.982   3.539  0.2118 -0.8147 -1.7418
 4759TIP3   OH235767   2.282   5.020  11.996 -0.1594  0.2133 -0.1036
 4759TIP3    H135768   2.191   5.037  12.020 -1.0039 -1.4792 -1.8539
 4759TIP3    H235769   2.284   5.032  11.901  1.7757  1.4494  0.0481
 4760TIP3   OH235770   1.290   2.751  12.445 -0.4751 -0.1330 -0.4430
 4760TIP3    H135771   1.351   2.696  12.494  2.2581  1.9325 -1.2419
 4760TIP3    H235772   1.319   2.841  12.464 -0.8996  0.8348 -3.7536
 4761TIP3   OH235773   4.728   6.072   5.882  0.0002 -0.1585 -0.0217
 4761TIP3    H135774   4.689   6.093   5.967 -1.1768  0.7171 -0.7412
 4761TIP3    H235775   4.724   5.977   5.876 -1.6253 -0.1187  0.1362
 4762TIP3   OH235776   2.462   6.796   5.623 -0.8105  0.1474 -0.9974
 4762TIP3    H135777   2.456   6.892   5.629 -1.0437  0.1147 -0.6989
 4762TIP3    H235778   2.468   6.767   5.714  3.3837  0.1034 -1.0966
 4763TIP3   OH235779   1.810   3.636  15.334  0.0225 -0.2551 -0.2572
 4763TIP3    H135780   1.797   3.558  15.280 -0.1229 -0.8319  0.5951
 4763TIP3    H235781   1.763   3.617  15.415  2.5912 -0.6415  1.2337
 4764TIP3   OH235782   5.394   0.942  14.761  0.0378 -0.0433  0.0020
 4764TIP3    H135783   5.374   0.875  14.826 -0.3779  0.3074  0.2424
 4764TIP3    H235784   5.378   1.025  14.806 -1.9252  0.2052 -1.0359
 4765TIP3   OH235785   4.472   4.992  16.804 -0.4871 -0.4817  0.2194
 4765TIP3    H135786   4.377   4.996  16.803 -0.5328 -1.4514  0.0946
 4765TIP3    H235787   4.495   4.990  16.897 -0.6245 -0.9603  0.2448
 4766TIP3   OH235788   3.358   6.779   0.284 -0.2619 -0.0447  0.1621
 4766TIP3    H135789   3.368   6.684   0.291  1.6225  0.2097  1.4625
 4766TIP3    H235790   3.263   6.793   0.289 -0.5638 -1.8330  0.1195
 4767TIP3   OH235791   2.006   2.009  11.112 -0.4365 -0.5195 -0.2769
 4767TIP3    H135792   2.064   2.083  11.094 -2.2540  0.5143 -2.3357
 4767TIP3    H235793   1.935   2.045  11.165 -1.9193 -0.4183 -2.2185
 4768TIP3   OH235794   0.028   4.384   5.851  0.4335  0.8559  0.1699
 4768TIP3    H135795   0.042   4.302   5.804 -0.1831  0.8727 -0.0492
 4768TIP3    H235796   0.091   4.445   5.812  1.7499  0.1841  1.1529
 4769TIP3   OH235797   1.180   5.601  13.855 -0.0647  0.6925  0.2344
 4769TIP3    H135798   1.147   5.681  13.813  0.9717  1.6658  1.1743
 4769TIP3    H235799   1.184   5.624  13.948  2.0146  0.1985  0.3039
 4770TIP3   OH235800   1.363   4.869   3.361  0.1041 -0.0618  0.3090
 4770TIP3    H135801   1.316   4.828   3.433 -1.8245 -0.1882 -0.9687
 4770TIP3    H235802   1.424   4.802   3.330  0.4291 -0.2478  1.3235
 4771TIP3   OH235803   6.247   0.811   3.477 -0.0895 -0.2592  0.2336
 4771TIP3    H135804   6.335   0.813   3.514  0.5969 -1.7450 -1.1561
 4771TIP3    H235805   6.260   0.775   3.389 -1.9319  0.7543 -0.5044
 4772TIP3   OH235806   3.350   0.456   0.821  0.0095  0.0716  0.2026
 4772TIP3    H135807   3.363   0.380   0.877  1.8200  0.6112  0.5889
 4772TIP3    H235808   3.395   0.434   0.740 -1.6846 -0.2736 -0.6835
 4773TIP3   OH235809   5.350   3.288   0.752 -0.0454  0.3240  0.4588
 4773TIP3    H135810   5.391   3.253   0.672 -0.0887 -0.5280  0.7931
 4773TIP3    H235811   5.415   3.348   0.788  1.3225 -1.6063  1.4221
 4774TIP3   OH235812   1.109   1.937  12.883 -0.4593 -0.2234 -0.4877
 4774TIP3    H135813   1.119   1.881  12.806 -0.9795 -1.0058 -0.0032
 4774TIP3    H235814   1.143   2.022  12.856  0.9279 -0.9310 -1.0502
 4775TIP3   OH235815   6.160   4.020  14.389 -0.2671 -0.8370 -0.2523
 4775TIP3    H135816   6.065   4.029  14.391 -0.1667  0.5503  1.3831
 4775TIP3    H235817   6.183   3.992  14.478  0.9751  1.4553  0.2531
 4776TIP3   OH235818   1.837   2.130  12.809 -0.0522 -0.1633  0.4018
 4776TIP3    H135819   1.794   2.049  12.836  3.7144 -2.5797  0.0056
 4776TIP3    H235820   1.881   2.107  12.727  1.4940  2.1526  0.5029
 4777TIP3   OH235821   0.541   2.842   0.652 -0.3583 -0.1948  0.7543
 4777TIP3    H135822   0.463   2.846   0.596  0.7789 -0.0404 -0.8731
 4777TIP3    H235823   0.562   2.749   0.658 -0.0874 -0.1578  0.3675
 4778TIP3   OH235824   1.347   2.547  10.515  0.4012  0.6136 -0.4653
 4778TIP3    H135825   1.414   2.561  10.582  0.0229 -1.9733  0.5298
 4778TIP3    H235826   1.387   2.488  10.452 -0.0005  1.3260 -1.4312
 4779TIP3   OH235827   5.234   2.718  15.074  0.0880 -0.0807  0.2374
 4779TIP3    H135828   5.255   2.643  15.017  0.9207  0.6122 -0.3829
 4779TIP3    H235829   5.167   2.684  15.134 -1.6587 -0.5486 -1.8536
 4780TIP3   OH235830   6.591   3.356  16.993  0.0616  0.4226  0.1483
 4780TIP3    H135831   6.667   3.387  17.042 -0.3291  2.6241 -0.5361
 4780TIP3    H235832   6.529   3.428  16.997 -0.1137  0.5929 -3.2874
 4781TIP3   OH235833   5.311   2.402  14.096 -0.6550  0.0573  0.8990
 4781TIP3    H135834   5.334   2.406  14.189 -3.9742 -2.6607  2.0432
 4781TIP3    H235835   5.328   2.311  14.072  0.9219  0.8982 -1.5154
 4782TIP3   OH235836   3.950   3.519   5.819  0.1771  0.5597 -0.3163
 4782TIP3    H135837   3.925   3.549   5.731 -0.1412  1.9587  0.2350
 4782TIP3    H235838   3.874   3.539   5.873  0.3415 -0.3763  0.2782
 4783TIP3   OH235839   3.627   6.185  13.942  0.1445  0.7368 -0.8483
 4783TIP3    H135840   3.596   6.106  13.986  1.1734  0.1271 -1.2063
 4783TIP3    H235841   3.574   6.191  13.862  0.2648  0.2467 -0.9659
 4784TIP3   OH235842   3.545   2.482   2.888  0.2156  0.1554 -0.0554
 4784TIP3    H135843   3.581   2.563   2.851 -0.9027  0.0371 -1.4804
 4784TIP3    H235844   3.453   2.503   2.906 -0.6961 -1.3911 -2.5095
 4785TIP3   OH235845   5.654   6.289  10.510 -0.3374  0.1427  1.0020
 4785TIP3    H135846   5.660   6.263  10.602  1.4527  1.5424  1.3418
 4785TIP3    H235847   5.573   6.339  10.504  0.9844  2.7055  2.6257
 4786TIP3   OH235848   4.115   5.740  16.264 -0.4253  0.1293  0.1016
 4786TIP3    H135849   4.189   5.789  16.230 -0.6092 -0.5864 -1.4114
 4786TIP3    H235850   4.047   5.806  16.278 -0.1881  0.5117 -0.5071
 4787TIP3   OH235851   6.665   5.108   4.339  0.1952 -0.4647 -0.1328
 4787TIP3    H135852   6.591   5.161   4.368 -2.0166 -2.4136 -1.8588
 4787TIP3    H235853   6.671   5.037   4.403  0.9123 -0.0899  0.2376
 4788TIP3   OH235854   2.405   1.613  10.570  0.3502  0.4551  0.6013
 4788TIP3    H135855   2.461   1.683  10.604 -0.0369  1.0105  0.1237
 4788TIP3    H235856   2.453   1.532  10.588  1.0331  0.8827  0.7188
 4789TIP3   OH235857   5.442   5.644   3.070 -0.0115  0.2148  0.2488
 4789TIP3    H135858   5.419   5.629   2.978  0.9366 -0.1534  0.0707
 4789TIP3    H235859   5.530   5.608   3.080  0.1001  0.7102  1.1784
 4790TIP3   OH235860   5.888   5.778  13.617  0.1426  0.3265 -0.4607
 4790TIP3    H135861   5.919   5.832  13.544  0.3952  0.5681 -0.1778
 4790TIP3    H235862   5.794   5.795  13.621 -0.4017 -1.7930 -2.4892
 4791TIP3   OH235863   2.310   1.397   3.552  0.2250  0.3052  0.4495
 4791TIP3    H135864   2.331   1.458   3.623 -0.5913  0.2294  0.7662
 4791TIP3    H235865   2.307   1.452   3.474  3.0774  0.0926  0.1033
 4792TIP3   OH235866   3.677   0.555   3.765  0.2294 -0.0514  0.5429
 4792TIP3    H135867   3.600   0.519   3.721  1.3328  1.6447 -3.1467
 4792TIP3    H235868   3.652   0.645   3.788  0.5329 -0.0928  1.0661
 4793TIP3   OH235869   1.330   6.727  16.190  0.4008  0.2422 -0.2629
 4793TIP3    H135870   1.315   6.638  16.157  1.6958  0.1005 -0.5351
 4793TIP3    H235871   1.388   6.767  16.125  0.9634  0.8050  0.5697
 4794TIP3   OH235872   5.339   5.558  15.319 -0.2412 -0.3513 -0.0686
 4794TIP3    H135873   5.296   5.545  15.404  0.2161  2.0094  0.6074
 4794TIP3    H235874   5.408   5.491  15.317 -0.8595 -1.0476  1.0012
 4795TIP3   OH235875   6.466   6.067  16.419  0.5386 -0.7096 -0.3224
 4795TIP3    H135876   6.480   5.989  16.472  0.5076  0.2685  1.1987
 4795TIP3    H235877   6.395   6.114  16.464  1.5979  0.9346 -0.3036
 4796TIP3   OH235878   3.962   2.351   1.509 -0.1234 -0.3262  0.0240
 4796TIP3    H135879   3.925   2.351   1.421 -1.0170 -0.8512  0.3844
 4796TIP3    H235880   4.043   2.401   1.501 -0.3864 -0.0401 -1.0100
 4797TIP3   OH235881   4.626   4.413  13.661  0.6330  0.2614  0.1533
 4797TIP3    H135882   4.666   4.326  13.656 -0.8028 -0.3837 -0.6338
 4797TIP3    H235883   4.552   4.410  13.601  0.8526  2.2129 -0.3047
 4798TIP3   OH235884   3.762   6.050  17.061  0.7727 -0.3587  0.2877
 4798TIP3    H135885   3.696   6.005  17.008  1.5853 -0.2745 -0.8205
 4798TIP3    H235886   3.737   6.142  17.057 -0.0850 -0.5314  1.3936
 4799TIP3   OH235887   0.844   1.244  14.245 -0.0065  0.0955  0.0125
 4799TIP3    H135888   0.936   1.266  14.263  0.2494  0.4605 -1.6092
 4799TIP3    H235889   0.797   1.327  14.258 -0.5963 -0.6182  3.4357
 4800TIP3   OH235890   0.177   1.077   2.850  0.2255  0.1569 -0.1254
 4800TIP3    H135891   0.252   1.133   2.869  1.5851 -1.5010 -0.3891
 4800TIP3    H235892   0.194   0.996   2.898 -0.0142 -1.2782 -2.3021
 4801TIP3   OH235893   0.649   0.475  11.992 -0.3677 -0.2851  0.3048
 4801TIP3    H135894   0.600   0.394  11.984  1.2888 -1.2148 -1.2864
 4801TIP3    H235895   0.608   0.534  11.929 -0.4978 -0.4964  0.1904
 4802TIP3   OH235896   2.942   4.973  15.042 -0.2131  0.2814  0.4011
 4802TIP3    H135897   2.848   4.961  15.048 -0.5515  2.4488  0.1703
 4802TIP3    H235898   2.962   5.041  15.107  0.9717  0.7921 -0.4660
 4803TIP3   OH235899   0.056   3.230  16.679 -0.0549  0.3664 -0.2715
 4803TIP3    H135900   0.047   3.208  16.771 -0.1267  2.0754  0.1610
 4803TIP3    H235901  -0.031   3.214  16.642  0.1319 -0.8946 -0.1919
 4804TIP3   OH235902   5.313   5.851   5.865  0.1817  0.4765 -0.0611
 4804TIP3    H135903   5.311   5.764   5.905  0.2657 -0.4567 -2.0029
 4804TIP3    H235904   5.363   5.904   5.927 -0.4474 -0.6617  1.4835
 4805TIP3   OH235905   4.531   0.576   3.699 -0.5415  0.2718 -0.0410
 4805TIP3    H135906   4.457   0.528   3.660 -0.9821 -0.0712  1.1768
 4805TIP3    H235907   4.490   0.647   3.748 -0.3124 -1.5052  2.9199
 4806TIP3   OH235908   6.348   3.774   4.477 -0.4300  0.9963 -0.4637
 4806TIP3    H135909   6.314   3.820   4.400 -1.1956  1.2894  0.0366
 4806TIP3    H235910   6.270   3.750   4.526  0.0085 -0.0697 -0.2745
 4807TIP3   OH235911   3.375   1.193   0.561  0.2095 -0.1250 -0.2737
 4807TIP3    H135912   3.285   1.194   0.527 -0.2222 -0.6934  0.8021
 4807TIP3    H235913   3.389   1.103   0.588  1.6498 -0.3942 -1.7471
 4808TIP3   OH235914   6.790   0.110   4.593  0.2217  0.2141 -0.5262
 4808TIP3    H135915   6.860   0.114   4.659  0.2983  0.4163 -0.6187
 4808TIP3    H235916   6.755   0.021   4.602  0.5450  0.0809 -0.5340
 4809TIP3   OH235917   1.489   5.898   3.064  0.5793 -0.1503 -0.1598
 4809TIP3    H135918   1.520   5.983   3.093  0.0253  0.3625 -1.0037
 4809TIP3    H235919   1.563   5.860   3.016  0.2399  0.6618 -1.3648
 4810TIP3   OH235920   5.643   5.937  14.802  0.2002 -0.2492 -0.2718
 4810TIP3    H135921   5.611   5.874  14.867  0.5565  0.3354  0.4796
 4810TIP3    H235922   5.655   6.018  14.851  1.8440 -0.1728 -0.7586
 4811TIP3   OH235923   0.072   4.673   0.047 -0.3878 -0.0478  0.5531
 4811TIP3    H135924   0.149   4.666  -0.008 -0.3247 -2.0255  0.8012
 4811TIP3    H235925   0.084   4.605   0.114 -2.4591 -0.6624  0.3975
 4812TIP3   OH235926   1.252   6.560   5.794 -0.1784 -0.1213 -0.0384
 4812TIP3    H135927   1.320   6.552   5.861  1.4291 -0.0557 -1.5890
 4812TIP3    H235928   1.232   6.653   5.790  0.7289  0.0632 -0.5713
 4813TIP3   OH235929   4.433   1.396   4.105  0.2548  0.4098  0.2809
 4813TIP3    H135930   4.503   1.340   4.072 -0.0100  0.0552  0.3158
 4813TIP3    H235931   4.380   1.338   4.161  1.3294  1.2391  2.2685
 4814TIP3   OH235932   5.502   0.130  13.366 -0.2393 -0.1601  0.4141
 4814TIP3    H135933   5.437   0.066  13.338 -0.4229  0.2419 -0.0737
 4814TIP3    H235934   5.505   0.194  13.296  0.1288  0.2342  0.7865
 4815TIP3   OH235935   1.468   6.396  11.312 -0.8085 -0.0749 -0.5949
 4815TIP3    H135936   1.521   6.317  11.319  1.3824  1.3253 -0.0783
 4815TIP3    H235937   1.482   6.426  11.222  0.9970  1.3090  0.0588
 4816TIP3   OH235938   5.803   6.529   6.842  0.5990 -0.5829  0.1441
 4816TIP3    H135939   5.720   6.524   6.891 -0.7482  2.1024 -1.5777
 4816TIP3    H235940   5.819   6.440   6.812 -0.7517 -1.4919  1.9364
 4817TIP3   OH235941   2.230   0.451   1.633  0.4430 -0.5169 -0.1652
 4817TIP3    H135942   2.164   0.469   1.566  1.6320  0.3377 -1.1400
 4817TIP3    H235943   2.270   0.536   1.651  0.6419 -0.8608  1.1171
 4818TIP3   OH235944   1.944   0.921  12.994  0.2697 -0.4757 -0.1283
 4818TIP3    H135945   1.923   0.985  12.927 -0.4484 -0.3544  0.2018
 4818TIP3    H235946   1.926   0.836  12.952 -1.5589 -0.3592  0.3430
 4819TIP3   OH235947   1.884   6.268   0.297  0.4135 -0.0119 -0.8394
 4819TIP3    H135948   1.833   6.197   0.258  1.4331  0.1637 -2.6084
 4819TIP3    H235949   1.915   6.233   0.380 -2.2046 -0.2564  0.1321
 4820TIP3   OH235950   2.863   4.471   0.415  0.0549 -0.4434 -0.3274
 4820TIP3    H135951   2.835   4.429   0.496 -0.9755 -0.1177 -0.4996
 4820TIP3    H235952   2.958   4.455   0.411 -0.0757 -1.4942  0.3258
 4821TIP3   OH235953   0.441   0.117  16.974  0.6001 -0.0981  0.5444
 4821TIP3    H135954   0.403   0.170  16.904  0.7045  0.1067  0.6409
 4821TIP3    H235955   0.513   0.070  16.932  0.4898 -0.1845  0.4525
 4822TIP3   OH235956   0.986   4.094   3.942  0.4908 -0.3202 -0.0078
 4822TIP3    H135957   0.987   4.181   3.901 -0.6598 -0.5485 -0.5336
 4822TIP3    H235958   1.034   4.107   4.024  1.4859  0.4971 -0.6800
 4823TIP3   OH235959   0.511   1.137   3.879  0.4829 -0.1656 -0.7167
 4823TIP3    H135960   0.437   1.163   3.933  1.0415  0.2698 -0.1405
 4823TIP3    H235961   0.573   1.097   3.941  1.2664  0.6256 -0.9619
 4824TIP3   OH235962   1.609   3.505  14.379 -0.0111  0.0874  0.3242
 4824TIP3    H135963   1.663   3.545  14.311 -0.0821 -1.1319 -0.4738
 4824TIP3    H235964   1.648   3.419  14.394  0.7159  0.7473  2.6892
 4825TIP3   OH235965   2.269   0.569  15.995  0.1289 -0.0213 -0.2278
 4825TIP3    H135966   2.258   0.483  15.954 -0.4980  0.0099 -0.1352
 4825TIP3    H235967   2.186   0.614  15.978 -0.5147 -0.3377  1.8616
 4826TIP3   OH235968   4.104   4.827  11.934  0.4409 -0.0922  0.1175
 4826TIP3    H135969   4.161   4.896  11.970  0.5144 -0.1353  0.0842
 4826TIP3    H235970   4.066   4.866  11.855  1.8184 -0.6795 -0.8808
 4827TIP3   OH235971   1.821   4.272  15.153  0.3090  0.2551  0.8806
 4827TIP3    H135972   1.819   4.188  15.108 -0.6525  0.2933  0.8395
 4827TIP3    H235973   1.903   4.313  15.124  1.0066 -0.8458  1.2538
 4828TIP3   OH235974   2.276   2.307   0.948 -0.1271  0.4773 -0.6066
 4828TIP3    H135975   2.305   2.253   0.874  1.0289  2.6728 -1.8622
 4828TIP3    H235976   2.349   2.305   1.010 -0.9107 -0.9856  0.3272
 4829TIP3   OH235977   3.144   4.505   0.901  0.4579 -0.4780 -0.0018
 4829TIP3    H135978   3.237   4.515   0.878  0.4757  0.3334  0.3891
 4829TIP3    H235979   3.145   4.491   0.996  0.0403  2.9114  0.6379
 4830TIP3   OH235980   0.803   5.329   1.087 -0.0034 -0.2836  0.4921
 4830TIP3    H135981   0.719   5.309   1.127  0.2658 -0.5159  0.9458
 4830TIP3    H235982   0.861   5.351   1.160  0.7634 -1.6920  0.3457
 4831TIP3   OH235983   1.229   3.780   0.011  0.0985 -0.0647 -0.1609
 4831TIP3    H135984   1.153   3.806   0.063 -0.4440 -2.2506  0.2146
 4831TIP3    H235985   1.304   3.797   0.069 -0.2346  0.4937  0.1120
 4832TIP3   OH235986   3.839   1.046   1.162 -0.1750 -1.0194 -0.3438
 4832TIP3    H135987   3.757   1.049   1.212  0.3783  0.7472  0.5574
 4832TIP3    H235988   3.899   1.102   1.212  1.2149 -1.3114 -1.6281
 4833TIP3   OH235989   5.316   3.233  12.905  0.2909  0.1880 -0.3250
 4833TIP3    H135990   5.392   3.177  12.922 -0.4736 -1.3975 -1.8143
 4833TIP3    H235991   5.354   3.313  12.867  1.2868 -0.1291 -0.0326
 4834TIP3   OH235992   3.032   2.337   2.573 -0.2607  0.2994  0.3270
 4834TIP3    H135993   2.956   2.289   2.541 -0.1040  1.2947 -1.7265
 4834TIP3    H235994   3.052   2.399   2.503  0.7021  2.0454  2.0557
 4835TIP3   OH235995   3.053   4.509  12.171  0.2504 -0.0746  0.0162
 4835TIP3    H135996   3.035   4.425  12.129 -0.5112  1.5918 -3.2485
 4835TIP3    H235997   2.967   4.545  12.193  0.5376  0.2366  0.6785
 4836TIP3   OH235998   3.374   1.982  13.844 -0.2592  0.2404 -0.2635
 4836TIP3    H135999   3.354   2.073  13.863 -2.3776  0.0794 -1.3835
 4836TIP3    H236000   3.469   1.978  13.839 -0.1229  2.3330  0.0173
 4837TIP3   OH236001   4.390   3.316   1.931  0.5118  0.4553 -0.2553
 4837TIP3    H136002   4.386   3.355   2.019  1.5207 -1.6431  0.7792
 4837TIP3    H236003   4.482   3.322   1.906  0.2202  1.1236 -1.2583
 4838TIP3   OH236004   2.088   2.293   5.454 -0.3892  0.1213  0.5862
 4838TIP3    H136005   2.129   2.226   5.508 -0.0360 -0.3553 -0.2494
 4838TIP3    H236006   2.026   2.337   5.512 -0.4584 -0.7799  1.2102
 4839TIP3   OH236007   1.618   3.962   3.497  0.4295 -0.0096  0.1807
 4839TIP3    H136008   1.683   3.989   3.433  0.4483 -0.4234  0.0228
 4839TIP3    H236009   1.534   3.988   3.460  0.5821  2.0474  1.1289
 4840TIP3   OH236010   4.218   4.232   3.529 -0.3878 -0.5597 -0.1173
 4840TIP3    H136011   4.229   4.293   3.603  1.2577 -0.7651 -0.1644
 4840TIP3    H236012   4.157   4.166   3.562  0.3391 -0.6665  1.0989
 4841TIP3   OH236013   2.164   4.352  15.961 -0.0632  0.0125 -0.0404
 4841TIP3    H136014   2.082   4.309  15.937  0.2809 -0.8592  0.3010
 4841TIP3    H236015   2.156   4.366  16.056 -0.6344  1.7252 -0.3174
 4842TIP3   OH236016   4.427   2.700  16.639  0.0548  0.5519 -0.1335
 4842TIP3    H136017   4.416   2.614  16.599 -0.7535 -0.4676  2.1146
 4842TIP3    H236018   4.522   2.713  16.645  0.2168  0.8911 -2.5228
 4843TIP3   OH236019   0.290   0.749   6.520  0.3468  0.1735 -0.1840
 4843TIP3    H136020   0.384   0.732   6.507  0.2327 -0.8799  0.2397
 4843TIP3    H236021   0.286   0.802   6.600  0.5045 -1.5655  1.0632
 4844TIP3   OH236022   4.554   3.379   3.305 -0.0347  0.5593 -0.0787
 4844TIP3    H136023   4.484   3.365   3.369  0.6095  0.9263  0.7217
 4844TIP3    H236024   4.542   3.469   3.276  0.8372  1.0482  0.9969
 4845TIP3   OH236025   1.898   1.204  16.714  0.0063 -0.3470 -0.9285
 4845TIP3    H136026   1.933   1.272  16.771  0.1867 -0.2997 -1.0944
 4845TIP3    H236027   1.942   1.124  16.743  1.2555 -0.0876 -1.9768
 4846TIP3   OH236028   1.213   5.433  15.367  0.1596  0.1989 -0.5717
 4846TIP3    H136029   1.152   5.440  15.441 -0.4986 -0.2149 -1.0629
 4846TIP3    H236030   1.271   5.508  15.376  1.5937 -1.0761  1.6887
 4847TIP3   OH236031   3.080   5.181   6.567 -0.0592  0.3518 -0.3459
 4847TIP3    H136032   3.160   5.139   6.536 -0.9550 -1.3876 -0.4534
 4847TIP3    H236033   3.071   5.258   6.511  2.0462  1.1809  0.3614
 4848TIP3   OH236034   1.356   2.919   5.284  0.6110  0.4786 -0.4956
 4848TIP3    H136035   1.378   2.919   5.191  1.0574  0.4497 -0.3912
 4848TIP3    H236036   1.440   2.925   5.329  1.0593 -4.9902  0.0353
 4849TIP3   OH236037   1.991   3.610  14.384 -0.5916  0.8873 -0.4268
 4849TIP3    H136038   1.994   3.518  14.411 -1.1437  0.7219 -0.8888
 4849TIP3    H236039   2.041   3.612  14.302 -2.7067  0.4419 -1.8409
 4850TIP3   OH236040   4.846   0.569  11.325 -0.5934  0.5333  0.1749
 4850TIP3    H136041   4.918   0.535  11.379 -0.3498  0.6493 -0.0743
 4850TIP3    H236042   4.889   0.599  11.245 -1.0521 -0.4477 -0.4591
 4851TIP3   OH236043   2.568   2.316  16.135 -0.3810  1.2602  0.2158
 4851TIP3    H136044   2.629   2.320  16.209  0.4284  2.0372 -0.4497
 4851TIP3    H236045   2.491   2.270  16.168  1.3475 -1.6523  0.5412
 4852TIP3   OH236046   4.316   6.082   0.060  0.1084  0.0964  0.0818
 4852TIP3    H136047   4.322   6.107   0.152 -2.3076  1.9959 -0.1756
 4852TIP3    H236048   4.284   6.160   0.015  1.2519 -0.7632 -2.4203
 4853TIP3   OH236049   2.499   2.499  10.800  0.6582 -0.5875 -0.1042
 4853TIP3    H136050   2.492   2.505  10.705  0.0273 -0.4798 -0.0531
 4853TIP3    H236051   2.575   2.553  10.822  0.5146 -0.2207 -0.4998
 4854TIP3   OH236052   3.922   5.263   1.370  0.1263 -0.0787  0.1774
 4854TIP3    H136053   4.001   5.244   1.420 -0.3010 -1.2067  0.4709
 4854TIP3    H236054   3.949   5.258   1.278  0.7650  1.3151  0.2726
 4855TIP3   OH236055   0.727   2.209  16.919  0.2016  0.1862  0.2145
 4855TIP3    H136056   0.750   2.284  16.973 -1.0650  0.3387  0.5788
 4855TIP3    H236057   0.631   2.207  16.921  0.1995 -1.9916  1.0141
 4856TIP3   OH236058   2.746   0.361  12.358 -0.0297 -0.0433  0.2553
 4856TIP3    H136059   2.764   0.394  12.445 -0.0642 -0.7060  0.5229
 4856TIP3    H236060   2.832   0.338  12.322 -0.2019 -2.6108  1.2899
 4857TIP3   OH236061   0.671   4.637  15.694 -0.0999 -0.1978  0.8323
 4857TIP3    H136062   0.673   4.551  15.737  0.6803 -1.1153 -0.9341
 4857TIP3    H236063   0.761   4.667  15.696  0.0157 -0.4153 -0.4135
 4858TIP3   OH236064   3.364   3.619   5.486 -0.1330 -0.0621 -0.2211
 4858TIP3    H136065   3.360   3.668   5.568  1.1217  0.2903 -0.3600
 4858TIP3    H236066   3.300   3.663   5.430 -1.7247 -0.9119  0.8524
 4859TIP3   OH236067   1.880   1.675  14.590  0.1956  0.1133  0.5046
 4859TIP3    H136068   1.835   1.621  14.526  1.1406 -0.4519  0.3026
 4859TIP3    H236069   1.931   1.738  14.538 -0.5348  0.9098  0.7290
 4860TIP3   OH236070   1.662   3.844   1.583 -0.1620  0.0860 -0.2478
 4860TIP3    H136071   1.582   3.861   1.633  0.8318  1.1738  1.0836
 4860TIP3    H236072   1.644   3.879   1.496 -0.2152  3.0529  0.8182
 4861TIP3   OH236073   6.075   2.076   0.340  0.5681 -0.2676 -0.4370
 4861TIP3    H136074   6.021   2.153   0.321  1.2196 -0.1822 -2.1162
 4861TIP3    H236075   6.101   2.087   0.432  0.0660  1.1514 -0.4382
 4862TIP3   OH236076   2.089   1.275  12.349  0.0626 -0.1519 -0.1364
 4862TIP3    H136077   2.040   1.213  12.294 -0.1887  0.1516 -0.2610
 4862TIP3    H236078   2.024   1.310  12.410  0.3288 -0.4389  0.3134
 4863TIP3   OH236079   3.326   4.819  15.607  0.2502 -0.3135 -0.2440
 4863TIP3    H136080   3.234   4.796  15.615  0.5559 -1.5917 -0.1504
 4863TIP3    H236081   3.371   4.735  15.592  1.3148  0.3621 -1.0351
 4864TIP3   OH236082   1.037   6.788  14.640  0.6548 -0.3090 -0.3482
 4864TIP3    H136083   0.970   6.804  14.707  0.3731 -0.1212 -0.6714
 4864TIP3    H236084   1.109   6.747  14.688  0.8728  0.7515  0.2530
 4865TIP3   OH236085   4.468   4.609   1.413 -0.5012 -0.2054 -0.5522
 4865TIP3    H136086   4.379   4.574   1.407  0.0828 -1.6965 -0.9617
 4865TIP3    H236087   4.493   4.628   1.323  0.2821 -1.6649 -0.6706
 4866TIP3   OH236088   6.326   3.916   5.321 -0.0422 -0.3915 -0.0181
 4866TIP3    H136089   6.404   3.971   5.322  0.9139 -1.3227 -3.8643
 4866TIP3    H236090   6.261   3.968   5.273 -0.0901 -1.4219 -1.1312
 4867TIP3   OH236091   4.898   3.910  15.121 -0.0974 -0.6303 -0.3921
 4867TIP3    H136092   4.804   3.922  15.132  0.0108  0.7731 -0.8599
 4867TIP3    H236093   4.909   3.815  15.109 -1.2989 -0.9654  0.8920
 4868TIP3   OH236094   2.001   6.172  16.608  0.2346 -0.0869 -0.5535
 4868TIP3    H136095   2.040   6.171  16.696 -1.2267 -2.0106  0.1575
 4868TIP3    H236096   2.075   6.172  16.549  1.2848 -0.2553  0.7144
 4869TIP3   OH236097   3.247   3.149  15.810 -0.2499  0.4404 -0.1333
 4869TIP3    H136098   3.328   3.191  15.779  0.3151  1.2474  2.2359
 4869TIP3    H236099   3.183   3.166  15.741  0.9785  1.9092 -0.9612
 4870TIP3   OH236100   0.810   3.319   1.338 -0.3202 -0.3718  0.0757
 4870TIP3    H136101   0.825   3.340   1.246 -0.6526 -1.2592 -0.1863
 4870TIP3    H236102   0.722   3.352   1.357  0.3204  1.2138  0.5238
 4871TIP3   OH236103   2.034   3.117  12.813  0.1863  0.2255  0.5544
 4871TIP3    H136104   2.096   3.046  12.799  1.3334  1.3348 -0.2669
 4871TIP3    H236105   2.039   3.135  12.907  0.6803 -0.0840  0.5912
 4872TIP3   OH236106   1.411   5.603   3.954 -0.1712 -0.1988  0.6981
 4872TIP3    H136107   1.402   5.670   4.022 -2.0113 -0.5715  0.8785
 4872TIP3    H236108   1.366   5.527   3.990  1.0531 -1.2517  0.0973
 4873TIP3   OH236109   5.620   3.560   1.409 -0.1964 -0.4943 -0.1112
 4873TIP3    H136110   5.554   3.621   1.441  0.5982  1.2398 -1.5724
 4873TIP3    H236111   5.571   3.488   1.371 -1.1640 -0.9787  1.9055
 4874TIP3   OH236112   4.060   2.444  10.572 -0.2442  0.1401 -0.2171
 4874TIP3    H136113   4.014   2.372  10.529 -0.8677  0.7112 -0.5175
 4874TIP3    H236114   4.127   2.401  10.625 -0.2785 -0.6327 -0.7877
 4875TIP3   OH236115   1.116   2.626  12.679 -0.8418  0.1092 -0.3484
 4875TIP3    H136116   1.119   2.533  12.658 -0.6297  0.3163 -1.2855
 4875TIP3    H236117   1.181   2.666  12.621  0.4654  0.6093  1.3347
 4876TIP3   OH236118   2.197   3.391   0.510  0.3331  0.9253 -0.6252
 4876TIP3    H136119   2.139   3.316   0.497  1.5471 -0.7789  2.6404
 4876TIP3    H236120   2.143   3.457   0.554  0.4721 -0.2599  1.4703
 4877TIP3   OH236121   3.976   6.600   3.944 -0.0589 -0.0054  0.8883
 4877TIP3    H136122   3.963   6.695   3.944  0.8652  0.1804 -1.1940
 4877TIP3    H236123   3.889   6.564   3.962 -0.7898  1.2559  0.0519
 4878TIP3   OH236124   3.273   3.802  13.896 -0.4970  0.3842  0.2579
 4878TIP3    H136125   3.221   3.829  13.971  0.5560  2.1708  0.3920
 4878TIP3    H236126   3.348   3.756  13.934 -1.2339 -0.9684  0.1349
 4879TIP3   OH236127   6.164   2.780  13.562  0.6519 -0.0761 -0.4327
 4879TIP3    H136128   6.203   2.866  13.581  0.7294  0.0346 -1.0530
 4879TIP3    H236129   6.084   2.800  13.514  0.1868 -0.3280  0.2282
 4880TIP3   OH236130   1.689   4.189   5.049 -0.5328 -0.1276  0.8068
 4880TIP3    H136131   1.719   4.275   5.020  0.7973 -1.2434 -1.4097
 4880TIP3    H236132   1.755   4.159   5.111  0.3975 -0.5489 -0.3476
 4881TIP3   OH236133   2.766   4.882   1.255 -0.7654 -0.1507  0.5443
 4881TIP3    H136134   2.798   4.912   1.170  1.4876 -1.0150  1.0013
 4881TIP3    H236135   2.693   4.940   1.276 -2.1173 -0.6226 -2.4414
 4882TIP3   OH236136   5.976   5.479  10.615  0.5062 -0.3869  0.3034
 4882TIP3    H136137   6.004   5.387  10.615 -0.0843 -0.6064  2.2211
 4882TIP3    H236138   5.905   5.482  10.550 -1.0618 -1.8676  1.8137
 4883TIP3   OH236139   1.646   5.297   0.562 -0.1926 -0.1862 -0.0636
 4883TIP3    H136140   1.737   5.327   0.569  0.4064 -1.6981 -0.9483
 4883TIP3    H236141   1.630   5.289   0.468 -0.3003 -2.5326  0.0911
 4884TIP3   OH236142   1.612   1.791  13.505 -0.7610 -0.4182  0.0736
 4884TIP3    H136143   1.546   1.763  13.568 -0.2872  0.3908  0.9599
 4884TIP3    H236144   1.606   1.886  13.505 -0.2123 -0.3763 -0.5214
 4885TIP3   OH236145   5.954   6.282  15.927  0.5937 -0.1102 -0.5231
 4885TIP3    H136146   5.905   6.247  15.853  1.2513 -2.0615 -0.1136
 4885TIP3    H236147   5.898   6.268  16.002  1.6324 -2.2376 -0.0711
 4886TIP3   OH236148   2.120   0.407  14.170  0.3024 -0.5673 -0.6057
 4886TIP3    H136149   2.098   0.318  14.141  1.5529 -1.0761 -0.0503
 4886TIP3    H236150   2.203   0.397  14.216 -0.4575  0.5944  1.1052
 4887TIP3   OH236151   1.763   3.687  14.229 -0.1646 -0.0257 -0.0601
 4887TIP3    H136152   1.802   3.663  14.313  1.4305  2.6639  0.0785
 4887TIP3    H236153   1.718   3.770  14.246 -0.8108 -0.0211 -1.6118
 4888TIP3   OH236154   5.458   2.131  12.187  0.2292 -0.6375 -0.1159
 4888TIP3    H136155   5.364   2.117  12.200 -0.0443  0.1202 -1.1505
 4888TIP3    H236156   5.491   2.153  12.274 -0.1361 -2.9800  0.6958
 4889TIP3   OH236157   0.064   5.927  12.053 -0.1242  0.0283  0.6532
 4889TIP3    H136158   0.037   5.846  12.096 -1.2169  0.4399  0.7804
 4889TIP3    H236159   0.074   5.903  11.961 -1.4816 -0.0417  0.5033
 4890TIP3   OH236160   3.803   5.190   1.696  0.7901  0.1078  0.1806
 4890TIP3    H136161   3.799   5.275   1.653  0.3008 -0.1608 -0.3250
 4890TIP3    H236162   3.896   5.165   1.692  1.1123  1.0551  1.2383
 4891TIP3   OH236163   5.420   3.864  12.865 -0.1487  0.3732 -0.1588
 4891TIP3    H136164   5.389   3.788  12.913  1.0179 -0.8426 -1.2288
 4891TIP3    H236165   5.511   3.874  12.892 -0.1599  1.1159 -0.3701
 4892TIP3   OH236166   4.276   6.706   2.879  1.1365  0.0012  0.1700
 4892TIP3    H136167   4.266   6.612   2.896 -1.9978  0.2718  0.4640
 4892TIP3    H236168   4.268   6.714   2.784 -1.9353  0.1337  0.3405
 4893TIP3   OH236169   0.873   2.197  12.766 -0.7332  0.3522  0.0870
 4893TIP3    H136170   0.838   2.189  12.677  1.3050 -0.8350 -0.6614
 4893TIP3    H236171   0.956   2.243  12.756 -0.7166  0.6684  1.4624
 4894TIP3   OH236172   4.410   2.777   0.834  0.4567 -0.1350  0.0114
 4894TIP3    H136173   4.502   2.788   0.860  0.1397  0.0433  1.0890
 4894TIP3    H236174   4.380   2.701   0.885 -0.0696 -0.0325 -0.1437
 4895TIP3   OH236175   4.864   3.559   0.378  0.3194 -0.5887  0.5487
 4895TIP3    H136176   4.931   3.490   0.371 -0.1856 -1.1539  1.2201
 4895TIP3    H236177   4.782   3.514   0.360  0.1188  0.1456 -0.4591
 4896TIP3   OH236178   1.191   3.401   1.411  0.0223 -0.0703 -0.0292
 4896TIP3    H136179   1.208   3.311   1.385  1.4436 -0.3316  1.6169
 4896TIP3    H236180   1.272   3.448   1.388  0.9208 -0.1041  2.7609
 4897TIP3   OH236181   5.037   6.291  12.633  0.3338  0.4102  0.0225
 4897TIP3    H136182   5.083   6.222  12.585  3.0489  1.0193  1.5712
 4897TIP3    H236183   5.073   6.373  12.599 -0.8297  1.0086  0.1708
 4898TIP3   OH236184   5.160   3.518  14.799  0.1199 -0.4596  0.4228
 4898TIP3    H136185   5.094   3.502  14.731 -0.6432 -0.7472  1.1993
 4898TIP3    H236186   5.243   3.521  14.752 -0.2234 -2.0532 -0.3608
 4899TIP3   OH236187   0.001   0.345   4.451  0.8705  0.0336  0.3292
 4899TIP3    H136188  -0.052   0.375   4.525  1.9600 -0.0124  1.1650
 4899TIP3    H236189  -0.015   0.251   4.445 -0.5306  0.3078 -0.6087
 4900TIP3   OH236190   4.853   2.887  11.182  0.2186  0.1095  0.2225
 4900TIP3    H136191   4.846   2.964  11.126 -0.9500  0.8574  1.3702
 4900TIP3    H236192   4.924   2.835  11.142  1.6075  2.1398 -0.0976
 4901TIP3   OH236193   4.575   0.651   1.302 -0.0362 -0.6048  0.2127
 4901TIP3    H136194   4.485   0.624   1.322 -0.1959 -0.5191 -0.3516
 4901TIP3    H236195   4.606   0.587   1.238  0.2532 -0.5536  0.3024
 4902TIP3   OH236196   3.724   4.432   1.363 -0.6594  0.3790 -0.1935
 4902TIP3    H136197   3.652   4.464   1.308 -1.2988  0.1698  0.5048
 4902TIP3    H236198   3.681   4.397   1.440  0.0305 -1.7911 -0.7183
 4903TIP3   OH236199   5.618   6.526  15.810 -0.2365 -0.2948  0.5483
 4903TIP3    H136200   5.583   6.445  15.848 -0.3569  0.3182  1.8215
 4903TIP3    H236201   5.639   6.504  15.720 -1.1850 -1.4774  0.5920
 4904TIP3   OH236202   4.939   4.305   0.404  0.0106 -0.2393 -0.1655
 4904TIP3    H136203   4.855   4.298   0.449 -1.1362 -1.8620 -2.3320
 4904TIP3    H236204   4.996   4.243   0.449 -0.3535 -0.0859  0.5236
 4905TIP3   OH236205   0.598   6.069   1.744 -0.1596  0.0739  0.1491
 4905TIP3    H136206   0.680   6.085   1.697  0.2721  1.8003  1.3744
 4905TIP3    H236207   0.586   6.147   1.799 -2.0279 -0.6554  0.8712
 4906TIP3   OH236208   5.666   3.986   4.210  0.3111 -0.2877 -0.3199
 4906TIP3    H136209   5.644   4.023   4.125  0.4637  2.2450  0.6486
 4906TIP3    H236210   5.758   4.008   4.222  0.6474 -1.7840 -0.0269
 4907TIP3   OH236211   6.309   0.304  14.908  0.2386  0.1956 -0.0863
 4907TIP3    H136212   6.277   0.220  14.941 -0.0329  0.8080  1.2507
 4907TIP3    H236213   6.288   0.367  14.977 -0.9827  1.6561 -1.6822
 4908TIP3   OH236214   5.647   1.050   5.822  0.5073 -0.2025  0.4220
 4908TIP3    H136215   5.711   0.995   5.867  1.5775  0.0440 -0.7508
 4908TIP3    H236216   5.679   1.139   5.834 -1.7246  0.4016  3.1594
 4909TIP3   OH236217   3.850   1.223  12.288  0.1380  0.0798  0.5188
 4909TIP3    H136218   3.845   1.245  12.381 -2.6748  0.5386  0.3360
 4909TIP3    H236219   3.781   1.159  12.274 -0.7700  1.3776 -1.5703
 4910TIP3   OH236220   4.752   3.936   1.665 -0.5045 -0.1577  0.6934
 4910TIP3    H136221   4.756   3.930   1.569  1.4751  2.1600  0.5196
 4910TIP3    H236222   4.839   3.908   1.694 -1.5476 -2.3089  2.0220
 4911TIP3   OH236223   2.426   1.126   2.811  0.4361 -0.0080 -0.3111
 4911TIP3    H136224   2.365   1.076   2.757  0.5491  1.4662 -1.9045
 4911TIP3    H236225   2.512   1.087   2.792  0.4841  0.5431 -1.3123
 4912TIP3   OH236226   2.412   6.612  11.605  0.3265 -0.4502  0.3027
 4912TIP3    H136227   2.414   6.582  11.514 -0.4129  0.8886 -0.1837
 4912TIP3    H236228   2.396   6.533  11.656  2.0914 -1.4407 -0.5962
 4913TIP3   OH236229   1.046   4.534   0.293 -0.1624 -0.0159  0.0064
 4913TIP3    H136230   0.964   4.509   0.337 -0.0602 -0.1173  0.1399
 4913TIP3    H236231   1.018   4.588   0.220 -0.2873  0.9547  0.7438
 4914TIP3   OH236232   1.631   2.176   0.033 -0.1737  0.7504  0.0529
 4914TIP3    H136233   1.551   2.225   0.021 -0.1145  0.8235 -0.0439
 4914TIP3    H236234   1.637   2.161   0.128 -1.0815 -0.5670 -0.0703
 4915TIP3   OH236235   3.795   5.435   5.530 -0.1312  0.4662  0.1008
 4915TIP3    H136236   3.777   5.341   5.540 -1.7469  0.9172  1.8765
 4915TIP3    H236237   3.826   5.463   5.616 -1.4480  1.9045  0.1386
 4916TIP3   OH236238   2.274   3.262   5.272  0.1726 -0.0581  0.6023
 4916TIP3    H136239   2.302   3.225   5.355  0.5736 -1.9680 -0.3215
 4916TIP3    H236240   2.355   3.288   5.228 -0.0566  1.2991  0.9104
 4917TIP3   OH236241   6.493   6.788  13.003  0.0983  0.1362  0.3651
 4917TIP3    H136242   6.519   6.756  13.089  0.5774 -0.4007  0.0263
 4917TIP3    H236243   6.397   6.792  13.007  0.0807 -0.4519  0.7271
 4918TIP3   OH236244   2.824   1.029  13.881  0.3606  0.3233 -0.0122
 4918TIP3    H136245   2.770   0.975  13.824  1.1009 -1.1483  0.6307
 4918TIP3    H236246   2.769   1.045  13.958  0.9287 -1.5341  0.8310
 4919TIP3   OH236247   3.413   6.528   4.349 -0.0962  0.8334  0.1491
 4919TIP3    H136248   3.441   6.529   4.258 -1.0499  0.0361 -0.1714
 4919TIP3    H236249   3.319   6.545   4.345 -0.7046 -1.9930  0.7291
 4920TIP3   OH236250   2.037   3.222   5.434 -0.2383  0.3277 -0.5308
 4920TIP3    H136251   1.961   3.264   5.395 -0.2491  3.5949  2.5038
 4920TIP3    H236252   2.111   3.254   5.383 -0.5193  1.8915 -0.0334
 4921TIP3   OH236253   6.231   5.537   5.592 -0.2016  0.1450 -0.7536
 4921TIP3    H136254   6.256   5.452   5.628 -2.0469  0.5129  1.6673
 4921TIP3    H236255   6.137   5.531   5.579 -0.6510  2.2517  0.9465
 4922TIP3   OH236256   5.462   5.150  11.861 -0.3468  0.3949 -0.1010
 4922TIP3    H136257   5.482   5.188  11.946 -0.6783  0.8066 -0.2007
 4922TIP3    H236258   5.504   5.209  11.798 -1.3778  0.9537 -0.2836
 4923TIP3   OH236259   0.190   5.432  11.397 -0.0496  0.9261  0.4009
 4923TIP3    H136260   0.215   5.523  11.415  0.3362  0.6756  1.1642
 4923TIP3    H236261   0.213   5.419  11.305  2.4782  0.7765  0.9855
 4924TIP3   OH236262   4.496   6.495   4.957 -0.2393  0.1384 -0.3075
 4924TIP3    H136263   4.420   6.552   4.968 -1.2886 -1.0207 -1.2239
 4924TIP3    H236264   4.516   6.465   5.045 -0.2434  1.1773  0.0679
 4925TIP3   OH236265   6.149   3.916   4.297  0.5365 -0.6398 -0.8168
 4925TIP3    H136266   6.123   4.004   4.269  0.6270 -0.4586 -0.3401
 4925TIP3    H236267   6.192   3.879   4.220  0.6417 -0.2074 -0.9720
 4926TIP3   OH236268   6.713   5.031   5.709  0.3536 -0.3113  0.1944
 4926TIP3    H136269   6.800   5.059   5.680 -0.0419 -0.9744 -1.7654
 4926TIP3    H236270   6.717   4.936   5.707 -0.1238 -0.3622  1.1076
 4927TIP3   OH236271   6.578   4.483  14.136  0.2035 -0.3663 -0.4326
 4927TIP3    H136272   6.548   4.408  14.084 -2.0846 -0.0972  0.3668
 4927TIP3    H236273   6.497   4.521  14.171  1.4379  1.4389  0.6086
 4928TIP3   OH236274   6.136   5.085   0.512  0.0575  0.5943  1.0905
 4928TIP3    H136275   6.121   5.179   0.513 -0.8902  0.4567  0.8516
 4928TIP3    H236276   6.049   5.046   0.525  0.3213 -0.2417  0.4922
 4929TIP3   OH236277   0.871   5.942  14.839  0.3012 -0.1140 -0.2440
 4929TIP3    H136278   0.940   5.980  14.784  0.2575 -0.1153 -0.2993
 4929TIP3    H236279   0.899   5.851  14.853  0.1429 -0.2080 -0.5370
 4930TIP3   OH236280   0.184   4.473   1.383  0.9728 -0.0500 -0.4524
 4930TIP3    H136281   0.257   4.484   1.444  0.3954 -0.4263  0.3334
 4930TIP3    H236282   0.170   4.560   1.346 -0.8948  1.1159  2.5940
 4931TIP3   OH236283   5.652   0.364   4.028  0.4823 -0.3925  0.7470
 4931TIP3    H136284   5.653   0.298   4.098  0.1821  0.3218  1.4516
 4931TIP3    H236285   5.569   0.348   3.982 -0.3110  0.3958  1.8388
 4932TIP3   OH236286   0.422   1.551  11.891 -0.0640  0.5379  0.0648
 4932TIP3    H136287   0.373   1.469  11.879 -0.4958  0.9304 -0.9706
 4932TIP3    H236288   0.395   1.583  11.977 -1.5059  0.6536 -0.4151
 4933TIP3   OH236289   5.088   3.006  15.696  0.3375  0.6201  0.4076
 4933TIP3    H136290   5.176   2.989  15.662  0.3845  0.3525  0.6630
 4933TIP3    H236291   5.099   3.077  15.759  0.5759 -0.2306  1.3607
 4934TIP3   OH236292   2.075   2.437   2.042  0.2909 -0.0792  0.9401
 4934TIP3    H136293   2.099   2.519   2.085  0.0109  0.9053 -0.6799
 4934TIP3    H236294   2.132   2.371   2.082  1.4785  1.1514  1.3463
 4935TIP3   OH236295   5.877   0.002   1.328  0.4925 -0.6120 -0.0590
 4935TIP3    H136296   5.856   0.089   1.294 -0.5224 -0.6905  0.3312
 4935TIP3    H236297   5.970   0.005   1.346  0.8073 -0.1439 -1.6094
 4936TIP3   OH236298   1.981   6.360   4.412 -0.6096 -0.0018 -0.4137
 4936TIP3    H136299   1.922   6.397   4.477  1.1327 -0.6226  1.6108
 4936TIP3    H236300   1.965   6.265   4.417  0.8421 -0.2207  0.5031
 4937TIP3   OH236301   4.684   3.746  15.075  0.6169 -0.0599 -0.5623
 4937TIP3    H136302   4.723   3.703  14.999 -1.7878 -2.1886 -0.7249
 4937TIP3    H236303   4.604   3.786  15.043 -0.1452 -0.4849  0.7122
 4938TIP3   OH236304   1.320   3.380   3.851  0.1654  0.2859 -0.2114
 4938TIP3    H136305   1.382   3.316   3.818  2.8564  1.3869  2.2934
 4938TIP3    H236306   1.272   3.334   3.919 -1.8996 -0.5495 -2.1123
 4939TIP3   OH236307   6.518   6.670   4.020  0.1154 -0.0134  0.1198
 4939TIP3    H136308   6.424   6.666   4.031  0.1708 -0.3292  0.4779
 4939TIP3    H236309   6.534   6.756   3.981 -0.5249 -0.7822 -1.9656
 4940TIP3   OH236310   2.546   6.132  11.354  0.0510 -0.8690 -0.0392
 4940TIP3    H136311   2.617   6.196  11.361 -1.9782  1.5465 -0.2390
 4940TIP3    H236312   2.577   6.056  11.405  2.3845  0.4131  0.5967
 4941TIP3   OH236313   0.677   4.281   4.636 -0.1560 -0.5204  0.2207
 4941TIP3    H136314   0.640   4.193   4.643 -0.5391 -0.5458 -1.7441
 4941TIP3    H236315   0.770   4.269   4.657 -0.8460 -0.6837  3.7703
 4942TIP3   OH236316   6.345   2.819  15.100 -0.1112 -0.4905  0.0234
 4942TIP3    H136317   6.308   2.791  15.184 -0.0471 -0.2923  0.1179
 4942TIP3    H236318   6.308   2.758  15.036  0.8300 -1.4619  0.3627
 4943TIP3   OH236319   5.549   6.273   5.368 -0.3236  0.3314 -0.5980
 4943TIP3    H136320   5.551   6.240   5.278  1.1023  0.9092 -0.8108
 4943TIP3    H236321   5.619   6.338   5.370  0.7688 -0.8248  1.3606
 4944TIP3   OH236322   0.194   3.315  14.105 -0.0399  0.0014 -0.0750
 4944TIP3    H136323   0.122   3.267  14.064  0.4306  0.4022 -1.4324
 4944TIP3    H236324   0.189   3.403  14.066  0.8717  0.1799  0.1895
 4945TIP3   OH236325   1.435   3.875   2.763 -0.7893 -0.5013 -0.0156
 4945TIP3    H136326   1.371   3.903   2.696 -0.8143  0.5321  0.4201
 4945TIP3    H236327   1.446   3.952   2.819  0.3986 -0.8576  0.2690
 4946TIP3   OH236328   2.975   6.813  12.825  0.2711 -0.3365 -0.3100
 4946TIP3    H136329   2.894   6.769  12.850  0.9246 -0.1578  2.4543
 4946TIP3    H236330   3.020   6.750  12.768 -0.7774 -1.3955  0.0035
 4947TIP3   OH236331   1.583   2.753  14.373  0.1978 -0.4906  0.4013
 4947TIP3    H136332   1.610   2.661  14.366 -0.2243 -0.5238 -0.8751
 4947TIP3    H236333   1.549   2.775  14.287  0.8018  1.0400  0.5261
 4948TIP3   OH236334   5.065   3.672   4.767 -0.0334 -0.7663  0.7677
 4948TIP3    H136335   5.007   3.597   4.754 -0.2678 -0.4914  0.1513
 4948TIP3    H236336   5.034   3.713   4.847  0.0812 -1.3125  1.0941
 4949TIP3   OH236337   6.379   0.502   1.953  0.1419  0.6775 -0.2325
 4949TIP3    H136338   6.427   0.419   1.946 -1.0165  0.0435 -1.0055
 4949TIP3    H236339   6.443   0.564   1.989  1.5350 -0.1342 -1.2205
 4950TIP3   OH236340   3.478   2.495  14.006  0.0797  0.5219  0.2376
 4950TIP3    H136341   3.457   2.544  14.086 -1.4228  1.1775 -0.5205
 4950TIP3    H236342   3.393   2.471  13.969  0.7605 -1.9873  0.1319
 4951TIP3   OH236343   0.609   4.186  14.861 -0.0061 -0.3303  0.2680
 4951TIP3    H136344   0.669   4.258  14.874 -0.6466  0.2570  0.0361
 4951TIP3    H236345   0.531   4.210  14.911  0.1619 -1.3655  1.0768
 4952TIP3   OH236346   3.518   4.262  12.720 -0.4656 -0.2711  0.1531
 4952TIP3    H136347   3.567   4.192  12.677 -0.0892  0.7840 -1.2165
 4952TIP3    H236348   3.427   4.231  12.720 -0.2185 -1.0079  0.1021
 4953TIP3   OH236349   2.347   5.664   3.845 -0.0445 -0.3235 -0.5634
 4953TIP3    H136350   2.283   5.733   3.829 -0.7427 -0.4853  1.3049
 4953TIP3    H236351   2.300   5.583   3.822  0.3109 -0.3033 -1.4223
 4954TIP3   OH236352   5.051   3.920   3.093 -0.6406 -0.9816 -0.1117
 4954TIP3    H136353   4.995   3.842   3.095 -1.1777 -0.7446 -2.4106
 4954TIP3    H236354   4.995   3.990   3.128  0.0509 -1.6643  2.5518
 4955TIP3   OH236355   5.437   4.758   2.755  0.4616  0.1162 -0.2232
 4955TIP3    H136356   5.499   4.694   2.718 -0.2826 -0.5056 -0.4275
 4955TIP3    H236357   5.479   4.843   2.743  0.9227 -0.2254 -1.0799
 4956TIP3   OH236358   0.162   1.732  10.447 -0.3010  0.5214 -0.6728
 4956TIP3    H136359   0.237   1.733  10.506 -0.2141  0.4388 -0.7817
 4956TIP3    H236360   0.173   1.652  10.396 -1.0142 -0.0470  0.0321
 4957TIP3   OH236361   1.160   3.875  16.225 -0.0883  0.1831 -0.5583
 4957TIP3    H136362   1.109   3.907  16.299  1.6158 -0.8635  1.1420
 4957TIP3    H236363   1.234   3.936  16.218 -1.4298  1.7069 -3.0209
 4958TIP3   OH236364   0.443   4.316   2.499  0.3444 -0.7272 -0.6929
 4958TIP3    H136365   0.385   4.307   2.575  0.8287 -0.4999 -0.2971
 4958TIP3    H236366   0.400   4.383   2.445  0.7228  0.1339  0.0606
 4959TIP3   OH236367   6.154   5.780   5.374 -0.2353 -0.2128  0.4157
 4959TIP3    H136368   6.109   5.696   5.383  2.1857 -1.7291 -0.4171
 4959TIP3    H236369   6.151   5.799   5.281  3.0402 -1.8510 -0.1968
 4960TIP3   OH236370   6.098   6.457  11.099  0.1604 -0.1171 -0.2192
 4960TIP3    H136371   6.113   6.509  11.020 -0.6539 -1.0488 -1.0224
 4960TIP3    H236372   6.002   6.457  11.108  0.1909 -0.9776  0.1076
 4961TIP3   OH236373   2.747   2.283  15.413 -0.1289  0.0010 -0.9351
 4961TIP3    H136374   2.807   2.241  15.352 -0.2696  0.7375 -1.6076
 4961TIP3    H236375   2.795   2.287  15.496  0.1325 -0.8506 -1.0392
 4962TIP3   OH236376   2.018   0.715  13.291 -0.5093  0.3413  0.2915
 4962TIP3    H136377   2.034   0.698  13.198 -2.8226  1.1593 -0.3161
 4962TIP3    H236378   1.973   0.636  13.322 -0.0845  0.2287  0.6228
 4963TIP3   OH236379   2.548   6.816   1.115  0.2797 -0.0749  0.4971
 4963TIP3    H136380   2.474   6.815   1.053  1.0674 -1.0442 -0.4883
 4963TIP3    H236381   2.555   6.907   1.144 -0.2231  0.3806 -0.7370
 4964TIP3   OH236382   4.961   0.188   3.422  0.6292 -0.0518  0.2471
 4964TIP3    H136383   5.023   0.227   3.360 -0.0993 -0.7961 -1.0047
 4964TIP3    H236384   4.875   0.205   3.383  0.2315 -1.7853  0.3010
 4965TIP3   OH236385   4.281   5.178  13.424  0.3999  0.2447  0.3572
 4965TIP3    H136386   4.249   5.134  13.345 -0.0847 -2.1988  1.7983
 4965TIP3    H236387   4.375   5.184  13.412  0.0449  3.6796 -2.1082
 4966TIP3   OH236388   1.552   3.592   0.740 -0.1881  0.3516 -0.0160
 4966TIP3    H136389   1.480   3.636   0.695 -0.7518 -1.0453 -0.5120
 4966TIP3    H236390   1.522   3.583   0.830 -0.1648  0.7519  0.0355
 4967TIP3   OH236391   2.036   0.754   2.193 -0.7898  0.6079 -0.6393
 4967TIP3    H136392   2.045   0.724   2.102  0.0032 -1.5662  0.0984
 4967TIP3    H236393   2.098   0.825   2.201 -0.0874  0.1168 -1.5350
 4968TIP3   OH236394   2.755   5.320  15.971  0.2904  0.3146  0.6704
 4968TIP3    H136395   2.810   5.393  15.942 -0.2452  0.3841 -0.1881
 4968TIP3    H236396   2.710   5.354  16.049  1.7062  0.1314  1.6056
 4969TIP3   OH236397   5.704   0.511  13.224  0.2764 -0.0514 -0.1516
 4969TIP3    H136398   5.689   0.545  13.136  0.1632  1.2449  0.3532
 4969TIP3    H236399   5.787   0.464  13.218  0.2137 -0.0744 -0.9720
 4970TIP3   OH236400   1.051   2.629   2.865 -0.5316  0.2780  0.1629
 4970TIP3    H136401   1.133   2.672   2.842 -0.1611 -0.9102 -0.8666
 4970TIP3    H236402   1.050   2.549   2.811 -2.7402  0.6637 -0.4726
 4971TIP3   OH236403   3.970   6.165   3.435 -0.6379 -0.4650  0.2124
 4971TIP3    H136404   3.912   6.089   3.441 -0.9527 -0.1758  0.9586
 4971TIP3    H236405   3.974   6.185   3.342 -1.4004 -0.7525  0.1117
 4972TIP3   OH236406   1.857   1.675  12.318  0.0075  0.4631  0.3291
 4972TIP3    H136407   1.776   1.636  12.285 -0.4492  0.3888  1.4985
 4972TIP3    H236408   1.846   1.675  12.413  1.1021  1.0701  0.4625
 4973TIP3   OH236409   5.778   0.902   6.027 -0.0885  0.1326 -0.2647
 4973TIP3    H136410   5.706   0.844   6.052 -0.1531  0.8565  1.3815
 4973TIP3    H236411   5.857   0.850   6.043 -0.2006 -0.3027 -1.0757
 4974TIP3   OH236412   2.325   5.818   1.962 -0.8594  0.4164  0.3033
 4974TIP3    H136413   2.296   5.749   1.902 -0.3437  2.2405 -2.1916
 4974TIP3    H236414   2.419   5.800   1.974 -0.7792  0.5494 -0.1299
 4975TIP3   OH236415   2.559   4.183   3.334  0.4274  0.3169 -0.0476
 4975TIP3    H136416   2.532   4.095   3.307  0.3943  0.5952 -0.9312
 4975TIP3    H236417   2.480   4.220   3.374 -0.2867  0.8056 -1.8384
 4976TIP3   OH236418   0.441   1.996  15.210  0.3840  0.2055 -0.0862
 4976TIP3    H136419   0.417   1.994  15.117 -0.8323  3.4341  0.0357
 4976TIP3    H236420   0.358   2.003  15.257  0.9997 -1.0271  1.2604
 4977TIP3   OH236421   2.964   3.130  14.634  0.6203  0.4715 -0.6328
 4977TIP3    H136422   3.058   3.145  14.623  1.0829 -1.4746  0.1372
 4977TIP3    H236423   2.938   3.081  14.555  0.5044  0.0817 -0.3571
 4978TIP3   OH236424   5.013   1.173  12.327 -0.5750  0.3825 -0.0444
 4978TIP3    H136425   4.962   1.211  12.255 -2.0958 -0.8077  0.3597
 4978TIP3    H236426   5.033   1.248  12.383 -0.1036  1.1889 -1.2531
 4979TIP3   OH236427   1.453   6.512  14.103 -0.1028 -0.1549  0.2260
 4979TIP3    H136428   1.502   6.434  14.130 -0.3627 -0.8150 -1.1145
 4979TIP3    H236429   1.510   6.585  14.127 -0.1622 -0.6754  2.1608
 4980TIP3   OH236430   5.022   2.346   2.089  0.2756  0.5746 -0.1717
 4980TIP3    H136431   4.935   2.337   2.127  0.7193 -0.4796  0.6249
 4980TIP3    H236432   5.048   2.257   2.066  0.1414  1.1126 -2.7833
 4981TIP3   OH236433   0.349   6.004   6.497  0.0603 -0.2533  0.1385
 4981TIP3    H136434   0.347   6.015   6.592 -0.5690 -1.2533  0.2587
 4981TIP3    H236435   0.442   5.987   6.477  0.1483 -0.3580  0.6165
 4982TIP3   OH236436   5.166   3.927  16.651  0.0991 -0.0766  0.8854
 4982TIP3    H136437   5.177   3.883  16.736  1.6428  1.0270  1.2941
 4982TIP3    H236438   5.241   3.898  16.599  0.0350  0.5043  0.4591
 4983TIP3   OH236439   3.271   5.046  14.490  0.2815 -0.0410 -0.1350
 4983TIP3    H136440   3.233   5.071  14.405 -0.0120 -0.6638 -0.1948
 4983TIP3    H236441   3.339   4.983  14.467  0.7446  0.3967  0.0386
 4984TIP3   OH236442   6.732   6.729   4.912  0.0473  0.3770  0.8266
 4984TIP3    H136443   6.743   6.694   4.824 -0.8874  2.0707 -0.0080
 4984TIP3    H236444   6.656   6.682   4.947 -0.8981  1.1664 -0.0988
 4985TIP3   OH236445   0.731   2.997  15.391 -0.2819  0.3234  0.2096
 4985TIP3    H136446   0.670   3.053  15.342 -0.6537 -1.1589 -1.1060
 4985TIP3    H236447   0.806   2.987  15.332 -0.5268 -1.0967  0.1088
 4986TIP3   OH236448   4.718   0.056  12.477 -0.3155  0.2350  0.0554
 4986TIP3    H136449   4.668  -0.014  12.519 -1.9763  0.3413 -1.6240
 4986TIP3    H236450   4.713   0.129  12.538 -0.9001 -0.2554  0.6139
 4987TIP3   OH236451   2.965   3.387   2.215  0.4343 -0.0329  0.6407
 4987TIP3    H136452   2.974   3.470   2.168 -2.8822 -1.5419 -3.2821
 4987TIP3    H236453   2.879   3.393   2.256 -0.2543 -1.7599 -0.4590
 4988TIP3   OH236454   6.820   6.369  15.997  0.0635  0.8297 -0.3539
 4988TIP3    H136455   6.842   6.281  16.027 -0.1021  1.3379  1.4208
 4988TIP3    H236456   6.725   6.368  15.984  0.1263  0.6260 -0.8226
 4989TIP3   OH236457   4.844   0.873   5.220  0.0065  0.6742 -0.2970
 4989TIP3    H136458   4.828   0.793   5.170 -0.9076  1.2495 -0.9660
 4989TIP3    H236459   4.830   0.944   5.157 -1.2271  1.4324  0.7696
 4990TIP3   OH236460   4.624   1.211   3.285  0.0273 -0.6473  0.2874
 4990TIP3    H136461   4.553   1.180   3.229 -0.6395  0.7593  0.3107
 4990TIP3    H236462   4.679   1.263   3.226 -1.2339  1.7082  1.0675
 4991TIP3   OH236463   4.694   5.404  14.453 -0.0553 -0.2369  0.2568
 4991TIP3    H136464   4.617   5.384  14.505 -0.2755  0.5552  0.2504
 4991TIP3    H236465   4.713   5.323  14.405 -0.0887 -0.8546  1.2450
 4992TIP3   OH236466   0.008   5.505  10.650  0.0481 -0.4437  0.0877
 4992TIP3    H136467  -0.037   5.437  10.599 -0.5419 -0.5058  0.6792
 4992TIP3    H236468   0.042   5.565  10.584 -1.2621 -0.1731 -0.3781
 4993TIP3   OH236469   4.257   6.224   2.426 -0.5392 -0.4355 -0.0677
 4993TIP3    H136470   4.171   6.239   2.387 -0.8391 -1.0237  0.3515
 4993TIP3    H236471   4.310   6.188   2.355 -0.9364 -1.0325 -0.0620
 4994TIP3   OH236472   4.295   1.081   2.396 -0.1071  0.1393 -0.4467
 4994TIP3    H136473   4.329   1.168   2.374 -0.5382  0.4591  0.1152
 4994TIP3    H236474   4.214   1.073   2.346  0.1281 -0.0995 -0.7937
 4995TIP3   OH236475   6.005   3.056   2.123 -0.1989  0.1371 -0.7416
 4995TIP3    H136476   5.949   2.999   2.175  0.3641  1.6881  1.7341
 4995TIP3    H236477   6.086   3.006   2.110  0.6261  0.5518  2.1388
 4996TIP3   OH236478   3.479   6.429   2.576 -0.4813 -0.6642  1.0239
 4996TIP3    H136479   3.550   6.406   2.516  0.3881  0.8622  1.4293
 4996TIP3    H236480   3.408   6.368   2.553  0.3308 -1.0682 -0.5628
 4997TIP3   OH236481   4.789   0.625   5.395  0.6582 -0.3567 -0.1786
 4997TIP3    H136482   4.865   0.596   5.344  0.0736 -1.0974 -0.6459
 4997TIP3    H236483   4.727   0.553   5.389 -0.0943  0.2471  0.1869
 4998TIP3   OH236484   5.548   2.382  15.812 -0.0842  0.3456 -0.1610
 4998TIP3    H136485   5.621   2.329  15.778 -0.7237  0.6962 -2.2725
 4998TIP3    H236486   5.515   2.333  15.887  2.6605  0.4806  1.2594
 4999TIP3   OH236487   6.350   0.059   5.541  0.0752 -0.3656 -0.3909
 4999TIP3    H136488   6.264   0.026   5.570  0.7795 -2.5450 -0.5978
 4999TIP3    H236489   6.389  -0.015   5.494  1.4533  1.1053 -1.6370
 5000TIP3   OH236490   1.241   3.816   6.645 -0.3533  0.4676  0.0872
 5000TIP3    H136491   1.220   3.788   6.556  2.0725 -1.3840  0.0066
 5000TIP3    H236492   1.235   3.912   6.641  1.8699  0.6200 -2.7314
 5001TIP3   OH236493   0.829   0.850  11.832  0.0417  0.1949 -0.6870
 5001TIP3    H136494   0.779   0.878  11.909  2.4484  1.3824  0.5743
 5001TIP3    H236495   0.814   0.919  11.767  0.1239  0.6071 -0.2748
 5002TIP3   OH236496   5.114   6.529   6.293  0.1956  0.2820 -0.4377
 5002TIP3    H136497   5.025   6.492   6.291  0.2065  0.2570 -0.4663
 5002TIP3    H236498   5.143   6.514   6.383 -0.2969  1.4097 -0.0758
 5003TIP3   OH236499   6.383   4.168  15.075 -0.5042  0.1577 -0.5888
 5003TIP3    H136500   6.439   4.197  15.003  0.5926  1.7864  0.8516
 5003TIP3    H236501   6.426   4.200  15.154 -1.8099 -1.3396  0.8118
 5004TIP3   OH236502   6.653   4.824  14.118 -0.0363 -0.2969  0.0963
 5004TIP3    H136503   6.631   4.785  14.203  0.7316  0.6697  0.7695
 5004TIP3    H236504   6.661   4.917  14.137  0.8272 -0.1586 -0.8993
 5005TIP3   OH236505   2.289   6.293   2.605 -0.3794 -0.1197  0.2280
 5005TIP3    H136506   2.349   6.351   2.557  1.3012 -0.3733  1.9190
 5005TIP3    H236507   2.346   6.227   2.645 -1.9292 -1.0882  0.9169
 5006TIP3   OH236508   0.210   0.918  14.843 -0.2728  0.1957 -0.1233
 5006TIP3    H136509   0.253   0.851  14.791  1.9885  0.6472  1.0415
 5006TIP3    H236510   0.273   0.990  14.848 -3.4548  3.6527 -3.3760
 5007TIP3   OH236511   4.826   3.977  12.004  0.3163  0.3359  0.7239
 5007TIP3    H136512   4.860   3.940  11.923  0.1945 -0.4523  1.0286
 5007TIP3    H236513   4.891   4.042  12.030  0.4139  0.5041  0.0610
 5008TIP3   OH236514   2.923   5.026  12.557  0.3338 -0.5913  0.7160
 5008TIP3    H136515   2.917   5.024  12.652  2.7000 -1.5018  0.9151
 5008TIP3    H236516   2.877   4.946  12.528 -0.2123 -0.4163  1.0817
 5009TIP3   OH236517   6.427   5.465   0.413  0.6270  0.1486  0.1756
 5009TIP3    H136518   6.385   5.398   0.358  0.5281 -0.6849  1.2178
 5009TIP3    H236519   6.516   5.473   0.379  0.2541  0.4181 -0.7559
 5010TIP3   OH236520   0.817   1.502  10.809  0.2079 -0.3162 -0.1579
 5010TIP3    H136521   0.739   1.556  10.797  0.0556 -0.3582  0.6294
 5010TIP3    H236522   0.884   1.563  10.840  0.2483 -0.4430  0.0030
 5011TIP3   OH236523   3.286   5.310   1.826 -0.2981  0.0514  0.6984
 5011TIP3    H136524   3.216   5.353   1.875  0.5420  2.1808  0.1410
 5011TIP3    H236525   3.242   5.240   1.777 -1.8517  0.6974  1.1233
 5012TIP3   OH236526   5.158   5.713   0.937  0.0590  0.0991  0.1178
 5012TIP3    H136527   5.158   5.723   0.842  0.6366  1.2836  0.2169
 5012TIP3    H236528   5.097   5.642   0.954 -0.8334  0.5439 -1.0836
 5013TIP3   OH236529   5.422   4.308   3.779 -0.2434 -0.5764  0.1554
 5013TIP3    H136530   5.411   4.368   3.704  2.1943  1.9001  1.5727
 5013TIP3    H236531   5.336   4.307   3.821 -0.9927  0.0077 -1.2662
 5014TIP3   OH236532   2.553   1.665   6.444 -0.3336  0.5521 -0.4709
 5014TIP3    H136533   2.638   1.705   6.462 -1.6254  2.9246  0.8763
 5014TIP3    H236534   2.554   1.584   6.495  0.7159  1.1153  0.4532
 5015TIP3   OH236535   6.764   3.756   1.640 -0.0871  0.3753 -0.0617
 5015TIP3    H136536   6.725   3.691   1.698 -0.2102 -0.6389 -1.2268
 5015TIP3    H236537   6.800   3.823   1.698 -0.9529 -0.1658  1.1318
 5016TIP3   OH236538   1.066   3.199   1.951  0.3819  0.2968 -0.0706
 5016TIP3    H136539   1.156   3.200   1.982  0.7593  0.1886 -1.1328
 5016TIP3    H236540   1.071   3.230   1.861 -0.8484  1.9745  0.3685
 5017TIP3   OH236541   1.795   1.932  16.233  0.0820  0.4012  0.0920
 5017TIP3    H136542   1.752   2.018  16.233  1.6500  1.2643 -1.8462
 5017TIP3    H236543   1.765   1.891  16.152 -1.2877 -1.2805  1.3908
 5018TIP3   OH236544   2.685   0.450   2.510  0.1555  0.0051  0.2792
 5018TIP3    H136545   2.684   0.376   2.570  0.7185  0.3555  0.7281
 5018TIP3    H236546   2.619   0.428   2.444 -1.5939  0.3233  1.8692
 5019TIP3   OH236547   1.694   1.732   5.373 -0.2179  0.3327 -0.6822
 5019TIP3    H136548   1.635   1.681   5.429 -1.1777  1.2261 -0.8556
 5019TIP3    H236549   1.645   1.743   5.291  0.0082  1.4487 -0.6749
 5020TIP3   OH236550   0.337   3.518  12.596  0.2357  0.3536 -0.3714
 5020TIP3    H136551   0.406   3.581  12.574  0.4836 -0.0764 -0.8585
 5020TIP3    H236552   0.257   3.571  12.599  0.6746  0.9924  0.9318
 5021TIP3   OH236553   5.920   1.416   5.479 -0.5182  0.0277  0.0346
 5021TIP3    H136554   5.871   1.444   5.556 -0.2059 -2.1930  1.1182
 5021TIP3    H236555   5.914   1.320   5.480  2.5957 -0.2908 -0.5864
 5022TIP3   OH236556   5.619   5.957   4.208 -0.6208  0.2874  0.1676
 5022TIP3    H136557   5.627   6.052   4.198 -1.2905  0.2307 -1.1193
 5022TIP3    H236558   5.579   5.928   4.126 -0.0614 -1.1599  0.3810
 5023TIP3   OH236559   4.554   2.909  13.491  0.2487 -0.2517  0.0879
 5023TIP3    H136560   4.535   2.817  13.507  0.7601 -0.2630  0.6357
 5023TIP3    H236561   4.589   2.942  13.573 -1.0444  0.7439  0.2753
 5024TIP3   OH236562   2.021   2.326  11.252  0.5333 -0.5501 -0.1469
 5024TIP3    H136563   2.041   2.399  11.311 -3.6540 -0.3173  1.2794
 5024TIP3    H236564   1.991   2.368  11.171  0.0874 -0.7549 -0.0861
 5025TIP3   OH236565   0.548   4.608   2.543  0.2836 -0.3360 -0.0436
 5025TIP3    H136566   0.559   4.575   2.632  0.6728 -1.4878 -0.5067
 5025TIP3    H236567   0.548   4.703   2.553  2.1317 -0.3987  0.9910
 5026TIP3   OH236568   0.126   2.478  13.613 -0.0422  0.0978 -0.1722
 5026TIP3    H136569   0.201   2.419  13.625 -0.6329 -0.9082 -1.2839
 5026TIP3    H236570   0.087   2.451  13.530 -2.4124 -0.2635  0.9947
 5027TIP3   OH236571   2.538   2.681   0.314 -0.1400 -0.8850  0.5570
 5027TIP3    H136572   2.542   2.670   0.409  0.8516 -2.3827  0.3626
 5027TIP3    H236573   2.599   2.754   0.296 -0.4208 -0.5182  1.0640
 5028TIP3   OH236574   4.103   3.413   3.332 -0.2493 -0.3939 -0.1606
 5028TIP3    H136575   4.120   3.411   3.426 -1.0521  2.1260  0.0888
 5028TIP3    H236576   4.009   3.431   3.324  0.3051  2.5311 -1.3482
 5029TIP3   OH236577   4.509   2.289  13.725 -0.1284  0.2614  0.0720
 5029TIP3    H136578   4.445   2.354  13.695 -0.1418  0.5422  0.6827
 5029TIP3    H236579   4.586   2.304  13.670 -0.8091 -0.5516 -1.1587
 5030TIP3   OH236580   3.188   6.329   1.331 -0.5334 -0.2912  0.6507
 5030TIP3    H136581   3.157   6.310   1.243  0.5423 -0.4208  0.2813
 5030TIP3    H236582   3.231   6.414   1.323  1.2012 -1.1291  0.6019
 5031TIP3   OH236583   6.361   0.982  12.505 -0.2514  0.1850 -0.5649
 5031TIP3    H136584   6.318   1.047  12.449  1.6483  2.6726  0.6586
 5031TIP3    H236585   6.430   0.945  12.450 -0.9084 -0.3687 -1.0469
 5032TIP3   OH236586   0.417   2.831   1.462 -0.4576  0.2290  0.1152
 5032TIP3    H136587   0.345   2.802   1.518 -0.1005  1.8646  1.5090
 5032TIP3    H236588   0.447   2.913   1.502  0.8056  0.6831 -1.6448
 5033TIP3   OH236589   0.336   4.961   4.688  0.2684 -0.1025  0.1512
 5033TIP3    H136590   0.312   5.042   4.644 -0.0208 -0.2819 -0.0282
 5033TIP3    H236591   0.432   4.962   4.690  0.3621 -0.6846 -1.6507
 5034TIP3   OH236592   3.726   1.813  11.876 -0.0252  0.0061  0.0773
 5034TIP3    H136593   3.660   1.780  11.815  0.9859 -2.5152  0.2328
 5034TIP3    H236594   3.739   1.742  11.939  0.1818  1.8779  2.2928
 5035TIP3   OH236595   2.368   2.999  11.730 -0.1623 -0.4621  0.3228
 5035TIP3    H136596   2.385   3.084  11.769  0.7937 -0.6994  0.4503
 5035TIP3    H236597   2.410   3.003  11.644  0.2029 -0.9279  0.4777
 5036TIP3   OH236598   5.530   0.472   1.027 -0.7613 -0.6273 -0.4451
 5036TIP3    H136599   5.565   0.383   1.022  0.9924  0.0541 -0.9293
 5036TIP3    H236600   5.590   0.525   0.974  0.4166  1.5097  2.7276
 5037TIP3   OH236601   4.764   2.441  12.793  0.6474 -0.5190 -0.1019
 5037TIP3    H136602   4.805   2.466  12.876 -0.5480 -0.4899  0.4930
 5037TIP3    H236603   4.802   2.502  12.729 -0.5180  1.3855  0.9176
 5038TIP3   OH236604   4.317   1.827   2.574  0.3678  0.1665 -0.6497
 5038TIP3    H136605   4.300   1.892   2.642 -0.1661  0.1006 -0.7188
 5038TIP3    H236606   4.330   1.745   2.621  0.8670  0.2876 -0.5734
 5039TIP3   OH236607   5.942   2.628   4.117  0.5629  0.3678 -1.1363
 5039TIP3    H136608   5.898   2.710   4.139 -0.3151 -0.3246 -0.1976
 5039TIP3    H236609   5.871   2.565   4.102  1.2187 -0.3964 -1.1444
 5040TIP3   OH236610   4.889   2.659   3.844 -0.3855  0.3078 -0.1499
 5040TIP3    H136611   4.852   2.653   3.932 -2.5864 -1.9826 -1.0960
 5040TIP3    H236612   4.956   2.592   3.840 -1.6700 -1.0089 -0.7255
 5041TIP3   OH236613   6.083   1.379  13.518 -0.1128 -0.3006  0.0843
 5041TIP3    H136614   6.127   1.366  13.434 -0.1554  0.9269 -0.1470
 5041TIP3    H236615   6.002   1.328  13.512  0.0610 -0.5074 -0.4776
 5042TIP3   OH236616   4.279   0.293   1.266  0.0146  0.0457 -0.0103
 5042TIP3    H136617   4.368   0.264   1.244  0.4889 -0.6814  2.5437
 5042TIP3    H236618   4.245   0.225   1.324 -2.1579  0.4291 -0.7540
 5043TIP3   OH236619   2.568   4.366   3.645 -0.3608 -0.0432 -0.0030
 5043TIP3    H136620   2.513   4.289   3.658  1.2906 -1.2905 -0.0188
 5043TIP3    H236621   2.526   4.435   3.696 -1.9355 -0.9100 -0.0593
 5044TIP3   OH236622   3.644   0.545  11.397  0.2079 -0.0678  0.3251
 5044TIP3    H136623   3.617   0.616  11.455 -0.4901 -0.1882  0.1608
 5044TIP3    H236624   3.588   0.471  11.422  0.3952 -0.3306 -0.0191
 5045TIP3   OH236625   1.050   1.178  11.674 -1.0626 -0.0951 -0.0860
 5045TIP3    H136626   1.060   1.221  11.759 -1.7084 -0.8303  0.3848
 5045TIP3    H236627   1.135   1.138  11.657 -0.9985 -0.1530  0.3466
 5046TIP3   OH236628   1.346   6.641  14.672 -0.3315  0.0872 -0.0483
 5046TIP3    H136629   1.366   6.732  14.693  1.9560 -0.4238  0.2119
 5046TIP3    H236630   1.335   6.640  14.577 -1.4530  0.7814  0.0493
 5047TIP3   OH236631   1.656   6.499  13.254  0.0085 -0.4776  0.2714
 5047TIP3    H136632   1.746   6.505  13.221 -0.0326 -2.2651 -0.2611
 5047TIP3    H236633   1.666   6.489  13.349  0.3276  0.1480  0.3068
 5048TIP3   OH236634   2.800   3.467  15.790  0.4771 -0.1932 -0.2608
 5048TIP3    H136635   2.883   3.514  15.801 -0.7213  1.5594  2.2494
 5048TIP3    H236636   2.800   3.401  15.859 -1.0740  1.3013  1.2626
 5049TIP3   OH236637   3.801   3.666   1.010 -0.3539  0.0984 -0.1124
 5049TIP3    H136638   3.839   3.614   0.939  0.5102 -0.2178  0.5618
 5049TIP3    H236639   3.788   3.604   1.081  0.6588  0.7706  0.6948
 5050TIP3   OH236640   0.453   0.035  12.092  0.6982  0.3482  0.1814
 5050TIP3    H136641   0.396  -0.004  12.158 -2.5925  2.7685 -0.9275
 5050TIP3    H236642   0.474   0.122  12.126  1.6198  0.4330 -0.5674
 5051TIP3   OH236643   3.060   5.391  14.714 -0.0624  0.1578  0.2772
 5051TIP3    H136644   3.081   5.449  14.787  0.7681 -1.6733  1.5706
 5051TIP3    H236645   3.059   5.303  14.752 -1.3246 -0.7075 -1.5834
 5052TIP3   OH236646   2.102   4.791   3.005 -0.2863 -0.6905 -0.0888
 5052TIP3    H136647   2.017   4.751   2.990  0.8563 -3.5897  0.4571
 5052TIP3    H236648   2.146   4.787   2.920 -0.9774  1.7791 -0.6391
 5053TIP3   OH236649   5.971   0.755   1.807 -0.2353 -0.4001  0.3617
 5053TIP3    H136650   5.912   0.811   1.757 -0.5764  0.9857  2.2425
 5053TIP3    H236651   6.043   0.812   1.832 -0.3290 -0.9107  1.8887
 5054TIP3   OH236652   2.465   3.540  16.191  0.3271 -0.3996  0.4711
 5054TIP3    H136653   2.371   3.558  16.186  0.7532  1.8977 -0.9300
 5054TIP3    H236654   2.487   3.560  16.282 -0.2054  1.2137  0.2807
 5055TIP3   OH236655   3.435   2.505  14.702 -0.2719 -0.0502  0.8635
 5055TIP3    H136656   3.500   2.448  14.741 -0.4029  0.8716  2.5143
 5055TIP3    H236657   3.389   2.450  14.639  2.1787 -0.6925 -0.5295
 5056TIP3   OH236658   5.992   0.664  11.037  0.1029  0.7449 -0.5635
 5056TIP3    H136659   5.993   0.641  10.944 -2.9240  0.8811 -0.7018
 5056TIP3    H236660   5.993   0.579  11.083  1.1096  0.6707 -0.7014
 5057TIP3   OH236661   5.413   6.200   0.329 -0.5748 -0.4623  0.3159
 5057TIP3    H136662   5.327   6.202   0.286  0.4128  1.9805 -1.7996
 5057TIP3    H236663   5.465   6.140   0.276  0.3421  1.7754 -1.5003
 5058TIP3   OH236664   5.779   6.167   0.707  0.2823 -0.1360 -0.2902
 5058TIP3    H136665   5.785   6.094   0.646  0.2588  0.4278 -0.9714
 5058TIP3    H236666   5.718   6.228   0.667  0.4444  0.3514  0.1847
 5059TIP3   OH236667   6.745   2.636  13.447 -0.6886 -0.0147 -0.1053
 5059TIP3    H136668   6.837   2.635  13.421 -0.2685 -0.1827  1.3326
 5059TIP3    H236669   6.700   2.590  13.376  0.6813 -2.1576  0.3063
 5060TIP3   OH236670   6.483   2.098   3.250 -0.6357  0.5763 -0.3532
 5060TIP3    H136671   6.546   2.048   3.198 -1.0979 -0.3791 -0.0178
 5060TIP3    H236672   6.537   2.149   3.311 -0.1400  0.7953 -0.9733
 5061TIP3   OH236673   1.253   1.756   3.747 -0.2209  0.8566  0.0150
 5061TIP3    H136674   1.268   1.800   3.664 -1.2794  0.2015 -0.5388
 5061TIP3    H236675   1.175   1.800   3.783 -1.1095 -0.3174 -0.4025
 5062TIP3   OH236676   5.671   1.999  14.222  0.0422  0.3725 -0.6488
 5062TIP3    H136677   5.705   2.072  14.170 -3.1716  2.0284 -0.7004
 5062TIP3    H236678   5.677   1.923  14.165  0.7798  1.1903 -1.7064
 5063TIP3   OH236679   3.552   4.755  11.626 -0.4650 -0.3967  0.2033
 5063TIP3    H136680   3.508   4.731  11.708 -1.0274  0.2146  0.0952
 5063TIP3    H236681   3.507   4.835  11.598 -0.6557 -0.9045 -0.9973
 5064TIP3   OH236682   2.576   5.359  14.709 -0.0487 -0.4365 -0.2281
 5064TIP3    H136683   2.537   5.366  14.797 -0.8874  0.2183 -0.6434
 5064TIP3    H236684   2.618   5.272  14.709  0.9196 -0.0136  1.1884
 5065TIP3   OH236685   6.616   2.636  14.366  0.4375  0.5643  0.5723
 5065TIP3    H136686   6.599   2.675  14.452 -0.5426 -0.3791  0.8327
 5065TIP3    H236687   6.623   2.542  14.383 -2.3224  0.0319 -0.6481
 5066TIP3   OH236688   3.331   6.463   2.862 -0.3129 -0.6213  0.0530
 5066TIP3    H136689   3.381   6.541   2.886  0.3741 -0.4357 -1.8513
 5066TIP3    H236690   3.291   6.435   2.944 -1.5046  2.3445  0.6031
 5067TIP3   OH236691   0.022   1.831  11.340  0.1839 -0.3780 -0.3555
 5067TIP3    H136692   0.110   1.834  11.302  0.4129 -0.3384  0.1662
 5067TIP3    H236693   0.029   1.883  11.420  0.0307 -1.4843  0.3988
 5068TIP3   OH236694   3.152   6.457   4.418 -0.4980  0.6449 -0.5385
 5068TIP3    H136695   3.067   6.414   4.402 -0.1883  0.1089 -0.7776
 5068TIP3    H236696   3.202   6.393   4.467 -0.5221  1.2952  0.3566
 5069TIP3   OH236697   4.670   1.045   5.484 -0.2167  0.2779 -0.3608
 5069TIP3    H136698   4.596   1.106   5.491 -0.4477 -0.0908  0.6554
 5069TIP3    H236699   4.731   1.075   5.552  0.6242  0.6361 -1.2558
 5070TIP3   OH236700   5.164   2.524  13.866  0.0970 -0.5856  0.6472
 5070TIP3    H136701   5.190   2.614  13.887 -0.2795 -0.6612  1.4398
 5070TIP3    H236702   5.209   2.470  13.931 -0.3924 -0.8931  0.7314
 5071TIP3   OH236703   2.802   5.946   4.782  0.2678  0.0532 -0.4656
 5071TIP3    H136704   2.728   5.935   4.722  0.3893  0.3476 -0.6679
 5071TIP3    H236705   2.768   6.004   4.850  0.1025 -0.3497 -0.1954
 5072TIP3   OH236706   4.853   5.864  11.140 -0.3687  0.0801  0.4445
 5072TIP3    H136707   4.784   5.854  11.075 -1.9484 -0.0621  2.0488
 5072TIP3    H236708   4.929   5.893  11.091 -1.4965 -0.0076 -1.4379
 5073TIP3   OH236709   0.035   3.007  11.935 -0.4140  0.0339 -0.0573
 5073TIP3    H136710   0.042   2.925  11.984 -0.4993  1.2598  2.1318
 5073TIP3    H236711  -0.042   3.051  11.972  0.8586  2.0333  0.3355
 5074TIP3   OH236712   4.677   1.654  12.947  0.6629 -0.1505  0.1871
 5074TIP3    H136713   4.626   1.595  12.891 -0.0059  0.6671 -0.0823
 5074TIP3    H236714   4.743   1.692  12.889  1.2145 -0.7659  0.4035
 5075TIP3   OH236715   0.430   6.204  10.677  0.5570 -0.0332 -0.0555
 5075TIP3    H136716   0.519   6.206  10.712  1.2041 -0.7914 -1.5698
 5075TIP3    H236717   0.385   6.137  10.727  0.2196  1.6194  2.0088
 5076TIP3   OH236718   4.947   4.170  15.983  0.0502  0.2282  0.1078
 5076TIP3    H136719   4.968   4.151  15.891 -0.3005 -1.6094  0.3622
 5076TIP3    H236720   4.964   4.263  15.993  2.1399  0.0686 -1.2914
 5077TIP3   OH236721   2.495   1.719   1.574 -0.2949  0.3160  0.1236
 5077TIP3    H136722   2.560   1.726   1.644 -0.3559  1.2765  0.0962
 5077TIP3    H236723   2.417   1.762   1.609  0.2345  2.4647 -1.1727
 5078TIP3   OH236724   3.519   3.458   5.773 -0.1100  0.4826  0.3716
 5078TIP3    H136725   3.439   3.422   5.735 -0.0555  1.2817 -0.5345
 5078TIP3    H236726   3.542   3.396   5.842  0.4557 -1.7783 -1.6782
 5079TIP3   OH236727   1.239   6.577  12.921 -0.2447  0.5674 -0.1773
 5079TIP3    H136728   1.163   6.624  12.888  0.0335  1.1076 -0.0656
 5079TIP3    H236729   1.310   6.601  12.861  0.0679  0.8888  0.3139
 5080TIP3   OH236730   1.434   6.418  13.609 -0.6935 -0.2125 -0.1480
 5080TIP3    H136731   1.471   6.391  13.693 -2.1513 -0.4105  0.4614
 5080TIP3    H236732   1.506   6.463  13.565  0.0113  0.2051  1.3531
 5081TIP3   OH236733   6.648   2.659   3.190 -0.3422 -0.2230  0.7103
 5081TIP3    H136734   6.612   2.647   3.278 -0.7205 -0.5557  0.5112
 5081TIP3    H236735   6.575   2.639   3.131 -0.9267  2.5649  0.3373
 5082TIP3   OH236736   2.718   5.477   2.814 -0.2371  0.2084  0.2211
 5082TIP3    H136737   2.647   5.535   2.788 -0.8227  0.3204  1.8989
 5082TIP3    H236738   2.738   5.503   2.904  1.6409 -0.1253 -0.0590
 5083TIP3   OH236739   3.096   5.453  16.727  0.4029 -0.3645  0.2609
 5083TIP3    H136740   3.038   5.387  16.690  0.4854  0.0119 -0.5502
 5083TIP3    H236741   3.182   5.433  16.691  0.3560  0.4128 -0.3033
 5084TIP3   OH236742   1.163   1.491  12.393  0.4327 -0.4741 -0.1368
 5084TIP3    H136743   1.191   1.400  12.391  0.1206 -0.6224  1.3623
 5084TIP3    H236744   1.242   1.540  12.418  0.2262 -0.5200  0.6376
 5085TIP3   OH236745   4.736   2.784  15.618  0.4468  0.4269 -0.3722
 5085TIP3    H136746   4.755   2.828  15.701 -0.2390 -0.3171  0.2069
 5085TIP3    H236747   4.820   2.780  15.572  1.2547 -0.7571  1.0981
 5086TIP3   OH236748   1.797   2.095  14.005  0.1131 -0.1076 -1.1193
 5086TIP3    H136749   1.770   2.147  13.930 -0.5136 -0.1309 -0.9166
 5086TIP3    H236750   1.715   2.060  14.041  0.0573  2.1003  1.2202
 5087TIP3   OH236751   2.295   2.695  11.622  0.6610  0.3054  0.5929
 5087TIP3    H136752   2.369   2.750  11.596  1.4096 -1.6504 -1.9188
 5087TIP3    H236753   2.232   2.704  11.550 -0.4199  0.0034  1.4791
 5088TIP3   OH236754   1.417   1.046  14.959 -0.7291  0.2678 -0.3100
 5088TIP3    H136755   1.377   0.960  14.949  1.9154 -0.8902 -2.1833
 5088TIP3    H236756   1.504   1.036  14.921  0.0475  3.5308  0.3322
 5089TIP3   OH236757   2.582   5.832   3.104  0.1743  0.4531  0.0544
 5089TIP3    H136758   2.499   5.801   3.068 -0.2409  0.8554  0.6510
 5089TIP3    H236759   2.628   5.753   3.131 -1.2556  0.3489  2.4076
 5090TIP3   OH236760   1.381   5.815  12.282  0.0798  0.6042 -0.1131
 5090TIP3    H136761   1.340   5.735  12.249 -0.2259  0.2922  0.9924
 5090TIP3    H236762   1.429   5.850  12.206 -0.1243 -0.3929 -0.7265
 5091TIP3   OH236763   0.458   6.722  15.354 -0.0304 -0.0759 -0.5271
 5091TIP3    H136764   0.454   6.683  15.441  0.7954 -0.6026 -0.7154
 5091TIP3    H236765   0.534   6.779  15.357 -0.3756  0.3985 -0.7115
 5092TIP3   OH236766   6.374   2.529  13.802 -0.2382 -0.0112 -0.3883
 5092TIP3    H136767   6.383   2.438  13.772 -1.4669 -0.3672  0.2583
 5092TIP3    H236768   6.461   2.567  13.789  0.2730 -1.2548 -0.7494
 5093TIP3   OH236769   3.911   2.212   4.771 -0.3808 -0.3244 -0.0863
 5093TIP3    H136770   3.978   2.231   4.706 -2.4181  1.7356 -1.7725
 5093TIP3    H236771   3.890   2.297   4.810 -2.4556 -0.7425 -0.1399
 5094TIP3   OH236772   3.611   6.519  11.033 -0.5256  0.1141  0.5074
 5094TIP3    H136773   3.637   6.540  11.123 -1.6127  1.4045  0.5559
 5094TIP3    H236774   3.649   6.590  10.980  0.3962 -0.8209 -0.1133
 5095TIP3   OH236775   2.423   2.317   3.425 -0.5448  0.2456  0.5459
 5095TIP3    H136776   2.353   2.370   3.461  0.8290  1.9449  0.8696
 5095TIP3    H236777   2.503   2.361   3.454  0.6534  0.0038 -2.1140
 5096TIP3   OH236778   3.354   1.235   3.412  0.4459  0.2939  0.0646
 5096TIP3    H136779   3.341   1.327   3.438 -0.4506 -0.3860  2.2926
 5096TIP3    H236780   3.284   1.218   3.349 -1.5546  0.2996  2.1507
 5097TIP3   OH236781   1.815   4.744   2.303  0.4208  0.0477 -0.2121
 5097TIP3    H136782   1.874   4.791   2.363 -1.0229  0.9264  0.5837
 5097TIP3    H236783   1.768   4.813   2.257  0.3003 -0.6351 -1.1370
 5098TIP3   OH236784   6.765   5.269  14.504  0.5579  0.0358  0.5132
 5098TIP3    H136785   6.757   5.361  14.533 -0.0300 -0.6049  2.5767
 5098TIP3    H236786   6.859   5.254  14.498  0.6583  0.8087  0.0229
 5099TIP3   OH236787   6.254   3.870   5.998  0.4228  0.0536 -0.1643
 5099TIP3    H136788   6.199   3.794   6.016  0.9949 -1.1155 -2.8306
 5099TIP3    H236789   6.332   3.856   6.052 -0.7896  0.4779  1.7912
 5100TIP3   OH236790   5.812   1.745   5.565 -0.1327  0.3881 -0.1232
 5100TIP3    H136791   5.884   1.743   5.502  1.1266 -1.5986  1.2700
 5100TIP3    H236792   5.809   1.836   5.594  1.3399  0.6791 -0.7803
 5101TIP3   OH236793   3.534   6.398   0.632  0.4087  0.1779  0.2762
 5101TIP3    H136794   3.443   6.385   0.606  1.0899 -0.8898 -1.7616
 5101TIP3    H236795   3.559   6.315   0.673  1.2675 -0.6663 -1.8331
 5102TIP3   OH236796   1.414   0.745   2.173  0.0056  0.4392 -0.8859
 5102TIP3    H136797   1.368   0.783   2.249  1.0603 -0.8712  0.4744
 5102TIP3    H236798   1.500   0.787   2.174  0.5266 -0.5902 -0.4675
 5103TIP3   OH236799   0.413   6.529   0.313 -0.1693 -0.8094 -0.2960
 5103TIP3    H136800   0.390   6.474   0.238 -0.3028 -1.5649  0.2888
 5103TIP3    H236801   0.344   6.595   0.317 -0.2166 -0.8282 -0.7678
 5104TIP3   OH236802   5.794   1.980  10.838 -0.2629  0.2433 -0.1130
 5104TIP3    H136803   5.779   2.006  10.747  0.0805  0.6548 -0.0554
 5104TIP3    H236804   5.882   2.010  10.858 -0.7957  1.3178  0.7515
 5105TIP3   OH236805   1.880   6.481   1.973 -0.4211 -0.2235  0.2699
 5105TIP3    H136806   1.828   6.551   1.931  1.4062  0.2096 -1.4028
 5105TIP3    H236807   1.874   6.501   2.067 -2.3017  0.4592  0.0620
 5106TIP3   OH236808   3.591   2.348   4.099  0.4872  0.3079 -0.1623
 5106TIP3    H136809   3.580   2.362   4.005  0.4932 -0.1479 -0.2298
 5106TIP3    H236810   3.570   2.433   4.138  1.0147  0.6567 -0.6128
 5107TIP3   OH236811   6.346   2.546  16.583  0.1603  0.1928 -0.8416
 5107TIP3    H136812   6.361   2.535  16.490  0.1082 -0.1696 -0.8076
 5107TIP3    H236813   6.386   2.470  16.624  0.3544  0.4480 -0.5517
 5108TIP3   OH236814   5.773   0.223   4.882 -0.7759  0.4977  0.0560
 5108TIP3    H136815   5.722   0.302   4.862 -0.8481  0.9057  1.6785
 5108TIP3    H236816   5.708   0.161   4.916 -0.3894  0.5582  0.9202
 5109TIP3   OH236817   6.148   4.681  12.800 -0.0843 -0.0988  0.3488
 5109TIP3    H136818   6.205   4.737  12.852 -0.7650  0.3557  0.6237
 5109TIP3    H236819   6.060   4.701  12.831 -0.2774 -2.4897  1.6391
 5110TIP3   OH236820   2.814   2.168   2.532 -0.0959  0.3488 -0.0732
 5110TIP3    H136821   2.762   2.109   2.476  0.1716 -1.8281  1.8386
 5110TIP3    H236822   2.749   2.213   2.586 -0.1710 -2.0065  1.9666
 5111TIP3   OH236823   4.027   6.219   0.042  0.1694 -0.0888  0.4445
 5111TIP3    H136824   4.031   6.215   0.137  1.3976 -0.0060  0.4050
 5111TIP3    H236825   3.934   6.206   0.022 -0.7076  3.0432  1.7833
 5112TIP3   OH236826   5.597   0.809  15.202 -0.0959  0.8743 -0.1751
 5112TIP3    H136827   5.505   0.795  15.222 -0.4052 -0.0175 -1.9907
 5112TIP3    H236828   5.618   0.893  15.243 -1.7264  1.1320  0.2038
 5113TIP3   OH236829   5.919   2.253   1.825 -0.7572 -0.0417 -0.3540
 5113TIP3    H136830   5.988   2.267   1.890 -1.3851 -1.1022  0.5600
 5113TIP3    H236831   5.840   2.237   1.876 -1.5009  0.2007 -1.3886
 5114TIP3   OH236832   5.620   4.499  14.948 -0.1569 -0.6769 -0.2199
 5114TIP3    H136833   5.528   4.507  14.973  0.0928  3.0857  0.1353
 5114TIP3    H236834   5.622   4.528  14.857  0.6830 -0.3003 -0.0915
 5115TIP3   OH236835   4.160   1.451  12.394  0.0323 -0.2624  0.0275
 5115TIP3    H136836   4.193   1.399  12.467  1.2842 -1.7942 -1.5583
 5115TIP3    H236837   4.151   1.389  12.322 -0.1178  1.3879 -1.4449
 5116TIP3   OH236838   4.214   0.184   5.025 -0.1660  0.0876 -0.2279
 5116TIP3    H136839   4.228   0.246   4.954 -0.4962 -0.5273 -0.8451
 5116TIP3    H236840   4.164   0.232   5.090 -0.7785  0.3495 -0.8823
 5117TIP3   OH236841   3.967   2.916   0.810 -0.0664  0.1350  0.0543
 5117TIP3    H136842   3.938   2.935   0.721 -2.0071 -1.8713  0.1726
 5117TIP3    H236843   4.006   2.998   0.840 -1.5795  1.6440 -1.7842
 5118TIP3   OH236844   3.241   1.373  14.472  0.1695 -0.2370  0.5458
 5118TIP3    H136845   3.319   1.349  14.422 -0.1024 -1.1324  0.5422
 5118TIP3    H236846   3.240   1.312  14.546  0.2911  0.7451  1.3842
 5119TIP3   OH236847   5.561   6.109  14.586  0.1939 -0.4576 -0.3591
 5119TIP3    H136848   5.528   6.039  14.642 -0.3068  1.4603  1.8955
 5119TIP3    H236849   5.494   6.119  14.519 -0.2520 -1.4165 -0.0695
 5120TIP3   OH236850   6.370   3.395   3.372  0.1522  0.3471  0.1042
 5120TIP3    H136851   6.451   3.431   3.407 -0.4362  0.6799  1.1951
 5120TIP3    H236852   6.304   3.414   3.440 -0.8057 -0.0264 -0.6908
 5121TIP3   OH236853   6.623   0.123  11.931  0.3845  0.3820 -0.5930
 5121TIP3    H136854   6.661   0.122  11.844 -0.3118 -0.8368 -0.8991
 5121TIP3    H236855   6.583   0.037  11.942  0.0771  0.6628  0.7612
 5122TIP3   OH236856   4.144   5.155  13.653 -0.3994  0.3879  0.3118
 5122TIP3    H136857   4.211   5.100  13.692 -1.7285 -1.4847  0.0979
 5122TIP3    H236858   4.175   5.171  13.564 -0.0977 -0.2189  0.3026
 5123TIP3   OH236859   5.084   0.489  12.306 -0.2209  0.4014  0.2718
 5123TIP3    H136860   5.122   0.539  12.379 -0.2965 -2.5125  2.5079
 5123TIP3    H236861   5.158   0.463  12.252  0.3044 -0.3138  1.3092
 5124TIP3   OH236862   0.588   6.376  12.784  0.0964 -0.6340 -0.1845
 5124TIP3    H136863   0.626   6.296  12.747  1.0509 -0.0547 -0.4768
 5124TIP3    H236864   0.656   6.442  12.774  0.6779 -0.5580  3.1906
 5125TIP3   OH236865   5.486   1.471   1.632 -0.1127  0.1377  0.4121
 5125TIP3    H136866   5.561   1.412   1.633 -0.5194 -0.4143 -0.5516
 5125TIP3    H236867   5.413   1.418   1.664 -0.6560 -0.1564 -1.2398
 5126TIP3   OH236868   5.003   3.307  11.382  0.0671 -0.3789 -0.3660
 5126TIP3    H136869   4.924   3.271  11.343 -1.8357  1.3425  1.6273
 5126TIP3    H236870   5.009   3.265  11.468  1.6684 -0.8937 -0.6953
 5127TIP3   OH236871   5.277   5.675   0.663 -0.0287 -0.8345 -0.8606
 5127TIP3    H136872   5.365   5.657   0.698 -1.0157 -0.1355  2.2628
 5127TIP3    H236873   5.266   5.769   0.673 -1.4539 -1.0407 -0.3259
 5128TIP3   OH236874   4.909   1.111  11.345 -0.0723  0.4129 -0.3206
 5128TIP3    H136875   4.883   1.019  11.346  0.8139  0.1426  0.8375
 5128TIP3    H236876   4.826   1.159  11.344 -1.0026 -0.3824  5.1435
 5129TIP3   OH236877   4.893   6.536   0.582  0.5345  0.4462 -0.2107
 5129TIP3    H136878   4.879   6.623   0.545 -1.3321  1.1589  1.8998
 5129TIP3    H236879   4.883   6.549   0.677 -1.8262 -2.3672  0.0658
 5130TIP3   OH236880   4.519   0.013   2.898 -0.0630 -0.5069  0.0382
 5130TIP3    H136881   4.501   0.100   2.863  1.1352  0.1649  0.9998
 5130TIP3    H236882   4.434  -0.019   2.927 -0.6507 -0.0211 -1.0800
 5131TIP3   OH236883   1.603   1.592  15.842 -0.5076  0.3488  0.3981
 5131TIP3    H136884   1.635   1.507  15.811  0.9046  0.7152  0.7578
 5131TIP3    H236885   1.622   1.652  15.770 -0.6620  0.5185  0.4981
 5132TIP3   OH236886   3.999   2.694   0.167 -0.3058 -0.2346  0.2879
 5132TIP3    H136887   3.913   2.710   0.127  0.1319  0.7474 -0.3050
 5132TIP3    H236888   4.039   2.627   0.111 -1.1926 -1.7027  1.3533
 5133TIP3   OH236889   4.097   0.289  12.189 -0.5537 -0.3845 -0.4992
 5133TIP3    H136890   4.160   0.357  12.216 -1.2840  1.4997 -3.1395
 5133TIP3    H236891   4.012   0.331  12.196 -1.6311 -2.7191  2.4550
 5134TIP3   OH236892   2.001   1.059  14.286  0.1149 -0.1585  0.0146
 5134TIP3    H136893   1.990   1.030  14.195 -0.8628  0.0840  0.0533
 5134TIP3    H236894   1.963   0.988  14.338  0.4722 -0.1920  0.2348
 5135TIP3   OH236895   0.837   2.346   3.583  0.1836  0.2749 -0.1131
 5135TIP3    H136896   0.878   2.315   3.664  2.4145  1.5359 -0.6665
 5135TIP3    H236897   0.861   2.280   3.518 -0.2185  0.0953 -0.0809
 5136TIP3   OH236898   0.090   0.117   4.821 -0.5314 -0.1381  0.5119
 5136TIP3    H136899   0.140   0.165   4.888  2.4448 -0.1571 -1.5287
 5136TIP3    H236900  -0.001   0.140   4.840  0.2220  0.7652  3.8289
 5137TIP3   OH236901   1.577   2.750   4.829 -0.2196  0.3120 -0.3486
 5137TIP3    H136902   1.588   2.656   4.816 -1.6177 -0.1113  1.1252
 5137TIP3    H236903   1.524   2.779   4.754  0.0853 -0.0945 -0.7243
 5138TIP3   OH236904   3.045   4.888   2.422  0.4937 -0.4769 -0.5733
 5138TIP3    H136905   3.001   4.904   2.338  0.0141 -0.6614 -0.3591
 5138TIP3    H236906   3.082   4.800   2.413  0.1547 -0.6315 -0.4698
 5139TIP3   OH236907   0.596   1.511   1.664 -0.0122 -0.2492 -0.1586
 5139TIP3    H136908   0.615   1.551   1.580 -2.5579  0.0261 -0.6971
 5139TIP3    H236909   0.522   1.561   1.699  0.2307 -1.0757  1.7158
 5140TIP3   OH236910   4.108   4.848   3.522  0.1342  0.0597  0.3981
 5140TIP3    H136911   4.065   4.802   3.449 -0.3760 -0.2409  0.8777
 5140TIP3    H236912   4.041   4.852   3.590  0.7608 -0.1095  1.0355
 5141TIP3   OH236913   3.474   4.708   5.114  0.3587  0.2797  0.2714
 5141TIP3    H136914   3.431   4.734   5.195  0.2013  0.4595  0.1305
 5141TIP3    H236915   3.567   4.698   5.138  0.5896  1.8892  0.1255
 5142TIP3   OH236916   6.748   6.668  11.890 -0.0645  0.4862 -0.3720
 5142TIP3    H136917   6.793   6.748  11.864 -0.0479  0.1975 -1.2514
 5142TIP3    H236918   6.683   6.698  11.954 -0.2631  1.2498 -0.9142
 5143TIP3   OH236919   2.894   2.772  14.030 -0.2915 -0.7906  0.1338
 5143TIP3    H136920   2.853   2.713  13.967 -1.8073 -0.4141  0.7378
 5143TIP3    H236921   2.984   2.782  13.998 -0.6275 -1.7060 -1.1742
 5144TIP3   OH236922   4.740   0.378   5.624  0.1338  0.6568 -0.4510
 5144TIP3    H136923   4.707   0.290   5.642 -0.3883  0.9367 -0.0191
 5144TIP3    H236924   4.705   0.432   5.695  0.2774  1.2573 -0.8277
 5145TIP3   OH236925   2.668   5.980   1.389  0.4407  0.0977  0.4034
 5145TIP3    H136926   2.638   5.990   1.479 -1.0472 -1.7340  0.1605
 5145TIP3    H236927   2.591   5.949   1.341  1.0052  1.6242 -1.6616
 5146TIP3   OH236928   0.175   5.768  16.007  0.1655  0.2871 -0.0084
 5146TIP3    H136929   0.232   5.801  15.936  0.0227 -2.0584 -1.3278
 5146TIP3    H236930   0.226   5.782  16.087  1.3264  0.9199 -0.8260
 5147TIP3   OH236931   3.120   6.782   0.802 -0.4590 -0.1077  0.2263
 5147TIP3    H136932   3.086   6.778   0.712 -0.6137  0.1505  0.2714
 5147TIP3    H236933   3.208   6.744   0.796 -0.8995 -1.1313  0.1884
 5148TIP3   OH236934   5.443   3.854   6.470 -0.1744  0.0238  0.0394
 5148TIP3    H136935   5.363   3.801   6.464 -1.0608  1.0785  1.5604
 5148TIP3    H236936   5.414   3.943   6.451  0.1987  0.7195  2.4035
 5149TIP3   OH236937   2.879   3.316   3.486  0.0120 -0.2428  0.3595
 5149TIP3    H136938   2.883   3.347   3.577  1.5642  0.5053  0.0733
 5149TIP3    H236939   2.968   3.288   3.466 -0.4572 -1.0262 -0.7321
 5150TIP3   OH236940   6.031   6.183  13.240  0.3763  0.4248  0.3937
 5150TIP3    H136941   6.077   6.117  13.189 -0.3100 -1.7483  2.4243
 5150TIP3    H236942   5.939   6.169  13.220  0.2802  3.6490 -2.3506
 5151TIP3   OH236943   1.136   1.949   5.442 -0.3046 -0.4479 -0.7785
 5151TIP3    H136944   1.171   2.020   5.496  0.8210 -1.5859  0.0393
 5151TIP3    H236945   1.061   1.916   5.493  1.3801 -2.2127  0.7281
 5152TIP3   OH236946   5.256   0.074  14.280  0.4351 -0.5488  0.1780
 5152TIP3    H136947   5.230   0.146  14.223  1.9080 -0.8373 -0.9196
 5152TIP3    H236948   5.274   0.002  14.220  0.6827 -1.2934  1.1286
 5153TIP3   OH236949   3.246   3.738   1.447 -0.0234  0.8290 -0.4958
 5153TIP3    H136950   3.327   3.787   1.460  0.2185  0.9938 -2.3511
 5153TIP3    H236951   3.177   3.805   1.445 -0.1805  0.7224  0.7032
 5154TIP3   OH236952   4.375   2.090  14.879  0.2346  0.5498  0.7310
 5154TIP3    H136953   4.292   2.055  14.847  0.9663  1.2124 -2.1153
 5154TIP3    H236954   4.365   2.185  14.875  1.0630  0.6359  0.5759
 5155TIP3   OH236955   0.993   6.749   0.496 -0.4760  0.2759 -0.3641
 5155TIP3    H136956   0.948   6.680   0.544 -1.1967  1.0950  0.1794
 5155TIP3    H236957   1.086   6.726   0.502 -0.7145 -0.6950 -0.2895
 5156TIP3   OH236958   3.214   5.452   2.082  0.1100 -0.4549  0.0053
 5156TIP3    H136959   3.184   5.470   2.171 -0.1162 -0.0113 -0.1585
 5156TIP3    H236960   3.301   5.415   2.093 -1.2344 -3.8176  0.6459
 5157TIP3   OH236961   1.890   3.938  15.407  0.0941 -0.2604  0.6244
 5157TIP3    H136962   1.927   3.991  15.337 -0.2802 -1.4235 -0.4975
 5157TIP3    H236963   1.960   3.932  15.472  0.9481 -0.2574 -0.2622
 5158TIP3   OH236964   0.628   3.256   1.650  0.2340  0.3164 -0.0921
 5158TIP3    H136965   0.668   3.174   1.623  0.0113  0.4877 -0.9445
 5158TIP3    H236966   0.580   3.234   1.730  0.2408 -0.3544 -0.2707
 5159TIP3   OH236967   0.532   1.122  12.910  0.0460  0.3863 -0.3796
 5159TIP3    H136968   0.540   1.070  12.990  2.1157  0.3065 -0.5836
 5159TIP3    H236969   0.592   1.079  12.848 -0.3436  1.3659 -1.4574
 5160TIP3   OH236970   6.778   4.354   0.553 -0.3532 -0.4173  0.6121
 5160TIP3    H136971   6.710   4.288   0.565 -1.0378  0.3381  0.9807
 5160TIP3    H236972   6.818   4.333   0.469 -1.5651 -0.4237  0.0239
 5161TIP3   OH236973   3.061   1.633  11.823  0.1131  0.0429 -0.4058
 5161TIP3    H136974   3.067   1.655  11.730 -1.2491  2.1063 -0.0784
 5161TIP3    H236975   3.151   1.615  11.850  0.8179  1.4116 -1.6978
 5162TIP3   OH236976   6.661   3.658  16.543 -0.3718  0.0650  0.2091
 5162TIP3    H136977   6.737   3.679  16.488 -0.4587 -0.0163  0.0587
 5162TIP3    H236978   6.610   3.739  16.544 -0.7133 -0.1370 -0.3863
 5163TIP3   OH236979   3.665   2.656   5.674  0.7693 -0.6667 -0.3898
 5163TIP3    H136980   3.665   2.692   5.585 -0.8231  1.6852  0.4529
 5163TIP3    H236981   3.580   2.613   5.682 -0.4299  1.7167  0.8259
 5164TIP3   OH236982   6.220   6.260  15.921 -0.4005  0.4868 -0.0247
 5164TIP3    H136983   6.130   6.293  15.921 -0.5653  0.1165  1.5097
 5164TIP3    H236984   6.227   6.209  16.002  0.6677 -0.9887 -0.9902
 5165TIP3   OH236985   3.850   4.315  16.208  0.3108 -0.3955 -0.3496
 5165TIP3    H136986   3.841   4.341  16.117  2.9864 -0.6283 -0.7437
 5165TIP3    H236987   3.937   4.275  16.214 -0.6727 -2.4841  1.8315
 5166TIP3   OH236988   1.263   4.505   1.380 -0.2073 -0.5576 -0.2483
 5166TIP3    H136989   1.192   4.566   1.362 -0.1656 -0.7136 -0.9699
 5166TIP3    H236990   1.320   4.511   1.303  0.8691 -0.0043  0.5805
 5167TIP3   OH236991   5.890   0.779  12.823 -0.2122  0.4452  0.3879
 5167TIP3    H136992   5.964   0.721  12.804 -0.5611 -0.2714  1.1471
 5167TIP3    H236993   5.855   0.801  12.736 -1.9770 -3.0167  0.0093
 5168TIP3   OH236994   2.979   3.784  13.789  0.1519  0.6991 -0.0713
 5168TIP3    H136995   2.978   3.875  13.760  0.8408  0.8445  0.3420
 5168TIP3    H236996   3.071   3.759  13.786 -0.0423 -0.0229 -0.2905
 5169TIP3   OH236997   6.777   3.954  10.882  0.0407 -0.1214  0.0328
 5169TIP3    H136998   6.732   3.915  10.807 -0.5181 -1.8327  1.1819
 5169TIP3    H236999   6.739   4.041  10.890  0.5070  0.3188 -1.9649
 5170TIP3   OH237000   1.992   0.997   4.822 -0.3517 -0.3648  0.0099
 5170TIP3    H137001   1.913   0.948   4.799 -0.5367 -1.1049  1.9887
 5170TIP3    H237002   2.015   1.045   4.743 -1.9320 -1.2865 -1.0612
 5171TIP3   OH237003   2.679   6.430   3.216 -0.0906 -0.3046  0.1680
 5171TIP3    H137004   2.766   6.421   3.255 -0.4026 -0.9936  0.7358
 5171TIP3    H237005   2.671   6.355   3.157  0.2199  0.5108 -0.9309
 5172TIP3   OH237006   2.498   3.271  16.147  0.4984  0.0663  0.8179
 5172TIP3    H137007   2.508   3.246  16.239  1.3131  0.0427  0.7333
 5172TIP3    H237008   2.496   3.366  16.147  0.6267  0.0695  0.8557
 5173TIP3   OH237009   4.740   5.041  13.070 -0.1921  0.3649 -0.4013
 5173TIP3    H137010   4.834   5.058  13.069  0.0042 -0.2726  1.6405
 5173TIP3    H237011   4.730   4.958  13.023  0.4159 -0.0688  0.2140
 5174TIP3   OH237012   4.657   0.554   5.833  0.2347  0.4064 -0.3016
 5174TIP3    H137013   4.690   0.557   5.923 -0.3795  0.9493 -0.0917
 5174TIP3    H237014   4.564   0.534   5.842  0.5609 -1.6533 -0.9150
 5175TIP3   OH237015   0.789   5.714  12.130 -0.0396 -0.0575  0.0006
 5175TIP3    H137016   0.760   5.676  12.213  0.7792  0.8999  0.7663
 5175TIP3    H237017   0.880   5.685  12.122  0.0979  0.4268 -0.2085
 5176TIP3   OH237018   0.842   0.328  11.788  0.0032  0.5146 -0.2959
 5176TIP3    H137019   0.893   0.388  11.843 -1.7147  0.5958  1.2953
 5176TIP3    H237020   0.760   0.375  11.771 -2.3242 -2.0031  2.7795
 5177TIP3   OH237021   4.710   2.039   3.655  0.1709 -0.3727  0.2100
 5177TIP3    H137022   4.797   2.001   3.665  0.3477  0.2746  1.1551
 5177TIP3    H237023   4.650   1.967   3.674  0.4947 -0.6314  0.2531
 5178TIP3   OH237024   4.634   6.086   6.141  0.2441  0.7833 -1.0930
 5178TIP3    H137025   4.651   6.093   6.235 -1.2143  0.3781 -0.7827
 5178TIP3    H237026   4.560   6.145   6.125 -2.4808 -2.3714 -1.1210
 5179TIP3   OH237027   2.613   0.755   3.716  0.5640 -0.8021  0.1245
 5179TIP3    H137028   2.539   0.694   3.714 -0.8988  0.9066 -0.6235
 5179TIP3    H237029   2.618   0.789   3.627  2.4686 -1.0630  0.0855
 5180TIP3   OH237030   4.207   5.865   0.439  0.0854 -0.1712  0.0123
 5180TIP3    H137031   4.213   5.770   0.442 -0.6127 -0.2018  0.5043
 5180TIP3    H237032   4.165   5.883   0.355  0.0167 -0.3043  0.0179
 5181TIP3   OH237033   5.690   3.911   4.547  0.1669 -0.1705 -0.6911
 5181TIP3    H137034   5.745   3.844   4.506 -0.1046 -0.8230 -0.0223
 5181TIP3    H237035   5.618   3.861   4.587  0.7830  0.3365  1.1681
 5182TIP3   OH237036   0.786   2.179   0.308  0.1605 -0.3667 -0.1596
 5182TIP3    H137037   0.861   2.123   0.293 -0.2888 -1.1213  0.3755
 5182TIP3    H237038   0.820   2.268   0.297  0.6922 -0.7376 -1.8605
 5183TIP3   OH237039   0.941   6.435  15.440 -0.1661 -0.5927 -0.2719
 5183TIP3    H137040   1.021   6.485  15.425 -1.1391  0.7466 -1.2294
 5183TIP3    H237041   0.871   6.499  15.433 -1.3458 -1.7401  0.5259
 5184TIP3   OH237042   4.553   6.815   1.025  0.1517  0.1847  0.1661
 5184TIP3    H137043   4.513   6.745   1.076  0.2025  0.8320  1.1246
 5184TIP3    H237044   4.571   6.775   0.940 -1.6323 -0.4034  0.0117
 5185TIP3   OH237045   3.277   1.290  10.476 -0.4509  0.1188 -0.3090
 5185TIP3    H137046   3.360   1.284  10.522 -0.1299 -0.7476 -0.9677
 5185TIP3    H237047   3.275   1.379  10.442  1.5155 -0.5956 -2.5926
 5186TIP3   OH237048   2.743   5.579   4.284 -0.1663  0.8139  0.4071
 5186TIP3    H137049   2.677   5.578   4.353 -1.6361  1.0235 -0.9263
 5186TIP3    H237050   2.693   5.582   4.202  1.4095 -1.7221 -0.8059
 5187TIP3   OH237051   4.431   3.080   2.838  0.1789 -0.3801 -0.2629
 5187TIP3    H137052   4.349   3.129   2.830 -0.2440 -0.9415  0.5033
 5187TIP3    H237053   4.499   3.145   2.822 -0.3651  0.4684  0.7582
 5188TIP3   OH237054   5.128   3.417  16.313 -0.8358 -0.8146 -0.2960
 5188TIP3    H137055   5.096   3.506  16.332  1.4289  0.2954 -1.2515
 5188TIP3    H237056   5.101   3.401  16.223 -1.5560 -1.3029 -0.0102
 5189TIP3   OH237057   3.113   1.511   2.340 -0.0047 -0.1957 -0.5622
 5189TIP3    H137058   3.088   1.564   2.264  1.1230  0.5471 -0.4490
 5189TIP3    H237059   3.147   1.574   2.403  0.2768 -0.9357  0.0432
 5190TIP3   OH237060   2.711   5.781  10.351  0.4593  0.0148  0.1281
 5190TIP3    H137061   2.672   5.694  10.355 -0.8983  0.6047  0.3022
 5190TIP3    H237062   2.792   5.773  10.402  0.0858 -1.0154  0.5929
 5191TIP3   OH237063   2.289   2.813  11.297 -0.7483 -0.2660 -0.9557
 5191TIP3    H137064   2.361   2.836  11.239 -0.2922 -1.8747 -1.0926
 5191TIP3    H237065   2.212   2.853  11.258 -0.4429 -1.2518 -2.6690
 5192TIP3   OH237066   5.696   3.888   2.238  0.3049  0.0354 -0.0456
 5192TIP3    H137067   5.654   3.891   2.152 -0.6027  1.0500  0.4108
 5192TIP3    H237068   5.690   3.977   2.271  1.6037 -0.1073  0.6345
 5193TIP3   OH237069   3.839   6.836   2.600  0.4664 -0.6881  0.6688
 5193TIP3    H137070   3.848   6.762   2.540 -1.7737 -2.2970  2.1451
 5193TIP3    H237071   3.834   6.912   2.543 -1.8184 -2.1690 -1.2926
 5194TIP3   OH237072   1.191   5.791  11.941  0.2040  0.3509  0.2095
 5194TIP3    H137073   1.138   5.850  11.995 -0.5442 -0.2665  0.1677
 5194TIP3    H237074   1.224   5.726  12.003  0.8659  0.6882  0.2212
 5195TIP3   OH237075   1.050   4.216   1.253 -0.2840  0.1792 -0.0072
 5195TIP3    H137076   1.123   4.193   1.312  1.4382  2.9886 -0.8437
 5195TIP3    H237077   1.080   4.189   1.167 -1.2839 -0.7381 -0.0848
 5196TIP3   OH237078   5.823   3.754   4.356  0.0164 -0.0079 -0.6159
 5196TIP3    H137079   5.888   3.810   4.315  2.5546 -0.3573  2.5525
 5196TIP3    H237080   5.863   3.667   4.356 -0.1402 -0.1484  1.8117
 5197TIP3   OH237081   0.540   2.242  10.324  0.2824 -0.1305 -0.9615
 5197TIP3    H137082   0.450   2.212  10.309  0.7410 -1.8219 -0.6359
 5197TIP3    H237083   0.571   2.269  10.238 -0.8516  1.4923 -0.8990
 5198TIP3   OH237084   1.811   6.618  16.837  0.2485 -0.1666  0.0482
 5198TIP3    H137085   1.846   6.530  16.846  1.0155 -0.1282 -1.9447
 5198TIP3    H237086   1.749   6.627  16.909  0.1290 -2.3324  0.2790
 5199TIP3   OH237087   3.697   3.599  15.669 -0.1827 -0.5737 -0.2084
 5199TIP3    H137088   3.621   3.559  15.710 -0.8071  1.7044  1.0117
 5199TIP3    H237089   3.770   3.542  15.694 -0.9574 -0.7712  1.7556
 5200TIP3   OH237090   0.100   2.534   0.848 -0.7827  0.4791  0.7841
 5200TIP3    H137091   0.145   2.530   0.932 -2.3493  1.2618  1.7080
 5200TIP3    H237092   0.108   2.625   0.820  3.3050 -0.4950 -2.0686
 5201TIP3   OH237093   4.212   4.338   3.808 -0.2233 -0.3395  0.1365
 5201TIP3    H137094   4.133   4.388   3.787 -0.4672 -0.3866  0.9037
 5201TIP3    H237095   4.274   4.405   3.840 -0.1521 -0.3805  0.0855
 5202TIP3   OH237096   6.446   5.113   5.656 -0.1795 -0.3790 -0.3491
 5202TIP3    H137097   6.398   5.033   5.635 -0.6998 -0.5955  1.4329
 5202TIP3    H237098   6.532   5.082   5.685 -0.8596 -0.4918  1.7589
 5203TIP3   OH237099   0.274   3.461  16.091 -0.1774  0.4975 -0.1462
 5203TIP3    H137100   0.283   3.556  16.092 -3.6247  0.9533  0.8964
 5203TIP3    H237101   0.261   3.439  15.998 -1.3971  1.3604 -0.2074
 5204TIP3   OH237102   1.699   2.721   1.156  0.2393 -0.1138 -0.0325
 5204TIP3    H137103   1.663   2.768   1.081  1.9905  1.2925 -0.0623
 5204TIP3    H237104   1.794   2.723   1.143  0.6766  0.9183  2.5921
 5205TIP3   OH237105   4.464   6.735  15.682  0.4652 -0.3571  0.3494
 5205TIP3    H137106   4.502   6.674  15.618  0.1856 -1.7250  1.4513
 5205TIP3    H237107   4.393   6.778  15.634  0.9875 -0.5151 -0.5958
 5206TIP3   OH237108   3.122   5.410   3.804 -0.4541 -0.3970  0.4016
 5206TIP3    H137109   3.100   5.369   3.720  0.4379  1.1714 -0.6627
 5206TIP3    H237110   3.157   5.338   3.857 -0.3989 -1.3125 -0.8130
 5207TIP3   OH237111   0.716   5.075  12.802  0.0971 -0.0402 -0.1033
 5207TIP3    H137112   0.709   5.016  12.726 -1.3268  0.7525 -0.6309
 5207TIP3    H237113   0.631   5.069  12.844  0.9210 -0.5859  1.5801
 5208TIP3   OH237114   5.927   5.458  17.109  0.3516  0.0149 -0.5655
 5208TIP3    H137115   5.936   5.382  17.051  1.3149 -2.0405  2.0687
 5208TIP3    H237116   5.846   5.443  17.157 -0.2983  1.5536 -1.1023
 5209TIP3   OH237117   5.824   3.980   6.758  0.0568 -0.4196  0.7158
 5209TIP3    H137118   5.774   3.978   6.677  0.3446 -2.5364  0.5294
 5209TIP3    H237119   5.765   4.019   6.823 -0.7259 -0.1298 -0.1595
 5210TIP3   OH237120   2.011   5.955  14.587  0.2575 -0.0958 -0.0215
 5210TIP3    H137121   1.970   6.035  14.620  0.7699  0.6731 -1.1987
 5210TIP3    H237122   1.949   5.923  14.521  1.1520  0.6734 -1.2818
 5211TIP3   OH237123   6.615   3.818   2.913 -0.1857  1.4300 -0.1922
 5211TIP3    H137124   6.711   3.814   2.913 -0.2101 -0.4520  0.1623
 5211TIP3    H237125   6.591   3.819   2.821  0.2014 -3.9789 -0.6666
 5212TIP3   OH237126   2.557   3.533   1.411  0.2379 -0.0679  0.3431
 5212TIP3    H137127   2.545   3.447   1.451 -1.9425  0.7565  1.6710
 5212TIP3    H237128   2.630   3.522   1.351  1.3916 -2.2983  2.0021
 5213TIP3   OH237129   4.115   2.567  16.040  0.4241 -0.1648  0.1662
 5213TIP3    H137130   4.164   2.544  15.961  1.0480 -1.0541  0.8020
 5213TIP3    H237131   4.151   2.511  16.108 -0.0012  0.7092  1.1282
 5214TIP3   OH237132   2.238   0.909   4.366  0.1616  0.1916 -0.1440
 5214TIP3    H137133   2.299   0.835   4.370 -2.0174 -1.6853  2.0816
 5214TIP3    H237134   2.254   0.958   4.447 -2.9346 -1.9879  2.0342
 5215TIP3   OH237135   1.484   4.210   2.646  0.3550 -0.1068 -0.1148
 5215TIP3    H137136   1.475   4.196   2.552 -1.0062  0.9243 -0.1616
 5215TIP3    H237137   1.562   4.265   2.655  1.9258 -2.1445 -0.4059
 5216TIP3   OH237138   3.605   4.695   3.053 -0.1983  0.1048 -0.2770
 5216TIP3    H137139   3.546   4.620   3.064 -2.1692  1.5954 -0.1904
 5216TIP3    H237140   3.575   4.737   2.973 -0.7142  2.1239  0.9121
 5217TIP3   OH237141   3.543   3.765  11.251 -0.0790  0.2749 -0.2181
 5217TIP3    H137142   3.615   3.820  11.220 -0.1338  1.4900  1.6723
 5217TIP3    H237143   3.586   3.698  11.305 -0.0261 -1.5436 -2.3793
 5218TIP3   OH237144   2.264   0.354  10.851  0.2518 -0.1494 -0.1016
 5218TIP3    H137145   2.331   0.306  10.801 -0.2573 -0.1162 -0.8420
 5218TIP3    H237146   2.310   0.385  10.929  1.1389  0.0081 -0.6676
 5219TIP3   OH237147   4.382   4.875  14.680  0.2566  0.1204 -0.3133
 5219TIP3    H137148   4.325   4.802  14.657 -0.1738  1.6087 -4.9307
 5219TIP3    H237149   4.329   4.953  14.664  1.2887  1.5803  2.6772
 5220TIP3   OH237150   2.697   3.568   2.007 -0.5301 -0.1833  0.0314
 5220TIP3    H137151   2.719   3.662   2.008 -0.6454 -0.1283 -1.0377
 5220TIP3    H237152   2.775   3.526   1.971  0.5139 -0.8208  2.8593
 5221TIP3   OH237153   0.951   2.021   4.871 -0.7954  0.0051 -0.2348
 5221TIP3    H137154   1.016   2.090   4.885  1.6743 -2.4530  1.3578
 5221TIP3    H237155   0.905   2.014   4.955 -0.1925 -1.0475  0.0215
 5222TIP3   OH237156   2.368   5.660  13.498 -0.6548 -0.2436 -0.1021
 5222TIP3    H137157   2.338   5.694  13.582 -0.2090  0.3388 -0.1697
 5222TIP3    H237158   2.461   5.642  13.510 -0.5150  0.1363 -0.5488
 5223TIP3   OH237159   3.070   3.684   2.470  0.3193  0.1906 -0.0545
 5223TIP3    H137160   3.098   3.772   2.446  0.8165 -0.2015 -0.9561
 5223TIP3    H237161   2.993   3.697   2.526  0.5330  1.1953  0.0083
 5224TIP3   OH237162   1.093   5.217  13.362  0.1640 -0.4382 -0.5331
 5224TIP3    H137163   1.161   5.151  13.379 -0.3174 -0.4883  1.4433
 5224TIP3    H237164   1.089   5.269  13.442 -1.3817  0.2460 -1.0064
 5225TIP3   OH237165   5.149   4.480   3.546  0.1861 -0.1915 -0.0223
 5225TIP3    H137166   5.124   4.483   3.639 -1.2627 -2.5210 -0.2747
 5225TIP3    H237167   5.071   4.447   3.501  0.8780  0.8286 -2.0949
 5226TIP3   OH237168   6.289   4.857  16.623 -0.4191 -0.2934 -0.1441
 5226TIP3    H137169   6.295   4.945  16.659 -0.8202  0.8816 -2.7562
 5226TIP3    H237170   6.204   4.825  16.652 -0.3956  0.2764  0.5789
 5227TIP3   OH237171   6.648   0.446  16.199 -0.0640 -0.5387 -0.0484
 5227TIP3    H137172   6.604   0.483  16.275  1.0564  1.3987 -0.2706
 5227TIP3    H237173   6.739   0.475  16.208  0.4916 -1.8218 -1.1810
 5228TIP3   OH237174   6.775   0.813  10.551  0.2566 -0.4145 -0.3359
 5228TIP3    H137175   6.819   0.786  10.631 -0.5022  1.0857  0.6287
 5228TIP3    H237176   6.815   0.896  10.527 -0.6872  0.0055 -0.5314
 5229TIP3   OH237177   1.926   1.125  15.591 -0.5641  0.0123 -0.1739
 5229TIP3    H137178   1.930   1.164  15.503  1.9029 -1.8000 -0.9615
 5229TIP3    H237179   1.894   1.036  15.577  0.0483 -0.3686  0.7308
 5230TIP3   OH237180   2.140   5.184   5.620 -0.1040 -0.0464  0.0985
 5230TIP3    H137181   2.169   5.172   5.529  0.2143 -1.4119  0.3526
 5230TIP3    H237182   2.074   5.252   5.615  1.6625  1.7158 -0.7999
 5231TIP3   OH237183   6.240   2.274  14.878 -0.2566 -0.3707  0.1118
 5231TIP3    H137184   6.297   2.200  14.901  0.6819  0.0557 -0.7894
 5231TIP3    H237185   6.207   2.253  14.790 -0.0041  0.2671 -0.1392
 5232TIP3   OH237186   5.984   4.262  12.058 -0.3416 -0.3132 -0.1478
 5232TIP3    H137187   5.936   4.263  12.141  1.1718  0.2274  0.7454
 5232TIP3    H237188   6.007   4.170  12.045 -0.4107 -0.3699  0.1238
 5233TIP3   OH237189   1.258   2.814  12.076 -0.5608 -0.2892 -0.8225
 5233TIP3    H137190   1.281   2.729  12.040 -0.2557 -0.1098 -1.0602
 5233TIP3    H237191   1.337   2.843  12.122 -0.3428  0.2637 -1.5138
 5234TIP3   OH237192   4.229   0.804  15.474 -0.4043 -0.4217  0.6430
 5234TIP3    H137193   4.311   0.781  15.430  0.6539  2.7325  0.7487
 5234TIP3    H237194   4.218   0.897  15.458 -3.9235 -0.6706  0.8161
 5235TIP3   OH237195   3.035   3.545  14.184 -0.7595 -0.1710  0.4388
 5235TIP3    H137196   3.107   3.537  14.246 -0.5033 -1.3517  0.0066
 5235TIP3    H237197   3.008   3.637  14.191  0.0670  0.0209  1.3878
 5236TIP3   OH237198   6.790   5.778   4.671 -0.0878 -0.0847  0.1336
 5236TIP3    H137199   6.700   5.748   4.662 -0.3431  1.0724 -1.6728
 5236TIP3    H237200   6.840   5.724   4.609  0.0377  0.8276 -0.5817
 5237TIP3   OH237201   3.962   1.941  12.883  0.2307  0.0683  0.0110
 5237TIP3    H137202   3.889   2.003  12.878  2.1898  2.5786 -0.0450
 5237TIP3    H237203   3.954   1.902  12.970 -2.5917 -1.7751 -0.9345
 5238TIP3   OH237204   2.494   5.817  14.470  0.2662 -0.1748  0.1403
 5238TIP3    H137205   2.399   5.816  14.479  0.0502  0.8104 -1.5944
 5238TIP3    H237206   2.512   5.763  14.393  1.1776 -0.8083  0.7684
 5239TIP3   OH237207   3.009   2.279  11.932 -0.2990  0.2328 -0.7607
 5239TIP3    H137208   2.919   2.312  11.932 -0.1659  0.6157 -1.1462
 5239TIP3    H237209   3.053   2.332  11.866 -0.2084 -1.0698 -1.7903
 5240TIP3   OH237210   2.817   2.104   0.753  0.8090 -0.6884 -0.4289
 5240TIP3    H137211   2.841   2.151   0.833 -0.5357  0.2131 -0.5166
 5240TIP3    H237212   2.768   2.028   0.784  1.7761 -1.2854 -0.3411
 5241TIP3   OH237213   2.461   1.129  16.304 -0.1952  0.0955  0.0101
 5241TIP3    H137214   2.398   1.120  16.233 -2.5249  2.9638  1.4408
 5241TIP3    H237215   2.479   1.223  16.308 -0.0588  0.0588  3.0230
 5242TIP3   OH237216   3.320   2.994   2.134  0.1947  0.1222  0.0071
 5242TIP3    H137217   3.275   3.079   2.140  0.4344  0.1675  1.8487
 5242TIP3    H237218   3.249   2.930   2.135  0.0612  0.2692  0.1755
 5243TIP3   OH237219   4.191   1.876  15.624  0.1508  0.0954  0.0434
 5243TIP3    H137220   4.251   1.845  15.691  0.0970 -1.5904 -0.6535
 5243TIP3    H237221   4.126   1.807  15.615 -0.2052  0.5616 -1.2776
 5244TIP3   OH237222   1.481   0.968  14.540 -0.5897 -0.6240  0.7264
 5244TIP3    H137223   1.576   0.966  14.552 -0.2321  1.3982 -1.2671
 5244TIP3    H237224   1.462   1.055  14.506 -3.3631 -0.5016  2.2710
 5245TIP3   OH237225   2.101   3.019  11.080 -0.3036 -0.1562  0.5348
 5245TIP3    H137226   2.168   3.032  11.013  0.3768 -0.5664  1.1162
 5245TIP3    H237227   2.037   3.088  11.064  0.6307  0.7002  0.4202
 5246TIP3   OH237228   4.878   2.272  11.953 -0.4697 -0.7067 -0.1233
 5246TIP3    H137229   4.840   2.197  11.906  0.3043 -0.7063 -0.7815
 5246TIP3    H237230   4.972   2.254  11.953 -0.2380  0.4191 -0.5773
 5247TIP3   OH237231   1.925   6.758   4.518  0.0202  0.1314 -0.1580
 5247TIP3    H137232   1.859   6.734   4.583 -0.1811  3.2525  0.9443
 5247TIP3    H237233   2.007   6.761   4.566  0.1984  0.5547 -0.4767
 5248TIP3   OH237234   0.786   0.278   1.638 -0.3438 -0.4331  0.5184
 5248TIP3    H137235   0.802   0.192   1.678  0.9332 -0.0231  0.9390
 5248TIP3    H237236   0.825   0.340   1.698  0.9148  0.2694 -0.9543
 5249TIP3   OH237237   6.287   3.022   5.085 -0.1977 -0.2218 -0.4558
 5249TIP3    H137238   6.226   2.951   5.099 -0.4177  0.4721  2.9156
 5249TIP3    H237239   6.373   2.985   5.107 -0.0456  0.0309 -0.6111
 5250TIP3   OH237240   5.568   3.405  14.463 -0.3491 -0.2136 -0.0398
 5250TIP3    H137241   5.552   3.492  14.426 -0.4772 -0.1682  0.1212
 5250TIP3    H237242   5.591   3.351  14.388 -0.6494 -0.1326 -0.1920
 5251TIP3   OH237243   3.099   2.339  15.849 -0.2362  0.6691  0.6049
 5251TIP3    H137244   3.125   2.332  15.757 -0.9161 -0.5496  0.4972
 5251TIP3    H237245   3.101   2.434  15.866 -0.4071  0.9426 -0.7401
 5252TIP3   OH237246   1.811   4.285  14.071 -0.4487  0.7889 -0.0513
 5252TIP3    H137247   1.739   4.285  14.134  0.5716  1.9712  1.1590
 5252TIP3    H237248   1.804   4.369  14.027 -0.4848  0.4227 -0.7601
 5253TIP3   OH237249   2.237   4.442  13.198  0.0241  0.3642  0.4827
 5253TIP3    H137250   2.247   4.395  13.115  0.0907 -0.5541  1.0008
 5253TIP3    H237251   2.306   4.508  13.197  1.6653 -1.2946  0.9131
 5254TIP3   OH237252   0.236   2.258  15.216  0.1971  0.2818  0.5486
 5254TIP3    H137253   0.201   2.169  15.226 -0.1567  0.6013  2.5356
 5254TIP3    H237254   0.240   2.271  15.121  0.5046 -1.9368  0.1905
 5255TIP3   OH237255   1.090   2.364  12.663 -0.2623  0.1399 -0.3019
 5255TIP3    H137256   1.083   2.336  12.571 -1.5973 -0.8153  0.0569
 5255TIP3    H237257   1.184   2.360  12.682 -0.1489 -1.7405 -1.0284
 5256TIP3   OH237258   1.405   3.160  11.248  0.1064  0.1631  0.6180
 5256TIP3    H137259   1.350   3.116  11.183 -3.5197 -2.1689  4.7198
 5256TIP3    H237260   1.468   3.094  11.275  0.9443  0.7868  0.2239
 5257TIP3   OH237261   0.044   3.935  12.422  0.4022 -0.1117  0.4077
 5257TIP3    H137262   0.040   3.894  12.336  0.5049 -0.3429  0.5141
 5257TIP3    H237263   0.138   3.940  12.442  0.3994  0.2977  0.3360
 5258TIP3   OH237264   6.776   2.363  12.903  0.0571 -0.4207  0.0710
 5258TIP3    H137265   6.846   2.403  12.954 -0.5542  0.5650  0.1653
 5258TIP3    H237266   6.783   2.404  12.816 -0.7084  0.0872  0.2323
 5259TIP3   OH237267   2.270   6.076  13.751 -0.0857  0.6650 -0.1124
 5259TIP3    H137268   2.196   6.116  13.705  0.0359 -0.4042 -1.2942
 5259TIP3    H237269   2.256   6.098  13.843 -1.4564  1.1321 -0.4092
 5260TIP3   OH237270   3.875   6.825  12.019  0.2717 -0.0422  0.6607
 5260TIP3    H137271   3.808   6.803  11.955  1.3698  1.6786 -1.1834
 5260TIP3    H237272   3.838   6.898  12.069 -0.1642 -0.6980  1.3198
 5261TIP3   OH237273   6.717   5.341  11.173 -0.6501  0.2683 -0.4997
 5261TIP3    H137274   6.726   5.279  11.245 -0.4469 -0.5167 -1.1778
 5261TIP3    H237275   6.789   5.319  11.113 -0.9833  0.7061 -1.0763
 5262TIP3   OH237276   3.212   4.996  11.785 -0.0506 -1.1388 -0.1614
 5262TIP3    H137277   3.265   4.975  11.862  1.6988 -0.9317 -1.2542
 5262TIP3    H237278   3.223   5.091  11.774 -0.4453 -1.1379 -0.5606
 5263TIP3   OH237279   0.890   2.917   5.240  0.0236  0.3760  0.7606
 5263TIP3    H137280   0.843   2.841   5.204 -0.3298  0.8284  0.2412
 5263TIP3    H237281   0.979   2.908   5.206 -0.4264  1.0694 -0.7197
 5264TIP3   OH237282   0.178   0.488   1.315  0.5324 -0.1340  0.5517
 5264TIP3    H137283   0.224   0.462   1.235  0.6524 -0.8145  0.8407
 5264TIP3    H237284   0.144   0.406   1.352 -0.4613  0.2929  0.6295
 5265TIP3   OH237285   3.694   6.326  16.969  0.3790 -0.6022  0.1001
 5265TIP3    H137286   3.640   6.404  16.979 -0.2919 -1.0690  0.1894
 5265TIP3    H237287   3.779   6.359  16.941  0.3098  0.2063  0.8134
 5266TIP3   OH237288   1.110   6.540   5.290  0.6724 -0.1888 -0.3420
 5266TIP3    H137289   1.163   6.599   5.237  0.8776  0.7820  0.8908
 5266TIP3    H237290   1.147   6.546   5.378  0.8683 -2.3828 -0.2058
 5267TIP3   OH237291   2.323   5.564  14.271  0.2349  1.1766 -0.4904
 5267TIP3    H137292   2.379   5.621  14.217  1.1766 -1.9805 -3.1427
 5267TIP3    H237293   2.361   5.570  14.359  2.0442  2.4452 -1.2943
 5268TIP3   OH237294   2.744   3.452   2.996 -0.0537 -0.8443 -0.4366
 5268TIP3    H137295   2.780   3.426   3.081 -0.8899 -1.9019 -0.3883
 5268TIP3    H237296   2.688   3.527   3.016 -2.1418 -2.5378  0.3691
 5269TIP3   OH237297   0.610   6.436   3.099 -0.2099 -0.0589 -0.1784
 5269TIP3    H137298   0.552   6.417   3.025  0.7847 -0.6360 -0.8271
 5269TIP3    H237299   0.678   6.369   3.095  1.5439  1.6399 -0.5493
 5270TIP3   OH237300   1.220   0.195  13.699  0.1683  0.2500 -0.0892
 5270TIP3    H137301   1.304   0.156  13.727 -0.4130  0.3372  1.9430
 5270TIP3    H237302   1.226   0.286  13.726 -0.4358  0.3555 -0.3070
 5271TIP3   OH237303   0.604   3.232   2.849  0.4940  0.5889 -0.1818
 5271TIP3    H137304   0.668   3.203   2.784  0.6964 -0.4763  0.4790
 5271TIP3    H237305   0.521   3.196   2.818  0.4835  0.5926 -0.1576
 5272TIP3   OH237306   2.843   5.384   4.088 -0.8426  0.1176 -0.1920
 5272TIP3    H137307   2.839   5.411   4.180 -0.5309 -0.2141 -0.0783
 5272TIP3    H237308   2.882   5.459   4.043 -0.7332  0.1715 -0.0088
 5273TIP3   OH237309   0.537   3.390   1.381 -0.5188 -0.1228 -0.0211
 5273TIP3    H137310   0.453   3.362   1.345  0.0930 -2.2318 -0.0006
 5273TIP3    H237311   0.520   3.406   1.474 -1.0537  0.2237 -0.1798
 5274TIP3   OH237312   2.536   4.368   5.402 -0.3116 -0.5451  0.4578
 5274TIP3    H137313   2.537   4.459   5.372  0.0593 -0.5679  0.3924
 5274TIP3    H237314   2.628   4.344   5.408 -0.4132 -0.9999  0.2252
 5275TIP3   OH237315   5.444   1.576  12.636  0.7731  0.0358  0.3517
 5275TIP3    H137316   5.534   1.610  12.634  1.1812 -1.0444 -0.2734
 5275TIP3    H237317   5.406   1.604  12.553  0.6516  0.1787  0.4558
 5276TIP3   OH237318   6.309   3.139   1.527  0.1667 -0.2624  0.7736
 5276TIP3    H137319   6.221   3.104   1.536 -0.0857  0.4248  1.0554
 5276TIP3    H237320   6.297   3.231   1.504  0.8116 -0.3069  0.2258
 5277TIP3   OH237321   2.413   2.559  15.443 -0.4391  0.7341 -0.0625
 5277TIP3    H137322   2.442   2.526  15.528  0.9935  1.2219 -0.3393
 5277TIP3    H237323   2.481   2.530  15.381 -0.8897  1.3325 -0.8530
 5278TIP3   OH237324   1.738   3.181  12.368  0.2246 -0.0146  0.2497
 5278TIP3    H137325   1.718   3.088  12.357 -0.8837  0.2905 -0.4373
 5278TIP3    H237326   1.780   3.186  12.454 -1.1611 -0.9323  1.0229
 5279TIP3   OH237327   3.249   3.100  14.635  0.3382 -0.0700 -0.2261
 5279TIP3    H137328   3.303   3.113  14.713 -0.9395  1.7589  0.4165
 5279TIP3    H237329   3.279   3.017  14.598  1.6753 -0.4573  1.6268
 5280TIP3   OH237330   5.776   0.194  15.147 -0.1980  0.7372  0.0124
 5280TIP3    H137331   5.798   0.267  15.205  0.1499 -0.8251  1.9448
 5280TIP3    H237332   5.825   0.213  15.067  0.7479  2.0709  0.8521
 5281TIP3   OH237333   2.696   5.635   2.404 -0.0825 -0.5325 -0.0741
 5281TIP3    H137334   2.671   5.557   2.453  0.3610  0.0242  1.0959
 5281TIP3    H237335   2.657   5.708   2.454  1.2096  0.1191  0.0342
 5282TIP3   OH237336   2.510   4.776  12.921  0.1645 -0.1561 -0.0207
 5282TIP3    H137337   2.528   4.683  12.910  0.2495 -0.2120  0.5531
 5282TIP3    H237338   2.468   4.782  13.007 -0.2068  0.2853 -0.2283
 5283TIP3   OH237339   5.885   4.403   5.595  0.1334 -0.2256 -0.4806
 5283TIP3    H137340   5.947   4.354   5.648  0.4781  0.7981  0.0883
 5283TIP3    H237341   5.931   4.419   5.513  0.3454 -0.0950 -0.3358
 5284TIP3   OH237342   4.095   2.485   0.762  0.0967  0.3962  0.0095
 5284TIP3    H137343   4.047   2.418   0.811  0.3451  1.4857  1.8266
 5284TIP3    H237344   4.030   2.553   0.743  0.3585  0.7207  0.2598
 5285TIP3   OH237345   5.934   2.314   4.989 -0.1901 -0.5998 -0.2569
 5285TIP3    H137346   5.852   2.267   4.971 -0.1056 -0.4905 -0.9718
 5285TIP3    H237347   5.988   2.299   4.911  0.7270 -1.2012  0.4666
 5286TIP3   OH237348   5.713   6.350  12.807 -0.4467  0.0989 -0.1902
 5286TIP3    H137349   5.650   6.300  12.858 -0.3599  0.0713 -0.1098
 5286TIP3    H237350   5.783   6.371  12.869  0.5948 -1.5701 -0.7190
 5287TIP3   OH237351   1.933   4.308   3.602 -0.3112 -0.8398 -0.2390
 5287TIP3    H137352   1.847   4.337   3.571 -0.2644  1.0026  1.1357
 5287TIP3    H237353   1.995   4.344   3.537 -0.3578  1.1802  0.7545
 5288TIP3   OH237354   0.416   0.361  15.670 -0.0605 -0.3377  0.2778
 5288TIP3    H137355   0.347   0.348  15.604 -0.7237 -0.3167  0.9490
 5288TIP3    H237356   0.498   0.351  15.621 -0.5291 -1.5560 -0.3166
 5289TIP3   OH237357   2.682   6.287   2.581  0.6537  0.3291 -0.1502
 5289TIP3    H137358   2.765   6.249   2.551  0.6515  1.0099 -1.0913
 5289TIP3    H237359   2.635   6.308   2.500 -0.8697 -0.9279  0.3646
 5290TIP3   OH237360   1.609   4.898   2.461  1.0494 -0.3909  0.3871
 5290TIP3    H137361   1.522   4.936   2.450  1.2251 -0.0975 -0.0355
 5290TIP3    H237362   1.665   4.973   2.484  1.0560 -0.6923  1.3945
 5291TIP3   OH237363   0.351   1.508   3.540 -0.0626  0.6836  0.0174
 5291TIP3    H137364   0.412   1.452   3.492 -1.8943  0.6366 -2.4085
 5291TIP3    H237365   0.311   1.449   3.604  1.5832  0.4858  0.9462
 5292TIP3   OH237366   1.049   2.748   3.552 -0.0332 -0.5918  0.4202
 5292TIP3    H137367   1.041   2.816   3.485  0.6618  0.5533  1.4694
 5292TIP3    H237368   0.958   2.725   3.573 -0.2842  0.1904  0.2231
 5293TIP3   OH237369   5.855   0.280  17.076  0.3939 -0.2753 -0.0343
 5293TIP3    H137370   5.931   0.315  17.123  1.2027  1.4748 -2.4714
 5293TIP3    H237371   5.781   0.331  17.108  0.7977  0.3337 -0.0653
 5294TIP3   OH237372   1.289   5.728   1.447  0.7443  0.4921 -0.0490
 5294TIP3    H137373   1.344   5.713   1.370  1.4198 -1.3898  0.7223
 5294TIP3    H237374   1.349   5.723   1.521 -0.1454  0.5359  0.6990
 5295TIP3   OH237375   3.652   0.712   5.652  0.2854 -0.0097 -0.4832
 5295TIP3    H137376   3.560   0.720   5.625 -0.1624 -0.2119  0.9155
 5295TIP3    H237377   3.692   0.794   5.624 -0.6591  0.6830  0.1344
 5296TIP3   OH237378   0.879   3.805   1.655  0.2303  0.4561  0.2087
 5296TIP3    H137379   0.941   3.734   1.636 -0.3314 -0.0446  0.2197
 5296TIP3    H237380   0.893   3.824   1.748  0.5658  0.5405  0.1426
 5297TIP3   OH237381   3.237   0.536   2.679 -0.1290  0.0820  0.3855
 5297TIP3    H137382   3.193   0.498   2.603 -0.8776 -0.6595  1.1682
 5297TIP3    H237383   3.318   0.572   2.644 -1.1562  1.1316 -1.0286
 5298TIP3   OH237384   3.093   4.362   0.675  0.1399 -0.8263  0.6285
 5298TIP3    H137385   3.081   4.402   0.761 -0.5630 -1.1137  0.6699
 5298TIP3    H237386   3.188   4.354   0.665  0.2796  0.3331  0.8543
 5299TIP3   OH237387   1.470   6.108   5.751 -0.1611 -0.2037 -0.6367
 5299TIP3    H137388   1.467   6.093   5.846 -0.1125  1.1523 -0.3975
 5299TIP3    H237389   1.409   6.180   5.736  1.4763  1.1131 -1.3026
 5300TIP3   OH237390   2.694   2.141   4.841  0.3656  0.2513 -0.0766
 5300TIP3    H137391   2.733   2.172   4.923 -2.2470  0.0756  1.3567
 5300TIP3    H237392   2.659   2.054   4.862 -0.6161  0.3167 -1.2751
 5301TIP3   OH237393   2.271   4.325  13.459  0.1987  0.3081  0.2047
 5301TIP3    H137394   2.362   4.298  13.449  0.1078 -0.2570  0.8174
 5301TIP3    H237395   2.251   4.372  13.378  0.8933  0.0435 -0.1311
 5302TIP3   OH237396   1.607   3.963   3.190  0.1828 -0.1704 -0.0568
 5302TIP3    H137397   1.700   3.982   3.190  0.5041 -1.6074 -0.9705
 5302TIP3    H237398   1.569   4.029   3.132 -0.0884  3.1772  3.5009
 5303TIP3   OH237399   3.687   2.405   2.421 -0.3431  0.2054  0.2002
 5303TIP3    H137400   3.764   2.383   2.367  0.0656  1.0379  0.4258
 5303TIP3    H237401   3.690   2.342   2.493  0.8479  0.9917  0.8741
 5304TIP3   OH237402   1.147   0.765   4.146 -0.1480  0.1304 -0.0037
 5304TIP3    H137403   1.081   0.734   4.085 -1.0794  0.4865  0.7937
 5304TIP3    H237404   1.100   0.775   4.229  1.0783 -0.3257  0.7707
 5305TIP3   OH237405   4.160   3.102  13.242 -0.0009 -0.2373 -0.5069
 5305TIP3    H137406   4.178   3.078  13.151 -0.0013  0.1595 -0.6124
 5305TIP3    H237407   4.118   3.188  13.237 -0.5668 -0.4855 -0.1680
 5306TIP3   OH237408   6.030   4.022  16.582 -0.0806  0.4378  0.4598
 5306TIP3    H137409   6.051   4.083  16.652  1.5958  1.1244 -0.5815
 5306TIP3    H237410   6.099   4.035  16.517 -0.8083 -1.1534 -0.7044
 5307TIP3   OH237411   5.439   1.313  10.890 -0.4515  0.2685 -0.0522
 5307TIP3    H137412   5.352   1.340  10.919  0.0676  0.3577  1.5509
 5307TIP3    H237413   5.490   1.305  10.971  0.2168 -2.7657 -0.6616
 5308TIP3   OH237414   4.089   4.726  14.147 -0.0389 -0.3246 -0.0784
 5308TIP3    H137415   3.997   4.739  14.171  0.0846 -0.4717  0.4904
 5308TIP3    H237416   4.088   4.713  14.052 -0.7450 -1.5938  0.0870
 5309TIP3   OH237417   2.141   2.038   0.349  0.6440 -0.5979  0.3113
 5309TIP3    H137418   2.226   2.014   0.387  0.0367 -2.7290  0.4303
 5309TIP3    H237419   2.122   1.968   0.286 -0.2206  0.7900 -1.0416
 5310TIP3   OH237420   3.388   4.713  11.303 -0.0954  0.2671 -0.4274
 5310TIP3    H137421   3.357   4.688  11.390  1.1083 -1.5433 -0.4727
 5310TIP3    H237422   3.313   4.753  11.261 -1.6196 -1.6296  0.3611
 5311TIP3   OH237423   1.470   1.379  16.886  0.4743 -0.0563 -0.3675
 5311TIP3    H137424   1.536   1.447  16.900  0.6552 -0.3265  0.0868
 5311TIP3    H237425   1.468   1.367  16.791  0.0118  1.0060 -0.5058
 5312TIP3   OH237426   4.649   2.159   3.238  0.2767 -0.1642 -0.1273
 5312TIP3    H137427   4.744   2.165   3.243  0.7962 -4.3632 -1.3816
 5312TIP3    H237428   4.621   2.138   3.327  0.4643  0.9342  0.2121
 5313TIP3   OH237429   5.254   3.428  15.719 -0.7166 -0.3670 -0.1059
 5313TIP3    H137430   5.237   3.521  15.736  3.3098  0.3993  0.9129
 5313TIP3    H237431   5.326   3.406  15.778 -1.2897 -4.1211 -0.5489
 5314TIP3   OH237432   6.284   0.172  15.904 -0.4716 -0.6710 -0.2967
 5314TIP3    H137433   6.280   0.248  15.846  0.4602 -1.2260 -1.1217
 5314TIP3    H237434   6.194   0.139  15.907 -0.7894  0.1855 -0.3000
 5315TIP3   OH237435   4.514   6.522   2.475  0.7738  0.4909  0.0587
 5315TIP3    H137436   4.424   6.507   2.504  0.6234  0.8287 -0.2213
 5315TIP3    H237437   4.529   6.616   2.491  1.0708  0.4385  0.0961
 5316TIP3   OH237438   6.726   2.902   4.472 -0.3462  0.0695 -0.2140
 5316TIP3    H137439   6.757   2.952   4.397 -0.5264 -0.0033 -0.3371
 5316TIP3    H237440   6.793   2.835   4.485 -0.9001 -0.6623 -1.0491
 5317TIP3   OH237441   3.418   3.524   6.056 -0.3211 -0.3388  0.5385
 5317TIP3    H137442   3.496   3.580   6.055  0.8841 -1.9477 -0.3687
 5317TIP3    H237443   3.345   3.585   6.067  1.0043  1.2924  0.6856
 5318TIP3   OH237444   3.043   2.401   3.741 -0.2120  0.3340 -0.1272
 5318TIP3    H137445   2.953   2.374   3.720 -0.3751  1.1163 -0.4793
 5318TIP3    H237446   3.064   2.354   3.822 -0.1135 -1.5847 -1.2343
 5319TIP3   OH237447   4.512   5.374  15.062 -0.1971  0.0967  0.1872
 5319TIP3    H137448   4.472   5.287  15.065 -0.5599  0.2871  1.9449
 5319TIP3    H237449   4.514   5.402  15.153  1.8296  1.0777 -0.1176
 5320TIP3   OH237450   4.062   0.554   4.220 -0.3809  0.0995  0.3801
 5320TIP3    H137451   4.105   0.478   4.180  1.0958  0.8177  0.5179
 5320TIP3    H237452   3.971   0.549   4.190  0.5125  0.3146 -2.6863
 5321TIP3   OH237453   1.108   0.690  11.613  0.3013 -0.6967  0.1515
 5321TIP3    H137454   1.015   0.668  11.614  0.0032  0.5338  0.7140
 5321TIP3    H237455   1.152   0.605  11.606 -0.8653 -1.2428 -1.2536
 5322TIP3   OH237456   5.630   1.926  11.996 -0.4372  1.0755 -0.1182
 5322TIP3    H137457   5.687   1.996  12.029  0.6115 -0.3819  1.3750
 5322TIP3    H237458   5.669   1.900  11.913  0.8533  0.4559  0.6354
 5323TIP3   OH237459   1.263   1.565   2.870 -0.7017  0.0460 -0.1414
 5323TIP3    H137460   1.333   1.505   2.842  0.8484  1.0985  1.3305
 5323TIP3    H237461   1.186   1.535   2.822  0.4950 -1.8388 -1.0030
 5324TIP3   OH237462   4.046   2.879  14.670 -0.9373 -0.1159  0.6629
 5324TIP3    H137463   4.072   2.810  14.731 -4.3994 -2.0947  0.2020
 5324TIP3    H237464   4.037   2.957  14.724  0.1869 -0.7447  1.8115
 5325TIP3   OH237465   3.322   0.854  15.122 -0.5288  0.4839  0.5635
 5325TIP3    H137466   3.282   0.937  15.145  0.3958  0.9586  0.5189
 5325TIP3    H237467   3.377   0.874  15.046 -0.0957 -0.1143  0.7104
 5326TIP3   OH237468   1.038   2.461  11.551 -0.0591  0.0533 -0.2476
 5326TIP3    H137469   1.070   2.385  11.599 -1.6176 -0.3452  0.2366
 5326TIP3    H237470   0.945   2.443  11.537 -0.4708  1.8528 -0.1118
 5327TIP3   OH237471   5.231   2.676   3.792  0.1789  0.5014 -0.0840
 5327TIP3    H137472   5.201   2.682   3.701 -1.7971  0.5721  0.5414
 5327TIP3    H237473   5.190   2.596   3.825 -0.2521  1.2179  1.1454
 5328TIP3   OH237474   6.536   6.062  14.526 -0.0246 -0.4041  0.8537
 5328TIP3    H137475   6.504   6.046  14.437  0.9049  2.1672 -0.0539
 5328TIP3    H237476   6.616   6.009  14.532  1.6326  1.6583 -1.0859
 5329TIP3   OH237477   4.356   5.462   1.558 -0.1830  0.1684  0.2834
 5329TIP3    H137478   4.362   5.458   1.653 -0.5915  0.7019  0.3369
 5329TIP3    H237479   4.274   5.419   1.536  0.7450 -1.5377  0.0269
 5330TIP3   OH237480   4.262   0.653   5.609  0.0441 -0.4638  0.3971
 5330TIP3    H137481   4.188   0.608   5.569 -0.3808  2.1900 -2.0847
 5330TIP3    H237482   4.335   0.637   5.550 -0.0773  1.7893 -0.4696
 5331TIP3   OH237483   4.378   0.145   3.974  0.0339 -0.4888  0.0357
 5331TIP3    H137484   4.428   0.213   3.930  0.3815 -1.5856 -1.3647
 5331TIP3    H237485   4.416   0.063   3.942 -2.9198 -1.4064 -1.5036
 5332TIP3   OH237486   6.737   6.257  13.946  0.1572 -0.3805  0.0733
 5332TIP3    H137487   6.732   6.312  13.867 -3.7927  1.3258  1.2776
 5332TIP3    H237488   6.821   6.280  13.986  0.2013  2.1343 -1.2915
 5333TIP3   OH237489   0.461   0.666   5.179 -0.8818  0.6115 -0.4409
 5333TIP3    H137490   0.414   0.742   5.214  1.1825  1.2637  1.1214
 5333TIP3    H237491   0.535   0.703   5.132 -0.4935 -0.4091 -0.6597
 5334TIP3   OH237492   5.513   0.061  17.117 -0.0514  0.4242  0.0029
 5334TIP3    H137493   5.590   0.056  17.061  1.6926  0.5848  2.2357
 5334TIP3    H237494   5.516  -0.020  17.169 -1.5149  0.3439  0.0075
 5335TIP3   OH237495   4.160   6.138   4.166 -0.0001 -0.7149 -0.3321
 5335TIP3    H137496   4.079   6.108   4.126 -1.3820  1.4845  0.6135
 5335TIP3    H237497   4.219   6.154   4.093 -1.3737  0.2297 -1.2742
 5336TIP3   OH237498   1.429   5.153   1.029 -0.4605 -0.3917  0.1666
 5336TIP3    H137499   1.475   5.072   1.005 -0.0900 -0.2860  0.4999
 5336TIP3    H237500   1.449   5.214   0.958 -1.4287 -0.8402 -0.5133
 5337TIP3   OH237501   0.938   0.439   4.694  0.3888  0.4316 -0.1490
 5337TIP3    H137502   0.889   0.519   4.713  1.4305  0.8923  0.7311
 5337TIP3    H237503   0.883   0.369   4.729  0.0609  0.8791  0.2531
 5338TIP3   OH237504   4.953   1.762  11.673  0.0639 -0.5199  0.3368
 5338TIP3    H137505   4.872   1.754  11.621  0.8156  0.3828 -1.0539
 5338TIP3    H237506   5.023   1.749  11.609  1.0351  1.0166  1.0427
 5339TIP3   OH237507   4.475   5.287   0.187  0.3498 -0.6730 -0.3114
 5339TIP3    H137508   4.501   5.335   0.108  2.1879 -0.6236  0.2874
 5339TIP3    H237509   4.539   5.216   0.194  0.8631 -0.0735  1.6898
 5340TIP3   OH237510   1.909   0.983   0.144 -0.4860 -0.5560  0.3154
 5340TIP3    H137511   1.936   0.900   0.105  1.0907  0.2606 -0.4441
 5340TIP3    H237512   1.852   1.023   0.079 -0.7905 -0.7826  0.4396
 5341TIP3   OH237513   3.371   3.120   4.608 -0.4836 -0.0079 -0.0146
 5341TIP3    H137514   3.336   3.164   4.530 -0.4223 -1.0745 -0.6508
 5341TIP3    H237515   3.341   3.175   4.681 -0.4133  1.0868 -0.7854
 5342TIP3   OH237516   1.396   1.603  13.610 -0.6245 -0.4295 -0.6305
 5342TIP3    H137517   1.476   1.561  13.643 -1.2082 -1.4640 -0.5180
 5342TIP3    H237518   1.380   1.561  13.525 -1.5213 -0.8574 -0.2633
 5343TIP3   OH237519   1.081   4.471   0.937 -0.4942  0.2026 -0.6611
 5343TIP3    H137520   1.107   4.528   0.865 -1.2677 -1.5679 -2.4251
 5343TIP3    H237521   1.160   4.424   0.961 -0.4412  0.1372 -0.9675
 5344TIP3   OH237522   1.320   3.778   3.268  0.5622  0.6513 -0.0140
 5344TIP3    H137523   1.376   3.760   3.193 -0.8499 -0.2145 -0.8945
 5344TIP3    H237524   1.280   3.694   3.289 -1.7710  1.5598 -0.5504
 5345TIP3   OH237525   2.791   6.285  12.504 -0.0299  0.0941 -0.0655
 5345TIP3    H137526   2.783   6.371  12.463  1.1147  1.5705  2.4896
 5345TIP3    H237527   2.860   6.298  12.570 -0.6630 -2.4718  1.1965
 5346TIP3   OH237528   0.462   1.190  16.380 -0.1321 -0.5628 -0.1757
 5346TIP3    H137529   0.404   1.140  16.437 -1.0324  1.2651  0.6197
 5346TIP3    H237530   0.407   1.262  16.347  0.5691 -1.1009 -2.7647
 5347TIP3   OH237531   3.975   2.519   0.468  0.0434  0.4431  0.4522
 5347TIP3    H137532   3.912   2.464   0.515 -0.0330  0.4855  0.4005
 5347TIP3    H237533   3.921   2.584   0.424  0.0642  0.0233 -0.2040
 5348TIP3   OH237534   0.665   2.022  12.864  0.4725 -0.4418 -0.8876
 5348TIP3    H137535   0.710   1.940  12.845  1.0443  0.0855 -1.8966
 5348TIP3    H237536   0.720   2.089  12.824 -1.0974  0.2390 -2.0145
 5349TIP3   OH237537   0.263   0.193   2.778  0.2473  0.3017 -0.3072
 5349TIP3    H137538   0.297   0.110   2.812 -0.9805 -0.0945  0.0106
 5349TIP3    H237539   0.180   0.170   2.735  0.7355  1.1107 -1.7660
 5350TIP3   OH237540   6.197   3.221  14.252  0.0706 -0.1847  0.0225
 5350TIP3    H137541   6.253   3.229  14.329  1.3768 -4.3392 -0.2529
 5350TIP3    H237542   6.258   3.216  14.178 -0.7968 -1.7124 -0.6372
 5351TIP3   OH237543   6.682   4.379   0.034  0.3041 -0.2589 -0.0115
 5351TIP3    H137544   6.622   4.417  -0.031 -0.5250 -0.1621  0.7898
 5351TIP3    H237545   6.680   4.441   0.107  0.9367 -0.5589  0.2625
 5352TIP3   OH237546   1.997   3.322   2.629 -0.0405 -0.1390  0.0241
 5352TIP3    H137547   2.078   3.356   2.667 -0.8418  0.1560  1.5492
 5352TIP3    H237548   2.005   3.227   2.636  1.1098 -0.2378 -1.9205
 5353TIP3   OH237549   6.750   0.343  15.960 -0.5244  0.0517 -0.4403
 5353TIP3    H137550   6.724   0.393  16.037 -1.1442 -0.6580 -0.1722
 5353TIP3    H237551   6.799   0.405  15.906 -0.4363  0.6692  0.3320
 5354TIP3   OH237552   0.968   0.164   5.885 -0.3233  0.5902  0.7793
 5354TIP3    H137553   1.052   0.210   5.877  0.7735 -1.6728 -2.9170
 5354TIP3    H237554   0.991   0.074   5.904 -1.4970 -0.7365 -3.0635
 5355TIP3   OH237555   0.109   1.315  15.566 -0.3709  0.3993  0.3239
 5355TIP3    H137556   0.087   1.247  15.629 -0.9053  0.9139  0.7125
 5355TIP3    H237557   0.139   1.388  15.620 -1.3047  1.0225  0.0261
 5356TIP3   OH237558   1.261   6.095  14.715 -0.6263 -0.2846 -0.5220
 5356TIP3    H137559   1.348   6.123  14.743 -0.7826 -1.3473  1.2378
 5356TIP3    H237560   1.262   6.103  14.620  0.9986  0.7926 -0.4527
 5357TIP3   OH237561   5.419   0.386   4.316 -0.2458 -0.8877 -0.0242
 5357TIP3    H137562   5.403   0.361   4.408  2.6614 -0.4977  0.6874
 5357TIP3    H237563   5.502   0.344   4.294  0.7527  1.6040 -1.4176
 5358TIP3   OH237564   2.376   1.806   4.641  0.0389  0.6488  1.0553
 5358TIP3    H137565   2.323   1.878   4.675  1.3600  1.2469  1.9295
 5358TIP3    H237566   2.333   1.727   4.673 -1.0680  1.0530  0.6171
 5359TIP3   OH237567   6.372   3.327   4.465 -0.4667  0.3681 -0.1994
 5359TIP3    H137568   6.293   3.311   4.516 -0.2473 -2.2433 -0.5372
 5359TIP3    H237569   6.429   3.253   4.486 -0.1107 -0.5302 -3.6983
 5360TIP3   OH237570   0.608   1.102   0.778 -0.4049  0.1120 -0.3243
 5360TIP3    H137571   0.525   1.103   0.730 -0.1016 -0.0667 -0.8526
 5360TIP3    H237572   0.582   1.083   0.869 -1.0272  1.0001 -0.3047
 5361TIP3   OH237573   2.425   3.611  11.557 -0.3425  0.2161  0.0104
 5361TIP3    H137574   2.511   3.651  11.543 -1.1504  2.0167 -0.0763
 5361TIP3    H237575   2.381   3.619  11.472  0.0931 -2.6719 -0.6165
 5362TIP3   OH237576   2.379   0.856  14.654  0.2485 -0.0100  0.4725
 5362TIP3    H137577   2.442   0.923  14.682  1.1829 -0.3071 -0.8039
 5362TIP3    H237578   2.327   0.899  14.586 -0.5746  0.0531  1.1240
 5363TIP3   OH237579   0.089   2.963  15.235  0.2820  0.0271 -0.0079
 5363TIP3    H137580   0.007   3.012  15.236  2.0674  3.2892  1.6055
 5363TIP3    H237581   0.111   2.949  15.327  1.7718 -0.3250 -0.3780
 5364TIP3   OH237582   1.712   2.588   1.956 -0.1865  0.1616  0.1679
 5364TIP3    H137583   1.671   2.543   1.883  0.0328 -0.3213  0.3380
 5364TIP3    H237584   1.644   2.594   2.023 -0.2103  0.0713  0.1511
 5365TIP3   OH237585   0.800   2.460  17.005  0.1543 -0.1767 -0.4925
 5365TIP3    H137586   0.768   2.525  16.941  1.2827  0.4825 -0.4182
 5365TIP3    H237587   0.824   2.512  17.081  0.7832 -0.7203 -0.3118
 5366TIP3   OH237588   5.307   3.375   1.950  0.0883 -0.6263  0.3872
 5366TIP3    H137589   5.283   3.295   1.995 -1.3825  0.3429  1.4221
 5366TIP3    H237590   5.312   3.441   2.019  0.0707  0.4289 -0.5801
 5367TIP3   OH237591   6.689   0.340  11.509 -0.1450 -0.0266 -0.4401
 5367TIP3    H137592   6.684   0.267  11.448 -0.1951 -1.3461  1.0559
 5367TIP3    H237593   6.750   0.402  11.470 -0.3415 -0.7243 -1.8903
 5368TIP3   OH237594   0.708   4.880  12.560 -0.3413  0.4846 -0.0547
 5368TIP3    H137595   0.707   4.903  12.467 -0.0092 -4.0945 -1.4578
 5368TIP3    H237596   0.619   4.850  12.578 -0.4571  1.5053  1.2294
 5369TIP3   OH237597   0.396   5.847  16.878 -0.5316  0.3884 -0.9081
 5369TIP3    H137598   0.477   5.864  16.830 -0.6228 -0.2522 -1.3099
 5369TIP3    H237599   0.346   5.788  16.820  0.0349 -1.7143  0.6274
 5370TIP3   OH237600   0.292   4.119   3.923  0.2220 -0.2167 -0.2171
 5370TIP3    H137601   0.363   4.065   3.890  2.1035  2.0617 -0.1229
 5370TIP3    H237602   0.219   4.058   3.935  2.0909 -2.6155 -0.4308
 5371TIP3   OH237603   3.309   5.260  11.208 -0.5029  0.2874  0.0643
 5371TIP3    H137604   3.310   5.356  11.205 -0.5295  0.3298  1.0195
 5371TIP3    H237605   3.348   5.233  11.125 -1.9630  1.1030 -0.9285
 5372TIP3   OH237606   6.519   5.115   3.032  0.3024  0.2597 -0.1370
 5372TIP3    H137607   6.576   5.086   3.103  0.4860  1.1584  0.0921
 5372TIP3    H237608   6.494   5.205   3.055  1.0175  0.8739 -1.5958
 5373TIP3   OH237609   6.416   3.954   3.035 -0.1289 -0.2581 -0.5655
 5373TIP3    H137610   6.479   3.888   3.005  0.4047  0.6712 -1.5515
 5373TIP3    H237611   6.360   3.970   2.959 -0.5251  0.1120 -0.2013
 5374TIP3   OH237612   0.469   1.910   0.974  0.0572 -0.2725 -0.0266
 5374TIP3    H137613   0.479   1.951   1.060  1.6729 -0.1336 -0.2552
 5374TIP3    H237614   0.551   1.863   0.960  0.5661  1.1158 -2.2051
 5375TIP3   OH237615   2.566   6.126   5.943  0.3586 -0.3800  0.6905
 5375TIP3    H137616   2.559   6.069   6.020 -1.9749  0.0228  0.8423
 5375TIP3    H237617   2.510   6.201   5.964  0.9667  0.5295 -0.7696
 5376TIP3   OH237618   3.146   1.639   3.397  0.4674  0.2246  0.0100
 5376TIP3    H137619   3.079   1.576   3.372 -2.2364  3.3616 -1.3023
 5376TIP3    H237620   3.139   1.646   3.492 -0.7761  0.2091 -0.0763
 5377TIP3   OH237621   1.249   6.199  14.207  0.1001  0.2616 -0.4289
 5377TIP3    H137622   1.218   6.281  14.245  0.4491  0.1519  0.1070
 5377TIP3    H237623   1.341   6.215  14.186  0.3224 -0.1539  0.1811
 5378TIP3   OH237624   5.171   6.234   6.501  0.3682  0.2791  0.4677
 5378TIP3    H137625   5.223   6.178   6.559 -1.3476 -1.0437  0.8150
 5378TIP3    H237626   5.195   6.323   6.526  1.4089 -0.2794  1.5822
 5379TIP3   OH237627   6.228   5.415  13.001  0.3251  0.6187 -0.2576
 5379TIP3    H137628   6.207   5.437  12.910  1.5348 -1.4778 -1.1089
 5379TIP3    H237629   6.147   5.377  13.036  1.0490 -3.0946 -2.0681
 5380TIP3   OH237630   2.252   0.941   2.122 -0.6395 -0.5179 -0.4432
 5380TIP3    H137631   2.269   1.035   2.110  0.5243 -0.6509  0.0353
 5380TIP3    H237632   2.337   0.900   2.108 -1.0781 -1.4785 -0.3276
 5381TIP3   OH237633   1.029   5.251   4.324  0.4785  0.2877  0.0493
 5381TIP3    H137634   0.995   5.338   4.348 -0.8605 -0.2656  0.2584
 5381TIP3    H237635   1.021   5.249   4.228 -0.6488 -0.0383  0.1342
 5382TIP3   OH237636   0.830   0.911   2.085  0.0610  0.4054  0.0070
 5382TIP3    H137637   0.749   0.862   2.068  1.2213 -0.7231 -2.7506
 5382TIP3    H237638   0.899   0.845   2.087  1.1433  1.5028  0.7585
 5383TIP3   OH237639   2.976   6.578   5.352  0.7532 -0.0700  0.1778
 5383TIP3    H137640   3.053   6.529   5.325 -0.2975 -3.2812  2.4007
 5383TIP3    H237641   2.982   6.584   5.447  0.2040  3.3299  0.1488
 5384TIP3   OH237642   6.597   4.001   2.649  0.1094 -0.1745 -0.1757
 5384TIP3    H137643   6.594   3.931   2.583  0.9715  0.6534 -1.1166
 5384TIP3    H237644   6.508   4.002   2.686 -0.1669 -1.1783 -0.7612
 5385TIP3   OH237645   1.981   6.663   3.461 -0.1152 -0.2201  0.1926
 5385TIP3    H137646   1.972   6.574   3.497  0.0409 -0.5367 -0.5366
 5385TIP3    H237647   1.897   6.680   3.419 -0.1366 -0.0225  0.3135
 5386TIP3   OH237648   5.736   6.207  14.406 -0.6915 -0.1984 -0.1750
 5386TIP3    H137649   5.678   6.175  14.475 -1.7442  1.6391 -0.1317
 5386TIP3    H237650   5.677   6.231  14.334  0.0602  1.0433 -0.4053
 5387TIP3   OH237651   2.432   3.392  12.880 -1.0120  0.3973 -0.0180
 5387TIP3    H137652   2.378   3.355  12.810 -1.8935  0.4262  0.6273
 5387TIP3    H237653   2.445   3.320  12.941  1.0372 -0.0638 -0.9069
 5388TIP3   OH237654   6.137   2.205  15.568  0.5166 -0.7059 -0.3711
 5388TIP3    H137655   6.164   2.145  15.498 -1.9763  0.6122 -2.6688
 5388TIP3    H237656   6.202   2.275  15.565  2.8642 -2.5969  1.6545
 5389TIP3   OH237657   4.861   0.721  14.699  0.4173  0.0772 -0.6174
 5389TIP3    H137658   4.902   0.762  14.623  1.7367  0.4520  0.2570
 5389TIP3    H237659   4.933   0.705  14.760 -0.7443  1.0700  1.1334
 5390TIP3   OH237660   4.103   3.095   3.738  0.1241 -0.0963  0.0815
 5390TIP3    H137661   4.146   3.012   3.719  0.9858 -0.0105  1.5299
 5390TIP3    H237662   4.091   3.096   3.833  2.1771  2.3355  0.4418
 5391TIP3   OH237663   1.731   1.307  10.905 -0.4492 -0.2632 -0.1684
 5391TIP3    H137664   1.818   1.324  10.869 -0.3330 -0.6717 -0.0874
 5391TIP3    H237665   1.674   1.369  10.859 -0.3284 -0.8498 -1.1584
 5392TIP3   OH237666   5.252   0.542   5.664 -0.0408  0.1390 -0.3910
 5392TIP3    H137667   5.160   0.534   5.639  0.4222  0.6468 -2.4457
 5392TIP3    H237668   5.252   0.529   5.759 -1.9437 -2.0604 -0.5988
 5393TIP3   OH237669   5.714   5.436   0.126  0.1918  0.0320  0.4945
 5393TIP3    H137670   5.685   5.513   0.175 -1.6795  0.0167 -0.5154
 5393TIP3    H237671   5.645   5.371   0.140  1.1041 -1.0250  0.2697
 5394TIP3   OH237672   5.971   6.372   2.115  0.4775 -0.0628 -0.2822
 5394TIP3    H137673   5.985   6.421   2.196 -0.6224  1.3339 -0.8970
 5394TIP3    H237674   5.885   6.331   2.125  0.5833 -0.3442 -0.5096
 5395TIP3   OH237675   1.364   3.863   0.972 -0.1196 -0.4771  0.2062
 5395TIP3    H137676   1.340   3.913   0.894  1.3107  1.0803  0.7225
 5395TIP3    H237677   1.453   3.891   0.993 -0.6559 -0.3895  2.7275
 5396TIP3   OH237678   4.830   0.639  13.702  0.1266 -0.0037 -0.6002
 5396TIP3    H137679   4.770   0.705  13.668 -0.0035  0.5748  0.6678
 5396TIP3    H237680   4.775   0.583  13.757  1.0378  2.0416  2.7003
 5397TIP3   OH237681   0.875   2.442   0.428  0.0632  0.5687 -0.2860
 5397TIP3    H137682   0.867   2.535   0.451 -0.1998  0.5267 -0.2007
 5397TIP3    H237683   0.891   2.398   0.511 -1.7547  0.3155 -0.0376
 5398TIP3   OH237684   2.456   5.052  15.487 -0.1386  0.0451 -0.0912
 5398TIP3    H137685   2.541   5.011  15.471 -0.9949 -1.8460 -0.0550
 5398TIP3    H237686   2.433   5.026  15.577 -0.7208  0.5822 -0.0774
 5399TIP3   OH237687   3.633   4.074  11.069  0.0249  0.2354  0.3628
 5399TIP3    H137688   3.557   4.029  11.031 -0.9316  1.9021  0.1933
 5399TIP3    H237689   3.699   4.071  10.999  0.2118 -1.3768  0.5724
 5400TIP3   OH237690   0.194   3.277   3.977 -0.2974 -0.0967 -0.3029
 5400TIP3    H137691   0.234   3.364   3.980 -2.0814  0.7585  1.2518
 5400TIP3    H237692   0.131   3.282   3.905 -1.1307  0.2859  0.4314
 5401TIP3   OH237693   5.605   2.537   4.731 -0.2031  0.0223  0.0043
 5401TIP3    H137694   5.576   2.533   4.640 -2.4684 -1.1183  0.7037
 5401TIP3    H237695   5.585   2.626   4.758 -1.4132 -0.1983 -0.0841
 5402TIP3   OH237696   6.306   3.563  14.667 -0.3101 -0.1595  0.5577
 5402TIP3    H137697   6.252   3.497  14.710 -0.2474 -0.4374  0.2137
 5402TIP3    H237698   6.276   3.563  14.576  1.2988 -1.4309 -0.0138
 5403TIP3   OH237699   0.569   3.272   4.972  0.5836 -0.0955  0.6674
 5403TIP3    H137700   0.504   3.326   5.018  0.4408  0.2857  0.0337
 5403TIP3    H237701   0.543   3.182   4.990 -0.8078  0.0435 -0.5176
 5404TIP3   OH237702   5.059   4.740  14.643  0.2848 -0.0243  0.8271
 5404TIP3    H137703   5.106   4.806  14.591 -0.2271  1.3641  2.0486
 5404TIP3    H237704   5.110   4.732  14.723 -0.4032 -0.0966  1.2609
 5405TIP3   OH237705   6.239   1.183   3.161  0.0352 -0.0125  0.0999
 5405TIP3    H137706   6.198   1.269   3.154  0.7441  0.2562 -0.9093
 5405TIP3    H237707   6.165   1.122   3.169 -0.5226  0.5662 -0.5020
 5406TIP3   OH237708   2.009   2.073   1.581 -0.9557 -0.2530 -0.1093
 5406TIP3    H137709   2.069   2.126   1.528 -0.2199 -0.6123  0.3524
 5406TIP3    H237710   2.018   2.107   1.670 -0.8708 -0.8019  0.0954
 5407TIP3   OH237711   3.413   6.787  11.139  0.2732  0.6007  0.3405
 5407TIP3    H137712   3.421   6.696  11.108 -0.6242  1.0555 -1.3492
 5407TIP3    H237713   3.498   6.826  11.121 -0.0263  0.6706 -1.0140
 5408TIP3   OH237714   2.090   0.446   3.500 -0.2477 -0.1059 -0.0446
 5408TIP3    H137715   2.031   0.496   3.557 -2.2966 -1.6528 -0.6952
 5408TIP3    H237716   2.081   0.487   3.414 -0.3435 -0.3174 -0.1354
 5409TIP3   OH237717   0.192   6.183  13.579  0.3169 -0.0418 -0.0469
 5409TIP3    H137718   0.203   6.274  13.552 -0.0512  0.1256  0.3497
 5409TIP3    H237719   0.224   6.132  13.505  0.1113  0.4104 -0.4559
 5410TIP3   OH237720   0.648   5.064   6.351 -0.6046  0.5552  0.3990
 5410TIP3    H137721   0.651   5.017   6.435 -0.6587 -0.8001 -0.3229
 5410TIP3    H237722   0.580   5.019   6.301  0.3687  0.4639 -0.8737
 5411TIP3   OH237723   5.962   0.416   1.734  0.3223 -0.5887 -0.2822
 5411TIP3    H137724   6.039   0.470   1.752  0.4457 -0.6012 -0.7731
 5411TIP3    H237725   5.911   0.467   1.672 -0.0934 -0.5614  0.0756
 5412TIP3   OH237726   0.925   5.713   1.778  0.8831 -0.3860 -0.8404
 5412TIP3    H137727   0.941   5.798   1.819  2.2114 -1.5583  1.2635
 5412TIP3    H237728   0.953   5.649   1.844  2.8243 -2.4487 -3.4438
 5413TIP3   OH237729   5.055   0.060   5.171 -0.1148 -0.1217  0.4110
 5413TIP3    H137730   5.132   0.015   5.205  0.4273  1.0873  0.8242
 5413TIP3    H237731   4.991   0.056   5.242 -0.5894 -1.4158 -0.0500
 5414TIP3   OH237732   1.326   1.749  17.051 -0.5607 -0.6843  0.2481
 5414TIP3    H137733   1.269   1.800  17.109  0.0477  0.4254 -0.1107
 5414TIP3    H237734   1.266   1.701  16.994 -1.1454  0.1370  0.1578
 5415TIP3   OH237735   2.520   3.283   5.152  0.0724  0.1709  0.4237
 5415TIP3    H137736   2.579   3.343   5.107  0.3459 -0.9862 -0.8404
 5415TIP3    H237737   2.515   3.207   5.094  0.0457 -1.1917  2.1328
 5416TIP3   OH237738   2.974   4.079   2.996 -0.3618 -0.0153  0.2427
 5416TIP3    H137739   2.969   4.168   2.961 -0.2493 -0.1341 -0.0775
 5416TIP3    H237740   2.884   4.047   2.994 -0.1717 -0.5324 -1.2885
 5417TIP3   OH237741   0.978   2.363   0.668 -0.6187 -0.4183 -0.3712
 5417TIP3    H137742   0.984   2.329   0.757 -2.0267  0.2696  0.0147
 5417TIP3    H237743   0.957   2.456   0.678 -0.1338 -0.1671 -1.4302
 5418TIP3   OH237744   0.963   1.426  13.474 -0.0735 -0.0390 -0.4566
 5418TIP3    H137745   0.871   1.422  13.500  0.1956  0.7770  0.6815
 5418TIP3    H237746   0.962   1.469  13.389 -0.7834 -0.5328 -0.7065
 5419TIP3   OH237747   2.621   6.433   4.002  0.3223  0.1266  0.0009
 5419TIP3    H137748   2.633   6.357   3.946 -0.3454 -0.4931  0.6765
 5419TIP3    H237749   2.623   6.508   3.942 -0.3332 -0.5136 -0.8528
 5420TIP3   OH237750   6.791   5.747  12.225  0.5061 -0.5799 -0.0851
 5420TIP3    H137751   6.821   5.766  12.314 -1.5729 -2.2885  1.0616
 5420TIP3    H237752   6.853   5.682  12.192  1.8414  0.7414 -0.3306
 5421TIP3   OH237753   5.929   2.884  11.736  0.4844  0.8452  0.0820
 5421TIP3    H137754   5.896   2.798  11.761 -0.5906  0.6444 -1.7781
 5421TIP3    H237755   5.929   2.882  11.640  0.6248  2.8473 -0.0021
 5422TIP3   OH237756   2.665   2.448   3.421  0.6004 -0.0202  0.0799
 5422TIP3    H137757   2.710   2.517   3.371  0.8313 -0.5458 -0.4480
 5422TIP3    H237758   2.721   2.371   3.410 -0.1904 -0.5623 -0.1926
 5423TIP3   OH237759   6.142   6.149  16.567  0.0265  0.3584  0.5724
 5423TIP3    H137760   6.064   6.197  16.594 -0.7643 -0.2815 -0.4964
 5423TIP3    H237761   6.119   6.057  16.580  0.9143  0.1841  1.0134
 5424TIP3   OH237762   1.243   5.955   5.418 -0.6846  0.2059  0.4134
 5424TIP3    H137763   1.336   5.934   5.421 -0.5079  0.7473 -0.7408
 5424TIP3    H237764   1.206   5.912   5.495  0.4357 -0.4112  0.6246
 5425TIP3   OH237765   1.651   5.334   2.899 -0.3656 -0.0848 -0.6226
 5425TIP3    H137766   1.680   5.405   2.842  1.3207 -0.6322 -0.5117
 5425TIP3    H237767   1.723   5.270   2.896 -0.6166 -0.5482  1.3782
 5426TIP3   OH237768   2.728   2.378  13.984  0.3111  0.0447  0.3043
 5426TIP3    H137769   2.754   2.462  13.945 -0.6751  0.7591  1.1238
 5426TIP3    H237770   2.659   2.346  13.926  1.2478 -0.6138 -0.4642
 5427TIP3   OH237771   5.805   0.527  12.692  0.4209 -0.1573 -0.7617
 5427TIP3    H137772   5.881   0.497  12.741 -0.4043  1.3173  1.5894
 5427TIP3    H237773   5.797   0.465  12.619  1.6873 -2.5107  0.9821
 5428TIP3   OH237774   1.809   1.384  10.313  0.1378  0.0789  0.3204
 5428TIP3    H137775   1.882   1.332  10.280 -0.2694  0.4004 -1.1711
 5428TIP3    H237776   1.846   1.472  10.324 -0.2891  0.5761 -1.7342
 5429TIP3   OH237777   1.639   5.532   3.308 -0.2268  0.0362 -0.1070
 5429TIP3    H137778   1.574   5.599   3.287 -0.9408 -0.5583  0.1863
 5429TIP3    H237779   1.591   5.449   3.301  0.2749 -0.3555  0.9768
 5430TIP3   OH237780   3.331   1.977   1.207 -0.4206 -0.0740  0.7879
 5430TIP3    H137781   3.418   1.991   1.246  0.6193 -0.1629 -1.3591
 5430TIP3    H237782   3.297   2.065   1.193 -0.7368 -0.0393  1.7038
 5431TIP3   OH237783   2.861   5.205  12.158  0.1795  0.4129  0.2582
 5431TIP3    H137784   2.956   5.212  12.144 -0.0690  1.3373 -1.1284
 5431TIP3    H237785   2.832   5.295  12.171 -0.4740  0.0990  1.0779
 5432TIP3   OH237786   1.658   0.967   0.962 -0.1102 -0.4210 -0.1758
 5432TIP3    H137787   1.709   1.003   1.034 -0.8041 -0.5038  0.3710
 5432TIP3    H237788   1.569   1.000   0.977 -0.0291  0.5562 -1.6752
 5433TIP3   OH237789   0.160   0.047  16.244 -0.7414 -0.2470 -0.2183
 5433TIP3    H137790   0.206   0.125  16.212  0.1148 -1.3848 -1.8500
 5433TIP3    H237791   0.217   0.013  16.313 -0.6140  0.0085 -0.1955
 5434TIP3   OH237792   0.959   5.057  11.752  0.0243  0.5772  0.5586
 5434TIP3    H137793   0.896   5.120  11.786 -1.6593  1.1783 -3.1300
 5434TIP3    H237794   1.001   5.102  11.678  1.6433 -1.3251  0.2176
 5435TIP3   OH237795   6.375   1.467   1.372  0.1545 -0.2818 -0.4411
 5435TIP3    H137796   6.395   1.552   1.334 -0.7607  0.6724  1.0851
 5435TIP3    H237797   6.355   1.411   1.297  2.8009  0.2145 -1.6346
 5436TIP3   OH237798   5.877   5.186  12.448  0.2371  0.2773  0.1463
 5436TIP3    H137799   5.860   5.279  12.462 -0.4182 -0.0245  1.6068
 5436TIP3    H237800   5.961   5.170  12.492  0.4598  0.2103 -0.2958
 5437TIP3   OH237801   6.645   4.218   2.447 -0.0709 -0.6394 -0.3224
 5437TIP3    H137802   6.669   4.140   2.498 -0.1582 -0.4808 -0.0354
 5437TIP3    H237803   6.550   4.212   2.438 -0.2843  0.2344  1.0481
 5438TIP3   OH237804   5.852   3.734   3.216  0.2509  0.0436  0.0528
 5438TIP3    H137805   5.774   3.680   3.229 -0.3387  0.8731 -0.0270
 5438TIP3    H237806   5.838   3.812   3.268  1.5837 -0.3212  1.0194
 5439TIP3   OH237807   6.566   4.271  13.076 -0.7330  0.3561 -0.5480
 5439TIP3    H137808   6.479   4.311  13.086 -0.4805  0.7745  0.0232
 5439TIP3    H237809   6.607   4.282  13.162  0.4473  1.4781 -1.2300
 5440TIP3   OH237810   5.073   1.718  11.024  0.2848 -0.2064 -0.1847
 5440TIP3    H137811   5.082   1.623  11.020  0.4543 -0.1551 -1.2228
 5440TIP3    H237812   5.126   1.751  10.952 -1.1262  0.5755 -0.9140
 5441TIP3   OH237813   1.600   1.368  15.083  0.1778  0.5660  0.4367
 5441TIP3    H137814   1.626   1.320  15.161  1.0577  1.3038  0.6166
 5441TIP3    H237815   1.682   1.384  15.036 -0.2354  0.8828 -0.1999
 5442TIP3   OH237816   6.597   4.582   4.304  0.2069 -0.7881 -0.2639
 5442TIP3    H137817   6.502   4.593   4.292  0.5056  0.4939 -1.8777
 5442TIP3    H237818   6.615   4.619   4.390 -0.5606  0.4617 -0.6110
 5443TIP3   OH237819   5.196   2.990   4.409  0.0989 -0.0009  0.2815
 5443TIP3    H137820   5.192   2.896   4.393  1.8903  0.1396 -1.3703
 5443TIP3    H237821   5.196   3.029   4.321  0.1244  1.5024  0.9169
 5444TIP3   OH237822   6.760   5.074  14.180  0.2554 -0.9715 -0.1785
 5444TIP3    H137823   6.729   5.162  14.205 -1.1078 -1.2356 -0.8255
 5444TIP3    H237824   6.802   5.087  14.095  0.8125 -0.8243  0.1117
 5445TIP3   OH237825   2.345   2.923   3.447 -0.1003 -0.0059  0.0682
 5445TIP3    H137826   2.324   2.957   3.534 -2.7248 -0.6538 -0.2149
 5445TIP3    H237827   2.379   2.835   3.463 -0.4640 -0.0793  0.4532
 5446TIP3   OH237828   3.632   4.837   6.242  0.5191  0.1041  0.3266
 5446TIP3    H137829   3.623   4.927   6.272  2.1894  0.2405  0.4760
 5446TIP3    H237830   3.547   4.818   6.200  0.3203  1.9169 -0.1985
 5447TIP3   OH237831   2.619   4.907   0.820 -0.2383 -0.4287  0.0332
 5447TIP3    H137832   2.643   4.819   0.848  0.2998 -0.0361  0.8644
 5447TIP3    H237833   2.671   4.922   0.740 -0.3094 -0.8492 -0.0915
 5448TIP3   OH237834   6.659   0.059  16.645 -0.0391 -0.2086  0.8717
 5448TIP3    H137835   6.601   0.115  16.595 -1.6480 -2.1282  0.4406
 5448TIP3    H237836   6.740   0.056  16.594 -0.4682  0.4824  0.1304
 5449TIP3   OH237837   0.514   1.448  12.646 -0.5012 -0.5816 -0.4670
 5449TIP3    H137838   0.542   1.448  12.738  0.4819 -0.1269 -0.7533
 5449TIP3    H237839   0.548   1.365  12.612  0.6299  0.0255 -0.8462
 5450TIP3   OH237840   5.334   6.291   2.714 -0.0915 -0.0869 -0.6818
 5450TIP3    H137841   5.244   6.320   2.730  0.2671 -0.2153  1.8952
 5450TIP3    H237842   5.324   6.211   2.662 -1.6549 -1.3933  1.4532
 5451TIP3   OH237843   5.382   3.558  11.239  0.2758 -0.5729  0.3750
 5451TIP3    H137844   5.422   3.618  11.177 -1.4536 -0.1314 -0.3553
 5451TIP3    H237845   5.455   3.504  11.270  1.4152  0.1469 -0.9407
 5452TIP3   OH237846   1.113   1.653  11.784 -0.0314 -0.0688  0.3067
 5452TIP3    H137847   1.133   1.560  11.775  1.9549  0.2631  0.8302
 5452TIP3    H237848   1.072   1.660  11.871 -0.5471 -0.4916  0.1034
 5453TIP3   OH237849   2.835   6.078  12.209 -0.1161  0.0865 -0.7107
 5453TIP3    H137850   2.812   6.001  12.261 -0.4970 -0.1143 -1.1761
 5453TIP3    H237851   2.925   6.061  12.181  1.1321  1.4230  2.1229
 5454TIP3   OH237852   0.699   4.538   5.116 -0.0101  0.7768  0.1862
 5454TIP3    H137853   0.678   4.463   5.172 -2.0829  0.1978 -1.2784
 5454TIP3    H237854   0.699   4.612   5.176 -2.1444  0.1704  1.0404
 5455TIP3   OH237855   3.589   0.459  13.049 -0.1999 -0.1160 -0.5024
 5455TIP3    H137856   3.550   0.402  12.982 -0.9449 -0.9311  0.5766
 5455TIP3    H237857   3.638   0.524  13.000 -0.3838 -0.9352 -1.8269
 5456TIP3   OH237858   2.928   4.315   2.849 -0.0317 -0.5348  0.6856
 5456TIP3    H137859   2.836   4.291   2.865 -0.1045  0.4102  1.9224
 5456TIP3    H237860   2.928   4.411   2.853  0.9690 -0.5188  0.4573
 5457TIP3   OH237861   1.600   1.254  12.130 -0.4946  0.2007 -0.0071
 5457TIP3    H137862   1.579   1.175  12.080  0.8257 -0.4583  0.4433
 5457TIP3    H237863   1.628   1.222  12.216 -1.4036  1.2526  0.7232
 5458TIP3   OH237864   4.236   2.698  12.252  0.7607  0.4828  0.0714
 5458TIP3    H137865   4.231   2.707  12.347 -0.6128  1.3349 -0.0678
 5458TIP3    H237866   4.264   2.607  12.239  0.8878  0.3273  1.2716
 5459TIP3   OH237867   2.266   5.623  16.310 -0.3092  0.3464 -0.3386
 5459TIP3    H137868   2.195   5.678  16.342 -1.3098 -0.0311 -1.8136
 5459TIP3    H237869   2.342   5.681  16.307 -0.1939  0.4617  2.4010
 5460TIP3   OH237870   5.791   4.053  16.437 -0.2599 -0.2963  0.2172
 5460TIP3    H137871   5.720   4.054  16.501  0.4616  1.6261  1.0767
 5460TIP3    H237872   5.867   4.022  16.487 -0.1161 -0.7108 -0.2520
 5461TIP3   OH237873   3.379   4.236  14.116  0.2975  0.2705  0.1486
 5461TIP3    H137874   3.429   4.253  14.037  1.4563  2.0532  1.1795
 5461TIP3    H237875   3.328   4.316  14.131  0.8258  0.3666  1.6784
 5462TIP3   OH237876   5.927   3.375   4.902 -0.2492 -0.0259  0.5457
 5462TIP3    H137877   6.008   3.413   4.937 -0.6026  0.3195  0.9950
 5462TIP3    H237878   5.930   3.283   4.930  0.2851 -0.1679  0.0286
 5463TIP3   OH237879   2.524   1.193   2.237 -0.7079 -0.3535  0.1308
 5463TIP3    H137880   2.612   1.176   2.202 -0.1926  1.2168  0.5789
 5463TIP3    H237881   2.539   1.216   2.328 -1.5381  0.4230  0.0790
 5464TIP3   OH237882   2.949   2.535   1.886 -0.3326 -0.2524 -0.0899
 5464TIP3    H137883   2.861   2.500   1.873 -0.6544  0.4788  0.0405
 5464TIP3    H237884   2.936   2.630   1.891  0.2695 -0.2228  1.3716
 5465TIP3   OH237885   0.435   4.792   0.043  0.2195 -0.4963 -0.2206
 5465TIP3    H137886   0.395   4.856   0.102  1.8461 -2.0225  2.7786
 5465TIP3    H237887   0.364   4.765  -0.015 -1.1493  2.0694  0.0953
 5466TIP3   OH237888   0.758   0.674   2.716 -0.3035 -0.1705 -0.0360
 5466TIP3    H137889   0.729   0.764   2.697 -1.3383 -1.1859 -4.3532
 5466TIP3    H237890   0.689   0.619   2.679  1.6461 -2.7417 -0.1016
 5467TIP3   OH237891   1.584   2.669  13.480 -0.2582  0.3739 -0.3618
 5467TIP3    H137892   1.550   2.634  13.562 -0.3533  0.2438 -0.4553
 5467TIP3    H237893   1.677   2.645  13.480 -0.9717 -3.0626 -2.0156
 5468TIP3   OH237894   0.505   6.000  15.034 -0.4059 -0.4112  0.8186
 5468TIP3    H137895   0.463   5.916  15.053 -1.1093 -0.4269 -0.6141
 5468TIP3    H237896   0.553   5.984  14.952 -1.2672  0.8044  0.0526
 5469TIP3   OH237897   5.095   6.438  15.861 -0.2848 -0.3588  0.1842
 5469TIP3    H137898   5.114   6.361  15.914 -2.1025 -2.6370 -2.2130
 5469TIP3    H237899   5.000   6.451  15.870 -0.5671 -0.5278 -2.0393
 5470TIP3   OH237900   6.739   4.778  16.058 -0.1582 -0.7767  0.5469
 5470TIP3    H137901   6.651   4.794  16.025  0.1482 -0.0183  0.0602
 5470TIP3    H237902   6.766   4.696  16.015 -0.0044 -0.1321 -0.6241
 5471TIP3   OH237903   3.145   3.164   5.718 -0.1148  0.4322  0.7438
 5471TIP3    H137904   3.152   3.179   5.812  0.7015  1.1119  0.5829
 5471TIP3    H237905   3.052   3.146   5.703 -0.0464 -1.0005  1.8620
 5472TIP3   OH237906   6.223   0.605  12.471  0.5235  0.0379 -0.2969
 5472TIP3    H137907   6.214   0.575  12.561 -0.9946  0.1657 -0.3778
 5472TIP3    H237908   6.188   0.694  12.472 -0.5578 -0.3632 -1.2230
 5473TIP3   OH237909   4.641   1.892  16.359  0.1957  0.5382  0.1566
 5473TIP3    H137910   4.638   1.797  16.361 -1.3220  0.4641 -2.3045
 5473TIP3    H237911   4.732   1.913  16.335  1.0227 -0.1344  2.4073
 5474TIP3   OH237912   3.392   3.861   1.139 -0.1351  0.0357  0.3693
 5474TIP3    H137913   3.425   3.893   1.055 -0.6339 -0.3502  0.0181
 5474TIP3    H237914   3.355   3.939   1.181  1.4445  0.5286  0.8934
 5475TIP3   OH237915   0.103   0.782   1.513 -0.7946 -0.1205  0.0473
 5475TIP3    H137916   0.061   0.857   1.556  0.8092  0.8003  0.0958
 5475TIP3    H237917   0.187   0.773   1.558  0.3063 -0.0529 -1.8715
 5476TIP3   OH237918   4.884   2.592  16.866  0.1704 -0.0300 -0.5906
 5476TIP3    H137919   4.828   2.537  16.811  1.3332  0.1181 -1.9850
 5476TIP3    H237920   4.917   2.533  16.934 -2.9382  0.2407  1.3510
 5477TIP3   OH237921   4.660   3.517  15.259  0.1728 -0.2128  0.3377
 5477TIP3    H137922   4.730   3.523  15.323  0.2313  2.4924  0.1592
 5477TIP3    H237923   4.697   3.554  15.179 -0.8398 -0.6430 -0.3627
 5478TIP3   OH237924   6.514   3.624  15.142 -0.5443  0.3282 -0.1446
 5478TIP3    H137925   6.453   3.694  15.163 -2.4687 -1.0717 -0.7255
 5478TIP3    H237926   6.492   3.598  15.053  1.8764  0.6579 -0.9156
 5479TIP3   OH237927   6.635   3.323   5.930  0.3744 -0.3364  0.1510
 5479TIP3    H137928   6.668   3.367   6.008 -2.1791  0.4137  0.9094
 5479TIP3    H237929   6.557   3.275   5.960 -0.0266 -0.9573 -1.7150
 5480TIP3   OH237930   0.175   2.813  14.686  0.1169  0.2626 -0.6890
 5480TIP3    H137931   0.231   2.889  14.675  0.5925 -0.1509 -1.2337
 5480TIP3    H237932   0.094   2.847  14.722  0.6887  0.8853  0.0250
 5481TIP3   OH237933   3.338   0.967  17.022  0.7712 -0.6025 -0.3184
 5481TIP3    H137934   3.291   1.046  16.996 -0.3225 -0.9812  0.4741
 5481TIP3    H237935   3.407   0.998  17.080  0.2963 -0.2361  0.0520
 5482TIP3   OH237936   2.332   3.126   6.037  0.5419  0.5927  0.5174
 5482TIP3    H137937   2.422   3.103   6.062  0.1214 -0.4333  1.1231
 5482TIP3    H237938   2.321   3.091   5.949  0.4409 -0.0893  0.7995
 5483TIP3   OH237939   3.595   3.859  14.397  0.2014  0.1101 -0.6459
 5483TIP3    H137940   3.557   3.903  14.320 -4.1486 -2.0123  0.0026
 5483TIP3    H237941   3.599   3.928  14.464 -0.9760  0.8131 -1.2637
 5484TIP3   OH237942   2.081   5.779   4.219 -0.2270  0.2289  0.3111
 5484TIP3    H137943   2.002   5.820   4.255  1.3982  3.2437  0.7074
 5484TIP3    H237944   2.150   5.802   4.280  1.9168  2.1171 -2.5864
 5485TIP3   OH237945   4.872   4.681   2.383  0.9023 -0.4883  0.0895
 5485TIP3    H137946   4.936   4.625   2.426  2.4507  0.1635 -1.2487
 5485TIP3    H237947   4.873   4.652   2.291 -0.4481 -0.1871 -0.0488
 5486TIP3   OH237948   2.718   4.177  15.055 -0.6473  0.3798  0.4595
 5486TIP3    H137949   2.801   4.130  15.060 -0.3326  0.7452 -0.8987
 5486TIP3    H237950   2.681   4.170  15.143  0.6463 -0.1037  0.9889
 5487TIP3   OH237951   2.276   6.094   3.469  0.6432 -0.2341  0.4268
 5487TIP3    H137952   2.305   6.122   3.555  0.3976 -1.2413  0.8516
 5487TIP3    H237953   2.323   6.012   3.453 -0.3621 -0.7897  0.2235
 5488TIP3   OH237954   2.445   4.694  16.434 -0.5759 -0.1187 -0.3597
 5488TIP3    H137955   2.513   4.630  16.417  0.4283 -0.1891  3.0462
 5488TIP3    H237956   2.484   4.778  16.410  0.0321 -0.3399 -0.1657
 5489TIP3   OH237957   0.148   1.212   3.971  0.6720  0.3189 -0.2056
 5489TIP3    H137958   0.107   1.291   3.939  0.8220  0.1669 -0.7968
 5489TIP3    H237959   0.111   1.142   3.917  1.8028  0.2003 -0.8766
 5490TIP3   OH237960   6.115   0.405   0.017  0.2511 -0.7642  0.0804
 5490TIP3    H137961   6.160   0.419   0.101  1.7309 -0.0348 -0.7758
 5490TIP3    H237962   6.186   0.389  -0.046 -0.9104 -3.2531 -0.7324
 5491TIP3   OH237963   4.866   3.440  12.668  0.2493 -0.2746 -0.1497
 5491TIP3    H137964   4.893   3.391  12.591  0.4529 -2.1489  1.0631
 5491TIP3    H237965   4.940   3.499  12.686  0.7664 -0.7685 -0.6130
 5492TIP3   OH237966   2.160   2.388  14.691 -0.1915  0.3920  0.2027
 5492TIP3    H137967   2.148   2.381  14.786 -0.3365 -3.0634  0.0260
 5492TIP3    H237968   2.253   2.404  14.680  0.1017 -0.6846  0.9366
 5493TIP3   OH237969   2.383   6.167  11.726  0.2018  0.0509 -0.6018
 5493TIP3    H137970   2.476   6.182  11.742 -0.0446  1.1518 -0.1383
 5493TIP3    H237971   2.344   6.162  11.814  0.0288 -1.9341 -0.7359
 5494TIP3   OH237972   4.734   4.919  12.370 -0.4410  0.3105  0.0613
 5494TIP3    H137973   4.765   4.995  12.420 -0.1586 -0.9264  1.8923
 5494TIP3    H237974   4.646   4.944  12.341  0.0594  1.7220 -0.3114
 5495TIP3   OH237975   1.408   2.178  11.602  0.2640 -0.1087  0.0182
 5495TIP3    H137976   1.354   2.149  11.675  0.4303  1.1966  0.6875
 5495TIP3    H237977   1.349   2.227  11.546  0.4053 -0.0652 -0.0943
 5496TIP3   OH237978   6.194   1.000  11.772  0.1121 -0.5760  0.0494
 5496TIP3    H137979   6.170   1.028  11.860  0.3401 -0.8574  0.2027
 5496TIP3    H237980   6.282   0.964  11.781  0.7858  0.8160 -0.5712
 5497TIP3   OH237981   1.876   4.919   1.386  0.1949 -0.1422  0.2154
 5497TIP3    H137982   1.803   4.960   1.432  0.7446  1.7864 -0.5497
 5497TIP3    H237983   1.874   4.957   1.298  0.4037 -2.2229 -0.7675
 5498TIP3   OH237984   0.312   2.408   5.164 -0.9096 -0.2527 -0.1879
 5498TIP3    H137985   0.240   2.349   5.187 -1.4058  0.5857  0.5045
 5498TIP3    H237986   0.279   2.495   5.188  0.1174  0.2075 -0.4092
 5499TIP3   OH237987   1.491   4.846   6.027 -0.5854  0.2330 -0.2545
 5499TIP3    H137988   1.488   4.775   5.962  2.2670 -0.0354 -0.1965
 5499TIP3    H237989   1.580   4.881   6.021 -0.7275  1.2959  2.3808
 5500TIP3   OH237990   4.675   0.376  12.389  0.0500  0.0651  0.2557
 5500TIP3    H137991   4.679   0.427  12.308  0.0769  0.2539  0.3745
 5500TIP3    H237992   4.597   0.408  12.434  0.1485  0.1067  0.3994
 5501TIP3   OH237993   3.991   0.391   1.239  0.2150 -0.0558 -0.9405
 5501TIP3    H137994   3.972   0.476   1.280 -0.1208 -1.2053  1.4636
 5501TIP3    H237995   4.086   0.385   1.238  0.2628  0.5617 -1.6934
 5502TIP3   OH237996   0.308   2.592  13.839  0.5541 -0.6768  0.1620
 5502TIP3    H137997   0.300   2.519  13.901 -0.0263  0.5125  1.5218
 5502TIP3    H237998   0.301   2.670  13.893 -2.6192  0.4664 -1.6735
 5503TIP3   OH237999   6.833   1.048  15.471  0.7102 -0.5571  0.6898
 5503TIP3    H138000   6.782   1.107  15.526 -0.2673 -1.2088  0.5173
 5503TIP3    H238001   6.913   1.032  15.521  1.2675  1.3439  0.4782
 5504TIP3   OH238002   3.366   4.956   4.195 -0.4071 -0.2586  0.0272
 5504TIP3    H138003   3.430   4.997   4.253 -0.8094  1.7922 -0.8781
 5504TIP3    H238004   3.403   4.966   4.107 -0.2734 -2.4210 -0.2269
 5505TIP3   OH238005   4.932   1.116   1.178 -0.2904  0.6876 -0.3164
 5505TIP3    H138006   4.911   1.112   1.085 -1.2427 -1.4756 -0.0536
 5505TIP3    H238007   4.934   1.025   1.207  1.2710  1.2388  1.5262
 5506TIP3   OH238008   3.769   0.841  11.409 -0.2911 -0.2551 -0.1863
 5506TIP3    H138009   3.789   0.777  11.477 -1.4052  0.1262  0.5286
 5506TIP3    H238010   3.736   0.789  11.336  2.4242 -0.8217 -1.1043
 5507TIP3   OH238011   5.298   6.032  15.491 -0.1372 -0.4528 -0.2430
 5507TIP3    H138012   5.311   5.965  15.424  1.1641  1.3575 -1.9255
 5507TIP3    H238013   5.224   6.084  15.459  0.2730  0.2246 -0.1147
 5508TIP3   OH238014   1.795   4.740   0.762 -0.0248 -0.6409 -0.4935
 5508TIP3    H138015   1.753   4.755   0.677  1.3878  0.3706 -1.0443
 5508TIP3    H238016   1.871   4.685   0.742 -0.3889 -1.4821  0.3290
 5509TIP3   OH238017   3.890   2.820   3.528  0.1771  0.4735 -0.2651
 5509TIP3    H138018   3.890   2.756   3.599  1.9296 -0.3447 -0.9440
 5509TIP3    H238019   3.820   2.790   3.469 -1.3214  1.1828  1.0720
 5510TIP3   OH238020   3.875   3.448   1.886 -0.0382  0.1056  0.0527
 5510TIP3    H138021   3.805   3.441   1.952 -0.0367  1.5662  0.2330
 5510TIP3    H238022   3.889   3.357   1.857 -0.9884 -0.3946  1.0667
 5511TIP3   OH238023   4.308   4.994   3.588  0.0418 -0.2366  0.3014
 5511TIP3    H138024   4.308   4.982   3.683 -1.1129 -1.1394  0.2123
 5511TIP3    H238025   4.236   4.939   3.557  1.0215 -0.7310 -1.1966
 5512TIP3   OH238026   6.347   3.817  12.780 -0.2324 -0.2172  0.1097
 5512TIP3    H138027   6.428   3.787  12.820  1.7467  0.2623 -3.1624
 5512TIP3    H238028   6.359   3.911  12.768 -1.1143 -0.1849 -0.6798
 5513TIP3   OH238029   5.723   5.982   3.823  0.2126 -0.5441  0.0384
 5513TIP3    H138030   5.694   6.060   3.871  0.7325 -0.9199  1.0026
 5513TIP3    H238031   5.648   5.923   3.826  0.0895 -0.3911 -0.0032
 5514TIP3   OH238032   0.664   3.535  16.563  0.2580  0.3559  0.3908
 5514TIP3    H138033   0.703   3.505  16.644 -0.9624  0.9996  1.2532
 5514TIP3    H238034   0.663   3.457  16.506  0.8244 -0.1760  1.0965
 5515TIP3   OH238035   0.698   1.961  15.329 -0.3037 -0.3024 -0.4721
 5515TIP3    H138036   0.696   1.920  15.415  0.1715 -0.8580 -0.7159
 5515TIP3    H238037   0.608   1.989  15.313 -0.9452 -2.3355 -0.8037
 5516TIP3   OH238038   5.927   2.268  16.148  0.4070  0.1499  0.0642
 5516TIP3    H138039   5.939   2.303  16.059 -0.1257 -0.1602 -0.1383
 5516TIP3    H238040   5.881   2.337  16.195  2.5613  1.2189  0.7526
 5517TIP3   OH238041   1.560   4.793   5.388  0.3054  0.6668 -0.0426
 5517TIP3    H138042   1.623   4.833   5.447 -0.3836 -0.3617  1.4717
 5517TIP3    H238043   1.486   4.769   5.445 -1.6046  2.0817 -1.7675
 5518TIP3   OH238044   0.874   5.525  13.316 -0.1027  0.0502 -0.7058
 5518TIP3    H138045   0.799   5.486  13.271 -1.9068  1.7332  0.6356
 5518TIP3    H238046   0.880   5.476  13.398 -0.1352  0.3093 -0.5484
 5519TIP3   OH238047   4.048   5.541   1.754  0.0323 -0.2346  0.3870
 5519TIP3    H138048   3.971   5.528   1.698  0.1585  2.6576 -0.6114
 5519TIP3    H238049   4.012   5.578   1.835  0.2250 -0.5573  0.6210
 5520TIP3   OH238050   5.371   0.675  13.779  0.0314 -0.6165 -0.0604
 5520TIP3    H138051   5.373   0.631  13.864  0.7666  0.3136  0.4215
 5520TIP3    H238052   5.441   0.633  13.729  2.3556  1.4686  1.2009
 5521TIP3   OH238053   6.185   2.578   4.932  0.2355 -0.1825  0.2241
 5521TIP3    H138054   6.244   2.626   4.874 -0.5227  2.8335  1.7609
 5521TIP3    H238055   6.156   2.503   4.880  0.6929  1.5424 -2.7580
 5522TIP3   OH238056   6.264   5.091  10.926  0.1909 -0.1449  0.1537
 5522TIP3    H138057   6.321   5.167  10.935  0.5213 -0.2306 -1.0798
 5522TIP3    H238058   6.177   5.123  10.949  0.3747  0.5475 -0.0913
 5523TIP3   OH238059   1.628   0.052   1.112 -0.2266 -0.2121  0.4588
 5523TIP3    H138060   1.612   0.063   1.019 -2.2717 -1.4652  0.6030
 5523TIP3    H238061   1.719   0.023   1.117 -0.3186 -0.9080 -1.2241
 5524TIP3   OH238062   1.272   2.842   0.808  0.2646 -0.0822  0.3425
 5524TIP3    H138063   1.338   2.888   0.757 -1.6958  0.5797 -1.8012
 5524TIP3    H238064   1.274   2.752   0.774 -2.9708  0.9664 -3.3441
 5525TIP3   OH238065   6.196   2.061   4.708 -0.4183 -0.3478 -0.3080
 5525TIP3    H138066   6.172   1.976   4.745  1.7807 -1.7073 -1.7907
 5525TIP3    H238067   6.251   2.102   4.774  0.6864 -1.2715 -0.6295
 5526TIP3   OH238068   3.863   3.346   0.604  0.1346  0.0052  0.2511
 5526TIP3    H138069   3.914   3.364   0.525 -0.8964 -2.1678 -0.9822
 5526TIP3    H238070   3.926   3.312   0.667  0.7249  0.4217 -0.1075
 5527TIP3   OH238071   6.281   6.719  14.167 -0.1547 -0.0549  0.1673
 5527TIP3    H138072   6.351   6.783  14.155 -1.8189  1.7077 -0.5552
 5527TIP3    H238073   6.302   6.650  14.104  0.8237  0.5228 -0.1725
 5528TIP3   OH238074   4.128   3.941   0.098  0.1041 -0.2003  0.2564
 5528TIP3    H138075   4.090   3.929   0.185  0.7072 -3.0784  0.2172
 5528TIP3    H238076   4.074   4.008   0.057 -1.2069  0.0508  2.2657
 5529TIP3   OH238077   2.594   3.044   6.025  0.5781  0.0798  0.3121
 5529TIP3    H138078   2.628   3.132   6.035  0.3428  0.3619 -1.1229
 5529TIP3    H238079   2.626   3.015   5.939  0.6618 -1.2269  0.7652
 5530TIP3   OH238080   3.527   5.744   2.834  0.3115  0.1592  0.1166
 5530TIP3    H138081   3.501   5.824   2.880 -0.1454  0.5241 -0.7582
 5530TIP3    H238082   3.566   5.775   2.753  0.3220 -0.5010 -0.1332
 5531TIP3   OH238083   1.899   0.745   2.777  0.4471 -0.3387 -0.0651
 5531TIP3    H138084   1.961   0.777   2.843  0.2352 -0.4719  0.2020
 5531TIP3    H238085   1.922   0.653   2.765 -0.1847 -0.5924  0.6021
 5532TIP3   OH238086   4.687   4.853   3.619 -0.2501  0.5759  0.0620
 5532TIP3    H138087   4.667   4.904   3.541 -0.2186 -0.1553 -0.4276
 5532TIP3    H238088   4.667   4.763   3.595  1.3754  0.1198  0.3285
 5533TIP3   OH238089   0.034   4.326   0.324 -0.5650  0.1641  0.0658
 5533TIP3    H138090   0.104   4.379   0.285  0.3257 -1.6482 -0.9296
 5533TIP3    H238091   0.005   4.270   0.252  0.1692 -2.3430  1.6230
 5534TIP3   OH238092   0.101   5.645   1.439 -0.3208  0.1250 -0.5604
 5534TIP3    H138093   0.113   5.558   1.476  1.9475 -0.1310 -1.7401
 5534TIP3    H238094   0.080   5.629   1.347  2.5445  0.7617 -1.4077
 5535TIP3   OH238095   1.297   0.874  13.278 -0.2116  0.7541  0.3319
 5535TIP3    H138096   1.387   0.854  13.304 -0.1328 -0.0559 -0.5025
 5535TIP3    H238097   1.275   0.805  13.215 -0.7909  1.9682 -0.8193
 5536TIP3   OH238098   0.552   6.540  11.330 -0.5943 -0.3381  0.5517
 5536TIP3    H138099   0.549   6.612  11.393 -1.5111 -0.4635  0.6662
 5536TIP3    H238100   0.581   6.465  11.381 -1.6904 -0.5259  0.9358
 5537TIP3   OH238101   5.808   6.574   0.491 -0.2304 -0.1560  0.3588
 5537TIP3    H138102   5.755   6.498   0.468  0.2302 -0.5470  0.5846
 5537TIP3    H238103   5.887   6.566   0.438 -0.8327  0.9836 -0.7633
 5538TIP3   OH238104   5.098   2.311   1.512  0.3773 -0.5831  0.4616
 5538TIP3    H138105   5.104   2.394   1.560  0.8769 -0.2656 -0.1376
 5538TIP3    H238106   5.175   2.310   1.456 -0.6570 -0.5000 -1.0411
 5539TIP3   OH238107   2.646   0.474  11.631 -0.2618 -0.3559 -0.1642
 5539TIP3    H138108   2.581   0.541  11.606 -0.0331  0.1075  0.4444
 5539TIP3    H238109   2.687   0.448  11.549 -0.1639  0.4584 -0.3799
 5540TIP3   OH238110   3.094   1.199   2.604 -0.3076 -0.1969 -0.4519
 5540TIP3    H138111   3.167   1.260   2.614 -1.9260  1.9559 -1.2296
 5540TIP3    H238112   3.078   1.167   2.693 -0.0203  1.2378  0.1384
 5541TIP3   OH238113   5.823   2.421  16.642 -0.0471 -0.3689  0.4088
 5541TIP3    H138114   5.743   2.473  16.648 -0.4172 -0.8130 -0.3712
 5541TIP3    H238115   5.860   2.423  16.729 -0.4806  0.5302  0.5832
 5542TIP3   OH238116   6.390   4.120   1.330 -0.6213  0.6497  0.2551
 5542TIP3    H138117   6.350   4.168   1.258 -1.6718  0.8077  0.9180
 5542TIP3    H238118   6.410   4.033   1.293 -1.3724  0.6450 -0.1588
 5543TIP3   OH238119   5.960   4.788  14.246  0.5050  0.2615 -0.2551
 5543TIP3    H138120   5.966   4.734  14.324 -0.2612 -0.2967 -0.5649
 5543TIP3    H238121   6.050   4.796  14.214  0.5534 -1.3853 -0.5750
 5544TIP3   OH238122   0.243   3.753   2.802  0.1288 -0.1770 -0.4483
 5544TIP3    H138123   0.308   3.817   2.773 -1.1007  0.4258 -2.0584
 5544TIP3    H238124   0.254   3.679   2.743 -1.5727  0.5513 -1.7846
 5545TIP3   OH238125   4.555   3.166  14.825 -0.4700 -0.3028  0.2251
 5545TIP3    H138126   4.630   3.209  14.868 -0.5054  0.4843 -0.4664
 5545TIP3    H238127   4.489   3.159  14.894 -0.0663 -0.2322  0.6257
 5546TIP3   OH238128   0.835   1.379   1.639  0.0366  0.6764 -0.0099
 5546TIP3    H138129   0.861   1.381   1.547 -1.2485  0.4285 -0.4037
 5546TIP3    H238130   0.752   1.427   1.641 -1.2304 -1.4038  0.5535
 5547TIP3   OH238131   3.727   6.301   1.110 -0.6311  1.0805 -0.2843
 5547TIP3    H138132   3.779   6.280   1.188 -0.3944 -1.2878 -1.0071
 5547TIP3    H238133   3.644   6.256   1.123 -0.0384 -0.6132 -2.0151
 5548TIP3   OH238134   1.819   3.427  12.900 -0.3146  0.1187 -0.5072
 5548TIP3    H138135   1.832   3.519  12.920  0.4281 -0.0656 -0.1096
 5548TIP3    H238136   1.830   3.422  12.805  1.1123  0.2204 -0.3672
 5549TIP3   OH238137   2.362   5.572   1.794  0.4654  0.2838  0.4789
 5549TIP3    H138138   2.361   5.643   1.730 -1.0741  1.5887  1.8733
 5549TIP3    H238139   2.410   5.501   1.750  2.7061  2.3776 -0.6906
 5550TIP3   OH238140   0.047   4.966   0.520 -0.2038  0.5012  0.3697
 5550TIP3    H138141   0.120   4.964   0.582 -0.0100  3.2876  0.3385
 5550TIP3    H238142   0.080   5.014   0.445 -1.1808 -0.8365 -0.9818
 5551TIP3   OH238143   5.093   1.658   3.055 -0.0801  0.2853 -0.3836
 5551TIP3    H138144   5.044   1.604   3.117  1.5844  1.1658  1.8271
 5551TIP3    H238145   5.128   1.596   2.991  0.1168 -1.0068  0.9311
 5552TIP3   OH238146   2.881   0.782   5.319  0.0239  0.0883 -0.3730
 5552TIP3    H138147   2.795   0.795   5.279 -0.0341  1.7701  0.2493
 5552TIP3    H238148   2.879   0.691   5.351 -2.0942  0.5492  0.9905
 5553TIP3   OH238149   6.684   4.782   2.226 -0.1691  0.3824 -0.4635
 5553TIP3    H138150   6.714   4.749   2.311 -0.4568  0.7574 -0.2100
 5553TIP3    H238151   6.612   4.724   2.202  0.6428 -0.4350 -1.0086
 5554TIP3   OH238152   1.801   4.969  16.856 -0.0259  0.4752 -0.1152
 5554TIP3    H138153   1.893   4.982  16.832 -0.0629 -0.3478 -0.7403
 5554TIP3    H238154   1.787   5.028  16.931  1.2234  0.0245  0.5015
 5555TIP3   OH238155   2.007   1.644   1.281 -0.3667 -0.3477 -0.2649
 5555TIP3    H138156   2.058   1.604   1.210 -2.1018 -1.6476 -0.8548
 5555TIP3    H238157   1.939   1.694   1.236 -1.9429 -1.7880  0.4020
 5556TIP3   OH238158   4.815   6.630  15.274 -0.2041  0.4926  0.2659
 5556TIP3    H138159   4.818   6.711  15.224 -0.0760 -0.8025 -1.9260
 5556TIP3    H238160   4.756   6.573  15.225 -0.2234 -0.7884  1.6917
 5557TIP3   OH238161   3.664   4.267   2.991  0.1191 -0.0702  0.1075
 5557TIP3    H138162   3.755   4.249   3.014  0.1335  2.2215  2.2591
 5557TIP3    H238163   3.663   4.268   2.896  1.7185 -2.7330 -0.0561
 5558TIP3   OH238164   5.656   0.070  11.484  0.1655 -0.2173  0.3267
 5558TIP3    H138165   5.580   0.036  11.437  0.3493  0.4084 -0.4507
 5558TIP3    H238166   5.636   0.058  11.576 -1.2619  0.7789  0.1635
 5559TIP3   OH238167   0.241   2.016  11.187 -0.7306 -0.4363 -0.6877
 5559TIP3    H138168   0.173   1.967  11.141 -0.4961 -1.8141  0.3849
 5559TIP3    H238169   0.303   1.949  11.217  1.0278  0.7511 -1.4852
 5560TIP3   OH238170   0.875   0.040   6.168 -0.0502  0.1852 -0.1017
 5560TIP3    H138171   0.807  -0.015   6.207  0.5595  1.0781  2.3809
 5560TIP3    H238172   0.881   0.010   6.077 -2.3359 -1.2627  0.1497
 5561TIP3   OH238173   4.097   6.131   5.957 -0.6362  0.4047  0.1073
 5561TIP3    H138174   4.144   6.104   6.037  0.4869  1.8710 -0.0077
 5561TIP3    H238175   4.060   6.216   5.979  1.5885  1.9220 -1.5671
 5562TIP3   OH238176   3.089   2.455   4.364 -0.5913 -0.1061 -0.1434
 5562TIP3    H138177   3.147   2.411   4.301  0.9414  0.8176  0.5485
 5562TIP3    H238178   3.076   2.542   4.327  0.0535  0.3327  0.6128
 5563TIP3   OH238179   0.505   4.674  16.097 -0.0380  0.3464 -0.1940
 5563TIP3    H138180   0.464   4.642  16.177 -0.6868  0.5816 -0.4288
 5563TIP3    H238181   0.598   4.651  16.107 -0.2555 -0.3829  0.2419
 5564TIP3   OH238182   4.900   5.785  10.811  1.1087  0.2339  0.6355
 5564TIP3    H138183   4.871   5.694  10.811 -0.9744  0.8445  0.6506
 5564TIP3    H238184   4.845   5.827  10.877 -0.2984  2.1661 -1.6113
 5565TIP3   OH238185   4.249   4.159   1.831 -0.1844  0.3209 -0.7259
 5565TIP3    H138186   4.260   4.241   1.782 -0.1671  0.7837  0.0494
 5565TIP3    H238187   4.164   4.126   1.802 -0.2360  0.6564 -0.9723
 5566TIP3   OH238188   1.084   0.688   5.722 -0.7952 -0.1816 -0.1725
 5566TIP3    H138189   1.096   0.753   5.792 -2.9381  0.9675 -0.8046
 5566TIP3    H238190   1.138   0.614   5.750 -1.0583  0.4749  2.3853
 5567TIP3   OH238191   3.190   1.509  15.838  0.2165 -0.2562 -0.2714
 5567TIP3    H138192   3.209   1.425  15.796 -0.4092 -0.7460  0.4041
 5567TIP3    H238193   3.192   1.490  15.932 -0.9293  0.2469 -0.1259
 5568TIP3   OH238194   3.841   3.128  16.045  0.4338 -0.4759 -0.0888
 5568TIP3    H138195   3.759   3.095  16.081 -0.2775  0.6154 -0.6689
 5568TIP3    H238196   3.846   3.089  15.958  0.4695 -0.4363 -0.1042
 5569TIP3   OH238197   1.485   2.748   2.502  1.1099 -0.6134 -0.5703
 5569TIP3    H138198   1.548   2.751   2.574  1.9365  0.1578 -1.2936
 5569TIP3    H238199   1.539   2.745   2.423  0.3497  2.3242 -1.3466
 5570TIP3   OH238200   5.519   5.225   6.218  0.3737 -0.2995  0.3036
 5570TIP3    H138201   5.468   5.257   6.292  1.0236 -1.2429  1.1955
 5570TIP3    H238202   5.566   5.148   6.252  0.8025 -0.6761 -1.0456
 5571TIP3   OH238203   5.116   2.641  16.619 -0.4217 -0.1044 -0.4239
 5571TIP3    H138204   5.160   2.617  16.538  1.2437  1.8397 -0.1837
 5571TIP3    H238205   5.069   2.562  16.646  1.5640 -1.7760 -1.6075
 5572TIP3   OH238206   3.974   6.483  16.917  0.1858  0.3475  0.7911
 5572TIP3    H138207   3.929   6.567  16.909 -2.1594 -1.0067 -2.7582
 5572TIP3    H238208   4.062   6.499  16.882 -0.1808  1.3567  0.3102
 5573TIP3   OH238209   1.725   1.712  15.340  0.6373 -0.5169 -0.1219
 5573TIP3    H138210   1.723   1.807  15.341  3.5459 -0.2797 -2.1237
 5573TIP3    H238211   1.638   1.686  15.310 -0.2767  1.4585  0.6471
 5574TIP3   OH238212   2.171   4.000   0.422  0.3860 -0.2130 -0.7328
 5574TIP3    H138213   2.092   4.021   0.371 -0.1287 -0.1595  0.0675
 5574TIP3    H238214   2.142   4.003   0.513  1.6412  1.1538 -0.3490
 5575TIP3   OH238215   6.142   2.872  15.778  0.4160  0.0211 -0.3827
 5575TIP3    H138216   6.220   2.836  15.736 -0.3987 -1.7010 -0.5306
 5575TIP3    H238217   6.089   2.795  15.799 -1.3388  1.1419 -0.4872
 5576TIP3   OH238218   6.504   1.296   0.616  0.4764  0.4611  0.3664
 5576TIP3    H138219   6.450   1.305   0.538  1.2999 -2.3766 -0.6340
 5576TIP3    H238220   6.515   1.386   0.648 -1.0622  1.5517 -1.9279
 5577TIP3   OH238221   0.484   2.519  16.843  0.0762 -0.1522 -0.8887
 5577TIP3    H138222   0.442   2.481  16.921 -1.4963  0.5497 -1.3563
 5577TIP3    H238223   0.463   2.457  16.773  1.1284 -0.5612 -0.8623
 5578TIP3   OH238224   1.109   3.897   4.906 -0.0293 -0.0970  0.0982
 5578TIP3    H138225   1.156   3.951   4.842 -1.3087 -1.1607 -1.8566
 5578TIP3    H238226   1.145   3.809   4.895  1.4419  0.0831  2.6536
 5579TIP3   OH238227   0.726   1.456   3.377  0.0135 -0.3544  0.3697
 5579TIP3    H138228   0.656   1.402   3.415 -0.7112  0.6503  0.5003
 5579TIP3    H238229   0.730   1.533   3.433  2.9306 -1.4480  1.8610
 5580TIP3   OH238230   1.209   1.402  15.851 -0.2830  0.2905 -0.0219
 5580TIP3    H138231   1.293   1.356  15.844  0.6512  1.8443  0.3750
 5580TIP3    H238232   1.233   1.489  15.883 -1.8552  1.3537 -1.5845
 5581TIP3   OH238233   0.431   1.854  11.310 -0.7337  0.0838 -0.2720
 5581TIP3    H138234   0.474   1.932  11.344 -0.4130  0.1662 -0.8449
 5581TIP3    H238235   0.502   1.793  11.291 -0.8987  0.0261 -0.7454
 5582TIP3   OH238236   4.906   5.391   1.851 -0.3705 -0.2031 -0.4337
 5582TIP3    H138237   4.973   5.355   1.908  0.5157 -0.9068 -1.8565
 5582TIP3    H238238   4.826   5.389   1.904  0.5008 -0.3738  0.9196
 5583TIP3   OH238239   0.619   4.448  14.969 -0.0997 -0.2463  0.2702
 5583TIP3    H138240   0.600   4.400  15.049 -0.8309 -2.0224 -0.8992
 5583TIP3    H238241   0.624   4.540  14.996 -0.4374 -0.7844  2.3025
 5584TIP3   OH238242   1.906   5.749  13.281  0.2152 -0.4278 -0.5868
 5584TIP3    H138243   1.966   5.726  13.352  0.2647  0.6062 -0.2790
 5584TIP3    H238244   1.963   5.786  13.213 -0.0556  0.4538 -0.3389
 5585TIP3   OH238245   0.812   4.455   2.435 -0.4440  0.0091  0.0862
 5585TIP3    H138246   0.724   4.491   2.446 -0.7451 -0.0392 -1.8158
 5585TIP3    H238247   0.801   4.361   2.446 -0.0735  0.1899  2.6788
 5586TIP3   OH238248   5.612   4.602   3.037 -0.8775 -0.1432  0.2976
 5586TIP3    H138249   5.582   4.639   2.955  1.0550 -1.7001 -1.2178
 5586TIP3    H238250   5.694   4.649   3.056  0.6124 -2.2036 -0.6714
 5587TIP3   OH238251   5.701   1.230  11.906 -0.4995 -0.2120 -0.0111
 5587TIP3    H138252   5.744   1.223  11.820  0.3247  3.4433 -0.0803
 5587TIP3    H238253   5.635   1.298  11.893 -2.0743 -1.3311  1.7129
 5588TIP3   OH238254   5.259   6.358  12.125  0.0700  0.2978 -0.5213
 5588TIP3    H138255   5.334   6.327  12.175  0.3262  2.3665  0.4768
 5588TIP3    H238256   5.280   6.449  12.104 -2.7422  1.4330  1.0796
 5589TIP3   OH238257   0.574   4.490   2.795 -0.2264  1.1660  0.2268
 5589TIP3    H138258   0.580   4.523   2.884 -0.9562 -0.4476  0.9344
 5589TIP3    H238259   0.504   4.424   2.799  2.5254 -2.0871 -0.4654
 5590TIP3   OH238260   6.841   3.210   0.815 -0.4144  0.6032 -0.4326
 5590TIP3    H138261   6.849   3.164   0.898 -0.5277 -0.8325 -1.1923
 5590TIP3    H238262   6.802   3.295   0.838  1.1684  0.9509  1.1769
 5591TIP3   OH238263   0.330   6.024   3.453 -0.1689  0.3411  0.3819
 5591TIP3    H138264   0.300   5.936   3.476 -2.0173  1.2114  1.5383
 5591TIP3    H238265   0.348   6.019   3.359 -1.7818 -0.8980  0.0857
 5592TIP3   OH238266   3.816   3.746  13.999  0.0412  0.7474  0.1956
 5592TIP3    H138267   3.813   3.784  14.087  1.0188  1.3071  0.0034
 5592TIP3    H238268   3.801   3.652  14.013 -1.3548  1.0260  0.7882
 5593TIP3   OH238269   2.305   3.975   2.532 -0.1571  0.1568  0.7226
 5593TIP3    H138270   2.266   4.018   2.456  0.3672 -1.0013 -0.2248
 5593TIP3    H238271   2.287   3.882   2.520  0.8235 -0.1538  1.4837
 5594TIP3   OH238272   2.162   6.815   2.095 -0.3816  0.2691 -1.6151
 5594TIP3    H138273   2.204   6.899   2.078 -0.9798  1.0911  0.6810
 5594TIP3    H238274   2.189   6.760   2.022 -0.9710  2.7732 -3.9011
 5595TIP3   OH238275   1.397   0.469  13.479 -0.3681  0.4449  0.0099
 5595TIP3    H138276   1.375   0.388  13.432 -0.0217  0.6058 -0.4414
 5595TIP3    H238277   1.312   0.505  13.504 -0.5146 -0.1995  0.4715
 5596TIP3   OH238278   0.568   2.093   2.909 -0.7018  0.0091 -0.2364
 5596TIP3    H138279   0.652   2.072   2.869 -0.2940 -0.9819  1.0539
 5596TIP3    H238280   0.542   2.176   2.869 -0.1645 -0.7140 -2.2389
 5597TIP3   OH238281   4.736   3.724  13.582  0.0292  0.0142 -0.1118
 5597TIP3    H138282   4.774   3.710  13.669 -1.4707  1.0088  0.7593
 5597TIP3    H238283   4.809   3.711  13.522  1.2898  0.0087  1.3353
 5598TIP3   OH238284   2.283   0.796  11.021  0.5024  0.0720 -0.4555
 5598TIP3    H138285   2.289   0.855  11.096  1.7951 -0.6309  0.0145
 5598TIP3    H238286   2.266   0.854  10.947  1.1908  0.9899  0.0879
 5599TIP3   OH238287   4.185   4.373   5.101  0.2036  0.4689 -0.5262
 5599TIP3    H138288   4.112   4.343   5.047  0.6944  0.7394 -1.3607
 5599TIP3    H238289   4.255   4.311   5.084  1.2153  1.9723 -2.2372
 5600TIP3   OH238290   1.413   4.680   2.649 -0.1718 -0.0264 -0.4623
 5600TIP3    H138291   1.339   4.710   2.596  0.0701  1.1470 -0.1576
 5600TIP3    H238292   1.373   4.650   2.731 -0.3930 -0.2751 -0.6615
 5601TIP3   OH238293   6.713   2.114  14.162  0.6610  0.0211 -0.1532
 5601TIP3    H138294   6.746   2.058  14.233  0.4585  0.1421  0.0352
 5601TIP3    H238295   6.637   2.067  14.128  0.1099  0.4790  0.4192
 5602TIP3   OH238296   4.827   6.345  14.500  0.3349 -0.4152 -0.4411
 5602TIP3    H138297   4.842   6.434  14.531  1.1961 -0.9048  0.5814
 5602TIP3    H238298   4.822   6.354  14.404 -1.2181  0.9427 -0.2817
 5603TIP3   OH238299   0.823   6.509  12.923 -0.2755  0.6149 -0.3303
 5603TIP3    H138300   0.899   6.531  12.869 -0.1661  0.0863 -0.3978
 5603TIP3    H238301   0.857   6.508  13.013 -0.4008  1.2422 -0.2708
 5604TIP3   OH238302   1.432   4.744  13.471 -0.5343 -0.8949  0.7563
 5604TIP3    H138303   1.470   4.686  13.405  0.6436 -0.5912  1.1393
 5604TIP3    H238304   1.374   4.687  13.523 -0.2594 -1.4766  0.4337
 5605TIP3   OH238305   3.458   0.624   1.007  0.1377  0.4681 -0.0572
 5605TIP3    H138306   3.473   0.571   1.086 -1.6874  1.7588  1.2575
 5605TIP3    H238307   3.413   0.565   0.947 -2.0818  0.4789  1.4683
 5606TIP3   OH238308   1.405   5.642   1.878 -0.0115  0.3338  0.0284
 5606TIP3    H138309   1.354   5.687   1.811  0.3128 -1.5606 -1.5505
 5606TIP3    H238310   1.487   5.617   1.835  1.5781  1.7013  1.9977
 5607TIP3   OH238311   5.041   2.304   0.413  0.4294  0.0306  0.1823
 5607TIP3    H138312   5.075   2.257   0.489  0.9204  0.8085  0.4541
 5607TIP3    H238313   5.106   2.372   0.395 -0.0821  0.3770 -0.4312
 5608TIP3   OH238314   0.085   6.706  14.026 -0.4521 -0.4749  0.2210
 5608TIP3    H138315   0.023   6.684  14.096  0.1007 -0.1542  0.8291
 5608TIP3    H238316   0.148   6.765  14.068  0.2107 -0.7209 -0.4093
 5609TIP3   OH238317   5.937   4.315  11.273 -0.1476 -0.0817  0.1453
 5609TIP3    H138318   5.865   4.259  11.244 -0.4567  0.3967 -0.0198
 5609TIP3    H238319   6.013   4.281  11.227 -0.2256 -0.7081  0.4595
 5610TIP3   OH238320   2.686   0.096   3.079 -0.0094  0.0814  0.2546
 5610TIP3    H138321   2.753   0.065   3.018 -0.3900  2.3109 -1.4575
 5610TIP3    H238322   2.604   0.065   3.042 -0.1404  0.0811  0.5408
 5611TIP3   OH238323   3.291   6.589   1.952 -0.8126 -0.6554  0.3954
 5611TIP3    H138324   3.347   6.666   1.968  1.2542 -2.2340  1.1967
 5611TIP3    H238325   3.260   6.601   1.863  0.8179  0.3268 -0.1023
 5612TIP3   OH238326   2.978   3.035  13.441 -0.1221 -0.0725 -0.1135
 5612TIP3    H138327   3.020   2.952  13.465 -1.9275 -1.0357 -0.1002
 5612TIP3    H238328   2.884   3.020  13.457 -0.8524  0.9614 -2.8517
 5613TIP3   OH238329   1.808   6.583   3.698  0.1653 -0.2423  0.1244
 5613TIP3    H138330   1.722   6.600   3.659  0.6056  1.5522 -0.1932
 5613TIP3    H238331   1.794   6.591   3.792  0.0963  0.8259  0.0409
 5614TIP3   OH238332   1.148   6.536   4.475 -0.0020 -0.7003 -0.1239
 5614TIP3    H138333   1.216   6.483   4.434  1.5200  0.5177  0.7300
 5614TIP3    H238334   1.190   6.577   4.550 -1.3171  1.0798 -0.2840
 5615TIP3   OH238335   4.535   3.566   2.360 -0.0317  0.2628 -0.1056
 5615TIP3    H138336   4.599   3.552   2.430  0.6538 -2.0916 -1.1270
 5615TIP3    H238337   4.578   3.626   2.300  0.7071 -0.3023 -0.1478
 5616TIP3   OH238338   3.245   2.028   0.594 -0.0207 -0.2930 -0.1991
 5616TIP3    H138339   3.176   2.075   0.547 -0.2059 -0.6947 -0.3299
 5616TIP3    H238340   3.225   1.936   0.581  0.8951 -0.4243 -0.7585
 5617TIP3   OH238341   5.830   6.836   0.334 -0.0553  0.5501 -0.0857
 5617TIP3    H138342   5.798   6.746   0.337  0.0857  0.4348 -1.5009
 5617TIP3    H238343   5.751   6.889   0.329 -0.1125  0.3953 -1.0425
 5618TIP3   OH238344   5.090   1.676   0.355 -0.2097  0.0619  0.3097
 5618TIP3    H138345   5.025   1.701   0.421  0.6321 -0.6233  1.4291
 5618TIP3    H238346   5.089   1.581   0.354  1.2596  0.0056  0.8724
 5619TIP3   OH238347   5.910   3.443   1.371  0.1266 -0.1143 -0.3041
 5619TIP3    H138348   5.946   3.462   1.285 -0.5118 -0.8736 -0.7431
 5619TIP3    H238349   5.817   3.426   1.356  0.2053 -1.2859  0.3701
 5620TIP3   OH238350   0.933   0.149   3.154 -0.3281  0.4550 -0.2470
 5620TIP3    H138351   0.995   0.106   3.095  1.1621  1.3032  0.6236
 5620TIP3    H238352   0.911   0.230   3.110  1.7894  1.7088  0.8170
 5621TIP3   OH238353   5.352   6.398  13.421 -0.1921  0.1691 -0.1044
 5621TIP3    H138354   5.366   6.366  13.510  0.4662 -2.8166 -1.1512
 5621TIP3    H238355   5.266   6.365  13.396 -0.2923  0.8068 -0.6194
 5622TIP3   OH238356   2.496   2.502   3.711 -0.2377  0.1529 -0.7954
 5622TIP3    H138357   2.563   2.566   3.687 -0.6920  1.6359  1.5619
 5622TIP3    H238358   2.419   2.530   3.661  0.0836  0.2683 -1.2384
 5623TIP3   OH238359   2.147   4.514   4.431 -0.3790 -0.2534  0.4034
 5623TIP3    H138360   2.122   4.495   4.340  1.1219 -2.0897  0.3321
 5623TIP3    H238361   2.221   4.574   4.423 -0.9267  0.4453  0.4666
 5624TIP3   OH238362   5.164   4.159   1.883 -0.0629 -0.0422  0.7290
 5624TIP3    H138363   5.137   4.250   1.878 -0.8853 -0.1494  2.4295
 5624TIP3    H238364   5.242   4.153   1.829  0.3157  1.7943  1.0402
 5625TIP3   OH238365   6.531   4.091   1.660  0.0723 -0.2135  1.0095
 5625TIP3    H138366   6.513   4.061   1.749 -0.6859 -3.0976  0.0214
 5625TIP3    H238367   6.540   4.010   1.609  0.4084  1.3192 -1.5528
 5626TIP3   OH238368   2.440   6.565  11.317 -0.2642 -0.4175  0.6046
 5626TIP3    H138369   2.443   6.521  11.232 -1.9486 -0.0945  0.3428
 5626TIP3    H238370   2.513   6.626  11.315  0.0227 -0.7689 -0.4040
 5627TIP3   OH238371   5.731   1.601   2.808 -0.0836 -0.1641  0.9932
 5627TIP3    H138372   5.649   1.622   2.853  1.0466  0.4261  2.8779
 5627TIP3    H238373   5.783   1.681   2.816  0.7067 -0.5528 -0.1279
 5628TIP3   OH238374   2.053   1.966  13.457  0.7392  0.2150  0.5396
 5628TIP3    H138375   2.030   1.972  13.550 -2.0944  2.6425 -0.1601
 5628TIP3    H238376   2.089   1.878  13.447 -2.5629 -1.7060  3.2395
 5629TIP3   OH238377   3.238   0.204  15.627  0.1597  0.3149 -0.3326
 5629TIP3    H138378   3.192   0.282  15.659 -0.2581 -0.1897  0.3127
 5629TIP3    H238379   3.201   0.132  15.677  2.0821 -0.0407  0.7022
 5630TIP3   OH238380   5.533   4.971  14.539 -0.6537  0.5183 -0.1055
 5630TIP3    H138381   5.537   5.021  14.621 -0.4747  0.9783 -0.3913
 5630TIP3    H238382   5.570   5.030  14.473 -1.6864  0.5347 -0.7061
 5631TIP3   OH238383   5.871   6.022  12.030 -0.0688 -0.3247 -0.0842
 5631TIP3    H138384   5.870   5.984  11.942 -0.2304  1.0243 -0.6792
 5631TIP3    H238385   5.922   5.960  12.082  0.7891 -0.6974 -1.3287
 5632TIP3   OH238386   4.549   4.881   2.491 -0.1542  0.1447  0.4772
 5632TIP3    H138387   4.636   4.917   2.508 -0.0787  0.6855 -0.8982
 5632TIP3    H238388   4.493   4.920   2.558  0.3370  1.1762  0.3061
 5633TIP3   OH238389   6.420   2.141   0.924 -0.3898  0.3210 -0.1626
 5633TIP3    H138390   6.470   2.136   0.843  0.9112  0.6285  0.5989
 5633TIP3    H238391   6.373   2.224   0.919  0.3374  0.7328 -0.2493
 5634TIP3   OH238392   2.063   3.061   2.575 -0.2919  0.3574 -0.4877
 5634TIP3    H138393   2.089   3.069   2.483 -1.5141  0.1285 -0.8644
 5634TIP3    H238394   2.146   3.055   2.623  0.3519 -0.3215 -1.6502
 5635TIP3   OH238395   4.381   0.235  15.638 -0.0537 -0.5131  0.2234
 5635TIP3    H138396   4.372   0.240  15.734 -0.5973  0.5803  0.1369
 5635TIP3    H238397   4.316   0.170  15.611 -0.5007 -0.2122  0.5416
 5636TIP3   OH238398   0.360   5.318  13.331  0.0935  0.0579  0.6987
 5636TIP3    H138399   0.374   5.230  13.296  0.2174  0.8888 -1.4919
 5636TIP3    H238400   0.265   5.328  13.334 -0.0416  1.0512 -2.6006
 5637TIP3   OH238401   2.184   0.944  10.774  0.3551 -0.0810 -0.3385
 5637TIP3    H138402   2.150   0.867  10.819 -0.0636  0.4279  0.2417
 5637TIP3    H238403   2.119   1.012  10.792  0.3697  0.2333 -1.4138
 5638TIP3   OH238404   6.259   0.920  15.226 -0.2505 -0.0744 -0.1379
 5638TIP3    H138405   6.289   0.942  15.314 -0.9050  0.8205 -0.1296
 5638TIP3    H238406   6.164   0.915  15.234 -0.2705 -0.5929 -0.6659
 5639TIP3   OH238407   0.513   4.201   5.062 -0.6339  0.6057  0.1215
 5639TIP3    H138408   0.492   4.172   5.151  0.8156  1.8955  0.9447
 5639TIP3    H238409   0.481   4.291   5.058  2.3810  1.8158  0.6300
 5640TIP3   OH238410   0.728   2.885   4.847  0.2760 -0.1731  0.2522
 5640TIP3    H138411   0.652   2.886   4.789  0.7962  0.6613 -0.4429
 5640TIP3    H238412   0.755   2.793   4.849 -0.2483 -0.3435 -0.1683
 5641TIP3   OH238413   2.001   3.178  16.165 -0.2318  0.3803 -0.2610
 5641TIP3    H138414   2.083   3.129  16.154  1.4449  2.6273  1.2801
 5641TIP3    H238415   2.004   3.244  16.096 -0.0311  1.3398  0.6527
 5642TIP3   OH238416   5.110   4.180   2.432  0.1103  0.4105  0.1397
 5642TIP3    H138417   5.150   4.098   2.460 -0.6242 -0.2195 -0.6230
 5642TIP3    H238418   5.184   4.239   2.418  0.6829 -0.3007  0.1031
 5643TIP3   OH238419   1.660   2.384  13.350 -0.2727 -0.3058  0.6956
 5643TIP3    H138420   1.743   2.417  13.384  0.6748 -1.2245 -0.6297
 5643TIP3    H238421   1.614   2.350  13.426  0.9643 -0.6029  1.3257
 5644TIP3   OH238422   2.170   1.280   2.322  0.1879 -0.3125  0.0984
 5644TIP3    H138423   2.219   1.220   2.379  0.9592  0.4033  0.2181
 5644TIP3    H238424   2.109   1.324   2.382 -1.1713 -1.7360 -0.1764
 5645TIP3   OH238425   6.684   2.059   6.116 -0.3312  0.3134  0.0483
 5645TIP3    H138426   6.653   1.969   6.128 -0.3895  0.2095 -0.8418
 5645TIP3    H238427   6.614   2.103   6.068  0.7759  0.1141 -1.8572
 5646TIP3   OH238428   3.577   6.150   6.319 -0.2085  0.1503  0.1256
 5646TIP3    H138429   3.630   6.180   6.246  0.1464  1.7541  0.9923
 5646TIP3    H238430   3.632   6.165   6.396 -1.1646 -0.0230  0.8557
 5647TIP3   OH238431   1.967   6.263  12.684  0.3905 -0.1862  0.0178
 5647TIP3    H138432   1.903   6.199  12.653 -0.0782  0.2627  0.0312
 5647TIP3    H238433   1.946   6.343  12.635 -1.2438  0.9512  2.4008
 5648TIP3   OH238434   5.785   6.130  13.324 -0.0011 -0.2570  0.4033
 5648TIP3    H138435   5.699   6.148  13.285 -0.9256 -1.8665  1.6115
 5648TIP3    H238436   5.773   6.143  13.418  1.3206  0.3101  0.5242
 5649TIP3   OH238437   4.217   4.777   1.760 -0.2800 -0.6736 -0.1188
 5649TIP3    H138438   4.189   4.863   1.729 -0.1311  0.2731  2.1997
 5649TIP3    H238439   4.196   4.777   1.853  2.8994 -1.8138  0.7058
 5650TIP3   OH238440   4.457   1.230  14.459 -0.0271 -0.1866  0.3102
 5650TIP3    H138441   4.370   1.191  14.467 -0.8204  1.3659 -0.4370
 5650TIP3    H238442   4.497   1.185  14.384 -0.6946 -0.0008 -0.1605
 5651TIP3   OH238443   0.309   5.487   3.710 -0.3601  0.7078  0.3482
 5651TIP3    H138444   0.218   5.470   3.734 -0.0591 -0.6320  0.6146
 5651TIP3    H238445   0.309   5.486   3.614 -0.2946 -1.4268  0.3214
 5652TIP3   OH238446   4.749   0.006   2.733  0.2600  0.3582 -0.4614
 5652TIP3    H138447   4.673   0.020   2.789 -0.3319  0.2173 -1.2111
 5652TIP3    H238448   4.746   0.077   2.669  0.7639  0.3612 -0.4825
 5653TIP3   OH238449   3.317   4.427  15.942 -0.3990  0.2023  0.2847
 5653TIP3    H138450   3.295   4.343  15.984 -1.1258 -0.2652 -0.9709
 5653TIP3    H238451   3.234   4.476  15.943 -0.8406 -0.4174 -1.9079
 5654TIP3   OH238452   0.629   4.070   3.521 -0.1101 -0.2539  0.0083
 5654TIP3    H138453   0.535   4.054   3.532 -0.0822 -0.1108  0.4641
 5654TIP3    H238454   0.644   4.059   3.427 -0.6263 -0.0495 -0.1014
 5655TIP3   OH238455   6.548   6.716  13.275  0.9293 -0.6919 -0.3501
 5655TIP3    H138456   6.643   6.728  13.277  0.7765  0.9916 -1.3849
 5655TIP3    H238457   6.532   6.641  13.333  2.6922  0.2049  1.4091
 5656TIP3   OH238458   4.402   3.962   2.009 -0.6317 -0.2095 -0.0532
 5656TIP3    H138459   4.312   3.932   2.021 -0.1225 -1.1184  1.9326
 5656TIP3    H238460   4.448   3.885   1.974 -0.7054  0.4241 -1.6210
 5657TIP3   OH238461   0.866   3.593   4.470  0.1633  0.3182 -0.7525
 5657TIP3    H138462   0.864   3.543   4.552  0.3578  0.2373 -0.7952
 5657TIP3    H238463   0.780   3.580   4.432  0.0233  0.4759 -0.4897
 5658TIP3   OH238464   5.025   5.371  10.300  0.1408  0.0920 -0.3483
 5658TIP3    H138465   4.938   5.358  10.261  0.2204  0.7997 -0.7903
 5658TIP3    H238466   5.020   5.327  10.385 -0.8995  0.7236 -0.0517
 5659TIP3   OH238467   4.180   4.520   1.181 -0.0585  0.4946  0.3116
 5659TIP3    H138468   4.121   4.457   1.139  2.3631 -0.9699 -1.1547
 5659TIP3    H238469   4.229   4.559   1.108 -0.8443  3.5054  1.2502
 5660TIP3   OH238470   4.724   5.692   3.206 -0.1933 -0.5086  0.0566
 5660TIP3    H138471   4.694   5.663   3.292 -1.1546 -0.4970 -0.2619
 5660TIP3    H238472   4.646   5.728   3.164 -0.0401 -1.6734 -1.3119
 5661TIP3   OH238473   6.153   4.440  10.948  0.7376 -0.3972 -0.2389
 5661TIP3    H138474   6.084   4.393  10.903 -0.1223  1.8732 -1.4719
 5661TIP3    H238475   6.205   4.480  10.879 -0.6986  3.2959  0.5514
 5662TIP3   OH238476   4.512   4.213   4.744  0.5181  0.3956 -0.1660
 5662TIP3    H138477   4.538   4.210   4.836  0.3089 -1.7536 -0.1384
 5662TIP3    H238478   4.418   4.227   4.745  0.1387 -1.7816  0.0805
 5663TIP3   OH238479   1.582   5.954  14.335  0.5506 -0.1562 -0.0146
 5663TIP3    H138480   1.537   5.874  14.308  0.9857 -0.0517 -1.1090
 5663TIP3    H238481   1.634   5.979  14.258  0.2542  1.2892  0.2340
 5664TIP3   OH238482   3.607   3.844   1.710 -0.0486  0.0900  0.2906
 5664TIP3    H138483   3.648   3.921   1.751  0.8309  0.3315 -0.9779
 5664TIP3    H238484   3.678   3.780   1.704  0.0025  0.2396 -1.2425
 5665TIP3   OH238485   3.917   6.775   1.898  0.1442  0.3887 -0.0874
 5665TIP3    H138486   3.842   6.747   1.846 -0.2840  2.5668 -0.7443
 5665TIP3    H238487   3.922   6.711   1.969 -0.0623 -1.9164 -2.0079
 5666TIP3   OH238488   6.118   4.222  16.751  0.2575 -0.4343 -0.2606
 5666TIP3    H138489   6.185   4.239  16.818 -0.3699 -0.1717  0.3188
 5666TIP3    H238490   6.098   4.309  16.716 -1.0550 -0.2621  0.8377
 5667TIP3   OH238491   4.637   0.777   2.127  0.2324 -0.1983 -0.0865
 5667TIP3    H138492   4.560   0.783   2.071  1.1583  0.6828 -1.3232
 5667TIP3    H238493   4.604   0.797   2.215 -1.1596 -1.1259 -0.3599
 5668TIP3   OH238494   2.375   3.704  11.827  0.1953  0.0389  0.2547
 5668TIP3    H138495   2.317   3.635  11.858  0.0703 -0.8972 -1.8800
 5668TIP3    H238496   2.377   3.693  11.731  1.2304  2.1568 -0.0356
 5669TIP3   OH238497   1.839   0.857  15.626  0.0597 -0.2287 -0.1817
 5669TIP3    H138498   1.807   0.796  15.692  1.5904 -2.3905 -1.2904
 5669TIP3    H238499   1.861   0.801  15.551  3.6970  1.3662 -0.4783
 5670TIP3   OH238500   1.627   6.175   1.926  0.2637  0.1469 -0.6514
 5670TIP3    H138501   1.712   6.167   1.883 -0.3313 -0.0566 -1.8251
 5670TIP3    H238502   1.593   6.085   1.927  0.2485  0.1520  0.2334
 5671TIP3   OH238503   1.027   5.382  16.236 -0.3303 -0.8808 -0.2288
 5671TIP3    H138504   1.071   5.467  16.244 -0.8726 -0.2435 -2.8987
 5671TIP3    H238505   1.089   5.319  16.273  1.8614  0.2606 -1.7213
 5672TIP3   OH238506   2.452   1.964  15.276 -0.4050  0.0460 -0.1296
 5672TIP3    H138507   2.488   2.014  15.350 -0.2775  0.3599 -0.4029
 5672TIP3    H238508   2.467   1.873  15.300 -1.7235  0.0717  0.9488
 5673TIP3   OH238509   1.413   5.981   1.307 -0.0970 -0.3596 -0.1355
 5673TIP3    H138510   1.402   5.918   1.378  0.7793  1.1028  1.3549
 5673TIP3    H238511   1.324   6.005   1.282 -0.4369 -1.7835 -0.4219
 5674TIP3   OH238512   5.133   5.667  11.654 -0.0194  0.7123  0.0507
 5674TIP3    H138513   5.135   5.670  11.750 -0.2091 -0.6918  0.1212
 5674TIP3    H238514   5.060   5.608  11.633  0.7626  0.0490 -0.9104
 5675TIP3   OH238515   5.725   2.476  10.995 -0.2280  0.0677 -0.2347
 5675TIP3    H138516   5.673   2.434  10.926  0.4118 -2.0194  0.4566
 5675TIP3    H238517   5.794   2.412  11.014  0.4103  1.1867  1.3873
 5676TIP3   OH238518   4.480   5.343  13.848  0.6153  0.8496  0.1483
 5676TIP3    H138519   4.495   5.250  13.830 -1.5262  0.6039 -0.6061
 5676TIP3    H238520   4.547   5.388  13.797  1.2603 -0.2562 -0.0209
 5677TIP3   OH238521   3.604   4.249  15.880  0.1882 -0.2404 -0.0789
 5677TIP3    H138522   3.661   4.195  15.825 -0.4284 -1.4972  0.4612
 5677TIP3    H238523   3.665   4.302  15.932  0.7955  0.0072 -1.0142
 5678TIP3   OH238524   3.760   0.689  15.766  0.4868 -0.2263  0.0028
 5678TIP3    H138525   3.689   0.636  15.732  0.6500  0.0208 -0.7346
 5678TIP3    H238526   3.767   0.664  15.858  1.6996 -2.8000 -0.6769
 5679TIP3   OH238527   0.538   6.305   4.423  0.7951  0.6071 -0.4000
 5679TIP3    H138528   0.454   6.312   4.378 -0.1252  1.2754  1.3444
 5679TIP3    H238529   0.600   6.347   4.364 -0.5433  2.3490 -0.6502
 5680TIP3   OH238530   6.119   6.707  10.362 -0.3532  0.3234 -0.0328
 5680TIP3    H138531   6.099   6.753  10.444 -1.7041 -0.5412  0.1672
 5680TIP3    H238532   6.143   6.776  10.300  0.8202  0.9909  1.1018
 5681TIP3   OH238533   5.970   0.986  17.017  0.3062 -0.2629  0.3042
 5681TIP3    H138534   6.031   0.931  17.065  1.8346  0.4541 -0.7200
 5681TIP3    H238535   5.946   0.935  16.940  1.8498  0.5028 -0.7288
 5682TIP3   OH238536   3.192   1.827   1.966  0.4855  0.1534 -0.3391
 5682TIP3    H138537   3.151   1.912   1.983  0.1113 -0.4516  2.2761
 5682TIP3    H238538   3.154   1.797   1.884 -0.2280  2.0041 -0.7136
 5683TIP3   OH238539   4.183   5.391   2.913  0.5892  0.2171 -0.7072
 5683TIP3    H138540   4.160   5.455   2.980  1.4725 -0.6441  0.4645
 5683TIP3    H238541   4.237   5.439   2.851 -0.0231  0.9678 -0.6777
 5684TIP3   OH238542   3.065   3.259   3.196  0.0591 -0.8087  0.0310
 5684TIP3    H138543   3.145   3.311   3.195  0.1205 -0.9059 -0.3127
 5684TIP3    H238544   3.067   3.212   3.280 -0.6967  0.8169  0.9935
 5685TIP3   OH238545   2.691   2.895   4.149 -0.0525  0.1175  0.3636
 5685TIP3    H138546   2.742   2.855   4.079  1.3169  0.2996  1.2157
 5685TIP3    H238547   2.721   2.986   4.151 -0.1557  0.1428  1.1008
 5686TIP3   OH238548   6.262   3.448   3.617  0.2846  0.7962 -0.5075
 5686TIP3    H138549   6.204   3.422   3.689  0.9725 -1.1254 -0.5749
 5686TIP3    H238550   6.289   3.537   3.639  0.1497  0.4229  1.4086
 5687TIP3   OH238551   0.852   3.807   3.611  0.2650 -0.2072 -0.0445
 5687TIP3    H138552   0.914   3.802   3.683  1.6560  2.7933 -0.8710
 5687TIP3    H238553   0.884   3.744   3.546  0.5977 -0.9293  0.8069
 5688TIP3   OH238554   4.812   3.454   3.519 -0.5764  0.0746 -0.2422
 5688TIP3    H138555   4.819   3.440   3.425  0.1605 -0.9376 -0.0609
 5688TIP3    H238556   4.840   3.370   3.558  1.7238  1.2634  0.9253
 5689TIP3   OH238557   4.555   4.136  12.417  0.3253  0.2792 -0.2732
 5689TIP3    H138558   4.612   4.110  12.490  1.9698  1.5259 -1.0439
 5689TIP3    H238559   4.560   4.064  12.355 -0.1375 -0.2615  0.3017
 5690TIP3   OH238560   4.874   2.514   0.971 -0.2312 -0.2342  0.0358
 5690TIP3    H138561   4.782   2.486   0.965 -0.6417  0.6177  1.5905
 5690TIP3    H238562   4.869   2.610   0.980  0.7457 -0.2432  0.8978
 5691TIP3   OH238563   1.062   4.633   4.774 -0.0550  0.2927  0.0707
 5691TIP3    H138564   1.032   4.639   4.865 -0.7476  0.4800 -0.1665
 5691TIP3    H238565   1.020   4.706   4.730 -0.5987 -0.4286 -0.6387
 5692TIP3   OH238566   4.458   2.008   2.181  0.3693  0.2057 -0.0710
 5692TIP3    H138567   4.514   2.016   2.258 -0.6930 -1.1530  0.8891
 5692TIP3    H238568   4.442   2.098   2.153  2.2973  0.6601  0.1300
 5693TIP3   OH238569   5.932   2.280   0.239 -0.3511 -0.8892 -0.1508
 5693TIP3    H138570   5.937   2.372   0.213  2.3721 -0.4450  1.5235
 5693TIP3    H238571   5.922   2.233   0.157 -1.5932  0.8644 -1.0722
 5694TIP3   OH238572   1.114   0.335  12.729  0.4187 -0.3086  0.4303
 5694TIP3    H138573   1.030   0.291  12.714  0.9523 -0.7908 -1.5307
 5694TIP3    H238574   1.163   0.276  12.786 -0.7357  0.2221  2.0172
 5695TIP3   OH238575   1.880   2.438   0.178  0.2931  1.1729 -0.0428
 5695TIP3    H138576   1.911   2.355   0.213 -1.6990  0.6724  0.6513
 5695TIP3    H238577   1.863   2.420   0.085  0.4630  1.0008 -0.0413
 5696TIP3   OH238578   1.413   2.183   0.403 -0.2461 -0.4051  1.0350
 5696TIP3    H138579   1.465   2.248   0.356 -0.2479 -0.8083  0.4601
 5696TIP3    H238580   1.410   2.108   0.345 -0.7505 -0.7059  1.4319
 5697TIP3   OH238581   6.664   1.204  14.988 -0.0955  0.3019 -0.1854
 5697TIP3    H138582   6.653   1.289  14.944  1.1617  0.2222 -0.6867
 5697TIP3    H238583   6.714   1.225  15.067  1.2948 -0.1229 -0.9314
 5698TIP3   OH238584   3.646   2.002   5.906  0.0122 -0.4007  0.1489
 5698TIP3    H138585   3.588   2.045   5.969  0.2690 -1.8716  1.4588
 5698TIP3    H238586   3.618   2.034   5.821 -2.4740 -0.7513  0.7609
 5699TIP3   OH238587   3.695   2.667  15.882 -0.0263 -0.0558 -0.0720
 5699TIP3    H138588   3.756   2.624  15.942 -1.6672 -0.1956  1.6050
 5699TIP3    H238589   3.639   2.597  15.850 -1.2774  0.4520  0.8993
 5700TIP3   OH238590   3.859   6.828   4.993  0.0994 -1.1343 -0.0924
 5700TIP3    H138591   3.878   6.744   5.035  0.5742 -0.7339  0.5028
 5700TIP3    H238592   3.774   6.854   5.028  0.6469 -0.6402  0.8925
 5701TIP3   OH238593   5.980   4.907   0.831  0.3770  0.7995  0.2962
 5701TIP3    H138594   5.894   4.933   0.865  0.3814 -1.4534  2.3594
 5701TIP3    H238595   5.961   4.855   0.753 -0.3077 -0.5751  1.3189
 5702TIP3   OH238596   4.619   4.644   0.479  0.5753 -0.4889  0.9554
 5702TIP3    H138597   4.652   4.619   0.392  0.8406 -0.6084  1.0871
 5702TIP3    H238598   4.596   4.736   0.470 -0.1634 -0.7071  0.5361
 5703TIP3   OH238599   3.909   0.752   4.831  0.4066 -0.0743 -0.0264
 5703TIP3    H138600   3.845   0.820   4.847 -0.4466 -0.8553 -0.0222
 5703TIP3    H238601   3.867   0.692   4.769  0.6271 -1.2674  0.9257
 5704TIP3   OH238602   4.638   4.185   3.462 -0.1666 -0.2653 -0.1546
 5704TIP3    H138603   4.615   4.152   3.550 -1.7499  0.8969 -0.0804
 5704TIP3    H238604   4.576   4.140   3.404  1.1106 -1.2971 -0.7624
 5705TIP3   OH238605   5.718   4.320   3.795 -0.0744 -0.0784 -1.3039
 5705TIP3    H138606   5.702   4.293   3.705 -1.4313  1.1660 -1.4805
 5705TIP3    H238607   5.630   4.326   3.834  0.3725  0.9261 -0.3796
 5706TIP3   OH238608   2.423   2.921   5.418  0.3496 -0.2078 -0.3431
 5706TIP3    H138609   2.419   2.841   5.470  0.0098 -0.2702 -0.4605
 5706TIP3    H238610   2.435   2.891   5.328 -0.6582 -0.1714 -0.5049
 5707TIP3   OH238611   2.048   3.328   3.760 -0.0463  0.0611  0.5210
 5707TIP3    H138612   2.092   3.313   3.677 -0.7479 -1.0701  0.3291
 5707TIP3    H238613   1.981   3.393   3.741  0.6235  0.7700  0.5133
 5708TIP3   OH238614   3.718   3.451   0.245 -0.1665 -0.1219 -0.3070
 5708TIP3    H138615   3.773   3.387   0.291 -0.3249  0.1693  0.3067
 5708TIP3    H238616   3.708   3.416   0.157  2.7505  0.8046 -1.1123
 5709TIP3   OH238617   0.135   4.748   1.402  0.3832 -0.3285  0.1623
 5709TIP3    H138618   0.064   4.699   1.444 -0.2121  0.5932  0.2654
 5709TIP3    H238619   0.143   4.828   1.454  3.2512 -1.4806  1.7413
 5710TIP3   OH238620   0.307   0.762   3.983  0.1253  0.1964  0.0466
 5710TIP3    H138621   0.389   0.775   4.031  1.1852 -0.7165 -1.4252
 5710TIP3    H238622   0.310   0.671   3.954 -1.2330  0.2614 -0.3900
 5711TIP3   OH238623   5.954   3.172   2.973  0.0018 -0.2820  0.4862
 5711TIP3    H138624   6.027   3.141   2.920  1.3449  0.3825  1.8549
 5711TIP3    H238625   5.920   3.093   3.015  0.8331 -0.4539  0.8748
 5712TIP3   OH238626   3.464   2.762   3.273  0.0325  0.4014 -0.2518
 5712TIP3    H138627   3.424   2.682   3.238 -0.9208  1.1298 -0.8784
 5712TIP3    H238628   3.390   2.815   3.303  0.6962  0.7124  0.9459
 5713TIP3   OH238629   3.584   2.017  12.690 -0.7854 -0.4442  0.4635
 5713TIP3    H138630   3.574   2.109  12.716 -1.0106 -0.7660  1.5915
 5713TIP3    H238631   3.577   1.968  12.773  0.2496 -1.4121  0.0004
 5714TIP3   OH238632   3.282   3.613  11.481 -0.3045 -0.4625  0.3004
 5714TIP3    H138633   3.319   3.689  11.436 -0.5887 -0.5548 -0.0969
 5714TIP3    H238634   3.205   3.589  11.429 -1.9105  0.7221  1.9861
 5715TIP3   OH238635   1.144   4.724  11.622  0.2885  0.2994  0.0778
 5715TIP3    H138636   1.157   4.717  11.716  1.2668  0.6843 -0.0200
 5715TIP3    H238637   1.127   4.634  11.593 -0.6089  0.2649  0.6967
 5716TIP3   OH238638   0.089   5.318  13.358 -0.0909  0.0168 -0.1191
 5716TIP3    H138639   0.040   5.255  13.305 -1.8848  0.0484  1.4313
 5716TIP3    H238640   0.038   5.398  13.353  1.5999  1.0907 -1.1646
 5717TIP3   OH238641   2.743   4.380  10.629 -0.0041  0.2097  0.2794
 5717TIP3    H138642   2.750   4.287  10.609  1.2163  0.5936 -1.3021
 5717TIP3    H238643   2.792   4.391  10.711 -0.7565 -0.6199  0.8573
 5718TIP3   OH238644   5.259   0.523  11.658 -0.0744  0.3214 -0.2274
 5718TIP3    H138645   5.295   0.601  11.700 -1.9546  1.3249 -0.3286
 5718TIP3    H238646   5.268   0.541  11.564  1.0586 -0.3908 -0.2676
 5719TIP3   OH238647   6.679   0.764   3.870 -0.5142 -0.4344  0.0717
 5719TIP3    H138648   6.764   0.741   3.834 -0.7903 -0.1259 -0.8064
 5719TIP3    H238649   6.644   0.682   3.904 -0.3695 -0.8017 -0.6543
 5720TIP3   OH238650   0.090   3.046  15.803  0.1581  0.0077 -0.3880
 5720TIP3    H138651   0.107   2.971  15.860 -0.8359  0.4110  0.4595
 5720TIP3    H238652   0.009   3.084  15.835  1.4307  2.4116  0.2592
 5721TIP3   OH238653   1.743   1.369   1.032 -0.4894 -0.6880  0.4085
 5721TIP3    H138654   1.680   1.329   1.092 -1.7817  0.2610 -0.2478
 5721TIP3    H238655   1.701   1.363   0.946  0.8520 -1.0679 -0.2398
 5722TIP3   OH238656   0.311   4.409  14.482 -0.4439 -0.3587  0.0048
 5722TIP3    H138657   0.333   4.320  14.455 -0.0316  0.1346 -1.3875
 5722TIP3    H238658   0.359   4.423  14.563  0.1290 -1.1161 -0.1969
 5723TIP3   OH238659   2.117   0.674  10.813  0.0077 -0.2125 -0.5778
 5723TIP3    H138660   2.113   0.579  10.818  2.0436 -0.4012 -1.5052
 5723TIP3    H238661   2.031   0.700  10.781 -0.4251 -1.7752 -0.7531
 5724TIP3   OH238662   2.139   0.924  13.416  0.2956  0.2802 -0.3023
 5724TIP3    H138663   2.102   0.840  13.388 -1.2452  0.4348  1.1021
 5724TIP3    H238664   2.089   0.990  13.367 -0.2851  0.4435  0.4900
 5725TIP3   OH238665   4.116   5.223  11.866  0.6284  0.1545 -0.3561
 5725TIP3    H138666   4.061   5.177  11.803 -0.0639 -1.3258  1.2496
 5725TIP3    H238667   4.206   5.208  11.836  0.3114 -0.4999 -1.0072
 5726TIP3   OH238668   5.239   2.177  16.672  0.5527  0.1596 -0.1350
 5726TIP3    H138669   5.215   2.109  16.735 -1.8463  0.2424 -0.8649
 5726TIP3    H238670   5.302   2.231  16.718 -1.5478  0.5957  2.4811
 5727TIP3   OH238671   6.112   3.019   1.023  0.4248 -0.1218 -0.0527
 5727TIP3    H138672   6.117   3.004   0.929  0.9004  1.9344 -0.4051
 5727TIP3    H238673   6.080   3.109   1.031  1.1436  0.0168  1.7433
 5728TIP3   OH238674   6.304   3.084  14.700 -0.1268  0.0398 -0.4409
 5728TIP3    H138675   6.217   3.084  14.661  0.1068  0.7015 -0.9888
 5728TIP3    H238676   6.361   3.115  14.630  0.3571  0.8631  0.2984
 5729TIP3   OH238677   4.241   0.880   2.710 -0.2117 -0.1881 -0.1484
 5729TIP3    H138678   4.221   0.816   2.642 -0.4728  0.0801 -0.3270
 5729TIP3    H238679   4.197   0.960   2.681 -1.3042 -0.3717  0.9088
 5730TIP3   OH238680   2.701   5.780  12.682  0.3227 -0.3994  0.3967
 5730TIP3    H138681   2.665   5.861  12.644 -1.8876 -1.8362 -0.7733
 5730TIP3    H238682   2.767   5.751  12.619 -1.6680 -1.5151 -1.2865
 5731TIP3   OH238683   6.226   4.818   0.394  0.1541  0.2594  0.3776
 5731TIP3    H138684   6.155   4.813   0.329  0.2182 -0.2010  0.3422
 5731TIP3    H238685   6.211   4.902   0.438 -0.1944  0.3398  0.1192
 5732TIP3   OH238686   4.031   4.295  14.323 -0.6473 -0.0714  0.2088
 5732TIP3    H138687   4.022   4.334  14.411 -0.4043 -0.2077  0.2963
 5732TIP3    H238688   4.095   4.225  14.335 -1.5686 -0.9372  0.1867
 5733TIP3   OH238689   3.500   1.958   3.512 -0.2953  0.5393 -0.8136
 5733TIP3    H138690   3.483   2.040   3.558 -1.7897 -0.2595  0.1222
 5733TIP3    H238691   3.459   1.891   3.567  1.0341 -0.8614 -1.4748
 5734TIP3   OH238692   2.567   0.493  16.579 -0.4342 -0.5076 -0.3289
 5734TIP3    H138693   2.546   0.401  16.566  0.0160 -0.3515 -2.6106
 5734TIP3    H238694   2.531   0.514  16.666 -3.4139 -2.0033 -1.0666
 5735TIP3   OH238695   2.064   5.478  12.100 -0.5528 -0.0149  0.1175
 5735TIP3    H138696   2.074   5.546  12.166 -0.7175  0.9158 -0.7780
 5735TIP3    H238697   1.969   5.473  12.085 -0.4291  1.3412 -1.5477
 5736TIP3   OH238698   2.886   0.145   5.355  0.1831  0.6867 -0.9980
 5736TIP3    H138699   2.843   0.151   5.441 -0.1553 -1.7816 -0.9135
 5736TIP3    H238700   2.815   0.130   5.293  0.6379 -0.1536 -1.3302
 5737TIP3   OH238701   2.383   4.936   4.857  0.0185 -0.0072  0.3428
 5737TIP3    H138702   2.377   4.861   4.917 -1.0982 -2.4485 -2.5980
 5737TIP3    H238703   2.293   4.968   4.850  0.3325  1.0345  0.7694
 5738TIP3   OH238704   6.714   6.474   3.215  0.1350 -0.3074  0.0845
 5738TIP3    H138705   6.660   6.397   3.196 -1.0533  0.4652  0.2408
 5738TIP3    H238706   6.671   6.545   3.167 -0.7395  0.9323  2.5623
 5739TIP3   OH238707   3.811   0.012   2.205 -0.2905 -0.1100  0.3900
 5739TIP3    H138708   3.723   0.044   2.182  0.0766  1.4528  1.0383
 5739TIP3    H238709   3.868   0.087   2.190  0.8715 -0.9443  0.5036
 5740TIP3   OH238710   4.344   3.875   1.731 -0.0392 -0.4444 -0.5471
 5740TIP3    H138711   4.323   3.802   1.789 -0.7910 -0.8971 -1.3655
 5740TIP3    H238712   4.366   3.947   1.791  1.0894 -1.4257  0.2709
 5741TIP3   OH238713   3.137   3.194   5.989  0.1016 -0.0169 -0.1273
 5741TIP3    H138714   3.109   3.265   6.047 -0.7587 -0.4815  0.0467
 5741TIP3    H238715   3.209   3.151   6.036 -1.6164 -1.4025  1.4183
 5742TIP3   OH238716   2.235   2.676   4.329 -0.2339  0.0390  0.3656
 5742TIP3    H138717   2.161   2.728   4.296  0.7684  0.6122 -1.0539
 5742TIP3    H238718   2.312   2.719   4.293  0.6334 -2.7194 -1.3626
 5743TIP3   OH238719   5.969   2.632   1.541  0.4734 -0.3057 -0.2143
 5743TIP3    H138720   5.884   2.602   1.572 -0.0840 -0.6670 -1.9699
 5743TIP3    H238721   6.020   2.648   1.621 -1.2991  0.1551  0.8670
 5744TIP3   OH238722   2.491   6.275   4.806 -0.3458  0.3201  0.4343
 5744TIP3    H138723   2.400   6.293   4.782 -1.1341 -1.7768  1.4708
 5744TIP3    H238724   2.489   6.184   4.836  2.4850 -0.4320 -1.3037
 5745TIP3   OH238725   4.223   6.327   5.303  0.1259  0.0751 -0.5403
 5745TIP3    H138726   4.224   6.421   5.284  0.9700  0.0065 -0.8423
 5745TIP3    H238727   4.290   6.290   5.247  0.5465 -0.5644  0.3654
 5746TIP3   OH238728   5.073   0.595  12.824  0.9368  0.3724 -0.8877
 5746TIP3    H138729   5.007   0.537  12.863  2.1094 -0.1950  0.3379
 5746TIP3    H238730   5.038   0.616  12.737 -1.7472  1.6382  0.3822
 5747TIP3   OH238731   5.328   6.723   4.973 -0.3953  0.0826  0.6376
 5747TIP3    H138732   5.242   6.759   4.992 -0.2952 -0.4870  2.2852
 5747TIP3    H238733   5.331   6.640   5.020  0.1875 -1.0696 -1.3323
 5748TIP3   OH238734   1.179   6.784   5.527 -0.0764 -0.5901  0.3672
 5748TIP3    H138735   1.216   6.826   5.450  0.2459 -0.6612  0.4811
 5748TIP3    H238736   1.201   6.843   5.599  0.7910 -1.1814  0.5969
 5749TIP3   OH238737   0.498   4.407  14.669  0.6310  0.2872  0.0629
 5749TIP3    H138738   0.501   4.408  14.765 -0.6706  2.0779  0.1315
 5749TIP3    H238739   0.577   4.454  14.643  0.2055  1.1652  0.3193
 5750TIP3   OH238740   5.558   0.607   0.656  0.1515  0.5197 -0.3189
 5750TIP3    H138741   5.492   0.538   0.665 -2.0975  2.4089 -1.1032
 5750TIP3    H238742   5.519   0.682   0.702  2.6862  1.2029  0.8783
 5751TIP3   OH238743   3.964   0.283  15.374  0.2030 -0.0495  0.3144
 5751TIP3    H138744   4.017   0.359  15.397  1.0586 -0.6929  0.5033
 5751TIP3    H238745   3.915   0.262  15.454 -1.2323  1.2329 -0.1855
 5752TIP3   OH238746   0.742   0.152  12.010 -0.2515  0.4189 -0.0871
 5752TIP3    H138747   0.791   0.190  11.937 -0.7783  0.4088 -0.4577
 5752TIP3    H238748   0.651   0.178  11.993 -0.5073 -0.3381  0.0781
 5753TIP3   OH238749   0.608   2.668  11.362  0.8070 -0.2027 -0.1586
 5753TIP3    H138750   0.664   2.745  11.373  1.2394 -0.5124 -0.1707
 5753TIP3    H238751   0.593   2.663  11.268 -0.9967  1.1060  0.0028
 5754TIP3   OH238752   3.861   1.412  11.104  0.1035 -0.8405  0.0221
 5754TIP3    H138753   3.809   1.493  11.103 -0.3519 -1.1218  0.7376
 5754TIP3    H238754   3.877   1.395  11.197  0.8217 -1.1812 -0.1576
 5755TIP3   OH238755   1.319   3.530  16.721 -0.0787  0.2864 -0.6382
 5755TIP3    H138756   1.248   3.566  16.669 -2.1518 -0.6804  1.3644
 5755TIP3    H238757   1.324   3.586  16.798  2.7956  1.5711 -1.6154
 5756TIP3   OH238758   1.330   3.571  12.825 -0.2628 -0.0507 -0.3566
 5756TIP3    H138759   1.336   3.554  12.919  2.4342  1.0424 -0.2508
 5756TIP3    H238760   1.240   3.598  12.811 -0.7288 -0.2729  1.8994
 5757TIP3   OH238761   5.199   3.995  15.520 -0.2540  0.1495  0.0429
 5757TIP3    H138762   5.150   3.926  15.563 -0.2354  0.5393  0.6937
 5757TIP3    H238763   5.174   4.075  15.565 -1.7320  0.8730 -1.9250
 5758TIP3   OH238764   1.089   4.301   4.188  0.0210 -0.0162  0.2178
 5758TIP3    H138765   1.159   4.294   4.123  0.2659  0.3067  0.4439
 5758TIP3    H238766   1.118   4.371   4.247 -0.7418  0.5198 -0.0172
 5759TIP3   OH238767   4.223   4.286  17.039 -0.2020  0.1223  1.0707
 5759TIP3    H138768   4.196   4.263  16.951 -0.8833  0.9509  1.0456
 5759TIP3    H238769   4.141   4.295  17.088  0.0958  0.9295  1.4514
 5760TIP3   OH238770   2.012   2.290   6.546 -0.0042  0.5751 -0.1858
 5760TIP3    H138771   1.994   2.226   6.477  0.8110  0.6448 -0.4659
 5760TIP3    H238772   1.957   2.365   6.523 -0.3596  0.2869 -0.2960
 5761TIP3   OH238773   4.545   6.554   5.444  0.5255 -0.1085  0.3932
 5761TIP3    H138774   4.499   6.616   5.387  2.1971  0.3173 -0.5492
 5761TIP3    H238775   4.553   6.601   5.527 -1.7326 -0.6467  0.9916
 5762TIP3   OH238776   1.288   2.387   3.794 -0.4065 -0.1311  0.2130
 5762TIP3    H138777   1.317   2.393   3.885 -0.7222 -1.4366  0.4182
 5762TIP3    H238778   1.366   2.407   3.743  0.0541 -0.4537  0.7727
 5763TIP3   OH238779   3.433   6.322  11.678 -0.7605 -0.0697  0.4161
 5763TIP3    H138780   3.345   6.359  11.680 -0.3718  0.8434  1.0843
 5763TIP3    H238781   3.419   6.229  11.661 -1.8773 -0.0390  1.0815
 5764TIP3   OH238782   3.154   4.798  16.990 -0.0942  0.1118  0.6074
 5764TIP3    H138783   3.189   4.716  16.955  0.6096  0.7157 -0.1530
 5764TIP3    H238784   3.221   4.829  17.050 -0.1574  0.3510  0.5561
 5765TIP3   OH238785   4.115   4.178   0.371 -0.2845  0.4809 -0.3298
 5765TIP3    H138786   4.104   4.091   0.410  1.7583 -0.9249 -2.5934
 5765TIP3    H238787   4.203   4.205   0.399 -0.5584  1.4280 -0.3675
 5766TIP3   OH238788   2.823   3.558   5.031  0.3037 -0.0544  0.1214
 5766TIP3    H138789   2.800   3.591   5.117  2.0825 -0.5335  0.8182
 5766TIP3    H238790   2.773   3.477   5.022 -0.2535  0.2446  0.5016
 5767TIP3   OH238791   2.325   3.364   4.918  0.1825  0.3472  0.2532
 5767TIP3    H138792   2.250   3.305   4.911  0.0233  0.6151 -0.3418
 5767TIP3    H238793   2.393   3.311   4.961  0.1552 -0.3899 -0.5699
 5768TIP3   OH238794   6.306   2.332  14.267 -0.2715 -0.0199 -0.1293
 5768TIP3    H138795   6.291   2.327  14.361  0.4804  2.8096  0.2469
 5768TIP3    H238796   6.221   2.358  14.230 -0.3510 -0.2484 -0.1039
 5769TIP3   OH238797   5.237   3.401   3.428  0.2921 -0.0810  0.7423
 5769TIP3    H138798   5.178   3.345   3.378 -0.6013  0.6105  0.9935
 5769TIP3    H238799   5.270   3.464   3.365  1.9531 -1.3500  0.2708
 5770TIP3   OH238800   3.463   3.543  15.808  0.3503  0.1075  0.3571
 5770TIP3    H138801   3.439   3.498  15.727 -1.9562  1.9638 -0.0836
 5770TIP3    H238802   3.497   3.474  15.865 -1.9032 -2.0129 -0.6890
 5771TIP3   OH238803   5.340   0.287   4.548  0.6991  0.8959 -0.1079
 5771TIP3    H138804   5.328   0.198   4.516  0.2452  0.7088  0.5777
 5771TIP3    H238805   5.263   0.335   4.516 -0.0173  0.5900  1.0882
 5772TIP3   OH238806   2.175   0.877   0.404  0.1474 -0.1687  0.3406
 5772TIP3    H138807   2.174   0.803   0.343  0.9537 -0.9731  1.2756
 5772TIP3    H238808   2.204   0.952   0.351 -0.4755 -0.5451 -0.5641
 5773TIP3   OH238809   0.801   2.581  12.240 -0.1014 -0.1753  0.0644
 5773TIP3    H138810   0.767   2.512  12.183  0.0246 -0.6936  0.6000
 5773TIP3    H238811   0.895   2.565  12.244 -0.1404 -0.3083  0.6168
 5774TIP3   OH238812   3.024   3.994   1.776 -0.6098 -0.2327  0.2808
 5774TIP3    H138813   2.970   4.032   1.846 -1.7051 -1.2700  0.0386
 5774TIP3    H238814   3.101   3.958   1.822 -0.5922  0.4018  0.7552
 5775TIP3   OH238815   4.427   1.275   0.737 -0.2415 -0.4235  0.6539
 5775TIP3    H138816   4.357   1.341   0.736  0.4886  0.3671 -0.5882
 5775TIP3    H238817   4.405   1.215   0.666  0.8922  0.4598 -0.4826
 5776TIP3   OH238818   1.942   3.458   5.938 -0.3984  0.4411  0.1678
 5776TIP3    H138819   2.000   3.422   6.006  0.0439  0.5696 -0.1359
 5776TIP3    H238820   2.001   3.504   5.879 -0.9068  1.2981  0.3149
 5777TIP3   OH238821   3.431   3.288  10.912  0.6032  0.4813  0.5505
 5777TIP3    H138822   3.447   3.225  10.842 -1.1052 -1.1856  1.5845
 5777TIP3    H238823   3.478   3.254  10.987  0.1854  0.7774  0.9522
 5778TIP3   OH238824   2.323   4.280  17.104 -0.1977  0.6600  0.0791
 5778TIP3    H138825   2.395   4.335  17.072 -1.1482  0.5782 -2.3927
 5778TIP3    H238826   2.274   4.256  17.026 -1.3260 -1.6042  1.3674
 5779TIP3   OH238827   5.242   4.613   6.118  0.2297 -0.7872 -0.2693
 5779TIP3    H138828   5.276   4.525   6.131  1.4321 -0.2643  0.3467
 5779TIP3    H238829   5.282   4.642   6.036  1.1777 -0.2385  0.3620
 5780TIP3   OH238830   6.324   4.265   2.714 -0.4618 -0.4735 -0.2341
 5780TIP3    H138831   6.399   4.317   2.743 -0.9146 -1.1767  2.4775
 5780TIP3    H238832   6.361   4.202   2.653  0.7226  0.6329 -0.7140
 5781TIP3   OH238833   1.738   3.172   4.811  0.5454 -0.2948 -0.1864
 5781TIP3    H138834   1.740   3.261   4.846  2.9003 -0.3135 -0.1740
 5781TIP3    H238835   1.734   3.184   4.716 -0.0140 -0.2156 -0.1612
 5782TIP3   OH238836   1.656   2.992  11.202  0.3567 -0.3789 -0.3642
 5782TIP3    H138837   1.642   2.959  11.291  0.7817 -1.7651 -0.7782
 5782TIP3    H238838   1.629   2.920  11.145  0.9902  0.1209 -1.3295
 5783TIP3   OH238839   1.913   2.812  15.645 -0.5121 -0.0483  0.1807
 5783TIP3    H138840   1.879   2.894  15.681  1.3810  0.4918  0.8127
 5783TIP3    H238841   1.999   2.802  15.685  0.5398 -0.8281 -2.1498
 5784TIP3   OH238842   3.861   5.980   0.454 -0.0438 -0.3448  0.5092
 5784TIP3    H138843   3.770   6.002   0.474 -0.2120 -0.1577 -0.4403
 5784TIP3    H238844   3.895   5.945   0.536 -0.2522  1.8304  1.5989
 5785TIP3   OH238845   6.664   6.428  11.796  0.2454 -0.3420 -0.3052
 5785TIP3    H138846   6.693   6.517  11.815  0.6887 -0.7981  1.2768
 5785TIP3    H238847   6.744   6.378  11.784  0.1348 -1.1584  1.9581
 5786TIP3   OH238848   0.280   1.486  13.475 -0.0834 -0.4176 -0.0344
 5786TIP3    H138849   0.339   1.486  13.399 -1.0602 -0.8524 -0.8220
 5786TIP3    H238850   0.211   1.423  13.451 -1.5306  0.9783  0.3173
 5787TIP3   OH238851   1.789   1.583   2.010 -0.4692  0.5945 -0.0645
 5787TIP3    H138852   1.881   1.583   1.986 -0.7984  1.6834 -1.4119
 5787TIP3    H238853   1.783   1.641   2.086  0.1297 -0.5732  0.9159
 5788TIP3   OH238854   0.734   2.706   1.072  0.0402 -0.3293 -0.0045
 5788TIP3    H138855   0.817   2.662   1.093  0.8079  0.6794 -0.8136
 5788TIP3    H238856   0.676   2.684   1.145  1.2453 -0.4431  0.9519
 5789TIP3   OH238857   0.976   2.870  13.619  0.1642  0.1811 -0.0119
 5789TIP3    H138858   0.925   2.798  13.582 -1.9598  1.5786  0.0349
 5789TIP3    H238859   1.021   2.831  13.694  0.0788 -1.3636 -0.7211
 5790TIP3   OH238860   3.163   5.349  13.650  0.0978 -0.1613 -0.0854
 5790TIP3    H138861   3.156   5.254  13.643 -0.7304 -0.0514 -1.0733
 5790TIP3    H238862   3.251   5.370  13.619  0.2440 -0.5927  0.0363
 5791TIP3   OH238863   1.464   3.358  12.667 -0.6905 -0.3885 -0.2301
 5791TIP3    H138864   1.432   3.275  12.703 -0.0828 -0.0293  1.2136
 5791TIP3    H238865   1.452   3.421  12.738 -0.9289  0.7196 -1.2279
 5792TIP3   OH238866   1.146   4.373  10.901  0.2850 -0.0237  0.1956
 5792TIP3    H138867   1.129   4.320  10.824 -1.6470 -0.3823  0.8122
 5792TIP3    H238868   1.216   4.433  10.874 -0.1475 -0.3203 -1.7262
 5793TIP3   OH238869   4.868   1.553   2.339  0.0416 -0.3350 -0.0844
 5793TIP3    H138870   4.889   1.646   2.340  1.2548 -0.5790  1.0456
 5793TIP3    H238871   4.787   1.546   2.389 -1.3688  0.3337 -2.1605
 5794TIP3   OH238872   5.569   5.024   5.570  0.0187 -0.2249  0.0976
 5794TIP3    H138873   5.620   5.086   5.622  0.6766 -1.0409  0.4543
 5794TIP3    H238874   5.478   5.038   5.598  0.3578 -0.6593  1.5211
 5795TIP3   OH238875   5.115   1.714  15.512  0.1504 -0.4685 -0.3341
 5795TIP3    H138876   5.050   1.687  15.576 -1.0999 -1.4616 -1.9291
 5795TIP3    H238877   5.141   1.633  15.468 -0.5632  0.3475 -2.4118
 5796TIP3   OH238878   4.780   0.807   3.801 -0.0013 -0.0059 -0.1611
 5796TIP3    H138879   4.689   0.798   3.775 -0.0171 -0.3275  0.0010
 5796TIP3    H238880   4.784   0.892   3.845 -0.4644 -0.4701  0.8125
 5797TIP3   OH238881   3.889   5.107  13.742 -0.7539  0.2596 -0.6790
 5797TIP3    H138882   3.971   5.129  13.698 -1.3113 -0.5264 -2.1638
 5797TIP3    H238883   3.913   5.040  13.806 -0.1110  0.6589 -0.4902
 5798TIP3   OH238884   4.890   2.141  16.885  0.2721 -0.4859  0.5212
 5798TIP3    H138885   4.826   2.122  16.953 -0.2474 -0.1877  0.1209
 5798TIP3    H238886   4.838   2.161  16.807  0.8324  0.2979  0.3344
 5799TIP3   OH238887   0.350   6.575  13.867 -0.2572 -0.1333  0.6727
 5799TIP3    H138888   0.282   6.643  13.868 -0.5290 -0.3874  2.4308
 5799TIP3    H238889   0.392   6.582  13.953 -0.2342 -2.1180  0.8655
 5800TIP3   OH238890   6.377   4.631  14.256 -0.0258 -0.2536 -0.2792
 5800TIP3    H138891   6.451   4.620  14.315  0.3690 -0.3500 -0.7848
 5800TIP3    H238892   6.307   4.667  14.311  0.9440  1.5824 -0.1673
 5801TIP3   OH238893   4.983   1.693   0.602  0.5115  0.1472 -0.0041
 5801TIP3    H138894   5.033   1.744   0.664 -0.7856  0.8991  0.4674
 5801TIP3    H238895   4.969   1.608   0.645 -2.7979  1.5617  2.1130
 5802TIP3   OH238896   4.128   5.138   3.254  0.8539 -0.1774  0.4272
 5802TIP3    H138897   4.201   5.186   3.216  1.0020 -0.4515  0.3597
 5802TIP3    H238898   4.104   5.188   3.332 -0.2656  1.0864 -0.6758
 5803TIP3   OH238899   5.916   1.083   5.048  0.0230 -0.0694 -0.3900
 5803TIP3    H138900   6.000   1.111   5.086 -0.2967  1.0986 -0.4912
 5803TIP3    H238901   5.916   1.123   4.960 -0.9356  0.5423 -0.1237
 5804TIP3   OH238902   1.794   6.059   1.532  0.4216 -0.2240 -0.0232
 5804TIP3    H138903   1.734   6.013   1.590  1.3222 -0.7768  0.4889
 5804TIP3    H238904   1.737   6.099   1.466 -0.8422  2.1484  2.3297
 5805TIP3   OH238905   2.680   5.644  15.291  0.1349  0.1583 -0.0156
 5805TIP3    H138906   2.735   5.722  15.291  1.8838 -1.0171 -0.4526
 5805TIP3    H238907   2.732   5.578  15.246 -1.3624 -1.2293  0.2040
 5806TIP3   OH238908   2.046   4.809  14.113 -0.3523  0.1032  0.3710
 5806TIP3    H138909   2.070   4.881  14.172 -1.2483  0.1669  0.6682
 5806TIP3    H238910   2.125   4.754  14.110  0.2299  0.9067  0.4094
 5807TIP3   OH238911   0.484   5.530   3.907 -0.5909 -0.3538 -0.3539
 5807TIP3    H138912   0.420   5.546   3.838 -1.4423  0.2168  0.5344
 5807TIP3    H238913   0.433   5.494   3.979 -0.2183  1.6220  0.9639
 5808TIP3   OH238914   4.974   3.763   4.988 -0.4291 -0.0946 -0.0114
 5808TIP3    H138915   4.972   3.845   5.038  1.1935 -0.5042  0.7949
 5808TIP3    H238916   4.974   3.694   5.054 -0.7275 -0.7237 -0.6548
 5809TIP3   OH238917   6.353   2.509  11.797 -0.4386 -0.0955  0.0101
 5809TIP3    H138918   6.281   2.445  11.798  0.7664 -1.5261  1.6788
 5809TIP3    H238919   6.380   2.513  11.706 -1.6616 -0.6502 -0.4025
 5810TIP3   OH238920   3.558   6.836   3.544 -0.7226 -0.7553 -0.5772
 5810TIP3    H138921   3.579   6.852   3.453 -0.5947  1.4565 -0.2131
 5810TIP3    H238922   3.472   6.794   3.542 -0.5329 -1.1041 -1.7087
 5811TIP3   OH238923   5.573   4.333  13.656  0.4742  0.3225  0.4067
 5811TIP3    H138924   5.631   4.262  13.628  0.7887  0.7298  0.0238
 5811TIP3    H238925   5.491   4.289  13.677  1.4841 -0.5502  2.8877
 5812TIP3   OH238926   6.462   3.134  11.904  0.2146 -0.4424  0.5402
 5812TIP3    H138927   6.462   3.144  12.000 -1.8785  1.2137  0.4508
 5812TIP3    H238928   6.379   3.090  11.885 -1.6109  3.1089 -0.6794
 5813TIP3   OH238929   3.765   2.055  14.745  0.0063 -0.3223 -0.4986
 5813TIP3    H138930   3.743   2.030  14.835 -2.8492  0.1914 -0.9341
 5813TIP3    H238931   3.842   2.110  14.753  2.5993 -3.7988  1.1040
 5814TIP3   OH238932   3.519   0.638   1.819 -0.0971 -0.7869 -0.3308
 5814TIP3    H138933   3.486   0.552   1.844 -0.6737 -0.8391 -1.2036
 5814TIP3    H238934   3.579   0.621   1.747 -0.4410 -0.4417 -0.7069
 5815TIP3   OH238935   3.863   2.614  16.122  0.0551 -1.3128 -0.5236
 5815TIP3    H138936   3.817   2.670  16.184 -0.6189 -1.5347 -0.8172
 5815TIP3    H238937   3.956   2.633  16.138 -0.1650  0.3304 -1.0350
 5816TIP3   OH238938   1.511   1.394  11.800 -0.2024  0.0789  0.3606
 5816TIP3    H138939   1.449   1.361  11.865  1.1540 -1.0705  1.1261
 5816TIP3    H238940   1.537   1.480  11.833 -1.5158  0.6821 -0.0899
 5817TIP3   OH238941   6.283   0.086   2.254 -0.3798 -0.3878  0.2949
 5817TIP3    H138942   6.194   0.098   2.221  0.0766  1.7939 -0.2772
 5817TIP3    H238943   6.338   0.128   2.188  0.9107  0.0392  1.6065
 5818TIP3   OH238944   1.493   0.024  12.837  0.3853 -0.4746 -0.2695
 5818TIP3    H138945   1.568   0.019  12.896  0.8265 -1.4731 -0.8868
 5818TIP3    H238946   1.513   0.097  12.778 -0.0654  0.5360  0.7932
 5819TIP3   OH238947   4.795   5.728   6.299  0.6913  0.5200  0.2726
 5819TIP3    H138948   4.773   5.750   6.390 -0.1022 -0.7477  0.4000
 5819TIP3    H238949   4.711   5.720   6.255  1.0760  1.1807 -0.6068
 5820TIP3   OH238950   3.513   4.777   5.457 -0.3343  0.1793  0.3483
 5820TIP3    H138951   3.570   4.705   5.484  1.5185  1.7514  0.8818
 5820TIP3    H238952   3.572   4.839   5.414 -2.3088  0.1906 -2.6555
 5821TIP3   OH238953   2.989   6.007  15.933  0.0977 -0.1641 -0.3753
 5821TIP3    H138954   3.003   6.076  15.868 -0.2706 -0.1235 -0.4133
 5821TIP3    H238955   2.966   6.054  16.013 -1.0076 -0.2619 -0.6160
 5822TIP3   OH238956   0.783   1.901  11.158  0.4581  0.2150 -0.1875
 5822TIP3    H138957   0.762   1.899  11.065  0.1990 -1.5996 -0.1201
 5822TIP3    H238958   0.737   1.826  11.195 -0.7579  1.7958  1.7193
 5823TIP3   OH238959   1.345   3.562   3.641 -0.1422 -0.2298  0.2784
 5823TIP3    H138960   1.335   3.492   3.706 -1.6186  0.8101  1.2504
 5823TIP3    H238961   1.341   3.643   3.693 -0.8058  0.6293 -1.0558
 5824TIP3   OH238962   2.127   6.046   4.420 -0.1810 -0.0106 -0.1082
 5824TIP3    H138963   2.172   6.119   4.464 -1.1866  1.6317 -1.6433
 5824TIP3    H238964   2.159   6.050   4.330  0.7705 -2.3948  0.0724
 5825TIP3   OH238965   3.884   4.628  15.492 -0.0223  0.8354 -0.1873
 5825TIP3    H138966   3.932   4.545  15.493 -1.1219  0.1873  0.2140
 5825TIP3    H238967   3.858   4.640  15.401 -0.1959  0.5285 -0.1810
 5826TIP3   OH238968   2.509   5.825  14.085  0.3630  0.0365 -0.2581
 5826TIP3    H138969   2.542   5.768  14.016 -0.9267 -1.8351  0.5870
 5826TIP3    H238970   2.535   5.782  14.167 -0.7534  0.5822  0.4132
 5827TIP3   OH238971   1.411   4.726  14.010  0.0326  0.4582  0.4282
 5827TIP3    H138972   1.449   4.640  13.990 -0.0862  0.6423 -0.6791
 5827TIP3    H238973   1.354   4.710  14.085 -0.5377 -0.6035 -0.1877
 5828TIP3   OH238974   5.127   2.535  11.825  0.0752 -0.2092 -0.2087
 5828TIP3    H138975   5.173   2.582  11.894 -1.6373  1.0010  0.1619
 5828TIP3    H238976   5.045   2.582  11.814 -1.5997 -2.8739 -0.0986
 5829TIP3   OH238977   2.078   1.665   4.677  0.2655  0.5455  0.5616
 5829TIP3    H138978   2.136   1.620   4.738 -0.8137  0.3046  1.4529
 5829TIP3    H238979   2.037   1.735   4.729 -1.4988 -0.3493  0.4697
 5830TIP3   OH238980   5.521   6.686   6.351 -0.1978 -0.1430 -0.6635
 5830TIP3    H138981   5.477   6.619   6.404 -0.8045  1.2782  0.6889
 5830TIP3    H238982   5.603   6.702   6.396 -1.3129  2.0667  0.7411
 5831TIP3   OH238983   0.378   5.464  11.635  0.5426 -0.1248  0.6676
 5831TIP3    H138984   0.444   5.450  11.702 -0.0556  0.4445  1.3929
 5831TIP3    H238985   0.358   5.558  11.640  0.8776  0.0490 -0.6815
 5832TIP3   OH238986   6.016   2.297   1.421  0.2237  0.0150 -0.3520
 5832TIP3    H138987   6.085   2.292   1.487  0.0812  1.1139 -0.0979
 5832TIP3    H238988   5.935   2.308   1.472  0.4354  4.8973 -0.5914
 5833TIP3   OH238989   3.650   5.466  16.120  0.0796  0.2715 -0.4064
 5833TIP3    H138990   3.710   5.450  16.047 -0.8878  3.0579 -1.9371
 5833TIP3    H238991   3.566   5.431  16.090 -0.5250  2.1747 -1.1030
 5834TIP3   OH238992   1.676   2.302  15.750 -0.4997 -0.1701  0.0424
 5834TIP3    H138993   1.619   2.300  15.827  0.7221 -3.5153  1.0077
 5834TIP3    H238994   1.616   2.309  15.676 -2.4270 -4.3198  0.9736
 5835TIP3   OH238995   1.872   4.386  14.691 -0.4025 -0.7362  0.0183
 5835TIP3    H138996   1.849   4.465  14.740  0.2240 -0.1269 -0.6426
 5835TIP3    H238997   1.811   4.320  14.723  0.2566 -0.4772  1.9234
 5836TIP3   OH238998   1.430   2.534   3.297 -0.1946 -0.2309  0.4801
 5836TIP3    H138999   1.385   2.609   3.257  0.5010 -0.5806 -1.0576
 5836TIP3    H239000   1.377   2.511   3.373  0.0355  2.3305  1.5103
 5837TIP3   OH239001   1.747   6.248  16.484 -0.1655 -0.1758 -0.1144
 5837TIP3    H139002   1.829   6.219  16.523 -0.3975  0.8747  1.2587
 5837TIP3    H239003   1.679   6.205  16.536 -0.4820  0.4872  0.0385
 5838TIP3   OH239004   4.674   2.448   3.263  0.2090 -0.8824 -0.2370
 5838TIP3    H139005   4.632   2.438   3.349 -1.7816 -0.1048 -1.0613
 5838TIP3    H239006   4.686   2.359   3.231 -0.2022 -1.1379  0.2998
 5839TIP3   OH239007   5.613   1.605   6.229 -0.6710  0.1668  0.2451
 5839TIP3    H139008   5.599   1.699   6.243  1.0875  0.4082  0.6655
 5839TIP3    H239009   5.593   1.565   6.314  2.2043  0.6748  1.2930
 5840TIP3   OH239010   2.019   0.283   4.756 -0.4253  0.5053  0.1507
 5840TIP3    H139011   1.957   0.252   4.823 -1.3046 -2.2853 -1.7602
 5840TIP3    H239012   2.095   0.227   4.767 -0.1922  0.6808 -0.5784
 5841TIP3   OH239013   4.184   4.371  13.467 -0.1610 -0.0654  0.4708
 5841TIP3    H139014   4.159   4.336  13.553 -0.0444  0.3248  0.6642
 5841TIP3    H239015   4.146   4.309  13.404 -0.2149 -0.3750  0.8029
 5842TIP3   OH239016   4.142   0.386   5.255 -0.2345  0.0439 -0.4374
 5842TIP3    H139017   4.173   0.473   5.228  0.1344  0.1465  0.3037
 5842TIP3    H239018   4.048   0.389   5.238 -0.5860  1.3178  1.4411
 5843TIP3   OH239019   2.695   3.839  14.870 -0.2583 -0.6193  0.1559
 5843TIP3    H139020   2.679   3.767  14.810  1.1122 -0.8078 -0.0168
 5843TIP3    H239021   2.634   3.907  14.842 -1.8297 -1.8049  0.5513
 5844TIP3   OH239022   0.545   0.430  14.122  0.4196  0.0040  0.3401
 5844TIP3    H139023   0.543   0.494  14.193 -2.5122 -0.1497  0.5297
 5844TIP3    H239024   0.600   0.358  14.155  0.3392  0.5965  1.8165
 5845TIP3   OH239025   3.036   5.071  16.638  0.0573  0.2095  0.4416
 5845TIP3    H139026   3.064   5.036  16.723 -0.4220  1.0131  0.9488
 5845TIP3    H239027   3.117   5.099  16.596  0.2489  0.3619  0.8963
 5846TIP3   OH239028   4.555   0.767  15.968  0.4302 -0.2179  0.7555
 5846TIP3    H139029   4.480   0.825  15.952 -0.0653 -0.9888  0.2402
 5846TIP3    H239030   4.627   0.827  15.989 -0.1209  0.5760  0.4502
 5847TIP3   OH239031   4.096   5.938  17.083  0.2350  0.3966 -0.6921
 5847TIP3    H139032   4.076   5.881  17.157  0.5121 -1.2016 -1.7969
 5847TIP3    H239033   4.183   5.971  17.102  0.5942 -0.5526 -0.6024
 5848TIP3   OH239034   5.192   0.487   6.168  0.1559  0.2231 -0.2422
 5848TIP3    H139035   5.150   0.513   6.250  0.9044 -0.8030  0.4877
 5848TIP3    H239036   5.265   0.547   6.158  0.6520 -0.2696  0.3657
 5849TIP3   OH239037   6.076   1.095   2.455  0.5450 -0.0806  0.2367
 5849TIP3    H139038   6.037   1.159   2.515  0.9024  0.1624  0.2154
 5849TIP3    H239039   6.083   1.142   2.372  1.2885  0.0359  0.3526
 5850TIP3   OH239040   5.565   0.089   4.142 -0.1762 -0.9915  0.1449
 5850TIP3    H139041   5.486   0.038   4.160 -0.7289 -0.7139 -1.3229
 5850TIP3    H239042   5.613   0.090   4.225 -0.4651 -3.3020  0.4100
 5851TIP3   OH239043   0.609   2.706  10.683  0.2905  0.0483 -0.5300
 5851TIP3    H139044   0.559   2.778  10.723 -0.2637  0.0484 -1.2069
 5851TIP3    H239045   0.668   2.750  10.622 -0.0382 -0.0681 -0.9330
 5852TIP3   OH239046   0.045   1.975  16.852  0.2671  0.2149  0.6735
 5852TIP3    H139047  -0.044   1.938  16.852  0.2745  0.0182 -1.8503
 5852TIP3    H239048   0.084   1.944  16.934 -1.4375 -1.1144  1.0313
 5853TIP3   OH239049   1.368   6.400   5.387  0.3715  0.2231  0.0140
 5853TIP3    H139050   1.310   6.325   5.372  1.5865 -0.6739 -0.4060
 5853TIP3    H239051   1.429   6.398   5.313  0.2796  1.7927 -0.1263
 5854TIP3   OH239052   2.089   6.506  11.651  0.6865  0.0392 -0.7800
 5854TIP3    H139053   2.032   6.570  11.609  0.4720  1.3778  1.3550
 5854TIP3    H239054   2.178   6.534  11.627  0.6237  1.5686  0.5534
 5855TIP3   OH239055   4.425   2.407   5.281 -0.1790  0.5023  0.7821
 5855TIP3    H139056   4.333   2.434   5.285 -0.9195 -1.7633  0.6776
 5855TIP3    H239057   4.454   2.432   5.194 -1.5328 -1.0135 -0.1664
 5856TIP3   OH239058   2.970   4.987  14.614  0.8513  0.3651 -0.4995
 5856TIP3    H139059   2.882   5.012  14.643  0.1155  0.5388 -2.7292
 5856TIP3    H239060   2.971   5.007  14.521  2.4026 -2.0379 -1.0816
 5857TIP3   OH239061   1.221   5.096  16.916 -0.9591  0.5194 -0.9381
 5857TIP3    H139062   1.218   5.169  16.854 -0.0494 -1.0193 -2.9200
 5857TIP3    H239063   1.154   5.036  16.885 -0.7520 -0.1131 -0.1874
 5858TIP3   OH239064   4.900   5.107   4.117 -0.2507 -0.2066  0.2091
 5858TIP3    H139065   4.964   5.068   4.056  0.2184  0.6323  0.1511
 5858TIP3    H239066   4.868   5.185   4.071  0.6769  0.8704  1.3329
 5859TIP3   OH239067   4.629   5.422   1.519  0.0749  0.0580  0.1099
 5859TIP3    H139068   4.541   5.455   1.535  0.4386  1.0948  0.0281
 5859TIP3    H239069   4.646   5.364   1.594 -1.1186 -1.1272 -0.4951
 5860TIP3   OH239070   3.986   5.745   3.126  0.1186 -0.0778  0.2335
 5860TIP3    H139071   3.912   5.695   3.091  0.4809 -0.1173 -0.5075
 5860TIP3    H239072   4.044   5.756   3.051 -0.1227  1.7708  0.2705
 5861TIP3   OH239073   1.866   2.163  15.189 -0.3991  0.5189 -0.2528
 5861TIP3    H139074   1.928   2.093  15.170 -0.9188 -0.4906  1.4658
 5861TIP3    H239075   1.913   2.219  15.251 -0.1327  1.4849 -1.3124
 5862TIP3   OH239076   0.751   6.297  12.172  0.6338 -0.1681  0.7850
 5862TIP3    H139077   0.699   6.230  12.217  0.3560  0.5727  1.5970
 5862TIP3    H239078   0.688   6.344  12.118  0.3069  1.0830  2.1834
 5863TIP3   OH239079   3.096   0.207   0.928  0.3929 -0.2545  0.1246
 5863TIP3    H139080   3.084   0.137   0.863  1.5239 -0.4189  0.0746
 5863TIP3    H239081   3.188   0.200   0.955  0.2668  0.5993  0.8395
 5864TIP3   OH239082   4.057   0.398  16.938  0.2428  0.1902 -0.4945
 5864TIP3    H139083   4.043   0.431  17.027  2.2180  0.5926 -0.2801
 5864TIP3    H239084   4.076   0.305  16.949  0.8627  0.3190 -0.4430
 5865TIP3   OH239085   3.119   4.110   0.358  0.4753  0.0747  0.2806
 5865TIP3    H139086   3.062   4.040   0.390 -2.1438  1.8266 -0.2310
 5865TIP3    H239087   3.109   4.108   0.263  0.9328  0.6859  0.2174
 5866TIP3   OH239088   6.285   1.043   6.099  0.3386 -0.0023  0.3167
 5866TIP3    H139089   6.312   1.123   6.144 -0.8757  1.1285 -0.8843
 5866TIP3    H239090   6.292   0.975   6.166  3.4630  0.6531  0.7982
 5867TIP3   OH239091   1.758   6.046   3.356 -0.0906 -0.1675 -1.0639
 5867TIP3    H139092   1.670   6.036   3.394  1.3947 -1.4677  2.4778
 5867TIP3    H239093   1.783   5.956   3.332  0.4271  0.1490 -1.7389
 5868TIP3   OH239094   6.813   5.804   2.739  0.1923  0.1570  0.6412
 5868TIP3    H139095   6.742   5.818   2.800 -0.4894  1.6443 -0.4326
 5868TIP3    H239096   6.861   5.887   2.737  1.2511 -0.4346  0.4578
 5869TIP3   OH239097   4.532   5.916  13.508  0.3279  0.2688  0.4095
 5869TIP3    H139098   4.586   5.870  13.443 -0.1543  0.1168  0.1128
 5869TIP3    H239099   4.448   5.931  13.464  0.3867  1.2097  0.5972
 5870TIP3   OH239100   6.751   6.695   4.621 -0.6231 -0.0686 -0.2004
 5870TIP3    H139101   6.660   6.673   4.639 -0.6309 -0.2130 -0.4043
 5870TIP3    H239102   6.791   6.611   4.595  0.2356 -0.5636  2.4848
 5871TIP3   OH239103   4.808   6.324   3.242  0.6273 -0.5291  0.1086
 5871TIP3    H139104   4.898   6.356   3.242  0.3082  0.4940  1.7669
 5871TIP3    H239105   4.764   6.376   3.309 -0.3389 -3.3186  1.8185
 5872TIP3   OH239106   0.350   3.344   2.274  0.4877  0.4022  0.0642
 5872TIP3    H139107   0.297   3.281   2.324  0.8633  0.4537  0.5389
 5872TIP3    H239108   0.322   3.430   2.306  0.7904  0.4327  0.2558
 5873TIP3   OH239109   4.955   6.571   3.565 -0.4240 -0.3881  0.3257
 5873TIP3    H139110   4.902   6.527   3.500  0.6119  0.0408 -0.8518
 5873TIP3    H239111   4.995   6.645   3.518  1.9785 -1.2485  0.8425
 5874TIP3   OH239112   4.550   1.601  11.914 -0.1627  0.0992 -0.3394
 5874TIP3    H139113   4.517   1.665  11.851  3.2812 -0.0378 -2.5424
 5874TIP3    H239114   4.622   1.646  11.958 -0.5048 -0.8805  1.2995
 5875TIP3   OH239115   2.244   3.750  14.470  0.0558 -0.1616 -0.6099
 5875TIP3    H139116   2.337   3.732  14.455 -0.0680 -0.4040 -1.0809
 5875TIP3    H239117   2.217   3.684  14.534  0.4140  0.4515  0.2020
 5876TIP3   OH239118   6.330   2.885  12.899 -0.1547 -0.7357  0.3433
 5876TIP3    H139119   6.321   2.826  12.974 -0.0809  2.0940  2.7236
 5876TIP3    H239120   6.420   2.916  12.903 -0.7816  1.2009  0.5448
 5877TIP3   OH239121   1.653   0.005  11.802  0.2054 -0.0735  0.1535
 5877TIP3    H139122   1.669   0.005  11.897  2.2838  0.5755 -0.1570
 5877TIP3    H239123   1.671  -0.085  11.775 -0.3268 -0.2436  0.3613
 5878TIP3   OH239124   3.433   0.874  15.526 -0.0573  0.6545 -0.5588
 5878TIP3    H139125   3.459   0.925  15.603  1.1190 -0.4681 -0.1802
 5878TIP3    H239126   3.354   0.827  15.554  0.3619  0.2569 -0.0223
 5879TIP3   OH239127   4.298   5.960  13.388 -0.1792 -0.3635 -0.0787
 5879TIP3    H139128   4.286   6.054  13.402  0.5551 -0.5756  2.4722
 5879TIP3    H239129   4.212   5.923  13.406 -0.2626 -0.2398 -0.2228
 5880TIP3   OH239130   5.019   4.662  15.688 -0.2058 -0.4070 -0.1825
 5880TIP3    H139131   5.028   4.680  15.781 -0.4582 -1.0265 -0.0347
 5880TIP3    H239132   4.945   4.715  15.660  0.4114  0.4518 -0.2224
 5881TIP3   OH239133   6.004   0.342  14.707  0.0425 -0.0123 -0.2247
 5881TIP3    H139134   6.035   0.301  14.626  1.1875 -1.4721  0.8964
 5881TIP3    H239135   6.026   0.435  14.697  2.8605 -0.6237 -0.4154
 5882TIP3   OH239136   2.001   6.478  15.422 -0.8234  0.2196 -0.0571
 5882TIP3    H139137   1.906   6.480  15.429 -0.8680 -0.7500 -0.3352
 5882TIP3    H239138   2.032   6.475  15.513 -1.0709 -0.0341  0.0175
 5883TIP3   OH239139   2.975   0.186  15.812 -0.1155  0.1022 -0.2296
 5883TIP3    H139140   2.933   0.136  15.742  0.0830 -1.4796  0.7463
 5883TIP3    H239141   2.952   0.139  15.892  0.1228  1.5658  0.7272
 5884TIP3   OH239142   0.242   2.772   2.963  0.5768  0.6219  0.2293
 5884TIP3    H139143   0.292   2.704   3.009 -0.4794  0.6063  1.4119
 5884TIP3    H239144   0.161   2.779   3.013 -1.5331 -0.7578 -2.7014
 5885TIP3   OH239145   6.357   2.670  12.410 -0.3197  0.0387  0.4034
 5885TIP3    H139146   6.401   2.724  12.476  1.1773  0.9394 -1.2456
 5885TIP3    H239147   6.307   2.732  12.358  0.6724 -0.2396 -0.9442
 5886TIP3   OH239148   6.440   1.699  15.298 -0.1170 -0.1828 -0.3544
 5886TIP3    H139149   6.378   1.700  15.226 -0.8364 -0.3915  0.2508
 5886TIP3    H239150   6.483   1.784  15.294 -0.4182 -0.0474 -0.7957
 5887TIP3   OH239151   0.513   2.276  13.171  0.4602 -0.2190 -0.0504
 5887TIP3    H139152   0.578   2.267  13.101  0.7073 -2.0784  0.3621
 5887TIP3    H239153   0.458   2.198  13.162 -0.2924  0.1726  1.0333
 5888TIP3   OH239154   0.160   4.364  14.865 -0.2765  0.2306 -0.2693
 5888TIP3    H139155   0.077   4.317  14.879 -0.5714  0.1458 -2.0676
 5888TIP3    H239156   0.227   4.296  14.873 -0.3607  0.2831  1.1091
 5889TIP3   OH239157   2.238   3.102   2.321 -0.4078  0.1259 -0.2942
 5889TIP3    H139158   2.200   3.189   2.333 -0.2815  0.0838  0.4707
 5889TIP3    H239159   2.326   3.118   2.287 -0.7735  0.2559 -1.1831
 5890TIP3   OH239160   6.287   2.694  15.331 -0.5339  0.4687  0.3230
 5890TIP3    H139161   6.208   2.654  15.365  0.0650  1.1584  2.7113
 5890TIP3    H239162   6.357   2.663  15.388  0.8637  0.3124 -1.3787
 5891TIP3   OH239163   5.420   1.393   1.950  0.4398  0.4354  0.2528
 5891TIP3    H139164   5.351   1.354   2.005  0.9024 -0.6729  0.0830
 5891TIP3    H239165   5.379   1.471   1.913 -0.3122  0.4829  1.1329
 5892TIP3   OH239166   3.062   4.313  13.712  0.2825  0.0789 -0.2933
 5892TIP3    H139167   3.047   4.379  13.779  1.4050  1.4355 -1.3201
 5892TIP3    H239168   3.152   4.284  13.727  1.7353  2.6355 -2.9469
 5893TIP3   OH239169   3.933   5.858  12.029 -0.0378 -0.6407  0.2581
 5893TIP3    H139170   3.937   5.942  12.075 -3.0983 -1.4401  2.2489
 5893TIP3    H239171   3.930   5.792  12.098 -2.3556 -2.0661 -1.0864
 5894TIP3   OH239172   6.383   1.265   2.478 -0.4700 -0.7459 -0.6379
 5894TIP3    H139173   6.417   1.324   2.545 -1.0380  1.0329 -1.8469
 5894TIP3    H239174   6.301   1.232   2.514 -0.6999  0.0809 -0.3886
 5895TIP3   OH239175   5.159   1.404  15.525 -0.4468  0.1161 -0.2200
 5895TIP3    H139176   5.255   1.404  15.517 -0.3940  1.1792  0.2442
 5895TIP3    H239177   5.140   1.329  15.581  0.1261  0.0283 -0.1281
 5896TIP3   OH239178   4.264   5.114  11.593  0.1976 -0.1559 -0.2717
 5896TIP3    H139179   4.300   5.053  11.657 -2.0374  0.8772  2.1833
 5896TIP3    H239180   4.228   5.058  11.524  1.5532 -1.3763 -0.0310
 5897TIP3   OH239181   6.620   4.860  13.117 -0.8106 -0.6177  0.1268
 5897TIP3    H139182   6.540   4.870  13.065  0.0140 -0.7952 -1.2216
 5897TIP3    H239183   6.617   4.770  13.148 -1.0251 -0.6955 -0.1135
 5898TIP3   OH239184   3.836   5.793  14.373  0.5584  0.6785  0.5743
 5898TIP3    H139185   3.906   5.741  14.332  1.6993  2.3521  0.2934
 5898TIP3    H239186   3.864   5.802  14.464  0.4666  0.9269  0.5794
 5899TIP3   OH239187   3.066   2.063   1.951  0.0909 -0.5732  0.2324
 5899TIP3    H139188   3.049   2.094   1.862 -0.4714  1.1274  0.8842
 5899TIP3    H239189   2.979   2.053   1.990  0.3329 -1.1763  0.6304
 5900TIP3   OH239190   0.344   1.412  13.037  0.0426 -0.0276 -0.1917
 5900TIP3    H139191   0.352   1.339  12.975  1.4683  0.1973 -0.3031
 5900TIP3    H239192   0.371   1.489  12.987 -0.5906  0.4559  0.1861
 5901TIP3   OH239193   3.498   5.002  11.496  0.8234 -0.4896 -0.3746
 5901TIP3    H139194   3.414   4.970  11.527  2.1612 -2.5761  1.4171
 5901TIP3    H239195   3.505   5.090  11.533 -0.4775 -0.3471 -0.4173
 5902TIP3   OH239196   4.532   5.739  15.678 -0.1518 -0.3968  1.1707
 5902TIP3    H139197   4.625   5.728  15.697 -0.0948  1.1738  1.9118
 5902TIP3    H239198   4.524   5.717  15.585  1.0414 -0.0564  0.9737
 5903TIP3   OH239199   1.855   1.603   0.692 -0.2418  0.2954 -0.1895
 5903TIP3    H139200   1.907   1.558   0.759 -1.0525  1.4013  1.2472
 5903TIP3    H239201   1.847   1.693   0.724 -0.5332  0.9121 -1.8748
 5904TIP3   OH239202   5.472   2.580   3.143  0.1923 -0.2129 -0.2579
 5904TIP3    H139203   5.401   2.631   3.184  0.2084 -0.4042  0.0096
 5904TIP3    H239204   5.460   2.491   3.176  0.8675 -0.1440  0.1955
 5905TIP3   OH239205   1.632   6.737  13.699 -0.1934  0.5720  0.1618
 5905TIP3    H139206   1.610   6.665  13.759 -0.0270  0.4104  0.0286
 5905TIP3    H239207   1.582   6.811  13.732  0.7994  0.8017  1.2331
 5906TIP3   OH239208   3.518   1.370  12.434  0.0278  0.2407  0.1462
 5906TIP3    H139209   3.536   1.279  12.458 -0.5323  0.2974  0.8112
 5906TIP3    H239210   3.453   1.400  12.498 -1.2225  0.5234 -1.1939
 5907TIP3   OH239211   6.562   6.386  15.457 -1.0775 -0.4788  0.1714
 5907TIP3    H139212   6.614   6.317  15.417 -1.2634 -0.4406 -0.1370
 5907TIP3    H239213   6.535   6.350  15.541 -1.0827 -0.7396  0.0580
 5908TIP3   OH239214   4.874   5.507   3.660 -0.1591 -0.2034  0.4332
 5908TIP3    H139215   4.791   5.508   3.709 -0.9439  2.3439 -0.7547
 5908TIP3    H239216   4.865   5.434   3.599 -2.6078  1.2743 -1.1775
 5909TIP3   OH239217   2.510   0.682  15.890 -0.0934  0.2558  0.0552
 5909TIP3    H139218   2.427   0.636  15.894  0.5467 -1.1303 -1.5968
 5909TIP3    H239219   2.488   0.774  15.909 -1.8191 -0.2325  0.5659
 5910TIP3   OH239220   3.661   6.010   1.277 -0.0883 -0.1606 -0.1411
 5910TIP3    H139221   3.719   6.008   1.353  1.3941 -0.4149 -1.2448
 5910TIP3    H239222   3.616   6.094   1.283  0.9274  0.3589  0.3658
 5911TIP3   OH239223   3.752   2.042   6.276 -0.1202  0.2293  0.3711
 5911TIP3    H139224   3.709   1.958   6.293 -0.2300  0.0689 -0.6134
 5911TIP3    H239225   3.838   2.033   6.317 -0.3806 -0.0976  0.8646
 5912TIP3   OH239226   5.971   0.810  15.327  0.8823 -0.2291 -0.1547
 5912TIP3    H139227   5.905   0.747  15.297  2.0546 -0.7806 -1.6929
 5912TIP3    H239228   6.014   0.767  15.400 -1.3055  0.6939  1.8045
 5913TIP3   OH239229   1.247   1.936  13.165 -0.3797 -0.0653  0.3112
 5913TIP3    H139230   1.233   1.940  13.071 -0.6719  0.0391  0.3573
 5913TIP3    H239231   1.163   1.905  13.200 -0.5126  0.6087  0.6000
 5914TIP3   OH239232   6.560   2.149  15.875 -0.0550 -0.0516  0.0756
 5914TIP3    H139233   6.655   2.142  15.870 -0.2086 -2.3297 -1.5506
 5914TIP3    H239234   6.539   2.128  15.966  0.9903  0.6400  0.4933
 5915TIP3   OH239235   0.012   1.754  13.322 -0.3305 -0.1621  0.2845
 5915TIP3    H139236   0.105   1.758  13.340 -0.3938  0.2345  0.5433
 5915TIP3    H239237  -0.009   1.660  13.320  0.1745 -0.2607 -0.3265
 5916TIP3   OH239238   5.840   0.301  12.540 -0.3082  0.2536  0.2848
 5916TIP3    H139239   5.820   0.226  12.485 -0.4479 -0.4267  1.2328
 5916TIP3    H239240   5.901   0.354  12.488  0.6723 -1.0744  0.0409
 5917TIP3   OH239241   5.747   2.584   3.635  0.1138 -0.0492 -0.5567
 5917TIP3    H139242   5.811   2.606   3.568 -1.1618  2.0437 -1.1756
 5917TIP3    H239243   5.750   2.657   3.696  0.1226 -1.1682  0.8361
 5918TIP3   OH239244   1.949   1.006  15.838  0.0229  0.0497  0.0078
 5918TIP3    H139245   1.940   1.012  15.743 -2.4200 -1.4936  0.0600
 5918TIP3    H239246   1.966   0.914  15.855  0.6218  0.3368  1.1002
 5919TIP3   OH239247   2.798   3.330  16.301  0.0459 -0.5706 -1.0215
 5919TIP3    H139248   2.790   3.380  16.220  0.7488  1.5599  0.1579
 5919TIP3    H239249   2.891   3.330  16.321 -0.3388  1.2228  1.1126
 5920TIP3   OH239250   2.069   6.448   1.130  0.3422  0.0412  0.2479
 5920TIP3    H139251   2.082   6.507   1.205  2.5324 -1.7268  1.3925
 5920TIP3    H239252   2.007   6.494   1.073 -0.9251  1.7371  2.8246
 5921TIP3   OH239253   2.425   4.631  13.898 -0.0321  0.1500  1.0675
 5921TIP3    H139254   2.381   4.631  13.813  0.7015  3.0085  0.5924
 5921TIP3    H239255   2.496   4.568  13.889  0.2574  0.6680 -0.6020
 5922TIP3   OH239256   6.168   2.860  12.331  0.2153  0.1127  0.5535
 5922TIP3    H139257   6.102   2.861  12.261  0.6300  0.5915  0.1608
 5922TIP3    H239258   6.125   2.904  12.405 -0.3647 -0.7505  0.7397
 5923TIP3   OH239259   6.721   1.191  12.830  0.4004 -0.6317  0.4208
 5923TIP3    H139260   6.748   1.283  12.839  0.8983 -0.6240 -0.8573
 5923TIP3    H239261   6.641   1.196  12.777  0.4892 -0.9322  0.2590
 5924TIP3   OH239262   4.542   4.398  13.052  0.1327 -0.0532 -0.1689
 5924TIP3    H139263   4.459   4.363  13.083  0.8009 -0.9269  0.7193
 5924TIP3    H239264   4.559   4.350  12.971  0.7041 -1.3420  0.6828
 5925TIP3   OH239265   6.553   3.701  10.904  0.5519  0.1812 -0.8453
 5925TIP3    H139266   6.603   3.697  10.823 -0.0108  1.0250 -1.2519
 5925TIP3    H239267   6.619   3.693  10.973  1.5821  3.3023 -1.3198
 5926TIP3   OH239268   5.138   0.229  15.474 -0.4974  0.1646  0.4651
 5926TIP3    H139269   5.172   0.155  15.423 -1.2862  0.6587 -0.8373
 5926TIP3    H239270   5.069   0.266  15.419  0.5273  2.4817  0.6301
 5927TIP3   OH239271   0.094   4.354   1.745  0.2846  0.7645 -0.0766
 5927TIP3    H139272   0.167   4.296   1.766  1.2658  1.7425 -0.6832
 5927TIP3    H239273   0.134   4.441   1.735 -1.1207  1.5494  0.7122
 5928TIP3   OH239274   2.141   4.198  13.767  0.1796 -0.0105  0.0805
 5928TIP3    H139275   2.162   4.245  13.686 -2.8669 -2.4378 -2.3701
 5928TIP3    H239276   2.217   4.142  13.783 -0.1712 -1.5114 -2.8410
 5929TIP3   OH239277   2.099   5.627   0.803  0.1765  0.3271  0.6707
 5929TIP3    H139278   2.128   5.558   0.743  0.0287  0.4680  0.4347
 5929TIP3    H239279   2.026   5.589   0.851 -0.4400  0.5961 -0.0427
 5930TIP3   OH239280   5.128   0.874  13.937 -0.3979 -0.0458 -0.0177
 5930TIP3    H139281   5.117   0.779  13.927 -0.5792 -0.0627  0.3149
 5930TIP3    H239282   5.040   0.909  13.930 -0.3090  0.1185 -0.3227
 5931TIP3   OH239283   1.255   4.571  15.117 -0.3495  0.0072  0.3217
 5931TIP3    H139284   1.279   4.653  15.162  0.5407  0.0851 -0.2595
 5931TIP3    H239285   1.226   4.513  15.187 -0.3146  0.5918  0.8335
 5932TIP3   OH239286   6.076   5.898   6.731 -0.1938  0.0047 -0.2950
 5932TIP3    H139287   6.142   5.948   6.683  0.4522  0.8757  1.3971
 5932TIP3    H239288   6.029   5.849   6.664  1.6830 -0.0660 -1.6238
 5933TIP3   OH239289   2.569   1.823  11.877 -0.3230 -0.0048  0.7407
 5933TIP3    H139290   2.628   1.865  11.939  1.3704 -1.1715 -0.0348
 5933TIP3    H239291   2.499   1.787  11.932  1.1430 -1.0365  2.0255
 5934TIP3   OH239292   5.293   6.313  11.696  0.0197 -0.0065 -0.3728
 5934TIP3    H139293   5.342   6.327  11.615  0.7435 -0.2781  0.0081
 5934TIP3    H239294   5.207   6.352  11.679  0.4508  0.7217 -0.9588
 5935TIP3   OH239295   1.895   1.769  12.953 -0.6114 -0.3259 -0.5950
 5935TIP3    H139296   1.874   1.836  13.018 -0.0396  0.0595 -0.7980
 5935TIP3    H239297   1.933   1.818  12.879 -1.6488 -0.7058 -1.4139
 5936TIP3   OH239298   1.702   6.511   0.278  0.8426 -0.6233  0.0394
 5936TIP3    H139299   1.723   6.426   0.317  1.1972 -0.5691 -0.0335
 5936TIP3    H239300   1.785   6.542   0.242  0.3930 -0.9883 -1.3930
 5937TIP3   OH239301   3.022   4.573  16.413 -0.5816  0.1810 -0.4643
 5937TIP3    H139302   3.021   4.562  16.508 -1.4782 -3.1399 -0.7158
 5937TIP3    H239303   3.085   4.643  16.398  1.5219 -0.8415  2.4879
 5938TIP3   OH239304   4.364   4.673  14.943  0.4459  0.5054 -0.0226
 5938TIP3    H139305   4.427   4.685  15.014  0.0977  1.3866  0.1563
 5938TIP3    H239306   4.284   4.713  14.976  0.3207  1.0643 -0.9697
 5939TIP3   OH239307   5.104   1.647  16.361  0.2186  0.3510  0.0964
 5939TIP3    H139308   5.184   1.685  16.397  0.9872 -0.0161 -1.1634
 5939TIP3    H239309   5.076   1.584  16.427 -0.7648  2.5795  1.9688
 5940TIP3   OH239310   3.593   0.615  12.505 -0.7969 -0.1069 -0.6176
 5940TIP3    H139311   3.624   0.525  12.515 -0.3134 -0.1856 -2.4405
 5940TIP3    H239312   3.616   0.657  12.587  0.6240 -1.1985 -0.4103
 5941TIP3   OH239313   6.397   1.732   6.049  0.2482  0.2646  0.6157
 5941TIP3    H139314   6.359   1.644   6.044 -2.4775  1.1847  2.5744
 5941TIP3    H239315   6.362   1.769   6.130  1.9529  2.9013  0.2804
 5942TIP3   OH239316   0.489   0.603  11.264  0.5449 -0.4628  0.0958
 5942TIP3    H139317   0.409   0.650  11.241  0.3937 -0.2595  1.0044
 5942TIP3    H239318   0.515   0.559  11.183  0.5740  0.9875 -0.7169
 5943TIP3   OH239319   0.134   4.173  15.920 -0.1104  0.2805  0.5900
 5943TIP3    H139320   0.071   4.120  15.871 -1.4260  0.9110  1.5544
 5943TIP3    H239321   0.082   4.244  15.959  1.3072  1.2367  0.8346
 5944TIP3   OH239322   4.964   2.723  11.562 -0.1950 -0.2746 -0.3721
 5944TIP3    H139323   4.983   2.795  11.502  1.7533 -0.9005 -0.5826
 5944TIP3    H239324   4.993   2.645  11.516 -0.8233 -1.0323  0.4780
 5945TIP3   OH239325   4.189   1.698  11.303 -0.5335  0.4271 -0.4051
 5945TIP3    H139326   4.120   1.759  11.329 -0.2181  1.3447 -1.6676
 5945TIP3    H239327   4.162   1.614  11.341 -0.5647  1.4746  2.0564
 5946TIP3   OH239328   0.864   6.367  11.219  0.1242  0.0604 -0.1705
 5946TIP3    H139329   0.917   6.291  11.197  0.5673  0.4947 -0.6243
 5946TIP3    H239330   0.797   6.371  11.150 -0.8201 -0.7738  0.6699
 5947TIP3   OH239331   6.295   3.007   0.320  0.0996 -0.6180  0.1159
 5947TIP3    H139332   6.217   2.965   0.285 -1.1674  0.5454  1.4375
 5947TIP3    H239333   6.354   3.016   0.245 -1.4566 -0.5369 -1.1273
 5948TIP3   OH239334   0.978   6.511   1.549 -0.5928  0.7650  0.2048
 5948TIP3    H139335   1.073   6.518   1.558 -0.3069 -0.5429 -1.2185
 5948TIP3    H239336   0.943   6.550   1.628  1.2254 -0.8300  1.9134
 5949TIP3   OH239337   4.237   5.706   5.966  0.0442 -0.7827  0.0593
 5949TIP3    H139338   4.307   5.694   5.902  0.2893  0.4218  0.0727
 5949TIP3    H239339   4.163   5.738   5.915  0.2420  0.1882  0.3618
 5950TIP3   OH239340   0.271   0.432   5.226 -0.2278  0.5050 -0.7232
 5950TIP3    H139341   0.352   0.482   5.213 -0.5299  1.8783  2.0945
 5950TIP3    H239342   0.301   0.346   5.255  0.2065  0.1096 -2.2143
 5951TIP3   OH239343   4.462   6.300  14.616 -0.3761  0.4243  0.2709
 5951TIP3    H139344   4.371   6.299  14.585 -0.3909  0.0443  0.3179
 5951TIP3    H239345   4.468   6.379  14.670 -0.7983  0.2189  0.6225
 5952TIP3   OH239346   4.887   5.510  11.707  0.3227  0.1122 -0.0142
 5952TIP3    H139347   4.811   5.567  11.697  0.9333  1.0098  0.3556
 5952TIP3    H239348   4.869   5.436  11.649 -1.0574  0.0593  0.4341
 5953TIP3   OH239349   5.854   4.129   5.273 -0.4004 -0.6920  0.3971
 5953TIP3    H139350   5.794   4.202   5.291 -1.1424 -1.6212  1.9751
 5953TIP3    H239351   5.831   4.099   5.185 -1.1061  0.0209  0.3312
 5954TIP3   OH239352   2.460   1.807  14.610 -0.0156 -0.4986  0.5446
 5954TIP3    H139353   2.550   1.827  14.585 -0.0435 -0.5204  0.4279
 5954TIP3    H239354   2.447   1.857  14.691 -0.3179  0.5695 -0.1348
 5955TIP3   OH239355   6.534   6.103   0.187  0.3970 -0.5177 -0.3379
 5955TIP3    H139356   6.580   6.168   0.240 -1.2821 -0.4257  1.0637
 5955TIP3    H239357   6.603   6.063   0.134  1.9256  0.3421  0.9140
 5956TIP3   OH239358   3.141   0.722   1.702 -0.1295  0.1050 -0.0868
 5956TIP3    H139359   3.045   0.720   1.702 -0.3032  3.3784  0.6094
 5956TIP3    H239360   3.164   0.712   1.609 -0.9900 -2.1396 -0.1282
 5957TIP3   OH239361   2.569   6.613  12.427 -0.0231  0.0083 -0.3370
 5957TIP3    H139362   2.624   6.692  12.435  1.5736 -1.1079  0.2988
 5957TIP3    H239363   2.613   6.560  12.360 -0.0489 -1.1167  0.5119
 5958TIP3   OH239364   0.884   5.585   6.130  0.2568  0.2954 -0.3485
 5958TIP3    H139365   0.830   5.664   6.126  1.0209  0.9919  1.6612
 5958TIP3    H239366   0.841   5.530   6.195  0.3158 -0.5104 -0.9735
 5959TIP3   OH239367   2.540   1.739   3.630  0.2931 -0.0434  0.2568
 5959TIP3    H139368   2.609   1.739   3.697  0.4419 -0.1044  0.1023
 5959TIP3    H239369   2.465   1.697   3.673  0.3400  0.0512  0.4342
 5960TIP3   OH239370   4.475   2.257   0.584  0.6440  0.3828 -0.5838
 5960TIP3    H139371   4.532   2.303   0.523 -1.4076 -2.4484 -5.2326
 5960TIP3    H239372   4.526   2.181   0.612  0.5595  0.0506 -1.3271
 5961TIP3   OH239373   4.262   1.718   5.920 -0.1730  0.1333 -0.2387
 5961TIP3    H139374   4.348   1.752   5.945 -0.6383  1.7182 -0.6419
 5961TIP3    H239375   4.210   1.724   6.001  0.0588 -0.6958 -0.0288
 5962TIP3   OH239376   3.419   4.703   0.514 -0.2263  0.0124  0.3075
 5962TIP3    H139377   3.469   4.683   0.435 -0.3611  0.4284  0.1109
 5962TIP3    H239378   3.349   4.760   0.483  1.4023  2.6585  1.1246
 5963TIP3   OH239379   5.809   4.907   1.485 -0.3549 -0.1139  0.1454
 5963TIP3    H139380   5.831   4.995   1.515 -0.1222 -0.2290  0.3149
 5963TIP3    H239381   5.714   4.903   1.490 -0.3640  0.1184  0.1639
 5964TIP3   OH239382   3.192   2.922  12.970  0.0911 -0.7116  0.2053
 5964TIP3    H139383   3.166   2.853  13.032  0.4705 -0.0862  1.0921
 5964TIP3    H239384   3.281   2.945  12.996 -0.8118  1.7228  1.4816
 5965TIP3   OH239385   0.116   3.013  16.443  0.4163 -0.0208  0.1467
 5965TIP3    H139386   0.203   3.042  16.415  0.2486 -1.4437 -2.1107
 5965TIP3    H239387   0.063   3.093  16.443  1.3271  0.6036 -0.0527
 5966TIP3   OH239388   6.131   1.183  11.116  0.0303 -0.1265 -0.0058
 5966TIP3    H139389   6.149   1.277  11.117  2.3811 -0.5016  2.1736
 5966TIP3    H239390   6.149   1.156  11.026  1.7891  1.1496 -0.0835
 5967TIP3   OH239391   3.285   2.633  16.131  0.5399 -0.1711  0.0991
 5967TIP3    H139392   3.342   2.651  16.057  1.5373  1.6712  1.2487
 5967TIP3    H239393   3.344   2.602  16.200 -0.2538 -1.0045  0.4382
 5968TIP3   OH239394   0.989   2.938  11.139  0.1821  0.1527 -0.0116
 5968TIP3    H139395   1.070   2.937  11.087 -0.5619  0.9135 -1.2190
 5968TIP3    H239396   1.000   3.013  11.197 -0.3750  1.3254 -1.3855
 5969TIP3   OH239397   6.151   6.485  15.617 -0.3857 -0.4425 -0.0486
 5969TIP3    H139398   6.159   6.398  15.578  0.5468 -0.2257 -0.3741
 5969TIP3    H239399   6.058   6.494  15.638 -1.2286 -0.0531 -3.4321
 5970TIP3   OH239400   2.806   4.312   0.610 -0.1487  0.1758 -0.0573
 5970TIP3    H139401   2.739   4.358   0.661  0.3444  0.1387  0.6472
 5970TIP3    H239402   2.887   4.328   0.659  0.1116 -1.0321 -0.0650
 5971TIP3   OH239403   0.476   3.095  12.406  0.0475  0.5860  0.2737
 5971TIP3    H139404   0.438   3.024  12.459  1.5087  1.1757  2.2616
 5971TIP3    H239405   0.494   3.164  12.469  0.3830  2.0094 -1.3180
 5972TIP3   OH239406   2.624   5.676   1.502 -0.4202 -0.1819 -0.1292
 5972TIP3    H139407   2.661   5.622   1.571 -2.0894 -1.5270 -0.1935
 5972TIP3    H239408   2.559   5.731   1.546  0.6093  1.1559 -0.2110
 5973TIP3   OH239409   4.265   3.638   2.374 -0.1692  0.0154 -0.0086
 5973TIP3    H139410   4.233   3.564   2.323 -2.1957 -0.8004  2.2340
 5973TIP3    H239411   4.360   3.626   2.377 -0.3007 -1.5597 -1.0374
 5974TIP3   OH239412   0.766   3.520   1.649  0.4629  0.4943 -0.7015
 5974TIP3    H139413   0.736   3.429   1.653  1.7574  0.0236 -1.1070
 5974TIP3    H239414   0.713   3.566   1.713 -1.9119 -0.0366 -2.1608
 5975TIP3   OH239415   1.824   4.719   1.216 -0.8255 -0.0667  0.3092
 5975TIP3    H139416   1.823   4.797   1.271  0.7551  2.8719 -3.4632
 5975TIP3    H239417   1.910   4.680   1.230 -0.3194  0.8313 -0.2313
 5976TIP3   OH239418   0.079   4.631  11.970  0.1206 -0.1824 -0.0122
 5976TIP3    H139419   0.171   4.647  11.950  0.4933 -1.9775  0.0640
 5976TIP3    H239420   0.059   4.688  12.044  1.4426 -0.4124  0.5392
 5977TIP3   OH239421   6.285   4.424   5.745 -0.4061  0.0735 -0.6132
 5977TIP3    H139422   6.315   4.399   5.658 -0.8624 -3.0491 -0.0013
 5977TIP3    H239423   6.192   4.401   5.745 -0.4284  0.1257  0.6682
 5978TIP3   OH239424   2.648   4.153  11.650  0.1965  0.3497  0.1075
 5978TIP3    H139425   2.668   4.086  11.585  0.8411 -0.5088  1.1538
 5978TIP3    H239426   2.552   4.153  11.656  0.1976 -1.2679  0.8404
 5979TIP3   OH239427   4.850   0.003  14.454  0.1237  0.4981 -0.0573
 5979TIP3    H139428   4.898   0.086  14.466  1.4437 -0.1201 -0.8921
 5979TIP3    H239429   4.886  -0.034  14.374  0.3722 -1.4375  0.9056
 5980TIP3   OH239430   2.211   3.183   1.340  0.1244  0.3289  0.5580
 5980TIP3    H139431   2.188   3.138   1.258  2.2195  0.9297 -0.4381
 5980TIP3    H239432   2.127   3.202   1.381 -1.0788  0.9370 -1.9595
 5981TIP3   OH239433   3.856   4.478   3.201 -1.1536  0.2664 -0.7148
 5981TIP3    H139434   3.763   4.502   3.190 -0.8997  0.9989 -1.3957
 5981TIP3    H239435   3.861   4.389   3.167 -1.3740  0.7086 -2.0008
 5982TIP3   OH239436   3.033   3.407  10.826  0.3425  0.5088 -0.3091
 5982TIP3    H139437   2.971   3.461  10.776  0.0720 -0.5082 -1.1069
 5982TIP3    H239438   3.004   3.416  10.917 -0.8965  0.1903 -0.6486
 5983TIP3   OH239439   1.901   2.154   4.641 -0.3209 -0.2075  0.1620
 5983TIP3    H139440   1.853   2.174   4.721  1.6710 -0.7811  1.5865
 5983TIP3    H239441   1.856   2.078   4.604 -0.1517 -1.1567  1.8129
 5984TIP3   OH239442   5.413   4.828  11.430 -0.1521  0.3417 -0.3646
 5984TIP3    H139443   5.429   4.810  11.522  1.9322 -0.8903 -0.8926
 5984TIP3    H239444   5.499   4.852  11.395 -0.6236 -0.4921 -2.2374
 5985TIP3   OH239445   5.533   5.087  16.503 -0.3585  0.0523  0.6270
 5985TIP3    H139446   5.462   5.151  16.504  0.2571  0.7579  0.5867
 5985TIP3    H239447   5.501   5.016  16.448 -0.4078  1.0988 -0.7650
 5986TIP3   OH239448   5.966   0.078  16.461  0.2754 -0.2367 -0.5707
 5986TIP3    H139449   6.013   0.053  16.540 -0.1870 -1.8235 -0.7619
 5986TIP3    H239450   5.936  -0.005  16.424 -0.3224  0.5479 -1.9060
 5987TIP3   OH239451   0.413   4.836   6.321 -0.1242 -0.1262  0.2244
 5987TIP3    H139452   0.322   4.856   6.342 -0.8980 -2.3101 -0.7904
 5987TIP3    H239453   0.409   4.791   6.237  1.9581  0.1155 -0.0610
 5988TIP3   OH239454   6.579   1.612  10.563 -0.3620  0.2309 -0.2899
 5988TIP3    H139455   6.566   1.563  10.482  0.2354  1.0269 -0.8853
 5988TIP3    H239456   6.634   1.687  10.538 -0.6870  0.8372  0.7267
 5989TIP3   OH239457   5.491   6.014   0.654  0.1217  0.8272  0.3271
 5989TIP3    H139458   5.402   5.982   0.635  0.3935  1.3764 -2.2186
 5989TIP3    H239459   5.526   5.951   0.717 -1.3773 -0.5797 -0.1735
 5990TIP3   OH239460   6.344   4.844  11.053 -0.3815 -0.2953  0.4782
 5990TIP3    H139461   6.358   4.804  10.967  0.3491  0.2519  0.3320
 5990TIP3    H239462   6.334   4.938  11.035  0.7971 -0.0410  1.0798
 5991TIP3   OH239463   3.703   5.624  12.538  0.5085  0.2446  0.1139
 5991TIP3    H139464   3.761   5.558  12.575 -1.2109 -0.5548  1.5657
 5991TIP3    H239465   3.633   5.574  12.497  0.0960  1.1731 -0.3498
 5992TIP3   OH239466   4.960   4.797  12.477 -0.7565  0.0444 -0.0368
 5992TIP3    H139467   4.964   4.702  12.465  0.5062  0.1148 -0.3307
 5992TIP3    H239468   4.871   4.821  12.452 -1.4443 -1.1907  1.0919
 5993TIP3   OH239469   0.621   3.938   6.065  0.2399 -0.4315  0.0040
 5993TIP3    H139470   0.584   3.895   6.142 -0.1183 -1.0103 -0.4889
 5993TIP3    H239471   0.715   3.919   6.070  0.6841  1.7680  1.7298
 5994TIP3   OH239472   0.919   5.585   3.801  0.3693 -0.0563 -0.3817
 5994TIP3    H139473   0.983   5.513   3.801  0.6543  0.1618 -1.9326
 5994TIP3    H239474   0.836   5.544   3.775 -0.2589 -0.4114  2.0105
 5995TIP3   OH239475   3.305   1.034   2.024  0.0999  0.0402 -0.0254
 5995TIP3    H139476   3.210   1.024   2.035 -0.0725  1.5338  0.0470
 5995TIP3    H239477   3.324   0.990   1.941 -1.2300  2.4538 -1.7512
 5996TIP3   OH239478   1.228   1.210  12.323 -0.2488 -0.4066  0.2397
 5996TIP3    H139479   1.319   1.186  12.306  0.2019  1.3711 -0.1727
 5996TIP3    H239480   1.210   1.177  12.411  1.9101  1.9532  1.7047
 5997TIP3   OH239481   4.524   1.628  12.721  0.4649 -0.2521  0.1060
 5997TIP3    H139482   4.580   1.640  12.644 -0.2182  1.2273 -0.1941
 5997TIP3    H239483   4.437   1.657  12.693  0.2022  0.3339  1.4187
 5998TIP3   OH239484   0.763   2.764   3.247 -0.3227  0.4104 -0.1155
 5998TIP3    H139485   0.748   2.858   3.246 -0.5216  0.3806 -0.0407
 5998TIP3    H239486   0.695   2.730   3.305 -0.2534  0.2210 -0.1450
 5999TIP3   OH239487   4.523   4.172  15.126 -0.3872 -0.0512 -0.0457
 5999TIP3    H139488   4.546   4.131  15.042 -0.0005  1.9376 -0.9913
 5999TIP3    H239489   4.428   4.169  15.129 -0.3692 -3.0641  1.0828
 6000TIP3   OH239490   2.053   3.299   2.963 -0.3294 -0.0783 -0.7631
 6000TIP3    H139491   2.117   3.228   2.960  1.0825  1.1380 -0.7562
 6000TIP3    H239492   1.974   3.263   2.922  0.9765 -1.0107 -2.5707
 6001TIP3   OH239493   4.776   6.340   4.773 -0.5776 -0.5224  0.2831
 6001TIP3    H139494   4.775   6.269   4.837  2.3967 -0.6595  0.3218
 6001TIP3    H239495   4.839   6.311   4.706 -0.6750  1.3006 -0.6593
 6002TIP3   OH239496   3.690   3.618   5.911 -0.1407 -0.0783 -0.0490
 6002TIP3    H139497   3.643   3.564   5.847  0.4657  1.3373 -1.7648
 6002TIP3    H239498   3.660   3.707   5.894  2.8057  0.8418 -0.9752
 6003TIP3   OH239499   1.419   6.170   4.158 -0.2351  0.2282 -0.9034
 6003TIP3    H139500   1.409   6.084   4.117 -1.0475 -0.8680  1.4385
 6003TIP3    H239501   1.465   6.222   4.092  0.0555 -1.8985 -2.4986
 6004TIP3   OH239502   1.235   5.066  11.945 -0.1011  0.6778  0.2041
 6004TIP3    H139503   1.166   5.004  11.969  0.6621  0.4064  1.8683
 6004TIP3    H239504   1.231   5.072  11.849  0.5446 -2.8780 -0.1850
 6005TIP3   OH239505   4.987   4.485  14.609 -0.2242 -0.3771  0.2338
 6005TIP3    H139506   5.033   4.454  14.530  0.2266 -0.3183  0.4682
 6005TIP3    H239507   5.020   4.573  14.622  0.7969 -0.8930  1.3039
 6006TIP3   OH239508   0.440   6.040   1.396 -0.7971  0.0299  0.1767
 6006TIP3    H139509   0.404   6.020   1.310 -0.4674  0.8606 -0.1681
 6006TIP3    H239510   0.518   6.094   1.378 -0.4834 -0.1369  0.9741
 6007TIP3   OH239511   4.458   5.629   1.348  0.0643  1.0588 -0.2737
 6007TIP3    H139512   4.534   5.578   1.318 -0.5317  1.8128 -3.4950
 6007TIP3    H239513   4.401   5.564   1.389  1.8152  0.2389  0.9801
 6008TIP3   OH239514   2.551   3.044  10.636 -0.3502 -0.8395 -0.4852
 6008TIP3    H139515   2.611   2.973  10.660 -0.0024  0.5120  3.4057
 6008TIP3    H239516   2.466   3.015  10.667 -0.1550  0.4398  1.4169
 6009TIP3   OH239517   6.405   6.555   3.144 -0.5419  0.0257  0.0988
 6009TIP3    H139518   6.332   6.573   3.085 -0.8581  0.7195  0.6698
 6009TIP3    H239519   6.408   6.460   3.151 -0.8344 -0.0401 -0.6131
 6010TIP3   OH239520   5.332   5.312   1.618  0.2574 -0.8197 -0.2803
 6010TIP3    H139521   5.288   5.289   1.700 -0.5771 -0.9288 -0.7450
 6010TIP3    H239522   5.307   5.403   1.602 -0.5207 -1.1419 -0.9829
 6011TIP3   OH239523   1.360   3.317  14.210  0.4810  0.1522  0.4007
 6011TIP3    H139524   1.347   3.404  14.245  0.0854  0.0447  0.5247
 6011TIP3    H239525   1.357   3.328  14.115  1.3244  0.4066  0.3958
 6012TIP3   OH239526   4.461   4.983   2.723  0.0707  0.2405 -0.7692
 6012TIP3    H139527   4.541   5.005   2.769 -0.2213 -2.3734  1.2209
 6012TIP3    H239528   4.391   4.996   2.787 -0.7334 -0.5111 -1.4627
 6013TIP3   OH239529   6.764   3.636   2.466 -0.1426 -0.0904 -1.0335
 6013TIP3    H139530   6.830   3.705   2.468 -0.5840  0.4565 -3.0201
 6013TIP3    H239531   6.752   3.616   2.373 -2.5269 -0.4104 -0.7298
 6014TIP3   OH239532   3.185   0.628   1.992 -0.6100  0.6421 -0.1258
 6014TIP3    H139533   3.243   0.554   2.007 -1.3201 -0.1762 -1.2865
 6014TIP3    H239534   3.189   0.645   1.898 -1.7529  0.9731 -0.1424
 6015TIP3   OH239535   1.028   3.869  10.677  0.2250  0.0951  0.4268
 6015TIP3    H139536   1.007   3.960  10.698 -0.4798 -0.1379  0.7498
 6015TIP3    H239537   0.965   3.845  10.610  1.9889  0.5983 -1.5103
 6016TIP3   OH239538   0.494   5.288   2.269  0.4757  0.0802  0.0824
 6016TIP3    H139539   0.522   5.325   2.186 -2.7678  0.4595 -1.0115
 6016TIP3    H239540   0.516   5.355   2.334  1.3028  0.6421 -0.7597
 6017TIP3   OH239541   5.307   5.666  15.069 -0.3354  0.5205  0.0392
 6017TIP3    H139542   5.372   5.613  15.022 -1.3668 -0.7563 -0.0141
 6017TIP3    H239543   5.285   5.613  15.146 -3.2284 -0.4067 -1.2705
 6018TIP3   OH239544   2.430   0.200  15.223 -0.3995 -0.1582  0.4631
 6018TIP3    H139545   2.455   0.144  15.297  1.1885 -0.4477 -0.2436
 6018TIP3    H239546   2.494   0.272  15.226 -1.1659  0.5445  0.1633
 6019TIP3   OH239547   4.282   5.254  11.299 -0.2956 -0.1077  0.3905
 6019TIP3    H139548   4.289   5.324  11.234  0.4253  0.5736  1.1805
 6019TIP3    H239549   4.358   5.198  11.282 -0.1206  0.0567  0.6271
 6020TIP3   OH239550   4.324   0.973  13.155 -0.1970 -0.1977 -0.5321
 6020TIP3    H139551   4.291   1.054  13.115  1.4757  0.2396 -1.1018
 6020TIP3    H239552   4.342   0.915  13.081 -2.6664 -1.6702 -0.0800
 6021TIP3   OH239553   1.233   3.843  11.353 -0.2634 -0.4541  0.0636
 6021TIP3    H139554   1.212   3.763  11.304 -2.1443  0.5251 -0.8343
 6021TIP3    H239555   1.291   3.813  11.423  1.2441 -2.1667 -1.7924
 6022TIP3   OH239556   1.624   4.293  14.295 -0.0520 -0.0518 -0.3180
 6022TIP3    H139557   1.683   4.243  14.350  0.1136  0.0971 -0.3583
 6022TIP3    H239558   1.584   4.357  14.354 -1.8191 -1.5538  0.1723
 6023TIP3   OH239559   5.134   5.618  10.365 -0.7920  0.1096 -0.0667
 6023TIP3    H139560   5.102   5.554  10.301 -1.4065  0.7263 -0.3897
 6023TIP3    H239561   5.121   5.577  10.450 -2.1339  0.2054 -0.2133
 6024TIP3   OH239562   6.329   3.447   6.108  0.0502  0.2796  0.3705
 6024TIP3    H139563   6.331   3.406   6.194 -0.5520 -0.3960  0.0708
 6024TIP3    H239564   6.255   3.509   6.113 -0.2029 -0.0092  0.2321
 6025TIP3   OH239565   3.963   6.741  11.637  0.5073  0.0665  0.3946
 6025TIP3    H139566   3.994   6.677  11.573 -1.3183  1.1702 -1.7517
 6025TIP3    H239567   3.875   6.765  11.606  0.5839  2.5888  1.8671
 6026TIP3   OH239568   6.113   5.689  13.741  0.8100  0.7617  0.1916
 6026TIP3    H139569   6.064   5.729  13.812 -0.8057 -0.9978  0.1344
 6026TIP3    H239570   6.061   5.707  13.663  1.6716  1.1801 -0.3008
 6027TIP3   OH239571   0.700   1.114   3.401  0.2682  0.7618  0.0600
 6027TIP3    H139572   0.766   1.183   3.399  1.3855 -0.1875 -3.1252
 6027TIP3    H239573   0.655   1.123   3.317  0.3842 -2.2259 -0.4330
 6028TIP3   OH239574   6.508   6.601   4.985 -0.7193  0.4438  0.7220
 6028TIP3    H139575   6.416   6.622   5.004 -0.6492  1.0380  0.4287
 6028TIP3    H239576   6.509   6.506   4.976 -1.3694  0.4586  0.4183
 6029TIP3   OH239577   5.606   4.391  15.999  0.3259 -0.2872 -0.5358
 6029TIP3    H139578   5.672   4.434  15.945  0.3839  0.6593  0.2561
 6029TIP3    H239579   5.580   4.458  16.063 -1.4201 -0.6149 -0.8441
 6030TIP3   OH239580   3.132   4.451   1.202  0.2646 -0.0772  0.1403
 6030TIP3    H139581   3.218   4.464   1.242  0.7892  0.6061 -1.1546
 6030TIP3    H239582   3.079   4.525   1.232 -0.1646 -0.9202  1.5904
 6031TIP3   OH239583   3.559   4.554  14.510 -0.1232 -0.2587 -0.5245
 6031TIP3    H139584   3.624   4.584  14.446  2.0064  0.3669  1.7750
 6031TIP3    H239585   3.567   4.459  14.510 -0.8428 -0.3481 -1.8020
 6032TIP3   OH239586   6.195   3.050  11.809  0.4260  0.3873 -0.3255
 6032TIP3    H139587   6.191   3.102  11.889 -1.3666  0.7523 -0.6056
 6032TIP3    H239588   6.200   2.960  11.839  2.1643  0.5937  0.1612
 6033TIP3   OH239589   3.082   3.528  15.051  0.1156 -0.8556  0.6100
 6033TIP3    H139590   3.036   3.445  15.062  3.2010 -2.7352  0.5136
 6033TIP3    H239591   3.134   3.517  14.971  1.9906  0.3927  1.5567
 6034TIP3   OH239592   4.068   1.423  16.513 -0.2592  0.4665 -0.2321
 6034TIP3    H139593   3.990   1.460  16.554 -0.1873 -0.1140  0.4577
 6034TIP3    H239594   4.140   1.473  16.551 -0.0708 -1.0413  1.5657
 6035TIP3   OH239595   1.673   4.023  14.652 -0.3603  0.1988  0.3257
 6035TIP3    H139596   1.668   4.100  14.708  1.0833 -1.1817  2.4793
 6035TIP3    H239597   1.733   4.048  14.582 -0.5453  1.2717  0.5317
 6036TIP3   OH239598   0.243   3.807  11.247 -0.0827 -0.3726 -0.4761
 6036TIP3    H139599   0.174   3.783  11.184 -0.6871  0.3049 -0.0862
 6036TIP3    H239600   0.323   3.770  11.210 -0.5472 -0.5952 -1.2829
 6037TIP3   OH239601   4.728   1.942  14.795 -0.1706  0.7471  0.1586
 6037TIP3    H139602   4.673   1.927  14.872 -0.1175 -1.3008 -0.1536
 6037TIP3    H239603   4.689   1.888  14.726  1.6382  0.0180 -0.3499
 6038TIP3   OH239604   5.890   4.868  15.674 -0.7049 -0.4642 -0.7718
 6038TIP3    H139605   5.841   4.788  15.694 -4.8227  1.9967  0.0539
 6038TIP3    H239606   5.885   4.876  15.579  0.3574 -1.4434 -0.9399
 6039TIP3   OH239607   3.953   0.545  16.053  0.2335  0.3755 -0.0233
 6039TIP3    H139608   3.975   0.468  16.002  2.3081  1.1558 -0.3970
 6039TIP3    H239609   3.980   0.524  16.142 -0.0519  0.3463  0.0586
 6040TIP3   OH239610   5.027   3.102  12.339 -0.4175  0.0373 -0.3075
 6040TIP3    H139611   5.013   3.013  12.370  1.3658 -0.7964 -1.7605
 6040TIP3    H239612   4.957   3.117  12.276 -1.2158  0.0047  0.5475
 6041TIP3   OH239613   2.047   6.458   3.635 -1.1138  0.0455 -0.3331
 6041TIP3    H139614   2.129   6.500   3.658  0.2819 -1.7821 -1.6961
 6041TIP3    H239615   1.980   6.515   3.673  0.7621  1.0403  1.7373
 6042TIP3   OH239616   5.680   3.854  10.927 -0.1127  0.6515 -0.1212
 6042TIP3    H139617   5.732   3.885  10.853 -1.0335  1.3060 -0.5242
 6042TIP3    H239618   5.619   3.792  10.888  0.7349 -0.5555  0.4430
 6043TIP3   OH239619   2.372   1.936   6.920  0.1143 -0.1032 -0.0458
 6043TIP3    H139620   2.302   1.946   6.985  0.3122 -0.3032  0.2007
 6043TIP3    H239621   2.410   1.851   6.939  1.1413  0.4648  0.5217
 6044TIP3   OH239622   3.806   3.718   4.523 -0.1073  0.0413  0.2429
 6044TIP3    H139623   3.892   3.706   4.483 -0.3894  1.3585 -0.8180
 6044TIP3    H239624   3.818   3.692   4.614  0.9354 -1.5811 -0.3147
 6045TIP3   OH239625   6.556   5.807   5.615 -0.0060 -0.2724 -0.0421
 6045TIP3    H139626   6.543   5.824   5.709 -0.5217 -0.2993 -0.1051
 6045TIP3    H239627   6.638   5.852   5.593 -0.3098  0.4275  0.2332
 6046TIP3   OH239628   3.658   4.324  13.163  0.0903 -0.1524 -0.2763
 6046TIP3    H139629   3.618   4.320  13.250  2.8314 -1.2363  1.0709
 6046TIP3    H239630   3.612   4.258  13.112 -2.3604  1.3030 -0.0948
 6047TIP3   OH239631   3.439   3.115   3.116  0.2471  0.4164 -0.4880
 6047TIP3    H139632   3.527   3.106   3.153  0.5295  0.8074 -1.0440
 6047TIP3    H239633   3.405   3.196   3.154  0.0064  0.1009 -0.0326
 6048TIP3   OH239634   4.661   0.583  11.934 -0.3074 -0.4607  0.3150
 6048TIP3    H139635   4.693   0.633  11.859 -0.1109 -1.4152 -0.2512
 6048TIP3    H239636   4.677   0.492  11.910 -1.0624 -0.8162  1.1441
 6049TIP3   OH239637   4.085   1.358   0.634 -0.2560  0.6184 -0.4287
 6049TIP3    H139638   4.103   1.446   0.600  3.6222  0.6814  1.2576
 6049TIP3    H239639   4.120   1.299   0.568 -1.5906  0.3287 -0.9098
 6050TIP3   OH239640   0.881   6.327  11.878 -0.1778 -0.2391  0.2067
 6050TIP3    H139641   0.814   6.319  11.946  0.6545  1.4824  1.2983
 6050TIP3    H239642   0.860   6.409  11.833  1.0248  0.2043  0.4111
 6051TIP3   OH239643   1.588   5.987   1.692  0.0813  0.5407  0.4621
 6051TIP3    H139644   1.523   6.045   1.653  0.4977  0.6777 -0.0458
 6051TIP3    H239645   1.562   5.899   1.663 -0.0706  0.5608  0.5387
 6052TIP3   OH239646   1.500   1.902   3.860 -0.3055 -0.4244  0.0014
 6052TIP3    H139647   1.420   1.942   3.895 -0.5655 -0.4514 -0.5654
 6052TIP3    H239648   1.494   1.810   3.888 -0.1915 -0.3046  0.4412
 6053TIP3   OH239649   3.923   5.158   0.518 -0.1152 -0.1196  0.3844
 6053TIP3    H139650   3.881   5.084   0.561  0.3141  0.5250  2.0021
 6053TIP3    H239651   3.884   5.235   0.559 -1.0273  0.6072 -1.7230
 6054TIP3   OH239652   6.476   0.868   5.055 -0.2195  0.2948 -0.6543
 6054TIP3    H139653   6.429   0.950   5.043 -0.1223  1.0548  2.8862
 6054TIP3    H239654   6.566   0.894   5.073 -0.3652 -0.4206  1.4301
 6055TIP3   OH239655   0.493   5.692  14.254 -0.3385  0.2882 -0.2370
 6055TIP3    H139656   0.448   5.607  14.255 -1.9745  1.0909 -1.5045
 6055TIP3    H239657   0.534   5.697  14.168  0.5021  0.4187  0.1655
 6056TIP3   OH239658   6.006   4.090  15.322 -0.5443  0.3069 -0.4565
 6056TIP3    H139659   5.963   4.109  15.239  1.1397 -0.1196 -1.4821
 6056TIP3    H239660   6.087   4.141  15.319  0.2789 -0.9068  0.2323
 6057TIP3   OH239661   1.245   3.253  11.460  0.2894 -0.2716 -0.1916
 6057TIP3    H139662   1.309   3.190  11.427 -0.3817 -0.8542 -0.4146
 6057TIP3    H239663   1.265   3.335  11.414  1.3873 -0.2196  0.3613
 6058TIP3   OH239664   3.913   1.836  10.912 -0.3077  0.1005  0.1904
 6058TIP3    H139665   3.830   1.815  10.954  0.2366  2.5700  2.8806
 6058TIP3    H239666   3.893   1.909  10.853 -0.0667  0.9046  1.0725
 6059TIP3   OH239667   6.329   2.903   1.781  0.4655 -0.5728 -0.3282
 6059TIP3    H139668   6.328   2.816   1.741  0.6926 -0.4508 -0.6072
 6059TIP3    H239669   6.422   2.923   1.792  0.4769  0.2662 -1.6889
 6060TIP3   OH239670   2.151   3.848  12.756 -0.2068 -0.8332 -0.3686
 6060TIP3    H139671   2.246   3.857  12.758 -0.1068 -1.8199 -0.4513
 6060TIP3    H239672   2.135   3.755  12.744 -1.1962 -0.7941  0.4345
 6061TIP3   OH239673   1.779   6.245   2.159  0.0695  0.5163  0.6054
 6061TIP3    H139674   1.866   6.246   2.119  0.2659  1.6490  1.0412
 6061TIP3    H239675   1.719   6.264   2.087  0.1980  0.0043  0.3593
 6062TIP3   OH239676   4.180   1.791  11.796  0.6813  0.2738 -0.1944
 6062TIP3    H139677   4.168   1.792  11.891  0.5849  0.3060 -0.2067
 6062TIP3    H239678   4.274   1.805  11.784  0.5678  1.1705 -0.1275
 6063TIP3   OH239679   1.873   0.439  17.031 -0.1854 -0.5515 -0.3561
 6063TIP3    H139680   1.819   0.451  16.953 -0.7232  1.2631  0.2395
 6063TIP3    H239681   1.952   0.395  16.999 -0.2503  0.4291 -2.0097
 6064TIP3   OH239682   1.272   0.628  16.031 -0.5221 -0.3334 -0.4124
 6064TIP3    H139683   1.243   0.709  16.072 -0.1699 -0.1909 -0.4451
 6064TIP3    H239684   1.367   0.638  16.021 -0.4482 -0.8230 -0.2412
 6065TIP3   OH239685   6.543   5.354  12.283 -0.1315  0.4948 -0.3433
 6065TIP3    H139686   6.580   5.410  12.214  0.0230  0.0226 -0.6529
 6065TIP3    H239687   6.532   5.412  12.358 -0.1008  0.9682 -0.7025
 6066TIP3   OH239688   1.695   5.639  12.584  0.2264 -0.5483 -0.0592
 6066TIP3    H139689   1.681   5.615  12.676 -1.2403 -1.2105 -0.4278
 6066TIP3    H239690   1.661   5.728  12.576  0.5748 -0.4007  0.0857
 6067TIP3   OH239691   2.086   1.924   3.329 -0.1268 -0.0471 -0.7302
 6067TIP3    H139692   2.142   1.985   3.375 -1.5389  0.0969  0.8810
 6067TIP3    H239693   2.140   1.845   3.318  0.8517  0.5833 -0.5749
 6068TIP3   OH239694   3.325   2.455  16.744 -0.4628  0.4848 -0.1329
 6068TIP3    H139695   3.415   2.478  16.723 -0.7014  0.5251 -1.1830
 6068TIP3    H239696   3.302   2.387  16.681 -1.0749  0.2742  0.3039
 6069TIP3   OH239697   4.091   5.591  13.247 -0.4213 -1.1127 -0.1237
 6069TIP3    H139698   4.112   5.602  13.340  0.4638 -0.7227 -0.3637
 6069TIP3    H239699   4.019   5.652  13.232  0.5834  0.1330 -0.0791
 6070TIP3   OH239700   3.955   4.293   1.247 -0.0817 -0.4462 -0.2644
 6070TIP3    H139701   4.020   4.247   1.301 -0.4476 -1.1521 -0.4193
 6070TIP3    H239702   3.873   4.283   1.296 -0.2770 -0.4751 -0.5978
 6071TIP3   OH239703   1.642   4.542  11.819 -0.4727  0.6437 -0.0425
 6071TIP3    H139704   1.630   4.636  11.810  2.6858  1.1582 -0.0503
 6071TIP3    H239705   1.695   4.517  11.743 -0.2982 -0.9248  0.5592
 6072TIP3   OH239706   5.889   2.539   4.769  0.0894  0.2481  0.2261
 6072TIP3    H139707   5.937   2.489   4.836 -0.8634  0.4040  1.0519
 6072TIP3    H239708   5.808   2.491   4.757  0.3716  0.0756 -1.0451
 6073TIP3   OH239709   1.042   4.809   0.507  0.1095 -0.7458  0.4789
 6073TIP3    H139710   1.040   4.804   0.411 -0.1034 -0.3220  0.4592
 6073TIP3    H239711   0.952   4.831   0.532 -0.1750 -2.2781  0.8677
 6074TIP3   OH239712   3.411   5.207   6.175 -0.0888  0.0334 -0.1449
 6074TIP3    H139713   3.376   5.295   6.191 -0.8872 -0.4245  0.7657
 6074TIP3    H239714   3.343   5.148   6.208 -0.8495 -1.0173 -3.2070
 6075TIP3   OH239715   0.141   1.538   3.916 -0.1903 -0.5606  0.2614
 6075TIP3    H139716   0.084   1.542   3.839  1.2373 -2.7587 -1.0465
 6075TIP3    H239717   0.166   1.628   3.933 -1.9957  0.1727 -0.6856
 6076TIP3   OH239718   1.906   6.702   2.876 -0.3308  0.1456 -0.6072
 6076TIP3    H139719   1.936   6.630   2.931  2.2572  2.6634  1.5890
 6076TIP3    H239720   1.922   6.672   2.786  2.8030 -1.2675  0.2725
 6077TIP3   OH239721   3.101   3.935  11.522 -0.2832  0.2218 -0.1959
 6077TIP3    H139722   3.053   3.859  11.555 -0.6293 -0.4695 -2.1388
 6077TIP3    H239723   3.192   3.907  11.516 -0.2924  0.1986 -0.2271
 6078TIP3   OH239724   2.772   3.907  12.618 -0.0208  0.0131  0.4793
 6078TIP3    H139725   2.791   3.852  12.695  1.4737  0.6976  0.6394
 6078TIP3    H239726   2.763   3.995  12.653  1.0656  0.3945 -0.1619
 6079TIP3   OH239727   3.607   2.185  11.711 -0.0045 -0.0068 -0.0524
 6079TIP3    H139728   3.621   2.124  11.783  2.0313 -0.1146 -0.4690
 6079TIP3    H239729   3.667   2.257  11.729  0.3714  0.0788 -1.5037
 6080TIP3   OH239730   4.524   0.486  11.528  0.2840  0.0413  0.0783
 6080TIP3    H139731   4.584   0.526  11.591  0.1410  1.4870 -0.6602
 6080TIP3    H239732   4.495   0.405  11.571  0.3376  0.8733  1.7885
 6081TIP3   OH239733   0.879   0.412   3.051 -0.4330  0.3861 -0.1049
 6081TIP3    H139734   0.851   0.473   3.119 -3.6165  0.5598 -1.4003
 6081TIP3    H239735   0.969   0.438   3.031 -0.9604  3.3098  0.8274
 6082TIP3   OH239736   1.924   6.437  10.974 -0.1545 -0.1451 -0.2909
 6082TIP3    H139737   1.990   6.386  10.927  0.1973  1.5450 -1.7606
 6082TIP3    H239738   1.847   6.379  10.977  0.6620 -1.2779 -0.6325
 6083TIP3   OH239739   2.531   1.894  11.486 -0.2049  0.9235  0.0711
 6083TIP3    H139740   2.612   1.861  11.448 -0.1443 -0.9459  1.6436
 6083TIP3    H239741   2.475   1.912  11.411  0.8491 -0.0267 -0.9835
 6084TIP3   OH239742   5.142   1.936  15.846 -0.3312  0.1698 -0.0302
 6084TIP3    H139743   5.120   1.844  15.854 -3.3208  0.8348  0.5973
 6084TIP3    H239744   5.165   1.963  15.936  1.6037 -0.1303 -0.3889
 6085TIP3   OH239745   4.392   1.662   4.838 -0.0063 -0.0257 -0.9602
 6085TIP3    H139746   4.451   1.731   4.867 -0.4156 -1.2855  3.6004
 6085TIP3    H239747   4.306   1.703   4.838 -0.3176 -0.4194  2.2026
 6086TIP3   OH239748   3.543   5.768  14.817  0.8056  0.4727 -0.5055
 6086TIP3    H139749   3.490   5.769  14.896  0.6843 -1.5116 -0.5151
 6086TIP3    H239750   3.480   5.771  14.745  0.6987 -1.2937 -0.5144
 6087TIP3   OH239751   4.964   1.293   2.466 -0.0693  0.6469  0.1394
 6087TIP3    H139752   4.905   1.292   2.541  0.9983  1.5607  1.0322
 6087TIP3    H239753   4.957   1.381   2.430  0.7480  0.7781  0.2741
 6088TIP3   OH239754   5.066   2.054  12.914 -0.4620 -0.2230  0.1537
 6088TIP3    H139755   5.123   2.014  12.980  0.6133 -1.3690 -1.4052
 6088TIP3    H239756   5.122   2.118  12.869 -0.4573 -1.1311 -1.1788
 6089TIP3   OH239757   4.058   5.512  12.341  0.4048 -0.2111 -0.1050
 6089TIP3    H139758   4.107   5.465  12.408  0.4988  0.0681  0.0190
 6089TIP3    H239759   4.064   5.456  12.264  1.5188  0.1621 -0.3010
 6090TIP3   OH239760   5.818   5.922  12.974 -0.3913 -0.4543  0.1562
 6090TIP3    H139761   5.870   6.002  12.974  0.3282 -0.9152  0.4205
 6090TIP3    H239762   5.879   5.853  12.947 -0.9636 -0.9409  0.0787
 6091TIP3   OH239763   5.470   0.973   4.070  0.1503 -0.0346 -0.1468
 6091TIP3    H139764   5.491   1.018   3.988  0.1058 -0.8121 -0.5872
 6091TIP3    H239765   5.514   1.025   4.137  2.9676 -1.2007 -0.9525
 6092TIP3   OH239766   6.316   4.252   4.085 -0.4676  0.1628  0.0766
 6092TIP3    H139767   6.402   4.256   4.045  0.2836 -1.7768  1.3676
 6092TIP3    H239768   6.259   4.219   4.016  0.5738 -2.0099  0.1731
 6093TIP3   OH239769   2.857   2.759   3.894  0.3365  0.4295 -0.8673
 6093TIP3    H139770   2.900   2.691   3.946 -0.1772 -0.8512 -2.0498
 6093TIP3    H239771   2.930   2.806   3.853  0.6812 -0.7701 -1.6849
 6094TIP3   OH239772   0.005   1.544  16.608 -0.3650  0.1894  1.0523
 6094TIP3    H139773   0.050   1.621  16.572  1.2489 -0.6833  1.1379
 6094TIP3    H239774  -0.085   1.574  16.623 -0.2840  1.4910 -0.7568
 6095TIP3   OH239775   6.185   1.080  13.507 -0.5877  0.7188 -0.1284
 6095TIP3    H139776   6.232   1.115  13.432 -0.8522  1.2609 -0.0397
 6095TIP3    H239777   6.096   1.067  13.476 -0.5021  0.1316 -0.1543
 6096TIP3   OH239778   1.723   1.536  14.414  0.2311  0.3881  0.4639
 6096TIP3    H139779   1.636   1.500  14.397  0.4882 -0.6825  1.2999
 6096TIP3    H239780   1.755   1.563  14.328 -0.4759 -0.2411 -0.0119
 6097TIP3   OH239781   5.046   0.909  12.231  0.9828  0.0623  0.0754
 6097TIP3    H139782   5.084   0.861  12.304 -0.8827  0.2116  1.2153
 6097TIP3    H239783   5.024   0.995  12.268 -0.2970  0.0261 -0.5622
 6098TIP3   OH239784   1.717   0.182   5.287 -0.6457 -0.2698  0.4788
 6098TIP3    H139785   1.649   0.115   5.293 -1.4580  0.5199  0.2509
 6098TIP3    H239786   1.697   0.242   5.358 -0.0448 -0.1530  0.5481
 6099TIP3   OH239787   5.758   1.284   0.292  0.6056 -0.0525  0.0747
 6099TIP3    H139788   5.697   1.358   0.292  0.2460 -0.3210 -1.0072
 6099TIP3    H239789   5.715   1.218   0.237  3.0033  0.7391 -3.0452
 6100TIP3   OH239790   3.282   2.472  12.945 -0.1584  0.2328 -0.1366
 6100TIP3    H139791   3.340   2.436  12.877 -0.5219 -2.0610  0.6904
 6100TIP3    H239792   3.195   2.473  12.904 -0.3110 -0.7832  0.1417
 6101TIP3   OH239793   1.886   0.041   1.729  0.1099 -0.2831 -0.2207
 6101TIP3    H139794   1.820   0.103   1.759  0.6098 -0.5268  1.4671
 6101TIP3    H239795   1.969   0.087   1.741  0.3068 -0.0544 -2.1339
 6102TIP3   OH239796   6.529   3.464  13.181 -0.6720 -0.5300 -0.1477
 6102TIP3    H139797   6.606   3.425  13.223 -0.5371 -0.3307 -0.2042
 6102TIP3    H239798   6.509   3.541  13.235 -0.2232 -0.0166 -0.7000
 6103TIP3   OH239799   3.545   4.974  16.969  1.0229 -0.1859 -0.5213
 6103TIP3    H139800   3.527   5.013  17.055  0.9097  0.7705 -0.9619
 6103TIP3    H239801   3.487   5.022  16.909  1.7058 -0.2648 -1.2546
 6104TIP3   OH239802   4.036   0.877  14.724 -0.0963 -0.6445  0.5086
 6104TIP3    H139803   4.052   0.870  14.818 -1.8889  0.8667  0.9717
 6104TIP3    H239804   4.087   0.953  14.696 -0.9470 -0.0059  0.6425
 6105TIP3   OH239805   4.016   2.016  15.780  0.4206  0.1742 -0.3663
 6105TIP3    H139806   4.031   2.091  15.722  0.5307 -0.9292 -1.8191
 6105TIP3    H239807   4.070   1.946  15.743 -0.4037 -0.9003  0.4102
 6106TIP3   OH239808   4.081   0.636   0.569 -0.2697 -0.1065 -0.6623
 6106TIP3    H139809   4.079   0.725   0.533  0.3620 -0.5799 -1.9201
 6106TIP3    H239810   4.154   0.594   0.525  0.2683 -0.8723  0.8897
 6107TIP3   OH239811   4.623   2.654  15.140 -0.1859 -0.2019  0.3332
 6107TIP3    H139812   4.585   2.738  15.114  0.0077  0.7128  2.7496
 6107TIP3    H239813   4.620   2.601  15.061 -4.6282  0.4778 -0.1802
 6108TIP3   OH239814   5.983   1.827   0.468 -0.5160  0.2209  0.1003
 6108TIP3    H139815   5.992   1.871   0.383 -0.1297 -0.4621 -0.2172
 6108TIP3    H239816   5.889   1.833   0.487 -0.3821  1.8291  0.4274
 6109TIP3   OH239817   1.883   1.799   3.467 -0.1164  0.6994 -0.3112
 6109TIP3    H139818   1.838   1.863   3.522 -1.5057 -0.5349  0.0636
 6109TIP3    H239819   1.938   1.852   3.408  0.8138  2.0814  1.6987
 6110TIP3   OH239820   3.799   2.903   1.174  0.2526 -0.4514  0.9790
 6110TIP3    H139821   3.776   2.912   1.082  0.7121  0.7322  0.9626
 6110TIP3    H239822   3.716   2.885   1.218 -0.2495  0.6611  0.5268
 6111TIP3   OH239823   3.376   4.175   1.671  0.6348 -0.1022 -0.1185
 6111TIP3    H139824   3.405   4.168   1.762  1.0672  3.0841  0.1276
 6111TIP3    H239825   3.291   4.218   1.676  0.6897  0.1706 -1.2082
 6112TIP3   OH239826   2.692   0.917   3.922 -0.3615  0.3624  0.1769
 6112TIP3    H139827   2.654   0.863   3.852  0.1493 -0.3618  0.4385
 6112TIP3    H239828   2.716   0.999   3.880 -0.9499  0.3033 -0.2850
 6113TIP3   OH239829   1.012   1.414   4.182 -0.4805  0.1178 -0.6622
 6113TIP3    H139830   0.963   1.486   4.222 -1.5063 -0.3220 -1.0959
 6113TIP3    H239831   1.058   1.373   4.255 -1.5322 -0.0535 -0.0815
 6114TIP3   OH239832   1.724   1.235  15.282  0.3183 -0.1990 -0.4434
 6114TIP3    H139833   1.732   1.244  15.377  1.2226 -1.9798 -0.3037
 6114TIP3    H239834   1.734   1.141  15.266 -0.9825 -0.0828 -2.2114
 6115TIP3   OH239835   3.626   2.124  11.430 -0.4145 -0.3442 -0.4322
 6115TIP3    H139836   3.613   2.131  11.525 -0.5171  0.6099 -0.5092
 6115TIP3    H239837   3.693   2.189  11.410 -1.4008  0.4597 -1.2131
 6116TIP3   OH239838   5.895   2.907  13.572  0.0485 -0.2490  0.1539
 6116TIP3    H139839   5.835   2.914  13.647 -1.0904 -0.1608 -0.7415
 6116TIP3    H239840   5.895   2.994  13.533 -0.8647 -0.7516 -1.0462
 6117TIP3   OH239841   0.159   2.812   0.838  0.4197  0.3167  0.1124
 6117TIP3    H139842   0.178   2.902   0.862  0.0899  0.2192  0.7523
 6117TIP3    H239843   0.195   2.803   0.749  0.0991  1.1870 -0.1188
 6118TIP3   OH239844   4.609   6.125   4.136  0.1223 -0.0269  0.6118
 6118TIP3    H139845   4.674   6.059   4.161 -0.3887 -0.1336  1.7049
 6118TIP3    H239846   4.632   6.202   4.188  0.6133  0.6332 -0.5300
 6119TIP3   OH239847   3.353   4.378   0.601  0.3379  0.4535 -0.1444
 6119TIP3    H139848   3.319   4.360   0.513  0.7850 -1.0966 -0.0329
 6119TIP3    H239849   3.441   4.412   0.587  0.9304 -1.0480 -0.3038
 6120TIP3   OH239850   5.848   5.086  12.072 -0.0283  0.3922 -0.5358
 6120TIP3    H139851   5.796   5.008  12.092 -0.9409  0.9302 -0.7461
 6120TIP3    H239852   5.809   5.155  12.127  1.6268  0.4119  0.6664
 6121TIP3   OH239853   5.288   0.616  16.875  0.5700  0.0458  0.5888
 6121TIP3    H139854   5.333   0.544  16.832 -2.2830 -0.8906 -1.0498
 6121TIP3    H239855   5.281   0.684  16.808  0.5165  0.6014  1.1488
 6122TIP3   OH239856   1.898   2.059   5.238 -0.3783 -0.3171 -0.8459
 6122TIP3    H139857   1.947   2.135   5.210  1.0951 -0.1375  1.9026
 6122TIP3    H239858   1.907   2.057   5.333 -1.3917 -3.2271 -0.6808
 6123TIP3   OH239859   2.042   2.207  16.397 -0.9765  0.0473 -0.5562
 6123TIP3    H139860   2.034   2.135  16.460 -0.8867  0.9031  0.4517
 6123TIP3    H239861   2.090   2.275  16.444  0.7148  0.0317 -2.1478
 6124TIP3   OH239862   6.512   2.931   0.477  0.1037  0.2558 -0.1078
 6124TIP3    H139863   6.527   2.862   0.412 -0.5577 -0.3056  0.3202
 6124TIP3    H239864   6.435   2.978   0.445 -0.0784  0.1291  0.1355
 6125TIP3   OH239865   2.170   3.648   5.506  0.2382  0.3290  0.9197
 6125TIP3    H139866   2.211   3.587   5.568  0.9553  0.6637  0.7833
 6125TIP3    H239867   2.125   3.591   5.443  2.0979 -0.1423 -0.0447
 6126TIP3   OH239868   5.861   1.741  14.037  0.5324  0.3382  0.0083
 6126TIP3    H139869   5.860   1.673  14.104  0.1061 -0.6711 -0.9778
 6126TIP3    H239870   5.770   1.768  14.029  0.4348 -0.1710 -0.7455
 6127TIP3   OH239871   1.157   1.076   2.358 -0.5113 -0.1317  0.3908
 6127TIP3    H139872   1.125   1.145   2.416 -0.9928 -0.5085  0.5853
 6127TIP3    H239873   1.099   1.079   2.282  0.3958  0.6574 -0.3000
 6128TIP3   OH239874   5.503   4.036  13.488  0.0660 -0.2009  0.1902
 6128TIP3    H139875   5.510   3.944  13.513 -0.5139 -0.3728 -0.2516
 6128TIP3    H239876   5.417   4.043  13.446 -0.1308  0.6590  0.7090
 6129TIP3   OH239877   2.547   3.148   0.467  0.2545  0.6064 -0.3261
 6129TIP3    H139878   2.486   3.175   0.399 -0.3725 -1.6449 -0.7415
 6129TIP3    H239879   2.610   3.092   0.422  1.7962  1.7156  0.3768
 6130TIP3   OH239880   6.566   4.484   0.779 -0.1926 -0.4305 -0.1434
 6130TIP3    H139881   6.654   4.459   0.751  0.5956  0.5715  1.3051
 6130TIP3    H239882   6.563   4.579   0.764 -0.3021 -0.1290  1.5904
 6131TIP3   OH239883   3.135   6.158  11.361  0.0917  0.0422  0.5399
 6131TIP3    H139884   3.160   6.067  11.345  0.0432  0.0686  0.3125
 6131TIP3    H239885   3.118   6.194  11.274 -1.0265 -0.0603  0.6957
 6132TIP3   OH239886   6.711   2.059  13.611 -0.2160 -0.4375 -0.3104
 6132TIP3    H139887   6.678   2.141  13.573  1.2002 -0.2698 -1.2384
 6132TIP3    H239888   6.718   1.999  13.536 -1.0240 -1.3593  0.3246
 6133TIP3   OH239889   2.740   1.391   0.198  0.3584 -0.2977 -1.1027
 6133TIP3    H139890   2.833   1.368   0.198  0.6024  0.5065  0.4312
 6133TIP3    H239891   2.736   1.475   0.245 -1.3854 -1.6252  1.3334
 6134TIP3   OH239892   6.483   3.307   2.171 -0.0370 -0.2450 -0.1352
 6134TIP3    H139893   6.510   3.239   2.233  0.5735  0.1788  0.0784
 6134TIP3    H239894   6.393   3.283   2.147 -0.8698  0.4201  2.0815
 6135TIP3   OH239895   1.088   3.832  13.886  0.4364  0.0273  0.1371
 6135TIP3    H139896   1.162   3.802  13.938 -0.1363  0.5544  1.3150
 6135TIP3    H239897   1.117   3.827  13.796  1.7201 -0.2563  0.5545
 6136TIP3   OH239898   2.085   5.406   4.690 -0.0305 -0.3018 -0.2252
 6136TIP3    H139899   2.147   5.472   4.720  0.0309 -1.2847  2.0224
 6136TIP3    H239900   2.017   5.404   4.758 -0.0761 -2.4330 -0.2413
 6137TIP3   OH239901   5.566   1.490   6.470  0.0206  0.1741  0.4312
 6137TIP3    H139902   5.506   1.474   6.543  2.4886  1.3144  2.9499
 6137TIP3    H239903   5.623   1.414   6.469 -0.5442 -0.2594 -0.9928
 6138TIP3   OH239904   1.233   4.221   3.977 -0.1467  0.2654  0.2019
 6138TIP3    H139905   1.280   4.139   3.993  0.4549  0.8822  1.7518
 6138TIP3    H239906   1.276   4.259   3.901 -0.4207 -0.8278 -0.5336
 6139TIP3   OH239907   6.750   0.331   0.332 -0.1877 -0.1796  0.2222
 6139TIP3    H139908   6.750   0.286   0.248  0.2054  0.9404 -0.4114
 6139TIP3    H239909   6.707   0.415   0.315  0.7358  0.4606  0.8893
 6140TIP3   OH239910   3.642   5.282  13.339 -0.1438 -0.7426 -0.3732
 6140TIP3    H139911   3.653   5.191  13.368 -0.5924 -0.4222  0.8954
 6140TIP3    H239912   3.594   5.324  13.411 -1.6336  0.0400 -1.7531
 6141TIP3   OH239913   2.274   2.555  16.754 -0.2718  0.2100  0.1911
 6141TIP3    H139914   2.184   2.535  16.730  0.1335  0.7052 -1.9632
 6141TIP3    H239915   2.266   2.621  16.823 -1.5767  1.1693 -0.8276
 6142TIP3   OH239916   3.753   3.867   0.242 -0.2283 -0.0363 -0.0933
 6142TIP3    H139917   3.827   3.836   0.190  0.7146 -1.0144  1.7640
 6142TIP3    H239918   3.687   3.798   0.232 -0.2744  0.0592 -0.4580
 6143TIP3   OH239919   2.622   6.094  14.215 -0.2436 -0.3446  0.4760
 6143TIP3    H139920   2.608   6.009  14.175  0.1790 -0.6685  0.9967
 6143TIP3    H239921   2.651   6.151  14.144 -0.4657 -0.6523  0.1420
 6144TIP3   OH239922   3.458   2.702   2.727 -0.1175  0.2038  0.0049
 6144TIP3    H139923   3.374   2.680   2.768 -0.0694 -1.3220 -0.6525
 6144TIP3    H239924   3.434   2.762   2.656 -0.3902  1.4507  1.1157
 6145TIP3   OH239925   5.983   3.433  16.200 -0.4188 -0.9792  0.1493
 6145TIP3    H139926   5.941   3.378  16.266  0.8657 -0.7962  1.1572
 6145TIP3    H239927   5.913   3.455  16.139 -0.9822 -3.7307 -0.3097
 6146TIP3   OH239928   2.416   0.315  13.809  0.3211 -0.1567  0.3392
 6146TIP3    H139929   2.473   0.251  13.850  0.5994 -0.4616 -0.5012
 6146TIP3    H239930   2.415   0.291  13.717 -1.6115 -0.4853  0.4138
 6147TIP3   OH239931   4.639   5.266  13.216  0.4017  0.0113 -0.0680
 6147TIP3    H139932   4.612   5.326  13.146 -0.7358  0.1043  0.4255
 6147TIP3    H239933   4.650   5.181  13.172  1.0015  0.3440 -0.5807
 6148TIP3   OH239934   3.061   0.777  11.614  0.0704  0.1639 -0.1902
 6148TIP3    H139935   3.071   0.861  11.569  1.2327  0.3194  0.3262
 6148TIP3    H239936   3.150   0.743  11.622 -0.2158 -0.3352  1.0950
 6149TIP3   OH239937   4.296   2.763  16.898 -0.3224  0.0030  0.2876
 6149TIP3    H139938   4.357   2.732  16.831 -0.7866 -1.3765  0.4602
 6149TIP3    H239939   4.298   2.695  16.965  0.9570  1.8689  2.2456
 6150TIP3   OH239940   2.489   3.096  13.314 -0.9037 -0.2537  0.8904
 6150TIP3    H139941   2.521   3.086  13.224 -0.9609  1.8589  0.5705
 6150TIP3    H239942   2.440   3.178  13.312 -1.2348 -0.3735  2.7804
 6151TIP3   OH239943   4.765   1.666  14.137  0.2452 -0.7301 -0.2336
 6151TIP3    H139944   4.788   1.589  14.086  0.1339 -0.9051 -0.0198
 6151TIP3    H239945   4.847   1.713  14.149  0.2509 -0.6207 -0.6867
 6152TIP3   OH239946   6.353   6.025   3.769 -0.0897 -0.1683  0.3275
 6152TIP3    H139947   6.324   6.113   3.792  0.4128 -0.1129  0.7848
 6152TIP3    H239948   6.294   5.966   3.816 -0.6807 -0.0814 -0.3025
 6153TIP3   OH239949   0.873   6.757   2.947  0.4217 -0.6810  0.0974
 6153TIP3    H139950   0.918   6.826   2.899  1.1912 -0.6862  0.8035
 6153TIP3    H239951   0.846   6.797   3.029  0.5636 -1.1247  0.3640
 6154TIP3   OH239952   1.954   3.129  15.547  0.3774 -0.2079 -0.2517
 6154TIP3    H139953   1.904   3.053  15.518  0.6535 -0.6707  0.4532
 6154TIP3    H239954   1.983   3.107  15.636  0.8456  0.5322 -0.2045
 6155TIP3   OH239955   2.833   0.478   5.526  0.4107  0.4125 -0.0628
 6155TIP3    H139956   2.844   0.475   5.431 -0.9492 -0.9335 -0.2135
 6155TIP3    H239957   2.820   0.386   5.551 -0.2498  0.8605  1.2954
 6156TIP3   OH239958   6.014   1.324  14.995 -0.2420  0.5414  0.4800
 6156TIP3    H139959   5.962   1.338  15.074 -0.6184 -3.4786  1.1309
 6156TIP3    H239960   6.029   1.229  14.991 -0.5198  0.4130 -4.4568
 6157TIP3   OH239961   5.475   6.461   5.021 -0.0736  0.6124  0.1708
 6157TIP3    H139962   5.514   6.459   4.934 -0.0094  0.6865  0.1982
 6157TIP3    H239963   5.433   6.375   5.030 -1.1611  1.0696 -0.4239
 6158TIP3   OH239964   5.363   0.017   3.797  0.1540 -0.0331  0.1502
 6158TIP3    H139965   5.344  -0.026   3.713  0.4440 -0.5880  0.3700
 6158TIP3    H239966   5.288  -0.005   3.852 -1.2721  2.3175 -0.6794
 6159TIP3   OH239967   0.091   6.790   4.321 -0.1572 -0.4450 -0.1749
 6159TIP3    H139968   0.058   6.865   4.273  0.9495  0.5479  0.5771
 6159TIP3    H239969   0.048   6.796   4.407  0.4734 -0.2537  0.1326
 6160TIP3   OH239970   3.035   4.089  16.963  0.6168 -0.2573 -0.5525
 6160TIP3    H139971   3.049   4.003  16.921  0.7438  0.0163 -1.0779
 6160TIP3    H239972   3.023   4.068  17.055  0.9057 -0.8253 -0.6355
 6161TIP3   OH239973   0.770   2.209   3.122  0.9098 -0.2831 -0.0212
 6161TIP3    H139974   0.731   2.137   3.072  1.1112  0.7007 -1.6977
 6161TIP3    H239975   0.862   2.185   3.132  1.1972  0.1158 -1.4090
 6162TIP3   OH239976   6.754   3.294  12.127  0.2247  0.2756  0.8953
 6162TIP3    H139977   6.833   3.292  12.074 -0.3462 -1.5607  0.0154
 6162TIP3    H239978   6.780   3.258  12.211  0.2737 -0.7253  0.4710
 6163TIP3   OH239979   4.244   3.083   0.259  0.2817 -0.1526 -0.5271
 6163TIP3    H139980   4.242   3.156   0.197  0.8924  1.4637  1.2636
 6163TIP3    H239981   4.297   3.114   0.332 -0.2616 -2.0378  0.7565
 6164TIP3   OH239982   0.536   3.127   4.065 -0.4093 -0.1428 -0.7064
 6164TIP3    H139983   0.521   3.222   4.063 -2.8237 -0.4165  0.1710
 6164TIP3    H239984   0.623   3.117   4.103  0.2366  1.7236 -1.5842
 6165TIP3   OH239985   4.476   0.147   5.433 -0.0756  0.8019 -0.1562
 6165TIP3    H139986   4.550   0.172   5.378 -0.6347 -0.6011 -1.6332
 6165TIP3    H239987   4.508   0.156   5.523  1.3204  1.8176 -0.7230
 6166TIP3   OH239988   1.099   5.973  14.112  0.0724 -0.3677  0.4711
 6166TIP3    H139989   1.042   6.017  14.049 -0.8982 -1.7657  0.3390
 6166TIP3    H239990   1.131   6.044  14.169 -0.3201  0.6846 -0.5854
 6167TIP3   OH239991   4.152   4.099  16.516  0.6348  0.1880 -0.5126
 6167TIP3    H139992   4.230   4.070  16.470 -0.2753 -2.7340 -0.4639
 6167TIP3    H239993   4.083   4.040  16.485 -0.6884  0.1584  2.1858
 6168TIP3   OH239994   4.674   2.386   2.137 -0.2122 -0.0579  0.0328
 6168TIP3    H139995   4.613   2.440   2.087  0.6618  1.7049  0.7891
 6168TIP3    H239996   4.663   2.414   2.227  1.0849 -0.3179  0.2987
 6169TIP3   OH239997   0.955   2.047  16.918  0.8179  0.5753  0.1052
 6169TIP3    H139998   0.886   2.111  16.935 -0.3139 -0.6265  0.2693
 6169TIP3    H239999   0.924   1.967  16.961  2.0598 -0.1608 -0.3040
 6170TIP3   OH240000   6.672   2.920   3.910  0.1562  0.3010 -0.5240
 6170TIP3    H140001   6.750   2.905   3.962 -1.6144 -1.2934  1.8852
 6170TIP3    H240002   6.607   2.951   3.973 -1.5422  0.3167 -2.1927
 6171TIP3   OH240003   5.087   2.983   0.104  0.1477 -0.0625 -0.0366
 6171TIP3    H140004   5.100   3.035   0.025  0.7818  0.0207  0.1150
 6171TIP3    H240005   4.992   2.978   0.114  0.0473 -0.4192 -1.0275
 6172TIP3   OH240006   1.876   3.551  17.056  0.1975  0.0993  0.1512
 6172TIP3    H140007   1.913   3.605  17.126  2.3157  0.9880 -1.5608
 6172TIP3    H240008   1.944   3.486  17.038 -1.6590 -2.2484  1.0806
 6173TIP3   OH240009   5.798   3.755  11.247 -0.2298  0.0885 -0.0962
 6173TIP3    H140010   5.764   3.670  11.275 -0.7444  0.1137 -0.6304
 6173TIP3    H240011   5.892   3.741  11.237 -0.1992 -0.2160  0.5445
 6174TIP3   OH240012   5.857   6.364   5.152  0.2761  0.3977  0.3510
 6174TIP3    H140013   5.808   6.292   5.192  0.6439  0.5928  1.1679
 6174TIP3    H240014   5.837   6.440   5.206  0.2028  0.8286 -0.2770
 6175TIP3   OH240015   5.690   5.836   5.008 -0.0784  0.3588 -0.4084
 6175TIP3    H140016   5.653   5.918   4.975  0.3098  0.4929 -0.5148
 6175TIP3    H240017   5.706   5.853   5.101  0.0216  0.4099 -0.4352
 6176TIP3   OH240018   1.081   6.793   1.306  0.3384 -0.8894  0.3146
 6176TIP3    H140019   1.052   6.701   1.305  0.8271 -1.1093  2.4526
 6176TIP3    H240020   1.153   6.795   1.369  0.3759  0.9670  0.2569
 6177TIP3   OH240021   6.812   5.657   3.827  0.1223 -0.0790 -0.6067
 6177TIP3    H140022   6.824   5.694   3.915 -0.4795 -0.0112 -0.5493
 6177TIP3    H240023   6.757   5.721   3.781  0.0229 -0.3533 -0.8717
 6178TIP3   OH240024   0.237   1.569   0.025 -0.1343  1.2719 -0.7430
 6178TIP3    H140025   0.283   1.579   0.109  0.8820  1.3866 -1.2998
 6178TIP3    H240026   0.161   1.515   0.046 -0.7413  2.5796  0.5475
 6179TIP3   OH240027   5.196   4.244  16.344  0.6387 -0.2935  0.1038
 6179TIP3    H140028   5.236   4.205  16.422  0.2790 -1.5145 -0.2864
 6179TIP3    H240029   5.134   4.308  16.377 -0.9710 -2.2016  0.9272
 6180TIP3   OH240030   4.176   2.122  11.879  0.1771  0.5336  0.2453
 6180TIP3    H140031   4.093   2.120  11.832  0.4014 -0.8420 -0.1241
 6180TIP3    H240032   4.154   2.094  11.968  0.1274  0.9329  0.3616
 6181TIP3   OH240033   6.636   2.303  13.781  0.1473  0.4016 -0.7099
 6181TIP3    H140034   6.660   2.286  13.690  0.1869  0.5164 -0.7206
 6181TIP3    H240035   6.710   2.352  13.816  1.4854 -2.0743  0.1915
 6182TIP3   OH240036   2.877   4.742   3.474  0.2707  0.0194  0.0281
 6182TIP3    H140037   2.964   4.709   3.454  0.6212  0.1334  1.2843
 6182TIP3    H240038   2.891   4.819   3.529 -0.6153  0.1604  0.0842
 6183TIP3   OH240039   2.950   1.934   2.673  0.7926  0.1629 -0.1342
 6183TIP3    H140040   2.874   1.978   2.712  0.9073  1.0328 -0.8455
 6183TIP3    H240041   2.940   1.948   2.579  1.2320 -0.7159 -0.3223
 6184TIP3   OH240042   0.690   2.170  13.910 -0.2494 -0.4442 -0.2642
 6184TIP3    H140043   0.762   2.230  13.893  1.2910 -2.1416 -0.0564
 6184TIP3    H240044   0.657   2.146  13.824 -0.5309  0.2600 -0.3627
 6185TIP3   OH240045   0.845   5.806  16.957  0.1636 -0.0929 -0.4002
 6185TIP3    H140046   0.910   5.861  17.000  2.1504 -2.1420 -0.5608
 6185TIP3    H240047   0.822   5.740  17.023  0.7267 -1.2784 -1.3369
 6186TIP3   OH240048   5.279   4.933   1.404 -0.2649  0.6492  0.0545
 6186TIP3    H140049   5.202   4.915   1.459 -1.2590  1.4898 -1.0123
 6186TIP3    H240050   5.272   4.870   1.332  0.4962  0.2063  0.3571
 6187TIP3   OH240051   0.362   3.856  13.661  0.3496  0.6316  0.4710
 6187TIP3    H140052   0.342   3.780  13.714 -1.2093  1.6480  1.4343
 6187TIP3    H240053   0.283   3.911  13.666  1.7050  2.7140  0.5424
 6188TIP3   OH240054   0.784   5.264  14.479 -0.3195  0.4238  0.4775
 6188TIP3    H140055   0.696   5.263  14.516 -1.2569 -1.5805 -1.5363
 6188TIP3    H240056   0.779   5.323  14.404  0.4486  1.3532  1.1401
 6189TIP3   OH240057   4.260   2.057   3.422  0.5440  0.0147  0.1210
 6189TIP3    H140058   4.326   2.042   3.354 -0.9479 -0.2146 -1.3627
 6189TIP3    H240059   4.188   1.998   3.398 -0.9271  1.5344  0.6003
 6190TIP3   OH240060   1.984   0.999  14.023 -0.1350 -0.4224  0.0151
 6190TIP3    H140061   1.901   0.958  14.003 -0.6456  0.4110  0.3546
 6190TIP3    H240062   2.050   0.931  14.007 -0.9371 -1.3432  0.5402
 6191TIP3   OH240063   5.639   1.263  11.187 -0.3996  0.5520 -0.0968
 6191TIP3    H140064   5.711   1.201  11.180 -1.8473 -1.0921 -1.3734
 6191TIP3    H240065   5.589   1.232  11.263 -0.4154  0.9714  0.0657
 6192TIP3   OH240066   4.274   5.808   1.867 -0.2551  0.0306 -0.3554
 6192TIP3    H140067   4.281   5.809   1.772  0.3349 -0.7969 -0.3287
 6192TIP3    H240068   4.288   5.717   1.892 -1.9826 -0.0669  0.4181
 6193TIP3   OH240069   1.085   5.035   2.189 -0.3290 -0.1105  0.0047
 6193TIP3    H140070   1.016   4.973   2.214 -0.3644 -0.0155  0.1511
 6193TIP3    H240071   1.165   4.999   2.227 -0.5219  0.4810  1.0394
 6194TIP3   OH240072   2.646   3.499   4.134 -0.3738  0.1663  0.1501
 6194TIP3    H140073   2.658   3.590   4.162 -0.9214  0.3677 -0.2430
 6194TIP3    H240074   2.564   3.500   4.085 -0.3555 -0.5336  0.0945
 6195TIP3   OH240075   3.441   1.368  11.588 -0.3724  0.0737 -0.9462
 6195TIP3    H140076   3.528   1.388  11.621 -1.0027  2.0360 -0.3033
 6195TIP3    H240077   3.392   1.340  11.666 -0.7380  0.5928 -0.9822
 6196TIP3   OH240078   0.714   2.965  13.022 -0.3202  0.2017  0.2852
 6196TIP3    H140079   0.777   2.895  13.004 -2.2126 -1.6780  0.6753
 6196TIP3    H240080   0.633   2.920  13.046 -2.6676  2.4353 -2.7105
 6197TIP3   OH240081   0.115   4.572   2.958  0.0321  0.4170  0.2829
 6197TIP3    H140082   0.184   4.631   2.926 -0.6489  1.6201  0.9689
 6197TIP3    H240083   0.053   4.630   3.003 -2.0919 -0.4427 -1.3765
 6198TIP3   OH240084   3.731   1.555  11.779  0.2294  0.0380  0.1208
 6198TIP3    H140085   3.823   1.581  11.772  0.0822  0.5155 -0.0661
 6198TIP3    H240086   3.734   1.466  11.814  0.7312  0.3979  1.0057
 6199TIP3   OH240087   4.837   0.491  12.958  0.1628  0.0558  0.4127
 6199TIP3    H140088   4.804   0.463  13.043 -0.4262 -0.1686  0.1121
 6199TIP3    H240089   4.864   0.410  12.915 -1.4460 -0.0803 -0.4159
 6200TIP3   OH240090   1.577   0.829   2.969 -0.4074  0.0138 -0.0709
 6200TIP3    H140091   1.655   0.881   2.989 -1.0687  1.9056 -2.0822
 6200TIP3    H240092   1.512   0.892   2.939 -1.4970 -1.8852 -1.9878
 6201TIP3   OH240093   4.894   2.821   4.274  0.6172  0.0257  0.2219
 6201TIP3    H140094   4.855   2.751   4.326  0.6156  0.2917  0.5879
 6201TIP3    H240095   4.916   2.889   4.339  2.8646 -0.6332  0.2284
 6202TIP3   OH240096   2.076   6.558  11.916  0.2483 -0.5422  0.2288
 6202TIP3    H140097   2.058   6.538  11.824  0.4301 -1.2414  0.3417
 6202TIP3    H240098   2.031   6.489  11.965 -0.8861  0.5170  0.7359
 6203TIP3   OH240099   0.135   1.877  14.809  0.6127 -0.1572 -0.0177
 6203TIP3    H140100   0.048   1.913  14.828  0.3861 -0.9693  0.5504
 6203TIP3    H240101   0.192   1.953  14.804 -0.0827  0.3674 -0.1102
 6204TIP3   OH240102   2.466   0.045  11.365  0.1394  0.3541 -0.3109
 6204TIP3    H140103   2.489   0.138  11.371  1.2171  0.1356 -0.8644
 6204TIP3    H240104   2.548   0.001  11.344  0.4824 -1.1754  3.4098
 6205TIP3   OH240105   5.690   1.399  12.631 -0.3794  0.1161  0.5182
 6205TIP3    H140106   5.716   1.315  12.594 -0.3036  0.0685  0.6820
 6205TIP3    H240107   5.727   1.464  12.571  1.2936  0.0963  1.4882
 6206TIP3   OH240108   2.814   6.039   5.540  0.6607  0.6912 -0.1507
 6206TIP3    H140109   2.823   6.125   5.582 -0.1683  0.7044  0.0183
 6206TIP3    H240110   2.801   5.978   5.612  2.6921  0.1709 -0.1516
 6207TIP3   OH240111   0.797   1.091  12.510  0.2877 -0.4409 -0.0349
 6207TIP3    H140112   0.862   1.104  12.441  0.9134 -0.9776  0.4429
 6207TIP3    H240113   0.786   1.178  12.548 -0.0502 -0.1433 -0.7924
 6208TIP3   OH240114   3.384   3.115  14.888  0.0875 -0.0549  0.3403
 6208TIP3    H140115   3.299   3.117  14.932  0.4429 -1.0153  1.0967
 6208TIP3    H240116   3.433   3.046  14.933  1.9062  1.6306  1.1007
 6209TIP3   OH240117   4.147   2.154  12.812 -0.3037  0.1119  0.1270
 6209TIP3    H140118   4.109   2.068  12.832 -0.9093 -0.2908 -2.3853
 6209TIP3    H240119   4.186   2.144  12.726 -0.8090  2.4724 -0.4628
 6210TIP3   OH240120   2.896   4.595  13.665 -0.6998  0.3466  0.1459
 6210TIP3    H140121   2.924   4.537  13.594 -0.3555  0.5437  0.1201
 6210TIP3    H240122   2.912   4.683  13.632  0.0163  0.4314  0.6884
 6211TIP3   OH240123   1.919   6.219  11.847  0.4597  0.1360 -0.4865
 6211TIP3    H140124   1.837   6.241  11.803  0.4310  0.1669 -0.4184
 6211TIP3    H240125   1.942   6.133  11.814 -0.5012 -0.6415  0.7696
 6212TIP3   OH240126   5.539   4.454  13.011 -0.4313 -0.7435 -0.3243
 6212TIP3    H140127   5.584   4.501  12.941 -2.1450  0.4460 -0.7097
 6212TIP3    H240128   5.538   4.516  13.084 -1.6251 -0.6158 -0.4195
 6213TIP3   OH240129   5.675   1.661  15.318 -0.6183 -0.2989  0.2444
 6213TIP3    H140130   5.623   1.696  15.390 -0.2252  0.9065 -0.0437
 6213TIP3    H240131   5.756   1.631  15.358 -1.0340 -1.0854  0.5185
 6214TIP3   OH240132   6.349   0.494  14.716  0.2308  0.0666 -0.5870
 6214TIP3    H140133   6.315   0.427  14.776  0.4682  0.5938  0.1520
 6214TIP3    H240134   6.354   0.573  14.769  1.4416  0.2986 -1.0149
 6215TIP3   OH240135   4.963   0.305   4.890 -0.3285 -0.3422 -0.6487
 6215TIP3    H140136   4.969   0.389   4.845 -0.6016 -1.8497 -3.7293
 6215TIP3    H240137   4.889   0.261   4.848  0.8828 -2.8062 -0.3630
 6216TIP3   OH240138   2.184   5.007  15.907 -0.4148 -0.1454  0.2193
 6216TIP3    H140139   2.159   5.056  15.986  0.7477  0.4818  0.2176
 6216TIP3    H240140   2.121   4.935  15.903 -0.1640 -0.5225  2.0480
 6217TIP3   OH240141   4.559   1.890   4.877 -0.1781 -0.1163  0.6221
 6217TIP3    H140142   4.628   1.841   4.832 -0.2870  0.7123 -0.4828
 6217TIP3    H240143   4.603   1.928   4.954  0.9796  1.4673 -0.7340
 6218TIP3   OH240144   6.480   4.103  15.954  0.1101  0.0015  0.0719
 6218TIP3    H140145   6.415   4.113  16.024  0.6612  0.9997  0.4631
 6218TIP3    H240146   6.564   4.117  15.998  0.5776 -0.9498 -0.4915
 6219TIP3   OH240147   1.953   1.860  14.108 -0.1023 -0.6824 -0.3221
 6219TIP3    H140148   2.004   1.828  14.033  0.6245 -0.0338 -0.1229
 6219TIP3    H240149   1.884   1.914  14.068 -0.0465 -0.7791 -0.5513
 6220TIP3   OH240150   1.762   6.432   4.614 -0.2466 -0.4095 -0.3727
 6220TIP3    H140151   1.697   6.497   4.587 -1.3444 -0.9185  0.9518
 6220TIP3    H240152   1.737   6.408   4.703  2.1101 -0.2003  0.4272
 6221TIP3   OH240153   6.269   1.640  15.095 -0.4284  0.4082  0.2417
 6221TIP3    H140154   6.306   1.579  15.031 -1.4374  0.2273 -0.1895
 6221TIP3    H240155   6.247   1.718  15.043 -0.9931  0.3671  0.4180
 6222TIP3   OH240156   3.320   0.738  13.547  0.2015 -0.5042 -0.3234
 6222TIP3    H140157   3.252   0.798  13.578  0.0399  0.1281 -1.7817
 6222TIP3    H240158   3.286   0.651  13.565  0.0434 -0.1783  1.0451
 6223TIP3   OH240159   4.284   1.115  13.456  0.2554 -0.2530  0.0495
 6223TIP3    H140160   4.314   1.190  13.404 -0.8203  0.4672  0.4503
 6223TIP3    H240161   4.264   1.048  13.391 -0.3141  0.3681 -0.4326
 6224TIP3   OH240162   3.168   5.619   2.974  0.6921  0.3313 -0.5327
 6224TIP3    H140163   3.204   5.556   3.036  0.7442  0.6996 -0.1851
 6224TIP3    H240164   3.110   5.567   2.918 -0.7761  0.2711  0.9496
 6225TIP3   OH240165   5.449   2.614  11.672  0.4496 -0.1578 -0.0175
 6225TIP3    H140166   5.486   2.655  11.593 -0.3009  0.0670 -0.2567
 6225TIP3    H240167   5.369   2.572  11.642 -0.8572  1.5144  0.9515
 6226TIP3   OH240168   6.621   3.159  15.646 -0.2377  0.3680 -0.1355
 6226TIP3    H140169   6.623   3.094  15.576 -0.3329  0.6507 -0.4056
 6226TIP3    H240170   6.533   3.155  15.682 -0.5683  1.0585 -0.8383
 6227TIP3   OH240171   6.789   3.682   6.197 -0.6439  0.5520  0.1182
 6227TIP3    H140172   6.731   3.627   6.145 -1.8738  3.5315 -1.9130
 6227TIP3    H240173   6.877   3.660   6.166 -0.9143 -1.4629  0.6638
 6228TIP3   OH240174   5.982   1.402  12.309  0.5959  0.1206  0.2728
 6228TIP3    H140175   6.023   1.320  12.339 -0.8791 -0.9971 -0.6308
 6228TIP3    H240176   5.933   1.377  12.231  0.4692  1.9889 -0.2939
 6229TIP3   OH240177   1.406   5.060  12.747 -0.1064 -0.0070 -0.4463
 6229TIP3    H140178   1.326   5.088  12.704  0.0905 -0.8116 -1.3881
 6229TIP3    H240179   1.472   5.123  12.718 -0.0698 -0.2830 -0.9802
 6230TIP3   OH240180   5.366   3.463  11.986 -0.4064 -0.0340 -0.3574
 6230TIP3    H140181   5.377   3.408  11.909  0.2343 -0.8472  0.2969
 6230TIP3    H240182   5.423   3.538  11.971  1.5347 -1.2860  0.3011
 6231TIP3   OH240183   1.109   6.160  16.555  0.3202 -0.1637 -0.1550
 6231TIP3    H140184   1.103   6.145  16.649 -1.5905  1.5992  0.0940
 6231TIP3    H240185   1.065   6.085  16.516 -2.1922  0.7681  0.6332
 6232TIP3   OH240186   0.119   6.150  15.085  0.2323  0.4668  0.4606
 6232TIP3    H140187   0.210   6.126  15.104  0.1349  1.2494  2.0890
 6232TIP3    H240188   0.093   6.091  15.015  2.3361  0.9542 -0.8073
 6233TIP3   OH240189   1.168   3.008  16.749 -0.5492 -0.2671 -0.5914
 6233TIP3    H140190   1.123   3.057  16.817  2.5405  1.9189  0.1159
 6233TIP3    H240191   1.111   3.015  16.672 -0.6679  4.0941 -0.3549
 6234TIP3   OH240192   5.914   3.749   3.745 -0.4769 -0.0295  0.2179
 6234TIP3    H140193   5.855   3.745   3.670 -1.2364  1.1185  0.7273
 6234TIP3    H240194   5.900   3.667   3.792 -0.2221 -0.6210 -0.7080
 6235TIP3   OH240195   2.946   3.217  12.163  0.1134 -0.0650  0.2064
 6235TIP3    H140196   2.985   3.171  12.237 -0.8058 -0.4161  0.4971
 6235TIP3    H240197   3.007   3.203  12.091  2.0524  1.9580  1.3268
 6236TIP3   OH240198   4.072   6.164   1.545 -0.4574  0.9355 -0.3494
 6236TIP3    H140199   4.099   6.254   1.528  1.1998  0.7362  0.9669
 6236TIP3    H240200   4.029   6.166   1.630 -0.7470  0.5386 -0.4802
 6237TIP3   OH240201   4.062   4.228  16.042  0.1412  0.0164 -0.1788
 6237TIP3    H140202   4.144   4.266  16.009 -0.4923  0.5748 -1.1729
 6237TIP3    H240203   4.069   4.135  16.022  0.9451 -0.1185  0.6491
 6238TIP3   OH240204   4.504   3.119   4.976  0.4786  0.1084  0.8615
 6238TIP3    H140205   4.446   3.185   5.013 -1.6436 -0.3619 -1.3651
 6238TIP3    H240206   4.561   3.168   4.917  1.0588  0.3072  1.5651
 6239TIP3   OH240207   5.321   1.210   0.219 -0.1234  0.0587 -0.3326
 6239TIP3    H140208   5.364   1.262   0.152  0.2972  0.4636  0.2376
 6239TIP3    H240209   5.379   1.135   0.233 -0.0328  0.1554 -0.1801
 6240TIP3   OH240210   5.682   0.135  13.688  0.4104 -0.5833 -0.0944
 6240TIP3    H140211   5.680   0.215  13.739 -0.9022  0.0289 -1.0507
 6240TIP3    H240212   5.721   0.070  13.746 -1.3510 -0.0189  1.8022
 6241TIP3   OH240213   4.653   3.137   3.404  0.4882  0.0838  0.4656
 6241TIP3    H140214   4.663   3.186   3.486 -2.3370  0.3827  0.7382
 6241TIP3    H240215   4.612   3.200   3.344 -0.7785 -1.1525 -0.0112
 6242TIP3   OH240216   6.621   1.063   4.689 -0.0339 -0.1326  0.1579
 6242TIP3    H140217   6.635   1.158   4.682  3.1078 -0.4968 -0.1632
 6242TIP3    H240218   6.666   1.038   4.769 -1.4508 -1.3027  0.6240
 6243TIP3   OH240219   3.348   4.460   5.368  0.6054  0.0704 -0.1072
 6243TIP3    H140220   3.425   4.455   5.311  0.6053  0.8285 -0.1841
 6243TIP3    H240221   3.313   4.548   5.354 -0.4401 -0.3534 -0.2681
 6244TIP3   OH240222   0.647   1.402   4.629 -0.0300  0.7091  0.1906
 6244TIP3    H140223   0.609   1.436   4.548 -0.8977  0.4592  0.4777
 6244TIP3    H240224   0.575   1.406   4.692 -0.1766 -1.5976  0.2442
 6245TIP3   OH240225   0.721   1.821   1.171  0.1419 -0.0378  0.8461
 6245TIP3    H140226   0.645   1.874   1.193 -0.7719  0.1900 -2.3952
 6245TIP3    H240227   0.688   1.731   1.174 -0.1702  0.0354 -0.1614
 6246TIP3   OH240228   3.707   5.647   3.040 -0.2235 -0.2487  0.6377
 6246TIP3    H140229   3.627   5.659   2.988 -0.2169 -0.8558  0.4770
 6246TIP3    H240230   3.736   5.558   3.018 -1.6042 -1.5443  3.5469
 6247TIP3   OH240231   4.940   1.023   4.537 -0.0330 -0.1998 -0.1821
 6247TIP3    H140232   4.902   1.101   4.577 -1.0619 -1.0045  0.4408
 6247TIP3    H240233   4.896   1.015   4.452  0.3558  0.0978 -0.4191
 6248TIP3   OH240234   3.502   2.218   0.834 -0.1965  0.0082  0.1712
 6248TIP3    H140235   3.567   2.192   0.899 -0.6701 -0.6051  0.3990
 6248TIP3    H240236   3.467   2.301   0.867  2.1180  1.6229 -1.1259
 6249TIP3   OH240237   1.351   4.754   1.030  0.1852 -0.4537  0.6551
 6249TIP3    H140238   1.346   4.666   0.994 -1.0975 -0.4793  0.8514
 6249TIP3    H240239   1.278   4.760   1.091 -0.8295  1.2999 -0.6313
 6250TIP3   OH240240   5.272   2.506   5.481  0.3867  0.0504 -0.3206
 6250TIP3    H140241   5.209   2.579   5.476  0.3498 -0.0403 -1.4612
 6250TIP3    H240242   5.280   2.476   5.390  1.8575 -0.1318 -0.1504
 6251TIP3   OH240243   2.715   6.061  17.052 -0.0093 -0.0685 -0.3338
 6251TIP3    H140244   2.742   6.000  17.120 -1.9824 -0.7425 -0.0889
 6251TIP3    H240245   2.792   6.117  17.037  1.1519 -1.2773  0.9009
 6252TIP3   OH240246   5.257   5.654   4.522  0.2995  0.5897  0.3916
 6252TIP3    H140247   5.291   5.577   4.477 -1.8107 -0.7253  0.9052
 6252TIP3    H240248   5.252   5.721   4.454  2.7497  0.5233  0.0766
 6253TIP3   OH240249   2.719   5.175   5.389 -0.0938  0.4995  0.1562
 6253TIP3    H140250   2.664   5.254   5.392  0.4031  0.9308 -1.1658
 6253TIP3    H240251   2.666   5.112   5.341 -0.3181  0.1657  0.8368
 6254TIP3   OH240252   0.382   6.641  16.652 -0.4924  0.2696 -0.1699
 6254TIP3    H140253   0.290   6.638  16.676  0.1135  2.1553  2.9831
 6254TIP3    H240254   0.426   6.586  16.717  0.7350  0.6467 -0.6399
 6255TIP3   OH240255   1.674   4.554   0.287  0.3743  0.4278  0.1990
 6255TIP3    H140256   1.752   4.576   0.237 -0.8778  0.1916 -1.9832
 6255TIP3    H240257   1.618   4.631   0.279 -0.6320 -0.3526 -0.4285
 6256TIP3   OH240258   4.853   3.211   3.680 -0.0025 -0.2241 -0.1350
 6256TIP3    H140259   4.913   3.137   3.682 -0.4222 -0.5663 -0.0116
 6256TIP3    H240260   4.871   3.259   3.761  1.8202  1.0769 -1.2508
 6257TIP3   OH240261   6.634   5.586  16.844 -0.1560  0.0262  0.1564
 6257TIP3    H140262   6.673   5.672  16.829 -0.4786 -0.1321 -1.7493
 6257TIP3    H240263   6.578   5.571  16.768  1.0133 -2.5096 -0.3061
 6258TIP3   OH240264   2.158   2.201   6.759 -0.3738  0.6546  0.3319
 6258TIP3    H140265   2.249   2.228   6.744 -0.0274  0.1163  1.3022
 6258TIP3    H240266   2.110   2.236   6.685  0.8414 -0.1161 -0.8758
 6259TIP3   OH240267   2.123   3.666   0.342 -0.0478  0.0778 -0.1657
 6259TIP3    H140268   2.093   3.661   0.432 -1.3316 -2.3690 -0.6339
 6259TIP3    H240269   2.206   3.715   0.346  0.5893 -1.0826  2.5057
 6260TIP3   OH240270   6.002   3.648  12.138  0.0605  0.2370 -0.8910
 6260TIP3    H140271   6.004   3.706  12.213 -1.8539 -0.9232  0.1582
 6260TIP3    H240272   5.915   3.607  12.141  0.6711 -1.3808 -2.5482
 6261TIP3   OH240273   3.643   6.413  12.177  0.0409 -0.0400 -0.1922
 6261TIP3    H140274   3.584   6.488  12.190  0.7935  0.5025  0.1577
 6261TIP3    H240275   3.609   6.370  12.099 -1.3118 -0.2146  0.4493
 6262TIP3   OH240276   6.567   3.103  14.870 -0.4724 -0.7167  0.0211
 6262TIP3    H140277   6.478   3.072  14.883  0.1588 -2.5581  0.3682
 6262TIP3    H240278   6.558   3.196  14.849 -2.6402 -1.4697 -2.9196
 6263TIP3   OH240279   2.180   4.606  11.953  0.2866 -0.1773 -0.0819
 6263TIP3    H140280   2.097   4.605  11.905 -0.1755 -0.5318  0.6986
 6263TIP3    H240281   2.237   4.548  11.903 -0.8184 -2.1473  0.8428
 6264TIP3   OH240282   6.773   4.990  12.921 -0.6878 -0.7050 -0.3245
 6264TIP3    H140283   6.822   5.055  12.971  0.3155 -1.6062 -0.0894
 6264TIP3    H240284   6.738   4.930  12.987 -1.0313 -0.7843 -0.5745
 6265TIP3   OH240285   1.055   3.603  12.778 -0.3914 -0.1387 -0.2198
 6265TIP3    H140286   1.036   3.573  12.689 -0.9116  0.1179 -0.1959
 6265TIP3    H240287   1.014   3.689  12.784  1.3123  0.7296 -0.3733
 6266TIP3   OH240288   6.701   1.134  16.659  0.5479  0.5558  0.0905
 6266TIP3    H140289   6.624   1.173  16.701  0.6806  2.1808 -1.0841
 6266TIP3    H240290   6.668   1.057  16.614 -0.2432  0.7687  0.2903
 6267TIP3   OH240291   1.562   4.532   1.416  0.0323 -0.6094  0.2479
 6267TIP3    H140292   1.641   4.518   1.363  0.7398  1.1280  0.7785
 6267TIP3    H240293   1.552   4.451   1.466  0.7042 -1.3585 -0.7908
 6268TIP3   OH240294   4.310   3.900  15.571  0.0159 -0.3252 -0.0065
 6268TIP3    H140295   4.350   3.851  15.499  1.9346  1.7704 -0.4777
 6268TIP3    H240296   4.216   3.889  15.559  0.2682 -0.0831 -2.8287
 6269TIP3   OH240297   3.684   3.174  16.482 -0.1551 -0.5470  0.1418
 6269TIP3    H140298   3.658   3.101  16.540 -1.5780 -0.2100 -0.0285
 6269TIP3    H240299   3.682   3.251  16.539 -0.8328 -0.3259 -0.1719
 6270TIP3   OH240300   5.636   4.721  15.505 -0.2319 -0.1498  0.0928
 6270TIP3    H140301   5.691   4.709  15.428 -0.3406  1.3798 -0.2429
 6270TIP3    H240302   5.597   4.807  15.494 -3.2061 -1.4031  0.0131
 6271TIP3   OH240303   1.998   0.155   5.349  0.5413 -0.0677  0.1067
 6271TIP3    H140304   2.010   0.159   5.444 -0.8569 -3.2420  0.5580
 6271TIP3    H240305   1.904   0.173   5.336  0.7610  0.5405 -0.7256
 6272TIP3   OH240306   5.940   2.119   3.295  0.1662 -0.6253 -0.2103
 6272TIP3    H140307   5.973   2.119   3.205  1.8188 -0.0862  0.3600
 6272TIP3    H240308   6.015   2.148   3.348 -0.7778 -0.9129  1.3371
 6273TIP3   OH240309   1.016   3.245  11.069  0.2105 -0.6213  0.3382
 6273TIP3    H140310   1.086   3.180  11.075 -1.0902 -2.2244 -0.9695
 6273TIP3    H240311   1.053   3.314  11.014  1.3117 -0.6006  1.0469
 6274TIP3   OH240312   4.009   6.349  13.566 -0.1959  0.2475  0.2518
 6274TIP3    H140313   3.961   6.406  13.507 -0.5431 -1.0118 -0.7326
 6274TIP3    H240314   3.941   6.299  13.611 -0.0119  2.0050  2.6696
 6275TIP3   OH240315   5.215   1.866  13.077  0.4739  0.2193 -0.1828
 6275TIP3    H140316   5.205   1.784  13.029 -0.2668  0.1272  0.1279
 6275TIP3    H240317   5.307   1.867  13.104  0.7431 -0.0219 -1.0655
 6276TIP3   OH240318   3.575   2.718  16.893  0.3514  0.3504  0.1105
 6276TIP3    H140319   3.480   2.706  16.887  0.5504 -0.9467 -0.9275
 6276TIP3    H240320   3.606   2.703  16.804  1.4561  1.6714  0.2550
 6277TIP3   OH240321   0.176   0.723   2.535  0.0838 -0.0372 -0.1751
 6277TIP3    H140322   0.106   0.763   2.484 -0.4611  2.9845  2.6440
 6277TIP3    H240323   0.137   0.644   2.572 -0.9578  0.1797 -0.7730
 6278TIP3   OH240324   6.589   2.720   0.276  0.1481  0.4962 -0.2287
 6278TIP3    H140325   6.648   2.794   0.293  2.5967 -1.9380  3.4629
 6278TIP3    H240326   6.644   2.657   0.230 -0.8101 -0.3700 -0.2034
 6279TIP3   OH240327   3.495   4.228   6.654  0.3254  0.0029 -0.0323
 6279TIP3    H140328   3.586   4.196   6.652  0.7076  0.7966  1.9428
 6279TIP3    H240329   3.501   4.317   6.619 -0.0825 -0.6332 -1.8315
 6280TIP3   OH240330   2.114   5.366  10.950  0.7520 -0.2701  0.2509
 6280TIP3    H140331   2.185   5.367  10.886  0.9216 -0.7196  0.4235
 6280TIP3    H240332   2.117   5.277  10.986  0.6645 -0.0176  0.8885
 6281TIP3   OH240333   2.128   0.736   5.035 -0.1924 -0.5000  0.0682
 6281TIP3    H140334   2.121   0.675   4.962  0.0561  0.6413 -0.9499
 6281TIP3    H240335   2.038   0.746   5.066 -1.0343  2.0103 -2.6988
 6282TIP3   OH240336   3.883   3.010   4.580 -0.1513 -0.1741  0.0393
 6282TIP3    H140337   3.847   2.940   4.524 -0.4908 -0.1446  0.2166
 6282TIP3    H240338   3.811   3.034   4.638 -1.0560  2.4475 -1.9990
 6283TIP3   OH240339   4.501   1.679   5.736  0.2163 -0.3881  0.1510
 6283TIP3    H140340   4.500   1.667   5.831  1.7584 -0.2623  0.2033
 6283TIP3    H240341   4.409   1.696   5.713  0.0719  1.4641  1.8602
 6284TIP3   OH240342   4.493   4.498  12.267 -0.0570  0.0040 -0.4292
 6284TIP3    H140343   4.580   4.474  12.299 -1.3646 -2.5337  1.6417
 6284TIP3    H240344   4.483   4.449  12.185  0.7125  0.8928 -1.0633
 6285TIP3   OH240345   0.658   1.213  11.749 -0.5140  0.0042 -0.0276
 6285TIP3    H140346   0.700   1.156  11.683 -2.6127  1.6500 -3.0367
 6285TIP3    H240347   0.598   1.155  11.795  1.4995 -1.3439  1.0628
 6286TIP3   OH240348   3.680   6.715  11.676  0.1729  0.3541  0.4860
 6286TIP3    H140349   3.663   6.714  11.770  1.8520 -1.6789  0.8597
 6286TIP3    H240350   3.649   6.630  11.646  0.5722  0.5748 -0.5910
 6287TIP3   OH240351   6.152   0.869   1.351  0.2823  0.3816 -0.6609
 6287TIP3    H140352   6.062   0.857   1.321 -0.1007 -0.4106  0.7455
 6287TIP3    H240353   6.200   0.794   1.315 -0.2218 -0.6857  0.8167
 6288TIP3   OH240354   0.903   3.935  13.594 -0.1909  0.2863 -0.3897
 6288TIP3    H140355   0.894   3.944  13.499 -0.7046 -0.5621 -0.4337
 6288TIP3    H240356   0.977   3.875  13.606 -0.0296  0.5114 -0.2474
 6289TIP3   OH240357   5.272   1.296   3.367 -0.6125  0.5929  0.4653
 6289TIP3    H140358   5.341   1.262   3.310  0.1672 -1.5942  2.5422
 6289TIP3    H240359   5.220   1.219   3.390 -1.2008  1.4782  2.2501
 6290TIP3   OH240360   3.866   3.452  13.403  0.1269 -0.2096  0.0229
 6290TIP3    H140361   3.894   3.378  13.349  2.3970  0.9764 -0.5391
 6290TIP3    H240362   3.831   3.515  13.341 -1.1651 -0.4782  0.4356
 6291TIP3   OH240363   2.824   5.171  13.101 -0.0214  0.1471 -0.1564
 6291TIP3    H140364   2.767   5.241  13.068  0.3538 -1.0167 -3.7303
 6291TIP3    H240365   2.896   5.216  13.144  0.4001  2.0686 -2.6718
 6292TIP3   OH240366   0.533   0.124   2.494  0.1377 -0.4459 -0.1430
 6292TIP3    H140367   0.593   0.087   2.430 -0.4738 -2.8930  0.6057
 6292TIP3    H240368   0.569   0.098   2.579 -1.3589 -0.9935  0.3496
 6293TIP3   OH240369   1.719   3.549   0.150  0.7043 -0.5524 -0.3596
 6293TIP3    H140370   1.717   3.511   0.062 -0.3261 -1.0832 -0.1150
 6293TIP3    H240371   1.629   3.576   0.167  1.3608  1.9757 -0.4816
 6294TIP3   OH240372   3.697   1.036  16.138  0.3707 -0.3518  0.1092
 6294TIP3    H140373   3.666   1.088  16.212  0.6070  0.7919 -0.5769
 6294TIP3    H240374   3.728   0.955  16.177  2.9472  1.2281  1.6270
 6295TIP3   OH240375   1.120   3.759  13.592  0.1016  0.0479 -0.3525
 6295TIP3    H140376   1.113   3.663  13.588 -0.5848  0.0467  0.4076
 6295TIP3    H240377   1.168   3.783  13.513  0.8824 -0.9821 -0.2215
 6296TIP3   OH240378   3.936   5.285   6.606  0.0075 -0.0351  0.3453
 6296TIP3    H140379   3.929   5.204   6.556  0.8116  0.8598 -1.2927
 6296TIP3    H240380   3.896   5.265   6.691 -0.0059 -2.0583 -0.1023
 6297TIP3   OH240381   1.522   4.917  11.278 -0.2997  0.0319  0.5805
 6297TIP3    H140382   1.468   4.878  11.347  2.4278 -1.4686  2.0170
 6297TIP3    H240383   1.594   4.856  11.266  1.0355  1.8343 -1.3537
 6298TIP3   OH240384   6.153   2.003   2.688 -0.0944 -0.6937 -0.4634
 6298TIP3    H140385   6.154   2.083   2.635 -1.6410 -0.8402 -0.7422
 6298TIP3    H240386   6.232   2.009   2.742 -0.5856  1.4101  0.0922
 6299TIP3   OH240387   5.220   2.931   2.907 -0.0248  0.2879  0.5397
 6299TIP3    H140388   5.231   2.840   2.878 -0.6994  0.0040  1.1416
 6299TIP3    H240389   5.284   2.980   2.856  0.0898 -0.4696 -0.0686
 6300TIP3   OH240390   2.802   3.239  12.872  1.0073  0.6380 -0.1293
 6300TIP3    H140391   2.761   3.323  12.894  1.5739  0.6996  0.7499
 6300TIP3    H240392   2.853   3.217  12.950  0.6848 -0.6359 -0.2637
 6301TIP3   OH240393   4.276   3.278   5.725  0.1081  0.2542  0.0431
 6301TIP3    H140394   4.285   3.248   5.815  0.3942 -0.2602 -0.1586
 6301TIP3    H240395   4.262   3.373   5.733 -1.6272 -0.0190  0.7221
 6302TIP3   OH240396   1.702   0.822   3.252 -0.0109 -0.7288 -0.0978
 6302TIP3    H140397   1.701   0.735   3.211 -0.1604 -1.0969  0.6599
 6302TIP3    H240398   1.690   0.804   3.345  0.0018  0.1094  0.0714
 6303TIP3   OH240399   1.588   1.368  14.077  0.2388 -0.3211  0.5602
 6303TIP3    H140400   1.641   1.444  14.051  0.0395 -0.2586  0.3296
 6303TIP3    H240401   1.500   1.389  14.045  0.1664 -0.6141  0.5658
 6304TIP3   OH240402   2.640   0.419  15.175  0.1297 -0.0892 -0.8197
 6304TIP3    H140403   2.616   0.390  15.087  0.9215  0.4460 -1.2261
 6304TIP3    H240404   2.584   0.495  15.191  2.0993  1.7653 -2.1597
 6305TIP3   OH240405   4.926   2.701  12.091  0.2263 -0.0413  0.1333
 6305TIP3    H140406   4.964   2.760  12.026  0.9007  0.6424  1.1208
 6305TIP3    H240407   4.955   2.736  12.175 -3.0839  0.8923  1.0420
 6306TIP3   OH240408   2.582   1.572  16.909  0.3317  0.0527 -0.0721
 6306TIP3    H140409   2.565   1.496  16.965  0.6799 -0.3550 -0.5136
 6306TIP3    H240410   2.542   1.549  16.825 -0.3258  0.7259  0.0458
 6307TIP3   OH240411   1.988   0.452   2.780 -0.0456 -0.5294 -0.0866
 6307TIP3    H140412   2.030   0.459   2.866 -1.7018 -1.6370  0.8600
 6307TIP3    H240413   2.033   0.380   2.737  0.4690 -0.2901  0.0432
 6308TIP3   OH240414   4.931   4.700   5.107 -0.6309 -0.2560 -0.3004
 6308TIP3    H140415   4.900   4.736   5.190 -0.0103 -0.3157 -0.0373
 6308TIP3    H240416   4.979   4.772   5.066  0.0924 -0.5757 -0.0475
 6309TIP3   OH240417   2.515   2.176  15.775 -0.2927 -0.4901  0.1198
 6309TIP3    H140418   2.442   2.184  15.836  0.7105 -0.7856  1.3947
 6309TIP3    H240419   2.593   2.181  15.830  0.6406 -1.3673 -1.0752
 6310TIP3   OH240420   3.105   2.795   6.265 -0.2386  0.4883 -0.2565
 6310TIP3    H140421   3.162   2.749   6.202  0.7753  0.2911  0.7689
 6310TIP3    H240422   3.166   2.845   6.319 -1.1835  1.5240 -0.1154
 6311TIP3   OH240423   5.392   2.270  16.942 -0.8884  0.2753 -0.1282
 6311TIP3    H140424   5.355   2.354  16.914 -2.2652 -0.6007 -1.0929
 6311TIP3    H240425   5.315   2.216  16.960 -0.0211 -0.6472  0.9468
 6312TIP3   OH240426   1.117   2.489   2.307 -0.9431 -0.0482  0.2441
 6312TIP3    H140427   1.111   2.394   2.313 -2.0627  0.0293  0.5629
 6312TIP3    H240428   1.104   2.509   2.215 -3.4429 -0.0704  0.5246
 6313TIP3   OH240429   2.158   3.650   4.597 -0.0158  0.4643  0.4496
 6313TIP3    H140430   2.109   3.644   4.515  1.7821  2.1593 -0.8492
 6313TIP3    H240431   2.109   3.595   4.659 -0.9514 -1.5867 -1.9505
 6314TIP3   OH240432   6.353   0.082   0.693 -0.4086 -0.1768  0.8078
 6314TIP3    H140433   6.356  -0.013   0.682  1.1857  0.0035 -1.0134
 6314TIP3    H240434   6.260   0.101   0.708 -0.9293 -1.9314  0.1746
 6315TIP3   OH240435   0.483   2.052  14.028 -0.7296  0.8693  0.2894
 6315TIP3    H140436   0.551   2.113  13.998 -1.3220  1.4871  0.1679
 6315TIP3    H240437   0.518   2.014  14.108 -0.0177  0.7844 -0.0578
 6316TIP3   OH240438   2.438   4.405   0.500 -0.2172 -0.4070  0.0632
 6316TIP3    H140439   2.476   4.371   0.419  2.0695  1.7251  0.1084
 6316TIP3    H240440   2.345   4.416   0.480 -0.2243 -2.4684 -1.3234
 6317TIP3   OH240441   5.166   4.291   4.957 -0.0308  0.4424  0.8564
 6317TIP3    H140442   5.129   4.375   4.984 -0.3032  0.0849  1.6365
 6317TIP3    H240443   5.126   4.273   4.872  0.9462  1.6671  0.1032
 6318TIP3   OH240444   3.762   4.172   2.163 -0.4579  0.2175 -0.0366
 6318TIP3    H140445   3.791   4.188   2.072 -1.9705 -1.9507 -0.9765
 6318TIP3    H240446   3.832   4.118   2.200  0.1512  1.0828  0.1154
 6319TIP3   OH240447   3.194   1.350  11.410 -0.3655  0.1135 -0.8584
 6319TIP3    H140448   3.220   1.268  11.367 -0.9927 -0.1197 -0.8065
 6319TIP3    H240449   3.121   1.325  11.467 -0.8435  0.7878 -1.1646
 6320TIP3   OH240450   1.943   5.401   4.249  0.1690 -0.4109 -0.5541
 6320TIP3    H140451   1.890   5.465   4.201 -0.6093 -1.0615 -0.5848
 6320TIP3    H240452   1.890   5.380   4.326 -0.0507 -1.7531 -1.0459
 6321TIP3   OH240453   5.800   1.871   2.315  0.7090  0.8135  0.4450
 6321TIP3    H140454   5.756   1.886   2.231  1.8218 -0.0077 -0.3171
 6321TIP3    H240455   5.740   1.815   2.363  0.8838 -0.2812 -0.5685
 6322TIP3   OH240456   3.308   0.242  10.577 -0.1896  0.3626 -0.0122
 6322TIP3    H140457   3.367   0.166  10.572  1.7354  1.7521  0.4528
 6322TIP3    H240458   3.263   0.243  10.492  0.0973 -0.9863 -0.2120
 6323TIP3   OH240459   1.098   6.659  11.529  0.1693  1.1399 -0.8934
 6323TIP3    H140460   1.014   6.620  11.504  0.3888  0.0448 -0.0090
 6323TIP3    H240461   1.145   6.669  11.446  0.0902 -0.5022 -1.1680
 6324TIP3   OH240462   3.716   4.468  16.725  0.0086 -0.0281 -0.0527
 6324TIP3    H140463   3.764   4.538  16.770 -0.6344  0.5203 -0.1990
 6324TIP3    H240464   3.783   4.403  16.703  0.4182 -0.0961  1.2764
 6325TIP3   OH240465   5.543   4.052  14.833  0.0442 -0.0480  0.0157
 6325TIP3    H140466   5.633   4.059  14.867  0.0034  0.8323 -0.0361
 6325TIP3    H240467   5.496   4.003  14.900  0.2371  0.6941  0.6996
 6326TIP3   OH240468   4.945   5.366  11.940  0.1126  0.0881 -0.1110
 6326TIP3    H140469   5.020   5.411  11.980  0.0396  0.6497 -0.5887
 6326TIP3    H240470   4.941   5.401  11.851 -0.2789 -0.4800 -0.3216
 6327TIP3   OH240471   2.307   2.230   1.437  0.3874  0.3508  0.3419
 6327TIP3    H140472   2.248   2.253   1.365 -1.9694 -0.4445  1.9188
 6327TIP3    H240473   2.393   2.223   1.395 -0.5883  1.4922 -2.0759
 6328TIP3   OH240474   3.556   6.738  10.886  0.4736  0.5719  0.6761
 6328TIP3    H140475   3.553   6.659  10.831 -2.1547 -0.4482  2.0949
 6328TIP3    H240476   3.578   6.809  10.825  1.0561 -0.9667 -1.0019
 6329TIP3   OH240477   2.663   6.733  11.291 -0.3541 -0.0124 -0.0637
 6329TIP3    H140478   2.727   6.733  11.362  0.3137  0.7024 -0.6334
 6329TIP3    H240479   2.716   6.717  11.212 -0.7034  1.6202 -0.6686
 6330TIP3   OH240480   4.415   2.763   1.500 -0.2188 -0.3188 -0.5108
 6330TIP3    H140481   4.458   2.748   1.584 -0.6602  0.4743 -0.1313
 6330TIP3    H240482   4.482   2.741   1.435 -0.5384 -3.0112 -0.0386
 6331TIP3   OH240483   5.739   1.258   2.240 -0.1073 -0.2809 -0.1856
 6331TIP3    H140484   5.771   1.290   2.156 -0.6674  0.6451 -0.0653
 6331TIP3    H240485   5.815   1.217   2.280  0.7583  1.1639 -0.2495
 6332TIP3   OH240486   1.551   2.874   0.948  0.1030 -0.9235 -0.3543
 6332TIP3    H140487   1.552   2.905   0.858  2.0264 -0.9687 -0.3918
 6332TIP3    H240488   1.566   2.952   1.001 -0.1838 -1.0245 -0.1216
 6333TIP3   OH240489   6.127   3.677  10.870  0.3271  0.1059  0.1184
 6333TIP3    H140490   6.037   3.677  10.902  0.3483  0.0784  0.1781
 6333TIP3    H240491   6.179   3.712  10.942  0.2808  0.7552 -0.1469
 6334TIP3   OH240492   5.278   3.315   5.079 -0.1470 -0.3911 -1.1646
 6334TIP3    H140493   5.359   3.354   5.112  1.7074 -2.7284 -2.6365
 6334TIP3    H240494   5.260   3.243   5.141 -0.4466 -0.5995 -1.4919
 6335TIP3   OH240495   0.714   1.882  13.903 -0.0152  0.1015 -0.1017
 6335TIP3    H140496   0.708   1.976  13.920  0.2976 -0.1117  1.3187
 6335TIP3    H240497   0.627   1.858  13.872 -1.3457  0.2271  3.1555
 6336TIP3   OH240498   2.447   1.161   1.024  0.1108 -0.1236  0.4137
 6336TIP3    H140499   2.352   1.157   1.029  0.0511 -0.4133 -0.7882
 6336TIP3    H240500   2.474   1.073   0.998  0.7156 -0.0636  0.8118
 6337TIP3   OH240501   5.840   5.064  13.252  0.4349 -0.1601  0.0439
 6337TIP3    H140502   5.833   5.016  13.334  1.6058 -0.4044  0.0305
 6337TIP3    H240503   5.907   5.016  13.202  1.0845  1.0446 -0.2799
 6338TIP3   OH240504   4.371   0.467  14.382  0.4872 -0.3938  0.0210
 6338TIP3    H140505   4.284   0.456  14.341 -0.6017 -0.1006  2.1191
 6338TIP3    H240506   4.420   0.390  14.355 -1.0893 -1.5518  0.3385
 6339TIP3   OH240507   0.010   6.508   5.137 -0.6002 -0.0499 -0.2754
 6339TIP3    H140508  -0.036   6.557   5.205 -1.4509  0.4638 -1.1900
 6339TIP3    H240509   0.025   6.422   5.175 -0.2939  0.4844  0.8603
 6340TIP3   OH240510   5.565   5.418  10.438 -0.5137 -0.4730  0.4809
 6340TIP3    H140511   5.511   5.478  10.386 -0.1448 -0.9876 -0.5168
 6340TIP3    H240512   5.654   5.432  10.407 -0.6262 -2.8364 -1.1380
 6341TIP3   OH240513   1.824   0.476   3.799  0.0035 -0.1183  0.8410
 6341TIP3    H140514   1.779   0.514   3.875  0.2459 -0.3977  1.1304
 6341TIP3    H240515   1.884   0.412   3.837  1.7804  1.3185  0.6059
 6342TIP3   OH240516   4.334   4.083  16.241  0.1318  0.1029 -0.2817
 6342TIP3    H140517   4.408   4.024  16.253  1.4876  1.8145  0.0747
 6342TIP3    H240518   4.346   4.120  16.154 -1.5271 -1.1765 -1.1174
 6343TIP3   OH240519   1.393   3.633  12.535 -0.8204 -0.1499  0.3666
 6343TIP3    H140520   1.307   3.671  12.519 -1.1145  0.0463  2.1297
 6343TIP3    H240521   1.379   3.577  12.612  0.2616 -1.4790 -0.3642
 6344TIP3   OH240522   6.015   5.482   3.073 -0.0270 -0.1116 -0.3369
 6344TIP3    H140523   5.985   5.394   3.049  0.4255 -0.6443  0.9418
 6344TIP3    H240524   6.033   5.476   3.167  0.1377  1.3211 -0.2577
 6345TIP3   OH240525   2.973   3.766  13.241  0.2692  0.5011 -0.2727
 6345TIP3    H140526   2.930   3.696  13.192  1.4353  0.6428 -1.5416
 6345TIP3    H240527   2.945   3.752  13.332 -2.5773  0.7040 -1.0219
 6346TIP3   OH240528   2.222   3.878  14.142 -0.1388 -0.9071  0.2069
 6346TIP3    H140529   2.295   3.899  14.085  0.4719 -0.6079  1.0716
 6346TIP3    H240530   2.150   3.853  14.083  0.4484 -0.5405 -0.6667
 6347TIP3   OH240531   6.396   3.476  11.626 -0.7483 -0.0856  0.5631
 6347TIP3    H140532   6.408   3.567  11.652 -2.3202  0.0040  1.0746
 6347TIP3    H240533   6.449   3.426  11.687  0.6474  0.4968 -0.1253
 6348TIP3   OH240534   4.491   6.714  11.166 -0.0260  0.3749  0.9532
 6348TIP3    H140535   4.435   6.782  11.129 -2.6721 -0.1300  3.6005
 6348TIP3    H240536   4.470   6.714  11.259  2.7813 -1.4782  1.7078
 6349TIP3   OH240537   5.734   2.995   1.210 -0.1739  0.0803 -0.1616
 6349TIP3    H140538   5.692   2.919   1.168  1.1519 -1.1895  0.7305
 6349TIP3    H240539   5.784   2.958   1.282 -0.3444  1.9501  0.9758
 6350TIP3   OH240540   1.796   3.561   2.351  0.3307  0.4322 -0.3642
 6350TIP3    H140541   1.733   3.490   2.362  2.4807 -1.9075 -2.1623
 6350TIP3    H240542   1.752   3.624   2.293 -1.6920  0.8076  1.4582
 6351TIP3   OH240543   5.998   4.208  13.707 -0.7443  0.0512  0.1930
 6351TIP3    H140544   5.908   4.179  13.692 -0.6343 -0.8138  1.1094
 6351TIP3    H240545   6.043   4.131  13.741 -0.0497  0.8884  1.2470
 6352TIP3   OH240546   0.240   4.114   5.955 -0.1401  0.8252 -0.5423
 6352TIP3    H140547   0.252   4.019   5.950  0.3128  0.9130 -1.3011
 6352TIP3    H240548   0.328   4.149   5.955 -0.2918  1.2292  0.4576
 6353TIP3   OH240549   2.815   5.463   3.425 -0.0688  0.2171  0.0050
 6353TIP3    H140550   2.792   5.449   3.517 -1.4239 -0.4737 -0.3992
 6353TIP3    H240551   2.783   5.551   3.405  3.1259  1.7384  0.9885
 6354TIP3   OH240552   1.583   1.717   0.132 -0.0015  0.5453 -0.0240
 6354TIP3    H140553   1.585   1.627   0.166 -0.0993  0.6211  0.1824
 6354TIP3    H240554   1.508   1.718   0.072 -1.5933  1.1534  1.8590
 6355TIP3   OH240555   0.680   1.994   3.956 -0.5099  0.3092  0.1254
 6355TIP3    H140556   0.765   1.983   3.998 -0.0910  0.2036 -0.7305
 6355TIP3    H240557   0.617   1.958   4.019  0.2912 -1.7889 -0.2077
 6356TIP3   OH240558   4.389   6.398  11.820 -0.2567 -0.0883  0.2765
 6356TIP3    H140559   4.455   6.377  11.753 -2.5990  0.9247 -2.5852
 6356TIP3    H240560   4.435   6.452  11.883  2.1488 -1.2328 -0.3615
 6357TIP3   OH240561   5.991   0.811  11.466 -0.6104 -0.0997  0.6178
 6357TIP3    H140562   5.909   0.777  11.432 -0.9651 -0.4796  1.7996
 6357TIP3    H240563   6.051   0.810  11.392 -2.0691  1.6177 -0.6828
 6358TIP3   OH240564   3.223   6.533   0.497  0.1424  0.2071 -1.0989
 6358TIP3    H140565   3.182   6.467   0.441  0.1948  0.3328 -1.2888
 6358TIP3    H240566   3.203   6.505   0.586 -2.1745  1.3941 -1.1786
 6359TIP3   OH240567   2.926   0.946  15.250 -0.7619 -0.0519 -0.1486
 6359TIP3    H140568   3.017   0.963  15.272  0.0578  0.2924 -3.3783
 6359TIP3    H240569   2.884   1.032  15.251 -0.2380  0.2391 -1.8301
 6360TIP3   OH240570   4.869   4.226  11.696 -0.1429 -0.1201 -0.0684
 6360TIP3    H140571   4.938   4.263  11.641 -0.8610 -0.6455 -1.3930
 6360TIP3    H240572   4.907   4.146  11.732 -0.6580 -1.6527 -2.5907
 6361TIP3   OH240573   4.057   4.554  15.859  0.0714 -0.2458 -0.2222
 6361TIP3    H140574   4.109   4.630  15.832 -0.9346 -0.2152 -2.2684
 6361TIP3    H240575   4.025   4.516  15.777 -2.4032 -0.7829  0.8880
 6362TIP3   OH240576   0.156   2.693   1.298 -0.6782 -0.1097  0.5681
 6362TIP3    H140577   0.174   2.787   1.301 -3.1030  0.4346 -0.1040
 6362TIP3    H240578   0.062   2.686   1.313 -0.8467 -2.3022 -1.0408
 6363TIP3   OH240579   6.069   1.917   5.142  0.5040 -0.3769  0.6950
 6363TIP3    H140580   6.002   1.849   5.139  0.0093 -0.0434  2.7348
 6363TIP3    H240581   6.032   1.984   5.200  1.3102  1.2739 -0.6267
 6364TIP3   OH240582   3.074   4.109  16.069 -0.2686 -0.6242  0.2432
 6364TIP3    H140583   3.111   4.188  16.110 -0.8292 -1.1393  1.7977
 6364TIP3    H240584   2.989   4.137  16.036  1.0362  0.3603 -2.6471
 6365TIP3   OH240585   4.002   2.480  12.497 -0.0465  0.3355  0.0451
 6365TIP3    H140586   4.007   2.385  12.510 -0.5685  0.2729 -0.1828
 6365TIP3    H240587   4.021   2.517  12.583 -1.3023 -0.0153  0.4866
 6366TIP3   OH240588   6.739   0.913  12.483  0.1471  0.6519  0.0357
 6366TIP3    H140589   6.740   0.899  12.577 -0.7880  0.4780  0.0272
 6366TIP3    H240590   6.822   0.877  12.452  1.9202  3.4432  1.1572
 6367TIP3   OH240591   2.590   6.793   1.722  0.3018 -0.5201 -0.6013
 6367TIP3    H140592   2.618   6.775   1.811 -2.3674 -2.6952 -0.0695
 6367TIP3    H240593   2.645   6.737   1.667  0.7745 -0.4890 -0.1672
 6368TIP3   OH240594   3.823   5.253   5.269  0.6449  0.5357 -0.0313
 6368TIP3    H140595   3.900   5.254   5.326  1.3634 -0.1527 -0.9434
 6368TIP3    H240596   3.856   5.216   5.186 -0.8539 -0.5768 -0.1608
 6369TIP3   OH240597   4.226   6.545   3.301  0.2170  0.1425 -0.7474
 6369TIP3    H140598   4.218   6.555   3.396 -0.5738 -0.3750 -0.7508
 6369TIP3    H240599   4.305   6.595   3.279  0.5718  0.0492  0.2141
 6370TIP3   OH240600   1.011   6.255  12.273 -0.0404 -0.8992  0.8555
 6370TIP3    H140601   0.917   6.257  12.252 -0.0831 -0.0233  1.0947
 6370TIP3    H240602   1.017   6.294  12.360  0.8233  1.9718 -0.3639
 6371TIP3   OH240603   6.066   0.161  11.298 -0.2632 -0.6321  0.5965
 6371TIP3    H140604   6.146   0.130  11.255  0.2232  0.5627  0.6218
 6371TIP3    H240605   6.000   0.162  11.228  0.5809  1.5131 -0.2521
 6372TIP3   OH240606   1.791   2.254   2.514 -0.6038  0.4668 -0.2170
 6372TIP3    H140607   1.726   2.243   2.583 -2.1972  1.9476 -1.4002
 6372TIP3    H240608   1.810   2.348   2.513  0.1216  0.3297 -1.1718
 6373TIP3   OH240609   3.072   3.335  16.388  0.4400 -0.1124  0.5405
 6373TIP3    H140610   3.042   3.313  16.476  0.0593  1.1073  0.7256
 6373TIP3    H240611   3.165   3.357  16.399  0.1522  1.0161  0.8215
 6374TIP3   OH240612   0.031   4.037   3.056  0.1713 -0.0483  0.1199
 6374TIP3    H140613   0.007   4.093   3.130  2.1611  0.0415  0.7603
 6374TIP3    H240614  -0.035   4.056   2.989 -0.4085  1.5119  1.0717
 6375TIP3   OH240615   6.126   6.430   1.608 -0.6241 -0.6670  0.1873
 6375TIP3    H140616   6.221   6.436   1.616 -0.6913 -0.9890  1.4266
 6375TIP3    H240617   6.094   6.429   1.698 -1.9116  1.0396 -0.1926
 6376TIP3   OH240618   1.912   3.839   6.124  0.8871 -0.1339  0.1020
 6376TIP3    H140619   1.959   3.867   6.045 -1.2151  0.4375 -1.0497
 6376TIP3    H240620   1.886   3.748   6.106  1.6703 -0.5076  0.8014
 6377TIP3   OH240621   0.684   0.888   5.767 -0.2744 -0.0940 -0.0071
 6377TIP3    H140622   0.689   0.883   5.671 -1.9674 -2.6542 -0.0731
 6377TIP3    H240623   0.617   0.954   5.784 -0.4613 -0.1128 -0.6248
 6378TIP3   OH240624   5.306   1.862  14.201  0.8662  0.4203 -0.1771
 6378TIP3    H140625   5.322   1.777  14.160 -1.2457 -0.0141 -0.2138
 6378TIP3    H240626   5.381   1.874  14.259  0.8970 -1.7968  0.3560
 6379TIP3   OH240627   1.402   2.551  16.325  0.4162  0.6082  0.0211
 6379TIP3    H140628   1.492   2.571  16.350  1.0727 -3.4056  1.7533
 6379TIP3    H240629   1.348   2.599  16.388  1.5648  0.1457  1.4078
 6380TIP3   OH240630   2.645   5.928   1.751 -0.2433  0.1793  0.5997
 6380TIP3    H140631   2.657   5.875   1.830 -0.0530 -1.8210 -0.6931
 6380TIP3    H240632   2.725   5.914   1.700 -1.0517  0.0608 -0.6955
 6381TIP3   OH240633   4.667   3.261   2.207  0.0686  0.4717 -0.4751
 6381TIP3    H140634   4.738   3.323   2.197  0.1494 -0.0037 -4.2653
 6381TIP3    H240635   4.587   3.314   2.208  0.2786  0.7922  0.3761
 6382TIP3   OH240636   5.220   5.051  11.277  0.0184  0.0491 -0.0402
 6382TIP3    H140637   5.181   5.075  11.361  1.2417 -2.6396  1.4534
 6382TIP3    H240638   5.216   4.955  11.276  0.9452 -0.0368 -2.6367
 6383TIP3   OH240639   0.441   5.180  15.181 -0.5028 -0.2492 -0.1771
 6383TIP3    H140640   0.500   5.245  15.217 -1.5999  0.2202  0.8613
 6383TIP3    H240641   0.412   5.217  15.097 -0.3000  0.1073 -0.0910
 6384TIP3   OH240642   0.734   0.711  16.826 -0.5528 -0.0149  0.3040
 6384TIP3    H140643   0.826   0.733  16.837 -0.6728 -0.3623  2.4115
 6384TIP3    H240644   0.731   0.653  16.750  0.8875  0.2806  0.0008
 6385TIP3   OH240645   3.525   0.173  15.519 -0.2597 -0.6639  0.1486
 6385TIP3    H140646   3.529   0.170  15.424  0.1324 -2.5612  0.1727
 6385TIP3    H240647   3.438   0.208  15.539 -0.3762 -0.3314 -0.9029
 6386TIP3   OH240648   4.040   2.796  15.008 -0.7266 -0.1588 -0.1492
 6386TIP3    H140649   4.106   2.753  14.954 -1.4890 -0.0446 -1.2197
 6386TIP3    H240650   4.056   2.763  15.097  1.3195  0.5612 -0.1995
 6387TIP3   OH240651   0.834   0.945  14.420 -0.2796 -0.4794 -0.1058
 6387TIP3    H140652   0.876   0.900  14.346 -0.0849  0.3883 -0.5322
 6387TIP3    H240653   0.745   0.962  14.390  0.6933  2.8530 -1.5199
 6388TIP3   OH240654   2.814   2.830   5.458  0.4211  0.1846  0.9990
 6388TIP3    H140655   2.880   2.772   5.421 -1.1061 -1.4717  0.7260
 6388TIP3    H240656   2.760   2.773   5.513 -1.0530  1.3590  0.8343
 6389TIP3   OH240657   5.300   1.398  16.056 -0.9272 -0.7515 -0.2855
 6389TIP3    H140658   5.262   1.400  16.144  1.1083 -0.9135  0.6556
 6389TIP3    H240659   5.255   1.326  16.012 -0.9720 -1.6236  1.1267
 6390TIP3   OH240660   4.687   0.114   0.033 -0.2850 -0.4718  0.0015
 6390TIP3    H140661   4.716   0.205   0.041 -1.6006 -0.1088  0.7796
 6390TIP3    H240662   4.769   0.063   0.032  0.5794  0.8126 -2.4701
 6391TIP3   OH240663   5.345   0.520  16.448  0.3151  0.5086  0.8507
 6391TIP3    H140664   5.275   0.567  16.493  0.0260 -0.3440  1.3036
 6391TIP3    H240665   5.339   0.551  16.357 -0.7474  0.3441  0.8493
 6392TIP3   OH240666   4.171   2.125   5.150 -0.2584 -0.0210  0.2905
 6392TIP3    H140667   4.113   2.061   5.192  0.8361 -0.0359  1.8969
 6392TIP3    H240668   4.253   2.078   5.135  0.1601  0.6646  0.3682
 6393TIP3   OH240669   6.602   5.771  12.699 -0.5144 -0.2091  0.1264
 6393TIP3    H140670   6.629   5.861  12.718  1.5028 -0.5853 -0.7036
 6393TIP3    H240671   6.670   5.737  12.641 -0.5090 -2.6802  1.4388
 6394TIP3   OH240672   0.117   6.032  12.669  0.5383 -0.0548  0.3586
 6394TIP3    H140673   0.198   6.074  12.639 -0.7135  1.0941 -1.6379
 6394TIP3    H240674   0.114   5.950  12.620  0.1439  0.2546 -0.1437
 6395TIP3   OH240675   4.265   4.800  16.523  0.5805 -0.5877 -0.4929
 6395TIP3    H140676   4.244   4.870  16.461 -1.6319  2.0190  2.8677
 6395TIP3    H240677   4.203   4.730  16.503  1.0075 -0.5412 -2.1614
 6396TIP3   OH240678   6.698   6.179  11.563  0.0658  0.2612 -0.0020
 6396TIP3    H140679   6.633   6.250  11.563  0.2400  0.4212 -0.4002
 6396TIP3    H240680   6.655   6.107  11.517 -0.7461 -0.4865  1.8258
 6397TIP3   OH240681   5.510   3.156   0.531 -0.0599 -0.1116  0.0150
 6397TIP3    H140682   5.570   3.174   0.459 -1.7448  3.3866 -0.7576
 6397TIP3    H240683   5.426   3.138   0.488 -0.7426  0.4861  1.0666
 6398TIP3   OH240684   0.556   0.193   6.149 -0.2956  0.1412  0.6336
 6398TIP3    H140685   0.619   0.204   6.078 -0.9913 -0.8707 -0.1602
 6398TIP3    H240686   0.562   0.101   6.174 -0.2281  0.4222  1.7512
 6399TIP3   OH240687   5.870   0.445   5.096 -0.2880  0.0052  0.2082
 6399TIP3    H140688   5.782   0.416   5.122 -1.1804  1.0613 -1.4690
 6399TIP3    H240689   5.866   0.540   5.102  0.5477  0.0892 -0.4274
 6400TIP3   OH240690   2.878   2.161  13.874  0.1713  0.2859 -0.4318
 6400TIP3    H140691   2.881   2.087  13.935  2.1992  1.7248  1.3616
 6400TIP3    H240692   2.788   2.195  13.882 -0.1660 -0.7294  0.2810
 6401TIP3   OH240693   0.602   0.160  15.354 -0.4417  0.3868  0.1283
 6401TIP3    H140694   0.647   0.144  15.436  1.3781  1.4816 -0.5830
 6401TIP3    H240695   0.666   0.138  15.286 -0.6416  2.6699 -0.9264
 6402TIP3   OH240696   4.278   6.459   2.996 -0.5391  0.1300 -0.0356
 6402TIP3    H140697   4.282   6.449   3.092 -0.0163 -0.3050 -0.0986
 6402TIP3    H240698   4.331   6.387   2.962  1.1236  1.5277 -0.5857
 6403TIP3   OH240699   2.868   0.573  16.548  0.5164 -0.1668 -0.4133
 6403TIP3    H140700   2.923   0.546  16.622 -0.2383 -0.9923 -0.1359
 6403TIP3    H240701   2.779   0.556  16.577  0.2032 -0.4897 -1.5063
 6404TIP3   OH240702   1.395   1.121   0.162 -0.0099  0.1607 -0.3506
 6404TIP3    H140703   1.325   1.070   0.204 -0.2132  1.1909  0.6370
 6404TIP3    H240704   1.381   1.210   0.195  1.7631  0.3864 -0.1431
 6405TIP3   OH240705   3.778   0.528   3.274  0.1582 -0.1504  0.2307
 6405TIP3    H140706   3.725   0.457   3.309 -0.8414  0.2859 -0.3393
 6405TIP3    H240707   3.720   0.573   3.212  0.1203  2.2615  1.8774
 6406TIP3   OH240708   6.571   4.191   0.572  0.1851 -0.3277  0.2304
 6406TIP3    H140709   6.485   4.179   0.532 -0.0777  0.2094  0.6334
 6406TIP3    H240710   6.602   4.102   0.589 -0.6601 -0.5168  0.8609
 6407TIP3   OH240711   0.492   2.121   0.132 -0.9704 -0.0147 -0.3886
 6407TIP3    H140712   0.539   2.081   0.206 -0.1593 -0.7051 -1.2374
 6407TIP3    H240713   0.561   2.140   0.068 -1.6649  0.4948 -1.0023
 6408TIP3   OH240714   3.894   2.748  13.703  0.6356 -0.2192 -0.1401
 6408TIP3    H140715   3.847   2.743  13.620  0.4013  0.7737 -0.0815
 6408TIP3    H240716   3.949   2.826  13.696  0.5541 -0.0760  0.6582
 6409TIP3   OH240717   6.455   6.531   0.573 -0.3711 -0.4725  0.4118
 6409TIP3    H140718   6.538   6.534   0.622 -0.2767 -2.0639  0.3898
 6409TIP3    H240719   6.396   6.588   0.623  1.1155  1.9243 -0.3928
 6410TIP3   OH240720   1.692   0.809   2.584  0.4378 -0.1238 -0.1718
 6410TIP3    H140721   1.705   0.737   2.522  2.3687  0.8575 -0.9875
 6410TIP3    H240722   1.727   0.777   2.667  1.6491 -0.0373 -0.6242
 6411TIP3   OH240723   4.165   0.726   1.190  0.3743  0.5478 -0.1327
 6411TIP3    H140724   4.242   0.722   1.133  0.6323  0.8679  0.1830
 6411TIP3    H240725   4.200   0.711   1.278  0.0236  0.3484 -0.0243
 6412TIP3   OH240726   3.472   5.199  14.086  0.4352 -0.1205 -0.2825
 6412TIP3    H140727   3.485   5.234  13.998 -1.6640 -0.0026 -0.5940
 6412TIP3    H240728   3.448   5.275  14.139  1.2448 -0.2620  0.2973
 6413TIP3   OH240729   0.551   0.875  11.562  0.2508 -0.1289 -0.2768
 6413TIP3    H140730   0.487   0.942  11.587 -0.1232  0.1556 -1.8648
 6413TIP3    H240731   0.635   0.921  11.566  0.0375  0.3461 -0.9802
 6414TIP3   OH240732   0.914   3.243  16.492 -0.3112  0.2472  1.0356
 6414TIP3    H140733   0.827   3.282  16.493 -0.3492  0.4089 -1.8544
 6414TIP3    H240734   0.971   3.312  16.457 -0.1864 -1.7316 -3.1760
 6415TIP3   OH240735   5.486   3.337   4.365 -0.8180 -0.3191 -0.1614
 6415TIP3    H140736   5.442   3.329   4.449  2.5464 -0.3413  1.7688
 6415TIP3    H240737   5.469   3.427   4.337 -0.3328  0.3505  1.5925
 6416TIP3   OH240738   3.341   0.130  13.876  0.5792  0.7075  0.2871
 6416TIP3    H140739   3.421   0.165  13.916  0.6491  1.0037 -0.1044
 6416TIP3    H240740   3.293   0.207  13.848 -0.6518  0.6307  2.0073
 6417TIP3   OH240741   3.533   1.866  12.920 -0.1249  0.1875 -0.1990
 6417TIP3    H140742   3.467   1.889  12.985  0.1688 -0.3015  0.2858
 6417TIP3    H240743   3.611   1.844  12.972 -0.7203 -3.1447 -0.4615
 6418TIP3   OH240744   3.023   0.027  16.109  0.2235  0.1343 -0.1781
 6418TIP3    H140745   2.937  -0.015  16.105 -0.2041  0.7386  1.7541
 6418TIP3    H240746   3.074  -0.018  16.041 -1.1805 -1.2085 -0.4154
 6419TIP3   OH240747   1.506   3.150   1.033  0.1063  0.4165 -0.1180
 6419TIP3    H140748   1.507   3.158   0.937 -0.0460  0.0855 -0.1468
 6419TIP3    H240749   1.553   3.228   1.063 -1.4399  1.5032 -0.3910
 6420TIP3   OH240750   3.833   1.411  14.590 -0.1404  0.3738  0.1501
 6420TIP3    H140751   3.894   1.470  14.545  2.0112 -2.4984 -1.0509
 6420TIP3    H240752   3.864   1.407  14.680 -0.9772  1.8301  0.5281
 6421TIP3   OH240753   0.411   0.097   5.560  0.1343 -0.2004  0.4015
 6421TIP3    H140754   0.440   0.176   5.515 -0.1074 -0.0008  0.5916
 6421TIP3    H240755   0.403   0.031   5.491 -1.8277  0.5386 -0.1343
 6422TIP3   OH240756   5.506   5.550   5.709  0.0912  0.0643  0.2162
 6422TIP3    H140757   5.528   5.623   5.766 -0.8848  1.5000 -1.1347
 6422TIP3    H240758   5.436   5.503   5.754  0.3624  0.2863  0.8657
 6423TIP3   OH240759   1.200   5.460  15.917  0.1812 -0.0251  0.2890
 6423TIP3    H140760   1.124   5.517  15.907  0.9971  1.0659 -0.0076
 6423TIP3    H240761   1.256   5.481  15.842  0.5135 -1.2413  0.1681
 6424TIP3   OH240762   0.513   3.033   5.443  0.2176 -0.3678  0.2723
 6424TIP3    H140763   0.582   3.059   5.504 -0.4931  1.7205  0.2767
 6424TIP3    H240764   0.433   3.037   5.495 -0.3272  0.8541 -0.6120
 6425TIP3   OH240765   3.464   3.167   6.401  0.0614 -0.1243 -0.2678
 6425TIP3    H140766   3.480   3.164   6.495 -0.8494  1.4017 -0.0175
 6425TIP3    H240767   3.410   3.245   6.389  0.3538 -0.1589 -2.0895
 6426TIP3   OH240768   4.234   0.467   0.378 -0.1200  0.2420 -0.4423
 6426TIP3    H140769   4.233   0.390   0.434  1.7188  1.4562  1.4266
 6426TIP3    H240770   4.282   0.439   0.300  0.1418 -0.6369  0.0156
 6427TIP3   OH240771   5.115   5.785  10.621 -0.0285  0.4599  0.4126
 6427TIP3    H140772   5.125   5.694  10.596 -1.0822  0.8614 -1.6547
 6427TIP3    H240773   5.037   5.786  10.677  0.5837 -0.0113  1.3056
 6428TIP3   OH240774   1.098   0.959  12.762 -0.2695 -0.0360 -0.4194
 6428TIP3    H140775   1.160   0.908  12.814  0.0947  1.8763  1.1513
 6428TIP3    H240776   1.014   0.945  12.805  0.0130  1.4555  0.7046
 6429TIP3   OH240777   4.986   6.453  16.805  0.1504  0.4834 -0.1677
 6429TIP3    H140778   5.043   6.522  16.838  0.9314 -0.9307  1.6298
 6429TIP3    H240779   4.939   6.422  16.882 -1.5892  0.2386 -1.2625
 6430TIP3   OH240780   3.413   5.263   4.085  0.2314 -0.2905 -0.0696
 6430TIP3    H140781   3.445   5.348   4.056  0.3480  1.0359  3.5107
 6430TIP3    H240782   3.490   5.218   4.119 -0.0321 -1.4104 -0.8727
 6431TIP3   OH240783   4.233   5.681  15.917  0.6194  0.9438 -0.2150
 6431TIP3    H140784   4.321   5.710  15.894  1.0793 -0.2506 -0.0505
 6431TIP3    H240785   4.217   5.720  16.003  1.1872  0.7841 -0.0303
 6432TIP3   OH240786   1.300   3.258   4.085  0.0890 -0.1361 -0.0803
 6432TIP3    H140787   1.220   3.270   4.136  0.0307 -2.1836  0.4244
 6432TIP3    H240788   1.367   3.240   4.151  0.5116 -0.5306 -0.6124
 6433TIP3   OH240789   5.284   2.686   0.757  0.0079  0.3259  1.0310
 6433TIP3    H140790   5.197   2.721   0.774 -0.8996 -1.0552 -0.4817
 6433TIP3    H240791   5.294   2.615   0.821 -0.4575 -0.2354  0.4938
 6434TIP3   OH240792   1.353   2.537   5.247  0.4090 -0.1485 -0.3130
 6434TIP3    H140793   1.380   2.624   5.219  1.2782  0.0484  1.0662
 6434TIP3    H240794   1.429   2.502   5.294  0.1030 -1.6802 -0.8940
 6435TIP3   OH240795   5.890   2.109   5.578 -0.9499 -0.2839  0.9965
 6435TIP3    H140796   5.811   2.091   5.628 -0.3218  1.2701  2.6662
 6435TIP3    H240797   5.932   2.181   5.625  1.8665 -1.5497  0.6411
 6436TIP3   OH240798   1.378   1.737   0.409 -0.3753 -0.4755 -0.4112
 6436TIP3    H140799   1.391   1.670   0.342  0.8279  1.0758 -1.8142
 6436TIP3    H240800   1.466   1.754   0.444 -0.8239 -0.4251  0.7385
 6437TIP3   OH240801   2.628   6.383  14.812  0.6260  0.1003 -0.2058
 6437TIP3    H140802   2.613   6.351  14.901  0.3962  1.4606  0.2785
 6437TIP3    H240803   2.668   6.310  14.766 -0.1674 -0.9607  0.7369
 6438TIP3   OH240804   3.390   5.425  11.528 -0.5573 -0.4085 -0.4407
 6438TIP3    H140805   3.405   5.330  11.523 -2.8136 -0.9181  1.0704
 6438TIP3    H240806   3.349   5.446  11.444  0.2373 -0.7086 -0.9104
 6439TIP3   OH240807   3.622   6.426   2.823  0.3751  0.3713  0.0036
 6439TIP3    H140808   3.618   6.495   2.890  0.0431  0.8253 -0.4759
 6439TIP3    H240809   3.538   6.431   2.778  0.1152 -0.7467  0.3424
 6440TIP3   OH240810   2.903   6.693   1.279 -0.2701 -0.1775 -0.2402
 6440TIP3    H140811   2.995   6.681   1.255 -0.4197  0.4434 -1.1718
 6440TIP3    H240812   2.854   6.658   1.204 -0.7458  3.9829 -2.1618
 6441TIP3   OH240813   1.000   6.333   3.058 -0.1569 -0.0752  0.1893
 6441TIP3    H140814   0.994   6.411   3.112  0.1684 -1.3557  2.2131
 6441TIP3    H240815   1.016   6.365   2.969  0.6357  2.1013  1.0613
 6442TIP3   OH240816   4.876   3.248  16.626  0.0450 -0.3568 -0.5768
 6442TIP3    H140817   4.960   3.234  16.670 -0.5024  1.0461  1.0070
 6442TIP3    H240818   4.814   3.197  16.678 -0.6072  1.3056  0.3531
 6443TIP3   OH240819   0.614   3.258   1.950 -0.9858  0.2159 -0.1844
 6443TIP3    H140820   0.631   3.331   2.009 -0.1556  0.6791 -0.9712
 6443TIP3    H240821   0.670   3.188   1.981 -2.1892 -0.3042  0.9108
 6444TIP3   OH240822   3.846   6.305   1.350  0.3175  0.2111 -0.0461
 6444TIP3    H140823   3.904   6.236   1.380  1.8806  0.6676 -1.8324
 6444TIP3    H240824   3.885   6.386   1.381  0.9981  0.5592 -1.6895
 6445TIP3   OH240825   5.679   3.694  16.535 -0.8624  0.5911  0.4419
 6445TIP3    H140826   5.749   3.657  16.589 -2.1519  0.5897  2.1814
 6445TIP3    H240827   5.726   3.737  16.463  0.8105 -1.8466 -0.0832
 6446TIP3   OH240828   3.356   4.112   5.677 -0.0574 -0.2133  0.2986
 6446TIP3    H140829   3.396   4.180   5.732 -2.2319  0.0343  1.6831
 6446TIP3    H240830   3.262   4.130   5.681 -0.5828 -2.4439 -0.5081
 6447TIP3   OH240831   5.112   0.330   5.111  0.3852 -0.2465  0.0789
 6447TIP3    H140832   5.055   0.337   5.034  0.1097  0.5966  0.3502
 6447TIP3    H240833   5.102   0.239   5.140  1.0004 -0.7638 -1.2689
 6448TIP3   OH240834   4.948   1.413  16.803 -0.2224  0.7337 -0.2205
 6448TIP3    H140835   4.889   1.338  16.798 -2.1149  2.0434  1.0723
 6448TIP3    H240836   4.953   1.447  16.714 -3.4010  1.9604 -0.0390
 6449TIP3   OH240837   1.185   1.564   5.655  0.4281 -0.3876 -0.5212
 6449TIP3    H140838   1.119   1.497   5.638 -0.2458  0.0774  0.2201
 6449TIP3    H240839   1.241   1.526   5.722 -0.8513  0.3421  1.0248
 6450TIP3   OH240840   0.632   5.899   0.468  0.1011 -0.1421  0.3623
 6450TIP3    H140841   0.596   5.856   0.391  0.7846 -1.0526  0.5299
 6450TIP3    H240842   0.664   5.984   0.436 -0.3653 -0.1650 -0.1758
 6451TIP3   OH240843   0.570   5.776   5.582 -1.4025 -0.2332 -0.0342
 6451TIP3    H140844   0.593   5.683   5.580 -2.6822 -0.5765  0.0873
 6451TIP3    H240845   0.654   5.822   5.579 -0.7381 -1.3928  0.2263
 6452TIP3   OH240846   0.920   2.318  13.628  0.3681  0.5442  0.0204
 6452TIP3    H140847   0.964   2.385  13.577 -1.7004  2.8083  1.0363
 6452TIP3    H240848   0.921   2.352  13.718 -0.4697 -0.9494  0.6276
 6453TIP3   OH240849   6.372   4.172  10.868 -0.4060 -0.1950  0.3689
 6453TIP3    H140850   6.380   4.079  10.847  1.0622 -0.0542  0.2386
 6453TIP3    H240851   6.300   4.203  10.813  0.7704 -0.7069 -1.5514
 6454TIP3   OH240852   1.856   4.274   4.555 -0.5494  0.0613  1.0096
 6454TIP3    H140853   1.810   4.234   4.482  0.3128 -0.9190  0.9877
 6454TIP3    H240854   1.823   4.364   4.558 -0.1263  0.3114 -0.9755
 6455TIP3   OH240855   3.095   1.803   5.348  0.6584  0.3384  0.0990
 6455TIP3    H140856   3.158   1.787   5.419 -0.5998  0.7193  1.3483
 6455TIP3    H240857   3.018   1.751   5.372 -0.0185  0.9558 -0.6668
 6456TIP3   OH240858   5.346   5.239   2.239  0.1017  0.2566 -0.0727
 6456TIP3    H140859   5.270   5.270   2.190  0.2289 -1.1544 -1.2164
 6456TIP3    H240860   5.336   5.278   2.326 -3.1656 -1.6269  0.5445
 6457TIP3   OH240861   4.779   3.196  11.316 -0.8875 -0.6219 -0.1721
 6457TIP3    H140862   4.714   3.258  11.283 -0.0586  0.8342  0.8471
 6457TIP3    H240863   4.786   3.130  11.247 -0.8393  1.1050 -1.9064
 6458TIP3   OH240864   0.040   1.271   1.730 -0.1186  0.2708 -0.4837
 6458TIP3    H140865  -0.038   1.326   1.726 -0.2414  0.0817 -0.6738
 6458TIP3    H240866   0.103   1.322   1.782 -0.9099 -0.2622  1.0747
 6459TIP3   OH240867   1.339   0.491  11.585  0.0996  0.1878 -0.2924
 6459TIP3    H140868   1.350   0.397  11.575 -1.2612 -0.0907  0.5656
 6459TIP3    H240869   1.374   0.511  11.671  0.7476  0.5431 -0.6309
 6460TIP3   OH240870   1.559   2.600   0.498  0.2896  0.0013  0.0776
 6460TIP3    H140871   1.557   2.676   0.440 -0.7172 -0.6348 -0.7580
 6460TIP3    H240872   1.627   2.620   0.562  1.2281  0.8623 -1.1415
 6461TIP3   OH240873   4.769   5.053   5.151 -0.0347  0.3162  0.3943
 6461TIP3    H140874   4.802   5.142   5.156  0.9027 -0.0250  0.3891
 6461TIP3    H240875   4.758   5.026   5.242  0.7713  0.0422  0.4130
 6462TIP3   OH240876   5.937   0.658  14.129 -0.4816 -0.1367 -0.9519
 6462TIP3    H140877   5.881   0.733  14.115 -2.3091 -1.4975 -1.2661
 6462TIP3    H240878   6.023   0.685  14.095 -1.1613  1.6523 -1.3403
 6463TIP3   OH240879   0.389   6.029   3.918 -0.7947  0.2250  0.1819
 6463TIP3    H140880   0.374   6.084   3.841 -1.9199 -0.7370 -0.3097
 6463TIP3    H240881   0.397   5.940   3.883 -1.4054 -0.2315  1.1760
 6464TIP3   OH240882   2.934   5.740  14.855  0.2460 -0.2084 -0.1864
 6464TIP3    H140883   2.866   5.726  14.788 -0.8147  0.2422  0.7605
 6464TIP3    H240884   2.942   5.836  14.861 -1.2202 -0.1436  1.7832
 6465TIP3   OH240885   1.452   5.009   2.237 -0.6490  0.1470  0.2507
 6465TIP3    H140886   1.437   5.096   2.272 -2.0273 -0.1124  0.3419
 6465TIP3    H240887   1.527   5.019   2.178  0.2718  1.0369  1.5136
 6466TIP3   OH240888   4.198   0.037   1.347 -0.1597  0.2171  0.1116
 6466TIP3    H140889   4.146   0.088   1.410  0.7564 -0.3733  1.4005
 6466TIP3    H240890   4.135   0.010   1.280 -1.7811 -1.3307  2.1384
 6467TIP3   OH240891   6.745   2.089  12.774  0.0841 -0.1878 -0.2751
 6467TIP3    H140892   6.710   2.096  12.863 -1.2653 -1.5676 -0.6383
 6467TIP3    H240893   6.789   2.172  12.758 -0.4128  0.4256  1.3626
 6468TIP3   OH240894   2.173   2.071  13.995 -0.0617 -0.1442  0.8149
 6468TIP3    H140895   2.134   1.990  14.027  0.5810 -0.8682 -0.1646
 6468TIP3    H240896   2.120   2.141  14.034  0.4728 -0.9579  3.1213
 6469TIP3   OH240897   1.569   1.943   0.648 -0.3251  0.2574 -0.7172
 6469TIP3    H140898   1.589   1.931   0.741  0.9215 -0.6436 -1.0730
 6469TIP3    H240899   1.474   1.932   0.642 -0.3727 -0.0783  0.3826
 6470TIP3   OH240900   1.515   5.461  10.606  0.9245 -0.1383 -0.4834
 6470TIP3    H140901   1.484   5.467  10.515 -0.0716  0.5909 -0.1130
 6470TIP3    H240902   1.558   5.376  10.611  3.1857  0.7933 -2.2872
 6471TIP3   OH240903   6.047   0.098   4.842  0.4190 -0.7736  0.1152
 6471TIP3    H140904   5.965   0.133   4.807  1.4353  1.2373 -0.4218
 6471TIP3    H240905   6.038   0.106   4.937 -1.2724 -3.7255  0.3184
 6472TIP3   OH240906   2.181   1.927   3.759  0.3444  0.3130  0.8189
 6472TIP3    H140907   2.231   1.998   3.798 -0.1992  0.2601  1.6557
 6472TIP3    H240908   2.121   1.969   3.698 -0.9961  0.7612  2.3772
 6473TIP3   OH240909   1.992   0.245   6.318 -0.2301 -0.6735 -0.1048
 6473TIP3    H140910   2.041   0.218   6.240 -1.5557 -0.7446 -0.9536
 6473TIP3    H240911   1.931   0.311   6.286  0.8501  1.1496  1.3616
 6474TIP3   OH240912   3.278   3.772   0.224 -0.2806 -0.2132  0.1785
 6474TIP3    H140913   3.218   3.833   0.268 -0.2205  0.9599 -1.2738
 6474TIP3    H240914   3.349   3.758   0.287 -0.4517  1.0084  0.6774
 6475TIP3   OH240915   3.000   1.138  11.829  0.8771  0.0881  0.0778
 6475TIP3    H140916   2.980   1.178  11.913 -1.5161 -0.2559 -0.2684
 6475TIP3    H240917   2.986   1.045  11.842 -2.3870  0.2407 -1.3124
 6476TIP3   OH240918   0.306   5.285   1.224 -0.3547  0.5142 -0.1841
 6476TIP3    H140919   0.275   5.295   1.134 -0.6160 -1.0983 -0.3000
 6476TIP3    H240920   0.308   5.191   1.239  0.4411  0.7206  1.2501
 6477TIP3   OH240921   2.399   2.538  16.169 -0.3363 -0.7584  0.0905
 6477TIP3    H140922   2.457   2.605  16.134 -1.0753  1.1006  2.1843
 6477TIP3    H240923   2.454   2.486  16.227 -0.1077 -0.8687 -0.2295
 6478TIP3   OH240924   1.616   5.046  17.139 -0.0102  0.1401  0.4201
 6478TIP3    H140925   1.521   5.032  17.129  0.2613 -1.9448  0.2554
 6478TIP3    H240926   1.651   4.958  17.152  1.4879  1.1142  4.4358
 6479TIP3   OH240927   5.979   1.341  13.260  1.4733 -0.5168  0.5730
 6479TIP3    H140928   5.981   1.437  13.264  0.8582 -0.4688 -0.1510
 6479TIP3    H240929   5.916   1.316  13.327  0.3277 -0.3119 -0.3851
 6480TIP3   OH240930   2.669   0.393  15.756 -0.3013  0.4082 -0.2411
 6480TIP3    H140931   2.602   0.342  15.711  0.1809 -1.4789  1.0866
 6480TIP3    H240932   2.747   0.384  15.701 -0.3780  0.2502 -0.3246
 6481TIP3   OH240933   4.609   1.419  13.158 -0.4259 -0.2291 -0.3011
 6481TIP3    H140934   4.652   1.451  13.079 -0.4342 -0.0692 -0.2410
 6481TIP3    H240935   4.614   1.492  13.220  1.9418 -1.2330  0.7887
 6482TIP3   OH240936   4.939   6.339  13.241  0.6929  0.1838 -0.5628
 6482TIP3    H140937   5.013   6.288  13.274 -0.4273 -0.0952  1.7399
 6482TIP3    H240938   4.978   6.417  13.201  2.2158  0.2666  0.9901
 6483TIP3   OH240939   2.199   0.905  16.443  0.6474 -0.4132 -0.2168
 6483TIP3    H140940   2.169   0.820  16.476 -0.0293  0.0082  0.2686
 6483TIP3    H240941   2.291   0.891  16.423  0.5292 -1.2846 -0.2051
 6484TIP3   OH240942   4.999   4.936   5.790  0.2333 -0.0804 -0.0152
 6484TIP3    H140943   4.976   4.843   5.783 -1.6591  0.3983 -1.0587
 6484TIP3    H240944   5.063   4.949   5.720  0.0351 -0.4818 -0.2814
 6485TIP3   OH240945   6.476   1.724   1.817 -0.3044  0.1113  0.4046
 6485TIP3    H140946   6.513   1.745   1.731  0.1942 -0.5557  0.4538
 6485TIP3    H240947   6.489   1.804   1.868 -1.6487  0.9432 -0.4610
 6486TIP3   OH240948   4.609   6.624  11.753  0.0766  0.3088  0.3753
 6486TIP3    H140949   4.697   6.586  11.749 -0.0348  0.1517 -2.1190
 6486TIP3    H240950   4.611   6.683  11.829  2.0007 -0.4320  0.9492
 6487TIP3   OH240951   0.804   1.545  11.134  0.0778  0.4121 -0.0050
 6487TIP3    H140952   0.867   1.561  11.063 -1.9250 -2.2002 -2.6231
 6487TIP3    H240953   0.742   1.618  11.127 -0.4513 -0.1429 -1.4495
 6488TIP3   OH240954   1.806   5.701  11.482  0.4048 -0.4988 -0.3745
 6488TIP3    H140955   1.770   5.768  11.540 -0.8552 -0.9296 -0.6459
 6488TIP3    H240956   1.901   5.711  11.491  0.2782  1.6898 -0.8148
 6489TIP3   OH240957   1.150   4.754   5.898 -0.1996  0.2846 -0.0139
 6489TIP3    H140958   1.186   4.716   5.977  1.1018  0.4207 -0.5058
 6489TIP3    H240959   1.056   4.761   5.914  0.0444  0.2975  1.4934
 6490TIP3   OH240960   5.063   6.430  13.508 -0.2519 -0.3534  0.0002
 6490TIP3    H140961   5.143   6.459  13.553  1.4944 -2.4727 -1.4983
 6490TIP3    H240962   5.028   6.361  13.564  0.2568 -0.9334 -0.3692
 6491TIP3   OH240963   0.493   5.059  10.937  0.8112  0.0064 -0.5418
 6491TIP3    H140964   0.558   5.099  10.995  0.6392  1.1480 -1.1119
 6491TIP3    H240965   0.430   5.129  10.919 -0.8147 -1.1649  0.3074
 6492TIP3   OH240966   6.504   2.763   4.993  0.2292  0.4480  0.6808
 6492TIP3    H140967   6.554   2.814   5.058 -0.3781  3.1659 -0.8496
 6492TIP3    H240968   6.423   2.741   5.039  1.3648 -1.1189  2.0796
 6493TIP3   OH240969   4.896   5.340   4.509  0.4398  0.3810  0.3197
 6493TIP3    H140970   4.955   5.383   4.570 -0.8361  1.7957  0.6158
 6493TIP3    H240971   4.925   5.369   4.423  1.7482 -0.9936  0.2506
 6494TIP3   OH240972   1.787   6.201   4.059 -0.0096 -0.0894 -0.1405
 6494TIP3    H140973   1.792   6.114   4.100 -1.8728 -1.1369 -1.9433
 6494TIP3    H240974   1.818   6.188   3.970  2.8593  1.9017  0.4303
 6495TIP3   OH240975   2.062   5.861   3.968  0.5121 -0.1621 -0.0815
 6495TIP3    H140976   2.071   5.822   4.055  1.3194  2.5421  1.1539
 6495TIP3    H240977   1.968   5.870   3.955  0.3950 -0.4006  0.5821
 6496TIP3   OH240978   5.511   2.609  14.034 -0.0069  0.3433 -0.0783
 6496TIP3    H140979   5.606   2.602  14.038 -0.0900 -0.6087  0.8474
 6496TIP3    H240980   5.481   2.521  14.012 -0.6558  0.7676 -0.9587
 6497TIP3   OH240981   6.178   0.541   3.783  0.8665 -0.2353  0.1990
 6497TIP3    H140982   6.175   0.497   3.698  0.3219  0.2938 -0.0688
 6497TIP3    H240983   6.127   0.484   3.841  1.1791 -0.5611  0.1553
 6498TIP3   OH240984   6.306   3.685   0.283 -0.0144 -0.2128  0.6040
 6498TIP3    H140985   6.222   3.703   0.326 -0.3837  0.2760 -0.2863
 6498TIP3    H240986   6.283   3.673   0.191  1.0932  1.8518 -0.0005
 6499TIP3   OH240987   0.359   1.621   1.070  0.3500 -0.1716  0.2270
 6499TIP3    H140988   0.449   1.590   1.073  0.8650  1.3040  1.9242
 6499TIP3    H240989   0.351   1.664   0.985  0.7037 -1.7453 -0.6313
 6500TIP3   OH240990   6.078   4.688   4.285  0.6329  0.1981  0.4306
 6500TIP3    H140991   6.052   4.733   4.204  0.7473 -1.1280 -0.3864
 6500TIP3    H240992   6.061   4.751   4.354  0.8625  1.5079 -0.6586
 6501TIP3   OH240993   6.193   6.648  13.293 -0.1761  0.2916 -0.2976
 6501TIP3    H140994   6.266   6.698  13.256  0.0157 -0.0284 -0.3628
 6501TIP3    H240995   6.236   6.586  13.353 -0.6296  3.0436  3.2547
 6502TIP3   OH240996   2.474   6.675   5.893  0.2289  0.7881  0.0950
 6502TIP3    H140997   2.418   6.711   5.962 -0.2274  0.8048 -0.2763
 6502TIP3    H240998   2.517   6.600   5.933 -0.4195  0.4936  0.2443
 6503TIP3   OH240999   6.155   3.368   3.049 -0.0279 -0.5589 -0.4888
 6503TIP3    H141000   6.234   3.318   3.065 -0.0816 -0.4013  0.3112
 6503TIP3    H241001   6.087   3.302   3.033  0.0973 -0.7149 -0.3772
 6504TIP3   OH241002   5.569   6.714   2.792  0.5334  0.3252 -0.0911
 6504TIP3    H141003   5.489   6.759   2.766  0.4440  0.1558 -0.1156
 6504TIP3    H241004   5.633   6.736   2.724  0.6998  0.9895  0.2751
 6505TIP3   OH241005   0.361   3.658  15.125 -0.5254  0.3805 -0.1011
 6505TIP3    H141006   0.430   3.625  15.068 -1.9775 -0.5823 -1.3577
 6505TIP3    H241007   0.406   3.683  15.206  1.2522 -0.3372 -0.8405
 6506TIP3   OH241008   0.452   0.182  12.740 -0.2210 -0.2005 -0.0473
 6506TIP3    H141009   0.391   0.162  12.668 -0.3064 -0.3993  0.0781
 6506TIP3    H241010   0.537   0.188  12.697  0.6469 -5.2673  0.3532
 6507TIP3   OH241011   5.909   0.568   0.005 -0.4699  0.1506  0.1001
 6507TIP3    H141012   5.983   0.507   0.000 -0.2314  0.0982  2.9512
 6507TIP3    H241013   5.949   0.654  -0.007  0.1289  0.1357  1.7999
 6508TIP3   OH241014   3.139   0.837  12.774 -0.8328  0.1823  0.7493
 6508TIP3    H141015   3.166   0.840  12.865  0.8183  1.2076  0.2651
 6508TIP3    H241016   3.202   0.778  12.732 -0.5828  0.9597 -0.0124
 6509TIP3   OH241017   5.566   3.559  12.492 -0.6642 -0.0579  0.0449
 6509TIP3    H141018   5.559   3.646  12.454 -4.1439 -0.2451 -0.0085
 6509TIP3    H241019   5.606   3.574  12.578 -2.1625  1.7841  0.4865
 6510TIP3   OH241020   6.362   1.445   1.742  0.3714 -0.1531  0.2151
 6510TIP3    H141021   6.333   1.536   1.731  0.0155 -0.1613  1.0108
 6510TIP3    H241022   6.320   1.397   1.671 -0.8080  0.0149  0.7768
 6511TIP3   OH241023   3.513   2.866  14.099 -0.2281  0.4809 -0.0586
 6511TIP3    H141024   3.560   2.863  14.183 -1.4942 -0.0704  0.6550
 6511TIP3    H241025   3.574   2.826  14.037  0.5390  0.4370  0.6934
 6512TIP3   OH241026   2.317   6.222  15.585  0.1546  0.2005  0.3406
 6512TIP3    H141027   2.366   6.222  15.503 -0.1508  0.1719  0.1549
 6512TIP3    H241028   2.291   6.130  15.597  0.0303  0.2387  0.3645
 6513TIP3   OH241029   1.283   1.569  16.375  0.0108 -0.1028  0.2505
 6513TIP3    H141030   1.371   1.585  16.409 -0.2624 -1.0820  1.4996
 6513TIP3    H241031   1.296   1.500  16.310  0.3160  0.6215 -0.4754
 6514TIP3   OH241032   4.811   1.336  15.222  0.2469 -0.2290  0.2631
 6514TIP3    H141033   4.755   1.326  15.144 -0.7311 -2.5511  1.1722
 6514TIP3    H241034   4.770   1.407  15.271 -0.6368 -0.4474 -0.1272
 6515TIP3   OH241035   5.404   4.989   2.116  0.0150  0.1888 -0.0428
 6515TIP3    H141036   5.327   4.933   2.126 -0.5623  1.1975  1.5293
 6515TIP3    H241037   5.375   5.075   2.148  2.0818  0.3170  1.7132
 6516TIP3   OH241038   5.132   1.167   4.282 -0.7467  0.0488  0.2260
 6516TIP3    H141039   5.194   1.171   4.355 -0.0976 -0.7206 -0.2620
 6516TIP3    H241040   5.053   1.208   4.316  0.0218  1.0719  0.8645
 6517TIP3   OH241041   3.352   3.391   6.293  0.1493  0.2524 -0.2665
 6517TIP3    H141042   3.383   3.445   6.221 -2.0946  0.8968 -0.8278
 6517TIP3    H241043   3.274   3.347   6.259  0.7733 -1.8459  0.8124
 6518TIP3   OH241044   6.525   3.924  12.135  0.1229 -0.1913  0.3656
 6518TIP3    H141045   6.516   3.992  12.069 -0.9290 -0.2513  0.4381
 6518TIP3    H241046   6.619   3.905  12.137  0.7690  2.5639  1.6946
 6519TIP3   OH241047   2.619   3.787   2.413  0.0998 -0.5471 -0.0202
 6519TIP3    H141048   2.576   3.819   2.334 -0.5819 -0.9534  0.1753
 6519TIP3    H241049   2.638   3.866   2.464 -0.5765 -0.3736 -0.0336
 6520TIP3   OH241050   2.094   3.676   2.035 -0.8596  0.6481 -0.7689
 6520TIP3    H141051   2.046   3.597   2.060 -0.0363 -0.3096 -2.0509
 6520TIP3    H241052   2.126   3.713   2.117  2.0817 -2.5440 -0.2644
 6521TIP3   OH241053   5.546   5.767   3.843  0.2471 -0.3196 -0.0376
 6521TIP3    H141054   5.526   5.720   3.924 -2.5574  0.2418 -0.3237
 6521TIP3    H241055   5.538   5.700   3.774  0.2716 -0.2667 -0.0918
 6522TIP3   OH241056   5.973   1.149   0.582 -0.0822  0.1147  0.3019
 6522TIP3    H141057   5.969   1.161   0.487  0.5162  2.1470  0.4864
 6522TIP3    H241058   5.992   1.056   0.594 -2.0838 -0.6029 -1.5009
 6523TIP3   OH241059   5.909   3.158  11.205  0.5182  0.1318  0.0263
 6523TIP3    H141060   5.861   3.184  11.126  1.8201  1.6723 -0.3215
 6523TIP3    H241061   5.954   3.077  11.181 -0.0760 -0.0773 -0.3919
 6524TIP3   OH241062   1.398   4.754   4.289  0.3227 -0.4872 -0.4236
 6524TIP3    H141063   1.413   4.704   4.209 -0.1921 -2.0488  0.4159
 6524TIP3    H241064   1.314   4.722   4.323 -0.1400  1.1229  0.0434
 6525TIP3   OH241065   3.801   4.069  13.909 -0.0177  0.0496  0.0772
 6525TIP3    H141066   3.820   4.118  13.830  1.6084 -1.8080 -0.7663
 6525TIP3    H241067   3.887   4.051  13.948 -0.7637  0.9476  2.3236
 6526TIP3   OH241068   1.654   3.843  16.200 -0.0913  0.0867  0.3554
 6526TIP3    H141069   1.652   3.879  16.288  0.5398  2.0379 -0.3680
 6526TIP3    H241070   1.746   3.844  16.175 -0.2301 -0.7004 -0.2363
 6527TIP3   OH241071   2.849   6.285  10.887  0.2131 -0.2517  0.1794
 6527TIP3    H141072   2.900   6.365  10.873 -0.9879  0.5744  0.2975
 6527TIP3    H241073   2.770   6.315  10.932 -1.9322 -0.8873 -2.8354
 6528TIP3   OH241074   2.695   1.763   0.044 -0.4564  0.0153  0.0475
 6528TIP3    H141075   2.726   1.824   0.111  2.0455  2.0933 -2.6926
 6528TIP3    H241076   2.611   1.799   0.015 -1.8786 -1.2562  2.3224
 6529TIP3   OH241077   6.385   0.545   3.962  0.0091 -0.3988  0.2434
 6529TIP3    H141078   6.436   0.535   3.882  0.0394  1.0883  0.0489
 6529TIP3    H241079   6.294   0.548   3.931  0.0313  0.3599  0.2208
 6530TIP3   OH241080   5.318   6.039  15.783  0.1376 -0.2554  0.4312
 6530TIP3    H141081   5.297   5.949  15.806 -0.5177 -0.1853  0.1188
 6530TIP3    H241082   5.316   6.041  15.687 -2.9465  0.7730  0.4307
 6531TIP3   OH241083   3.309   3.735   3.281  0.0709 -0.6983  0.2088
 6531TIP3    H141084   3.362   3.813   3.266  1.8281 -1.8034  0.4047
 6531TIP3    H241085   3.301   3.729   3.377  1.2140 -1.5271  0.2777
 6532TIP3   OH241086   2.559   6.141   5.656 -0.1915  0.2203  0.0453
 6532TIP3    H141087   2.624   6.203   5.622  1.1414 -0.0106  2.0206
 6532TIP3    H241088   2.565   6.150   5.751 -1.5606 -1.3570  0.3197
 6533TIP3   OH241089   0.414   4.579  14.301 -0.1425  0.3590 -0.1095
 6533TIP3    H141090   0.449   4.522  14.232 -1.3736 -1.0747  0.3661
 6533TIP3    H241091   0.365   4.519  14.357 -0.3936  1.7298  1.1818
 6534TIP3   OH241092   4.412   0.567  16.156 -0.8008 -0.0281  0.1830
 6534TIP3    H141093   4.440   0.484  16.117 -0.6155  0.7367 -1.3839
 6534TIP3    H241094   4.483   0.628  16.139 -0.3425  0.1802  2.4906
 6535TIP3   OH241095   4.309   2.886   2.487  0.4726  0.1380 -0.6989
 6535TIP3    H141096   4.219   2.899   2.518  0.7148  1.2036 -0.3997
 6535TIP3    H241097   4.302   2.816   2.422 -0.7914  1.0532 -1.6027
 6536TIP3   OH241098   0.816   6.345   4.857  0.0719 -0.0521 -0.4818
 6536TIP3    H141099   0.752   6.279   4.832  1.0482 -0.7435 -1.2471
 6536TIP3    H241100   0.897   6.296   4.873  0.1712  0.6781  1.5094
 6537TIP3   OH241101   6.239   3.959  16.971 -0.4400  0.4999  0.5627
 6537TIP3    H141102   6.211   4.050  16.972 -1.4967  0.3335 -2.4451
 6537TIP3    H241103   6.162   3.910  17.001 -0.5925  0.5035  0.1865
 6538TIP3   OH241104   6.443   2.055   4.493  0.4847  0.0334 -0.2040
 6538TIP3    H141105   6.367   2.021   4.446  0.8560 -0.3620 -0.5258
 6538TIP3    H241106   6.415   2.058   4.585  0.6722 -1.8376 -0.0476
 6539TIP3   OH241107   6.114   1.760   3.483 -0.2911  0.5366 -0.0471
 6539TIP3    H141108   6.081   1.836   3.531  0.5677  0.8937 -0.0105
 6539TIP3    H241109   6.177   1.796   3.421 -0.9765  0.0179 -1.0687
 6540TIP3   OH241110   2.384   1.201   0.130  0.3731 -0.4758 -0.7416
 6540TIP3    H141111   2.466   1.228   0.088  1.2343 -0.6353  0.7608
 6540TIP3    H241112   2.409   1.126   0.185 -0.8209 -0.6338 -0.3854
 6541TIP3   OH241113   2.463   3.746   1.255  0.4243  0.0720  0.0334
 6541TIP3    H141114   2.446   3.830   1.298 -0.7923 -0.0005 -0.2694
 6541TIP3    H241115   2.483   3.686   1.327 -1.2164  0.0420  0.4956
 6542TIP3   OH241116   2.681   5.100  14.608 -1.0908  0.4445  0.5066
 6542TIP3    H141117   2.659   5.015  14.646  0.1930 -1.2386 -2.2304
 6542TIP3    H241118   2.625   5.108  14.531  2.5853 -0.7720 -2.6054
 6543TIP3   OH241119   6.201   2.228   5.924  0.1532  0.0245  0.1775
 6543TIP3    H141120   6.242   2.231   5.838 -1.3831 -2.9557 -0.7895
 6543TIP3    H241121   6.165   2.316   5.936  1.0081  0.7188 -1.8742
 6544TIP3   OH241122   3.424   2.767  15.267  0.0608  0.8495 -0.1334
 6544TIP3    H141123   3.440   2.834  15.334  0.7256  1.4969 -0.9298
 6544TIP3    H241124   3.344   2.723  15.296  1.1466  0.0747  1.9332
 6545TIP3   OH241125   0.653   2.606  14.337  0.6813  0.3481  0.0233
 6545TIP3    H141126   0.625   2.625  14.427  0.3448  0.1838 -0.0476
 6545TIP3    H241127   0.572   2.601  14.287  0.8801  0.6022 -0.3227
 6546TIP3   OH241128   4.557   2.961   2.358  0.4421  0.0560 -0.4701
 6546TIP3    H141129   4.551   3.054   2.338  0.6758 -0.3088 -2.4268
 6546TIP3    H241130   4.481   2.944   2.414  0.8454  1.5512  0.6117
 6547TIP3   OH241131   3.600   6.249   0.360 -0.1884  0.3538 -0.5947
 6547TIP3    H141132   3.670   6.188   0.386 -0.2958  0.9724  1.2462
 6547TIP3    H241133   3.522   6.217   0.405 -0.9130  0.2487 -1.8650
 6548TIP3   OH241134   5.983   4.069   0.989 -0.0927  0.6945 -0.3651
 6548TIP3    H141135   5.901   4.025   0.967  0.1501  0.8002 -1.5530
 6548TIP3    H241136   5.959   4.134   1.055 -1.3112  1.8872 -1.9058
 6549TIP3   OH241137   0.658   6.467  13.918 -0.5577  0.2883 -0.3793
 6549TIP3    H141138   0.630   6.512  13.997 -3.7140  0.7317 -1.6020
 6549TIP3    H241139   0.749   6.442  13.936  0.0142  3.3945  1.9711
 6550TIP3   OH241140   6.284   4.218  16.140  0.7795 -0.0137  0.2497
 6550TIP3    H141141   6.224   4.293  16.137  0.4748 -0.1815  1.5327
 6550TIP3    H241142   6.247   4.156  16.077  0.7842  0.7107 -0.5009
 6551TIP3   OH241143   2.789   4.302  16.951  0.0086  0.0617 -0.2971
 6551TIP3    H141144   2.871   4.263  16.920  0.5892 -0.7717  2.0693
 6551TIP3    H241145   2.742   4.229  16.990 -0.3358  1.1137  1.3553
 6552TIP3   OH241146   0.714   2.172  12.552 -0.6014  0.0020 -0.2390
 6552TIP3    H141147   0.687   2.201  12.464  2.1443 -0.0204 -1.1918
 6552TIP3    H241148   0.678   2.084  12.560 -1.1312  0.1080 -1.2435
 6553TIP3   OH241149   4.825   2.419  13.368  0.5618  0.3306  0.3140
 6553TIP3    H141150   4.746   2.410  13.315  1.0415  1.9263 -0.7334
 6553TIP3    H241151   4.889   2.361  13.326  0.4880  0.4054  0.0998
 6554TIP3   OH241152   5.869   2.139  12.422 -0.2106 -0.1251 -0.3068
 6554TIP3    H141153   5.891   2.075  12.354 -0.6850 -1.2138  0.5401
 6554TIP3    H241154   5.924   2.215  12.402 -0.5609 -0.2992 -2.0808
 6555TIP3   OH241155   0.131   5.795  15.584 -0.4393  0.3287  0.1210
 6555TIP3    H141156   0.134   5.855  15.659 -1.2466  2.1288 -1.2308
 6555TIP3    H241157   0.089   5.845  15.515  0.5715 -1.1884 -1.6640
 6556TIP3   OH241158   5.096   3.423  10.266 -0.7668  0.2019 -0.8377
 6556TIP3    H141159   5.140   3.491  10.217 -1.6135  1.0905 -0.3953
 6556TIP3    H241160   5.077   3.354  10.202  3.1072 -1.2307 -0.6747
 6557TIP3   OH241161   0.338   6.637  17.139  0.1765  0.7649 -0.3011
 6557TIP3    H141162   0.384   6.611  17.059 -1.3143 -0.1989 -0.8779
 6557TIP3    H241163   0.321   6.555  17.185  0.1424  1.2262  0.5259
 6558TIP3   OH241164   2.163   0.593   1.986 -1.3266 -0.0280  0.1774
 6558TIP3    H141165   2.177   0.645   1.907 -2.4682 -0.0084 -0.0268
 6558TIP3    H241166   2.092   0.534   1.964 -0.8609 -0.8504  0.8135
 6559TIP3   OH241167   6.002   4.486   0.952 -0.0953 -0.1761  0.3210
 6559TIP3    H141168   6.070   4.553   0.952 -0.9977  0.8009  2.0576
 6559TIP3    H241169   5.938   4.516   1.017 -0.3323 -2.9117  1.5123
 6560TIP3   OH241170   5.162   5.537   1.618  0.0112 -0.5598  0.4063
 6560TIP3    H141171   5.108   5.585   1.680  0.3087 -0.8826  0.9288
 6560TIP3    H241172   5.100   5.501   1.555 -0.1774  0.8140 -0.2254
 6561TIP3   OH241173   2.985   6.606  13.224 -0.0839  0.4203  0.4367
 6561TIP3    H141174   2.922   6.603  13.152 -1.2656 -0.8228  1.4457
 6561TIP3    H241175   2.973   6.522  13.269  0.5154  1.2112  2.1525
 6562TIP3   OH241176   4.838   2.582   4.423  0.6362 -0.2304  0.0640
 6562TIP3    H141177   4.755   2.561   4.466  0.8531 -0.1183  0.5456
 6562TIP3    H241178   4.866   2.500   4.383 -0.9162  0.2683 -2.2247
 6563TIP3   OH241179   4.096   4.636  13.462  0.3684 -0.1820  0.0063
 6563TIP3    H141180   4.085   4.654  13.368 -0.9309 -0.8565  0.0109
 6563TIP3    H241181   4.117   4.543  13.466 -3.1480 -1.0804  0.5331
 6564TIP3   OH241182   1.075   6.668  16.814 -0.2250  0.4271 -0.8604
 6564TIP3    H141183   1.104   6.759  16.802  2.9104 -0.2668  0.4920
 6564TIP3    H241184   1.096   6.625  16.732  2.8035 -0.0214  0.0323
 6565TIP3   OH241185   3.840   1.129   1.984  0.5078  0.4441  0.0717
 6565TIP3    H141186   3.771   1.064   1.975  0.8476  0.0624  0.1929
 6565TIP3    H241187   3.851   1.166   1.897  0.8225 -0.1858 -0.1598
 6566TIP3   OH241188   4.419   5.585  13.264  0.2182 -0.2567 -0.4144
 6566TIP3    H141189   4.436   5.563  13.356  1.4857 -2.0756 -1.0200
 6566TIP3    H241190   4.333   5.627  13.264  0.9888  1.5239  1.8108
 6567TIP3   OH241191   2.135   6.040  16.367  0.0484  0.2643 -0.5618
 6567TIP3    H141192   2.057   5.997  16.402  0.2478  0.0589 -0.3698
 6567TIP3    H241193   2.114   6.055  16.275  0.0060 -0.3184 -0.6528
 6568TIP3   OH241194   3.304   0.028  16.308  0.0319 -0.1922 -0.1876
 6568TIP3    H141195   3.361   0.035  16.231 -1.5882  1.2288 -1.3345
 6568TIP3    H241196   3.237  -0.036  16.283 -0.2691 -0.0378  0.2112
 6569TIP3   OH241197   2.828   6.266   4.973 -0.3966 -0.0028 -0.2693
 6569TIP3    H141198   2.763   6.336   4.978 -0.2913  0.0941 -0.2547
 6569TIP3    H241199   2.782   6.189   5.006 -0.0581  0.3888  1.2261
 6570TIP3   OH241200   5.933   0.588  11.741  0.0198  1.0062 -0.0919
 6570TIP3    H141201   6.014   0.637  11.728  2.3365 -2.4636 -0.1662
 6570TIP3    H241202   5.903   0.613  11.828  1.9113  1.4826  0.4749
 6571TIP3   OH241203   5.931   4.469   6.029  0.1902  0.1376 -0.2927
 6571TIP3    H141204   5.982   4.539   6.070  0.7217 -0.3804 -0.0611
 6571TIP3    H241205   5.883   4.428   6.100 -0.7537  0.7743 -0.5423
 6572TIP3   OH241206   5.129   2.261  15.615  0.4018 -0.0807  0.0032
 6572TIP3    H141207   5.051   2.307  15.645  0.1696 -0.6798  0.3155
 6572TIP3    H241208   5.105   2.228  15.528  0.2173 -0.4725  0.1993
 6573TIP3   OH241209   6.549   5.653  12.387  0.2196 -0.3141  0.2657
 6573TIP3    H141210   6.563   5.733  12.438 -0.1806 -0.4201  0.5450
 6573TIP3    H241211   6.615   5.657  12.318 -0.3129  0.6452 -0.2026
 6574TIP3   OH241212   1.835   6.778   2.501 -0.7067 -0.0332 -0.4810
 6574TIP3    H141213   1.871   6.690   2.518  0.8278  0.5476 -0.5568
 6574TIP3    H241214   1.825   6.782   2.406  0.5804  0.3436 -0.6229
 6575TIP3   OH241215   4.228   5.605  12.551  0.1529  0.0290 -0.0335
 6575TIP3    H141216   4.229   5.643  12.463  0.1481  1.0127  0.3712
 6575TIP3    H241217   4.153   5.645  12.593  0.8761  0.5332  0.8130
 6576TIP3   OH241218   6.520   6.163  11.841 -0.0131 -0.3514 -0.2096
 6576TIP3    H141219   6.518   6.256  11.822  0.7666 -0.4252 -0.6621
 6576TIP3    H241220   6.612   6.141  11.851 -0.1778 -1.0902 -0.1989
 6577TIP3   OH241221   0.900   4.277  13.358 -0.2091 -0.1649 -0.7734
 6577TIP3    H141222   0.912   4.272  13.263 -0.1458  0.5612 -0.8146
 6577TIP3    H241223   0.851   4.199  13.381 -0.1893 -0.3646 -1.4020
 6578TIP3   OH241224   3.749   4.511  14.826  0.2565 -0.3160  0.2647
 6578TIP3    H141225   3.707   4.569  14.762  2.9085  0.5373 -0.8367
 6578TIP3    H241226   3.689   4.437  14.834 -0.3052 -0.3961 -3.1689
 6579TIP3   OH241227   0.802   2.208  16.416  0.6016  0.5550  0.0745
 6579TIP3    H141228   0.857   2.283  16.437 -0.8842  1.3553  1.3136
 6579TIP3    H241229   0.797   2.158  16.497 -1.4304  1.1590  0.3878
 6580TIP3   OH241230   0.238   0.552   3.038  0.0903  0.4856 -0.1439
 6580TIP3    H141231   0.157   0.603   3.043  0.4384  0.9383  1.5632
 6580TIP3    H241232   0.241   0.504   3.121  0.7085 -0.9088 -0.9327
 6581TIP3   OH241233   1.316   5.038   0.246  0.0037  0.2197  0.0992
 6581TIP3    H141234   1.362   5.122   0.251  2.6882 -1.1939  2.0505
 6581TIP3    H241235   1.331   5.007   0.157  1.7300  0.4894  0.2485
 6582TIP3   OH241236   3.843   3.147   2.999 -0.1878  0.1002  0.2686
 6582TIP3    H141237   3.782   3.095   3.051 -0.6063  0.5313  0.2160
 6582TIP3    H241238   3.930   3.121   3.031 -0.3812 -0.6799  0.1914
 6583TIP3   OH241239   1.387   1.080  17.043 -0.9112  0.4044  0.3772
 6583TIP3    H141240   1.342   1.159  17.013 -0.7353  0.4267  0.1714
 6583TIP3    H241241   1.407   1.098  17.135  2.7690  2.3276 -0.6150
 6584TIP3   OH241242   2.987   4.987  16.887  0.9329  0.0417  0.3418
 6584TIP3    H141243   3.055   4.932  16.925  0.3361 -0.1512  1.1747
 6584TIP3    H241244   2.915   4.927  16.868  0.1401  0.5464  1.5885
 6585TIP3   OH241245   1.435   0.920  15.827  0.0862 -0.0917  0.0831
 6585TIP3    H141246   1.437   0.829  15.855 -0.4294  0.3090  1.4791
 6585TIP3    H241247   1.507   0.962  15.874 -0.4229  0.4683  0.3745
 6586TIP3   OH241248   1.114   2.126   0.272 -1.2605  0.4249  0.1397
 6586TIP3    H141249   1.123   2.221   0.274  1.8853  0.2263  0.4594
 6586TIP3    H241250   1.104   2.101   0.364 -1.1086  0.4055  0.1521
 6587TIP3   OH241251   2.578   4.134  13.657  0.1719  0.1114  0.3436
 6587TIP3    H141252   2.572   4.228  13.678  0.2512  0.3421 -0.6048
 6587TIP3    H241253   2.671   4.120  13.639  0.0964 -0.0591  0.0865
 6588TIP3   OH241254   5.991   5.641  12.604 -0.2122 -0.2971  0.4428
 6588TIP3    H141255   6.016   5.708  12.668  0.0110  0.5528 -0.5227
 6588TIP3    H241256   5.941   5.688  12.537  1.3480 -0.7627 -1.1137
 6589TIP3   OH241257   6.778   1.667   2.691  0.2774  0.0243 -0.5143
 6589TIP3    H141258   6.709   1.659   2.625  0.3659  0.4024 -0.6597
 6589TIP3    H241259   6.791   1.579   2.725 -1.9063  0.2612  1.1782
 6590TIP3   OH241260   6.475   0.368  15.790 -0.2488  0.2323  0.0068
 6590TIP3    H141261   6.538   0.437  15.767  0.2694 -0.4016 -0.4989
 6590TIP3    H241262   6.529   0.298  15.827 -0.5718 -0.5862 -1.0512
 6591TIP3   OH241263   1.138   2.482  15.671 -0.1709 -0.0638 -0.7619
 6591TIP3    H141264   1.099   2.569  15.666  2.7950  1.3981 -1.0584
 6591TIP3    H241265   1.097   2.433  15.599 -1.3856  1.2938 -1.0398
 6592TIP3   OH241266   1.263   3.471   1.775 -0.6923 -1.0085 -0.0400
 6592TIP3    H141267   1.259   3.383   1.736 -1.3789 -0.2939 -1.6718
 6592TIP3    H241268   1.200   3.522   1.725  0.8077  0.8244 -0.1644
 6593TIP3   OH241269   5.711   6.195  16.038  0.2161 -0.2025 -0.5890
 6593TIP3    H141270   5.630   6.204  16.086 -0.2860 -1.1174 -1.2370
 6593TIP3    H241271   5.689   6.141  15.962  1.2609  0.1400 -1.1708
 6594TIP3   OH241272   4.770   6.170  14.756 -0.5023 -0.0691 -0.1889
 6594TIP3    H141273   4.753   6.181  14.850  0.9629 -0.0390  0.0956
 6594TIP3    H241274   4.771   6.259  14.722  0.4906  0.0267  0.0662
 6595TIP3   OH241275   2.784   6.669  11.037  0.4517  0.1152 -0.0164
 6595TIP3    H141276   2.851   6.618  10.992  0.9655 -0.3100  1.1914
 6595TIP3    H241277   2.753   6.731  10.971  1.3855 -0.2934 -0.8653
 6596TIP3   OH241278   2.749   4.498   3.108  0.1420  0.0710 -0.3812
 6596TIP3    H141279   2.754   4.588   3.140  0.5626 -0.0475 -0.1061
 6596TIP3    H241280   2.667   4.494   3.059  0.0484  0.5617 -0.2653
 6597TIP3   OH241281   4.239   5.572   5.141  0.0247 -0.0403  0.3059
 6597TIP3    H141282   4.192   5.544   5.063  0.0671 -0.7775  0.5361
 6597TIP3    H241283   4.281   5.654   5.116  0.5990 -0.6138 -0.6618
 6598TIP3   OH241284   0.518   5.167  14.315 -0.3532 -0.3505 -0.1339
 6598TIP3    H141285   0.606   5.134  14.297 -0.4472 -1.3117  0.9938
 6598TIP3    H241286   0.511   5.248  14.264  1.5543  0.2970  0.5390
 6599TIP3   OH241287   0.737   5.825   6.061  0.1828 -0.2312  0.0714
 6599TIP3    H141288   0.699   5.908   6.090  1.0390 -0.0416  0.6744
 6599TIP3    H241289   0.666   5.782   6.013 -1.4342 -0.6796  2.6184
 6600TIP3   OH241290   5.558   5.649   0.184  0.1603  0.2772 -0.6249
 6600TIP3    H141291   5.482   5.641   0.125  0.2580  2.4256 -1.1200
 6600TIP3    H241292   5.573   5.743   0.190 -0.1221  0.2119  3.2602
 6601TIP3   OH241293   4.588   0.197  11.831  0.2011 -0.3987 -0.4508
 6601TIP3    H141294   4.673   0.241  11.834  0.5404 -1.0093 -0.9148
 6601TIP3    H241295   4.603   0.112  11.872 -0.9579  0.6815  2.4639
 6602TIP3   OH241296   6.431   1.731   5.016 -0.1193  0.3564  0.0169
 6602TIP3    H141297   6.474   1.731   4.930  2.2578 -1.6022  1.0740
 6602TIP3    H241298   6.504   1.723   5.078 -1.8655  0.1396  2.1318
 6603TIP3   OH241299   3.351   3.436   5.255  0.5544  0.1815  0.2270
 6603TIP3    H141300   3.380   3.465   5.342  0.0674 -0.7671  0.7229
 6603TIP3    H241301   3.256   3.450   5.255  0.3062 -1.2868  0.4646
 6604TIP3   OH241302   0.190   6.292   4.703 -0.2676  0.0595 -0.4983
 6604TIP3    H141303   0.205   6.374   4.655  1.1294 -0.0004 -0.1997
 6604TIP3    H241304   0.273   6.245   4.696 -0.9573 -1.1965 -0.3855
 6605TIP3   OH241305   5.053   2.333  16.976  0.3431  0.4021 -0.6961
 6605TIP3    H141306   4.993   2.283  16.920  0.3151  0.3233 -0.5933
 6605TIP3    H241307   4.999   2.362  17.050 -0.2404  2.5068 -1.8367
 6606TIP3   OH241308   0.608   0.003   1.246  0.3384 -0.4155  0.1367
 6606TIP3    H141309   0.551   0.080   1.250  0.3957 -0.3714  0.1302
 6606TIP3    H241310   0.675   0.020   1.312 -0.2329 -0.9426  0.8578
 6607TIP3   OH241311   5.545   1.642   1.844  0.6383  0.8039  0.2536
 6607TIP3    H141312   5.593   1.716   1.807  0.3264 -0.4148 -2.8603
 6607TIP3    H241313   5.565   1.569   1.786  1.0318 -1.6812  3.2457
 6608TIP3   OH241314   1.740   0.897   0.675  0.5843 -0.1637  0.4082
 6608TIP3    H141315   1.739   0.962   0.745  1.9248 -0.4670  0.7475
 6608TIP3    H241316   1.793   0.937   0.606  1.1655 -0.7571  0.4979
 6609TIP3   OH241317   1.723   6.755   4.689  0.5221  0.3323  0.3191
 6609TIP3    H141318   1.696   6.833   4.738 -0.0985 -0.0357  0.5663
 6609TIP3    H241319   1.642   6.709   4.670  0.8025  0.2017 -0.6178
 6610TIP3   OH241320   0.953   5.294   5.620 -0.4170  0.4572 -0.2912
 6610TIP3    H141321   1.011   5.311   5.546 -0.8940 -0.8474 -0.9938
 6610TIP3    H241322   0.973   5.364   5.682  1.2023  0.6133 -0.9268
 6611TIP3   OH241323   2.578   4.478  15.406  0.4387 -0.3488 -0.4336
 6611TIP3    H141324   2.632   4.517  15.337 -0.2803  1.6916  0.0893
 6611TIP3    H241325   2.614   4.512  15.487 -0.8116  0.0117 -0.0027
 6612TIP3   OH241326   4.650   6.723  13.463  0.4378  0.7015 -0.1291
 6612TIP3    H141327   4.704   6.688  13.534  0.2957 -0.0929 -0.4064
 6612TIP3    H241328   4.684   6.680  13.384  1.7160  2.8024 -0.8104
 6613TIP3   OH241329   2.823   0.651   0.335  0.2901 -0.0414  0.6159
 6613TIP3    H141330   2.783   0.597   0.403  0.5296  1.5179  2.0573
 6613TIP3    H241331   2.750   0.699   0.297  0.5144  1.7891  2.3206
 6614TIP3   OH241332   3.564   0.785   2.041  0.1111 -0.2182  0.0906
 6614TIP3    H141333   3.569   0.737   1.959 -3.6462 -1.2049  0.2626
 6614TIP3    H241334   3.585   0.875   2.017  0.1882 -0.6771 -1.7172
 6615TIP3   OH241335   0.312   5.865   3.155  1.1701 -0.0291  0.2215
 6615TIP3    H141336   0.330   5.772   3.171  0.5871  0.2485  3.1057
 6615TIP3    H241337   0.217   5.870   3.143  1.1369  0.2399  0.5814
 6616TIP3   OH241338   1.821   3.365   0.657 -0.5703 -0.3416 -0.5348
 6616TIP3    H141339   1.780   3.435   0.607 -1.6847 -1.5775 -1.4288
 6616TIP3    H241340   1.913   3.368   0.632 -0.6599  0.5842 -0.7997
 6617TIP3   OH241341   1.211   1.496  13.217 -0.3328 -0.1061 -0.0234
 6617TIP3    H141342   1.291   1.530  13.177 -1.6702  1.1468 -1.8168
 6617TIP3    H241343   1.241   1.439  13.288  2.1037  1.2386  0.1251
 6618TIP3   OH241344   2.611   3.947  15.968  0.1879 -0.0349 -0.7965
 6618TIP3    H141345   2.517   3.929  15.971  0.4237 -1.2382 -0.0592
 6618TIP3    H241346   2.646   3.881  15.907  0.8189 -1.0102  0.5540
 6619TIP3   OH241347   0.294   0.766   0.689 -0.0862 -0.2923 -0.1418
 6619TIP3    H141348   0.372   0.774   0.744  0.4726  0.1489 -0.9867
 6619TIP3    H241349   0.261   0.856   0.680 -1.5445 -0.6098  1.3797
 6620TIP3   OH241350   0.121   5.582   5.234 -0.1080  0.1650 -0.5224
 6620TIP3    H141351   0.042   5.530   5.222 -1.1276  1.3159  0.7555
 6620TIP3    H241352   0.098   5.645   5.303  2.3846 -0.3840  0.9348
 6621TIP3   OH241353   3.377   4.513   3.343 -0.0979  0.1426 -0.4872
 6621TIP3    H141354   3.363   4.450   3.272  1.0406  0.6396 -1.1840
 6621TIP3    H241355   3.332   4.592   3.313 -1.8100 -0.3919  0.5355
 6622TIP3   OH241356   3.060   5.245  13.228  0.4548 -0.0451 -0.0973
 6622TIP3    H141357   3.069   5.336  13.200  0.7457 -0.0723 -0.0956
 6622TIP3    H241358   3.128   5.233  13.295  0.6540 -0.3647 -0.3523
 6623TIP3   OH241359   2.554   6.276   5.281  0.1138  0.1827 -0.0789
 6623TIP3    H141360   2.632   6.302   5.331  0.4075  0.5657 -0.7142
 6623TIP3    H241361   2.571   6.309   5.192 -0.5754 -0.1263 -0.3319
 6624TIP3   OH241362   1.178   4.665  11.902 -0.2661 -0.8223 -0.2533
 6624TIP3    H141363   1.092   4.628  11.917  0.0210 -1.0503  0.9020
 6624TIP3    H241364   1.211   4.688  11.989 -0.2565  1.7785 -0.8389
 6625TIP3   OH241365   3.407   4.874  15.882  0.4567 -0.1707  0.4163
 6625TIP3    H141366   3.367   4.844  15.800  1.6260  0.5007 -0.4300
 6625TIP3    H241367   3.413   4.795  15.935  1.9393 -1.1749 -1.1264
 6626TIP3   OH241368   6.546   1.691   4.766 -0.1201 -0.0618  0.2930
 6626TIP3    H141369   6.533   1.702   4.672 -2.6900 -1.4945  0.3785
 6626TIP3    H241370   6.639   1.674   4.776  0.8876  3.3844 -1.5612
 6627TIP3   OH241371   2.546   0.444   2.260 -0.3775  0.2148  0.9666
 6627TIP3    H141372   2.611   0.415   2.196  0.0979  0.7334  1.2025
 6627TIP3    H241373   2.495   0.511   2.215  0.1408  0.7861  1.2008
 6628TIP3   OH241374   2.646   1.703   1.801  0.0669 -0.3402  0.1656
 6628TIP3    H141375   2.712   1.767   1.773 -0.2910 -0.2295 -0.4592
 6628TIP3    H241376   2.693   1.644   1.860  0.6170 -0.0106  0.0679
 6629TIP3   OH241377   5.684   5.961  15.570  0.3972  0.0766 -0.2403
 6629TIP3    H141378   5.654   5.899  15.635  1.0087  1.0518  1.0188
 6629TIP3    H241379   5.778   5.945  15.563  0.2630 -0.3667 -1.2975
 6630TIP3   OH241380   2.726   3.286  11.731  0.1052  0.0471  0.2340
 6630TIP3    H141381   2.758   3.335  11.807  1.2634  1.1996 -0.9385
 6630TIP3    H241382   2.633   3.308  11.725 -0.0045 -0.0715  1.3162
 6631TIP3   OH241383   0.017   3.039   1.042 -0.1842 -0.3718  0.2113
 6631TIP3    H141384  -0.006   3.079   1.126  3.3482  0.7178  0.7984
 6631TIP3    H241385   0.085   2.975   1.064  2.2993  1.3527 -1.9080
 6632TIP3   OH241386   1.594   4.353   1.618  0.5698 -0.2443 -0.4619
 6632TIP3    H141387   1.660   4.299   1.662 -0.5401 -1.4425 -0.2184
 6632TIP3    H241388   1.583   4.429   1.676  0.7995 -0.6753  0.1580
 6633TIP3   OH241389   1.016   2.870   1.500 -0.2654 -0.4989 -0.0671
 6633TIP3    H141390   1.012   2.902   1.410 -0.6822 -0.9107 -0.2005
 6633TIP3    H241391   0.969   2.936   1.551  2.2603  1.1659  0.3029
 6634TIP3   OH241392   4.503   5.359  14.115 -0.1006 -0.0374  0.1168
 6634TIP3    H141393   4.475   5.443  14.150  1.3718  0.9112 -0.8361
 6634TIP3    H241394   4.492   5.367  14.020 -1.5814 -1.5917  0.1020
 6635TIP3   OH241395   1.492   1.161   2.488  0.4042 -0.2285  0.1085
 6635TIP3    H141396   1.463   1.250   2.509  0.1311 -0.2365 -0.2307
 6635TIP3    H241397   1.519   1.124   2.572 -1.3748 -0.5196  0.5715
 6636TIP3   OH241398   1.924   3.845   3.856 -1.0444 -0.1876 -0.3846
 6636TIP3    H141399   1.945   3.924   3.806 -0.4871 -1.2243 -1.8529
 6636TIP3    H241400   1.841   3.814   3.820 -1.0213 -0.5383 -0.1449
 6637TIP3   OH241401   6.470   3.363   0.439  0.4522 -0.4473 -0.2256
 6637TIP3    H141402   6.508   3.323   0.361  1.1316 -0.8697  0.3074
 6637TIP3    H241403   6.503   3.454   0.437 -2.3168  0.6598 -2.2564
 6638TIP3   OH241404   5.049   4.187  16.741  0.2966  0.2328 -0.1051
 6638TIP3    H141405   5.122   4.141  16.700  0.0632  1.2493 -1.7388
 6638TIP3    H241406   5.084   4.274  16.762 -0.5805  0.9492 -1.4795
 6639TIP3   OH241407   5.973   1.534  10.413 -0.4011  0.2999  0.3208
 6639TIP3    H141408   6.066   1.527  10.432 -0.3879 -0.6623 -0.0303
 6639TIP3    H241409   5.968   1.576  10.328 -0.3637  1.8790  1.0561
 6640TIP3   OH241410   1.797   6.426  15.954  0.5304 -0.0304  0.2400
 6640TIP3    H141411   1.788   6.390  16.043  0.7978  0.7824  0.6098
 6640TIP3    H241412   1.724   6.387  15.905 -0.3796  0.4676  1.1449
 6641TIP3   OH241413   6.487   3.761  11.633  0.0598  0.2461  0.3739
 6641TIP3    H141414   6.542   3.795  11.563  1.1393  1.2890  1.6806
 6641TIP3    H241415   6.535   3.780  11.713 -1.8346  0.4968  1.5204
 6642TIP3   OH241416   2.040   4.977  13.693  1.1362 -0.2479  0.1560
 6642TIP3    H141417   2.131   5.007  13.698  1.0810 -0.1663  0.7454
 6642TIP3    H241418   2.025   4.961  13.600  1.6004  0.2145 -0.0022
 6643TIP3   OH241419   5.810   5.895   5.706  0.0888 -0.2151 -0.6286
 6643TIP3    H141420   5.769   5.980   5.693 -0.8311 -0.7612 -1.4499
 6643TIP3    H241421   5.900   5.915   5.732 -1.2934  1.0577  3.9216
 6644TIP3   OH241422   6.205   0.881  14.231 -0.0443 -0.3177 -0.6029
 6644TIP3    H141423   6.199   0.977  14.235  0.4773 -0.2088 -1.7662
 6644TIP3    H241424   6.171   0.859  14.144  1.3941 -1.0239 -1.0210
 6645TIP3   OH241425   1.667   3.122  13.894 -0.1363 -0.5272 -0.2767
 6645TIP3    H141426   1.705   3.201  13.931  1.5268 -1.5011  0.2091
 6645TIP3    H241427   1.585   3.110  13.942 -0.7882  1.2608 -0.8646
 6646TIP3   OH241428   1.397   0.390   2.569 -0.3460  0.2179  1.0449
 6646TIP3    H141429   1.489   0.378   2.592  0.1324  1.1631 -0.2012
 6646TIP3    H241430   1.394   0.479   2.533 -1.7050  0.1110  0.8649
 6647TIP3   OH241431   2.447   5.098  16.962  0.1499 -0.1839 -0.2479
 6647TIP3    H141432   2.428   5.017  17.009  1.4925 -0.9804 -1.0139
 6647TIP3    H241433   2.483   5.069  16.878  0.0730  1.2114 -0.7942
 6648TIP3   OH241434   3.976   2.285  14.865 -0.1469  0.1443  0.2563
 6648TIP3    H141435   3.967   2.377  14.889  0.0969  0.0776  0.6108
 6648TIP3    H241436   4.050   2.283  14.805  0.1064  0.1275  0.5646
 6649TIP3   OH241437   3.231   4.722  13.979  0.3868  1.2484  0.0199
 6649TIP3    H141438   3.264   4.783  14.046  0.8293 -1.5543  2.5640
 6649TIP3    H241439   3.276   4.749  13.899  2.7939  2.4835  1.6344
 6650TIP3   OH241440   0.956   5.958  16.441 -0.1175 -0.2621 -0.7603
 6650TIP3    H141441   0.953   5.894  16.512 -0.0878 -0.5534 -1.0182
 6650TIP3    H241442   0.898   5.922  16.374 -0.4389  0.1983 -0.7301
 6651TIP3   OH241443   2.247   5.382   2.313  0.2163  0.3360  0.4907
 6651TIP3    H141444   2.306   5.412   2.382  0.4857  0.1277  0.3517
 6651TIP3    H241445   2.265   5.440   2.240  0.2451  0.2779  0.4514
 6652TIP3   OH241446   2.674   6.656  16.673 -0.0978  0.3677  0.1475
 6652TIP3    H141447   2.616   6.638  16.747 -1.6659 -0.5478 -1.2339
 6652TIP3    H241448   2.749   6.599  16.686 -1.6117 -1.8512 -0.3131
 6653TIP3   OH241449   0.367   2.324   3.458 -0.1286  0.1290 -0.1080
 6653TIP3    H141450   0.385   2.392   3.393 -1.1689 -0.4609 -1.0511
 6653TIP3    H241451   0.454   2.291   3.482  0.2707  0.0744 -1.5181
 6654TIP3   OH241452   5.021   1.526  16.116  0.5733 -0.1842 -0.2143
 6654TIP3    H141453   4.968   1.465  16.168 -0.6693  0.2615 -0.9290
 6654TIP3    H241454   5.042   1.597  16.177 -0.5948  0.1715 -0.2184
 6655TIP3   OH241455   2.469   1.052   1.717 -0.3711  0.2605 -0.3789
 6655TIP3    H141456   2.497   1.122   1.776 -1.2052 -0.7190  1.2587
 6655TIP3    H241457   2.484   1.087   1.629  2.5262  1.1263  0.3634
 6656TIP3   OH241458   2.676   3.815  12.910  0.5719  0.1489 -0.3305
 6656TIP3    H141459   2.770   3.833  12.910  0.3320  1.5853  0.3926
 6656TIP3    H241460   2.639   3.885  12.963 -0.8709 -0.6457 -0.2396
 6657TIP3   OH241461   1.665   6.797  14.619  0.2270 -0.4317  0.7369
 6657TIP3    H141462   1.688   6.825  14.531  1.2131 -1.0865  0.7728
 6657TIP3    H241463   1.629   6.709  14.608 -0.3085 -0.2406  0.9161
 6658TIP3   OH241464   6.617   4.689   5.891  0.2668  0.4931 -0.0447
 6658TIP3    H141465   6.580   4.601   5.902  1.0499  0.1083 -0.3749
 6658TIP3    H241466   6.670   4.702   5.970  0.3112  0.5909 -0.0915
 6659TIP3   OH241467   0.280   6.728  12.553 -0.0765 -0.2735  0.1446
 6659TIP3    H141468   0.292   6.818  12.521 -0.1157 -0.8873 -1.7276
 6659TIP3    H241469   0.341   6.721  12.626 -1.5328  1.8789  1.7093
 6660TIP3   OH241470   5.153   5.524  13.396 -0.2729 -0.2655  0.4853
 6660TIP3    H141471   5.227   5.537  13.454 -0.6115 -0.9725  1.1023
 6660TIP3    H241472   5.122   5.612  13.375  0.6959  0.0266  0.2727
 6661TIP3   OH241473   6.750   5.341  16.911 -0.2009  0.3378  0.3944
 6661TIP3    H141474   6.661   5.368  16.887 -0.1069  1.6815  1.4147
 6661TIP3    H241475   6.741   5.249  16.936 -1.0458  0.0882 -0.7621
 6662TIP3   OH241476   4.615   5.451   6.143  0.2592 -0.9484 -0.3482
 6662TIP3    H141477   4.523   5.472   6.131  0.7379  0.8654 -1.3157
 6662TIP3    H241478   4.619   5.405   6.227 -1.3943 -0.1245  0.2188
 6663TIP3   OH241479   2.365   2.984  15.808  0.0196 -0.3412 -0.5095
 6663TIP3    H141480   2.459   2.978  15.794  0.1870  2.9265 -1.6133
 6663TIP3    H241481   2.354   3.062  15.862 -2.0451 -1.0649  0.2071
 6664TIP3   OH241482   2.519   2.374  15.245  0.1363 -0.2198  0.1886
 6664TIP3    H141483   2.505   2.371  15.150  0.1547  0.2652  0.1685
 6664TIP3    H241484   2.602   2.328  15.258  1.3376  1.6647 -0.2951
 6665TIP3   OH241485   6.575   4.315  12.101 -0.0390  0.4710  0.2565
 6665TIP3    H141486   6.577   4.247  12.033  0.7489 -0.8039  1.4841
 6665TIP3    H241487   6.494   4.298  12.148 -0.6400  1.4244 -0.4175
 6666TIP3   OH241488   5.318   4.438   4.687 -0.1070 -0.5186  0.6507
 6666TIP3    H141489   5.354   4.488   4.614 -1.4118 -1.5081 -0.7351
 6666TIP3    H241490   5.376   4.362   4.695 -0.0461 -0.4841  0.5412
 6667TIP3   OH241491   0.118   0.673   0.485  0.0513 -0.7105  0.5028
 6667TIP3    H141492   0.087   0.762   0.474 -0.4729 -0.6868  1.9158
 6667TIP3    H241493   0.198   0.682   0.538  0.3302 -1.0455  0.1488
 6668TIP3   OH241494   3.392   2.081   3.303 -0.1760  0.3314 -0.5358
 6668TIP3    H141495   3.463   2.115   3.247 -1.1392  3.5111 -0.0384
 6668TIP3    H241496   3.436   2.043   3.378  1.0842  1.5396 -0.6171
 6669TIP3   OH241497   4.534   2.863  12.295  0.0746  0.4909  0.1957
 6669TIP3    H141498   4.542   2.935  12.232 -0.6766  0.6711  0.2940
 6669TIP3    H241499   4.556   2.903  12.379  0.9803  0.2740  0.0695
 6670TIP3   OH241500   2.099   4.364   1.231  0.1315  0.1176 -0.0346
 6670TIP3    H141501   2.123   4.345   1.140 -0.4296 -2.2741  0.2686
 6670TIP3    H241502   2.006   4.389   1.226 -0.6278 -2.4614  0.0965
 6671TIP3   OH241503   2.021   2.822   2.729  0.3862 -0.4518 -0.2557
 6671TIP3    H141504   1.971   2.864   2.659  0.4537 -2.2301 -1.4348
 6671TIP3    H241505   2.093   2.883   2.747 -1.8037  1.8921  1.0892
 6672TIP3   OH241506   1.367   0.424  15.095 -0.4324  0.2935  0.0240
 6672TIP3    H141507   1.453   0.466  15.094 -0.0117 -0.5108  0.9594
 6672TIP3    H241508   1.313   0.481  15.150  0.2245 -0.5000  1.5529
 6673TIP3   OH241509   0.120   0.333  10.780  0.1578 -0.1694  0.3489
 6673TIP3    H141510   0.098   0.352  10.871  0.5940  0.5717  0.3047
 6673TIP3    H241511   0.111   0.238  10.773 -0.0772 -0.2094  1.1099
 6674TIP3   OH241512   1.074   2.404   3.370 -0.3662  0.2331 -0.8006
 6674TIP3    H141513   1.007   2.337   3.381 -1.2720  1.3584  1.0367
 6674TIP3    H241514   1.031   2.472   3.319  0.9284 -0.9938 -3.7364
 6675TIP3   OH241515   4.611   2.267   3.504  0.1843  0.4850  0.1878
 6675TIP3    H141516   4.695   2.241   3.543 -0.2440  1.1828  1.6456
 6675TIP3    H241517   4.547   2.213   3.550 -0.1855  0.0356 -0.8454
 6676TIP3   OH241518   5.004   6.261   4.636  0.1979 -0.0676 -0.3312
 6676TIP3    H141519   5.080   6.292   4.587  1.6222  2.2307  2.9469
 6676TIP3    H241520   5.036   6.187   4.686  0.3731  0.8925  1.0424
 6677TIP3   OH241521   3.238   0.539   4.988  0.0113  0.4901 -0.2152
 6677TIP3    H141522   3.182   0.462   4.981  0.1378  0.5134 -2.0658
 6677TIP3    H241523   3.287   0.540   4.905  1.3658  1.5182  0.5636
 6678TIP3   OH241524   2.606   3.657   3.108 -0.2742 -0.1373 -0.0422
 6678TIP3    H141525   2.685   3.703   3.137 -0.1565 -0.5741  0.3528
 6678TIP3    H241526   2.561   3.633   3.189 -0.8916  0.2334 -0.2708
 6679TIP3   OH241527   3.644   3.427  11.576  0.2656  0.1246  0.0075
 6679TIP3    H141528   3.668   3.478  11.653  0.1878 -0.1782  0.2365
 6679TIP3    H241529   3.553   3.403  11.591  0.3227 -0.1398 -0.0648
 6680TIP3   OH241530   2.450   5.981  11.163  0.1422 -0.3260 -0.2766
 6680TIP3    H141531   2.452   6.036  11.084 -3.8025  0.0126 -0.3254
 6680TIP3    H241532   2.471   6.042  11.235  0.5753  0.1109 -0.7657
 6681TIP3   OH241533   4.640   0.416  11.002 -0.1326 -0.6405  0.1323
 6681TIP3    H141534   4.649   0.511  11.005 -2.8490 -0.3282  1.9067
 6681TIP3    H241535   4.563   0.400  10.946 -0.2534 -1.7140  0.5652
 6682TIP3   OH241536   1.721   1.756  14.863 -0.1629 -0.2163  0.3768
 6682TIP3    H141537   1.811   1.738  14.835  0.5004  0.8409  1.7161
 6682TIP3    H241538   1.686   1.671  14.888  0.6035 -0.5842  0.2254
 6683TIP3   OH241539   0.722   5.594   6.890  0.2074  0.2705  0.7113
 6683TIP3    H141540   0.696   5.640   6.810  0.3977  0.6464  0.8652
 6683TIP3    H241541   0.650   5.533   6.906  2.0209 -2.9592 -2.1396
 6684TIP3   OH241542   0.862   3.434  11.259 -0.4790 -0.4385 -0.2782
 6684TIP3    H141543   0.776   3.453  11.222 -0.5461 -0.4964 -0.1518
 6684TIP3    H241544   0.905   3.380  11.193 -0.9993 -1.4546  0.1865
 6685TIP3   OH241545   5.850   6.398  16.893  0.4056  0.1905 -0.6232
 6685TIP3    H141546   5.877   6.366  16.979  1.0029  1.3382 -0.3661
 6685TIP3    H241547   5.765   6.440  16.909  0.1448 -0.2748 -0.7554
 6686TIP3   OH241548   4.686   4.110  13.347 -0.0385 -0.4095  0.2139
 6686TIP3    H141549   4.747   4.140  13.280 -0.8205 -0.4851 -0.5476
 6686TIP3    H241550   4.642   4.189  13.377 -1.6319 -0.6376 -1.3299
 6687TIP3   OH241551   1.998   3.671  10.977  0.1065  0.4795 -0.0210
 6687TIP3    H141552   1.905   3.691  10.975 -0.4646 -1.5302  2.2866
 6687TIP3    H241553   2.018   3.658  11.070  2.2262 -1.1078 -0.6221
 6688TIP3   OH241554   0.518   2.580  15.202  0.1084  0.4685 -0.2224
 6688TIP3    H141555   0.549   2.646  15.263  0.6481 -0.9125  1.0669
 6688TIP3    H241556   0.515   2.499  15.253 -0.0565 -0.6130 -1.8561
 6689TIP3   OH241557   0.374   6.646   0.659 -0.3801 -0.1522 -0.6007
 6689TIP3    H141558   0.287   6.660   0.622 -1.1617  1.5019  1.6896
 6689TIP3    H241559   0.424   6.723   0.633 -0.1297 -0.2460 -0.3958
 6690TIP3   OH241560   5.577   6.158   2.553 -0.1524 -0.2801 -0.2868
 6690TIP3    H141561   5.672   6.173   2.562  0.0326 -0.6344 -1.5270
 6690TIP3    H241562   5.555   6.103   2.629  0.8788 -1.1832 -0.6093
 6691TIP3   OH241563   1.785   4.854  15.461 -0.4779 -0.3043  0.5065
 6691TIP3    H141564   1.866   4.825  15.505 -0.2870  0.3692  0.6081
 6691TIP3    H241565   1.759   4.932  15.510 -0.0820  0.6596 -0.7832
 6692TIP3   OH241566   4.550   5.798   4.339 -0.0884 -0.1903  0.3587
 6692TIP3    H141567   4.471   5.841   4.373  0.4013 -0.0176  1.2981
 6692TIP3    H241568   4.517   5.722   4.291 -0.9091  0.6334 -0.4311
 6693TIP3   OH241569   0.163   1.788  11.045 -0.4066  0.4825 -0.1915
 6693TIP3    H141570   0.163   1.717  11.110  2.0148  0.5911  0.0336
 6693TIP3    H241571   0.172   1.743  10.961 -2.4433  0.4010 -0.4165
 6694TIP3   OH241572   3.782   6.699   3.625 -0.3832 -0.1869  0.9546
 6694TIP3    H141573   3.811   6.639   3.556 -0.9791 -0.2919  0.7871
 6694TIP3    H241574   3.706   6.744   3.587  1.0165  1.9001  0.4444
 6695TIP3   OH241575   1.853   0.489  14.873 -0.6311  0.0430 -0.5597
 6695TIP3    H141576   1.906   0.466  14.950 -1.2849  1.1499  0.2559
 6695TIP3    H241577   1.781   0.427  14.874 -1.3741  0.8890  0.5381
 6696TIP3   OH241578   3.376   6.234   3.342  0.0102 -0.2904 -0.4823
 6696TIP3    H141579   3.292   6.220   3.385  0.9634 -0.1444  1.5448
 6696TIP3    H241580   3.370   6.323   3.306 -0.0300  0.5720  1.4713
 6697TIP3   OH241581   4.633   4.244  14.272  0.3338 -0.8838  0.0612
 6697TIP3    H141582   4.629   4.149  14.288  0.7963 -0.8256  0.5380
 6697TIP3    H241583   4.576   4.257  14.196 -1.2359 -1.2877  1.1258
 6698TIP3   OH241584   6.471   0.455  15.442  0.2407 -0.4043 -0.2086
 6698TIP3    H141585   6.499   0.366  15.419  1.0474  0.1844 -1.5935
 6698TIP3    H241586   6.476   0.504  15.361 -3.4325  0.1774 -0.2505
 6699TIP3   OH241587   3.884   0.894   5.579  0.6953 -0.3519 -0.0740
 6699TIP3    H141588   3.933   0.972   5.552 -3.1648  1.8591 -1.4879
 6699TIP3    H241589   3.903   0.830   5.510 -0.0953  1.2433 -1.8609
 6700TIP3   OH241590   4.022   4.798   5.245  0.5282 -0.3917 -0.2430
 6700TIP3    H141591   3.965   4.791   5.322  0.5279 -0.5828 -0.2602
 6700TIP3    H241592   4.111   4.802   5.281  0.5427 -0.7077 -0.2415
 6701TIP3   OH241593   0.362   2.624  12.619 -0.1854  0.0075  0.2555
 6701TIP3    H141594   0.367   2.658  12.708 -1.5020 -0.8697  0.6948
 6701TIP3    H241595   0.315   2.541  12.627 -1.7334  0.6541 -1.4628
 6702TIP3   OH241596   0.808   1.655  12.237 -0.1295 -0.6240  0.4591
 6702TIP3    H141597   0.736   1.593  12.236 -1.3084  0.6998 -0.5538
 6702TIP3    H241598   0.774   1.733  12.193  1.8314  0.1532  0.1971
 6703TIP3   OH241599   1.848   2.733   6.249 -0.2231  0.1592 -0.1927
 6703TIP3    H141600   1.797   2.688   6.182 -1.7061  0.9796  0.3518
 6703TIP3    H241601   1.938   2.730   6.216 -0.4536 -2.0497 -0.7726
 6704TIP3   OH241602   0.080   4.932   5.476  0.5214  0.5465 -0.5134
 6704TIP3    H141603   0.143   4.881   5.526 -1.8696 -1.0007  1.1310
 6704TIP3    H241604   0.115   5.021   5.479  2.0741 -0.0344  1.2436
 6705TIP3   OH241605   2.938   4.226  13.429 -0.0680 -0.4757  1.0757
 6705TIP3    H141606   2.879   4.153  13.412 -1.2308  0.5821  0.4450
 6705TIP3    H241607   2.960   4.217  13.522 -0.8088 -1.1801  1.1961
 6706TIP3   OH241608   3.315   2.679   2.218 -0.2021  0.4166 -0.6108
 6706TIP3    H141609   3.393   2.641   2.177  1.1190  2.2032  0.0856
 6706TIP3    H241610   3.247   2.673   2.151  1.3646  1.5422 -2.4057
 6707TIP3   OH241611   0.568   4.514   5.712  0.4095 -0.6012  0.3279
 6707TIP3    H141612   0.586   4.509   5.618  2.6497  0.5941  0.6179
 6707TIP3    H241613   0.649   4.547   5.750 -0.0861 -2.0272  2.8419
 6708TIP3   OH241614   1.760   4.853  16.615  0.6827 -0.2030 -0.1285
 6708TIP3    H141615   1.811   4.773  16.604  0.1070 -0.5750 -0.0982
 6708TIP3    H241616   1.783   4.884  16.703 -0.2912 -1.2047  0.5064
 6709TIP3   OH241617   2.708   1.909   4.108 -0.2708 -0.6267 -1.0664
 6709TIP3    H141618   2.669   1.936   4.192  0.1883 -1.8219 -0.4460
 6709TIP3    H241619   2.702   1.987   4.053 -3.4377 -0.7001 -0.9875
 6710TIP3   OH241620   6.072   1.275  14.521  0.6207  0.8885 -0.1187
 6710TIP3    H141621   6.144   1.233  14.475  2.2498  1.2210  1.9719
 6710TIP3    H241622   6.052   1.216  14.593 -0.4522  1.3524 -0.0128
 6711TIP3   OH241623   6.601   2.661  13.686  0.2103  0.2744  0.2632
 6711TIP3    H141624   6.646   2.639  13.604  0.8616 -0.3307  0.7728
 6711TIP3    H241625   6.670   2.693  13.744 -0.5705  3.0911 -0.1883
 6712TIP3   OH241626   6.347   1.975   0.355  0.0858  0.0315 -0.3229
 6712TIP3    H141627   6.254   1.971   0.334 -0.3407 -2.1157  1.6073
 6712TIP3    H241628   6.350   1.999   0.447  1.2513 -2.1697  0.2966
 6713TIP3   OH241629   5.436   6.206   0.862 -0.3232  0.5410 -0.0057
 6713TIP3    H141630   5.434   6.143   0.790 -1.1149  1.5784 -0.9282
 6713TIP3    H241631   5.529   6.215   0.884 -0.0795  0.1366 -0.8457
 6714TIP3   OH241632   2.754   3.836  16.738  0.1148 -0.5819  0.0491
 6714TIP3    H141633   2.735   3.849  16.831  0.4368  0.7624 -0.0609
 6714TIP3    H241634   2.693   3.768  16.711 -1.2101  0.2510  0.8409
 6715TIP3   OH241635   3.351   5.579  15.798  0.9946  0.5887  0.4414
 6715TIP3    H141636   3.400   5.501  15.825 -2.1752 -1.6681  0.2513
 6715TIP3    H241637   3.311   5.611  15.879  1.8086  1.7358  0.4162
 6716TIP3   OH241638   3.757   3.401  12.503  0.2679  0.0473  0.5227
 6716TIP3    H141639   3.802   3.376  12.584 -0.4455 -1.8603  0.3796
 6716TIP3    H241640   3.827   3.424  12.442  0.9513 -0.9588  0.9105
 6717TIP3   OH241641   0.343   5.003   1.223  0.0308 -0.3626 -0.1225
 6717TIP3    H141642   0.361   4.909   1.234  0.6929 -0.4759 -1.8303
 6717TIP3    H241643   0.373   5.022   1.135  2.0024  1.9627  0.9415
 6718TIP3   OH241644   3.834   2.079  13.115  0.3456  0.1807  0.6453
 6718TIP3    H141645   3.888   2.123  13.180 -1.2853  0.9333  1.5692
 6718TIP3    H241646   3.803   2.000  13.159 -0.9868  0.8331  0.9263
 6719TIP3   OH241647   1.069   2.027   2.794  0.0995 -0.6020 -0.0575
 6719TIP3    H141648   1.053   1.980   2.712  0.0339 -0.0183 -0.3826
 6719TIP3    H241649   1.147   2.080   2.776 -0.7342  0.6072 -0.2163
 6720TIP3   OH241650   5.631   6.431  15.530 -0.5432  0.0523 -0.2017
 6720TIP3    H141651   5.691   6.424  15.457  0.0419  2.4950 -0.0309
 6720TIP3    H241652   5.549   6.392  15.498  0.0514 -0.0083 -1.6961
 6721TIP3   OH241653   1.910   4.632   2.082 -0.4539 -0.4613 -0.0853
 6721TIP3    H141654   1.910   4.706   2.022  0.8330 -0.0875  0.3528
 6721TIP3    H241655   1.861   4.663   2.159 -1.0794 -0.5449 -0.4373
 6722TIP3   OH241656   3.275   4.781   2.693  0.4557  0.4644  0.6307
 6722TIP3    H141657   3.362   4.789   2.653  0.1012 -0.5291 -0.4019
 6722TIP3    H241658   3.275   4.845   2.764  1.5819  1.4004 -0.1678
 6723TIP3   OH241659   5.810   3.056   0.938 -0.0173  0.4889 -0.1785
 6723TIP3    H141660   5.867   3.133   0.940  1.7206 -0.7017  2.3864
 6723TIP3    H241661   5.784   3.043   1.029 -1.0957 -1.3695 -0.6848
 6724TIP3   OH241662   0.976   3.872   3.192  0.1567  0.2325  0.1419
 6724TIP3    H141663   0.999   3.964   3.180 -2.0793  0.7299 -0.8907
 6724TIP3    H241664   0.965   3.838   3.103 -3.0218  0.1444  0.4422
 6725TIP3   OH241665   2.901   5.431   4.472 -0.2577 -0.0523 -0.3381
 6725TIP3    H141666   2.868   5.442   4.562 -1.0451  0.2427 -0.6516
 6725TIP3    H241667   2.835   5.473   4.417  0.5839  0.4258 -1.0138
 6726TIP3   OH241668   5.025   4.134  14.218 -0.1622 -0.5885  0.1965
 6726TIP3    H141669   4.961   4.174  14.159 -0.2338  0.5701  1.0311
 6726TIP3    H241670   5.109   4.152  14.176 -0.2991 -1.0139 -0.2685
 6727TIP3   OH241671   0.841   3.551  17.094  0.0906 -0.4321  0.4598
 6727TIP3    H141672   0.849   3.492  17.169  2.7364  0.3569  0.9022
 6727TIP3    H241673   0.890   3.630  17.120  0.9021 -0.0423 -1.9724
 6728TIP3   OH241674   6.288   4.774   6.425  1.0990  0.5923 -0.1396
 6728TIP3    H141675   6.286   4.712   6.352  0.7549 -1.4731  1.5000
 6728TIP3    H241676   6.196   4.788   6.447  1.2065  0.9010  0.1161
 6729TIP3   OH241677   2.705   5.549   3.086  0.3208 -0.3513 -0.0388
 6729TIP3    H141678   2.614   5.531   3.061  0.2878 -0.6785  0.2896
 6729TIP3    H241679   2.701   5.557   3.182  0.2213  2.1555 -0.2021
 6730TIP3   OH241680   5.353   3.556   0.887 -0.0381  0.0687 -0.1708
 6730TIP3    H141681   5.379   3.639   0.928  0.2422 -0.6318  1.1095
 6730TIP3    H241682   5.340   3.496   0.960 -1.3557 -0.7221 -1.0078
 6731TIP3   OH241683   6.493   5.108  12.166 -0.0731  0.7341  0.0594
 6731TIP3    H141684   6.490   5.166  12.242 -1.1232  0.8599 -0.0732
 6731TIP3    H241685   6.558   5.148  12.108  1.5379  0.0829  1.3108
 6732TIP3   OH241686   6.478   2.515  12.903 -0.5729 -0.6439 -0.7989
 6732TIP3    H141687   6.474   2.453  12.976 -2.1851 -0.2781 -0.5199
 6732TIP3    H241688   6.571   2.521  12.881  0.0646 -0.3102  1.6206
 6733TIP3   OH241689   6.803   2.904  14.111  0.5728  0.4713 -0.6978
 6733TIP3    H141690   6.888   2.861  14.122 -0.1833 -1.2512 -1.2657
 6733TIP3    H241691   6.740   2.833  14.107 -0.9945  1.7342  0.2241
 6734TIP3   OH241692   3.482   2.904  13.531 -0.1755 -0.4083  0.0383
 6734TIP3    H141693   3.461   2.987  13.573 -1.1115 -0.9069  0.5892
 6734TIP3    H241694   3.422   2.899  13.456 -1.1588 -1.2301  0.8463
 6735TIP3   OH241695   3.201   4.552  15.188  0.0122 -0.1333 -0.4773
 6735TIP3    H141696   3.133   4.597  15.237  1.3753  1.1174  0.3392
 6735TIP3    H241697   3.273   4.542  15.250  0.8146 -0.8667 -1.4903
 6736TIP3   OH241698   2.935   5.572   3.909 -0.0407 -0.1216 -0.2480
 6736TIP3    H141699   2.997   5.504   3.886 -0.1065  0.5313 -2.6857
 6736TIP3    H241700   2.899   5.601   3.825 -1.5291  1.4861  0.8627
 6737TIP3   OH241701   3.164   0.338   4.330  0.1736 -0.2309  0.1244
 6737TIP3    H141702   3.098   0.274   4.304 -1.7629  1.5077  0.5856
 6737TIP3    H241703   3.166   0.333   4.426 -1.4625  1.7309  0.3110
 6738TIP3   OH241704   5.234   4.629   2.080 -0.0788 -0.7924  0.1957
 6738TIP3    H141705   5.258   4.543   2.113 -2.1310 -1.4534  0.1432
 6738TIP3    H241706   5.201   4.676   2.156 -0.5207 -0.6714 -0.0622
 6739TIP3   OH241707   2.835   5.866  15.294  0.2573  0.1937  0.1661
 6739TIP3    H141708   2.924   5.837  15.315  0.4631  0.5315 -0.2289
 6739TIP3    H241709   2.823   5.946  15.345  0.8627  1.1755 -1.1880
 6740TIP3   OH241710   1.351   3.163  10.757  0.4104 -0.6742  0.6116
 6740TIP3    H141711   1.414   3.136  10.690  0.3927 -1.5656  0.9399
 6740TIP3    H241712   1.395   3.234  10.804  1.1737 -1.2646  0.8162
 6741TIP3   OH241713   6.422   3.543   3.051  0.2995  0.0496  0.2887
 6741TIP3    H141714   6.513   3.554   3.076  0.2002  0.0613  0.6477
 6741TIP3    H241715   6.409   3.449   3.047  0.1678  0.0415  0.8320
 6742TIP3   OH241716   0.077   1.523   3.425 -0.5400  0.3070 -0.4072
 6742TIP3    H141717   0.157   1.520   3.478 -0.6815 -0.5555 -0.2187
 6742TIP3    H241718   0.028   1.597   3.460 -0.4172  0.0296  0.3762
 6743TIP3   OH241719   6.705   1.797   0.617 -0.9425 -0.2606 -0.3611
 6743TIP3    H141720   6.632   1.735   0.608 -1.4679  0.5941 -2.7185
 6743TIP3    H241721   6.761   1.777   0.542  0.6895 -0.1367  0.7902
 6744TIP3   OH241722   4.292   4.096   5.450  0.1898  0.7642  0.2869
 6744TIP3    H141723   4.359   4.031   5.428  0.0190  0.9333 -0.8079
 6744TIP3    H241724   4.327   4.178   5.417 -1.2379  0.6032 -1.8561
 6745TIP3   OH241725   1.496   0.412   4.074  0.0835  0.5410  0.2637
 6745TIP3    H141726   1.498   0.489   4.017  1.8933  1.5089  1.5453
 6745TIP3    H241727   1.549   0.347   4.028  1.0029  1.0902  0.5388
 6746TIP3   OH241728   3.327   1.302   0.074  0.1812 -0.6437  0.8745
 6746TIP3    H141729   3.423   1.306   0.071  0.1761 -0.2990  1.1271
 6746TIP3    H241730   3.308   1.254   0.154  0.1894 -3.7146 -0.7946
 6747TIP3   OH241731   2.856   2.897   4.726 -0.2643  0.0079  0.4215
 6747TIP3    H141732   2.915   2.960   4.768  0.2167  0.9104 -1.4848
 6747TIP3    H241733   2.903   2.814   4.732 -0.6800 -0.1369  2.5214
 6748TIP3   OH241734   5.316   6.237   3.751  0.0075  0.4290 -0.1662
 6748TIP3    H141735   5.267   6.189   3.819 -0.4066  2.6533  1.1875
 6748TIP3    H241736   5.382   6.286   3.799  1.3525  0.1724 -1.6684
 6749TIP3   OH241737   3.553   3.314  15.935 -0.6630 -0.7798  0.2057
 6749TIP3    H141738   3.554   3.271  16.021  0.3838 -0.8334  0.1858
 6749TIP3    H241739   3.595   3.252  15.876  0.5072  0.0709  0.0986
 6750TIP3   OH241740   6.130   2.154   2.299  0.1117  0.7511 -0.0532
 6750TIP3    H141741   6.090   2.223   2.247  0.5323  0.6461 -0.5260
 6750TIP3    H241742   6.058   2.116   2.350  0.1937  2.9829  1.9113
 6751TIP3   OH241743   3.298   3.042  10.350  0.3078  0.6491  0.8060
 6751TIP3    H141744   3.373   3.054  10.408 -0.2716 -0.4500  1.8315
 6751TIP3    H241745   3.266   2.954  10.370 -0.0718  0.3356 -1.0257
 6752TIP3   OH241746   3.827   2.469   4.845  0.4785  0.0086  0.7569
 6752TIP3    H141747   3.793   2.550   4.884  1.5000  1.0770 -0.5179
 6752TIP3    H241748   3.913   2.457   4.886 -0.3273 -1.3853  2.1740
 6753TIP3   OH241749   1.258   0.596   1.642  0.0082 -0.2839 -0.1480
 6753TIP3    H141750   1.335   0.653   1.647  2.2803 -3.1271 -0.1705
 6753TIP3    H241751   1.229   0.604   1.551  2.9254 -2.1577 -1.4061
 6754TIP3   OH241752   4.845   4.309  12.572 -0.3528  0.4055 -0.0423
 6754TIP3    H141753   4.817   4.217  12.567  1.7261 -0.2666 -0.1383
 6754TIP3    H241754   4.763   4.358  12.578 -1.6207 -1.3156 -1.8324
 6755TIP3   OH241755   4.190   3.430  11.785  0.5643  0.0365 -0.5291
 6755TIP3    H141756   4.246   3.366  11.741  1.9597  1.4233 -0.8591
 6755TIP3    H241757   4.101   3.399  11.769  1.1205 -0.7145 -2.4186
 6756TIP3   OH241758   5.179   1.609  15.049  0.4356  0.4175 -0.4686
 6756TIP3    H141759   5.151   1.533  15.099  0.3533  0.1263 -0.9549
 6756TIP3    H241760   5.151   1.591  14.960 -1.5607  1.9713 -0.2310
 6757TIP3   OH241761   4.678   1.777  12.060  0.3144  0.1912 -0.1357
 6757TIP3    H141762   4.682   1.871  12.073  0.7565 -0.0507  1.8253
 6757TIP3    H241763   4.768   1.747  12.073  0.1152 -0.5383 -0.3808
 6758TIP3   OH241764   0.179   3.910   1.522 -0.1892  0.4264 -0.3818
 6758TIP3    H141765   0.110   3.965   1.558  0.7666  0.5920  1.3471
 6758TIP3    H241766   0.215   3.865   1.599  1.7063  0.4654 -1.1963
 6759TIP3   OH241767   6.392   2.358  10.899  0.3073 -0.2730  0.3697
 6759TIP3    H141768   6.343   2.285  10.862 -1.7019  0.0654  2.1966
 6759TIP3    H241769   6.392   2.424  10.829 -0.3569 -0.9239 -0.2711
 6760TIP3   OH241770   2.489   5.606  15.798 -0.5240 -0.3308  0.3549
 6760TIP3    H141771   2.464   5.668  15.729 -0.7952 -1.0649 -0.2165
 6760TIP3    H241772   2.419   5.541  15.799  0.9521 -2.0218 -0.7684
 6761TIP3   OH241773   6.818   0.979  11.015 -0.7721  0.5699  1.0501
 6761TIP3    H141774   6.744   0.919  11.015 -2.4218  2.4404 -0.4413
 6761TIP3    H241775   6.895   0.924  11.001 -2.0306 -1.2941  1.2121
 6762TIP3   OH241776   5.285   2.234  15.848  0.1902  0.3849  0.4234
 6762TIP3    H141777   5.241   2.234  15.763 -0.8311 -0.6788  0.9332
 6762TIP3    H241778   5.286   2.143  15.875 -0.5802  0.8327  2.1025
 6763TIP3   OH241779   1.424   3.739  11.937 -0.0320  0.0166  0.4420
 6763TIP3    H141780   1.356   3.806  11.936 -0.2173 -0.1005  1.9224
 6763TIP3    H241781   1.438   3.721  12.030  0.8681 -1.1410  0.1118
 6764TIP3   OH241782   2.552   3.868  14.559 -0.3417 -0.0494  0.5170
 6764TIP3    H141783   2.538   3.808  14.486 -2.0312 -0.6460  1.2748
 6764TIP3    H241784   2.578   3.812  14.632  2.2567  0.6344  0.2111
 6765TIP3   OH241785   6.349   0.841   1.737  0.1777 -0.1066  0.9654
 6765TIP3    H141786   6.277   0.875   1.789 -0.6833  1.3170 -1.0416
 6765TIP3    H241787   6.428   0.870   1.782 -0.5358  2.8387  0.5082
 6766TIP3   OH241788   0.707   6.197  17.035 -0.0606  0.7473  0.6564
 6766TIP3    H141789   0.768   6.219  16.964 -1.3992  1.0932 -0.4445
 6766TIP3    H241790   0.645   6.271  17.036  0.2245  0.9935  2.5481
 6767TIP3   OH241791   3.252   2.481  13.526  0.1292 -0.0939  0.4861
 6767TIP3    H141792   3.204   2.546  13.475  1.0663  0.9723  0.9141
 6767TIP3    H241793   3.187   2.445  13.586 -1.2503 -2.1208 -2.0473
 6768TIP3   OH241794   5.709   6.157  13.590 -0.1177  0.5526  0.1597
 6768TIP3    H141795   5.767   6.134  13.663  1.6968  1.6577 -0.8682
 6768TIP3    H241796   5.628   6.185  13.632  0.6844  0.6137  1.7310
 6769TIP3   OH241797   4.475   4.874   1.556  0.0572  0.6804  0.7089
 6769TIP3    H141798   4.483   4.814   1.630  0.0832  2.1050  1.9166
 6769TIP3    H241799   4.413   4.831   1.497  0.8008 -0.9542  1.0496
 6770TIP3   OH241800   3.957   4.858  14.428 -0.0840 -0.2022 -0.1042
 6770TIP3    H141801   4.026   4.898  14.375 -0.0223 -0.2717 -0.0752
 6770TIP3    H241802   4.002   4.823  14.504 -0.0389 -0.9433 -0.4665
 6771TIP3   OH241803   6.712   1.840  12.654 -0.7101 -0.0667  0.0193
 6771TIP3    H141804   6.704   1.875  12.565  1.4355  1.1493  0.2477
 6771TIP3    H241805   6.735   1.916  12.708 -2.5734 -0.6568  1.7884
 6772TIP3   OH241806   6.410   3.880  15.175  0.9547  0.0881 -0.3069
 6772TIP3    H141807   6.465   3.875  15.253  1.0239  1.3741 -0.2482
 6772TIP3    H241808   6.410   3.973  15.152 -0.6983  0.0337 -0.6632
 6773TIP3   OH241809   6.491   2.651  15.985  0.0727 -0.4237  0.1498
 6773TIP3    H141810   6.529   2.735  15.959 -0.7705  0.0660  0.4601
 6773TIP3    H241811   6.531   2.587  15.925 -0.2678  0.3785 -0.9663
 6774TIP3   OH241812   0.119   4.113   5.692 -0.6554  0.0280 -0.3682
 6774TIP3    H141813   0.142   4.025   5.661  0.5429  0.3981 -0.6114
 6774TIP3    H241814   0.161   4.120   5.778 -0.0233  0.6347 -0.7092
 6775TIP3   OH241815   2.565   3.222   0.725 -0.0921 -0.2504  0.1171
 6775TIP3    H141816   2.566   3.157   0.655 -2.1552 -0.9984  0.7347
 6775TIP3    H241817   2.640   3.278   0.706  1.7846 -2.7584 -0.4452
 6776TIP3   OH241818   6.819   1.155   2.102  0.0063  0.0880  0.2547
 6776TIP3    H141819   6.848   1.083   2.045 -0.8243  0.0600 -0.1612
 6776TIP3    H241820   6.891   1.168   2.164  0.1942 -1.0744  0.3076
 6777TIP3   OH241821   0.618   2.188   5.006  0.0527  0.1535 -0.1486
 6777TIP3    H141822   0.558   2.193   5.080  1.0500  0.0138  0.6874
 6777TIP3    H241823   0.696   2.236   5.034  0.9670 -1.0207 -0.5808
 6778TIP3   OH241824   3.532   3.359  16.943 -0.1649 -0.5352 -0.1974
 6778TIP3    H141825   3.457   3.393  16.992 -0.0170 -0.9196  0.3154
 6778TIP3    H241826   3.524   3.264  16.953  0.7845 -0.5566  0.4681
 6779TIP3   OH241827   3.664   0.170  16.053 -0.4730 -0.3972 -0.1390
 6779TIP3    H141828   3.721   0.206  15.986 -0.8594 -0.0252 -0.2709
 6779TIP3    H241829   3.576   0.198  16.028 -0.7230 -1.0099  0.0342
 6780TIP3   OH241830   4.269   5.829  15.071 -0.0678 -0.2476 -0.3521
 6780TIP3    H141831   4.218   5.907  15.089 -0.5512 -0.3421 -1.2759
 6780TIP3    H241832   4.234   5.795  14.989 -1.2248 -2.5440  0.9946
 6781TIP3   OH241833   0.479   6.277  13.827 -0.4995 -0.2706 -0.1285
 6781TIP3    H141834   0.518   6.190  13.837  2.9840  0.7375 -2.9684
 6781TIP3    H241835   0.538   6.336  13.872 -1.6633  0.8896 -0.0512
 6782TIP3   OH241836   1.348   3.953  13.183  0.3259  0.3825  0.0975
 6782TIP3    H141837   1.326   3.882  13.243  1.1370  0.6484  0.7191
 6782TIP3    H241838   1.263   3.985  13.151 -0.0710 -0.3480  0.4053
 6783TIP3   OH241839   1.059   5.284   2.266 -0.1471  0.1536  0.1565
 6783TIP3    H141840   1.068   5.210   2.206 -0.0151  0.3706 -0.0931
 6783TIP3    H241841   0.980   5.264   2.317 -0.6050  0.2587 -0.5027
 6784TIP3   OH241842   1.922   0.250   3.269 -0.3330 -0.0017  0.3426
 6784TIP3    H141843   1.984   0.178   3.258 -0.1033  0.2041  0.2704
 6784TIP3    H241844   1.890   0.241   3.359 -0.9773 -0.7193  0.0473
 6785TIP3   OH241845   3.509   1.760   5.987  0.3518 -0.1804 -0.6476
 6785TIP3    H141846   3.561   1.837   5.964 -1.5614  1.0743 -0.9977
 6785TIP3    H241847   3.535   1.739   6.077  1.6606  0.1936 -0.9122
 6786TIP3   OH241848   2.181   2.578  11.357  0.4561  0.8839 -0.1023
 6786TIP3    H141849   2.237   2.538  11.290  1.0645  1.6168 -0.0446
 6786TIP3    H241850   2.196   2.672  11.347  0.9707  0.9776  1.4290
 6787TIP3   OH241851   5.634   3.746   5.758  0.6731 -0.4425  0.5578
 6787TIP3    H141852   5.726   3.739   5.784  0.5125 -1.2843  0.9385
 6787TIP3    H241853   5.611   3.659   5.726 -0.4825 -0.8048  2.1876
 6788TIP3   OH241854   1.806   5.563   3.599 -0.2213 -0.1080 -0.4064
 6788TIP3    H141855   1.716   5.534   3.582  0.0600 -1.2600 -0.0675
 6788TIP3    H241856   1.860   5.506   3.543  0.3311  0.1282 -0.1173
 6789TIP3   OH241857   0.756   3.875  16.805 -0.3216  0.3651 -0.0936
 6789TIP3    H141858   0.720   3.922  16.880 -1.7869  0.7369 -0.9874
 6789TIP3    H241859   0.773   3.944  16.740  0.4903 -0.0048 -0.2905
 6790TIP3   OH241860   4.860   4.623  11.475  0.2391  0.0996 -0.3952
 6790TIP3    H141861   4.926   4.581  11.419 -0.5195  0.7065 -1.7860
 6790TIP3    H241862   4.778   4.614  11.426 -0.7124 -0.5418  1.2628
 6791TIP3   OH241863   5.310   2.950  10.776 -0.1144 -0.0954 -0.4375
 6791TIP3    H141864   5.340   3.021  10.718 -1.0150 -0.9778 -2.0390
 6791TIP3    H241865   5.370   2.878  10.759 -1.2498 -0.8436 -1.3730
 6792TIP3   OH241866   5.584   5.631   4.306 -0.1210  0.2875 -0.3997
 6792TIP3    H141867   5.546   5.637   4.218 -0.3764 -1.2713 -0.4219
 6792TIP3    H241868   5.555   5.546   4.339  3.0605 -0.9126 -0.2980
 6793TIP3   OH241869   6.541   4.759   5.644  0.3677 -0.1662 -0.2555
 6793TIP3    H141870   6.547   4.669   5.612  0.5067 -0.9912  1.9211
 6793TIP3    H241871   6.584   4.756   5.729  1.2270  2.1979 -0.5387
 6794TIP3   OH241872   4.764   5.749  13.464 -0.2044 -0.0072 -0.0528
 6794TIP3    H141873   4.769   5.655  13.448 -1.4969  0.1193 -1.3109
 6794TIP3    H241874   4.743   5.756  13.557  0.6225 -0.9308  0.2186
 6795TIP3   OH241875   5.138   4.432  16.737  0.1356  0.0684  0.1062
 6795TIP3    H141876   5.084   4.496  16.692  1.0814  1.7013  1.2104
 6795TIP3    H241877   5.225   4.443  16.700 -0.0285 -1.9201 -1.0180
 6796TIP3   OH241878   5.899   5.183  11.821  0.2829  0.1347 -0.1734
 6796TIP3    H141879   5.900   5.134  11.903  0.6900 -0.5013 -0.5532
 6796TIP3    H241880   5.877   5.273  11.847 -0.2783 -0.1989  0.5496
 6797TIP3   OH241881   2.706   2.959   5.221  0.3204 -0.8862  0.1313
 6797TIP3    H141882   2.727   2.924   5.308 -1.5935  0.8638  1.3781
 6797TIP3    H241883   2.616   2.931   5.205 -0.9507  2.4236  0.7727
 6798TIP3   OH241884   2.273   5.351  13.425  0.5858  0.4513  0.3098
 6798TIP3    H141885   2.367   5.357  13.441  0.5027 -0.0104  0.9980
 6798TIP3    H241886   2.238   5.435  13.454  1.0769  1.6733 -2.3000
 6799TIP3   OH241887   0.795   0.473   0.812 -0.4506  0.5079 -0.2676
 6799TIP3    H141888   0.728   0.407   0.827  0.1655 -0.4852 -1.7054
 6799TIP3    H241889   0.793   0.489   0.718  0.9871  0.8206 -0.2756
 6800TIP3   OH241890   0.534   2.785  14.536  0.0572  0.1391  0.5101
 6800TIP3    H141891   0.549   2.843  14.610  1.8264  1.5203 -0.8514
 6800TIP3    H241892   0.499   2.841  14.468 -1.7072 -1.1391  0.2891
 6801TIP3   OH241893   2.632   0.712   2.834 -0.1323 -0.4906 -0.0566
 6801TIP3    H141894   2.656   0.625   2.867 -0.0432 -0.3482  0.2575
 6801TIP3    H241895   2.539   0.704   2.813  0.0773 -0.9094 -0.8433
 6802TIP3   OH241896   6.510   4.255  14.845  0.0293 -0.0417  0.3337
 6802TIP3    H141897   6.588   4.254  14.789 -0.9040  1.3744 -1.0818
 6802TIP3    H241898   6.441   4.215  14.792 -0.8223  1.0931  0.5463
 6803TIP3   OH241899   6.310   0.174   1.314  0.1611  0.2109  0.3901
 6803TIP3    H141900   6.345   0.261   1.298  2.1096 -0.5679  0.1310
 6803TIP3    H241901   6.285   0.141   1.227 -1.9371  1.0029  0.6412
 6804TIP3   OH241902   5.668   3.848  14.658 -0.2118  0.6518 -1.0380
 6804TIP3    H141903   5.617   3.771  14.682 -1.1611  1.4038 -0.5878
 6804TIP3    H241904   5.627   3.920  14.705  0.4539  1.4982 -1.7141
 6805TIP3   OH241905   0.728   1.159   4.533  0.2008  0.0170 -0.0914
 6805TIP3    H141906   0.687   1.236   4.574  0.8776 -0.2957  1.2115
 6805TIP3    H241907   0.808   1.145   4.583 -0.2992 -2.0131  0.2189
 6806TIP3   OH241908   3.040   6.442  14.077 -0.4663  0.0544 -0.3098
 6806TIP3    H141909   2.950   6.413  14.068 -1.0963  2.2500 -1.9059
 6806TIP3    H241910   3.057   6.493  13.998  1.8534  0.5305  0.4192
 6807TIP3   OH241911   4.406   3.887  17.123 -0.0606  0.4243  0.4369
 6807TIP3    H141912   4.458   3.806  17.121  1.6667  1.4376  1.4992
 6807TIP3    H241913   4.396   3.907  17.216 -3.7384 -0.4729  0.4024
 6808TIP3   OH241914   3.927   1.231  10.401  0.2605 -0.0771 -1.1212
 6808TIP3    H141915   3.903   1.138  10.397 -0.7923  0.1342 -0.3022
 6808TIP3    H241916   4.016   1.231  10.437 -0.4261 -0.7336  0.6935
 6809TIP3   OH241917   4.032   0.395  11.094  0.3363 -0.2881  0.0955
 6809TIP3    H141918   3.936   0.397  11.092  0.3155 -1.1071 -0.0739
 6809TIP3    H241919   4.053   0.310  11.133  0.9926  0.0076  0.3984
 6810TIP3   OH241920   2.384   2.106   6.168 -0.4017 -0.1920  0.1397
 6810TIP3    H141921   2.431   2.082   6.248 -0.7033 -1.0175  0.0803
 6810TIP3    H241922   2.301   2.143   6.199 -0.7845 -1.0703  0.2262
 6811TIP3   OH241923   5.368   1.018   0.824  0.7127  0.0628  0.0411
 6811TIP3    H141924   5.323   1.011   0.740  0.9276 -1.1328 -0.0056
 6811TIP3    H241925   5.345   1.104   0.857 -1.5022 -0.4333 -0.0458
 6812TIP3   OH241926   6.549   0.137  16.160 -0.4607  0.5794  0.4286
 6812TIP3    H141927   6.536   0.118  16.067  0.3061  0.6749  0.2897
 6812TIP3    H241928   6.588   0.225  16.161  0.3512  0.2237  0.7852
 6813TIP3   OH241929   1.959   4.646   4.977  0.2507  0.2675 -0.3193
 6813TIP3    H141930   2.010   4.660   4.897  0.0913  1.4769 -0.2337
 6813TIP3    H241931   2.024   4.625   5.044  0.8200  2.7656  0.0172
 6814TIP3   OH241932   2.630   4.703  11.908 -0.5463 -0.2449  0.4503
 6814TIP3    H141933   2.610   4.780  11.962  1.9083  1.0659 -0.3180
 6814TIP3    H241934   2.626   4.736  11.818 -2.0013 -1.7245 -0.0602
 6815TIP3   OH241935   2.173   2.950  17.063  0.1745  0.1980  0.0738
 6815TIP3    H141936   2.104   2.981  17.004  0.6527  0.9949 -0.0821
 6815TIP3    H241937   2.224   2.890  17.009 -0.2570 -0.2191  0.1217
 6816TIP3   OH241938   0.134   4.028   0.401 -0.3163 -0.0605 -0.1663
 6816TIP3    H141939   0.143   4.037   0.306 -0.3135 -1.8826 -0.3740
 6816TIP3    H241940   0.208   3.973   0.427 -0.3923  0.3097  0.8788
 6817TIP3   OH241941   6.000   2.762  15.192 -0.5164  0.1529 -0.2353
 6817TIP3    H141942   6.037   2.707  15.123 -2.6101  0.7381 -1.9475
 6817TIP3    H241943   6.000   2.706  15.270  4.1504  0.2396  0.1208
 6818TIP3   OH241944   2.616   5.782   2.097  0.0006 -0.1042  0.7322
 6818TIP3    H141945   2.671   5.763   2.021 -1.7806  1.7392 -1.1496
 6818TIP3    H241946   2.662   5.851   2.145  0.1017  0.2843  0.0784
 6819TIP3   OH241947   2.319   2.660  11.018  0.0387  0.2709 -0.1625
 6819TIP3    H141948   2.341   2.603  11.092 -0.5898  0.7974  0.4410
 6819TIP3    H241949   2.401   2.667  10.968  0.2605 -0.7353  0.0289
 6820TIP3   OH241950   4.815   1.287   0.619 -0.1320  1.0149 -0.8679
 6820TIP3    H141951   4.797   1.296   0.526  1.6494  1.1197 -1.2348
 6820TIP3    H241952   4.770   1.207   0.645 -0.5894  0.9555 -1.8328
 6821TIP3   OH241953   2.551   5.973  13.187 -0.2391  0.6057 -0.0691
 6821TIP3    H141954   2.494   5.969  13.264 -0.0494 -0.9698  0.0221
 6821TIP3    H241955   2.627   5.920  13.212  1.1024  2.3352 -0.3418
 6822TIP3   OH241956   0.343   0.305  13.984 -0.1531  0.3375  0.1831
 6822TIP3    H141957   0.343   0.215  14.017 -0.3542  0.4502  0.5019
 6822TIP3    H241958   0.401   0.352  14.044 -1.9809  0.9523  1.5792
 6823TIP3   OH241959   1.863   3.844   2.742 -0.3918  0.3894  0.3640
 6823TIP3    H141960   1.819   3.763   2.714 -0.4670  0.7506 -0.5852
 6823TIP3    H241961   1.955   3.831   2.719  0.1102 -0.4586  2.5553
 6824TIP3   OH241962   5.537   6.505   0.329  0.3453 -0.2846 -0.2778
 6824TIP3    H141963   5.475   6.550   0.385 -0.0106  0.2646 -1.0915
 6824TIP3    H241964   5.508   6.414   0.328 -1.2399  0.1981 -1.6657
 6825TIP3   OH241965   3.628   0.627  12.222 -0.2176  0.2890 -0.0545
 6825TIP3    H141966   3.604   0.622  12.315  0.4447  1.6407  0.2072
 6825TIP3    H241967   3.573   0.697  12.187 -0.2350 -0.0009 -0.6143
 6826TIP3   OH241968   2.158   1.162   4.980  0.0106 -0.7278 -0.1218
 6826TIP3    H141969   2.211   1.100   5.029  0.1508 -1.3082 -0.9852
 6826TIP3    H241970   2.100   1.108   4.926 -0.0624 -0.1197 -0.6758
 6827TIP3   OH241971   6.669   6.169  16.785  0.8140  0.2695 -0.5864
 6827TIP3    H141972   6.753   6.124  16.777 -0.4482 -2.2433 -1.0733
 6827TIP3    H241973   6.638   6.148  16.873 -0.2969 -0.8830 -1.2065
 6828TIP3   OH241974   0.559   3.766   3.591  0.1592 -0.4128 -0.1358
 6828TIP3    H141975   0.650   3.796   3.596  0.1212 -0.3244  0.0278
 6828TIP3    H241976   0.507   3.847   3.593  0.1185 -0.3756 -1.5521
 6829TIP3   OH241977   6.651   5.023  16.612 -0.3716 -0.2615  1.0942
 6829TIP3    H141978   6.594   5.020  16.535  0.9673  0.4598  0.0325
 6829TIP3    H241979   6.687   4.935  16.618  1.5531  0.3195 -0.7549
 6830TIP3   OH241980   2.112   6.816   4.734  0.8253 -0.1901 -0.2766
 6830TIP3    H141981   2.075   6.850   4.815 -2.6810 -2.4993 -0.6630
 6830TIP3    H241982   2.175   6.750   4.762 -0.3836 -0.9937  0.6288
 6831TIP3   OH241983   6.689   2.311   2.391 -0.5126 -0.0705 -0.0104
 6831TIP3    H141984   6.640   2.392   2.406  0.4687  0.9255 -1.8313
 6831TIP3    H241985   6.637   2.263   2.326  0.4333  0.5931 -1.3013
 6832TIP3   OH241986   1.956   0.052  12.940  0.0160  0.1364  0.5895
 6832TIP3    H141987   1.880   0.099  12.908  1.4422  2.6615  0.6553
 6832TIP3    H241988   1.949  -0.035  12.900 -1.6588  1.0393 -1.2585
 6833TIP3   OH241989   4.940   1.765   2.044  0.1595  0.0438 -0.8271
 6833TIP3    H141990   4.900   1.807   1.968  0.8700 -0.1932 -1.3464
 6833TIP3    H241991   4.979   1.684   2.009  2.8786  1.2364 -0.8094
 6834TIP3   OH241992   5.774   4.731   4.827 -0.2637 -0.4156  0.0797
 6834TIP3    H141993   5.851   4.746   4.882  0.3080  0.6411 -0.9667
 6834TIP3    H241994   5.796   4.653   4.776 -0.0112 -0.3063  0.0178
 6835TIP3   OH241995   0.899   2.949  15.162 -0.2778  0.6040  0.5150
 6835TIP3    H141996   0.829   2.928  15.100  1.6479 -0.6541 -1.3468
 6835TIP3    H241997   0.964   2.996  15.111  1.7261 -1.1318  1.3247
 6836TIP3   OH241998   5.445   3.054   5.524  0.6968 -0.1052  0.8559
 6836TIP3    H141999   5.396   3.109   5.584  0.7612  0.7741  0.1352
 6836TIP3    H242000   5.529   3.040   5.568  0.7203  0.4699  1.0008
 6837TIP3   OH242001   3.138   3.009   1.732  0.2316 -0.0840 -1.2372
 6837TIP3    H142002   3.135   3.090   1.781  0.8823 -0.7292 -0.0964
 6837TIP3    H242003   3.205   2.956   1.775 -0.4979 -1.4077 -1.6561
 6838TIP3   OH242004   5.566   6.418  11.233  0.4490  0.0133  0.2639
 6838TIP3    H142005   5.514   6.338  11.229 -1.3188  1.1277  0.0499
 6838TIP3    H242006   5.654   6.390  11.207 -0.2829 -1.7264 -0.5124
 6839TIP3   OH242007   2.327   3.556  13.086  0.1561  0.3412 -0.6574
 6839TIP3    H142008   2.270   3.570  13.010  0.0623  3.6816 -0.1480
 6839TIP3    H242009   2.371   3.473  13.068 -1.2808  0.0453 -3.4104
 6840TIP3   OH242010   5.511   1.313   4.372  0.1545  0.0904  0.0128
 6840TIP3    H142011   5.436   1.261   4.400 -0.5379  0.6770 -0.6836
 6840TIP3    H242012   5.500   1.397   4.416 -0.4414  0.6997 -1.2369
 6841TIP3   OH242013   3.772   1.161   4.960 -0.1341 -0.3784  0.5847
 6841TIP3    H142014   3.743   1.253   4.960 -3.1072 -1.1240 -2.3365
 6841TIP3    H242015   3.853   1.162   4.910 -0.1520  0.6341  0.5424
 6842TIP3   OH242016   4.739   0.546  13.216 -0.4981 -0.2369 -0.7891
 6842TIP3    H142017   4.744   0.505  13.302  2.6151 -0.4902 -0.9800
 6842TIP3    H242018   4.800   0.620  13.221 -1.0150  0.3416 -2.4795
 6843TIP3   OH242019   2.915   1.339  16.687 -0.0558  0.0052  0.6208
 6843TIP3    H142020   2.880   1.424  16.714  1.4391  0.9029 -0.1321
 6843TIP3    H242021   2.953   1.356  16.600  2.0325 -0.9142  1.2852
 6844TIP3   OH242022   2.913   5.652  16.663  0.5093  0.2549 -0.2174
 6844TIP3    H142023   2.831   5.602  16.661  0.3197  0.5309  0.3768
 6844TIP3    H242024   2.968   5.606  16.726  0.8632 -0.0078 -0.7174
 6845TIP3   OH242025   0.715   3.407  13.334  0.0180  0.3192 -0.0193
 6845TIP3    H142026   0.715   3.423  13.428  3.1749  0.6760  0.0078
 6845TIP3    H242027   0.751   3.319  13.324 -1.6867 -0.3289 -0.8866
 6846TIP3   OH242028   4.855   1.096   6.529  0.5382 -0.4544  0.0145
 6846TIP3    H142029   4.848   1.003   6.549  2.1032 -0.7768 -0.7408
 6846TIP3    H242030   4.928   1.127   6.583  1.5660 -0.2330 -1.4277
 6847TIP3   OH242031   1.983   3.502   6.589 -0.0232 -0.0905  0.5751
 6847TIP3    H142032   1.965   3.492   6.495 -0.0576  0.5414  0.5088
 6847TIP3    H242033   1.960   3.417   6.627 -1.8249  0.2298  0.2885
 6848TIP3   OH242034   5.010   0.188  11.974  1.0016 -0.1806 -0.2252
 6848TIP3    H142035   4.993   0.112  11.919 -0.3956 -0.5402  0.6477
 6848TIP3    H242036   4.999   0.156  12.064 -1.6100  1.4252  0.1466
 6849TIP3   OH242037   4.209   4.225   4.058  0.7863  0.2668  0.1397
 6849TIP3    H142038   4.257   4.239   4.140  0.0325 -1.9470  1.0585
 6849TIP3    H242039   4.199   4.312   4.021 -0.5957  1.7055  3.4445
 6850TIP3   OH242040   4.840   5.919  13.261  0.5385 -0.0398 -0.0377
 6850TIP3    H142041   4.824   5.853  13.329  0.4523 -0.1141 -0.1309
 6850TIP3    H242042   4.847   6.002  13.310  0.1882 -0.0504  0.0361
 6851TIP3   OH242043   2.133   2.632  12.721 -0.1999 -0.3732  0.6783
 6851TIP3    H142044   2.060   2.694  12.723 -0.5092 -0.6906 -0.2705
 6851TIP3    H242045   2.201   2.673  12.775  0.2669  1.6523 -1.2764
 6852TIP3   OH242046   2.831   4.810  12.926  0.6534 -0.2441 -0.2388
 6852TIP3    H142047   2.785   4.727  12.911  1.5585 -0.7068 -0.5180
 6852TIP3    H242048   2.795   4.869  12.860  0.5552 -0.6380 -0.5443
 6853TIP3   OH242049   4.647   4.572   2.570 -0.6915  0.1736 -0.5419
 6853TIP3    H142050   4.636   4.634   2.643  1.0639 -0.8000  0.6246
 6853TIP3    H242051   4.708   4.616   2.511 -1.1978  0.4715 -0.8518
 6854TIP3   OH242052   2.951   0.284   2.850 -0.1445 -0.0350 -0.1970
 6854TIP3    H142053   3.030   0.273   2.904  1.0287  0.4954 -1.7036
 6854TIP3    H242054   2.917   0.196   2.839  3.4766 -1.3181 -4.0409
 6855TIP3   OH242055   1.962   5.360  14.001  0.1394 -0.5673 -0.0450
 6855TIP3    H142056   1.985   5.427  14.065 -0.5380 -0.2285 -0.1382
 6855TIP3    H242057   2.018   5.285  14.021  0.1738 -0.3363  0.7228
 6856TIP3   OH242058   0.980   2.207  13.102  0.2025 -0.1758 -0.6249
 6856TIP3    H142059   0.970   2.115  13.125 -2.1543 -0.3503 -1.9388
 6856TIP3    H242060   0.922   2.254  13.162 -0.6241  0.1155 -1.6100
 6857TIP3   OH242061   0.664   5.345  15.149 -0.1867 -0.2241  0.0102
 6857TIP3    H142062   0.646   5.337  15.056 -2.0269 -1.6293  0.4229
 6857TIP3    H242063   0.737   5.284  15.165  1.6046  1.6018 -0.8114
 6858TIP3   OH242064   0.351   0.796  11.935  0.2449 -0.2466  0.6250
 6858TIP3    H142065   0.384   0.771  11.848 -0.2381  0.8199  0.1127
 6858TIP3    H242066   0.262   0.762  11.937 -0.2152  0.8560  0.1478
 6859TIP3   OH242067   1.293   3.817  10.674  0.1743 -0.4217 -0.0595
 6859TIP3    H142068   1.313   3.732  10.636 -1.3057 -0.7189 -0.2529
 6859TIP3    H242069   1.200   3.811  10.697  0.2440  0.8705  0.6463
 6860TIP3   OH242070   0.660   5.019  11.234  0.5408 -0.4878 -0.1919
 6860TIP3    H142071   0.657   5.083  11.305 -1.8598  0.6715 -1.2256
 6860TIP3    H242072   0.669   5.071  11.155  0.3159 -1.5494 -0.9287
 6861TIP3   OH242073   4.262   4.521   1.947 -0.0568 -0.2028 -0.1337
 6861TIP3    H142074   4.355   4.499   1.940 -0.3003 -1.4380  0.2697
 6861TIP3    H242075   4.229   4.517   1.857 -0.6540 -4.3107  0.0706
 6862TIP3   OH242076   6.276   3.979   3.583  0.1462 -0.3265  0.2562
 6862TIP3    H142077   6.225   3.966   3.662  0.6309 -0.2793  0.5786
 6862TIP3    H242078   6.341   4.045   3.606 -0.8685  1.0705 -0.7122
 6863TIP3   OH242079   4.709   1.595   3.552 -0.0574 -0.0969  0.7925
 6863TIP3    H142080   4.693   1.596   3.646  0.9345 -0.8609  0.9835
 6863TIP3    H242081   4.768   1.521   3.538  0.0094  0.1548 -0.3998
 6864TIP3   OH242082   5.226   4.154  15.746  0.1683  0.4886  0.2706
 6864TIP3    H142083   5.230   4.079  15.804  1.3148 -0.6406 -1.1796
 6864TIP3    H242084   5.222   4.230  15.804  2.1665 -0.5311  1.8362
 6865TIP3   OH242085   2.636   0.566  11.331  0.4466  0.3901  0.1316
 6865TIP3    H142086   2.591   0.650  11.329  0.8403  0.6123  0.4721
 6865TIP3    H242087   2.728   0.588  11.345  0.4631 -0.1218  0.8921
 6866TIP3   OH242088   5.974   6.410  12.979  0.2612  0.1913 -0.9228
 6866TIP3    H142089   5.960   6.486  13.035  0.8387 -0.5824  0.3168
 6866TIP3    H242090   6.035   6.440  12.912  0.3061  0.8826 -0.5800
 6867TIP3   OH242091   3.523   3.391   1.672  0.1231  0.0803 -0.3667
 6867TIP3    H142092   3.450   3.453   1.678  2.2861  3.1186 -2.2821
 6867TIP3    H242093   3.535   3.360   1.762 -2.0110  1.3522  0.4326
 6868TIP3   OH242094   1.352   5.965  16.785 -0.0597 -0.6357 -0.0487
 6868TIP3    H142095   1.369   5.911  16.708 -0.9628  0.5915 -1.1577
 6868TIP3    H242096   1.304   6.041  16.751 -1.2582 -0.4730  1.8509
 6869TIP3   OH242097   5.183   5.051   5.272 -0.2205 -0.3434  0.1769
 6869TIP3    H142098   5.249   5.115   5.297 -1.2733  0.8543  0.0047
 6869TIP3    H242099   5.187   4.984   5.341 -0.1075  0.6671  1.1794
 6870TIP3   OH242100   3.698   0.890  15.093  0.1962 -0.2487 -0.0361
 6870TIP3    H142101   3.715   0.931  15.008 -1.4647  1.7479  0.5147
 6870TIP3    H242102   3.712   0.797  15.077 -0.1035  0.0454 -2.5278
 6871TIP3   OH242103   1.520   4.957  16.646 -0.6945  0.0033 -0.1484
 6871TIP3    H142104   1.606   4.928  16.616  0.5597  2.0270  1.2453
 6871TIP3    H242105   1.528   4.959  16.741 -2.0415  0.9175 -0.0387
 6872TIP3   OH242106   6.627   0.885  16.485 -0.5226  0.4653  0.2745
 6872TIP3    H142107   6.569   0.813  16.460 -1.4210  0.5064  2.1126
 6872TIP3    H242108   6.714   0.856  16.458 -1.0130 -0.8200 -0.0150
 6873TIP3   OH242109   3.159   3.640   4.972 -0.4550 -0.1197  0.2662
 6873TIP3    H142110   3.165   3.701   4.898  0.8796  0.1427  0.5658
 6873TIP3    H242111   3.195   3.559   4.938  0.2103  0.0166  0.6348
 6874TIP3   OH242112   0.885   5.765   4.040 -0.2868 -0.4365  0.3063
 6874TIP3    H142113   0.805   5.814   4.025 -0.6203 -1.6543 -2.6387
 6874TIP3    H242114   0.888   5.702   3.968  2.5512 -1.4525  1.1799
 6875TIP3   OH242115   6.461   4.789   3.727  0.1296  0.1066  0.4278
 6875TIP3    H142116   6.469   4.880   3.698  1.5211 -0.8984 -2.8457
 6875TIP3    H242117   6.545   4.771   3.770  0.3835  0.0710 -0.0638
 6876TIP3   OH242118   6.535   3.524  12.010  0.5982 -0.0228 -0.1878
 6876TIP3    H142119   6.549   3.466  12.084 -0.5472 -0.5494 -0.3660
 6876TIP3    H242120   6.526   3.466  11.935 -0.9470  0.3438 -0.3088
 6877TIP3   OH242121   6.564   5.254  15.774 -0.1520 -0.2465 -0.0425
 6877TIP3    H142122   6.601   5.265  15.862 -0.2498  0.0889 -0.0405
 6877TIP3    H242123   6.641   5.247  15.717 -0.0823  0.0677  0.0079
 6878TIP3   OH242124   0.114   5.240   3.616 -0.2587  0.1945  0.0220
 6878TIP3    H142125   0.105   5.326   3.574  0.0105  0.1640 -0.1045
 6878TIP3    H242126   0.101   5.257   3.709  0.9670  0.5905  0.1474
 6879TIP3   OH242127   3.331   0.779   3.716  0.3589  0.1255 -0.6278
 6879TIP3    H142128   3.342   0.836   3.639 -2.4167  1.1025 -0.4286
 6879TIP3    H242129   3.404   0.801   3.773 -0.2855  3.2548 -0.7932
 6880TIP3   OH242130   2.575   2.901  16.323  0.0371  0.0817 -0.1618
 6880TIP3    H142131   2.629   2.938  16.253 -2.3011  4.2484 -0.0994
 6880TIP3    H242132   2.495   2.954  16.321 -0.9344 -0.8061  4.5131
 6881TIP3   OH242133   4.906   5.161  15.135  0.6731  0.4900  0.2829
 6881TIP3    H142134   4.844   5.184  15.066  0.8195  2.5852  0.7838
 6881TIP3    H242135   4.851   5.129  15.207  0.5000 -1.3708 -0.6118
 6882TIP3   OH242136   2.703   5.608  14.741 -0.3897 -0.4003  0.7622
 6882TIP3    H142137   2.672   5.518  14.754 -0.9900 -0.1207  1.3152
 6882TIP3    H242138   2.625   5.662  14.752 -0.3397  0.0967 -1.0560
 6883TIP3   OH242139   4.372   1.046  16.322  0.3285  0.7756  0.0798
 6883TIP3    H142140   4.328   0.962  16.308  0.7699  0.5318  0.1294
 6883TIP3    H242141   4.301   1.108  16.340 -0.0218  0.4721 -0.2413
 6884TIP3   OH242142   0.324   6.166   5.060  0.0357  0.2032  0.8530
 6884TIP3    H142143   0.242   6.158   5.011 -1.4228 -0.0506  3.1988
 6884TIP3    H242144   0.362   6.078   5.056  0.3335  0.3707 -0.4167
 6885TIP3   OH242145   5.500   5.379   4.333 -0.2913  0.2389  0.4398
 6885TIP3    H142146   5.478   5.334   4.414  1.3085 -1.3378  0.0757
 6885TIP3    H242147   5.485   5.314   4.265  0.0660  0.9610 -0.3509
 6886TIP3   OH242148   5.483   1.296  13.736 -0.5914  0.1899  0.2957
 6886TIP3    H142149   5.554   1.246  13.777  0.3299 -2.0569 -3.5774
 6886TIP3    H242150   5.405   1.243  13.750 -1.2654  1.6536  2.7597
 6887TIP3   OH242151   0.651   6.005   1.121 -0.4238 -0.0462 -0.0738
 6887TIP3    H142152   0.597   5.945   1.173  0.8894 -0.7227  0.5573
 6887TIP3    H242153   0.589   6.049   1.063 -1.7552 -0.2462  1.1449
 6888TIP3   OH242154   5.680   1.042   2.864 -0.0205 -0.1155 -0.1538
 6888TIP3    H142155   5.682   0.963   2.919 -1.0118 -0.5348 -0.6840
 6888TIP3    H242156   5.611   1.024   2.799 -0.2389  1.1675 -0.3054
 6889TIP3   OH242157   4.970   0.461  11.549 -0.7631  0.2489 -0.3384
 6889TIP3    H142158   4.997   0.371  11.527 -1.2866 -0.1035  0.4185
 6889TIP3    H242159   5.049   0.500  11.586 -1.0055 -0.4949  1.0353
 6890TIP3   OH242160   4.074   0.561   3.214 -0.3828 -0.4020  0.2083
 6890TIP3    H142161   4.015   0.567   3.139 -0.8886  0.5295  0.6679
 6890TIP3    H242162   4.030   0.610   3.283  1.1517  0.7532  0.4159
 6891TIP3   OH242163   3.738   2.833   4.465 -0.2463 -0.0266  0.1555
 6891TIP3    H142164   3.703   2.824   4.376  1.4639 -0.7197 -0.4876
 6891TIP3    H242165   3.667   2.803   4.521 -1.2304  0.0570 -0.9940
 6892TIP3   OH242166   1.102   5.801   5.580 -0.4924  0.2829 -0.3551
 6892TIP3    H142167   1.011   5.817   5.553 -0.2666 -0.1098 -1.4092
 6892TIP3    H242168   1.131   5.729   5.525  0.1284 -0.3335  0.7430
 6893TIP3   OH242169   0.675   1.249  14.445 -0.1765  0.3058 -0.3528
 6893TIP3    H142170   0.767   1.234  14.423 -0.0600  0.0547  0.2797
 6893TIP3    H242171   0.633   1.163  14.433 -0.2695  0.3514 -0.3584
 6894TIP3   OH242172   4.393   4.842  12.671 -0.0306  0.0459 -0.0408
 6894TIP3    H142173   4.386   4.849  12.767 -0.8501 -0.3932 -0.0636
 6894TIP3    H242174   4.361   4.754  12.651  0.1159  0.1431 -0.7270
 6895TIP3   OH242175   3.665   0.463   2.462  0.2616 -0.0809  0.1018
 6895TIP3    H142176   3.593   0.430   2.515 -0.2939 -1.6583 -1.5431
 6895TIP3    H242177   3.623   0.514   2.392  0.8926  0.7948  0.3392
 6896TIP3   OH242178   6.537   0.864   5.763 -0.3511  0.6826 -0.0466
 6896TIP3    H142179   6.617   0.841   5.811  1.1656 -0.1958 -2.7701
 6896TIP3    H242180   6.535   0.960   5.764  1.9031  0.8248 -1.5432
 6897TIP3   OH242181   5.117   2.625  12.941  0.9670  0.7316  0.2662
 6897TIP3    H142182   5.030   2.586  12.931  0.7671  1.3931 -0.7362
 6897TIP3    H242183   5.147   2.642  12.851  2.8051 -0.8963  0.5153
 6898TIP3   OH242184   1.611   0.581  11.736 -0.1565  0.3309 -0.1881
 6898TIP3    H142185   1.605   0.618  11.824 -1.7957  2.0648 -0.9669
 6898TIP3    H242186   1.698   0.541  11.734  0.3929  1.2552  1.8291
 6899TIP3   OH242187   0.197   3.316  15.009 -0.0985 -0.2967  0.3938
 6899TIP3    H142188   0.128   3.326  14.944  0.1373  0.7154  0.2741
 6899TIP3    H242189   0.219   3.406  15.034  1.1492 -0.5993  0.4522
 6900TIP3   OH242190   1.441   5.119  14.873  0.2347 -0.4049  0.1117
 6900TIP3    H142191   1.478   5.031  14.860  1.1321 -0.0111 -0.1060
 6900TIP3    H242192   1.401   5.141  14.789 -0.7726 -0.9404  0.4284
 6901TIP3   OH242193   5.926   0.246  14.940  0.3258  0.2920  0.3240
 6901TIP3    H142194   5.921   0.289  14.854 -1.1785  0.4966  0.4987
 6901TIP3    H242195   5.992   0.297  14.987  0.1987  1.0249 -0.2559
 6902TIP3   OH242196   4.030   4.627   3.943  0.3466  0.1243 -0.0260
 6902TIP3    H142197   4.017   4.718   3.969  0.9210 -0.3589  2.0578
 6902TIP3    H242198   3.970   4.577   3.998  0.1471 -0.7979 -1.0333
 6903TIP3   OH242199   0.272   4.902  14.922  0.0570  0.3658 -0.3530
 6903TIP3    H142200   0.311   4.828  14.969  1.0613  0.7423 -0.5598
 6903TIP3    H242201   0.323   4.908  14.841 -0.2901  1.0223 -0.5280
 6904TIP3   OH242202   5.894   0.776  11.964  0.6127 -0.3303  0.3463
 6904TIP3    H142203   5.844   0.837  11.909 -0.0128 -0.6417  0.5580
 6904TIP3    H242204   5.880   0.807  12.053 -1.3973 -1.9404  0.6522
 6905TIP3   OH242205   4.585   5.792   6.147 -0.3223 -0.2605 -0.0061
 6905TIP3    H142206   4.584   5.885   6.124  0.7212  0.0041  0.8760
 6905TIP3    H242207   4.586   5.746   6.063  0.9942  0.5885 -0.5056
 6906TIP3   OH242208   2.214   1.855   1.567 -0.0105  0.4827  0.1490
 6906TIP3    H142209   2.224   1.849   1.471 -1.0966 -0.3239  0.0686
 6906TIP3    H242210   2.151   1.925   1.580 -2.3130 -1.4470  0.0624
 6907TIP3   OH242211   4.062   5.168   1.098  0.3484 -0.4598  0.4043
 6907TIP3    H142212   3.989   5.197   1.043  0.5537 -2.2412 -0.8999
 6907TIP3    H242213   4.136   5.222   1.072  0.1767 -0.5671 -0.3247
 6908TIP3   OH242214   1.738   4.254  15.710 -0.1947 -0.0648  0.4587
 6908TIP3    H142215   1.706   4.168  15.736  0.3296  0.1715  2.0209
 6908TIP3    H242216   1.781   4.240  15.626 -1.5352 -0.9933 -0.0991
 6909TIP3   OH242217   0.603   4.084   2.803  0.4224  0.0244  0.5853
 6909TIP3    H142218   0.585   4.125   2.888 -1.8602 -0.2939  0.2999
 6909TIP3    H242219   0.697   4.066   2.806  0.6827  1.3390  2.4442
 6910TIP3   OH242220   1.825   3.650  11.754  0.9036  0.5372 -0.3748
 6910TIP3    H142221   1.758   3.664  11.687  0.3137  0.6136  0.2137
 6910TIP3    H242222   1.856   3.561  11.738 -1.8399 -0.9178  1.4287
 6911TIP3   OH242223   4.196   3.668   5.727 -0.7177 -0.4270  0.1278
 6911TIP3    H142224   4.255   3.614   5.674 -0.9106 -0.3683 -0.1488
 6911TIP3    H242225   4.123   3.609   5.748 -1.3356 -0.0418 -0.8757
 6912TIP3   OH242226   6.361   5.595   3.345 -0.2649 -0.1256 -0.2574
 6912TIP3    H142227   6.358   5.640   3.261  0.5254 -0.8996 -0.7161
 6912TIP3    H242228   6.438   5.633   3.389  1.7315 -2.4398 -1.5203
 6913TIP3   OH242229   2.509   0.035  12.816 -0.0455  0.0001  0.0551
 6913TIP3    H142230   2.562   0.111  12.791 -0.5890 -0.0995 -1.5254
 6913TIP3    H242231   2.462   0.062  12.894 -0.5782  1.4803 -0.7386
 6914TIP3   OH242232   1.534   6.722   0.423  0.5544  0.5097  0.4361
 6914TIP3    H142233   1.566   6.765   0.502 -0.2026 -0.8837  1.5542
 6914TIP3    H242234   1.597   6.651   0.408  0.5823  0.6464 -0.1060
 6915TIP3   OH242235   6.458   1.376   3.648  0.0507 -0.3314 -0.7192
 6915TIP3    H142236   6.460   1.413   3.736  1.6630 -0.1197 -0.8169
 6915TIP3    H242237   6.438   1.451   3.591 -2.7949 -0.7723 -0.4515
 6916TIP3   OH242238   6.126   4.225   3.860  0.4859  0.7284  0.2002
 6916TIP3    H142239   6.107   4.187   3.774  0.9138 -1.9861  1.2247
 6916TIP3    H242240   6.043   4.220   3.908  0.4846  1.3873  0.2888
 6917TIP3   OH242241   1.253   3.812   4.480 -0.1715 -0.0254 -0.3250
 6917TIP3    H142242   1.290   3.827   4.567  1.0433 -0.9775 -0.6515
 6917TIP3    H242243   1.162   3.841   4.488 -0.0899 -0.0878  1.2618
 6918TIP3   OH242244   2.449   3.468   6.051 -0.0126  0.2348 -0.2708
 6918TIP3    H142245   2.417   3.476   6.141  1.1988  0.4405  0.1643
 6918TIP3    H242246   2.517   3.535   6.044  0.3448 -0.2027 -1.1352
 6919TIP3   OH242247   2.767   6.487  13.093  0.3662 -0.2936  0.5076
 6919TIP3    H142248   2.688   6.497  13.148  0.4849  0.5143  0.5452
 6919TIP3    H242249   2.758   6.556  13.027 -0.3503 -1.9727 -1.2243
 6920TIP3   OH242250   0.260   0.364  16.366  0.4631  0.2636 -0.1002
 6920TIP3    H142251   0.184   0.408  16.327  0.2325 -0.9333 -1.0281
 6920TIP3    H242252   0.301   0.318  16.293  1.2286 -0.3092  0.6808
 6921TIP3   OH242253   1.030   5.570   5.207 -0.3913 -0.3244  0.3261
 6921TIP3    H142254   0.998   5.657   5.232  0.1178  0.2413 -0.8610
 6921TIP3    H242255   0.958   5.531   5.158 -0.1673 -0.0408 -0.2408
 6922TIP3   OH242256   1.582   4.580   5.925 -0.4508 -0.3834  0.6376
 6922TIP3    H142257   1.564   4.505   5.981 -1.5659 -0.2751  0.4530
 6922TIP3    H242258   1.636   4.544   5.854  1.6000 -0.3720  2.0964
 6923TIP3   OH242259   2.515   0.773  12.071  0.2747  0.7017 -0.4089
 6923TIP3    H142260   2.571   0.695  12.076  1.8137  1.6741 -1.5936
 6923TIP3    H242261   2.505   0.789  11.977 -1.1930  1.1584 -0.2045
 6924TIP3   OH242262   5.228   5.400  12.987  0.7143 -0.0858 -0.5301
 6924TIP3    H142263   5.156   5.450  12.946  0.1081 -1.4281 -1.1580
 6924TIP3    H242264   5.184   5.340  13.047  1.4121 -0.1482 -0.0722
 6925TIP3   OH242265   5.659   3.594  12.775 -0.7148 -0.7424 -0.7925
 6925TIP3    H142266   5.614   3.643  12.844  0.6327  1.2376 -1.2090
 6925TIP3    H242267   5.751   3.594  12.803 -0.3956 -1.2702 -1.8196
 6926TIP3   OH242268   1.940   2.664  15.399  0.5901 -0.2286  0.0924
 6926TIP3    H142269   2.022   2.712  15.386  0.8321 -0.0492  1.9978
 6926TIP3    H242270   1.903   2.701  15.479 -2.4642  1.1592 -1.8022
 6927TIP3   OH242271   3.879   1.284  14.080 -0.1935 -0.2619  0.4779
 6927TIP3    H142272   3.929   1.233  14.017  0.3308 -0.1915  0.8317
 6927TIP3    H242273   3.804   1.316  14.031 -0.4568 -1.2492  0.2091
 6928TIP3   OH242274   6.654   4.965  15.700  0.1309  0.4081 -0.2083
 6928TIP3    H142275   6.719   4.911  15.656  1.2840 -0.3303  2.1982
 6928TIP3    H242276   6.706   5.029  15.749 -0.8405 -0.5559  2.2250
 6929TIP3   OH242277   4.118   4.292   2.598 -0.0020  0.1155  0.4383
 6929TIP3    H142278   4.038   4.310   2.549  0.0677  2.0403  0.9436
 6929TIP3    H242279   4.125   4.365   2.659  1.4965 -0.6706  1.2567
 6930TIP3   OH242280   6.165   4.204  11.164  0.2685  0.1825 -0.0727
 6930TIP3    H142281   6.111   4.128  11.142  1.2836 -0.4527 -0.4142
 6930TIP3    H242282   6.216   4.221  11.085 -0.4677  1.6992 -0.2625
 6931TIP3   OH242283   5.762   5.628   5.580 -0.7487  0.1375  0.1412
 6931TIP3    H142284   5.750   5.719   5.605 -1.1615  0.1173  0.0277
 6931TIP3    H242285   5.681   5.585   5.608  0.5612 -0.8022  2.8736
 6932TIP3   OH242286   2.136   3.079   0.720  0.1692 -0.7967 -0.2143
 6932TIP3    H142287   2.220   3.041   0.696  0.5083 -0.4579  0.4020
 6932TIP3    H242288   2.099   3.111   0.637  1.1456  0.0193 -0.3585
 6933TIP3   OH242289   5.853   3.317   2.762  0.0586 -0.3036  0.4156
 6933TIP3    H142290   5.856   3.404   2.802 -0.0562 -0.9487  1.8958
 6933TIP3    H242291   5.882   3.257   2.831  0.2142 -1.4440 -0.5975
 6934TIP3   OH242292   2.366   0.691   1.700  0.3908 -0.1574  0.4426
 6934TIP3    H142293   2.446   0.714   1.746 -0.7318  0.0684  2.3973
 6934TIP3    H242294   2.319   0.774   1.690  1.2133  0.0782 -2.5363
 6935TIP3   OH242295   6.099   3.907   0.080 -0.2400 -0.4643  0.6118
 6935TIP3    H142296   6.035   3.967   0.121 -0.5501  0.2504 -0.8548
 6935TIP3    H242297   6.045   3.838   0.042 -0.1437 -0.0116 -0.3805
 6936TIP3   OH242298   5.632   4.180   4.480  0.1837  0.1597  0.4213
 6936TIP3    H142299   5.644   4.085   4.490  0.9653  0.2670  0.5622
 6936TIP3    H242300   5.544   4.189   4.444 -0.0921 -0.5924  0.8857
 6937TIP3   OH242301   5.995   1.274  10.299  0.0939 -0.2777 -0.3056
 6937TIP3    H142302   5.950   1.281  10.383 -1.3105 -2.2635 -0.8203
 6937TIP3    H242303   6.086   1.296  10.319 -0.3713  0.1766  1.5377
 6938TIP3   OH242304   1.953   0.948   2.606 -0.1201  0.0493  0.3087
 6938TIP3    H142305   1.961   0.889   2.531 -0.0964 -0.0011  0.3514
 6938TIP3    H242306   1.933   0.891   2.680  3.0168 -0.3144  1.0165
 6939TIP3   OH242307   1.341   4.960  17.130  0.4547  0.3041  0.0482
 6939TIP3    H142308   1.290   5.014  17.070  0.9937 -0.0183 -0.7067
 6939TIP3    H242309   1.302   4.873  17.124 -0.1391  0.4939  0.9433
 6940TIP3   OH242310   6.748   2.915   3.426 -0.0968  0.2439 -0.0376
 6940TIP3    H142311   6.666   2.945   3.387 -0.7927  1.0708  1.9621
 6940TIP3    H242312   6.788   2.994   3.462  0.8639 -0.3757  0.2823
 6941TIP3   OH242313   1.019   2.481   4.342  0.0737  0.3678  0.0172
 6941TIP3    H142314   1.082   2.475   4.269  1.0967 -0.0786  0.9056
 6941TIP3    H242315   0.950   2.538   4.309  1.1231  1.1816 -0.8747
 6942TIP3   OH242316   1.413   2.631  12.643  0.4913 -0.2817 -0.2223
 6942TIP3    H142317   1.469   2.687  12.697 -0.4346  0.3342  0.1227
 6942TIP3    H242318   1.403   2.551  12.693 -0.1794  0.2010  0.4328
 6943TIP3   OH242319   3.723   5.146   0.267 -0.3293  0.3669  0.4343
 6943TIP3    H142320   3.801   5.096   0.242 -0.3594  0.5604 -0.0536
 6943TIP3    H242321   3.751   5.237   0.263 -0.7636  0.4740 -0.4097
 6944TIP3   OH242322   6.734   3.604  14.577 -0.1681 -0.0461 -0.3967
 6944TIP3    H142323   6.777   3.687  14.554  0.6695 -0.3624 -0.0440
 6944TIP3    H242324   6.772   3.582  14.662  1.7748 -2.1945 -1.7133
 6945TIP3   OH242325   3.922   6.530   3.446 -0.4165 -0.0124  0.3130
 6945TIP3    H142326   3.917   6.570   3.359  1.7538  0.6381  0.4404
 6945TIP3    H242327   3.967   6.446   3.431 -0.7308 -0.2586  0.7174
 6946TIP3   OH242328   5.933   3.886   2.077  0.1493  0.0888  0.2036
 6946TIP3    H142329   5.953   3.792   2.084  0.0946  0.0505 -0.1367
 6946TIP3    H242330   5.859   3.899   2.137 -0.3899 -0.2512 -0.3805
 6947TIP3   OH242331   0.885   0.449   1.336  0.3965  0.0822  0.2002
 6947TIP3    H142332   0.937   0.371   1.352  1.1091  0.5219  0.0456
 6947TIP3    H242333   0.845   0.470   1.420  0.1785 -0.4560  0.2357
 6948TIP3   OH242334   5.654   2.834   3.133  0.1523  0.0704  0.3419
 6948TIP3    H142335   5.603   2.765   3.093 -1.7678  1.7437 -0.2839
 6948TIP3    H242336   5.733   2.842   3.078 -0.5423 -0.3202 -0.7365
 6949TIP3   OH242337   0.284   1.884  10.257 -0.1169  0.6438 -0.3968
 6949TIP3    H142338   0.330   1.804  10.231  1.3136  0.9896  0.9139
 6949TIP3    H242339   0.213   1.854  10.314 -0.2287  0.2388 -0.7443
 6950TIP3   OH242340   1.997   0.755   0.580 -0.4405 -0.0946  0.1381
 6950TIP3    H142341   2.013   0.841   0.541  0.7986 -0.5811 -0.4803
 6950TIP3    H242342   2.062   0.746   0.649 -0.3630 -0.6610 -0.0018
 6951TIP3   OH242343   0.914   4.264  14.551 -0.2897 -0.1565 -0.5407
 6951TIP3    H142344   0.989   4.311  14.514  0.3708 -1.9681 -1.6199
 6951TIP3    H242345   0.927   4.270  14.645  0.6827  0.3651 -0.6889
 6952TIP3   OH242346   3.606   4.381  11.423  0.2608 -0.0247  0.8763
 6952TIP3    H142347   3.605   4.397  11.517 -0.4353 -2.0520  1.2727
 6952TIP3    H242348   3.640   4.292  11.414 -2.7302 -1.1623 -0.4913
 6953TIP3   OH242349   5.997   1.311   2.630 -0.2877  0.2059 -0.1565
 6953TIP3    H142350   6.044   1.286   2.710  0.2164 -0.2664 -0.5887
 6953TIP3    H242351   5.907   1.324   2.658 -0.4930 -1.7074  0.1755
 6954TIP3   OH242352   1.778   3.687   0.642 -0.5817 -0.6376  0.3104
 6954TIP3    H142353   1.704   3.645   0.686 -0.9977  0.1407  0.3683
 6954TIP3    H242354   1.774   3.778   0.669 -0.8363 -0.1309 -1.2950
 6955TIP3   OH242355   0.996   5.516  12.241 -0.0382 -0.4853 -0.3462
 6955TIP3    H142356   1.022   5.483  12.327  1.2076 -1.2716 -0.9912
 6955TIP3    H242357   0.935   5.450  12.207 -0.4821 -0.2054 -0.1043
 6956TIP3   OH242358   3.851   4.380  15.163  0.3059 -0.0869 -0.0877
 6956TIP3    H142359   3.889   4.381  15.075 -1.9197  1.5975 -1.1400
 6956TIP3    H242360   3.919   4.414  15.220  0.7916  1.7852 -1.7027
 6957TIP3   OH242361   6.173   2.519   4.239  0.5177 -0.1041  0.0762
 6957TIP3    H142362   6.109   2.574   4.193  1.4883  0.4152 -0.6890
 6957TIP3    H242363   6.120   2.459   4.291 -0.5776  1.4622  0.8292
 6958TIP3   OH242364   5.362   0.582   4.142 -0.1390 -0.0721  0.1993
 6958TIP3    H142365   5.310   0.638   4.201 -0.1508 -0.9694  1.0570
 6958TIP3    H242366   5.378   0.503   4.193  1.9101  0.0968 -0.1255
 6959TIP3   OH242367   5.854   6.060  16.881  0.0663 -0.5826  0.2334
 6959TIP3    H142368   5.805   6.028  16.956 -0.9623  2.0117  0.7750
 6959TIP3    H242369   5.790   6.110  16.830  1.1499 -0.8509 -1.4733
 6960TIP3   OH242370   5.555   5.659  16.377 -0.1330 -0.3114 -0.4937
 6960TIP3    H142371   5.633   5.622  16.335 -0.1501 -0.0020 -0.8063
 6960TIP3    H242372   5.492   5.586  16.380 -0.2973 -0.2237 -1.4353
 6961TIP3   OH242373   0.554   6.399  14.550  0.4389  0.0293 -0.0865
 6961TIP3    H142374   0.624   6.334  14.558  0.7979  0.5758  1.6268
 6961TIP3    H242375   0.529   6.419  14.641 -0.1585  1.7388 -0.5900
 6962TIP3   OH242376   3.056   4.572  14.959  0.1544  0.0012 -0.6194
 6962TIP3    H142377   2.976   4.519  14.961 -0.5682  1.0377  1.0615
 6962TIP3    H242378   3.100   4.552  15.042  0.5557  0.9943 -0.5779
 6963TIP3   OH242379   2.150   1.805  15.319  0.2002  0.6086 -0.0477
 6963TIP3    H142380   2.173   1.715  15.299 -0.6531  0.6181 -1.1616
 6963TIP3    H242381   2.184   1.820  15.407  2.2474 -0.1174 -0.6730
 6964TIP3   OH242382   2.506   2.916   6.260  0.9828  0.3310  0.1364
 6964TIP3    H142383   2.537   2.915   6.169 -0.9685  1.8799 -0.6375
 6964TIP3    H242384   2.426   2.863   6.259  1.9407 -1.2133  1.4156
 6965TIP3   OH242385   5.617   1.127   5.265  0.5432  0.0558  0.0037
 6965TIP3    H142386   5.544   1.065   5.266  1.1305 -0.6487  0.3644
 6965TIP3    H242387   5.695   1.072   5.258  1.1040  0.7339  0.7827
 6966TIP3   OH242388   6.483   0.821   5.499  0.3846  0.1615 -0.5473
 6966TIP3    H142389   6.546   0.750   5.496  0.9150  0.6122 -0.2817
 6966TIP3    H242390   6.491   0.857   5.588  0.7500  1.1004 -0.9493
 6967TIP3   OH242391   2.480   0.408  13.422  0.0175 -0.1723  0.2085
 6967TIP3    H142392   2.558   0.448  13.462 -1.8139  1.9017  2.0090
 6967TIP3    H242393   2.418   0.480  13.415 -1.9736 -1.8819 -0.5357
 6968TIP3   OH242394   3.208   1.239  14.734 -0.7282  0.6649 -0.3006
 6968TIP3    H142395   3.237   1.215  14.822 -1.8419 -1.9773 -0.5397
 6968TIP3    H242396   3.174   1.328  14.742  1.0129  1.2205  1.4631
 6969TIP3   OH242397   2.634   5.789  16.310  0.0056  0.4385  0.0109
 6969TIP3    H142398   2.622   5.723  16.242 -1.3841  1.5283 -0.8488
 6969TIP3    H242399   2.611   5.745  16.391 -1.6831  0.0454 -0.6339
 6970TIP3   OH242400   6.210   4.532   2.238 -0.3278 -0.0684  0.2455
 6970TIP3    H142401   6.145   4.496   2.298  1.2197  1.1887  2.8719
 6970TIP3    H242402   6.201   4.480   2.158 -2.6229 -1.7466  1.4923
 6971TIP3   OH242403   0.608   5.781   3.907 -0.0881 -0.2094  0.2818
 6971TIP3    H142404   0.577   5.696   3.876 -0.2984 -0.8919  2.2532
 6971TIP3    H242405   0.567   5.793   3.993  2.1114  0.5716  1.3110
 6972TIP3   OH242406   0.621   0.573   0.161 -0.1062 -0.1055 -0.2331
 6972TIP3    H142407   0.554   0.588   0.094 -0.0341  0.4632 -0.1867
 6972TIP3    H242408   0.588   0.499   0.212 -0.2685 -0.4019 -0.7589
 6973TIP3   OH242409   6.632   5.237  11.440  0.5330 -1.0396  0.1353
 6973TIP3    H142410   6.685   5.206  11.513 -0.1428 -0.1861  1.0156
 6973TIP3    H242411   6.544   5.205  11.459  0.3065 -0.6142 -0.1667
 6974TIP3   OH242412   4.874   4.519  17.067  0.4306  0.1684  0.3013
 6974TIP3    H142413   4.888   4.611  17.087  3.6411 -0.3981  1.3436
 6974TIP3    H242414   4.867   4.476  17.153 -0.7168 -0.6352 -0.1588
 6975TIP3   OH242415   0.261   5.562  16.881 -0.1034  0.0318 -0.6012
 6975TIP3    H142416   0.318   5.593  16.811 -0.1715  2.3163  0.2341
 6975TIP3    H242417   0.321   5.522  16.945 -0.1015 -2.5535 -2.1199
 6976TIP3   OH242418   1.522   1.056  11.880  0.0813  0.3229  0.2095
 6976TIP3    H142419   1.523   1.060  11.784  0.2693  1.3944  0.2397
 6976TIP3    H242420   1.532   0.963  11.900 -0.8436 -0.0225 -0.8157
 6977TIP3   OH242421   4.429   5.440  15.402 -0.1738  0.1001  0.1066
 6977TIP3    H142422   4.357   5.457  15.342  0.2780 -0.1832 -0.5381
 6977TIP3    H242423   4.468   5.526  15.418 -0.0141  0.1185 -0.3774
 6978TIP3   OH242424   0.614   5.641   1.895  0.3321  0.3543  0.0887
 6978TIP3    H142425   0.698   5.677   1.924 -0.0817  0.0750  1.6823
 6978TIP3    H242426   0.549   5.702   1.929 -0.1858 -0.0306 -0.1935
 6979TIP3   OH242427   2.589   3.174  12.356 -0.8148 -0.3798 -0.2536
 6979TIP3    H142428   2.563   3.240  12.421 -1.9461 -2.0622  1.1158
 6979TIP3    H242429   2.680   3.154  12.377 -0.5337  0.5570 -0.5372
 6980TIP3   OH242430   1.605   6.487   5.590  0.1356 -0.1345  0.2616
 6980TIP3    H142431   1.510   6.496   5.582  0.1971 -0.9342 -2.0883
 6980TIP3    H242432   1.619   6.468   5.683 -1.7338  2.4771  1.2052
 6981TIP3   OH242433   1.393   0.864   4.142  0.3716 -0.0577  0.5087
 6981TIP3    H142434   1.309   0.829   4.171  0.7276 -1.6798 -0.3137
 6981TIP3    H242435   1.451   0.788   4.138  1.3684  0.7228 -0.7253
 6982TIP3   OH242436   2.741   6.152  14.610  0.0865 -0.0382  0.3685
 6982TIP3    H142437   2.728   6.057  14.607 -0.4970  0.0748 -0.9224
 6982TIP3    H242438   2.816   6.167  14.553 -0.0226  0.3192  0.3203
 6983TIP3   OH242439   0.331   4.872  15.722  0.3769  0.6500  0.4549
 6983TIP3    H142440   0.325   4.965  15.698 -4.4441  0.4770  0.1056
 6983TIP3    H242441   0.376   4.832  15.647 -0.4373  2.2892 -1.0147
 6984TIP3   OH242442   0.851   4.356  10.667  0.0222  0.0325  0.1222
 6984TIP3    H142443   0.796   4.391  10.737  1.9324  0.6968  1.3602
 6984TIP3    H242444   0.832   4.411  10.592 -1.2392  0.0282  0.4140
 6985TIP3   OH242445   0.308   0.154  15.270  0.5197 -0.4358 -0.5733
 6985TIP3    H142446   0.293   0.088  15.337 -0.1249 -0.7657 -1.0422
 6985TIP3    H242447   0.403   0.169  15.272  0.6080 -1.0370 -0.1556
 6986TIP3   OH242448   6.002   1.875  15.935  0.0460  0.6459 -0.4037
 6986TIP3    H142449   5.935   1.842  15.994  0.1740 -0.3448 -0.7943
 6986TIP3    H242450   5.954   1.902  15.857  0.0797  0.1498 -0.5952
 6987TIP3   OH242451   3.056   3.667  15.866 -0.1899  0.1370  0.6132
 6987TIP3    H142452   3.145   3.639  15.886 -0.2857 -0.1848  0.5970
 6987TIP3    H242453   3.032   3.725  15.937  0.6574  1.6077 -0.2536
 6988TIP3   OH242454   4.613   0.343   0.897  0.3167  0.2373  0.0754
 6988TIP3    H142455   4.570   0.299   0.970  0.0730  1.0084  0.3998
 6988TIP3    H242456   4.599   0.284   0.822  0.2971 -0.4019  0.5720
 6989TIP3   OH242457   6.003   3.555  14.792 -0.8026  0.2807  0.0923
 6989TIP3    H142458   5.943   3.514  14.730  1.1033 -1.0432 -0.9504
 6989TIP3    H242459   6.073   3.491  14.805 -0.4081  1.0863  2.5643
 6990TIP3   OH242460   0.481   2.592  14.736  0.0650 -0.2180 -0.4328
 6990TIP3    H142461   0.416   2.639  14.788  2.1254  0.3920  1.7483
 6990TIP3    H242462   0.475   2.632  14.649 -1.4970  0.7552  0.0764
 6991TIP3   OH242463   5.825   4.225  12.338  0.3812 -0.2756 -0.1886
 6991TIP3    H142464   5.756   4.291  12.346  0.6604 -0.1324  1.2670
 6991TIP3    H242465   5.905   4.270  12.367  1.1695 -0.3589 -2.0670
 6992TIP3   OH242466   2.754   4.164   5.181 -0.0710 -0.0620 -0.1644
 6992TIP3    H142467   2.776   4.071   5.170  1.7122  0.4528 -1.3998
 6992TIP3    H242468   2.813   4.194   5.250 -0.4930  0.2135  0.0784
 6993TIP3   OH242469   1.858   6.029  11.072  0.1534  0.0634 -0.0331
 6993TIP3    H142470   1.950   6.046  11.091  0.1155  0.7103 -0.3940
 6993TIP3    H242471   1.846   6.062  10.983  0.6457 -3.9727 -1.8309
 6994TIP3   OH242472   3.145   1.824   4.508 -0.2222 -0.5829 -0.3387
 6994TIP3    H142473   3.179   1.904   4.468 -1.5047 -1.0018 -2.4503
 6994TIP3    H242474   3.103   1.853   4.589 -0.0294  0.7671 -0.6957
 6995TIP3   OH242475   3.492   5.087   4.416 -0.1659 -0.4164  0.0886
 6995TIP3    H142476   3.522   5.175   4.438  1.3040 -0.7766 -0.3200
 6995TIP3    H242477   3.562   5.029   4.447 -1.3921 -1.5056  0.9267
 6996TIP3   OH242478   1.820   1.371  13.210 -0.0981 -0.1566 -0.1357
 6996TIP3    H142479   1.735   1.330  13.198 -1.0196  1.2380  1.2272
 6996TIP3    H242480   1.801   1.464  13.225  1.5754  0.0543  1.0180
 6997TIP3   OH242481   3.877   6.223  14.847  0.0506  0.5587  0.1582
 6997TIP3    H142482   3.856   6.163  14.775 -0.2195  0.4947  0.2877
 6997TIP3    H242483   3.823   6.193  14.919  0.0627  0.8380  0.2846
 6998TIP3   OH242484   1.623   5.265   3.883 -0.1561 -0.0309 -0.6422
 6998TIP3    H142485   1.639   5.260   3.788  0.0807  3.6114 -0.9089
 6998TIP3    H242486   1.537   5.224   3.894 -0.3451 -0.2470 -2.4715
 6999TIP3   OH242487   6.476   1.986  15.251  0.0616 -0.4617  0.3447
 6999TIP3    H142488   6.528   1.973  15.171  0.2112 -0.2704  0.4067
 6999TIP3    H242489   6.463   2.081  15.255 -2.2269 -0.6774 -0.8674
 7000TIP3   OH242490   5.452   2.732  14.300  0.0083  0.1423 -0.1628
 7000TIP3    H142491   5.515   2.804  14.301 -1.2823  1.3107 -1.0005
 7000TIP3    H242492   5.466   2.689  14.216 -0.3493  0.4505 -0.3834
 7001TIP3   OH242493   6.807   4.715   0.908 -0.1389 -0.0339  1.4119
 7001TIP3    H142494   6.835   4.782   0.845 -2.9447  1.3677  1.4980
 7001TIP3    H242495   6.840   4.633   0.872  0.9307  1.0727 -0.2580
 7002TIP3   OH242496   3.332   0.559  12.937 -0.4714 -0.6362 -0.1742
 7002TIP3    H142497   3.375   0.638  12.971 -2.9659  0.3040  1.0421
 7002TIP3    H242498   3.401   0.513  12.889  1.9349  0.6119  1.8517
 7003TIP3   OH242499   1.807   4.224  12.647 -0.5614  0.3757 -0.2606
 7003TIP3    H142500   1.857   4.209  12.727 -0.7539  0.2416 -0.1667
 7003TIP3    H242501   1.743   4.291  12.670 -1.2531 -0.3480 -0.0322
 7004TIP3   OH242502   4.378   6.173  11.044  0.2318  0.1856 -0.4327
 7004TIP3    H142503   4.358   6.203  10.956 -0.5755 -1.5315 -0.8695
 7004TIP3    H242504   4.407   6.083  11.033 -1.2500 -0.5486  1.1630
 7005TIP3   OH242505   3.032   6.302  14.949 -0.3823  0.9356  0.2829
 7005TIP3    H142506   3.101   6.347  14.998  0.9385 -1.7407  1.0928
 7005TIP3    H242507   3.066   6.296  14.860  1.4790 -2.0244  1.0594
 7006TIP3   OH242508   4.344   5.738   4.752 -0.2341 -0.0217  0.2667
 7006TIP3    H142509   4.322   5.656   4.795  0.6030 -0.1352  0.5094
 7006TIP3    H242510   4.438   5.749   4.769 -0.5389  1.5025  1.1504
 7007TIP3   OH242511   4.727   1.037  16.278 -0.1351  0.7739  0.3585
 7007TIP3    H142512   4.633   1.019  16.288  0.1136 -2.1446 -1.2642
 7007TIP3    H242513   4.731   1.113  16.220 -1.4016  2.5257  2.4088
 7008TIP3   OH242514   3.114   6.650  16.706 -0.0494 -0.3696 -0.4255
 7008TIP3    H142515   3.182   6.700  16.750  2.3780 -2.1886 -1.8372
 7008TIP3    H242516   3.117   6.680  16.615 -1.5741 -0.0826 -0.4111
 7009TIP3   OH242517   4.415   2.841   4.945  0.9932 -0.0495  0.5944
 7009TIP3    H142518   4.473   2.915   4.930  1.1349  0.0065  1.3880
 7009TIP3    H242519   4.357   2.870   5.015 -1.0053  0.4654 -1.1654
 7010TIP3   OH242520   5.308   3.451   0.441 -0.1794 -0.0646 -0.7061
 7010TIP3    H142521   5.399   3.469   0.464  0.0944 -0.6155 -1.3345
 7010TIP3    H242522   5.258   3.476   0.519  0.4367  0.8872 -0.6039
 7011TIP3   OH242523   0.239   1.536   5.695  0.2845 -0.1185 -0.1932
 7011TIP3    H142524   0.287   1.544   5.777  0.3186 -0.1596 -0.2091
 7011TIP3    H242525   0.161   1.591   5.707  0.8083  0.7139 -0.5224
 7012TIP3   OH242526   0.314   3.845   3.363 -0.1635 -0.2215  0.5326
 7012TIP3    H142527   0.327   3.886   3.448  0.1700 -0.5836  0.6624
 7012TIP3    H242528   0.220   3.851   3.347 -0.5093 -1.6617  1.7268
 7013TIP3   OH242529   0.711   5.297  13.956 -0.1344 -0.1264  0.1087
 7013TIP3    H142530   0.710   5.325  14.047  2.6631 -2.3606  0.9763
 7013TIP3    H242531   0.778   5.352  13.915 -0.5903  0.1003 -0.3538
 7014TIP3   OH242532   5.353   1.462   3.141  0.1383  0.2002 -0.1908
 7014TIP3    H142533   5.302   1.420   3.211 -0.0921  0.4008 -0.2373
 7014TIP3    H242534   5.325   1.417   3.061  2.2389 -1.7921  0.1058
 7015TIP3   OH242535   2.941   1.648   0.923 -0.1599  0.7857  0.4562
 7015TIP3    H142536   2.859   1.606   0.895  0.2706  1.2935 -1.7386
 7015TIP3    H242537   2.996   1.575   0.952 -0.8871  0.2997  0.6602
 7016TIP3   OH242538   4.554   6.323   1.279  0.6202 -0.5391  0.6205
 7016TIP3    H142539   4.533   6.229   1.284  0.3597 -0.6841 -1.9268
 7016TIP3    H242540   4.605   6.340   1.358  0.6745 -2.8320  1.1598
 7017TIP3   OH242541   4.904   2.627  12.626  0.0205  0.2907 -0.0569
 7017TIP3    H142542   4.992   2.664  12.635 -0.6207  1.6819  0.6899
 7017TIP3    H242543   4.882   2.640  12.533  0.1422  1.0287  0.0132
 7018TIP3   OH242544   0.021   2.340   4.141  0.4072 -0.4917  0.3561
 7018TIP3    H142545  -0.034   2.415   4.165 -0.1479 -0.3528 -1.2456
 7018TIP3    H242546   0.083   2.374   4.077  1.1969 -1.0596  0.7990
 7019TIP3   OH242547   1.101   6.792   0.892 -0.4971 -0.5185  0.2506
 7019TIP3    H142548   1.153   6.798   0.971 -2.6019 -3.6212  2.0827
 7019TIP3    H242549   1.018   6.755   0.921 -1.7660 -0.8202 -3.2954
 7020TIP3   OH242550   5.154   4.470  17.039  0.2974 -0.2944  0.5276
 7020TIP3    H142551   5.165   4.477  16.944  0.5279  2.2681  0.6732
 7020TIP3    H242552   5.059   4.475  17.052  0.0215 -3.1643  0.3803
 7021TIP3   OH242553   5.258   3.129  12.182 -0.4246  0.5885 -0.2296
 7021TIP3    H142554   5.186   3.120  12.244 -0.5161 -1.1727 -0.5422
 7021TIP3    H242555   5.218   3.117  12.096  0.2243 -0.6340 -0.3972
 7022TIP3   OH242556   3.851   5.401   0.638 -0.2089  0.2655 -0.0807
 7022TIP3    H142557   3.767   5.355   0.629 -0.0813 -0.2426  1.1238
 7022TIP3    H242558   3.835   5.467   0.705 -0.1034  1.3459 -1.0730
 7023TIP3   OH242559   0.622   2.138  15.778 -0.3771  0.1513 -0.0878
 7023TIP3    H142560   0.661   2.189  15.849  0.0157 -0.5621  0.2189
 7023TIP3    H242561   0.606   2.052  15.817  0.0837 -0.3306 -0.9377
 7024TIP3   OH242562   6.258   0.413   1.458  0.1446  0.0218 -0.5777
 7024TIP3    H142563   6.263   0.471   1.535 -0.3905  0.5853 -0.9555
 7024TIP3    H242564   6.306   0.335   1.484 -1.1040 -0.3411  0.8306
 7025TIP3   OH242565   1.217   1.090   0.366  0.0480 -0.1263 -0.3176
 7025TIP3    H142566   1.135   1.048   0.395  1.0778 -0.0685  3.1452
 7025TIP3    H242567   1.215   1.176   0.407  2.2446 -0.5003  0.6919
 7026TIP3   OH242568   2.052   1.908  11.437 -0.7792 -0.3690 -0.1583
 7026TIP3    H142569   2.051   1.911  11.533 -1.1521 -0.2759 -0.1619
 7026TIP3    H242570   2.066   1.816  11.416  0.6095 -0.2028 -0.0199
 7027TIP3   OH242571   0.212   1.975  15.357  0.2384  0.3283 -0.1294
 7027TIP3    H142572   0.187   2.040  15.423  1.7881  0.2396  0.5825
 7027TIP3    H242573   0.188   1.891  15.397  0.7019  0.3085  0.1186
 7028TIP3   OH242574   1.477   2.801  14.807 -0.2258  0.3175  0.1748
 7028TIP3    H142575   1.395   2.752  14.813 -0.4753  0.3152 -2.3599
 7028TIP3    H242576   1.453   2.891  14.831 -0.3719 -0.1510  1.9607
 7029TIP3   OH242577   3.626   4.790  12.458  0.6877 -0.6040 -0.3734
 7029TIP3    H142578   3.536   4.759  12.471  0.6969 -0.2463  0.6786
 7029TIP3    H242579   3.650   4.828  12.543  2.7762 -3.0809  0.2634
 7030TIP3   OH242580   1.926   0.017  11.182 -0.9115  0.1370  0.0227
 7030TIP3    H142581   1.847   0.071  11.187 -1.8440 -1.0397 -1.2972
 7030TIP3    H242582   1.908  -0.045  11.112  0.8418 -0.7480  0.3108
 7031TIP3   OH242583   0.691   4.672  12.806 -0.2493 -0.2522  0.2993
 7031TIP3    H142584   0.732   4.758  12.798 -0.8201 -0.0647 -0.7857
 7031TIP3    H242585   0.635   4.679  12.883  1.9493 -0.6167  2.0314
 7032TIP3   OH242586   0.202   3.716  16.582  0.3902 -0.2249 -0.3844
 7032TIP3    H142587   0.296   3.701  16.572  0.4225 -0.3466  0.0806
 7032TIP3    H242588   0.160   3.638  16.547  0.4822 -0.4031 -0.0986
 7033TIP3   OH242589   4.515   6.482   4.693  0.3560 -0.9608  0.4721
 7033TIP3    H142590   4.583   6.415   4.697  0.0127 -1.2878  0.9779
 7033TIP3    H242591   4.511   6.518   4.781 -0.2322 -1.0564  0.4885
 7034TIP3   OH242592   1.426   6.161  12.479  0.5250 -0.3873  0.3609
 7034TIP3    H142593   1.473   6.152  12.396  0.5571 -2.8036  0.5699
 7034TIP3    H242594   1.494   6.151  12.546  0.3436  0.5265  0.6923
 7035TIP3   OH242595   4.201   0.110   5.350 -0.1522 -0.1222  0.6678
 7035TIP3    H142596   4.159   0.194   5.331  0.7722  0.1994 -0.0309
 7035TIP3    H242597   4.288   0.134   5.383 -0.2432 -0.7908  1.4248
 7036TIP3   OH242598   6.641   6.632  16.695  0.8417  0.2465 -0.5070
 7036TIP3    H142599   6.650   6.715  16.650  1.8047 -0.0354 -0.8435
 7036TIP3    H242600   6.583   6.651  16.769 -0.9284  0.6845 -1.9160
 7037TIP3   OH242601   4.155   1.101  14.576 -0.6735 -0.1391 -0.0580
 7037TIP3    H142602   4.195   1.185  14.595  0.2195 -0.1719 -1.6260
 7037TIP3    H242603   4.143   1.101  14.481 -0.9222 -1.6680 -0.0507
 7038TIP3   OH242604   6.041   2.132  13.522  0.4070 -0.0207  0.5237
 7038TIP3    H142605   5.959   2.147  13.474 -0.6506  0.4101  2.3701
 7038TIP3    H242606   6.091   2.073  13.466 -1.3492 -0.6377 -0.4776
 7039TIP3   OH242607   4.780   5.066  11.280  0.2285  0.4204 -0.1515
 7039TIP3    H142608   4.722   5.001  11.319  1.1169  0.4052  1.2155
 7039TIP3    H242609   4.723   5.139  11.258 -1.2006 -1.5366 -3.7779
 7040TIP3   OH242610   5.548   6.784   1.075  0.3340  0.4974 -0.0302
 7040TIP3    H142611   5.481   6.722   1.106  1.9695 -0.7729  1.1184
 7040TIP3    H242612   5.616   6.729   1.037  2.1096  1.5139  1.5378
 7041TIP3   OH242613   5.596   6.675   1.936  0.2718 -0.2198  0.4897
 7041TIP3    H142614   5.549   6.599   1.970 -0.2795 -0.2773 -0.3668
 7041TIP3    H242615   5.678   6.677   1.986  0.4484 -1.5722  0.3073
 7042TIP3   OH242616   3.776   4.710  10.781 -0.6662  0.0531 -0.0469
 7042TIP3    H142617   3.734   4.717  10.867 -3.5428 -1.7351 -1.1606
 7042TIP3    H242618   3.846   4.646  10.794  0.9157  1.9853  1.5345
 7043TIP3   OH242619   6.172   1.468  11.127  0.2249  0.1544 -0.1746
 7043TIP3    H142620   6.226   1.485  11.205  0.4236  0.9766 -0.4881
 7043TIP3    H242621   6.125   1.550  11.111  0.0744 -0.0544 -0.8362
 7044TIP3   OH242622   5.533   0.585  12.054 -0.4858  0.1659 -0.2083
 7044TIP3    H142623   5.506   0.665  12.100 -0.9720 -1.6792  2.9763
 7044TIP3    H242624   5.624   0.572  12.080 -0.7001 -0.8173  0.0729
 7045TIP3   OH242625   6.196   0.872   1.953 -0.3240  0.5449  0.3825
 7045TIP3    H142626   6.156   0.789   1.976 -0.0866  0.4006  0.2707
 7045TIP3    H242627   6.270   0.881   2.013  0.6507 -0.1054 -0.6893
 7046TIP3   OH242628   5.118   2.560   0.540  0.2815 -0.2960 -0.1710
 7046TIP3    H142629   5.102   2.515   0.623 -2.6095  0.0592 -0.4156
 7046TIP3    H242630   5.157   2.644   0.565 -1.1375  0.0735  0.9510
 7047TIP3   OH242631   0.168   0.232   1.898  0.7556  0.2166 -0.8356
 7047TIP3    H142632   0.231   0.275   1.840  0.2260  0.4435 -1.2521
 7047TIP3    H242633   0.084   0.241   1.853  0.5369 -0.7384 -0.6404
 7048TIP3   OH242634   2.584   6.165  16.711  0.1188  0.2962  0.5188
 7048TIP3    H142635   2.654   6.206  16.762  0.3639 -0.7512  1.0469
 7048TIP3    H242636   2.571   6.224  16.637  1.3129  0.6891  0.6046
 7049TIP3   OH242637   3.322   4.688  12.902  0.2888  0.4265  0.5581
 7049TIP3    H142638   3.309   4.595  12.886 -1.0708  1.0084 -2.2932
 7049TIP3    H242639   3.235   4.722  12.921  0.6883  1.2262  1.0292
 7050TIP3   OH242640   5.175   2.109   3.271  0.7048 -0.0252  0.4005
 7050TIP3    H142641   5.212   2.115   3.359  2.3255  0.4235 -0.2775
 7050TIP3    H242642   5.204   2.024   3.238  1.5667  0.5374 -0.3189
 7051TIP3   OH242643   2.899   3.210   0.401  0.2210 -0.2688  0.1247
 7051TIP3    H142644   2.842   3.146   0.445 -2.7093  2.5451  0.7875
 7051TIP3    H242645   2.969   3.227   0.464  0.8978 -2.4356  0.0706
 7052TIP3   OH242646   0.005   0.695   2.962 -0.0339 -0.4873 -0.6218
 7052TIP3    H142647  -0.022   0.767   2.905  0.8852  0.8004  0.4721
 7052TIP3    H242648   0.020   0.737   3.047 -1.0906 -2.2753  0.5258
 7053TIP3   OH242649   0.875   3.065   2.098  0.0343 -0.5004  0.1153
 7053TIP3    H142650   0.932   3.120   2.044  0.0253 -0.3357  0.2712
 7053TIP3    H242651   0.927   2.988   2.119  0.0417 -0.5569 -0.1185
 7054TIP3   OH242652   5.729   0.775   4.854  0.1086  0.3915  0.3143
 7054TIP3    H142653   5.720   0.733   4.939 -0.5347  0.7273  0.4163
 7054TIP3    H242654   5.824   0.774   4.837  0.3504  1.2202  1.4971
 7055TIP3   OH242655   0.736   2.897   4.550 -0.3847 -0.4875  0.0909
 7055TIP3    H142656   0.761   2.918   4.640 -4.1153 -1.3887  1.4830
 7055TIP3    H242657   0.714   2.981   4.510  1.9420 -0.0022 -0.3271
 7056TIP3   OH242658   0.409   1.201   6.036  0.2835  0.1723  1.1264
 7056TIP3    H142659   0.476   1.133   6.039  0.2434  0.1244  0.9645
 7056TIP3    H242660   0.349   1.173   5.966  0.1041  0.2214  1.2579
 7057TIP3   OH242661   4.651   1.528   2.493  0.1335  0.5100 -0.2591
 7057TIP3    H142662   4.626   1.435   2.487 -0.2460  0.5311  0.7908
 7057TIP3    H242663   4.644   1.548   2.586  0.1665  1.6172 -0.4899
 7058TIP3   OH242664   2.342   5.787  12.134  0.5263  0.0082 -0.3237
 7058TIP3    H142665   2.427   5.742  12.134 -1.0788 -3.3581 -1.7031
 7058TIP3    H242666   2.279   5.719  12.111 -2.6949  2.1969  1.2957
 7059TIP3   OH242667   5.897   3.378  11.405 -0.2297  0.3525 -0.6430
 7059TIP3    H142668   5.816   3.428  11.391 -1.0229 -0.5678  0.4850
 7059TIP3    H242669   5.895   3.312  11.335  2.0254  3.1783 -3.6975
 7060TIP3   OH242670   3.539   3.811   4.075  0.3747  0.2058 -0.1009
 7060TIP3    H142671   3.551   3.716   4.077  1.4840  0.3501  1.4184
 7060TIP3    H242672   3.613   3.842   4.022 -1.5793  0.0817 -3.1473
 7061TIP3   OH242673   4.751   0.294  14.200  0.4376 -0.5595 -0.1905
 7061TIP3    H142674   4.746   0.357  14.128  0.3422 -1.7923 -1.3023
 7061TIP3    H242675   4.660   0.276  14.223  0.4332  1.7292  2.0377
 7062TIP3   OH242676   5.254   6.738  10.486  0.6724 -0.3525 -0.0959
 7062TIP3    H142677   5.219   6.661  10.531  0.6597  0.3199  1.1086
 7062TIP3    H242678   5.177   6.782  10.451  0.6694 -0.8246 -0.6916
 7063TIP3   OH242679   2.673   4.863   5.045 -0.0615  0.2298 -0.0438
 7063TIP3    H142680   2.749   4.859   5.104  0.5487 -0.5600 -0.8479
 7063TIP3    H242681   2.609   4.917   5.091  0.9140  0.7384  0.7461
 7064TIP3   OH242682   2.212   3.593   6.137  0.2625 -0.1299  0.1648
 7064TIP3    H142683   2.276   3.572   6.206 -0.6586  1.0522  1.4304
 7064TIP3    H242684   2.210   3.688   6.134  1.9592 -0.0853 -3.1809
 7065TIP3   OH242685   2.524   2.497  12.792 -0.3710 -0.3732 -0.3868
 7065TIP3    H142686   2.469   2.561  12.836  0.6782  0.9767 -0.9784
 7065TIP3    H242687   2.573   2.455  12.863 -2.4544 -1.9687  0.2081
 7066TIP3   OH242688   6.189   1.872   5.843 -0.0507  0.5742  0.1987
 7066TIP3    H142689   6.269   1.905   5.884  1.7487  0.3733 -2.8919
 7066TIP3    H242690   6.203   1.777   5.836 -1.5239  0.2170  1.4399
 7067TIP3   OH242691   0.717   1.322  11.276 -0.7900 -0.2660  0.4288
 7067TIP3    H142692   0.757   1.381  11.213 -0.5452 -0.5590  0.3091
 7067TIP3    H242693   0.738   1.361  11.361  0.5645 -0.9106  0.4167
 7068TIP3   OH242694   4.613   0.069  16.399 -0.6049  0.6295 -0.4591
 7068TIP3    H142695   4.670   0.117  16.459 -1.2589  0.4100  0.3539
 7068TIP3    H242696   4.666  -0.007  16.373 -0.0024  1.1676 -0.8418
 7069TIP3   OH242697   4.248   6.245  13.453 -0.1814  0.2001 -0.6983
 7069TIP3    H142698   4.316   6.266  13.517  2.8718  1.3737 -3.9745
 7069TIP3    H242699   4.167   6.274  13.494  1.2222 -0.8241  3.2673
 7070TIP3   OH242700   6.370   4.837   1.418  0.2255  0.4381  0.3384
 7070TIP3    H142701   6.351   4.874   1.332  0.2771  2.6067  1.1997
 7070TIP3    H242702   6.284   4.835   1.462  0.1861 -0.7272  0.2422
 7071TIP3   OH242703   2.085   6.348   5.352 -0.5474 -0.2060 -0.2407
 7071TIP3    H142704   2.000   6.369   5.313  0.1401 -1.5045 -2.6616
 7071TIP3    H242705   2.073   6.262   5.391 -1.1033  0.8976  2.1934
 7072TIP3   OH242706   3.753   5.469  15.863  0.0996 -0.0425  0.6082
 7072TIP3    H142707   3.838   5.488  15.823 -0.9992 -0.1329 -1.9606
 7072TIP3    H242708   3.689   5.501  15.799 -1.8279 -0.3400  2.2818
 7073TIP3   OH242709   0.591   6.399  12.452 -0.7550 -0.5534  0.0685
 7073TIP3    H142710   0.631   6.451  12.522  0.3929 -0.6139 -0.5233
 7073TIP3    H242711   0.630   6.312  12.462 -0.0409 -0.3737 -1.0809
 7074TIP3   OH242712   1.221   3.402  12.233 -0.2179 -0.1243  0.2626
 7074TIP3    H142713   1.299   3.432  12.185  0.0535 -0.3763  0.5349
 7074TIP3    H242714   1.227   3.306  12.229 -1.1437 -0.1594 -0.7197
 7075TIP3   OH242715   2.649   3.813  12.179  0.0046 -0.0219 -0.1326
 7075TIP3    H142716   2.556   3.806  12.203 -0.8700  0.0935 -3.1483
 7075TIP3    H242717   2.650   3.811  12.084  3.1988 -0.6412 -0.1920
 7076TIP3   OH242718   6.067   3.171  11.542  0.5054 -0.1744  0.0052
 7076TIP3    H142719   6.023   3.139  11.621 -0.2984 -0.5379 -0.5691
 7076TIP3    H242720   6.007   3.236  11.506 -0.1396 -1.4982 -1.4120
 7077TIP3   OH242721   4.235   2.740   2.278  0.4256 -0.0117  0.7403
 7077TIP3    H142722   4.142   2.735   2.256  0.6936 -0.5307 -0.3815
 7077TIP3    H242723   4.261   2.829   2.255  0.4957 -0.2792 -0.2776
 7078TIP3   OH242724   2.401   5.592   1.325  0.0389 -0.2232  0.4788
 7078TIP3    H142725   2.439   5.555   1.245 -0.2565 -1.4084  0.8657
 7078TIP3    H242726   2.458   5.561   1.395 -1.2375 -1.4833  0.9957
 7079TIP3   OH242727   2.612   1.651   2.775  0.3599  0.3662  0.3655
 7079TIP3    H142728   2.618   1.555   2.771 -0.8924  0.2881 -0.0901
 7079TIP3    H242729   2.697   1.679   2.809  0.6495 -0.9239  0.7584
 7080TIP3   OH242730   6.022   3.093  16.217 -0.0973  0.1925  0.0002
 7080TIP3    H142731   6.050   3.152  16.147  0.7348 -1.0421 -0.7260
 7080TIP3    H242732   6.025   3.006  16.179  0.5547 -0.5324  1.6257
 7081TIP3   OH242733   3.697   4.849   2.810 -0.2907 -0.3609 -0.0100
 7081TIP3    H142734   3.736   4.892   2.886  0.1535 -2.1299  0.8227
 7081TIP3    H242735   3.757   4.777   2.790 -2.6648 -2.7314  0.8543
 7082TIP3   OH242736   6.578   5.565   2.904 -0.2092 -0.1865 -0.1704
 7082TIP3    H142737   6.612   5.558   2.815  1.8873  2.2645  0.3485
 7082TIP3    H242738   6.637   5.511   2.956  0.9140  1.3503  0.2209
 7083TIP3   OH242739   6.738   1.718   2.085 -0.4955 -0.0191 -0.2022
 7083TIP3    H142740   6.696   1.674   2.011 -0.0639  0.0866 -0.5147
 7083TIP3    H242741   6.672   1.716   2.155 -1.8944  2.0825 -1.3423
 7084TIP3   OH242742   0.785   2.841   3.770  0.4740 -0.5451  0.0176
 7084TIP3    H142743   0.862   2.823   3.824  1.1683 -0.8301 -1.0253
 7084TIP3    H242744   0.774   2.762   3.717  0.0171 -0.1559 -0.4855
 7085TIP3   OH242745   5.700   2.352  13.673 -0.2017  0.2399  0.5721
 7085TIP3    H142746   5.788   2.335  13.706  0.0703  0.2079 -0.1700
 7085TIP3    H242747   5.697   2.447  13.661  0.8167 -0.0033 -2.3529
 7086TIP3   OH242748   2.270   4.930  13.968  0.2845 -0.0067 -0.7140
 7086TIP3    H142749   2.270   4.855  14.028  2.6335  1.5724  1.4161
 7086TIP3    H242750   2.343   4.912  13.908  0.3768  0.2258 -0.6704
 7087TIP3   OH242751   0.150   3.369   1.649 -0.2943  0.1864 -0.4936
 7087TIP3    H142752   0.058   3.392   1.655 -0.3306  0.1104 -0.7497
 7087TIP3    H242753   0.155   3.309   1.575 -0.6414 -2.7323  1.6666
 7088TIP3   OH242754   0.758   2.055   0.646  0.0966  0.3631  0.0052
 7088TIP3    H142755   0.697   2.127   0.661  1.3003  1.2057  0.9860
 7088TIP3    H242756   0.718   1.980   0.690 -0.9494  0.5090 -0.6556
 7089TIP3   OH242757   6.263   4.975  13.661 -0.0711 -0.1603  0.2283
 7089TIP3    H142758   6.254   5.007  13.751 -3.5385  0.5542 -0.2208
 7089TIP3    H242759   6.334   5.027  13.624 -0.7019  1.8480  1.6657
 7090TIP3   OH242760   4.260   1.249  13.130 -0.0500  0.0301  0.2069
 7090TIP3    H142761   4.226   1.280  13.046 -1.4649 -0.5101  0.5604
 7090TIP3    H242762   4.256   1.326  13.187  3.1977  1.1077 -0.7816
 7091TIP3   OH242763   3.010   2.158  13.149  0.2514  0.2822 -0.3534
 7091TIP3    H142764   2.955   2.082  13.127  1.6967 -1.0081  0.3511
 7091TIP3    H242765   3.070   2.166  13.075  0.3953  0.4547 -0.2182
 7092TIP3   OH242766   3.364   1.212  13.261  0.1930  0.0183 -0.0486
 7092TIP3    H142767   3.363   1.118  13.242 -1.8190 -0.1318  0.5720
 7092TIP3    H242768   3.348   1.254  13.177 -0.4448 -0.2701 -0.0737
 7093TIP3   OH242769   4.715   0.030   5.073 -0.2444  0.4983 -0.2414
 7093TIP3    H142770   4.763   0.043   4.991  1.5219  0.0616  0.6810
 7093TIP3    H242771   4.623   0.033   5.047  0.2620 -0.2310 -2.3365
 7094TIP3   OH242772   4.334   3.200   2.331  0.0604 -0.4309 -0.5327
 7094TIP3    H142773   4.308   3.132   2.268  1.2575 -2.3092  0.8573
 7094TIP3    H242774   4.272   3.191   2.403 -1.3393  1.7477 -1.3957
 7095TIP3   OH242775   1.409   0.874  11.231  0.6705  0.2674 -0.5424
 7095TIP3    H142776   1.385   0.876  11.138 -1.9400  1.7206  0.0799
 7095TIP3    H242777   1.432   0.965  11.252 -1.6190  0.6086  0.8302
 7096TIP3   OH242778   4.576   4.476   3.971 -0.3502  0.1174 -0.0998
 7096TIP3    H142779   4.576   4.533   4.049 -0.4812  2.2305 -1.5543
 7096TIP3    H242780   4.494   4.498   3.926 -1.3448 -2.6338  0.1609
 7097TIP3   OH242781   1.968   2.908   5.861  0.4707 -0.0796  0.0248
 7097TIP3    H142782   1.941   2.978   5.801 -0.6012 -0.3982  0.1126
 7097TIP3    H242783   1.959   2.946   5.948 -0.0033 -0.2807  0.0673
 7098TIP3   OH242784   5.966   5.361   5.242 -0.6379  0.1220 -0.7479
 7098TIP3    H142785   5.911   5.284   5.226 -1.3292 -0.9200  4.7970
 7098TIP3    H242786   6.055   5.332   5.220 -1.1841 -1.3875 -1.1114
 7099TIP3   OH242787   6.691   4.041   4.252 -0.2172  0.2313  0.3343
 7099TIP3    H142788   6.601   4.071   4.262  0.0723  1.1966  0.0763
 7099TIP3    H242789   6.682   3.952   4.216 -1.0367  1.2505 -2.1823
 7100TIP3   OH242790   5.152   4.023  14.843  0.4841 -0.0067 -0.2499
 7100TIP3    H142791   5.222   3.958  14.855  1.7865  1.4488  0.5357
 7100TIP3    H242792   5.130   4.050  14.932 -2.1085 -1.3850 -0.3841
 7101TIP3   OH242793   1.564   4.940   3.788 -0.3846  0.1884  0.4311
 7101TIP3    H142794   1.614   4.864   3.760 -2.4655 -1.1196  0.0229
 7101TIP3    H242795   1.580   5.006   3.721  0.9459 -0.1089  0.4443
 7102TIP3   OH242796   3.821   5.615   2.668  0.4049  0.0552 -0.5012
 7102TIP3    H142797   3.830   5.599   2.762 -0.0444  1.4826 -0.1813
 7102TIP3    H242798   3.911   5.625   2.637  0.8442 -3.9002 -0.9800
 7103TIP3   OH242799   2.321   0.932  13.015 -0.8581  0.4085  0.0343
 7103TIP3    H142800   2.241   0.981  13.035  0.1657  0.9816  3.4202
 7103TIP3    H242801   2.375   0.993  12.966 -1.6824  0.7395 -0.4861
 7104TIP3   OH242802   5.952   0.674   5.367  0.6076 -0.0504  0.1031
 7104TIP3    H142803   5.944   0.753   5.314 -1.2999 -1.0322 -1.1946
 7104TIP3    H242804   5.917   0.698   5.452  2.0309  1.0540  0.4018
 7105TIP3   OH242805   6.539   5.533  11.242 -0.6723 -0.0938 -0.2991
 7105TIP3    H142806   6.447   5.508  11.233 -0.7377 -0.0786  0.3034
 7105TIP3    H242807   6.587   5.453  11.222 -0.8699 -0.5792  1.0461
 7106TIP3   OH242808   6.106   4.989  16.376  0.1787  1.0137 -0.3602
 7106TIP3    H142809   6.075   4.901  16.357 -0.6418  1.4194 -0.9338
 7106TIP3    H242810   6.125   5.027  16.290 -1.2072  2.0125 -0.2563
 7107TIP3   OH242811   1.448   3.124  15.777  0.3031  0.7280 -0.3765
 7107TIP3    H142812   1.408   3.046  15.737  3.0256  0.3509 -2.6957
 7107TIP3    H242813   1.444   3.190  15.708 -1.9256  2.7763  1.5406
 7108TIP3   OH242814   4.613   0.787  14.595  0.1440 -0.4086  0.3772
 7108TIP3    H142815   4.688   0.762  14.650 -0.2484 -1.8419  0.2841
 7108TIP3    H242816   4.551   0.715  14.604  0.6989 -1.5282 -3.1838
 7109TIP3   OH242817   2.461   1.763   2.165 -0.0365  0.1510 -0.1568
 7109TIP3    H142818   2.428   1.832   2.223 -1.1718  0.5249 -1.1840
 7109TIP3    H242819   2.452   1.682   2.215 -0.3875  0.5451  0.4267
 7110TIP3   OH242820   0.779   2.620   4.538  0.0824 -0.1004  0.0246
 7110TIP3    H142821   0.769   2.715   4.547 -0.4255 -0.0510 -0.9141
 7110TIP3    H242822   0.694   2.584   4.562 -0.4881 -0.1319 -1.8746
 7111TIP3   OH242823   4.012   5.790  12.290 -0.2578 -0.4860 -0.2399
 7111TIP3    H142824   4.025   5.701  12.322  2.3514  0.6346  2.3241
 7111TIP3    H242825   3.961   5.833  12.358 -2.7571 -0.2590 -2.1173
 7112TIP3   OH242826   1.880   3.513  16.453 -0.5097  0.1333 -0.2597
 7112TIP3    H142827   1.890   3.605  16.430  0.2681  0.1317  0.0674
 7112TIP3    H242828   1.803   3.511  16.510  0.2001  0.7614  0.7434
 7113TIP3   OH242829   1.188   6.645  13.510  0.0391  0.7717  0.4243
 7113TIP3    H142830   1.232   6.630  13.594 -0.0595 -0.6553  0.2436
 7113TIP3    H242831   1.173   6.557  13.474  1.0421  1.3430 -1.5881
 7114TIP3   OH242832   1.479   0.526  14.500 -0.5459  0.5736  0.2071
 7114TIP3    H142833   1.495   0.443  14.544 -1.0337 -0.2753 -1.1661
 7114TIP3    H242834   1.423   0.504  14.426 -1.4977  2.2783  0.3596
 7115TIP3   OH242835   1.631   4.213   1.156  0.1717  0.3085 -0.0188
 7115TIP3    H142836   1.536   4.218   1.144  0.1355  0.9495  0.4478
 7115TIP3    H242837   1.660   4.147   1.094 -0.7471 -0.8248  0.7037
 7116TIP3   OH242838   4.500   6.014   1.131 -0.7743  0.1146 -0.0263
 7116TIP3    H142839   4.425   6.053   1.086 -0.1013  0.0814 -1.2278
 7116TIP3    H242840   4.490   5.920   1.117 -0.6106  0.0958 -0.0145
 7117TIP3   OH242841   4.332   0.668   3.161  0.5031  0.5338  0.0107
 7117TIP3    H142842   4.333   0.733   3.231  0.7521  1.1126 -0.5179
 7117TIP3    H242843   4.240   0.641   3.155  0.5510  0.1487  0.8468
 7118TIP3   OH242844   3.508   4.727   1.486 -0.4816  0.0086 -0.2548
 7118TIP3    H142845   3.536   4.788   1.418 -0.8104  0.5338  0.0783
 7118TIP3    H242846   3.586   4.716   1.541 -0.1258 -0.6431 -0.8655
 7119TIP3   OH242847   4.803   3.499  16.601  0.7741  0.1974  0.7622
 7119TIP3    H142848   4.856   3.523  16.525  0.2902  1.0963  0.6987
 7119TIP3    H242849   4.809   3.403  16.605  1.6454  0.2225  0.2126
 7120TIP3   OH242850   1.131   2.509   4.101  0.5100 -0.6422  0.1595
 7120TIP3    H142851   1.099   2.522   4.012 -0.3342  2.0098  0.7578
 7120TIP3    H242852   1.226   2.502   4.092  0.3630 -1.4096 -1.0082
 7121TIP3   OH242853   4.261   1.071   1.371  0.1825  0.0723 -0.2363
 7121TIP3    H142854   4.332   1.024   1.415  0.8902  1.4972  0.1851
 7121TIP3    H242855   4.305   1.134   1.314 -0.7465  0.0006 -1.0695
 7122TIP3   OH242856   3.602   4.086  14.571 -0.0414  0.0340 -0.7574
 7122TIP3    H142857   3.684   4.104  14.618 -1.4283  2.7537  0.9131
 7122TIP3    H242858   3.584   4.167  14.523 -1.9518 -0.3350 -0.7232
 7123TIP3   OH242859   4.498   0.822   1.628  0.0226  0.3009 -0.2135
 7123TIP3    H142860   4.584   0.781   1.624 -0.8077 -1.6452  0.5072
 7123TIP3    H242861   4.484   0.858   1.540  0.7053 -1.2612 -0.9971
 7124TIP3   OH242862   2.476   5.858  15.397  0.3626  0.2036 -0.0067
 7124TIP3    H142863   2.501   5.768  15.416 -0.0621 -0.2801 -1.5961
 7124TIP3    H242864   2.382   5.855  15.380  0.7328  0.4494 -2.4862
 7125TIP3   OH242865   6.340   4.516   2.864  0.2885 -0.2831 -0.3753
 7125TIP3    H142866   6.366   4.533   2.774  0.7416 -0.5877 -0.2993
 7125TIP3    H242867   6.271   4.581   2.881 -0.6008 -0.9531 -1.3020
 7126TIP3   OH242868   1.999   2.671  16.862  0.5381  0.5267 -0.8374
 7126TIP3    H142869   2.020   2.613  16.935  2.7046  2.9098  0.6161
 7126TIP3    H242870   1.918   2.635  16.825  0.6780 -2.1708  1.1808
 7127TIP3   OH242871   0.175   0.506   6.642  0.0835  0.2329 -0.2964
 7127TIP3    H142872   0.190   0.579   6.582  0.7626 -1.0686 -1.8082
 7127TIP3    H242873   0.263   0.477   6.666 -0.1817 -0.0033  0.4088
 7128TIP3   OH242874   1.997   2.456  11.509 -0.3336 -0.0913 -0.5762
 7128TIP3    H142875   2.034   2.379  11.553  2.4532  1.3313 -0.2435
 7128TIP3    H242876   2.072   2.499  11.468 -1.9699  1.9105 -1.6444
 7129TIP3   OH242877   4.421   0.061   4.709  0.5954 -0.1810 -0.2927
 7129TIP3    H142878   4.485  -0.001   4.676  0.8774 -0.7359  1.1913
 7129TIP3    H242879   4.339   0.012   4.714  0.9522 -0.6811  1.4581
 7130TIP3   OH242880   2.484   1.089  12.634 -0.3687  0.4481 -0.1520
 7130TIP3    H142881   2.465   1.147  12.560  0.0677 -1.3402 -1.7230
 7130TIP3    H242882   2.410   1.028  12.636  1.5193 -2.0530 -1.7603
 7131TIP3   OH242883   3.169   6.623   1.416 -0.5986 -0.5126  0.2691
 7131TIP3    H142884   3.148   6.714   1.434  0.4052 -0.4335  1.1829
 7131TIP3    H242885   3.178   6.583   1.502 -0.1969 -1.2671 -0.1074
 7132TIP3   OH242886   3.897   5.872  12.532  0.0140 -0.3381  0.0675
 7132TIP3    H142887   3.965   5.902  12.592 -0.0701 -1.1986  0.5993
 7132TIP3    H242888   3.859   5.795  12.574 -0.2662 -0.7679 -0.9286
 7133TIP3   OH242889   0.409   4.123  14.611  0.5614 -0.6603 -0.0842
 7133TIP3    H142890   0.448   4.196  14.660 -0.6643 -1.5785  2.4326
 7133TIP3    H242891   0.421   4.147  14.519  2.0580  1.6929  0.6268
 7134TIP3   OH242892   6.709   0.387   4.735 -0.4847 -0.1773 -0.9548
 7134TIP3    H142893   6.699   0.293   4.750 -0.4098 -0.5130 -2.7709
 7134TIP3    H242894   6.637   0.427   4.782  1.4951 -0.7480  2.9524
 7135TIP3   OH242895   0.242   2.866   1.718 -1.0061 -0.7465  0.1262
 7135TIP3    H142896   0.335   2.880   1.739 -0.9249  1.2954 -1.1902
 7135TIP3    H242897   0.203   2.834   1.799  0.0629  2.4056  2.0670
 7136TIP3   OH242898   1.390   4.761   6.465  0.4900  0.0397 -0.2414
 7136TIP3    H142899   1.371   4.854   6.477  1.0036  0.1398 -0.1460
 7136TIP3    H242900   1.306   4.717   6.475  0.1225  0.5553 -0.9792
 7137TIP3   OH242901   2.509   6.749   5.333  0.5894 -0.2346 -0.1507
 7137TIP3    H142902   2.501   6.748   5.428  0.6277 -1.9694 -0.1255
 7137TIP3    H242903   2.419   6.753   5.300  0.6095  1.5118 -0.0856
 7138TIP3   OH242904   0.428   3.102   3.148 -0.0649 -0.3577  0.5294
 7138TIP3    H142905   0.352   3.075   3.199  0.4683  2.1075  2.8313
 7138TIP3    H242906   0.391   3.151   3.074 -0.7559  0.5896  1.4784
 7139TIP3   OH242907   0.902   4.789  14.813 -0.8683  0.4023  0.1348
 7139TIP3    H142908   0.924   4.845  14.887 -0.2548  2.7328 -1.6521
 7139TIP3    H242909   0.938   4.703  14.835  0.5819  1.3938  1.8915
 7140TIP3   OH242910   3.319   0.601  16.483 -0.0903 -0.2649 -0.2198
 7140TIP3    H142911   3.399   0.549  16.484 -0.4775 -0.8609  0.6221
 7140TIP3    H242912   3.265   0.560  16.416  0.7587  0.8746 -1.6615
 7141TIP3   OH242913   1.356   5.428   1.373  0.5569 -0.4021 -0.6926
 7141TIP3    H142914   1.398   5.498   1.322 -0.3260  0.4609 -0.2688
 7141TIP3    H242915   1.429   5.382   1.414  1.1245  1.5680  0.6939
 7142TIP3   OH242916   4.342   1.251  13.750 -0.3060  0.1782  0.3071
 7142TIP3    H142917   4.358   1.345  13.761 -2.3418  0.9876 -2.5309
 7142TIP3    H242918   4.260   1.246  13.702  0.4021 -3.0404 -0.8066
 7143TIP3   OH242919   3.870   3.376  16.203 -0.2089  0.1223 -0.8951
 7143TIP3    H142920   3.859   3.292  16.159  1.6414  0.4621 -2.1111
 7143TIP3    H242921   3.818   3.437  16.150  0.3848  0.1673 -1.4314
 7144TIP3   OH242922   4.549   5.227  13.491  0.4395 -0.6417 -0.4426
 7144TIP3    H142923   4.587   5.188  13.412  1.4779 -1.1995  0.3206
 7144TIP3    H242924   4.562   5.162  13.559 -0.1375 -0.0149  0.2804
 7145TIP3   OH242925   2.574   0.025   4.669 -0.1538 -0.3464  0.5955
 7145TIP3    H142926   2.552  -0.052   4.616  0.0112  0.1799 -0.2532
 7145TIP3    H242927   2.668   0.037   4.658  0.0416 -0.7332  1.7092
 7146TIP3   OH242928   4.416   4.023   0.677  0.5185 -0.1128 -0.3314
 7146TIP3    H142929   4.470   3.970   0.619  0.9906  0.2145 -0.1985
 7146TIP3    H242930   4.348   3.963   0.709 -0.1715 -0.1296 -1.7491
 7147TIP3   OH242931   1.748   3.727   3.172 -0.0347 -0.0391  0.6187
 7147TIP3    H142932   1.695   3.806   3.183  2.1314  1.9086 -1.6208
 7147TIP3    H242933   1.717   3.689   3.090  1.4368  0.7305 -0.3407
 7148TIP3   OH242934   4.560   5.091  15.572 -0.7964 -0.3137 -0.0106
 7148TIP3    H142935   4.483   5.145  15.555 -0.4496  0.1933  0.0067
 7148TIP3    H242936   4.528   5.020  15.627 -1.2405 -0.0742  0.0414
 7149TIP3   OH242937   5.606   4.671  12.021 -0.6386  0.8822  0.2871
 7149TIP3    H142938   5.694   4.655  12.055 -0.9678  0.3319  0.9119
 7149TIP3    H242939   5.548   4.634  12.088 -1.3274  0.3937 -0.5736
 7150TIP3   OH242940   0.133   5.813   6.161 -0.5194 -0.4029 -0.6233
 7150TIP3    H142941   0.190   5.888   6.180 -0.8835 -0.1464 -0.5421
 7150TIP3    H242942   0.051   5.833   6.205 -0.5742 -0.9184 -0.4862
 7151TIP3   OH242943   0.302   2.044  11.671 -0.6885 -0.5150 -0.1883
 7151TIP3    H142944   0.390   2.043  11.710 -0.1584 -1.3706 -1.3395
 7151TIP3    H242945   0.318   2.057  11.577 -1.6663 -2.4115 -0.6621
 7152TIP3   OH242946   0.682   5.278   4.499  0.6099 -0.1695 -0.0704
 7152TIP3    H142947   0.728   5.269   4.416 -1.3319 -1.6448 -1.0841
 7152TIP3    H242948   0.626   5.354   4.488  1.7970  0.8539  0.6885
 7153TIP3   OH242949   4.397   2.557  17.097 -0.1980  0.0280  1.1549
 7153TIP3    H142950   4.474   2.504  17.116  0.0312 -0.8227 -1.7438
 7153TIP3    H242951   4.327   2.516  17.148  0.6648 -0.9780  1.5644
 7154TIP3   OH242952   4.306   4.081  12.959 -0.6299  0.6430  0.2176
 7154TIP3    H142953   4.364   4.039  12.895 -0.5489  0.8102  0.1786
 7154TIP3    H242954   4.266   4.009  13.007  1.1281  0.5316  1.6218
 7155TIP3   OH242955   6.237   4.196  16.420  0.1896  0.5186 -0.3752
 7155TIP3    H142956   6.146   4.225  16.416 -0.4378 -1.1987  0.6373
 7155TIP3    H242957   6.259   4.173  16.330 -1.3976 -1.8732 -0.2433
 7156TIP3   OH242958   6.718   4.226   4.821  0.5319  0.1802  0.5310
 7156TIP3    H142959   6.677   4.177   4.750  1.0945  0.6838 -0.1607
 7156TIP3    H242960   6.744   4.159   4.885 -1.7732 -0.1126  1.2415
 7157TIP3   OH242961   5.566   0.889  16.200 -0.3559 -0.4162  0.1209
 7157TIP3    H142962   5.629   0.921  16.265 -0.0164  0.4440 -0.6055
 7157TIP3    H242963   5.491   0.859  16.252 -0.1135  0.2824  0.9055
 7158TIP3   OH242964   3.544   5.677  11.554 -0.0438 -0.5699  0.2127
 7158TIP3    H142965   3.524   5.730  11.477  0.6646 -0.6292 -0.0244
 7158TIP3    H242966   3.487   5.601  11.546 -0.3318 -0.3357  0.0103
 7159TIP3   OH242967   1.716   2.969   2.981 -0.1329  0.0207 -0.0382
 7159TIP3    H142968   1.626   2.942   2.963 -0.3013  0.4599  0.1296
 7159TIP3    H242969   1.767   2.888   2.977 -0.7263 -0.4337  1.0429
 7160TIP3   OH242970   4.482   2.554  15.336  0.3896  0.4864  0.4725
 7160TIP3    H142971   4.549   2.594  15.280 -0.3828  0.1994 -0.7065
 7160TIP3    H242972   4.518   2.470  15.361 -0.3671 -0.6745 -2.0129
 7161TIP3   OH242973   4.996   0.871   3.604 -0.2623  0.3095 -0.0546
 7161TIP3    H142974   5.025   0.789   3.564 -3.3479 -0.6025 -0.6527
 7161TIP3    H242975   4.928   0.844   3.667 -1.5242  2.4005 -0.4342
 7162TIP3   OH242976   5.770   1.645  13.659 -0.2127  0.2637  0.6534
 7162TIP3    H142977   5.851   1.679  13.621  0.2128 -2.1582 -0.7912
 7162TIP3    H242978   5.798   1.573  13.716 -1.3018 -0.2523  0.5593
 7163TIP3   OH242979   2.695   1.457   2.138 -0.1537  0.2861  0.0087
 7163TIP3    H142980   2.749   1.381   2.161  1.0476  0.7850 -1.0686
 7163TIP3    H242981   2.638   1.469   2.215  2.0120  0.4108  1.6811
 7164TIP3   OH242982   5.418   3.096  14.519 -0.0461 -0.2027  0.3443
 7164TIP3    H142983   5.385   3.158  14.455 -0.1785 -1.3724 -0.7431
 7164TIP3    H242984   5.427   3.013  14.472  3.3432 -0.2683  0.8190
 7165TIP3   OH242985   2.738   0.238   1.842  0.0026  0.2104  0.3656
 7165TIP3    H142986   2.721   0.196   1.926  0.0325 -1.2907 -0.3600
 7165TIP3    H242987   2.701   0.326   1.852  0.0092  0.0572  1.9405
 7166TIP3   OH242988   2.230   6.409   0.132 -0.3164 -0.7866 -0.3232
 7166TIP3    H142989   2.144   6.424   0.172  1.2499 -1.9940  4.0644
 7166TIP3    H242990   2.269   6.496   0.127 -0.7734 -0.5377  0.2656
 7167TIP3   OH242991   0.701   1.147   5.228  0.4664 -0.1486  0.1363
 7167TIP3    H142992   0.634   1.086   5.197  1.8945 -2.4669  1.3394
 7167TIP3    H242993   0.656   1.200   5.295 -1.1465  1.1366 -1.8580
 7168TIP3   OH242994   2.720   3.683   0.343 -0.8735  0.2709 -0.6298
 7168TIP3    H142995   2.715   3.600   0.390  0.5929  0.7930  0.5052
 7168TIP3    H242996   2.767   3.662   0.262  0.3367  0.1295  0.0782
 7169TIP3   OH242997   2.676   0.840   4.870  0.1004  0.4036  0.0690
 7169TIP3    H142998   2.674   0.745   4.860 -0.6847  0.3909  0.2406
 7169TIP3    H242999   2.710   0.873   4.786 -0.3380  0.0065 -0.2685
 7170TIP3   OH243000   0.213   5.241  14.263 -0.3706 -0.0016  0.0224
 7170TIP3    H143001   0.228   5.147  14.269  1.4675 -0.0380 -2.9487
 7170TIP3    H243002   0.165   5.253  14.182 -1.3965  1.6139  0.8027
 7171TIP3   OH243003   4.782   1.419  11.872 -0.3940 -0.1595 -0.5113
 7171TIP3    H143004   4.808   1.382  11.956 -0.7954  0.4692 -0.0997
 7171TIP3    H243005   4.695   1.456  11.888 -0.6568 -0.4131 -1.3172
 7172TIP3   OH243006   5.872   2.624   2.030  0.2184  0.0004  0.3494
 7172TIP3    H143007   5.860   2.685   2.103  1.1924 -0.5142  0.9682
 7172TIP3    H243008   5.836   2.670   1.954 -0.0200  0.9091  0.9959
 7173TIP3   OH243009   0.179   0.608   5.850 -0.1552  0.5347 -0.0309
 7173TIP3    H143010   0.240   0.597   5.777 -1.6357 -0.3787 -1.2028
 7173TIP3    H243011   0.114   0.669   5.817 -0.0345  1.3063  1.1113
 7174TIP3   OH243012   1.695   2.126  11.625  0.0282 -1.0604 -0.0379
 7174TIP3    H143013   1.694   2.106  11.718 -0.8821  0.6455  0.3718
 7174TIP3    H243014   1.603   2.119  11.598  0.0238  0.0774 -0.3929
 7175TIP3   OH243015   6.756   5.172  15.430 -0.0711  0.0201 -0.0165
 7175TIP3    H143016   6.758   5.078  15.411 -0.7495  0.0562 -0.2828
 7175TIP3    H243017   6.837   5.205  15.391  0.7643 -0.6327  1.1147
 7176TIP3   OH243018   4.948   0.924  12.742  0.3787 -0.0012  0.0672
 7176TIP3    H143019   4.934   0.865  12.668  0.2699 -0.3979  0.3964
 7176TIP3    H243020   4.986   0.868  12.810 -1.8144 -0.2448  1.1813
 7177TIP3   OH243021   3.000   4.879  10.499 -0.6450 -0.7216 -0.1723
 7177TIP3    H143022   3.005   4.793  10.457 -0.5062 -1.4840  1.3464
 7177TIP3    H243023   2.931   4.925  10.452  0.6281 -0.8919 -2.3419
 7178TIP3   OH243024   0.133   4.086  14.670 -0.0229  0.1163 -0.6345
 7178TIP3    H143025   0.141   4.023  14.741  0.3151 -0.5746 -1.2673
 7178TIP3    H243026   0.223   4.103  14.642 -0.1897 -0.2757 -1.4496
 7179TIP3   OH243027   4.057   4.771  16.842  0.3451  0.8004  0.1372
 7179TIP3    H143028   4.010   4.705  16.893  0.4825 -0.3770 -1.2062
 7179TIP3    H243029   4.130   4.797  16.899 -1.6744  2.4802  2.1621
 7180TIP3   OH243030   5.517   0.558  13.423 -0.0777  0.4907  0.5883
 7180TIP3    H143031   5.581   0.541  13.354 -0.7104  3.9025 -1.0501
 7180TIP3    H243032   5.568   0.559  13.504  1.7379  1.7432 -0.4983
 7181TIP3   OH243033   6.011   0.429  11.186  0.1383 -0.4885  0.3195
 7181TIP3    H143034   6.092   0.388  11.155  0.5515  0.6621 -0.1628
 7181TIP3    H243035   6.015   0.419  11.282  0.5498 -0.9662  0.2621
 7182TIP3   OH243036   3.528   0.856  14.353 -0.0352  0.2836  0.2738
 7182TIP3    H143037   3.537   0.862  14.448 -2.1507 -0.3776  0.5656
 7182TIP3    H243038   3.556   0.942  14.320 -1.9923  1.5527  1.7475
 7183TIP3   OH243039   6.748   3.086   4.264 -0.2759 -0.0489 -0.2113
 7183TIP3    H143040   6.834   3.090   4.221  1.1217 -0.1434  2.3337
 7183TIP3    H243041   6.721   3.177   4.274  0.0288  0.0369 -0.1583
 7184TIP3   OH243042   5.125   4.403  11.889 -0.2578 -0.5213 -0.2189
 7184TIP3    H143043   5.041   4.427  11.928 -0.5063  0.0658 -1.0928
 7184TIP3    H243044   5.121   4.438  11.800  1.4310  0.6727  0.1265
 7185TIP3   OH243045   4.467   3.773  10.523  0.8490  0.3421  0.2121
 7185TIP3    H143046   4.512   3.689  10.533  1.6332  0.9119  1.9766
 7185TIP3    H243047   4.534   3.832  10.489  0.6860  0.5725  0.2937
 7186TIP3   OH243048   0.222   2.181  17.067 -0.4454  0.0355 -0.5953
 7186TIP3    H143049   0.297   2.152  17.016 -0.4225  0.9771 -1.1213
 7186TIP3    H243050   0.156   2.204  17.001 -0.0434  2.2829 -0.2792
 7187TIP3   OH243051   5.633   4.487  13.891 -0.1095 -0.1167 -0.0157
 7187TIP3    H143052   5.611   4.459  13.802  1.5127 -1.6750  0.0229
 7187TIP3    H243053   5.686   4.416  13.926  0.6239  1.1888  1.6498
 7188TIP3   OH243054   3.738   3.711  10.492 -0.0397  0.3266 -0.0459
 7188TIP3    H143055   3.727   3.794  10.444  0.3889  0.0024 -0.7208
 7188TIP3    H243056   3.753   3.737  10.583  2.8025  1.1318 -0.6520
 7189TIP3   OH243057   5.238   6.194  15.999 -0.4256 -0.3294  0.5674
 7189TIP3    H143058   5.160   6.154  16.038 -1.6965 -0.4787 -1.8996
 7189TIP3    H243059   5.241   6.157  15.910  1.3204  1.2050 -0.0667
 7190TIP3   OH243060   1.249   3.289  16.004  0.3411  0.1647 -0.4079
 7190TIP3    H143061   1.339   3.280  15.973  1.0268  0.2116  1.4892
 7190TIP3    H243062   1.216   3.199  16.010  0.0290  0.1696 -1.6334
 7191TIP3   OH243063   3.734   1.154  15.270  0.5126 -0.1082 -0.7076
 7191TIP3    H143064   3.726   1.067  15.230  0.1156 -0.0571 -0.7488
 7191TIP3    H243065   3.824   1.181  15.252  0.2657  0.0345 -1.8323
 7192TIP3   OH243066   1.466   0.180   5.383  0.4874  0.1025  0.2158
 7192TIP3    H143067   1.453   0.231   5.464  1.0475  0.8958 -0.1781
 7192TIP3    H243068   1.431   0.236   5.314 -1.5502 -1.2830  0.0603
 7193TIP3   OH243069   4.316   6.589  16.639  0.0885  0.0397  0.2850
 7193TIP3    H143070   4.354   6.677  16.632 -0.6192  0.2568 -1.1896
 7193TIP3    H243071   4.391   6.531  16.650  0.8967  0.5195 -2.0594
 7194TIP3   OH243072   2.791   6.683  11.900 -0.8273 -0.6706  0.1793
 7194TIP3    H143073   2.856   6.753  11.902 -1.4280  0.0676 -2.2610
 7194TIP3    H243074   2.841   6.602  11.893 -0.1429 -0.4883  2.2980
 7195TIP3   OH243075   1.363   0.934  15.558  0.2147  0.4593  0.3736
 7195TIP3    H143076   1.334   0.850  15.522 -1.0947 -0.0427  2.3872
 7195TIP3    H243077   1.376   0.916  15.652  2.0928  1.9981  0.4770
 7196TIP3   OH243078   6.554   4.611  13.443 -0.4616  0.1978  0.0524
 7196TIP3    H143079   6.580   4.560  13.367  0.7288 -0.6976  1.0179
 7196TIP3    H243080   6.635   4.656  13.470 -0.6118 -0.2981  1.3759
 7197TIP3   OH243081   4.480   3.766  13.472  0.3552 -0.0306 -0.1206
 7197TIP3    H143082   4.548   3.746  13.537 -0.8086  2.3082  1.9706
 7197TIP3    H243083   4.400   3.728  13.508 -0.1355  0.4196 -0.6998
 7198TIP3   OH243084   1.173   0.632  16.762 -0.2844 -0.2090 -0.2074
 7198TIP3    H143085   1.215   0.716  16.741 -0.7458 -0.2453 -1.3380
 7198TIP3    H243086   1.084   0.656  16.786 -0.5092 -0.3846 -0.8328
 7199TIP3   OH243087   3.518   3.515  12.556  0.6354  0.4580  0.1030
 7199TIP3    H143088   3.531   3.513  12.651 -0.1377  0.4616  0.2217
 7199TIP3    H243089   3.602   3.488  12.519  0.0942 -2.5827  0.8585
 7200TIP3   OH243090   0.088   4.881   4.646 -0.0852  0.0052 -0.3504
 7200TIP3    H143091   0.173   4.921   4.664 -1.0967  1.8238  0.7313
 7200TIP3    H243092   0.063   4.841   4.730 -0.4221 -0.2259 -0.5607
 7201TIP3   OH243093   0.655   1.348  13.101  0.0152 -0.1864 -0.3290
 7201TIP3    H143094   0.711   1.365  13.177  0.3828 -0.0389 -0.6347
 7201TIP3    H243095   0.596   1.278  13.131 -0.4422  0.4841  0.3948
 7202TIP3   OH243096   3.465   0.128   4.298  0.4141  0.0570  0.3083
 7202TIP3    H143097   3.426   0.140   4.211  1.1110 -0.5599 -0.1072
 7202TIP3    H243098   3.430   0.044   4.328  0.4118  0.1226  0.4843
 7203TIP3   OH243099   5.870   6.782   1.015  0.1193  0.0021 -0.3513
 7203TIP3    H143100   5.891   6.750   1.102  0.8526 -0.1542 -0.5761
 7203TIP3    H243101   5.853   6.876   1.027 -0.9370 -0.2423  0.1303
 7204TIP3   OH243102   1.205   3.167  11.707 -0.3166 -0.1687 -0.0303
 7204TIP3    H143103   1.258   3.087  11.706  1.7119  1.0154  2.1383
 7204TIP3    H243104   1.211   3.201  11.618 -1.2866 -2.4117 -1.0097
 7205TIP3   OH243105   3.017   1.369   0.670  0.8390 -0.2676  0.4137
 7205TIP3    H143106   3.009   1.331   0.758  1.3741 -1.1365  0.1058
 7205TIP3    H243107   2.928   1.393   0.646  0.3473 -2.0438  0.3279
 7206TIP3   OH243108   4.515   5.886  11.793 -0.1674 -0.6846  0.1912
 7206TIP3    H143109   4.542   5.798  11.768 -0.8585 -1.0598  0.7291
 7206TIP3    H243110   4.596   5.937  11.793  0.0866 -1.0640 -1.1308
 7207TIP3   OH243111   3.403   1.702  12.758 -0.3313 -0.1477 -0.1506
 7207TIP3    H143112   3.394   1.640  12.831  1.4643 -0.7327 -0.3673
 7207TIP3    H243113   3.444   1.779  12.797  0.1522 -0.2604 -0.4246
 7208TIP3   OH243114   5.777   1.853   3.206 -0.2862  0.0914  0.2332
 7208TIP3    H143115   5.859   1.814   3.177  0.5513  2.4824 -0.8596
 7208TIP3    H243116   5.775   1.838   3.300  1.5148  0.1854  0.3151
 7209TIP3   OH243117   2.093   0.420   3.022  0.6846  0.2336  0.2505
 7209TIP3    H143118   2.168   0.362   3.038 -0.7937 -1.4753  1.2868
 7209TIP3    H243119   2.077   0.463   3.106 -0.1136 -0.1991  0.3307
 7210TIP3   OH243120   4.452   1.554  10.929 -0.0900 -0.6334 -0.3889
 7210TIP3    H143121   4.505   1.485  10.968  0.0436 -1.2101 -1.5435
 7210TIP3    H243122   4.476   1.554  10.836  1.2235  2.1395 -0.1662
 7211TIP3   OH243123   4.098   4.698  12.812  0.0095 -0.4611 -0.3993
 7211TIP3    H143124   4.012   4.696  12.771  0.7980  0.6701 -2.2327
 7211TIP3    H243125   4.152   4.641  12.758  0.0102 -2.9015  1.9568
 7212TIP3   OH243126   2.680   3.635   5.259  0.3044  0.2601 -0.0937
 7212TIP3    H143127   2.597   3.666   5.295  0.5786 -1.1492  1.9345
 7212TIP3    H243128   2.737   3.625   5.335  1.4390 -1.4453 -1.0824
 7213TIP3   OH243129   4.989   6.760   0.207 -0.3495 -0.8453 -0.0895
 7213TIP3    H143130   5.012   6.852   0.222 -1.2256 -0.5980 -0.2167
 7213TIP3    H243131   5.070   6.712   0.225 -0.2816 -0.1925  1.4583
 7214TIP3   OH243132   2.014   3.913   5.885 -0.2378  0.1994 -0.0614
 7214TIP3    H143133   2.057   3.891   5.802  0.3259 -3.4585  1.0100
 7214TIP3    H243134   2.006   4.008   5.884  0.3391  0.3531 -3.9803
 7215TIP3   OH243135   2.200   1.121   5.928  0.1081  0.2964 -0.5076
 7215TIP3    H143136   2.141   1.136   6.002 -0.0695  0.7084 -0.7264
 7215TIP3    H243137   2.275   1.178   5.946  0.2897  0.0250 -0.3981
 7216TIP3   OH243138   6.291   5.108  16.733  0.0794 -0.1697 -0.5869
 7216TIP3    H143139   6.357   5.058  16.782  0.3674  1.1726  0.4740
 7216TIP3    H243140   6.334   5.193  16.716 -1.5027  0.8903  0.4925
 7217TIP3   OH243141   4.727   2.372   2.640 -0.2446 -0.1313  0.1164
 7217TIP3    H143142   4.673   2.423   2.700  1.4456  0.6088  1.0568
 7217TIP3    H243143   4.787   2.324   2.696  0.5539 -0.3836 -0.9236
 7218TIP3   OH243144   1.447   1.071  10.260 -0.2149  0.4047 -0.1184
 7218TIP3    H143145   1.420   1.011  10.191  0.1183 -1.0790  0.9944
 7218TIP3    H243146   1.542   1.080  10.247  0.1132 -1.0893  1.0184
 7219TIP3   OH243147   0.115   6.491  15.472  0.1277  0.0336  0.5330
 7219TIP3    H143148   0.140   6.583  15.464 -0.0679 -0.0192 -0.9273
 7219TIP3    H243149   0.194   6.447  15.505  0.4611  0.6056  0.5072
 7220TIP3   OH243150   4.674   3.533   5.568 -0.4069  0.1884 -0.1689
 7220TIP3    H143151   4.694   3.625   5.585 -0.2244  0.0216  0.5434
 7220TIP3    H243152   4.706   3.487   5.645  1.8246 -0.7958 -1.6078
 7221TIP3   OH243153   4.112   2.377   4.049 -0.1250  0.5846  0.0433
 7221TIP3    H143154   4.107   2.357   3.955  0.9780  0.7031 -0.0437
 7221TIP3    H243155   4.039   2.438   4.063  1.1924  2.6021 -1.2924
 7222TIP3   OH243156   6.376   5.896  14.731  0.4350  0.0924 -0.3059
 7222TIP3    H143157   6.452   5.847  14.760 -0.1089 -0.0882  0.8696
 7222TIP3    H243158   6.412   5.968  14.679  1.2985 -0.8992 -1.1296
 7223TIP3   OH243159   5.663   1.242   1.664  0.1467 -0.3575 -0.0549
 7223TIP3    H143160   5.615   1.187   1.726 -0.7057 -0.6435 -0.9529
 7223TIP3    H243161   5.755   1.219   1.678  0.0439  0.0982  1.5889
 7224TIP3   OH243162   4.027   6.154  12.484  0.1152  0.4283  0.4386
 7224TIP3    H143163   3.993   6.240  12.508  0.4559  0.2373  1.6255
 7224TIP3    H243164   3.952   6.095  12.494  0.0960  0.4473  0.4097
 7225TIP3   OH243165   4.985   0.670   2.380 -0.3292  0.5358  0.2628
 7225TIP3    H143166   5.008   0.577   2.381  0.2770  0.6564 -1.1107
 7225TIP3    H243167   5.069   0.716   2.376 -0.6131  1.1715  1.1400
 7226TIP3   OH243168   2.233   0.247   3.310 -0.0479 -0.4116 -0.5882
 7226TIP3    H143169   2.163   0.296   3.352  0.3163 -1.2374  1.0656
 7226TIP3    H243170   2.230   0.161   3.352  1.6345 -0.6135 -0.8279
 7227TIP3   OH243171   6.112   4.650  11.711 -0.1900  0.0130  0.7215
 7227TIP3    H143172   6.151   4.709  11.776 -0.5467  0.0914  0.8670
 7227TIP3    H243173   6.075   4.578  11.762  0.6360 -0.5737  0.5143
 7228TIP3   OH243174   6.152   6.428  13.582 -0.5211 -0.0329  0.0212
 7228TIP3    H143175   6.094   6.403  13.510 -0.1997  0.5870 -0.4638
 7228TIP3    H243176   6.126   6.517  13.604 -1.5998 -0.6954  1.6786
 7229TIP3   OH243177   0.480   1.097  13.864  0.0804  0.1564 -0.0305
 7229TIP3    H143178   0.570   1.063  13.868 -0.2895 -1.0903 -1.2916
 7229TIP3    H243179   0.481   1.175  13.919  1.6960 -0.3644  0.7471
 7230TIP3   OH243180   4.582   1.742   1.404 -0.2676  0.0423  0.7177
 7230TIP3    H143181   4.495   1.780   1.417 -0.3507 -0.0325  0.3738
 7230TIP3    H243182   4.638   1.818   1.384 -0.0878  0.1936  1.7155
 7231TIP3   OH243183   0.895   6.406  15.049 -0.3350  0.5112  0.2164
 7231TIP3    H143184   0.985   6.375  15.059 -0.1530  0.4246 -1.3810
 7231TIP3    H243185   0.888   6.429  14.956 -1.1503  3.0709  0.8234
 7232TIP3   OH243186   0.922   1.561  12.528  0.1488  0.4754  0.1500
 7232TIP3    H143187   0.877   1.604  12.455  1.8347  0.8811 -0.6997
 7232TIP3    H243188   1.011   1.545  12.496  0.8748  0.4326  2.0245
 7233TIP3   OH243189   4.012   1.544   2.634  0.1410  0.1009  0.2907
 7233TIP3    H143190   4.088   1.575   2.586  0.2617 -1.0267 -0.2878
 7233TIP3    H243191   3.954   1.508   2.566 -1.3704  1.8237  0.6020
 7234TIP3   OH243192   4.595   3.733   4.779 -0.1432  0.1279  0.0375
 7234TIP3    H143193   4.638   3.755   4.862  1.8422  1.0101 -1.1519
 7234TIP3    H243194   4.553   3.814   4.751  2.9036  1.2021 -1.8744
 7235TIP3   OH243195   6.172   6.812   4.305  0.0395  0.6415  0.5551
 7235TIP3    H143196   6.260   6.851   4.308  1.0528 -1.4633 -0.0136
 7235TIP3    H243197   6.166   6.761   4.386 -0.2827  0.0413  0.1579
 7236TIP3   OH243198   2.407   6.193   1.340  0.5910  0.8405 -0.4879
 7236TIP3    H143199   2.380   6.122   1.399  1.3070  1.1089  0.1758
 7236TIP3    H243200   2.338   6.259   1.350 -0.0492  0.2815 -1.0648
 7237TIP3   OH243201   4.815   6.309   0.932  0.1252 -0.0437 -0.1473
 7237TIP3    H143202   4.730   6.345   0.908 -0.1463 -0.3810  0.2861
 7237TIP3    H243203   4.798   6.259   1.012  0.3585 -1.7129 -1.1103
 7238TIP3   OH243204   3.999   6.767  14.974 -0.1442  0.5401  0.4313
 7238TIP3    H143205   3.939   6.837  15.001  0.7329  0.2233  3.6800
 7238TIP3    H243206   4.085   6.809  14.972 -0.1631  0.6354 -2.6912
 7239TIP3   OH243207   3.421   0.904  12.224  0.0541 -0.1404 -0.2658
 7239TIP3    H143208   3.512   0.883  12.243 -0.2470 -0.5028  0.8760
 7239TIP3    H243209   3.413   0.997  12.246 -0.2499 -0.5161  1.3617
 7240TIP3   OH243210   4.618   3.046  12.822  0.6563 -0.8855  0.0105
 7240TIP3    H143211   4.632   3.122  12.765 -0.2590 -1.5014 -1.0750
 7240TIP3    H243212   4.525   3.025  12.811  1.0008 -2.4586 -0.0936
 7241TIP3   OH243213   2.375   0.562   0.345 -0.6417 -0.1841 -0.0032
 7241TIP3    H143214   2.436   0.504   0.299 -1.4724 -1.0689 -0.0057
 7241TIP3    H243215   2.387   0.647   0.301  1.3946 -0.0268  0.7438
 7242TIP3   OH243216   5.232   6.797   0.040 -0.2000 -0.0100 -0.2106
 7242TIP3    H143217   5.216   6.800   0.134 -0.4285 -1.0501 -0.2112
 7242TIP3    H243218   5.311   6.850   0.028 -0.1754  0.1428  0.5578
 7243TIP3   OH243219   6.255   0.627  13.862  0.3427 -0.5847 -0.3219
 7243TIP3    H143220   6.336   0.598  13.820  1.0073  0.0424  0.4848
 7243TIP3    H243221   6.237   0.713  13.823  0.8201 -0.1188  0.4496
 7244TIP3   OH243222   3.639   6.673   3.855  0.4803 -0.1881 -0.1995
 7244TIP3    H143223   3.593   6.756   3.847 -0.9142 -0.8139  0.9579
 7244TIP3    H243224   3.705   6.676   3.785  1.5861  2.5494  0.8199
 7245TIP3   OH243225   2.792   5.037   1.024  0.2726  0.0103 -0.2086
 7245TIP3    H143226   2.884   5.063   1.023  0.3985 -0.3789 -1.5713
 7245TIP3    H243227   2.765   5.040   0.932 -0.7655 -0.9733  0.0302
 7246TIP3   OH243228   4.740   4.887  17.017 -0.1958 -0.6303  0.4494
 7246TIP3    H143229   4.805   4.858  17.081  0.0055 -0.3940  0.3523
 7246TIP3    H243230   4.667   4.825  17.028  0.2545 -1.2160  0.1964
 7247TIP3   OH243231   6.447   2.556  10.689 -0.1271  0.4839  0.3852
 7247TIP3    H143232   6.526   2.610  10.693  0.3360 -0.1981  0.6835
 7247TIP3    H243233   6.396   2.594  10.618  1.3530 -0.2341 -1.1356
 7248TIP3   OH243234   3.931   1.616   5.432 -0.3491  0.4488 -0.2475
 7248TIP3    H143235   3.923   1.550   5.363 -1.2843  1.1250 -0.8152
 7248TIP3    H243236   3.867   1.588   5.498 -1.1991  1.1001 -0.7724
 7249TIP3   OH243237   1.217   5.061   2.651 -0.3938  0.0971  0.2851
 7249TIP3    H143238   1.238   5.070   2.744 -0.3809 -2.0556  0.5545
 7249TIP3    H243239   1.290   5.101   2.605 -0.1603  0.7471  1.2020
 7250TIP3   OH243240   6.050   0.237  13.676 -0.3156  0.2753  0.1691
 7250TIP3    H143241   6.001   0.317  13.696  0.1047  0.8919 -1.1823
 7250TIP3    H243242   6.142   0.264  13.676  0.0095 -0.7219  1.9773
 7251TIP3   OH243243   6.828   5.591  16.076 -0.0866  0.3733  0.9013
 7251TIP3    H143244   6.890   5.657  16.047 -0.2174 -0.5288 -1.6909
 7251TIP3    H243245   6.817   5.608  16.170  2.1012  2.1244  0.9229
 7252TIP3   OH243246   0.910   5.176  16.496  0.0404  0.2071  0.0100
 7252TIP3    H143247   0.817   5.159  16.479 -0.3022  0.2776  1.6884
 7252TIP3    H243248   0.956   5.121  16.434 -1.1187  0.1524 -0.8394
 7253TIP3   OH243249   0.511   6.135  13.333  0.3912 -0.0412 -0.0959
 7253TIP3    H143250   0.438   6.145  13.272 -0.0491  2.0795  0.6669
 7253TIP3    H243251   0.526   6.224  13.366  1.2855 -0.9358  2.0897
 7254TIP3   OH243252   0.027   5.873   2.361 -0.5163  0.5108 -0.3630
 7254TIP3    H143253   0.051   5.952   2.409  1.4392 -0.8478  1.0581
 7254TIP3    H243254  -0.028   5.824   2.423  1.5853 -1.0093  0.4442
 7255TIP3   OH243255   2.231   1.839  14.805 -0.4724  0.1944 -0.4555
 7255TIP3    H143256   2.211   1.923  14.764 -2.6229  0.6492  1.3333
 7255TIP3    H243257   2.273   1.862  14.888 -0.0916 -0.5560 -0.4299
 7256TIP3   OH243258   2.501   1.147  10.840 -0.0550  0.0341  0.6911
 7256TIP3    H143259   2.415   1.187  10.847  0.1437  0.4777  0.6290
 7256TIP3    H243260   2.485   1.063  10.798 -0.3477  0.5161 -0.1965
 7257TIP3   OH243261   0.271   5.425   6.535 -0.0410 -0.0172 -0.0688
 7257TIP3    H143262   0.213   5.496   6.507 -0.1804 -0.5427 -1.1862
 7257TIP3    H243263   0.262   5.422   6.630 -2.5655 -0.6330 -0.2404
 7258TIP3   OH243264   3.768   2.590  14.478 -0.4796 -0.0799  0.6572
 7258TIP3    H143265   3.840   2.548  14.431 -1.6009  0.4400 -1.7058
 7258TIP3    H243266   3.701   2.522  14.486 -1.6046  0.6384 -1.6230
 7259TIP3   OH243267   6.717   3.382   1.701  0.2751  0.3611  0.4188
 7259TIP3    H143268   6.694   3.459   1.649  1.5259 -0.4346 -1.4352
 7259TIP3    H243269   6.667   3.311   1.662  1.3668 -0.2891  0.1695
 7260TIP3   OH243270   6.685   4.412   1.050  0.4314 -0.3969 -0.4029
 7260TIP3    H143271   6.752   4.351   1.018  1.2235  1.3574 -2.3077
 7260TIP3    H243272   6.616   4.408   0.984 -0.4670 -0.7112  0.5312
 7261TIP3   OH243273   4.864   2.974  15.274  0.0688 -0.5547  0.2835
 7261TIP3    H143274   4.779   2.970  15.317  0.4817 -1.8410  1.0342
 7261TIP3    H243275   4.925   3.002  15.342  0.3162 -0.0156 -0.1483
 7262TIP3   OH243276   5.836   1.617  14.308 -0.5902  0.4151 -0.0600
 7262TIP3    H143277   5.742   1.620  14.290 -0.4995 -0.3680 -0.7043
 7262TIP3    H243278   5.855   1.524  14.319  0.2754  0.4896 -0.8344
 7263TIP3   OH243279   4.503   1.439   4.734  0.0529  0.1774  0.2556
 7263TIP3    H143280   4.588   1.466   4.699 -1.1682  0.3778 -2.9231
 7263TIP3    H243281   4.451   1.519   4.735 -1.1706 -0.5311 -1.5234
 7264TIP3   OH243282   5.760   2.285   0.562  0.6558  0.1533 -0.3777
 7264TIP3    H143283   5.782   2.319   0.475 -0.5538  0.9410 -0.3954
 7264TIP3    H243284   5.778   2.357   0.622 -0.7576  0.4384 -0.2682
 7265TIP3   OH243285   5.730   6.724  15.462 -0.1231 -0.6846 -0.3961
 7265TIP3    H143286   5.732   6.819  15.453 -2.3388 -0.4342  1.1586
 7265TIP3    H243287   5.645   6.698  15.428  0.3576 -2.1142 -0.5804
 7266TIP3   OH243288   6.188   5.074   4.355  0.1792  0.2080  0.2585
 7266TIP3    H143289   6.096   5.101   4.355 -0.0742 -0.5232 -1.1832
 7266TIP3    H243290   6.213   5.076   4.263  1.9552  1.4246  0.7161
 7267TIP3   OH243291   5.264   2.787   0.476  0.2252  0.2401  0.4323
 7267TIP3    H143292   5.290   2.731   0.402  0.3239  1.1511 -0.2369
 7267TIP3    H243293   5.317   2.756   0.549 -0.6840 -1.4417  0.4445
 7268TIP3   OH243294   4.720   4.649   3.272 -0.1687 -0.0042 -0.4011
 7268TIP3    H143295   4.712   4.563   3.231 -0.6230  0.0086 -0.3448
 7268TIP3    H243296   4.679   4.638   3.358 -1.0039  0.5001 -0.7287
 7269TIP3   OH243297   6.051   3.727  11.239 -0.0914  0.4530  0.3173
 7269TIP3    H143298   6.135   3.742  11.197  0.1838  1.4811  1.1787
 7269TIP3    H243299   6.071   3.724  11.333 -0.6610 -1.9830  0.4278
 7270TIP3   OH243300   1.523   2.597  13.200  0.2311  0.0845  0.4000
 7270TIP3    H143301   1.588   2.533  13.170  0.3688  0.2649  0.3088
 7270TIP3    H243302   1.556   2.626  13.285  0.4949  0.4927  0.1586
 7271TIP3   OH243303   6.101   1.381   1.920  0.3919 -0.4581 -0.5464
 7271TIP3    H143304   6.171   1.316   1.925  1.5357  0.7175 -0.6563
 7271TIP3    H243305   6.108   1.417   1.831  0.7130  0.7883 -0.0407
 7272TIP3   OH243306   4.167   1.307   3.644  0.3043  0.1733 -0.3690
 7272TIP3    H143307   4.212   1.349   3.571  1.1233 -0.9070 -0.5089
 7272TIP3    H243308   4.222   1.327   3.720  0.3037 -0.0258 -0.3159
 7273TIP3   OH243309   2.618   5.008  15.950  0.5029 -0.0413  0.0294
 7273TIP3    H143310   2.664   5.085  15.984  0.8851  0.0386 -0.6456
 7273TIP3    H243311   2.550   4.990  16.014  0.7700  0.5216  0.4783
 7274TIP3   OH243312   3.419   2.078   4.259 -0.1187 -0.1887  0.1052
 7274TIP3    H143313   3.485   2.008   4.250 -1.3257 -1.5599  1.3518
 7274TIP3    H243314   3.336   2.035   4.238 -0.8155  1.1075  0.1110
 7275TIP3   OH243315   5.637   1.162   0.838 -0.2447 -0.0269  0.0119
 7275TIP3    H143316   5.705   1.094   0.840 -1.1711 -0.9574  1.1679
 7275TIP3    H243317   5.582   1.143   0.913 -1.3873  1.1454 -0.4946
 7276TIP3   OH243318   2.871   0.540  13.014  0.2542  0.1175 -0.1794
 7276TIP3    H143319   2.852   0.583  12.931 -0.1387  0.0981 -0.1019
 7276TIP3    H243320   2.859   0.447  12.996  2.6818 -0.1517 -0.7808
 7277TIP3   OH243321   1.668   3.231   1.439  0.2217  0.8464  0.3457
 7277TIP3    H143322   1.750   3.280   1.434  0.6625  0.1920  0.9435
 7277TIP3    H243323   1.694   3.140   1.422 -0.5779  0.8043 -0.7473
 7278TIP3   OH243324   2.753   1.369  12.471  1.0163  0.2343 -0.0662
 7278TIP3    H143325   2.837   1.326  12.456  1.0062  0.3916 -0.5743
 7278TIP3    H243326   2.691   1.323  12.415  1.0505  1.0595 -0.7955
 7279TIP3   OH243327   1.461   0.326  12.128 -0.6020 -0.0619 -0.0473
 7279TIP3    H143328   1.415   0.254  12.083 -1.0665  0.8371 -1.0641
 7279TIP3    H243329   1.552   0.297  12.132 -0.9617 -1.1593  0.5061
 7280TIP3   OH243330   4.345   5.325   3.187  0.0988 -0.1422  0.0318
 7280TIP3    H143331   4.401   5.378   3.244  0.9275  0.0399 -0.9237
 7280TIP3    H243332   4.274   5.384   3.161 -0.4726 -0.3266  1.1257
 7281TIP3   OH243333   3.478   1.779   6.519  0.8893 -0.0637  0.3367
 7281TIP3    H143334   3.515   1.705   6.567  0.6372  0.4815  1.3992
 7281TIP3    H243335   3.481   1.852   6.581  1.6404  0.9650 -0.8625
 7282TIP3   OH243336   4.111   6.453   4.162 -0.5136 -0.2151 -0.6436
 7282TIP3    H143337   4.079   6.366   4.187  1.1488 -0.9889 -1.0189
 7282TIP3    H243338   4.050   6.482   4.094 -0.7237 -1.3913 -0.9830
 7283TIP3   OH243339   4.267   3.753  16.653 -0.0909 -0.5028  0.6029
 7283TIP3    H143340   4.359   3.732  16.670  0.6810  1.2989 -0.9652
 7283TIP3    H243341   4.245   3.820  16.718  0.4569  0.6911 -0.3795
 7284TIP3   OH243342   4.457   5.544  16.874  0.2354  0.7528  0.4385
 7284TIP3    H143343   4.501   5.541  16.958 -0.2880 -1.1529  0.6898
 7284TIP3    H243344   4.528   5.542  16.809  0.6203  1.7070  0.8245
 7285TIP3   OH243345   3.827   5.202   2.280 -0.0150 -0.0684  0.5129
 7285TIP3    H143346   3.786   5.172   2.199  1.2374  0.3322 -0.3124
 7285TIP3    H243347   3.843   5.296   2.265 -0.6525  0.2227  1.6204
 7286TIP3   OH243348   2.417   5.623  14.853  0.2498  0.0690 -0.0442
 7286TIP3    H143349   2.393   5.565  14.925 -2.0392 -0.0933 -0.8762
 7286TIP3    H243350   2.389   5.710  14.881  0.3861  0.1881 -0.2716
 7287TIP3   OH243351   1.458   5.495   3.693  0.4626 -0.1311  0.1470
 7287TIP3    H143352   1.410   5.412   3.691 -1.4967  0.9644  0.0254
 7287TIP3    H243353   1.423   5.542   3.769  0.7049  1.0638 -0.4521
 7288TIP3   OH243354   6.821   0.847   2.232  0.2807 -0.3821 -0.1682
 7288TIP3    H143355   6.865   0.764   2.213  0.1498 -0.3012 -0.8493
 7288TIP3    H243356   6.855   0.908   2.166 -1.1444 -0.4190 -0.9764
 7289TIP3   OH243357   0.235   2.001  13.941 -0.2265 -0.1412  0.8520
 7289TIP3    H143358   0.328   2.021  13.957 -0.2261  0.6985 -0.1432
 7289TIP3    H243359   0.191   2.086  13.947 -0.6662 -0.2595 -0.4981
 7290TIP3   OH243360   2.435   0.135  12.096  0.4410 -0.3239  0.5098
 7290TIP3    H143361   2.498   0.063  12.105  1.1507 -0.1303 -2.1769
 7290TIP3    H243362   2.489   0.214  12.097  0.3200 -0.1553 -1.7904
 7291TIP3   OH243363   4.716   3.771  11.198 -0.2312  0.2486 -0.5398
 7291TIP3    H143364   4.647   3.755  11.133 -2.0271 -1.3639  1.5938
 7291TIP3    H243365   4.669   3.775  11.281  2.2037 -0.0926  0.9328
 7292TIP3   OH243366   1.781   5.441   6.387 -0.0557 -0.1517 -0.3134
 7292TIP3    H143367   1.792   5.399   6.472  1.5404 -2.5715 -1.5761
 7292TIP3    H243368   1.744   5.373   6.331 -0.2600  1.0942 -1.7745
 7293TIP3   OH243369   4.192   4.306  16.310  0.1721  0.4288  1.1147
 7293TIP3    H143370   4.244   4.233  16.276 -0.0155  0.4782  0.7201
 7293TIP3    H243371   4.118   4.313  16.249  0.1087  0.8478  1.2405
 7294TIP3   OH243372   4.439   5.455   3.405  0.3239 -0.4011  0.5906
 7294TIP3    H143373   4.517   5.491   3.448  0.0651 -1.0758  1.6338
 7294TIP3    H243374   4.417   5.377   3.455 -0.5262 -0.7059 -0.2257
 7295TIP3   OH243375   3.650   6.313  14.191  0.6808 -0.3221  0.3434
 7295TIP3    H143376   3.697   6.373  14.133 -0.1957 -0.0069 -0.0586
 7295TIP3    H243377   3.672   6.226  14.158  0.2261 -0.1506 -0.4488
 7296TIP3   OH243378   2.442   0.669   3.310 -0.7130  0.5053  0.2759
 7296TIP3    H143379   2.428   0.614   3.387 -2.0717 -0.6454 -0.7440
 7296TIP3    H243380   2.505   0.735   3.339 -0.2124 -0.6550  1.9921
 7297TIP3   OH243381   0.039   6.208  12.433 -0.9140 -0.3787 -0.3679
 7297TIP3    H143382   0.040   6.303  12.441  0.4674 -0.3481 -0.5044
 7297TIP3    H243383   0.066   6.177  12.520 -1.0344 -0.6272 -0.4201
 7298TIP3   OH243384   2.591   3.616  14.716 -0.2200 -0.1242 -0.3117
 7298TIP3    H143385   2.522   3.586  14.657 -0.7681  1.2409 -0.3969
 7298TIP3    H243386   2.662   3.553  14.704  0.2394  0.8294 -3.4704
 7299TIP3   OH243387   2.429   5.303   6.234  0.6804 -0.5072  0.3178
 7299TIP3    H143388   2.362   5.234   6.228 -0.1405  0.1409  1.5774
 7299TIP3    H243389   2.462   5.296   6.323  0.1631  1.0787  0.6695
 7300TIP3   OH243390   2.379   3.588   5.696  0.3212  0.0844 -0.0392
 7300TIP3    H143391   2.443   3.595   5.625 -1.2655 -0.8718 -1.6485
 7300TIP3    H243392   2.405   3.508   5.742 -0.2733 -0.9016 -1.3391
 7301TIP3   OH243393   6.186   3.193   5.754 -0.3848  0.2924 -0.6246
 7301TIP3    H143394   6.220   3.141   5.827  0.6772  2.5788  0.6030
 7301TIP3    H243395   6.092   3.177   5.755 -0.4254  0.4355  1.4241
 7302TIP3   OH243396   6.739   4.130   1.968  0.2811  0.5205 -0.1999
 7302TIP3    H143397   6.682   4.055   1.983  0.2578  0.7894  1.2373
 7302TIP3    H243398   6.682   4.206   1.982  0.5816  0.7992 -0.4821
 7303TIP3   OH243399   4.034   3.948  12.839  0.0353 -0.2704  1.0736
 7303TIP3    H143400   3.989   4.006  12.778  0.4512  1.3125  2.2333
 7303TIP3    H243401   4.126   3.969  12.830  0.1703 -0.5486  1.7215
 7304TIP3   OH243402   2.969   2.142   6.040  0.2572  0.1551  0.0369
 7304TIP3    H143403   3.012   2.065   6.003 -1.1387 -0.3915 -0.5204
 7304TIP3    H243404   2.882   2.141   6.002 -0.6166  0.6258  1.9111
 7305TIP3   OH243405   4.420   2.023   5.757 -0.5868  0.1118 -0.0602
 7305TIP3    H143406   4.349   2.077   5.792 -0.8886  0.5570 -1.2723
 7305TIP3    H243407   4.471   1.997   5.833 -0.5835  1.8945  0.5977
 7306TIP3   OH243408   5.147   3.610   3.731 -0.3499 -0.1259 -0.0411
 7306TIP3    H143409   5.080   3.581   3.792 -1.3433  1.9781 -0.0728
 7306TIP3    H243410   5.214   3.541   3.735 -1.5483 -1.2716  1.4933
 7307TIP3   OH243411   1.039   4.214  12.664  0.4473  0.2456  0.3394
 7307TIP3    H143412   1.020   4.180  12.751 -0.4107 -2.2788 -0.7564
 7307TIP3    H243413   1.135   4.217  12.659  0.5054  0.4791  1.3467
 7308TIP3   OH243414   3.640   0.211  14.859  0.2553  0.2114 -0.0943
 7308TIP3    H143415   3.555   0.208  14.815  1.5117 -0.7902 -2.6569
 7308TIP3    H243416   3.693   0.269  14.805  1.0315  1.5251  1.9397
 7309TIP3   OH243417   3.626   0.182  14.499 -0.3299 -0.3036 -0.0015
 7309TIP3    H143418   3.585   0.096  14.506  1.0156 -0.8631  1.5546
 7309TIP3    H243419   3.567   0.241  14.545 -0.3978 -0.7224  0.4565
 7310TIP3   OH243420   2.797   1.750   2.136  0.0027 -0.1680 -0.4013
 7310TIP3    H143421   2.743   1.822   2.105  0.2106  1.1239  2.0117
 7310TIP3    H243422   2.735   1.677   2.145 -0.9911  0.7552  0.5404
 7311TIP3   OH243423   1.783   3.661   5.798 -0.3389 -0.6223 -0.2157
 7311TIP3    H143424   1.866   3.708   5.783 -0.9834  1.1257  1.3192
 7311TIP3    H243425   1.793   3.623   5.886 -1.7537  1.0733  0.7377
 7312TIP3   OH243426   3.878   1.035  15.889 -0.2261  0.3941 -0.7051
 7312TIP3    H143427   3.948   0.988  15.935  0.0855  1.3602 -0.1505
 7312TIP3    H243428   3.805   1.037  15.952 -0.3160  0.4447 -0.8102
 7313TIP3   OH243429   2.188   3.766  13.229 -0.3994 -0.6401 -0.6637
 7313TIP3    H143430   2.099   3.781  13.260 -0.0200 -1.8838  1.2141
 7313TIP3    H243431   2.180   3.691  13.169 -0.7663  0.0823 -1.5462
 7314TIP3   OH243432   1.778   5.129  14.687 -0.2913  0.0576  0.1018
 7314TIP3    H143433   1.715   5.186  14.730  0.1367  1.3909 -0.9978
 7314TIP3    H243434   1.862   5.174  14.696  0.0345 -0.3163 -0.8896
 7315TIP3   OH243435   0.924   4.523   2.180  0.6626 -0.1676  0.6953
 7315TIP3    H143436   1.020   4.525   2.176  0.7633 -2.0154  1.2861
 7315TIP3    H243437   0.904   4.476   2.261 -0.7132 -1.3229 -0.2710
 7316TIP3   OH243438   4.807   2.458  11.591 -0.4851  0.0454 -0.5910
 7316TIP3    H143439   4.826   2.488  11.680 -0.2419  0.1179 -0.6667
 7316TIP3    H243440   4.806   2.538  11.539 -0.3165 -0.0296 -0.7085
 7317TIP3   OH243441   3.187   3.210  13.838 -0.3255 -0.0945  0.0821
 7317TIP3    H143442   3.256   3.155  13.875 -0.4749 -0.2122  0.1875
 7317TIP3    H243443   3.197   3.294  13.883 -0.0012  0.0141 -0.1885
 7318TIP3   OH243444   0.929   4.990   3.068 -0.2432 -0.2912  0.3263
 7318TIP3    H143445   1.008   4.959   3.023 -1.1330 -0.2317 -1.3560
 7318TIP3    H243446   0.960   5.062   3.123  0.9207 -0.4935 -0.0299
 7319TIP3   OH243447   1.817   2.332  17.034 -0.1969  0.6084  0.2241
 7319TIP3    H143448   1.830   2.336  16.939 -0.1627  0.8781  0.2407
 7319TIP3    H243449   1.781   2.245  17.049  0.6527  0.2138  0.0620
 7320TIP3   OH243450   0.649   1.471   4.964  0.2480  0.1684  0.5183
 7320TIP3    H143451   0.718   1.487   4.899  1.4104  0.5569  1.8011
 7320TIP3    H243452   0.696   1.442   5.042 -1.0475  0.4914  1.4450
 7321TIP3   OH243453   3.713   1.542   5.926 -0.0995 -0.0979  0.1653
 7321TIP3    H143454   3.620   1.562   5.920  0.0426  0.7858  0.8064
 7321TIP3    H243455   3.731   1.540   6.020  0.5658 -0.0831  0.0416
 7322TIP3   OH243456   6.475   6.790   3.287 -0.1702 -0.4014 -0.3516
 7322TIP3    H143457   6.530   6.741   3.348 -1.3452  0.4828  1.5234
 7322TIP3    H243458   6.440   6.723   3.228  1.6208 -1.1826 -0.5881
 7323TIP3   OH243459   0.487   6.194  15.790 -0.5413  0.0508 -0.2438
 7323TIP3    H143460   0.506   6.102  15.772  0.8103  0.2543  0.0651
 7323TIP3    H243461   0.429   6.193  15.866 -0.9005 -0.5459 -0.5161
 7324TIP3   OH243462   3.970   3.080   1.035  0.5258 -0.1426  0.0761
 7324TIP3    H143463   3.904   3.048   1.096  1.0684  0.4876  1.0172
 7324TIP3    H243464   4.035   3.011   1.031  0.2524 -0.3893 -0.1697
 7325TIP3   OH243465   1.047   3.128   4.101  0.3767 -0.6254  0.5773
 7325TIP3    H143466   1.072   3.036   4.108 -0.4911 -1.2316 -2.5667
 7325TIP3    H243467   1.064   3.150   4.009 -0.3825  2.0786  1.0065
 7326TIP3   OH243468   0.239   2.974  10.175 -0.1303  0.0644  0.2137
 7326TIP3    H143469   0.165   2.948  10.229  0.9742  0.4164  1.9872
 7326TIP3    H243470   0.301   3.013  10.236  1.2213  0.4469 -1.3167
 7327TIP3   OH243471   4.989   6.754   2.951 -0.1826  0.0545  0.3567
 7327TIP3    H143472   4.937   6.703   2.888 -2.4799 -0.7671  2.7006
 7327TIP3    H243473   5.058   6.694   2.978 -1.1225 -0.8039  0.9386
 7328TIP3   OH243474   1.152   3.802   6.317 -0.5345  0.1958  0.0244
 7328TIP3    H143475   1.069   3.753   6.311  0.0416 -0.8531  0.3342
 7328TIP3    H243476   1.125   3.893   6.326 -1.6677 -0.1502  0.3707
 7329TIP3   OH243477   6.632   5.067  13.836  0.1856 -0.0193 -0.4150
 7329TIP3    H143478   6.615   5.151  13.879 -0.4387 -0.4010  0.1067
 7329TIP3    H243479   6.727   5.067  13.821  0.3025  0.4684  0.2488
 7330TIP3   OH243480   0.933   6.757   4.385 -0.3708 -0.1801 -0.1319
 7330TIP3    H143481   0.997   6.690   4.410 -1.3740 -1.0501  0.1422
 7330TIP3    H243482   0.890   6.721   4.307 -0.7248  0.2790 -0.1481
 7331TIP3   OH243483   5.647   5.335   3.195  0.3137  0.8906  0.0449
 7331TIP3    H143484   5.714   5.269   3.212 -0.1884 -0.2718 -2.2149
 7331TIP3    H243485   5.642   5.384   3.277  2.6613 -0.0872  0.8802
 7332TIP3   OH243486   2.946   5.399  12.375 -0.8781  0.0141 -0.2216
 7332TIP3    H143487   2.960   5.425  12.466  1.5320  1.3013 -0.8711
 7332TIP3    H243488   3.012   5.331  12.360  0.1003  1.2150 -1.5206
 7333TIP3   OH243489   5.738   6.692   5.850  0.1746 -0.2850  0.0612
 7333TIP3    H143490   5.644   6.676   5.851  0.2500 -1.0406 -1.7056
 7333TIP3    H243491   5.746   6.787   5.858 -0.9507  0.1855 -3.1286
 7334TIP3   OH243492   4.312   4.340  12.419 -0.7198  0.0981 -0.0904
 7334TIP3    H143493   4.368   4.263  12.410 -1.2376 -0.1839 -1.0113
 7334TIP3    H243494   4.357   4.409  12.369 -0.1458  0.4771  0.9115
 7335TIP3   OH243495   4.831   5.477   5.962 -0.3051  0.2707  0.4248
 7335TIP3    H143496   4.770   5.494   6.034  1.6908 -1.7029  2.7828
 7335TIP3    H243497   4.797   5.399   5.918  0.0842 -0.3943  1.2740
 7336TIP3   OH243498   0.570   4.696  16.522 -0.1510  0.5042  0.0341
 7336TIP3    H143499   0.522   4.680  16.603 -0.0670  0.1613  0.0154
 7336TIP3    H243500   0.503   4.699  16.454 -0.2428  0.9985  0.1430
 7337TIP3   OH243501   1.597   4.184  16.316 -0.6398  0.2726 -0.5998
 7337TIP3    H143502   1.517   4.164  16.267 -0.3272  0.0555 -1.0240
 7337TIP3    H243503   1.595   4.125  16.391 -0.9225  0.3308 -0.5617
 7338TIP3   OH243504   2.980   3.647   2.081 -0.5769  1.0162  0.3966
 7338TIP3    H143505   2.978   3.602   1.996  1.5274  0.2206  0.7149
 7338TIP3    H243506   2.948   3.735   2.062  0.5126  1.0752 -1.4038
 7339TIP3   OH243507   5.977   2.313   0.937  0.0553  0.1295 -0.3291
 7339TIP3    H143508   5.972   2.407   0.919  2.5629  1.0086  2.6105
 7339TIP3    H243509   5.965   2.307   1.032  1.4775 -2.3248 -0.2266
 7340TIP3   OH243510   6.474   3.513  16.068 -0.2036  0.2122  0.1194
 7340TIP3    H143511   6.390   3.559  16.069 -0.6719 -0.5651  2.2140
 7340TIP3    H243512   6.450   3.420  16.069  0.5951 -0.0338  2.2456
 7341TIP3   OH243513   0.567   1.931   4.270  0.2242  0.0405  0.4874
 7341TIP3    H143514   0.512   2.008   4.285  1.1161  1.0951 -1.2472
 7341TIP3    H243515   0.639   1.941   4.333  0.2541  0.5829  0.3784
 7342TIP3   OH243516   3.103   3.774   4.755  0.1286  0.0873 -0.4294
 7342TIP3    H143517   3.153   3.760   4.674 -0.0464 -1.3245 -0.3116
 7342TIP3    H243518   3.023   3.722   4.743 -0.0031  0.0500  0.5572
 7343TIP3   OH243519   0.240   5.805   3.740  0.8970  0.3155 -0.0411
 7343TIP3    H143520   0.292   5.777   3.665  0.2209  0.2270 -0.4762
 7343TIP3    H243521   0.165   5.850   3.703  1.3863  1.7246  0.6263
 7344TIP3   OH243522   2.416   3.015   4.576  0.2331 -0.0930 -0.2177
 7344TIP3    H143523   2.322   3.024   4.561  0.4109  3.0240 -0.0755
 7344TIP3    H243524   2.448   2.972   4.496 -1.2306 -0.8185 -0.4538
 7345TIP3   OH243525   5.830   5.459  11.791  0.4414 -0.0465  0.4143
 7345TIP3    H143526   5.843   5.551  11.812 -1.7011  0.3479  0.2765
 7345TIP3    H243527   5.737   5.443  11.810 -0.3206 -1.1033 -3.4002
 7346TIP3   OH243528   3.464   1.353  16.828 -0.0040  0.4356 -0.0727
 7346TIP3    H143529   3.510   1.400  16.897  0.7036 -2.8485  1.9355
 7346TIP3    H243530   3.384   1.321  16.870  0.5506 -1.8401 -0.5659
 7347TIP3   OH243531   5.049   0.780  15.737 -0.3771  0.3910  0.0282
 7347TIP3    H143532   5.125   0.816  15.784 -0.4153 -2.4252  2.5774
 7347TIP3    H243533   4.978   0.842  15.755  0.6352  1.5856  0.0329
 7348TIP3   OH243534   0.702   6.046  12.280 -0.1179  0.9730 -0.0271
 7348TIP3    H143535   0.639   6.019  12.347 -0.2729 -0.7849 -0.8059
 7348TIP3    H243536   0.777   5.988  12.294  0.1502  1.1012 -0.9044
 7349TIP3   OH243537   4.537   4.703  10.427 -0.2851 -0.4238  0.1675
 7349TIP3    H143538   4.581   4.741  10.503 -1.9606  0.9409  0.5251
 7349TIP3    H243539   4.457   4.664  10.463 -1.1482  0.3181 -0.8591
 7350TIP3   OH243540   2.523   4.706   5.640 -0.3258 -0.3240 -0.9450
 7350TIP3    H143541   2.428   4.720   5.640 -0.1697  1.6828  2.2420
 7350TIP3    H243542   2.536   4.628   5.693 -0.1932 -0.9200 -1.8403
 7351TIP3   OH243543   2.014   2.832  12.440 -0.3665  0.2629  0.0913
 7351TIP3    H143544   1.969   2.807  12.520  1.8334 -0.4614  1.1814
 7351TIP3    H243545   2.081   2.895  12.469 -0.2903  0.8863 -1.3598
 7352TIP3   OH243546   6.764   4.522  16.466 -0.4624 -0.8583  0.7147
 7352TIP3    H143547   6.791   4.556  16.381  0.0672 -1.4178  0.6560
 7352TIP3    H243548   6.842   4.481  16.502 -0.6456 -0.5123  1.5338
 7353TIP3   OH243549   0.892   4.611   2.998 -0.2570 -0.2272 -0.1422
 7353TIP3    H143550   0.879   4.587   2.906 -0.0633  1.0846 -0.5467
 7353TIP3    H243551   0.955   4.684   2.994  0.8859 -1.0983  1.1391
 7354TIP3   OH243552   2.423   2.844   4.251 -0.1996 -0.1510  0.0331
 7354TIP3    H143553   2.408   2.938   4.240  0.8420 -0.1489 -1.5952
 7354TIP3    H243554   2.516   2.832   4.234 -0.5097 -1.6074 -0.7922
 7355TIP3   OH243555   1.184   6.461  15.102  0.5620  0.3827  0.0237
 7355TIP3    H143556   1.273   6.426  15.101  1.1859  1.8567  0.7628
 7355TIP3    H243557   1.172   6.494  15.191  0.0411  2.0458 -0.6290
 7356TIP3   OH243558   3.947   1.712   0.153 -0.1242  0.3750  0.8322
 7356TIP3    H143559   3.970   1.624   0.182 -0.0152 -0.0679 -0.5056
 7356TIP3    H243560   4.008   1.729   0.080 -1.7434  0.5558 -0.5314
 7357TIP3   OH243561   4.141   2.340   2.010 -0.1098 -0.2267  0.5043
 7357TIP3    H143562   4.194   2.384   1.944  1.2416 -2.0817  0.2672
 7357TIP3    H243563   4.061   2.315   1.964 -0.6048  1.2957  0.4715
 7358TIP3   OH243564   1.930   0.228   3.841  0.1424 -0.0516 -0.6768
 7358TIP3    H143565   1.985   0.228   3.919 -1.6409  1.0607  0.6480
 7358TIP3    H243566   1.931   0.137   3.810 -0.2033 -0.8262  1.4569
 7359TIP3   OH243567   2.615   5.415  16.213 -0.0491 -0.2842  0.1750
 7359TIP3    H143568   2.688   5.425  16.274 -0.7174  1.4274  0.7563
 7359TIP3    H243569   2.598   5.504  16.181 -0.0666 -1.0626 -2.1304
 7360TIP3   OH243570   3.824   5.520  11.160 -0.0585 -0.1312  0.3034
 7360TIP3    H143571   3.836   5.547  11.250  1.0596  0.0524  0.1118
 7360TIP3    H243572   3.733   5.541  11.140 -0.9538 -2.0833  2.0230
 7361TIP3   OH243573   0.957   2.192  11.331  0.4328  0.3116  0.1240
 7361TIP3    H143574   0.916   2.278  11.322 -1.6359 -0.7882 -1.7583
 7361TIP3    H243575   0.899   2.144  11.390  2.0625  0.4013  1.9161
 7362TIP3   OH243576   1.060   1.886   4.651  0.1852 -0.5868 -0.0455
 7362TIP3    H143577   1.031   1.918   4.736 -0.9515  0.0152 -0.6387
 7362TIP3    H243578   1.134   1.828   4.671 -0.5852 -1.1070  1.3967
 7363TIP3   OH243579   0.525   5.895  11.247 -0.0509  0.4270  0.2238
 7363TIP3    H143580   0.566   5.939  11.173 -0.7167  0.0205 -0.3939
 7363TIP3    H243581   0.450   5.849  11.210  0.3085 -0.7958  0.9517
 7364TIP3   OH243582   0.046   2.668  12.531  0.2874  0.4560 -0.2038
 7364TIP3    H143583   0.071   2.757  12.507  0.6682  0.4594  0.1921
 7364TIP3    H243584  -0.039   2.654  12.489  1.5026 -0.0085 -2.7457
 7365TIP3   OH243585   1.480   6.489   0.092  0.0286 -0.1986 -0.1606
 7365TIP3    H143586   1.539   6.483   0.167 -0.3214  0.0977  0.1402
 7365TIP3    H243587   1.503   6.414   0.038 -0.4322 -1.0235  0.7650
 7366TIP3   OH243588   4.698   0.280   3.009  0.1934 -0.7785  0.0496
 7366TIP3    H143589   4.700   0.291   3.104 -1.0874 -0.2711  0.0395
 7366TIP3    H243590   4.622   0.223   2.994 -0.4075  0.2177 -0.7556
 7367TIP3   OH243591   2.382   5.165  16.483  0.5223  0.1031 -0.3324
 7367TIP3    H143592   2.437   5.209  16.549  1.0399 -0.5196 -0.3456
 7367TIP3    H243593   2.329   5.236  16.446  1.6610  0.8102 -0.6734
 7368TIP3   OH243594   5.142   4.676  10.915 -0.3214  0.1509  0.0108
 7368TIP3    H143595   5.110   4.635  10.995  1.3255  0.0866  0.6800
 7368TIP3    H243596   5.238   4.669  10.921 -0.0560  2.2663 -0.8100
 7369TIP3   OH243597   5.805   3.115  11.884 -0.1969  0.1548 -0.0816
 7369TIP3    H143598   5.859   3.051  11.838  0.2794  0.3620  0.1856
 7369TIP3    H243599   5.835   3.200  11.851  0.2041  0.3101  0.6583
 7370TIP3   OH243600   0.723   5.938  13.189 -0.2692 -0.4404  0.0451
 7370TIP3    H143601   0.803   5.931  13.138 -0.4893 -1.0750 -0.2198
 7370TIP3    H243602   0.711   6.032  13.201 -0.4230 -0.2449 -1.4109
 7371TIP3   OH243603   2.141   3.737   1.635 -0.4137  0.1730  0.0890
 7371TIP3    H143604   2.085   3.723   1.712  0.4435  1.9269  1.0868
 7371TIP3    H243605   2.172   3.649   1.612 -1.3907 -0.4910  1.1998
 7372TIP3   OH243606   6.780   4.786   3.498  0.0347 -0.4377 -0.6192
 7372TIP3    H143607   6.777   4.822   3.587 -0.9607  0.8429 -1.1304
 7372TIP3    H243608   6.866   4.811   3.465  1.3359 -2.8580  0.7014
 7373TIP3   OH243609   3.305   0.136  15.081  0.7379 -0.2659 -0.1562
 7373TIP3    H143610   3.311   0.197  15.007 -0.1360 -0.8948 -0.7635
 7373TIP3    H243611   3.229   0.166  15.131  0.0564 -1.0940 -0.6842
 7374TIP3   OH243612   4.754   4.466   5.403 -0.3756  0.5915 -0.3785
 7374TIP3    H143613   4.797   4.540   5.360 -2.2077  1.2114 -1.2394
 7374TIP3    H243614   4.803   4.454   5.484  0.4248  2.2602 -0.5724
 7375TIP3   OH243615   2.410   5.169   4.115  0.7017 -0.4337  0.3590
 7375TIP3    H143616   2.426   5.228   4.189 -0.6206 -0.8026  0.9575
 7375TIP3    H243617   2.315   5.163   4.108  0.7907 -2.2544  0.1119
 7376TIP3   OH243618   5.811   2.013   4.227  0.0855 -0.0049  0.1845
 7376TIP3    H143619   5.886   2.040   4.279  0.2607 -1.1245  0.5493
 7376TIP3    H243620   5.768   1.946   4.280  0.1838 -1.0704 -1.0191
 7377TIP3   OH243621   0.737   5.208  11.668  0.0564  0.1165 -0.1593
 7377TIP3    H143622   0.741   5.204  11.572  0.8138 -0.5580 -0.1078
 7377TIP3    H243623   0.764   5.297  11.690  1.6294 -0.2426 -0.5039
 7378TIP3   OH243624   6.672   3.984  14.885  0.4625  0.0677  0.3429
 7378TIP3    H143625   6.627   4.031  14.814  0.4094 -0.2606  0.1579
 7378TIP3    H243626   6.692   4.052  14.949 -0.0618  0.2661  0.3045
 7379TIP3   OH243627   3.133   5.310  12.897  0.4832 -0.2715  0.3693
 7379TIP3    H143628   3.200   5.272  12.840  0.6986 -0.1101  0.5134
 7379TIP3    H243629   3.068   5.241  12.906  0.4101 -0.2724 -0.1326
 7380TIP3   OH243630   4.469   0.212  12.715 -0.0384 -0.0363 -0.1396
 7380TIP3    H143631   4.524   0.145  12.756 -0.5247  0.2436  1.0063
 7380TIP3    H243632   4.446   0.271  12.786 -1.2389  0.2505 -0.7430
 7381TIP3   OH243633   1.257   4.823   2.298  0.0061  0.2791  0.3412
 7381TIP3    H143634   1.344   4.859   2.311 -0.7243  1.9591  0.8646
 7381TIP3    H243635   1.228   4.798   2.386  0.2987 -1.1826  0.0517
 7382TIP3   OH243636   4.935   1.127   5.659 -0.3940 -0.2152  0.2186
 7382TIP3    H143637   4.860   1.165   5.705 -0.3795  1.1400 -0.8080
 7382TIP3    H243638   5.005   1.193   5.668  0.2323 -0.8266 -0.0364
 7383TIP3   OH243639   6.392   2.231   5.066 -0.3250  0.1274  0.1345
 7383TIP3    H143640   6.367   2.241   4.974 -1.5682  0.5120  0.4980
 7383TIP3    H243641   6.477   2.274   5.072  0.5506 -1.2887 -1.1619
 7384TIP3   OH243642   4.496   5.712  15.398  0.0469 -0.0834 -0.2439
 7384TIP3    H143643   4.483   5.702  15.304  1.0121  1.5678 -0.5866
 7384TIP3    H243644   4.435   5.780  15.425  0.6189  0.3214  0.0753
 7385TIP3   OH243645   6.566   4.617  12.925  0.0716  0.4153 -0.1717
 7385TIP3    H143646   6.489   4.626  12.980 -0.5578 -1.7851 -0.5809
 7385TIP3    H243647   6.542   4.658  12.842  0.2725  1.8850  0.4601
 7386TIP3   OH243648   5.596   0.211  12.966 -0.2708  0.5791 -0.1399
 7386TIP3    H143649   5.559   0.262  12.894 -1.4250 -0.2816 -0.1877
 7386TIP3    H243650   5.542   0.234  13.042 -0.9962 -0.7424 -0.2234
 7387TIP3   OH243651   5.041   0.023   2.080 -0.3530  0.3342  0.0540
 7387TIP3    H143652   5.093   0.065   2.149  0.9015  0.3787 -0.8993
 7387TIP3    H243653   5.104   0.001   2.012 -1.2861 -1.3767 -0.3008
 7388TIP3   OH243654   5.199   0.428  14.493  0.6626 -0.0941  0.0323
 7388TIP3    H143655   5.189   0.417  14.587  1.4423 -3.0616 -0.1113
 7388TIP3    H243656   5.115   0.400  14.457  0.7413 -0.0632 -0.1768
 7389TIP3   OH243657   0.462   1.372   2.053  0.1869 -0.1769 -0.5457
 7389TIP3    H143658   0.509   1.289   2.055  2.6978  1.1554  0.0371
 7389TIP3    H243659   0.430   1.385   2.142  0.3084 -0.2399 -0.4933
 7390TIP3   OH243660   1.921   5.187   3.572 -0.6343  0.3401 -0.4656
 7390TIP3    H143661   1.962   5.101   3.569  1.2547  1.0912  1.5711
 7390TIP3    H243662   1.953   5.232   3.494  1.2797  0.3824  0.3012
 7391TIP3   OH243663   5.834   2.559  14.999 -0.1886  0.5400  0.2375
 7391TIP3    H143664   5.861   2.515  15.080  0.6318 -1.1174 -0.8721
 7391TIP3    H243665   5.743   2.533  14.986  0.2606 -0.8462 -0.3585
 7392TIP3   OH243666   0.764   5.100   0.931 -0.6267  0.2866  0.3336
 7392TIP3    H143667   0.749   5.186   0.970 -0.7037  0.5211 -0.2019
 7392TIP3    H243668   0.833   5.061   0.985 -1.3784  0.2256  1.2656
 7393TIP3   OH243669   6.471   3.749  14.563  0.2800  0.3083  0.2941
 7393TIP3    H143670   6.557   3.719  14.593 -0.3890 -0.8176  1.1641
 7393TIP3    H243671   6.409   3.688  14.603 -0.7369 -1.1573 -3.1121
 7394TIP3   OH243672   6.307   1.650   2.403  0.1817 -0.0334  0.3230
 7394TIP3    H143673   6.262   1.569   2.380 -0.6936  0.3017  0.7885
 7394TIP3    H243674   6.244   1.697   2.458  0.5181  1.1431 -0.2723
 7395TIP3   OH243675   0.215   3.578  11.871 -0.3462  0.2226 -0.3191
 7395TIP3    H143676   0.196   3.658  11.920 -0.1079 -0.0468  0.2273
 7395TIP3    H243677   0.170   3.590  11.787 -0.9232  0.6102  0.0364
 7396TIP3   OH243678   3.605   6.582  16.272 -0.3853  0.7902  0.0891
 7396TIP3    H143679   3.564   6.640  16.207 -1.4020 -0.3997 -0.3608
 7396TIP3    H243680   3.537   6.566  16.337 -0.5532 -0.9263 -0.4752
 7397TIP3   OH243681   2.844   2.305  15.660 -0.0928  0.2789 -0.4296
 7397TIP3    H143682   2.818   2.294  15.751  0.2542 -3.8589 -0.6251
 7397TIP3    H243683   2.939   2.316  15.663 -0.0256 -0.3029 -0.2782
 7398TIP3   OH243684   5.354   6.096  14.421 -0.1333  0.6170 -0.2055
 7398TIP3    H143685   5.358   6.021  14.362 -0.6035 -1.3503  2.0610
 7398TIP3    H243686   5.294   6.157  14.378  0.4727 -0.1630 -2.2687
 7399TIP3   OH243687   2.256   1.324  13.013  0.4747  0.0258 -0.2731
 7399TIP3    H143688   2.328   1.262  13.001 -0.7959 -1.7671  0.9030
 7399TIP3    H243689   2.266   1.357  13.102 -0.6654 -0.9790  0.2547
 7400TIP3   OH243690   5.455   6.155  12.636 -0.5869  0.6767 -0.3855
 7400TIP3    H143691   5.363   6.178  12.619 -1.0257 -0.6811  0.0718
 7400TIP3    H243692   5.451   6.075  12.687  0.8130  1.7995  1.6412
 7401TIP3   OH243693   0.452   4.545  16.718  0.1730 -0.6923 -0.1824
 7401TIP3    H143694   0.415   4.551  16.806 -0.0914 -0.0684 -0.3338
 7401TIP3    H243695   0.449   4.451  16.698 -0.8954 -0.7053 -0.0139
 7402TIP3   OH243696   2.851   5.156   3.629 -0.1390 -0.0901  0.2959
 7402TIP3    H143697   2.936   5.197   3.614  0.2526 -0.3649  1.6880
 7402TIP3    H243698   2.828   5.180   3.719 -1.5914  0.0762 -0.0959
 7403TIP3   OH243699   4.996   1.799  12.803  0.2678  0.4774 -0.1788
 7403TIP3    H143700   4.999   1.894  12.818 -0.1319  0.5668 -0.6423
 7403TIP3    H243701   5.074   1.765  12.847  0.7855  1.1072 -0.5904
 7404TIP3   OH243702   6.005   5.180  13.818  0.0594 -0.1009 -0.5144
 7404TIP3    H143703   6.055   5.158  13.739 -0.6530  0.4296 -1.1284
 7404TIP3    H243704   5.920   5.209  13.785 -0.3525 -0.1541  0.4699
 7405TIP3   OH243705   6.568   5.287  14.316 -0.0713 -0.0819 -0.8142
 7405TIP3    H143706   6.625   5.271  14.391 -0.1784  0.1200 -0.6902
 7405TIP3    H243707   6.541   5.378  14.325 -0.7099 -0.2832 -0.6689
 7406TIP3   OH243708   5.710   4.182  15.288 -0.1562  0.0966 -0.0930
 7406TIP3    H143709   5.662   4.233  15.354  1.6917  0.6559  0.8966
 7406TIP3    H243710   5.753   4.247  15.233  1.4116 -0.3313  0.5601
 7407TIP3   OH243711   2.849   3.703   1.622 -0.5138  0.2518  0.1600
 7407TIP3    H143712   2.758   3.707   1.590 -0.0300  0.5752 -1.2498
 7407TIP3    H243713   2.865   3.791   1.657 -0.6220  0.3305  0.0182
 7408TIP3   OH243714   2.331   4.660  16.686 -0.1065 -0.2043  0.3706
 7408TIP3    H143715   2.360   4.569  16.699  2.5373  0.4034 -0.6382
 7408TIP3    H243716   2.379   4.689  16.609 -0.1116  2.3652  1.2517
 7409TIP3   OH243717   1.444   1.551  14.361 -0.2124 -0.0798 -0.2385
 7409TIP3    H143718   1.419   1.468  14.401 -0.5004  0.0672 -0.1083
 7409TIP3    H243719   1.405   1.549  14.274 -0.4159  0.0163 -0.1508
 7410TIP3   OH243720   2.488   0.916   0.929 -0.5646 -0.4747 -0.0770
 7410TIP3    H143721   2.516   0.831   0.962 -0.7675 -0.0535  1.2464
 7410TIP3    H243722   2.551   0.936   0.860  0.3238 -1.0947  0.5186
 7411TIP3   OH243723   4.807   4.646  15.295  0.0144  0.4056 -0.3907
 7411TIP3    H143724   4.889   4.605  15.326 -0.3183  1.2676  1.8347
 7411TIP3    H243725   4.740   4.579  15.310  0.0112  0.4481 -0.2090
 7412TIP3   OH243726   1.976   5.383  13.637  0.0631 -0.6267 -0.0779
 7412TIP3    H143727   1.906   5.407  13.576  0.4450 -1.1009 -0.7100
 7412TIP3    H243728   1.942   5.307  13.683  0.4700 -1.3728 -0.9700
 7413TIP3   OH243729   2.007   5.575   1.181 -0.1021 -0.0483 -0.1371
 7413TIP3    H143730   2.066   5.503   1.158  1.8008  2.3537 -3.5340
 7413TIP3    H243731   1.926   5.557   1.132 -0.2857 -0.6717  0.3769
 7414TIP3   OH243732   3.745   6.078  13.610 -0.1666 -1.2592  0.3735
 7414TIP3    H143733   3.749   5.992  13.652 -1.2752 -1.5804 -0.1276
 7414TIP3    H243734   3.669   6.121  13.649  1.7342  0.5087  2.3891
 7415TIP3   OH243735   4.404   0.918  15.216  0.2117  0.2205  0.4822
 7415TIP3    H143736   4.482   0.866  15.193  0.4473  1.1752 -1.0273
 7415TIP3    H243737   4.431   0.969  15.292  0.5159 -0.6508  0.9759
 7416TIP3   OH243738   2.868   1.677   2.895 -0.2606  0.1605 -0.5121
 7416TIP3    H143739   2.924   1.602   2.912  1.0188  1.4640  1.5272
 7416TIP3    H243740   2.929   1.751   2.886 -1.5498  1.4596  0.7848
 7417TIP3   OH243741   1.798   4.191   4.265 -0.1521 -0.0437 -0.2849
 7417TIP3    H143742   1.817   4.186   4.171 -0.5712 -0.5086 -0.3498
 7417TIP3    H243743   1.760   4.106   4.286  1.4159 -0.5381  0.6567
 7418TIP3   OH243744   1.665   5.780   1.102 -0.3678  0.1077 -0.3822
 7418TIP3    H143745   1.723   5.854   1.120 -1.0217  0.1621  1.8888
 7418TIP3    H243746   1.613   5.808   1.026 -0.7188  2.0899  0.5095
 7419TIP3   OH243747   0.127   1.494  15.785  0.5560 -0.1119  0.1105
 7419TIP3    H143748   0.043   1.504  15.830 -0.3006 -0.0926 -1.4080
 7419TIP3    H243749   0.165   1.414  15.821 -0.7567 -0.8696 -0.1340
 7420TIP3   OH243750   4.721   6.263   4.403 -0.6958  0.6373  0.4370
 7420TIP3    H143751   4.804   6.309   4.413 -0.9734  1.0252  0.9988
 7420TIP3    H243752   4.727   6.189   4.464  0.0407 -0.5328 -0.9765
 7421TIP3   OH243753   2.649   2.727   4.909 -0.4427 -0.0942  0.0830
 7421TIP3    H143754   2.564   2.760   4.879 -1.0299  0.1747  1.9078
 7421TIP3    H243755   2.706   2.734   4.833 -2.3637 -1.4474 -1.5500
 7422TIP3   OH243756   5.271   5.459   3.469 -0.0073 -0.1633 -0.0029
 7422TIP3    H143757   5.284   5.508   3.388  0.6347 -0.8376 -0.3184
 7422TIP3    H243758   5.263   5.527   3.537 -2.1774  0.4685 -0.8065
 7423TIP3   OH243759   5.438   6.548  13.092  0.0670 -0.4475 -0.1857
 7423TIP3    H143760   5.524   6.566  13.054 -0.5974  1.9182 -0.7421
 7423TIP3    H243761   5.414   6.630  13.136 -0.9559 -1.7815  1.9265
 7424TIP3   OH243762   4.389   2.368   4.069 -0.0142  0.1143 -0.4383
 7424TIP3    H143763   4.293   2.367   4.074 -0.0067 -0.7056 -0.4631
 7424TIP3    H243764   4.408   2.393   3.978 -0.1993  0.0545 -0.4932
 7425TIP3   OH243765   1.626   0.249   6.203  0.0189 -0.1679 -0.0206
 7425TIP3    H143766   1.646   0.286   6.288 -1.5687  1.4083 -0.2700
 7425TIP3    H243767   1.698   0.277   6.146  0.6087 -0.4517  0.5760
 7426TIP3   OH243768   2.602   5.308  13.005 -0.0025 -0.2261 -0.4033
 7426TIP3    H143769   2.592   5.221  12.966 -0.1033  0.4301 -1.9515
 7426TIP3    H243770   2.538   5.362  12.958 -1.6074  0.2354  2.1380
 7427TIP3   OH243771   1.263   4.701   3.539  0.7177  0.2742 -0.3916
 7427TIP3    H143772   1.197   4.746   3.591  1.0823  1.9055 -1.2610
 7427TIP3    H243773   1.216   4.629   3.497 -0.0999  0.3673  0.3406
 7428TIP3   OH243774   6.355   6.028   1.076  0.7179 -0.5819  0.1620
 7428TIP3    H143775   6.354   6.055   0.985 -2.4884  0.7533  0.4682
 7428TIP3    H243776   6.330   5.935   1.074 -0.8156 -0.1816 -0.2914
 7429TIP3   OH243777   6.602   6.799   0.852 -0.0402 -0.3081 -0.3126
 7429TIP3    H143778   6.544   6.726   0.826 -0.6663 -0.6498  1.8688
 7429TIP3    H243779   6.593   6.862   0.780  0.8830 -2.5011 -2.5327
 7430TIP3   OH243780   1.980   1.710  15.921  0.1112 -0.3802  1.0884
 7430TIP3    H143781   1.885   1.724  15.918  0.4482  3.1200  1.8382
 7430TIP3    H243782   1.992   1.619  15.896 -3.2080 -0.0684 -2.5967
 7431TIP3   OH243783   5.714   6.667  14.723 -0.5357 -0.1042  0.2436
 7431TIP3    H143784   5.719   6.705  14.811  2.6325 -0.1464  0.1993
 7431TIP3    H243785   5.654   6.723  14.676 -1.1085  0.8459  2.0118
 7432TIP3   OH243786   6.013   5.732  12.972  0.2808  0.5547 -0.3349
 7432TIP3    H143787   5.980   5.697  13.055  0.4303 -0.3490 -0.6540
 7432TIP3    H243788   6.062   5.660  12.933  1.5761  1.4789 -0.4756
 7433TIP3   OH243789   4.367   1.447   4.491  0.0016 -0.7018  0.0009
 7433TIP3    H143790   4.410   1.458   4.575 -0.4546  2.7256 -0.0413
 7433TIP3    H243791   4.420   1.383   4.444  0.9813 -1.7534  2.3903
 7434TIP3   OH243792   4.738   5.824  13.003 -0.8403 -0.2876  0.1069
 7434TIP3    H143793   4.658   5.787  13.040 -1.2153  2.4354  2.3192
 7434TIP3    H243794   4.794   5.840  13.079  1.6216 -1.4931 -1.3248
 7435TIP3   OH243795   2.912   6.693   0.600 -0.8592  0.7877 -0.6195
 7435TIP3    H143796   2.852   6.683   0.527  1.8597 -0.5857 -2.8370
 7435TIP3    H243797   2.918   6.606   0.639  0.5885  0.5858 -1.2377
 7436TIP3   OH243798   4.672   5.625   3.466 -0.7129 -0.2412 -0.5996
 7436TIP3    H143799   4.629   5.702   3.503 -0.4107 -0.0993 -0.5411
 7436TIP3    H243800   4.760   5.625   3.505 -0.9922 -1.0938  0.0652
 7437TIP3   OH243801   4.486   4.595  15.452 -0.1541  0.0206 -0.2948
 7437TIP3    H143802   4.519   4.671  15.403  1.0480 -0.6410 -0.5503
 7437TIP3    H243803   4.526   4.520  15.410 -1.2652 -0.7701  0.0160
 7438TIP3   OH243804   3.975   4.909   1.526  0.1089  0.2726 -0.2571
 7438TIP3    H143805   4.050   4.851   1.516  0.3212  0.8697 -2.9569
 7438TIP3    H243806   3.968   4.924   1.620  1.3893 -2.3258  0.3457
 7439TIP3   OH243807   4.763   0.127  16.862  0.4149 -0.3544 -0.1787
 7439TIP3    H143808   4.820   0.158  16.932 -0.4226  2.8970 -0.7600
 7439TIP3    H243809   4.704   0.065  16.904  1.4558 -0.2837  1.4463
 7440TIP3   OH243810   2.057   3.816  13.495  0.6531 -0.5797 -0.7796
 7440TIP3    H143811   1.973   3.859  13.510 -0.7498 -3.1621 -0.6768
 7440TIP3    H243812   2.121   3.887  13.500 -1.4685  1.4648 -0.6892
 7441TIP3   OH243813   0.951   0.853  12.432 -0.0335  0.2167 -0.4976
 7441TIP3    H143814   0.860   0.833  12.409 -0.3400  0.9545  0.0537
 7441TIP3    H243815   0.945   0.915  12.504  0.9118  1.4919 -1.4803
 7442TIP3   OH243816   2.335   5.206  12.190  0.2353 -0.4910  0.4706
 7442TIP3    H143817   2.241   5.201  12.209  0.3708 -1.9575  0.8225
 7442TIP3    H243818   2.349   5.142  12.120  0.8345  0.3565 -0.2069
 7443TIP3   OH243819   0.869   4.674  16.685  0.0299  0.2822  0.3226
 7443TIP3    H143820   0.832   4.619  16.753  1.2333  1.1164  1.7048
 7443TIP3    H243821   0.852   4.626  16.604 -1.3096 -0.8040  1.1980
 7444TIP3   OH243822   1.037   4.796   1.983 -0.0327 -0.6049 -0.6109
 7444TIP3    H143823   1.130   4.814   1.999 -0.1465 -1.4745  1.2702
 7444TIP3    H243824   1.005   4.875   1.939  1.2412  0.4016  0.1882
 7445TIP3   OH243825   1.436   5.684   5.347  0.2287 -0.1158 -0.3600
 7445TIP3    H143826   1.471   5.747   5.410 -1.4122  2.7774 -2.1078
 7445TIP3    H243827   1.351   5.659   5.382  0.9348 -1.5889  0.4009
 7446TIP3   OH243828   6.651   5.910   2.906  0.0699  0.6384  0.1823
 7446TIP3    H143829   6.585   5.851   2.868  0.7438 -0.8532  1.2178
 7446TIP3    H243830   6.626   5.997   2.875 -1.3881 -0.0941 -0.8298
 7447TIP3   OH243831   4.041   2.695  10.385  0.2133  0.0987  0.3139
 7447TIP3    H143832   4.039   2.637  10.460  0.9422 -0.6739 -0.2447
 7447TIP3    H243833   4.099   2.767  10.411 -1.7607  1.3612  1.5158
 7448TIP3   OH243834   6.798   6.056  16.021 -0.2193 -0.3727  0.7072
 7448TIP3    H143835   6.846   5.992  15.968  1.2449 -0.0469  1.5844
 7448TIP3    H243836   6.840   6.052  16.107 -0.6276  1.1742  1.0043
 7449TIP3   OH243837   6.424   0.826  10.051 -0.4618  0.3636 -0.1506
 7449TIP3    H143838   6.495   0.769  10.082  1.2749  1.4619 -1.8617
 7449TIP3    H243839   6.415   0.891  10.121 -0.2756 -0.1939  0.4051
 7450TIP3   OH243840   1.537   4.549  14.840  0.2263 -0.2492  0.4953
 7450TIP3    H143841   1.606   4.523  14.902 -0.6132 -2.4017  0.5927
 7450TIP3    H243842   1.582   4.607  14.779  1.4410  0.7098  2.1955
 7451TIP3   OH243843   6.012   3.025  13.862 -0.5494  0.6934  0.3281
 7451TIP3    H143844   5.959   3.006  13.784 -1.6071  1.6118  0.8079
 7451TIP3    H243845   5.970   3.100  13.903  0.6741  0.9602  1.1685
 7452TIP3   OH243846   3.949   6.763  15.700  0.2057  0.1850  0.2675
 7452TIP3    H143847   3.930   6.691  15.760 -0.2419  1.1631  1.3330
 7452TIP3    H243848   3.864   6.787  15.663  0.2600  0.5447  0.3665
 7453TIP3   OH243849   3.705   5.016  10.606 -0.3720 -0.5867 -0.2293
 7453TIP3    H143850   3.725   4.970  10.688 -1.2679 -1.6992 -0.6089
 7453TIP3    H243851   3.633   5.075  10.628  0.8213  0.7460  0.2751
 7454TIP3   OH243852   2.988   2.482   1.285 -0.6107 -0.0466  0.2669
 7454TIP3    H143853   3.003   2.576   1.275 -0.2307 -0.1638 -0.2816
 7454TIP3    H243854   2.957   2.473   1.375 -0.3319  0.5633  0.4334
 7455TIP3   OH243855   6.087   5.980   0.448  0.1694 -0.4999  0.0024
 7455TIP3    H143856   6.130   5.910   0.400  2.8058  1.5471 -0.8467
 7455TIP3    H243857   5.996   5.979   0.417  0.5331 -2.4986 -1.1350
 7456TIP3   OH243858   3.871   4.761   4.302 -0.0149 -0.3410 -0.6751
 7456TIP3    H143859   3.867   4.665   4.298 -0.9911 -0.3891  0.8733
 7456TIP3    H243860   3.811   4.790   4.234  0.8286 -0.7927 -1.6477
 7457TIP3   OH243861   1.126   2.671  14.571 -0.0048  0.0814 -0.2826
 7457TIP3    H143862   1.047   2.714  14.538 -0.2065 -1.1705 -1.5468
 7457TIP3    H243863   1.151   2.723  14.648 -1.0365  1.5585 -0.8806
 7458TIP3   OH243864   1.957   0.067  12.623  0.2585  0.2354  0.4013
 7458TIP3    H143865   2.007   0.014  12.685  0.1633  0.7639  0.9373
 7458TIP3    H243866   1.933   0.006  12.553 -0.0477 -0.4888  1.1172
 7459TIP3   OH243867   6.455   2.464  11.543 -0.0921 -0.8729 -0.2027
 7459TIP3    H143868   6.533   2.438  11.494  0.4903  0.2113  0.1215
 7459TIP3    H243869   6.401   2.510  11.478  0.3601 -0.0523 -0.0041
 7460TIP3   OH243870   2.664   6.815  12.101 -0.1626 -0.2398  0.2911
 7460TIP3    H143871   2.727   6.884  12.123  0.4062 -0.2130 -1.2861
 7460TIP3    H243872   2.709   6.763  12.035 -1.7751 -0.2601 -0.8277
 7461TIP3   OH243873   4.644   2.750  12.741  0.1307 -0.0140  0.2038
 7461TIP3    H143874   4.706   2.678  12.728 -2.4402 -2.3011 -0.2706
 7461TIP3    H243875   4.658   2.778  12.831  3.0086  0.8471 -0.3971
 7462TIP3   OH243876   2.190   2.651  14.393 -0.1386  0.1279  0.1691
 7462TIP3    H143877   2.116   2.691  14.348  1.5077  0.7176 -2.2666
 7462TIP3    H243878   2.218   2.717  14.456 -2.5906 -0.7651  2.3453
 7463TIP3   OH243879   5.179   3.852  15.266 -1.2698 -0.3110 -0.1737
 7463TIP3    H143880   5.084   3.863  15.260 -0.9972  2.2826 -1.0624
 7463TIP3    H243881   5.204   3.902  15.344 -0.6202 -0.9933  0.0728
 7464TIP3   OH243882   0.573   2.938  11.859 -0.1299  0.0025  0.0860
 7464TIP3    H143883   0.611   2.875  11.797  0.1852  0.9156 -0.6806
 7464TIP3    H243884   0.615   2.919  11.942  0.0134 -0.7558 -0.1560
 7465TIP3   OH243885   4.296   1.609   3.023  0.4081  0.2323  0.4372
 7465TIP3    H143886   4.387   1.627   3.046  0.7502 -0.0287 -0.6344
 7465TIP3    H243887   4.245   1.647   3.094  1.2241  2.7414 -0.2277
 7466TIP3   OH243888   3.257   4.032  15.151 -0.3918 -0.0322  0.4550
 7466TIP3    H143889   3.225   4.010  15.239 -0.4949  1.8576  0.9308
 7466TIP3    H243890   3.344   3.991  15.146  0.2087  0.9624  1.9990
 7467TIP3   OH243891   1.222   0.666   4.723 -0.0451 -0.2231  0.5661
 7467TIP3    H143892   1.303   0.619   4.745  0.0844  0.1148  0.8106
 7467TIP3    H243893   1.173   0.604   4.669  0.1737 -0.6023  0.7986
 7468TIP3   OH243894   6.047   1.517  11.579 -0.4800 -0.0766 -0.5435
 7468TIP3    H143895   6.078   1.554  11.661 -1.1910  0.4901 -0.5174
 7468TIP3    H243896   6.055   1.423  11.590 -0.1144  0.0161 -0.0118
 7469TIP3   OH243897   1.525   3.104  16.252 -0.1956  0.1099  0.1538
 7469TIP3    H143898   1.619   3.084  16.259  0.3812  2.3526 -0.0991
 7469TIP3    H243899   1.490   3.037  16.193  1.6548  0.2360 -1.1959
 7470TIP3   OH243900   6.396   2.428   2.739 -0.2694 -0.1216 -0.2277
 7470TIP3    H143901   6.357   2.368   2.676  0.0526  1.8229 -2.4169
 7470TIP3    H243902   6.323   2.461   2.790 -0.7884 -0.4325 -0.7586
 7471TIP3   OH243903   5.723   1.487   4.282  0.1860 -0.0984  0.1363
 7471TIP3    H143904   5.652   1.426   4.301 -0.4196  0.3319 -0.6758
 7471TIP3    H243905   5.679   1.564   4.244  0.9982  0.5462  0.4697
 7472TIP3   OH243906   5.985   6.787  12.820 -0.7857  0.1144  0.0689
 7472TIP3    H143907   5.892   6.810  12.816 -0.5706  0.8131 -1.9399
 7472TIP3    H243908   6.001   6.771  12.913 -2.6825  0.9494  0.6020
 7473TIP3   OH243909   4.157   3.438  15.515 -0.4964  0.3542  0.5676
 7473TIP3    H143910   4.251   3.453  15.510 -0.2592 -0.0584  2.6998
 7473TIP3    H243911   4.122   3.517  15.558 -1.1720  0.5672 -0.3280
 7474TIP3   OH243912   2.623   3.083  15.075  0.1882 -0.1327  0.0838
 7474TIP3    H143913   2.600   2.992  15.094  1.8036 -0.4361  0.7504
 7474TIP3    H243914   2.696   3.078  15.014 -0.9298  0.7858 -1.4004
 7475TIP3   OH243915   2.338   6.723  14.156  0.1927  0.3043  0.2086
 7475TIP3    H143916   2.344   6.668  14.078  1.1430  0.2143  0.3405
 7475TIP3    H243917   2.324   6.811  14.122 -2.7218 -0.1222  0.0127
 7476TIP3   OH243918   2.757   5.254   1.702 -0.7821 -0.3171 -0.1812
 7476TIP3    H143919   2.721   5.214   1.781  1.2435 -0.8440  0.5500
 7476TIP3    H243920   2.777   5.181   1.644 -1.6230  0.0224 -0.9236
 7477TIP3   OH243921   3.983   4.799   2.221  0.1822 -0.0285  0.2011
 7477TIP3    H143922   3.938   4.795   2.136  0.7395  0.2623 -0.1124
 7477TIP3    H243923   3.979   4.709   2.254  2.4826 -0.8406 -1.4869
 7478TIP3   OH243924   6.783   3.928   6.331 -0.1616 -0.4974  0.2338
 7478TIP3    H143925   6.786   3.848   6.279  0.8087 -0.5808  0.3961
 7478TIP3    H243926   6.834   3.992   6.281 -0.7365 -0.0422  0.2154
 7479TIP3   OH243927   2.099   3.358  11.072  0.5570 -0.4154  0.0798
 7479TIP3    H143928   2.034   3.427  11.087  0.2049 -0.3898 -1.4709
 7479TIP3    H243929   2.065   3.282  11.120  1.5934  0.7489  2.9364
 7480TIP3   OH243930   0.035   2.910   1.533 -0.1428 -0.2434  0.3843
 7480TIP3    H143931   0.108   2.880   1.587  0.0358 -0.2259  0.1539
 7480TIP3    H243932  -0.034   2.933   1.596  0.5416  1.0763  0.7000
 7481TIP3   OH243933   3.701   5.989  15.648 -0.4394  0.5822 -0.4243
 7481TIP3    H143934   3.702   5.907  15.698 -1.0112  0.6057 -0.3669
 7481TIP3    H243935   3.723   6.057  15.711  1.5483  0.3359 -0.7682
 7482TIP3   OH243936   1.431   2.877   5.018 -0.5883  0.4508  0.0572
 7482TIP3    H143937   1.489   2.821   4.967 -0.9652 -1.2158  1.3797
 7482TIP3    H243938   1.476   2.962   5.020  1.6180 -0.6669  0.7004
 7483TIP3   OH243939   2.772   5.555  13.697  0.0592  1.0962 -0.4553
 7483TIP3    H143940   2.868   5.549  13.694  0.0174  0.4872 -2.5613
 7483TIP3    H243941   2.742   5.469  13.665 -1.1312  1.8734 -1.5235
 7484TIP3   OH243942   6.405   2.050   2.829  0.5308  0.0207  0.2258
 7484TIP3    H143943   6.429   2.119   2.891  0.7479  0.1653 -0.0185
 7484TIP3    H243944   6.489   2.018   2.795  0.4012  0.1475 -0.2157
 7485TIP3   OH243945   2.268   0.915  11.277 -0.9877  0.1337 -0.0822
 7485TIP3    H143946   2.224   0.996  11.251  0.2088  1.3467  1.4563
 7485TIP3    H243947   2.221   0.886  11.354  0.4168  1.1187  1.2192
 7486TIP3   OH243948   3.014   3.558   1.405  0.5116  0.8482 -0.0963
 7486TIP3    H143949   2.958   3.589   1.477 -1.1578 -0.5076 -0.7458
 7486TIP3    H243950   3.095   3.607   1.416  0.1473  1.0444  2.4247
 7487TIP3   OH243951   3.626   1.469   3.600 -0.2861 -0.4370 -0.3995
 7487TIP3    H143952   3.705   1.468   3.546  1.7601 -1.5953  2.3291
 7487TIP3    H243953   3.628   1.553   3.645  0.5977 -1.2440  1.1623
 7488TIP3   OH243954   1.903   0.333  16.182 -0.5301  0.1380  0.0462
 7488TIP3    H143955   1.949   0.380  16.252 -1.5028  1.0226  0.1133
 7488TIP3    H243956   1.862   0.258  16.227  0.9525 -0.7690 -0.0464
 7489TIP3   OH243957   0.653   5.658   4.829  0.0646 -0.9324  0.1569
 7489TIP3    H143958   0.701   5.741   4.831 -0.6627 -0.4986  2.0572
 7489TIP3    H243959   0.626   5.648   4.738 -0.0679  1.0672 -0.0738
 7490TIP3   OH243960   5.399   5.665   2.260 -0.4158 -0.5903  0.3006
 7490TIP3    H143961   5.494   5.658   2.254 -0.4966 -0.7117 -1.2504
 7490TIP3    H243962   5.366   5.598   2.201 -1.4631 -0.2313  0.4527
 7491TIP3   OH243963   5.669   1.504  15.721 -0.3908  0.5223  0.1996
 7491TIP3    H143964   5.622   1.474  15.798  0.9471 -1.3133  0.3579
 7491TIP3    H243965   5.761   1.498  15.745  0.0135  1.4032 -1.0303
 7492TIP3   OH243966   2.368   1.000  13.754  0.4669 -0.1815  0.0632
 7492TIP3    H143967   2.327   0.939  13.693 -0.9585 -0.6222  1.3765
 7492TIP3    H243968   2.394   0.946  13.828 -0.5578  0.7151  1.1210
 7493TIP3   OH243969   2.289   6.760   2.336 -0.1416  0.0442 -0.3021
 7493TIP3    H143970   2.264   6.764   2.244  0.1083  0.6741 -0.3511
 7493TIP3    H243971   2.224   6.813   2.381 -0.3868 -0.4351 -0.0827
 7494TIP3   OH243972   1.263   3.169   5.327  0.9228 -0.7541 -0.5090
 7494TIP3    H143973   1.294   3.081   5.308  1.4322 -0.4780 -1.0095
 7494TIP3    H243974   1.173   3.171   5.297  0.7548 -1.2484 -0.0461
 7495TIP3   OH243975   0.875   6.718   1.030 -0.0099  0.4462  0.5789
 7495TIP3    H143976   0.925   6.711   1.112 -1.0565  0.7515  1.2650
 7495TIP3    H243977   0.796   6.667   1.046 -0.4057  0.8278 -0.1108
 7496TIP3   OH243978   0.045   5.663  17.021  0.0229  0.3015 -0.3577
 7496TIP3    H143979  -0.019   5.694  16.957  2.1943  1.5237 -2.1083
 7496TIP3    H243980   0.107   5.611  16.970  0.0534 -1.4937  1.3966
 7497TIP3   OH243981   6.611   4.510   5.558 -0.0694 -0.0919 -0.6320
 7497TIP3    H143982   6.632   4.430   5.606  0.4231 -0.6588 -1.7595
 7497TIP3    H243983   6.652   4.498   5.472 -0.5357  1.0945 -1.0388
 7498TIP3   OH243984   3.701   6.773   0.325 -0.4791 -0.4162  0.0824
 7498TIP3    H143985   3.742   6.833   0.263 -2.8757  0.1444 -1.0881
 7498TIP3    H243986   3.750   6.692   0.316  1.7740  0.8381  0.4665
 7499TIP3   OH243987   0.496   3.749  12.507  0.0097  0.2852  0.3980
 7499TIP3    H143988   0.551   3.732  12.431 -0.6370 -1.6300  0.3055
 7499TIP3    H243989   0.556   3.752  12.581  0.3535 -1.0918  0.2077
 7500TIP3   OH243990   2.934   0.234  13.739  0.5185 -0.1247 -0.2087
 7500TIP3    H143991   3.008   0.291  13.755  0.8827 -0.6040 -0.1540
 7500TIP3    H243992   2.968   0.145  13.752 -0.5565 -0.2960  1.8114
 7501TIP3   OH243993   1.363   6.470  12.327  0.4079 -0.0469  0.1120
 7501TIP3    H143994   1.307   6.413  12.381 -0.3059  0.5702  0.0405
 7501TIP3    H243995   1.445   6.475  12.376  0.5151 -1.1904  0.0845
 7502TIP3   OH243996   5.184   0.618   0.762 -0.2895 -0.0158 -0.1000
 7502TIP3    H143997   5.113   0.580   0.812 -0.8666 -1.4854 -1.9078
 7502TIP3    H243998   5.168   0.713   0.764 -0.9372 -0.1394  1.4317
 7503TIP3   OH243999   6.639   3.808   3.544 -0.2068  0.7822  0.5800
 7503TIP3    H144000   6.616   3.854   3.625 -3.7277  0.6005 -0.1491
 7503TIP3    H244001   6.606   3.864   3.474 -0.2023 -0.5766 -0.5574
 7504TIP3   OH244002   6.210   5.607   1.939 -0.0959  0.6068  0.6874
 7504TIP3    H144003   6.163   5.569   2.013 -0.9374 -0.6524 -0.4341
 7504TIP3    H244004   6.281   5.546   1.921  0.5046  1.2443  0.8473
 7505TIP3   OH244005   0.289   4.474  11.490  0.7177  0.4750 -0.1713
 7505TIP3    H144006   0.372   4.481  11.442  1.0630 -1.8094 -0.0271
 7505TIP3    H244007   0.297   4.537  11.561  3.1719 -0.9588  0.9503
 7506TIP3   OH244008   5.932   2.349   2.255  0.5312  0.0312  0.4133
 7506TIP3    H144009   5.953   2.417   2.319  0.2059  0.8402 -0.3121
 7506TIP3    H244010   5.837   2.356   2.242  0.3894 -0.9906  0.7877
 7507TIP3   OH244011   3.234   0.202  12.855  0.0215 -0.3151  0.0839
 7507TIP3    H144012   3.149   0.244  12.867 -0.6849 -0.7898 -2.5169
 7507TIP3    H244013   3.232   0.127  12.914 -0.6384  0.6289  1.3103
 7508TIP3   OH244014   1.564   4.568  13.299 -0.7193 -0.2798  0.2083
 7508TIP3    H144015   1.495   4.537  13.241  0.4899 -2.5800 -0.1373
 7508TIP3    H244016   1.592   4.490  13.347  2.7445  0.1043 -0.8771
 7509TIP3   OH244017   5.835   0.433   0.556  0.2895  0.5298  0.3332
 7509TIP3    H144018   5.800   0.360   0.606 -0.1704 -0.4439 -1.3478
 7509TIP3    H244019   5.767   0.454   0.492  1.0720  1.3658 -0.2504
 7510TIP3   OH244020   2.648   0.324   4.807  0.1287 -0.3631 -0.7488
 7510TIP3    H144021   2.587   0.325   4.880  0.1840  0.7056 -0.7118
 7510TIP3    H244022   2.593   0.318   4.729  0.0643 -1.3279 -0.6461
 7511TIP3   OH244023   4.068   3.163  16.789  0.5607 -0.2231  0.0430
 7511TIP3    H144024   3.986   3.212  16.800  0.4299 -0.7982  2.0230
 7511TIP3    H244025   4.111   3.205  16.715 -1.3511  0.3313 -0.8282
 7512TIP3   OH244026   3.044   2.894  15.189 -0.0340 -0.2447 -0.6899
 7512TIP3    H144027   3.088   2.812  15.212  0.3645 -0.0056 -0.5855
 7512TIP3    H244028   2.959   2.887  15.232  0.8864  0.4155  1.4002
 7513TIP3   OH244029   4.188   2.606  14.592  0.6417 -0.8053 -0.1033
 7513TIP3    H144030   4.268   2.569  14.557  0.0414 -0.3765 -2.0053
 7513TIP3    H244031   4.129   2.614  14.517 -0.2209  1.4219  0.7216
 7514TIP3   OH244032   5.228   3.849  13.592  0.8514 -0.2328 -0.4223
 7514TIP3    H144033   5.251   3.905  13.666  1.6701 -1.2781  0.1527
 7514TIP3    H244034   5.310   3.806  13.567  0.5022 -0.2241 -1.6718
 7515TIP3   OH244035   3.805   5.544   3.754  0.3576 -0.5229 -0.0955
 7515TIP3    H144036   3.762   5.471   3.710 -1.3964 -0.0527  0.7201
 7515TIP3    H244037   3.869   5.577   3.690 -1.4694 -0.3987 -1.9658
 7516TIP3   OH244038   3.107   3.410  11.678 -0.1889 -0.2273  0.5138
 7516TIP3    H144039   3.035   3.446  11.626  1.0709  1.4875 -0.1337
 7516TIP3    H244040   3.168   3.483  11.689  1.6171 -1.6882  0.7807
 7517TIP3   OH244041   1.845   3.973   6.355  0.1599 -0.6320 -0.8133
 7517TIP3    H144042   1.800   3.908   6.408 -1.7666  0.6598 -0.7484
 7517TIP3    H244043   1.844   3.937   6.266 -0.3361 -0.9682 -0.6754
 7518TIP3   OH244044   6.238   5.313   0.274 -0.6875 -0.0987  0.9796
 7518TIP3    H144045   6.187   5.233   0.264  1.2827 -1.4991  1.5323
 7518TIP3    H244046   6.299   5.312   0.200 -0.1593  0.4839  1.3957
 7519TIP3   OH244047   3.620   4.148   6.376 -0.2113  0.7355  0.0156
 7519TIP3    H144048   3.628   4.241   6.357  0.7763  0.8494  0.8625
 7519TIP3    H244049   3.665   4.137   6.460 -0.2612 -0.5119 -0.0998
 7520TIP3   OH244050   5.355   4.715   3.258 -0.5986  0.0053  0.0998
 7520TIP3    H144051   5.372   4.634   3.211  0.1464 -0.4482  1.1070
 7520TIP3    H244052   5.282   4.695   3.315  0.0284 -0.1861  0.8545
 7521TIP3   OH244053   3.567   3.354   4.594 -0.3693 -0.9189 -0.4867
 7521TIP3    H144054   3.546   3.271   4.637  0.5644 -1.8303 -1.7092
 7521TIP3    H244055   3.526   3.420   4.649 -1.3901 -2.1998  0.3716
 7522TIP3   OH244056   2.754   5.325   5.010  0.0322 -0.2376 -0.5417
 7522TIP3    H144057   2.725   5.387   5.078 -1.1448 -0.0337 -1.2074
 7522TIP3    H244058   2.681   5.264   5.000  0.1964 -0.2782 -1.6170
 7523TIP3   OH244059   5.673   6.548   1.255  0.6450 -0.5814 -1.0200
 7523TIP3    H144060   5.691   6.621   1.314  2.3232 -0.9989 -0.9633
 7523TIP3    H244061   5.578   6.552   1.239  0.5899  1.1221 -0.4131
 7524TIP3   OH244062   4.106   4.519   3.083 -0.2088  0.2118  0.7822
 7524TIP3    H144063   4.027   4.489   3.128  0.0477 -0.2138  0.9531
 7524TIP3    H244064   4.167   4.542   3.153 -0.1733  0.5268  0.6512
 7525TIP3   OH244065   1.339   6.551   0.545  0.2582 -0.2728 -0.0185
 7525TIP3    H144066   1.330   6.575   0.637 -1.1922  2.2517 -0.7180
 7525TIP3    H244067   1.398   6.617   0.508 -0.3467 -0.3541 -1.1874
 7526TIP3   OH244068   2.097   3.102   4.568 -0.3578 -0.5506  0.2138
 7526TIP3    H144069   2.085   3.166   4.638 -0.5840 -1.5233  1.0785
 7526TIP3    H244070   2.135   3.153   4.496  0.1369  0.4149  1.1277
 7527TIP3   OH244071   6.496   6.835   1.092  0.6764  0.0943  0.1935
 7527TIP3    H144072   6.519   6.835   0.999  2.3588 -0.3795  0.5616
 7527TIP3    H244073   6.517   6.923   1.122  1.6246 -0.2003  0.4304
 7528TIP3   OH244074   1.965   3.107   6.040  0.5344  0.1602  0.1770
 7528TIP3    H144075   1.934   3.131   6.127 -0.9667 -1.3739  0.1128
 7528TIP3    H244076   2.031   3.173   6.019  1.1423  0.4111  2.5864
 7529TIP3   OH244077   0.250   5.605   3.257 -0.3495  0.5674  0.2040
 7529TIP3    H144078   0.216   5.613   3.168  0.5015  0.2302 -0.1613
 7529TIP3    H244079   0.181   5.558   3.304 -0.9333  0.9993 -0.1975
 7530TIP3   OH244080   3.266   5.990   5.119 -0.2617 -0.3487 -0.7115
 7530TIP3    H144081   3.255   5.960   5.209 -1.4954 -1.9666 -1.3371
 7530TIP3    H244082   3.185   6.036   5.098 -0.4254 -0.8828 -1.3007
 7531TIP3   OH244083   5.018   3.416   6.488 -0.7143  0.0186 -0.3152
 7531TIP3    H144084   4.953   3.484   6.473  0.3803  0.9645 -0.9556
 7531TIP3    H244085   4.970   3.333   6.479 -1.6420  0.6751 -1.6271
 7532TIP3   OH244086   6.384   3.245   0.662  0.4337  0.0660 -0.1419
 7532TIP3    H144087   6.404   3.286   0.578  2.2731 -0.7759 -0.1479
 7532TIP3    H244088   6.443   3.171   0.668  0.3447  0.0997  1.9059
 7533TIP3   OH244089   6.567   2.838  16.497  0.2567 -0.4902  0.0149
 7533TIP3    H144090   6.545   2.839  16.404 -0.1898 -0.2066  0.1165
 7533TIP3    H244091   6.482   2.851  16.541  0.2510 -1.9866  0.4999
 7534TIP3   OH244092   6.084   2.224  15.124 -0.1953 -0.2661  0.4099
 7534TIP3    H144093   6.113   2.303  15.079  1.5543 -0.4232  1.1978
 7534TIP3    H244094   6.077   2.158  15.055 -0.7902  0.3171 -0.1105
 7535TIP3   OH244095   0.750   5.948  13.706 -0.1144 -0.1615  0.1679
 7535TIP3    H144096   0.712   6.031  13.676  0.3457  0.0595  0.1879
 7535TIP3    H244097   0.752   5.893  13.628 -1.6536 -0.6334  0.4338
 7536TIP3   OH244098   3.640   3.949   4.754 -0.1574  0.4927  0.3033
 7536TIP3    H144099   3.684   3.917   4.676  0.0367 -0.6222  0.8475
 7536TIP3    H244100   3.655   4.044   4.754 -0.1221  0.4918 -0.9669
 7537TIP3   OH244101   2.351   2.159  12.060 -0.1259 -0.3827  0.4115
 7537TIP3    H144102   2.278   2.117  12.015 -0.9947  0.5902  0.8780
 7537TIP3    H244103   2.311   2.202  12.136  0.9332  0.1487  0.6924
 7538TIP3   OH244104   0.904   1.943  13.070  0.0571  1.0106 -0.0055
 7538TIP3    H144105   0.924   1.862  13.116 -1.1021  0.6660 -0.0926
 7538TIP3    H244106   0.934   1.928  12.980 -3.0209 -0.5873 -0.8886
 7539TIP3   OH244107   3.951   4.210   6.332 -0.0835 -0.0764  0.0340
 7539TIP3    H144108   3.919   4.119   6.339 -0.5390  0.0189 -0.6721
 7539TIP3    H244109   3.879   4.257   6.291  0.6577  0.3291 -0.8209
 7540TIP3   OH244110   4.077   0.915   0.475  0.1704 -0.1252  0.4986
 7540TIP3    H144111   4.021   0.924   0.552 -1.1781  1.2572 -0.5783
 7540TIP3    H244112   4.129   0.995   0.474 -1.4394  0.9763 -1.2005
 7541TIP3   OH244113   4.363   5.621   0.364  0.2860  0.5729 -0.3634
 7541TIP3    H144114   4.455   5.593   0.366 -0.2823 -1.4889 -0.8906
 7541TIP3    H244115   4.315   5.543   0.337 -1.7871  1.2359  1.1760
 7542TIP3   OH244116   2.875   1.378  14.543  0.4520 -0.5895 -0.4202
 7542TIP3    H144117   2.924   1.431  14.605 -0.2295 -1.4144  0.8692
 7542TIP3    H244118   2.794   1.354  14.589 -1.7058  1.5286 -2.7769
 7543TIP3   OH244119   2.358   0.241   4.738  0.0303  0.4240 -0.5561
 7543TIP3    H144120   2.408   0.160   4.735  0.0875  0.4772 -2.1684
 7543TIP3    H244121   2.371   0.275   4.826 -0.5202 -1.6264  0.3629
 7544TIP3   OH244122   3.520   6.227  13.706  0.1726  0.0584 -0.0608
 7544TIP3    H144123   3.429   6.203  13.692  0.3255  0.1446 -1.3940
 7544TIP3    H244124   3.521   6.323  13.703  0.3950  0.0405 -0.7531
 7545TIP3   OH244125   0.543   2.335   3.237  0.1316 -0.4936 -0.5209
 7545TIP3    H144126   0.611   2.305   3.176  0.6985 -0.6225  0.1614
 7545TIP3    H244127   0.566   2.294   3.320 -0.5950 -0.2601 -0.1989
 7546TIP3   OH244128   4.610   2.105   4.325  0.9671 -0.0110  0.2831
 7546TIP3    H144129   4.557   2.185   4.335 -0.2859 -0.9893  2.1796
 7546TIP3    H244130   4.591   2.074   4.237 -1.0031  0.1492  0.6094
 7547TIP3   OH244131   6.121   5.127   5.577  0.0930  0.5447 -0.0899
 7547TIP3    H144132   6.137   5.080   5.659 -0.3810 -0.6080 -0.6342
 7547TIP3    H244133   6.078   5.208   5.604 -0.2102  0.1049  0.7955
 7548TIP3   OH244134   0.725   4.461  14.289  0.2548  0.3841  0.0488
 7548TIP3    H144135   0.712   4.390  14.351  0.6469 -0.6757 -1.0470
 7548TIP3    H244136   0.777   4.422  14.219  1.2027  1.9685 -0.1856
 7549TIP3   OH244137   6.617   2.811  15.102 -0.5491  0.1835 -0.0366
 7549TIP3    H144138   6.644   2.852  15.184  0.3210 -2.1047  0.9170
 7549TIP3    H244139   6.523   2.799  15.111 -0.8505  2.0007 -0.4027
 7550TIP3   OH244140   5.074   1.425  11.106  0.1392 -0.0910 -0.3833
 7550TIP3    H144141   5.125   1.366  11.052  1.8338  0.6880  0.3148
 7550TIP3    H244142   5.112   1.417  11.194 -0.2399  1.2767 -0.0691
 7551TIP3   OH244143   5.470   0.392  11.852 -0.3395 -0.7479  0.5388
 7551TIP3    H144144   5.467   0.423  11.942 -1.0300 -1.8502  0.9195
 7551TIP3    H244145   5.483   0.471  11.800  1.4468 -0.2349  1.6696
 7552TIP3   OH244146   2.512   1.449  16.226 -0.1735  0.0738  0.0651
 7552TIP3    H144147   2.470   1.531  16.250 -0.1654  0.4223 -1.0610
 7552TIP3    H244148   2.533   1.407  16.310 -0.7337  0.9265  0.6444
 7553TIP3   OH244149   2.909   6.148   1.319  0.5043  0.3567 -0.2599
 7553TIP3    H144150   2.829   6.179   1.276 -1.6272 -2.5693  1.2150
 7553TIP3    H244151   2.900   6.177   1.410  0.6990 -0.6654  0.0970
 7554TIP3   OH244152   0.253   5.379  14.508  0.4645  0.2931  0.3293
 7554TIP3    H144153   0.239   5.336  14.424 -0.9672  0.7263  0.3310
 7554TIP3    H244154   0.261   5.472  14.487 -0.0263  0.4158  0.6846
 7555TIP3   OH244155   0.783   4.899  13.553 -0.1315 -0.3146  0.2224
 7555TIP3    H144156   0.788   4.941  13.639 -0.0009  1.0280 -0.4261
 7555TIP3    H244157   0.805   4.968  13.491 -0.8235 -1.1106 -0.9431
 7556TIP3   OH244158   6.603   2.885  12.901 -0.3856 -0.4370 -0.4751
 7556TIP3    H144159   6.658   2.832  12.843 -0.6597 -1.0876 -0.1504
 7556TIP3    H244160   6.665   2.943  12.946 -0.2056  0.3468 -1.6764
 7557TIP3   OH244161   0.388   3.705  17.000  0.1461  0.3279  0.4262
 7557TIP3    H144162   0.483   3.719  16.998  0.1237  0.4568 -0.9912
 7557TIP3    H244163   0.351   3.793  16.999  0.0218  0.2755  0.5253
 7558TIP3   OH244164   4.836   0.147   1.162  0.0451  0.3117 -0.5969
 7558TIP3    H144165   4.911   0.091   1.185 -0.5373 -0.1610  0.1817
 7558TIP3    H244166   4.828   0.139   1.067  0.5481 -0.1855 -0.5996
 7559TIP3   OH244167   1.574   5.450   0.963 -0.1907  0.1437 -0.3454
 7559TIP3    H144168   1.547   5.396   0.888 -1.3930  0.3894 -0.1039
 7559TIP3    H244169   1.495   5.497   0.988  0.6058  1.2993  0.0674
 7560TIP3   OH244170   5.070   6.323   2.747 -0.4400 -0.0584 -0.9987
 7560TIP3    H144171   5.017   6.402   2.740  0.3689  0.6585  0.3847
 7560TIP3    H244172   5.009   6.251   2.731 -1.5209  0.7914 -0.8252
 7561TIP3   OH244173   5.793   5.171   0.988  0.5893 -0.3539 -0.3951
 7561TIP3    H144174   5.846   5.248   0.968 -0.1131 -0.2429 -1.9628
 7561TIP3    H244175   5.849   5.118   1.045  1.4451  0.8548 -0.0661
 7562TIP3   OH244176   4.537   6.681  14.961  0.4374  0.2163 -0.0571
 7562TIP3    H144177   4.447   6.711  14.957  0.0559 -0.9662 -2.8282
 7562TIP3    H244178   4.585   6.740  14.902  1.3505  0.3951  0.8334
 7563TIP3   OH244179   2.816   3.804   3.201 -0.6280  0.6200 -0.3062
 7563TIP3    H144180   2.835   3.787   3.293 -2.5804 -0.0138  0.0195
 7563TIP3    H244181   2.902   3.806   3.159  0.2433 -0.0310  1.3577
 7564TIP3   OH244182   6.020   4.531  12.119 -0.2234  0.6936 -0.4450
 7564TIP3    H144183   6.049   4.460  12.178 -0.9301  1.4495  0.8562
 7564TIP3    H244184   5.970   4.486  12.051  1.7571 -0.3575 -1.3050
 7565TIP3   OH244185   1.529   3.228  16.582 -0.3403 -0.0108  0.4606
 7565TIP3    H144186   1.471   3.196  16.513  0.7849  1.0607 -1.0303
 7565TIP3    H244187   1.549   3.318  16.558  2.8785 -0.6609  0.2191
 7566TIP3   OH244188   3.519   2.078   2.390  0.2594 -0.2894 -0.1293
 7566TIP3    H144189   3.476   2.069   2.475  1.1077  0.2725  0.3653
 7566TIP3    H244190   3.608   2.047   2.405  1.0938  1.9201 -0.2249
 7567TIP3   OH244191   4.482   1.084   5.927  0.0648  0.1652  0.1095
 7567TIP3    H144192   4.441   1.107   6.011  2.3266  0.6715  1.1615
 7567TIP3    H244193   4.518   0.997   5.942 -0.9814 -0.4845 -0.9641
 7568TIP3   OH244194   0.770   2.521  15.645  0.1846  0.3373 -0.5027
 7568TIP3    H144195   0.684   2.485  15.626 -0.1419 -0.3446  1.8659
 7568TIP3    H244196   0.829   2.479  15.582 -1.0712  0.1811 -1.6029
 7569TIP3   OH244197   3.405   6.326  14.457  0.1359 -1.0633  0.1064
 7569TIP3    H144198   3.413   6.422  14.462 -2.3878 -0.8685  2.6798
 7569TIP3    H244199   3.318   6.311  14.422  0.9016 -2.5103 -1.2950
 7570TIP3   OH244200   3.097   3.245  11.935 -0.0053 -0.4519 -0.8176
 7570TIP3    H144201   3.163   3.295  11.983 -1.9197  2.2589 -0.8048
 7570TIP3    H244202   3.086   3.292  11.853 -1.8012 -0.9180 -0.8929
 7571TIP3   OH244203   3.964   5.814   5.234 -0.3987 -0.7141 -0.2394
 7571TIP3    H144204   3.909   5.836   5.159 -0.3992  0.1955  0.0142
 7571TIP3    H244205   4.050   5.797   5.195 -0.6459 -1.2802 -0.5477
 7572TIP3   OH244206   6.076   4.525   3.903  0.5931  0.5237 -0.1290
 7572TIP3    H144207   6.107   4.440   3.873  1.0487  0.0292  1.6090
 7572TIP3    H244208   6.155   4.578   3.914  0.4313  0.7349  0.0424
 7573TIP3   OH244209   1.417   0.122   0.479 -0.7879  0.0971 -0.1919
 7573TIP3    H144210   1.465   0.192   0.435  1.0692 -1.3911 -0.6653
 7573TIP3    H244211   1.433   0.044   0.426 -2.9484 -0.7039  0.2150
 7574TIP3   OH244212   5.970   1.971  16.612 -0.2935 -0.2443  0.0914
 7574TIP3    H144213   5.936   2.038  16.553 -1.4281 -1.4246 -0.6428
 7574TIP3    H244214   6.036   1.925  16.559 -0.5044 -0.5857  0.1255
 7575TIP3   OH244215   0.911   3.646  13.221  0.3702 -0.0500  0.0090
 7575TIP3    H144216   0.953   3.567  13.186  0.6242 -0.2180  0.6848
 7575TIP3    H244217   0.856   3.614  13.293  1.2143  0.4956  0.9117
 7576TIP3   OH244218   3.296   5.711  16.045  0.4994 -0.5984 -0.6446
 7576TIP3    H144219   3.216   5.721  16.097 -0.8627 -1.2506 -2.5094
 7576TIP3    H244220   3.312   5.798  16.009 -1.0077 -0.9839 -2.4355
 7577TIP3   OH244221   5.444   3.083  14.810 -0.4912  0.1277 -0.0141
 7577TIP3    H144222   5.529   3.052  14.778 -0.4058  1.2287 -0.9510
 7577TIP3    H244223   5.385   3.069  14.736 -0.7266  0.9453  0.0119
 7578TIP3   OH244224   1.084   2.822   2.465 -0.3953  0.3899 -0.0708
 7578TIP3    H144225   1.064   2.829   2.372  0.0245  0.7317 -0.1421
 7578TIP3    H244226   1.027   2.752   2.497  0.2501 -0.5098 -0.8194
 7579TIP3   OH244227   6.499   4.756  11.285 -0.3466 -0.4581  0.0852
 7579TIP3    H144228   6.441   4.753  11.361  1.9622  0.4367  2.0128
 7579TIP3    H244229   6.446   4.796  11.216 -2.2431 -0.4306  1.4703
 7580TIP3   OH244230   2.180   1.472   0.709  0.0782 -0.6648  0.1643
 7580TIP3    H144231   2.114   1.507   0.769 -0.1623 -0.9585  0.0740
 7580TIP3    H244232   2.194   1.542   0.645  1.2195  0.1242  1.2392
 7581TIP3   OH244233   6.115   0.634   5.659  0.2626  0.4841 -0.0922
 7581TIP3    H144234   6.100   0.722   5.624  0.6258 -0.1933 -2.0878
 7581TIP3    H244235   6.163   0.588   5.589 -0.3900 -1.4655  0.6681
 7582TIP3   OH244236   4.411   3.296  16.766 -0.0830 -0.3950  0.0614
 7582TIP3    H144237   4.366   3.223  16.808 -0.9779 -0.2544 -0.6185
 7582TIP3    H244238   4.387   3.372  16.819  0.8667 -0.5818  0.7815
 7583TIP3   OH244239   6.722   1.022  11.393  0.2850 -0.0162  0.0940
 7583TIP3    H144240   6.636   0.980  11.393  0.1841  0.1832 -0.5800
 7583TIP3    H244241   6.783   0.950  11.377  0.1761 -0.0367 -0.2440
 7584TIP3   OH244242   3.858   1.550  12.833  0.0339  0.2139 -0.6195
 7584TIP3    H144243   3.854   1.518  12.923 -0.9994  0.0583 -0.7102
 7584TIP3    H244244   3.943   1.520  12.800  0.1960 -0.1701  0.1319
 7585TIP3   OH244245   1.411   0.070  12.017  0.3686 -0.1732 -0.0291
 7585TIP3    H144246   1.365  -0.006  11.984  1.0205 -0.3995 -0.4289
 7585TIP3    H244247   1.482   0.034  12.071 -0.7150  0.1784  1.7281
 7586TIP3   OH244248   4.895   1.235   4.080 -0.6862 -0.0947 -0.3351
 7586TIP3    H144249   4.899   1.263   4.171 -1.1537 -1.6192  0.1767
 7586TIP3    H244250   4.983   1.251   4.046 -0.1425 -0.6823  0.7510
 7587TIP3   OH244251   3.542   3.181  11.141 -0.1686  0.3661 -0.2899
 7587TIP3    H144252   3.594   3.121  11.088 -1.2126 -0.3912 -0.4932
 7587TIP3    H244253   3.549   3.147  11.230 -0.5595  0.0741 -0.3669
 7588TIP3   OH244254   4.599   4.260  16.277  0.0669  0.4062  0.0556
 7588TIP3    H144255   4.532   4.264  16.345 -0.0288  2.0363 -0.0914
 7588TIP3    H244256   4.555   4.291  16.198  0.3363 -0.9030 -0.6538
 7589TIP3   OH244257   1.122   1.755   1.123  0.0433  0.1672  0.4740
 7589TIP3    H144258   1.206   1.716   1.146 -0.4634 -1.1310  0.2028
 7589TIP3    H244259   1.131   1.777   1.030 -0.0586 -0.3689  0.3349
 7590TIP3   OH244260   4.681   0.269   4.215  0.3668 -0.5872  0.2488
 7590TIP3    H144261   4.663   0.350   4.262  0.5237 -0.1329 -0.4656
 7590TIP3    H244262   4.640   0.280   4.130 -0.6014 -1.7228  0.5379
 7591TIP3   OH244263   4.406   1.103  17.146  0.4690 -0.1394 -0.2334
 7591TIP3    H144264   4.402   1.045  17.070  0.1908  0.2645 -0.5331
 7591TIP3    H244265   4.327   1.156  17.140 -0.0099 -0.6888  0.8289
 7592TIP3   OH244266   6.841   3.170   5.255  0.6492 -0.1510 -0.7548
 7592TIP3    H144267   6.775   3.176   5.186  1.1325 -2.9632 -1.5644
 7592TIP3    H244268   6.797   3.126   5.328  0.6227  1.3258  0.1663
 7593TIP3   OH244269   6.543   1.975  14.007 -0.2986  0.0831 -0.5034
 7593TIP3    H144270   6.488   1.924  13.947 -1.1786  0.8231 -0.3421
 7593TIP3    H244271   6.621   1.996  13.955 -0.6900  0.0169 -1.1269
 7594TIP3   OH244272   6.030   6.568   3.894 -0.2672 -0.7159  0.6262
 7594TIP3    H144273   5.954   6.624   3.910 -0.3556 -1.0770  1.5285
 7594TIP3    H244274   6.004   6.482   3.928 -0.3700 -1.4998 -1.3162
 7595TIP3   OH244275   0.702   0.761  12.462 -0.4806 -0.2215  0.3070
 7595TIP3    H144276   0.688   0.680  12.414  1.2591 -0.8836  0.8342
 7595TIP3    H244277   0.614   0.797  12.476 -1.1820 -1.2050 -1.2659
 7596TIP3   OH244278   4.394   4.415  15.784 -0.0404  0.3618 -0.0712
 7596TIP3    H144279   4.301   4.429  15.766  0.2671  2.2425 -0.3856
 7596TIP3    H244280   4.423   4.496  15.825  1.6687  0.1442 -0.7725
 7597TIP3   OH244281   6.447   6.298   3.443  0.3079 -0.2470  0.3304
 7597TIP3    H144282   6.360   6.277   3.477  0.7828 -0.1855  1.6447
 7597TIP3    H244283   6.501   6.222   3.465  0.3141 -0.8746 -1.6739
 7598TIP3   OH244284   5.415   0.408  16.722 -0.0003  0.2707 -0.3019
 7598TIP3    H144285   5.385   0.336  16.665  0.1452 -0.6795  0.7900
 7598TIP3    H244286   5.503   0.382  16.748  0.4957  1.4140 -0.7954
 7599TIP3   OH244287   5.574   3.454   5.637 -0.4062  0.3761  0.0504
 7599TIP3    H144288   5.546   3.362   5.637 -0.4907  0.3775  1.7013
 7599TIP3    H244289   5.660   3.452   5.595 -0.5669 -0.4025 -0.2660
 7600TIP3   OH244290   0.093   0.232   2.513  0.5146 -0.1346  0.4098
 7600TIP3    H144291   0.021   0.197   2.566 -0.9332 -0.2495 -1.5062
 7600TIP3    H244292   0.134   0.154   2.475 -0.5989  0.0018 -1.2108
 7601TIP3   OH244293   0.474   0.059   0.692 -0.2473  0.3992  0.3365
 7601TIP3    H144294   0.557   0.033   0.733 -0.0933 -1.5562 -1.0766
 7601TIP3    H244295   0.413   0.068   0.765  0.1676 -2.3861  1.1392
 7602TIP3   OH244296   0.309   1.771   3.987  0.0618 -0.4254  0.2597
 7602TIP3    H144297   0.334   1.848   3.936 -1.0767 -0.8996 -1.0815
 7602TIP3    H244298   0.231   1.798   4.034 -0.6521 -0.8864 -0.6257
 7603TIP3   OH244299   4.094   3.998   1.686  0.0011  0.0155  0.2072
 7603TIP3    H144300   4.167   3.940   1.710  1.6547  2.3767  1.3281
 7603TIP3    H244301   4.092   3.995   1.590  0.4838 -1.3236  0.2172
 7604TIP3   OH244302   5.873   1.111  11.177 -0.1808  0.0021 -0.0601
 7604TIP3    H144303   5.930   1.132  11.103 -0.8017 -0.6437 -0.7430
 7604TIP3    H244304   5.859   1.016  11.170  0.1655 -0.1572  1.1981
 7605TIP3   OH244305   0.764   5.730  16.572  0.8592 -0.5314  0.2017
 7605TIP3    H144306   0.804   5.643  16.563  4.7812  1.2166 -1.4776
 7605TIP3    H244307   0.712   5.741  16.492 -0.4866 -1.6062  0.8825
 7606TIP3   OH244308   5.196   0.789  16.582  0.0776  0.2305 -0.2780
 7606TIP3    H144309   5.175   0.867  16.633 -0.5878 -0.7335  0.9718
 7606TIP3    H244310   5.121   0.777  16.523  0.6244  1.0614 -1.1806
 7607TIP3   OH244311   4.060   6.406  12.245  0.5516  0.1984  0.1884
 7607TIP3    H144312   3.976   6.390  12.287  0.8020 -1.1370  0.2154
 7607TIP3    H244313   4.064   6.501  12.236 -1.1718  0.2612 -0.2660
 7608TIP3   OH244314   4.207   6.831  15.572  0.0868  0.0857  0.6358
 7608TIP3    H144315   4.202   6.802  15.481 -0.1624  0.5084  0.5100
 7608TIP3    H244316   4.122   6.808  15.610  0.4739 -0.8206  0.9943
 7609TIP3   OH244317   6.209   5.562  11.864  0.4572 -0.0926 -0.1581
 7609TIP3    H144318   6.304   5.573  11.853  0.3553 -0.3272 -1.4431
 7609TIP3    H244319   6.196   5.467  11.857 -0.0899  0.0917 -2.1491
 7610TIP3   OH244320   5.051   3.281   4.255  0.0742 -0.6572 -1.0219
 7610TIP3    H144321   5.131   3.238   4.223  0.0864 -0.1279 -1.7259
 7610TIP3    H244322   4.983   3.255   4.193 -0.1306 -0.4488 -0.8862
 7611TIP3   OH244323   5.475   3.869   0.507 -0.0369 -0.1248  0.1087
 7611TIP3    H144324   5.440   3.862   0.419  1.2096  2.1065 -0.6676
 7611TIP3    H244325   5.559   3.824   0.503 -0.1352 -0.3180  0.2428
 7612TIP3   OH244326   0.841   6.221  12.649  0.3823 -0.0628 -0.3365
 7612TIP3    H144327   0.897   6.151  12.684  0.7091 -0.5861 -1.8266
 7612TIP3    H244328   0.898   6.270  12.590  0.0742  1.3131  0.4740
 7613TIP3   OH244329   1.788   0.320  13.867 -0.2151 -0.5227 -0.5166
 7613TIP3    H144330   1.815   0.238  13.825 -0.8396 -0.5470 -0.8847
 7613TIP3    H244331   1.743   0.369  13.798 -0.2604 -0.0708 -0.1735
 7614TIP3   OH244332   6.073   1.710  10.796  0.0765 -0.2313 -0.0053
 7614TIP3    H144333   6.158   1.681  10.763 -0.0997 -0.6727 -0.0805
 7614TIP3    H244334   6.087   1.726  10.889 -0.1943 -2.0916  0.3909
 7615TIP3   OH244335   3.578   3.668  11.778 -0.6393 -0.0410  0.7037
 7615TIP3    H144336   3.597   3.690  11.869 -1.5588 -1.9172  1.3864
 7615TIP3    H244337   3.483   3.669  11.772 -0.5881  0.9433 -0.5075
 7616TIP3   OH244338   0.476   6.566  14.127 -0.3430  0.2697  0.2830
 7616TIP3    H144339   0.430   6.526  14.201  2.3210 -0.6922  1.5334
 7616TIP3    H244340   0.538   6.628  14.167  0.3231  0.6157 -1.2133
 7617TIP3   OH244341   5.627   2.027   2.999 -0.2119  0.2917 -0.3623
 7617TIP3    H144342   5.551   1.978   2.968 -0.1294 -0.0556 -0.0149
 7617TIP3    H244343   5.687   1.960   3.031  0.9828  0.4110 -2.2192
 7618TIP3   OH244344   5.290   5.216  16.581 -0.5587  0.7964 -0.3306
 7618TIP3    H144345   5.287   5.248  16.671  0.6355  0.1204 -0.0370
 7618TIP3    H244346   5.199   5.225  16.550 -1.1085  0.5012  1.1194
 7619TIP3   OH244347   1.243   5.217   1.714 -0.4020  0.3059 -0.5151
 7619TIP3    H144348   1.288   5.297   1.741  0.1265 -0.5662  1.4039
 7619TIP3    H244349   1.191   5.192   1.791  0.7378 -2.0784 -0.4315
 7620TIP3   OH244350   5.392   4.979   5.031 -0.6935  0.4974  0.1883
 7620TIP3    H144351   5.450   4.930   5.090 -0.2696 -1.0366 -1.3962
 7620TIP3    H244352   5.446   4.993   4.953 -1.9635  0.3733 -0.7326
 7621TIP3   OH244353   5.107   6.525  12.850 -0.0293  0.1648  0.1212
 7621TIP3    H144354   5.076   6.569  12.930 -1.5477 -0.4025 -0.1214
 7621TIP3    H244355   5.071   6.579  12.779  1.0956  0.5174 -0.1903
 7622TIP3   OH244356   4.303   2.736   3.900  0.4410  0.3229 -0.1274
 7622TIP3    H144357   4.347   2.723   3.984  1.5561 -0.1749 -0.7743
 7622TIP3    H244358   4.336   2.820   3.868 -1.0973  1.2529  0.5755
 7623TIP3   OH244359   1.354   6.423  11.929 -0.2938  0.3446 -0.0161
 7623TIP3    H144360   1.310   6.478  11.864 -0.4278  0.7913  0.4439
 7623TIP3    H244361   1.298   6.427  12.006 -1.4330 -2.1846 -0.6365
 7624TIP3   OH244362   2.984   2.912   2.606  0.5210 -0.1301  0.2076
 7624TIP3    H144363   2.951   2.950   2.687 -0.6179 -2.0545  0.7308
 7624TIP3    H244364   3.055   2.970   2.578 -1.0661  2.3098  0.9018
 7625TIP3   OH244365   3.384   3.795  15.870 -0.0616 -0.4347 -0.4149
 7625TIP3    H144366   3.431   3.711  15.868 -0.4028 -0.6797  0.8037
 7625TIP3    H244367   3.394   3.825  15.960  0.8154  1.2948 -1.0467
 7626TIP3   OH244368   4.013   5.353  12.084  0.4157  1.0127 -0.3347
 7626TIP3    H144369   3.928   5.378  12.046 -0.5406 -1.9821 -0.4585
 7626TIP3    H244370   4.063   5.317  12.010  0.6597  0.1660  0.2239
 7627TIP3   OH244371   1.822   6.621  15.780 -0.0211 -0.0286  0.3987
 7627TIP3    H144372   1.901   6.583  15.741  0.9074  0.7536  1.4449
 7627TIP3    H244373   1.798   6.561  15.850 -0.3094 -0.2114  0.1480
 7628TIP3   OH244374   1.555   5.444   1.672 -0.1850 -0.3481  0.1389
 7628TIP3    H144375   1.559   5.388   1.750  1.1910  0.1358  0.4459
 7628TIP3    H244376   1.512   5.390   1.606 -3.2192 -0.1009  1.7468
 7629TIP3   OH244377   5.778   2.404  12.662 -0.5134 -0.0447  0.0963
 7629TIP3    H144378   5.805   2.457  12.737  0.4052  1.3942 -1.1824
 7629TIP3    H244379   5.856   2.399  12.607 -1.4259 -0.2054 -1.2396
 7630TIP3   OH244380   3.538   0.777  11.628 -0.3302  0.4566 -0.2512
 7630TIP3    H144381   3.538   0.821  11.543  0.4779  0.7604 -0.1118
 7630TIP3    H244382   3.453   0.735  11.634  0.4280 -1.5715 -2.2367
 7631TIP3   OH244383   1.303   5.337  11.997 -0.1048  0.6308 -0.4092
 7631TIP3    H144384   1.297   5.245  12.019 -1.2520  0.3561 -1.7516
 7631TIP3    H244385   1.344   5.339  11.910 -0.6905  1.3416 -0.6824
 7632TIP3   OH244386   3.435   4.964   5.828  0.0851  0.0976 -0.0258
 7632TIP3    H144387   3.439   5.059   5.824  2.0256  0.0427 -0.4839
 7632TIP3    H244388   3.513   4.939   5.877  0.0792 -1.2961 -0.6833
 7633TIP3   OH244389   5.217   6.622   3.300  0.3584  0.4255  0.3291
 7633TIP3    H144390   5.306   6.643   3.328  0.2593  0.8433  0.3457
 7633TIP3    H244391   5.161   6.653   3.372  0.1230  1.2344 -0.1849
 7634TIP3   OH244392   2.054   0.782  16.913  0.2379 -0.3904  0.2243
 7634TIP3    H144393   2.043   0.746  17.001 -0.1487  0.0489  0.3585
 7634TIP3    H244394   2.032   0.875  16.922  2.2052  0.1452  0.1018
 7635TIP3   OH244395   3.367   5.309   2.542  0.3123  0.4549  0.7451
 7635TIP3    H144396   3.336   5.342   2.626  0.3261 -1.9931  1.7957
 7635TIP3    H244397   3.453   5.349   2.530  0.4053  0.6628  2.0067
 7636TIP3   OH244398   2.742   5.204  15.139  0.3027  0.2989 -0.1423
 7636TIP3    H144399   2.834   5.197  15.166  0.2094  0.8186  0.3135
 7636TIP3    H244400   2.714   5.113  15.126  1.6368  0.1505 -2.8527
 7637TIP3   OH244401   4.128   6.375  14.844  0.1838 -0.0375  0.6007
 7637TIP3    H144402   4.058   6.321  14.880  2.0355 -2.7058  0.4801
 7637TIP3    H244403   4.083   6.446  14.798 -2.4142 -1.6490  0.4831
 7638TIP3   OH244404   3.969   5.849   1.884 -0.0243 -0.0138 -0.3571
 7638TIP3    H144405   4.063   5.839   1.902  0.3384  2.5895 -0.3764
 7638TIP3    H244406   3.944   5.929   1.930 -1.6581  0.6953 -2.3113
 7639TIP3   OH244407   2.852   6.102  11.139  0.1479  0.0407  0.4450
 7639TIP3    H144408   2.913   6.113  11.065 -0.2671  0.2447  0.1261
 7639TIP3    H244409   2.893   6.037  11.195 -0.1005 -1.0417 -0.5870
 7640TIP3   OH244410   3.275   0.628   4.730  0.7544 -0.3415  0.3933
 7640TIP3    H144411   3.282   0.682   4.652 -1.6890 -0.2591  0.1458
 7640TIP3    H244412   3.260   0.690   4.801  2.6855 -0.4354  0.9412
 7641TIP3   OH244413   0.934   6.548   1.272  0.0073 -0.2258 -0.4386
 7641TIP3    H144414   0.946   6.514   1.360 -0.0378 -2.6563 -1.2888
 7641TIP3    H244415   0.856   6.502   1.239  0.9763 -0.6462 -2.2912
 7642TIP3   OH244416   6.104   1.359   0.165 -0.0014 -0.2283 -0.3549
 7642TIP3    H144417   6.184   1.409   0.178 -0.8127  1.1426 -0.4553
 7642TIP3    H244418   6.035   1.425   0.157 -1.2112 -1.3821  0.1528
 7643TIP3   OH244419   3.110   6.109  15.290 -0.3220  0.3823  1.0379
 7643TIP3    H144420   3.041   6.168  15.260  0.3164 -0.1181 -1.7794
 7643TIP3    H244421   3.191   6.159  15.276  0.1416 -0.6493 -0.2467
 7644TIP3   OH244422   0.746   3.218   3.548  0.0344  0.2119  0.0862
 7644TIP3    H144423   0.823   3.240   3.601  1.1225  0.0644 -1.3946
 7644TIP3    H244424   0.756   3.269   3.468 -1.1256 -0.2504 -0.3702
 7645TIP3   OH244425   0.694   0.036  16.838 -0.5981  0.0917 -0.5050
 7645TIP3    H144426   0.692  -0.059  16.824 -0.4697  0.1382 -0.8748
 7645TIP3    H244427   0.784   0.061  16.815  0.0321  0.0127  1.6690
 7646TIP3   OH244428   5.288   4.169  12.912  1.0998  1.2481  0.5823
 7646TIP3    H144429   5.270   4.097  12.852 -1.4649  1.2028  1.3179
 7646TIP3    H244430   5.383   4.167  12.923  1.1896 -1.5473  0.0060
 7647TIP3   OH244431   3.350   5.769  14.601  0.3843  0.2100  0.5129
 7647TIP3    H144432   3.370   5.784  14.509  0.0503  0.0392  0.4153
 7647TIP3    H244433   3.308   5.684  14.604  1.5482 -0.3739  0.9807
 7648TIP3   OH244434   3.490   1.650   2.261  0.7015 -0.4900 -0.2668
 7648TIP3    H144435   3.522   1.667   2.172  1.2802 -1.1895 -0.1999
 7648TIP3    H244436   3.421   1.715   2.274 -0.4121 -1.2990 -1.7579
 7649TIP3   OH244437   0.652   5.655   5.283  0.0731  0.0993  0.6082
 7649TIP3    H144438   0.701   5.604   5.347 -1.6445 -0.4669  1.5553
 7649TIP3    H244439   0.589   5.704   5.336 -1.4651 -0.4656 -0.6288
 7650TIP3   OH244440   5.883   5.098   2.657 -0.1674  0.0996  0.2441
 7650TIP3    H144441   5.939   5.067   2.728 -0.6752  1.4716  1.2798
 7650TIP3    H244442   5.930   5.172   2.620 -0.7214  0.5096  0.3424
 7651TIP3   OH244443   4.002   5.285  14.067 -1.0194  0.1392 -0.1712
 7651TIP3    H144444   4.084   5.321  14.035 -1.1602  0.0663 -0.6202
 7651TIP3    H244445   3.935   5.322  14.009 -1.2177 -0.4517 -0.3286
 7652TIP3   OH244446   2.158   4.950   4.050 -0.1603  0.4663 -0.5749
 7652TIP3    H144447   2.156   4.870   4.104 -1.8846 -0.8375 -2.4137
 7652TIP3    H244448   2.242   4.946   4.006  0.0783  0.0514 -0.1028
 7653TIP3   OH244449   2.825   0.590   3.870  0.1987  0.5954 -0.1983
 7653TIP3    H144450   2.812   0.650   3.796  0.1990 -0.7714 -1.3416
 7653TIP3    H244451   2.741   0.592   3.917 -0.6867 -0.3949 -1.6661
 7654TIP3   OH244452   5.739   1.395   5.260 -0.1076 -0.0503 -0.3357
 7654TIP3    H144453   5.811   1.399   5.323 -0.7057  0.7823  0.3097
 7654TIP3    H244454   5.701   1.307   5.272  0.4594 -0.2939 -0.3058
 7655TIP3   OH244455   2.943   2.792  12.470 -0.2947  0.1830  0.5516
 7655TIP3    H144456   2.962   2.760  12.559  0.7666  2.4995  1.2290
 7655TIP3    H244457   2.892   2.721  12.430 -2.4310 -0.2394  3.6016
 7656TIP3   OH244458   3.720   3.344   3.836  0.0459 -0.3654 -0.0735
 7656TIP3    H144459   3.764   3.387   3.762  0.9783 -2.8095 -1.0492
 7656TIP3    H244460   3.787   3.340   3.904 -0.5935  1.2470  0.6863
 7657TIP3   OH244461   0.801   5.863   2.786  0.0474 -0.5525  0.3437
 7657TIP3    H144462   0.731   5.807   2.821  0.1484 -0.2593  1.0256
 7657TIP3    H244463   0.781   5.950   2.819 -0.1674 -0.1450 -0.7981
 7658TIP3   OH244464   1.075   2.693   4.599 -0.2300 -0.3771  0.4759
 7658TIP3    H144465   0.983   2.665   4.600  0.1718 -2.1948  4.0581
 7658TIP3    H244466   1.081   2.758   4.670  1.3703 -0.8335  0.7928
 7659TIP3   OH244467   4.748   1.498   4.616  0.6135 -0.0467  0.9444
 7659TIP3    H144468   4.842   1.486   4.629  0.5515 -0.2510  1.2278
 7659TIP3    H244469   4.741   1.548   4.535  0.9743  0.1262  1.0159
 7660TIP3   OH244470   6.506   1.800  12.896  0.4026 -0.0079  0.1214
 7660TIP3    H144471   6.555   1.856  12.956 -0.9607  0.3908  0.8915
 7660TIP3    H244472   6.542   1.821  12.809  1.8191  0.0087  0.6945
 7661TIP3   OH244473   4.481   3.648   0.831 -0.1758 -0.4866 -1.1068
 7661TIP3    H144474   4.520   3.692   0.755 -0.1396  0.7455 -0.3923
 7661TIP3    H244475   4.523   3.689   0.907 -1.9015 -0.0274 -0.3511
 7662TIP3   OH244476   5.075   6.718  11.263 -0.7617 -0.1641 -0.6342
 7662TIP3    H144477   5.108   6.631  11.241  3.3139  0.9423  0.2109
 7662TIP3    H244478   5.111   6.775  11.195 -1.7880  1.1445 -0.1324
 7663TIP3   OH244479   0.260   5.340   5.943 -0.0306  0.1475 -0.2862
 7663TIP3    H144480   0.337   5.303   5.988  0.6916  0.0254 -1.5694
 7663TIP3    H244481   0.245   5.424   5.987  0.3062 -0.2117  0.5366
 7664TIP3   OH244482   0.831   4.254  11.416  0.6237  0.4487 -0.2229
 7664TIP3    H144483   0.880   4.175  11.439  0.3343 -0.1588 -1.5800
 7664TIP3    H244484   0.873   4.284  11.335 -0.6086  0.4655 -0.8706
 7665TIP3   OH244485   0.121   4.802   2.099  0.8702  0.0118 -0.1103
 7665TIP3    H144486   0.031   4.822   2.124  0.2785 -1.0319 -1.2779
 7665TIP3    H244487   0.139   4.858   2.024  0.9756 -0.2133 -0.2558
 7666TIP3   OH244488   6.507   5.355   5.174  0.3685 -0.0989  0.5814
 7666TIP3    H144489   6.597   5.377   5.152  0.8240 -0.6699  1.7922
 7666TIP3    H244490   6.512   5.316   5.262 -1.0147 -0.3935  0.5573
 7667TIP3   OH244491   0.030   4.857   1.160  0.4967 -0.5342  0.7163
 7667TIP3    H144492   0.112   4.840   1.207  0.3563 -1.7939  0.5602
 7667TIP3    H244493   0.056   4.859   1.068  0.4506 -0.2845  0.7099
 7668TIP3   OH244494   5.254   2.807   4.161 -0.0081  1.2127 -0.2735
 7668TIP3    H144495   5.234   2.719   4.128  1.1957  1.1582 -0.9173
 7668TIP3    H244496   5.236   2.865   4.088  0.5572  1.3369 -0.3220
 7669TIP3   OH244497   3.129   6.087   6.090 -0.9753  0.0563 -0.1370
 7669TIP3    H144498   3.152   6.113   6.001 -2.2053  0.6860 -0.2998
 7669TIP3    H244499   3.211   6.060   6.130  0.1261  2.6690 -0.4739
 7670TIP3   OH244500   3.661   0.851  15.365  0.2051  0.0663  0.0843
 7670TIP3    H144501   3.572   0.864  15.397 -0.0452 -0.3753 -0.4197
 7670TIP3    H244502   3.652   0.839  15.271  0.8240  0.2686 -0.0055
 7671TIP3   OH244503   4.116   5.981  14.603  0.1380 -1.0179 -0.3508
 7671TIP3    H144504   4.116   5.983  14.507  0.7789 -0.2682 -0.3518
 7671TIP3    H244505   4.033   6.020  14.628 -0.5140 -2.2109 -0.5966
 7672TIP3   OH244506   4.599   0.115   0.711  0.3717 -0.4718 -0.2698
 7672TIP3    H144507   4.506   0.099   0.691 -0.0931  0.6680  0.8516
 7672TIP3    H244508   4.642   0.031   0.692 -1.1332 -1.5119  0.6564
 7673TIP3   OH244509   4.675   3.239   0.641  0.4340  0.0696  0.3320
 7673TIP3    H144510   4.671   3.318   0.695  0.1484  0.4724 -0.2681
 7673TIP3    H244511   4.760   3.243   0.598 -0.1133  0.7432 -0.7196
 7674TIP3   OH244512   6.088   3.885  14.067  0.0195  0.0677 -0.1881
 7674TIP3    H144513   6.010   3.830  14.062  0.4107 -0.4945 -0.1836
 7674TIP3    H244514   6.057   3.968  14.102 -0.4632 -0.3667  0.4292
 7675TIP3   OH244515   2.075   2.671  10.363 -0.0176 -0.1585  0.2036
 7675TIP3    H144516   2.042   2.759  10.379  1.4854  0.7069 -1.1602
 7675TIP3    H244517   2.005   2.627  10.316  0.2904  1.3414 -1.8228
 7676TIP3   OH244518   3.247   1.636  15.132 -0.1580  0.3996  0.3780
 7676TIP3    H144519   3.191   1.562  15.153  0.5338  0.3394  2.1669
 7676TIP3    H244520   3.257   1.683  15.215  2.4516  0.3751  0.1485
 7677TIP3   OH244521   5.865   5.490  14.235  0.5251  0.4713  0.0818
 7677TIP3    H144522   5.816   5.420  14.278 -0.9768  0.8656 -0.8963
 7677TIP3    H244523   5.954   5.456  14.226  0.1432 -0.7633  0.8361
 7678TIP3   OH244524   5.934   2.344   4.400  0.1857  0.6156  0.3214
 7678TIP3    H144525   5.923   2.438   4.418  0.2075  0.5386  0.7462
 7678TIP3    H244526   5.896   2.332   4.313  0.6932  1.1211  0.0248
 7679TIP3   OH244527   6.625   5.261   2.197 -0.0177  0.0340  0.5484
 7679TIP3    H144528   6.581   5.310   2.127  2.0505 -1.3156 -1.8874
 7679TIP3    H244529   6.588   5.173   2.191  1.5799 -0.6241 -0.2938
 7680TIP3   OH244530   6.620   6.141   2.711 -0.2128 -0.0036  0.3921
 7680TIP3    H144531   6.596   6.217   2.765  0.6733 -1.1318  2.4588
 7680TIP3    H244532   6.708   6.161   2.680  0.1427 -0.3030  1.1898
 7681TIP3   OH244533   6.174   1.448   3.066  0.0835  0.1797  0.1695
 7681TIP3    H144534   6.211   1.476   3.150  0.2434 -1.0225  0.5122
 7681TIP3    H244535   6.168   1.529   3.014 -2.1343  1.3964  2.1015
 7682TIP3   OH244536   4.726   1.606  13.714 -0.6040 -0.1365  0.9932
 7682TIP3    H144537   4.740   1.697  13.740  0.3046 -0.2499  0.9396
 7682TIP3    H244538   4.777   1.555  13.776 -0.1357 -0.5300  0.3001
 7683TIP3   OH244539   2.684   5.918  13.539 -0.2861 -0.0403  0.5257
 7683TIP3    H144540   2.658   5.826  13.535 -1.7653  0.3649  0.2431
 7683TIP3    H244541   2.763   5.922  13.486 -0.2661 -1.1173  0.4373
 7684TIP3   OH244542   6.760   1.291  11.363 -0.5076 -0.5396  0.4414
 7684TIP3    H144543   6.671   1.320  11.342 -0.1539 -0.2949 -0.7581
 7684TIP3    H244544   6.752   1.196  11.376 -0.7008 -0.7681 -1.1564
 7685TIP3   OH244545   6.198   5.132   1.640 -0.2286 -0.2012 -0.1490
 7685TIP3    H144546   6.200   5.147   1.545 -1.4524 -1.4431 -0.4192
 7685TIP3    H244547   6.252   5.054   1.653  1.0664  0.7468  0.3937
 7686TIP3   OH244548   6.544   1.021   0.058 -0.0568 -0.1332  0.7056
 7686TIP3    H144549   6.617   1.042   0.117  1.1312  0.9776 -1.0742
 7686TIP3    H244550   6.561   1.073  -0.021 -1.6454 -1.4797 -0.5897
 7687TIP3   OH244551   4.088   0.048  15.887 -0.6340 -0.1262 -0.3526
 7687TIP3    H144552   4.168   0.004  15.916 -0.6775 -0.1655 -0.2914
 7687TIP3    H244553   4.073   0.015  15.798  0.3689  1.1664 -1.0460
 7688TIP3   OH244554   2.849   0.017  10.679 -0.0250  0.0028  0.1243
 7688TIP3    H144555   2.856   0.012  10.583  0.8334  2.1621  0.0372
 7688TIP3    H244556   2.938   0.005  10.710 -0.0677  0.8017  0.5634
 7689TIP3   OH244557   4.431   0.309   4.563 -0.0259 -0.2462 -0.3001
 7689TIP3    H144558   4.454   0.226   4.604  1.2075 -0.1343 -0.7311
 7689TIP3    H244559   4.390   0.285   4.480 -2.2618 -0.4658  0.7769
 7690TIP3   OH244560   5.931   6.623   2.594 -0.3269  1.1252  0.4021
 7690TIP3    H144561   5.935   6.711   2.632  0.1821  0.9192  0.8414
 7690TIP3    H244562   5.927   6.565   2.670  0.7914  0.6972  0.1489
 7691TIP3   OH244563   2.309   6.406  15.782 -0.0598  0.1025 -0.1338
 7691TIP3    H144564   2.339   6.356  15.706  0.4657  0.7600 -0.3723
 7691TIP3    H244565   2.259   6.344  15.834  2.0144 -1.1631  0.4500
 7692TIP3   OH244566   5.178   3.325   1.621 -0.1068  0.1029  0.2023
 7692TIP3    H144567   5.093   3.297   1.587  0.1294  0.5810 -0.8276
 7692TIP3    H244568   5.160   3.409   1.664 -0.0311  0.6007 -0.7158
 7693TIP3   OH244569   3.355   4.737  12.460  0.6423  0.1655 -0.5902
 7693TIP3    H144570   3.319   4.717  12.373  0.2921 -0.0451 -0.3970
 7693TIP3    H244571   3.278   4.757  12.514  0.9618  3.8887 -1.2032
 7694TIP3   OH244572   0.500   0.557  12.602 -0.0461 -0.1382  0.1197
 7694TIP3    H144573   0.489   0.648  12.628 -2.3201 -0.5854  0.9652
 7694TIP3    H244574   0.430   0.510  12.647  0.7955 -2.2573 -0.6233
 7695TIP3   OH244575   1.938   2.592  16.430  0.6474 -0.2537  0.3597
 7695TIP3    H144576   1.934   2.610  16.336  0.2117  1.5949  0.6909
 7695TIP3    H244577   2.028   2.613  16.455  0.3573  0.7645  0.6025
 7696TIP3   OH244578   0.448   0.419   4.949 -0.4027  0.2342  0.1895
 7696TIP3    H144579   0.372   0.474   4.965 -1.0297 -0.4354 -0.4600
 7696TIP3    H244580   0.414   0.340   4.908  0.8198  0.6889 -1.8467
 7697TIP3   OH244581   1.729   4.706  15.202  0.1870 -0.1653  0.2496
 7697TIP3    H144582   1.813   4.733  15.238  1.5665 -1.1351 -2.0680
 7697TIP3    H244583   1.689   4.787  15.171  0.6974  0.1762  0.4736
 7698TIP3   OH244584   5.573   1.937   0.937 -0.1247 -0.3530  0.0484
 7698TIP3    H144585   5.622   2.017   0.918 -0.3719 -0.0375  0.6889
 7698TIP3    H244586   5.640   1.870   0.947  0.4096  0.4434  2.8379
 7699TIP3   OH244587   5.021   0.850   2.874  0.4756 -0.4705  0.2983
 7699TIP3    H144588   4.960   0.779   2.896 -0.5912  0.2352 -0.3103
 7699TIP3    H244589   5.067   0.819   2.796 -2.7141  0.9686 -2.3775
 7700TIP3   OH244590   3.814   4.887   4.762 -0.1245  0.2294  0.4974
 7700TIP3    H144591   3.749   4.879   4.832  1.1090 -0.7784  1.5754
 7700TIP3    H244592   3.898   4.877   4.806  0.6560 -3.4525 -1.4536
 7701TIP3   OH244593   2.119   0.247  13.673 -0.3497 -0.0704  0.2190
 7701TIP3    H144594   2.094   0.323  13.726  2.2114  0.5303  0.6770
 7701TIP3    H244595   2.104   0.173  13.731 -0.8560  0.2515  0.5173
 7702TIP3   OH244596   5.618   5.674   1.487  0.2866  0.2689  0.1379
 7702TIP3    H144597   5.538   5.696   1.535 -1.3269  0.3384 -2.4139
 7702TIP3    H244598   5.591   5.668   1.396  3.2996  0.7542 -0.9153
 7703TIP3   OH244599   1.254   3.971   2.011 -0.3697 -0.4979 -0.2163
 7703TIP3    H144600   1.311   4.048   2.012 -0.0111 -0.7584  0.1606
 7703TIP3    H244601   1.298   3.909   2.069 -1.0049 -0.7322  0.0254
 7704TIP3   OH244602   5.716   0.342  16.197 -0.4884  0.9357  0.3416
 7704TIP3    H144603   5.745   0.335  16.106 -1.5239  1.1034 -0.0162
 7704TIP3    H244604   5.791   0.314  16.249 -0.1827 -0.0208 -0.5911
 7705TIP3   OH244605   0.496   6.434   3.937 -0.0100 -0.4130 -0.4068
 7705TIP3    H144606   0.515   6.398   3.850 -1.3182 -1.1978 -0.4025
 7705TIP3    H244607   0.410   6.476   3.927  0.6388  1.0889  0.0703
 7706TIP3   OH244608   5.727   4.572   3.721  0.1056 -0.5033 -0.2257
 7706TIP3    H144609   5.722   4.480   3.748  0.9310 -0.8581 -1.2158
 7706TIP3    H244610   5.735   4.569   3.626  3.8492  0.3803 -0.1080
 7707TIP3   OH244611   6.096   5.885   5.122  0.6911 -0.0166  0.6291
 7707TIP3    H144612   6.023   5.935   5.159  0.0284 -1.1557  0.9100
 7707TIP3    H244613   6.165   5.950   5.108 -0.6723  1.2696 -0.4805
 7708TIP3   OH244614   0.583   0.953   5.090  0.9200  0.1450  0.1181
 7708TIP3    H144615   0.570   0.971   4.997 -1.4049 -0.5071  0.2540
 7708TIP3    H244616   0.630   0.870   5.092 -2.2075 -1.8295 -0.6010
 7709TIP3   OH244617   2.469   5.330  15.504 -0.5449  0.2549 -0.5561
 7709TIP3    H144618   2.448   5.246  15.462  0.8779 -0.4469  0.0652
 7709TIP3    H244619   2.486   5.307  15.595 -0.7011  1.3286 -0.2481
 7710TIP3   OH244620   2.846   1.286   3.144  0.1752 -0.6018 -0.2376
 7710TIP3    H144621   2.900   1.246   3.212  0.3864 -2.1412 -1.2745
 7710TIP3    H244622   2.756   1.263   3.168  0.1913 -0.5074 -0.0854
 7711TIP3   OH244623   2.753   3.883   5.129  0.0492 -0.0157 -0.2461
 7711TIP3    H144624   2.696   3.872   5.053 -1.4528 -0.8055  0.9360
 7711TIP3    H244625   2.718   3.821   5.194  1.0580  0.8891  1.2178
 7712TIP3   OH244626   0.762   6.635  15.146 -1.0746  0.2792 -0.2637
 7712TIP3    H144627   0.705   6.622  15.222 -0.2255  1.7037  0.6859
 7712TIP3    H244628   0.798   6.548  15.128 -1.3660 -0.1124  0.9205
 7713TIP3   OH244629   0.096   6.381   2.174 -0.1536  0.5925 -0.3593
 7713TIP3    H144630   0.005   6.398   2.152 -1.0543 -3.4764 -0.5190
 7713TIP3    H244631   0.101   6.394   2.269  0.0437  3.8643 -0.7005
 7714TIP3   OH244632   0.351   6.029   0.089 -0.6235  0.2377 -0.1489
 7714TIP3    H144633   0.390   6.049   0.175 -2.4173 -1.2128  1.0658
 7714TIP3    H244634   0.421   5.985   0.041  0.2447  0.5760  0.7582
 7715TIP3   OH244635   0.347   0.894  14.573 -0.7333 -0.4823 -0.1903
 7715TIP3    H144636   0.334   0.976  14.525 -2.1144 -0.7926 -0.3939
 7715TIP3    H244637   0.403   0.918  14.647 -1.0399  0.6207 -0.3026
 7716TIP3   OH244638   1.903   4.991  11.155 -0.2422 -0.8041 -0.6970
 7716TIP3    H144639   1.837   4.924  11.174  0.2123 -1.0317  0.1620
 7716TIP3    H244640   1.859   5.074  11.175  0.4935 -1.0585  2.5120
 7717TIP3   OH244641   4.365   1.792   5.147  0.1648 -0.1861 -0.4310
 7717TIP3    H144642   4.427   1.847   5.195 -0.6729  0.4778 -0.0873
 7717TIP3    H244643   4.316   1.746   5.214 -1.6827  1.4768 -0.5474
 7718TIP3   OH244644   4.294   5.821   4.452  0.2008  0.1224  0.8085
 7718TIP3    H144645   4.349   5.864   4.517 -1.2243 -0.0877  2.2151
 7718TIP3    H244646   4.292   5.729   4.480  0.9341 -0.3283 -0.5341
 7719TIP3   OH244647   0.362   3.199   5.153  0.5422 -0.0179 -0.1631
 7719TIP3    H144648   0.414   3.119   5.143 -1.0091 -0.9668 -0.9342
 7719TIP3    H244649   0.364   3.217   5.247  2.1464 -0.0736 -0.1474
 7720TIP3   OH244650   0.520   2.567  13.006 -0.5117 -0.4778  0.3997
 7720TIP3    H144651   0.557   2.564  12.918 -1.5802 -1.2278 -0.0503
 7720TIP3    H244652   0.558   2.492  13.051  0.0518 -0.0818  0.6080
 7721TIP3   OH244653   1.535   1.129   6.069  0.0607  0.5304  0.1833
 7721TIP3    H144654   1.622   1.091   6.055 -0.1833 -0.2371  0.6768
 7721TIP3    H244655   1.543   1.219   6.038 -0.0615 -0.5957 -3.5573
 7722TIP3   OH244656   0.320   1.077   1.767  0.2731  0.2706  0.7349
 7722TIP3    H144657   0.391   1.139   1.747 -0.3915  0.5749 -0.8275
 7722TIP3    H244658   0.352   0.993   1.734 -0.7636  0.7449 -1.6690
 7723TIP3   OH244659   6.384   6.405  16.308  0.3297  0.6137  0.1129
 7723TIP3    H144660   6.303   6.445  16.279 -0.3958  1.5163  3.0274
 7723TIP3    H244661   6.449   6.430  16.242 -1.6788 -0.2490 -2.3711
 7724TIP3   OH244662   1.043   3.711   2.774 -0.2562 -0.4088 -0.7133
 7724TIP3    H144663   0.977   3.688   2.839  0.7872  0.5700  0.7693
 7724TIP3    H244664   1.119   3.658   2.798 -0.5011 -1.6504 -2.4970
 7725TIP3   OH244665   2.410   2.819   4.814 -0.3315 -0.1697 -0.0298
 7725TIP3    H144666   2.337   2.763   4.787 -2.0240  0.9767  1.9557
 7725TIP3    H244667   2.438   2.861   4.733 -0.4364 -2.1712 -1.1910
 7726TIP3   OH244668   3.928   3.158   5.103  0.1263 -0.0105 -0.2071
 7726TIP3    H144669   3.902   3.071   5.070 -0.4359 -0.1478  0.5750
 7726TIP3    H244670   3.906   3.156   5.196 -0.2987  1.1326 -0.2685
 7727TIP3   OH244671   0.189   1.697  11.843  0.5740 -0.2931 -0.5120
 7727TIP3    H144672   0.284   1.701  11.850  0.5267 -0.2791  0.2387
 7727TIP3    H244673   0.167   1.609  11.873  0.2536  0.1755  0.6763
 7728TIP3   OH244674   5.998   3.751  16.608  0.1687 -0.0271  0.4107
 7728TIP3    H144675   6.079   3.700  16.601 -0.2347 -0.7019  0.6114
 7728TIP3    H244676   6.028   3.842  16.619  0.9152 -0.3761  1.3913
 7729TIP3   OH244677   5.914   5.813   4.532 -0.0750 -0.4313 -0.1064
 7729TIP3    H144678   5.899   5.720   4.512 -1.4706 -0.6716  1.7994
 7729TIP3    H244679   5.884   5.823   4.622  1.3654  1.5946  0.2032
 7730TIP3   OH244680   3.922   3.587   5.538  0.0312  0.2726  0.4188
 7730TIP3    H144681   3.851   3.524   5.533 -0.1449  0.4035  1.1850
 7730TIP3    H244682   3.879   3.670   5.558  0.2146  0.7391 -1.0025
 7731TIP3   OH244683   3.252   4.476  14.081  0.0670 -0.6787  0.6678
 7731TIP3    H144684   3.281   4.565  14.061 -0.8063 -0.6082 -0.4037
 7731TIP3    H244685   3.194   4.453  14.008  0.6727 -2.3160  0.6587
 7732TIP3   OH244686   4.244   1.309  15.027  0.2041 -0.3404 -0.6298
 7732TIP3    H144687   4.302   1.324  15.102  3.5795 -0.6554 -2.9788
 7732TIP3    H244688   4.259   1.218  15.002 -3.3579 -1.3097  0.1083
 7733TIP3   OH244689   5.866   6.444  14.360  0.1894 -0.6496  0.6672
 7733TIP3    H144690   5.890   6.502  14.432 -0.7015  1.0682 -0.3602
 7733TIP3    H244691   5.827   6.368  14.403  1.2699 -0.4573  2.0483
 7734TIP3   OH244692   2.005   0.533   5.772 -0.0840 -0.1794 -0.1425
 7734TIP3    H144693   1.989   0.623   5.745 -0.6804 -0.1626  0.2499
 7734TIP3    H244694   1.978   0.530   5.864  0.6342 -0.5750  0.0620
 7735TIP3   OH244695   2.701   5.434   4.710 -0.0172  0.1275  0.4586
 7735TIP3    H144696   2.690   5.340   4.726  1.1287 -0.1506 -0.2737
 7735TIP3    H244697   2.727   5.470   4.795  0.1906 -0.3297  0.5939
 7736TIP3   OH244698   5.067   2.701   4.927 -0.0849 -0.2230 -0.2933
 7736TIP3    H144699   5.120   2.623   4.911  0.3505 -0.0454  0.2703
 7736TIP3    H244700   5.117   2.772   4.888  0.0597 -0.0624  0.1866
 7737TIP3   OH244701   3.619   2.547  16.669  0.1752 -0.2874  0.1308
 7737TIP3    H144702   3.601   2.620  16.609  0.1511  1.8549  2.5604
 7737TIP3    H244703   3.695   2.503  16.631 -0.5344  0.2377 -2.0342
 7738TIP3   OH244704   2.547   4.290  12.081 -0.0241 -0.0020 -0.2026
 7738TIP3    H144705   2.456   4.270  12.102  0.1451 -0.3848  0.1912
 7738TIP3    H244706   2.560   4.255  11.992 -0.7688  1.7015 -1.0264
 7739TIP3   OH244707   2.825   3.661   2.588  0.1570 -0.5879  0.3171
 7739TIP3    H144708   2.759   3.719   2.551 -0.2084 -0.9633  0.3821
 7739TIP3    H244709   2.779   3.579   2.606  0.6952 -0.9397  0.1277
 7740TIP3   OH244710   3.172   4.612  11.920  0.1015 -0.0969  0.1536
 7740TIP3    H144711   3.146   4.582  12.007  0.1237  1.0218  0.5627
 7740TIP3    H244712   3.092   4.605  11.868  0.1718 -1.0887  0.1631
 7741TIP3   OH244713   4.310   4.365  14.220  0.1858 -0.0566  0.2328
 7741TIP3    H144714   4.333   4.283  14.265  0.6694 -0.4697 -0.7458
 7741TIP3    H244715   4.254   4.338  14.148 -0.5207  0.5989  0.5195
 7742TIP3   OH244716   0.361   1.263  12.056  0.3187 -0.0161  0.1640
 7742TIP3    H144717   0.427   1.250  12.124 -0.5968 -1.4061  0.8334
 7742TIP3    H244718   0.305   1.333  12.089  1.1777  0.8837 -0.2211
 7743TIP3   OH244719   1.371   6.103  11.057 -0.3177 -0.1362  0.2100
 7743TIP3    H144720   1.291   6.120  11.007 -1.8059 -1.5007  2.0176
 7743TIP3    H244721   1.423   6.046  11.000 -0.1600  1.4503 -1.3423
 7744TIP3   OH244722   4.278   1.071   1.852 -0.5379 -0.2252  0.3317
 7744TIP3    H144723   4.220   1.022   1.793 -0.4693 -0.5818  0.5570
 7744TIP3    H244724   4.339   1.116   1.793 -0.9400  0.0249  0.1008
 7745TIP3   OH244725   2.501   1.876  15.665  0.2443 -0.1018 -0.5137
 7745TIP3    H144726   2.483   1.931  15.742  0.7041 -0.2039 -0.3257
 7745TIP3    H244727   2.525   1.938  15.596  1.9425 -0.1017  0.0286
 7746TIP3   OH244728   5.056   4.186  13.568  0.3861 -0.7015  0.2235
 7746TIP3    H144729   5.065   4.251  13.638  1.0613 -1.1145  0.5313
 7746TIP3    H244730   5.096   4.227  13.492 -0.3642 -0.2442  0.0696
 7747TIP3   OH244731   3.282   0.426  11.327  0.1695 -0.2509  0.6114
 7747TIP3    H144732   3.196   0.420  11.285  0.4389  0.2766 -0.0484
 7747TIP3    H244733   3.284   0.513  11.367 -0.9046 -1.5104  3.6594
 7748TIP3   OH244734   6.567   2.263  11.767 -0.1657  0.0452  0.0021
 7748TIP3    H144735   6.638   2.218  11.721 -0.9675 -0.4981 -0.7307
 7748TIP3    H244736   6.487   2.229  11.726 -0.9040 -0.3598  1.7053
 7749TIP3   OH244737   6.354   4.273   3.647 -0.1632  1.0516  0.2749
 7749TIP3    H144738   6.337   4.247   3.737 -0.6580  0.4265  0.0097
 7749TIP3    H244739   6.296   4.347   3.631 -2.4762 -0.7956 -0.4925
 7750TIP3   OH244740   5.016   5.687   3.145  0.6811 -0.8617  0.2485
 7750TIP3    H144741   4.937   5.731   3.179  0.4732 -0.4135 -0.7536
 7750TIP3    H244742   5.060   5.755   3.093  1.2275 -1.3786  0.0257
 7751TIP3   OH244743   6.555   3.623   0.322  0.3527  0.5992  0.1540
 7751TIP3    H144744   6.562   3.658   0.411  0.2639 -2.2108  1.3708
 7751TIP3    H244745   6.464   3.635   0.298  0.4845  1.8230  0.2180
 7752TIP3   OH244746   3.515   2.394   0.571  0.2292  0.2440  0.3479
 7752TIP3    H144747   3.459   2.455   0.619 -1.1991 -0.5618 -0.2361
 7752TIP3    H244748   3.454   2.337   0.524  1.5002 -1.6295  0.8582
 7753TIP3   OH244749   4.642   6.474  15.117 -0.5843 -0.1551 -0.3055
 7753TIP3    H144750   4.576   6.448  15.181 -0.6212 -0.3776 -0.4301
 7753TIP3    H244751   4.597   6.533  15.057 -0.6007 -0.0980 -0.2365
 7754TIP3   OH244752   4.063   1.134  14.889 -0.6420  0.5100 -0.1890
 7754TIP3    H144753   4.083   1.152  14.797 -0.1174  0.3708 -0.1053
 7754TIP3    H244754   4.086   1.216  14.934  1.0506 -0.0714  0.0911
 7755TIP3   OH244755   2.303   3.800   5.057  0.3879  0.0566  0.1422
 7755TIP3    H144756   2.297   3.824   4.965  0.8298  0.4673  0.2180
 7755TIP3    H244757   2.253   3.718   5.064  2.6966 -1.5459 -1.0358
 7756TIP3   OH244758   6.769   3.560   2.745 -0.0212 -0.1776  0.4574
 7756TIP3    H144759   6.813   3.640   2.774 -0.6704 -0.0003  0.9996
 7756TIP3    H244760   6.770   3.566   2.649 -0.5103  0.7503  0.4890
 7757TIP3   OH244761   0.934   6.016  11.937 -0.3388  0.2415  0.0513
 7757TIP3    H144762   0.872   5.952  11.902 -1.0181  1.6289 -1.4396
 7757TIP3    H244763   0.930   6.089  11.875  1.9511  0.8675  0.5330
 7758TIP3   OH244764   6.288   5.392  16.809 -0.5116  0.2634  0.2037
 7758TIP3    H144765   6.286   5.376  16.904 -0.9470 -0.4574  0.0810
 7758TIP3    H244766   6.341   5.471  16.799 -1.6105  1.1705  1.1750
 7759TIP3   OH244767   3.547   4.338  14.779 -0.3279  0.0068 -0.2349
 7759TIP3    H144768   3.493   4.265  14.810 -0.3342 -1.2852 -3.0157
 7759TIP3    H244769   3.486   4.397  14.736  0.0611  0.0882 -0.6873
 7760TIP3   OH244770   2.971   0.827   4.122  0.5642 -0.1806  0.8194
 7760TIP3    H144771   2.936   0.741   4.144  0.7919 -0.1718  1.2225
 7760TIP3    H244772   2.911   0.861   4.056 -0.0940 -0.2229  1.3956
 7761TIP3   OH244773   2.330   5.133   3.464  0.1477 -0.3124  0.0420
 7761TIP3    H144774   2.397   5.113   3.530 -0.8717 -0.3266  1.1099
 7761TIP3    H244775   2.376   5.127   3.380  1.4906 -0.2768  0.7455
 7762TIP3   OH244776   4.672   1.468  16.586  0.6233  0.0272  0.7243
 7762TIP3    H144777   4.611   1.458  16.512  1.8688 -3.8500 -0.0081
 7762TIP3    H244778   4.630   1.421  16.658  0.7457  1.2540  1.6181
 7763TIP3   OH244779   6.107   0.627  13.445  0.6914  0.0897 -0.5158
 7763TIP3    H144780   6.020   0.665  13.458  0.6023 -0.5183  0.7805
 7763TIP3    H244781   6.161   0.666  13.514  1.2240 -0.2278 -0.7446
 7764TIP3   OH244782   4.362   0.920  14.446  0.1850  0.9399  0.4076
 7764TIP3    H144783   4.339   0.967  14.526  0.5105  2.8524 -0.5652
 7764TIP3    H244784   4.394   0.835  14.477  0.6030  1.7303  2.3209
 7765TIP3   OH244785   3.508   2.971  13.022 -0.0589 -0.1855 -0.7356
 7765TIP3    H144786   3.482   2.948  13.111 -0.4415  2.1390 -0.1754
 7765TIP3    H244787   3.543   2.890  12.985  0.1124 -1.2134  1.5200
 7766TIP3   OH244788   6.461   1.074   5.334 -0.2567 -0.0118 -0.5586
 7766TIP3    H144789   6.525   1.032   5.275  0.4718 -1.4310  1.1464
 7766TIP3    H244790   6.457   1.015   5.409 -2.6735  0.7102 -0.0594
 7767TIP3   OH244791   5.695   1.176  13.887 -0.1053  0.6552 -0.2007
 7767TIP3    H144792   5.696   1.136  13.975 -1.2367  0.6468 -0.1758
 7767TIP3    H244793   5.787   1.179  13.861  0.0490 -2.2945 -0.3399
 7768TIP3   OH244794   2.263   0.528   2.601  0.3476 -0.3313  0.8654
 7768TIP3    H144795   2.279   0.434   2.611 -2.3501 -0.6962  2.8160
 7768TIP3    H244796   2.326   0.569   2.661  0.7049 -0.9593  0.9303
 7769TIP3   OH244797   6.530   1.351   0.264 -0.1625  0.3059 -0.6481
 7769TIP3    H144798   6.554   1.424   0.321  0.5633  0.7563 -1.4974
 7769TIP3    H244799   6.594   1.283   0.283  1.5746  1.3066 -2.5223
 7770TIP3   OH244800   0.722   6.811  13.734  0.4544  0.1344 -0.3180
 7770TIP3    H144801   0.720   6.726  13.691 -1.4531  1.2537 -2.7736
 7770TIP3    H244802   0.815   6.832  13.742  0.9327 -1.4554 -1.2286
 7771TIP3   OH244803   0.452   2.917  14.866 -0.8244  0.5787  0.2486
 7771TIP3    H144804   0.383   2.853  14.884  1.8782 -2.3674  0.9888
 7771TIP3    H244805   0.470   2.957  14.950 -1.5417  1.3210  0.0624
 7772TIP3   OH244806   0.052   3.877  12.127  0.3253  0.8063  0.0148
 7772TIP3    H144807   0.132   3.850  12.082 -0.9364  0.5610 -2.2019
 7772TIP3    H244808   0.010   3.938  12.067 -2.6516 -1.3919 -0.3858
 7773TIP3   OH244809   4.557   5.675  14.402 -0.0318 -0.3795  0.2924
 7773TIP3    H144810   4.613   5.599  14.417  1.2100  0.0175 -2.0057
 7773TIP3    H244811   4.512   5.688  14.486  1.2739 -2.3512  1.3715
 7774TIP3   OH244812   6.756   3.361  15.742 -0.2898  0.3824  0.3846
 7774TIP3    H144813   6.691   3.292  15.733 -2.5708  2.1532  2.0510
 7774TIP3    H244814   6.804   3.360  15.659  0.0824 -3.3529  0.4686
 7775TIP3   OH244815   3.984   5.101   4.016 -0.4078  0.4526 -0.0550
 7775TIP3    H144816   4.062   5.138   3.975  0.1548  0.5401  1.0460
 7775TIP3    H244817   3.915   5.165   3.998  0.0929  1.0498  0.1213
 7776TIP3   OH244818   0.713   0.394  12.383 -0.1204 -0.1975 -0.3088
 7776TIP3    H144819   0.802   0.364  12.363 -0.0078  0.9140 -1.5840
 7776TIP3    H244820   0.702   0.474  12.332 -0.8820  1.2454  1.9644
 7777TIP3   OH244821   0.947   3.850  12.735  0.3948 -0.0252 -0.5159
 7777TIP3    H144822   0.906   3.919  12.683  1.1184 -0.0644 -1.1549
 7777TIP3    H244823   0.927   3.874  12.826 -1.0485 -0.0611 -0.7935
 7778TIP3   OH244824   2.555   1.268  14.415 -0.0903  0.8370 -0.3027
 7778TIP3    H144825   2.463   1.260  14.388 -0.3828  3.0390 -0.1552
 7778TIP3    H244826   2.551   1.304  14.504  0.9099  1.3998 -0.4679
 7779TIP3   OH244827   4.576   2.292   5.002  0.6384  0.8139 -0.7913
 7779TIP3    H144828   4.563   2.386   5.016  0.4891  0.7515 -0.4996
 7779TIP3    H244829   4.667   2.285   4.971  0.5828  1.0714 -1.0136
 7780TIP3   OH244830   3.935   2.425   2.676 -0.6019 -0.1679  0.0527
 7780TIP3    H144831   3.927   2.507   2.627 -0.4045 -0.0289  0.2558
 7780TIP3    H244832   3.856   2.376   2.653  0.1491 -0.7106 -1.5340
 7781TIP3   OH244833   3.554   4.504   1.811  0.2248 -0.0312  0.0381
 7781TIP3    H144834   3.561   4.452   1.730 -1.1449 -1.2434  0.6414
 7781TIP3    H244835   3.481   4.464   1.858 -0.2309  1.8449  1.0209
 7782TIP3   OH244836   3.116   0.146  11.799  0.6970 -0.3383 -0.2049
 7782TIP3    H144837   3.050   0.216  11.799  1.5956  0.5382  0.2689
 7782TIP3    H244838   3.187   0.181  11.852  2.4866 -0.3424 -2.4315
 7783TIP3   OH244839   4.147   6.406   1.502  0.0882  0.2757  0.3814
 7783TIP3    H144840   4.154   6.481   1.560 -1.8338  2.5936 -2.1439
 7783TIP3    H244841   4.219   6.417   1.440  1.1754 -1.3192  1.2759
 7784TIP3   OH244842   0.875   0.422   2.204  0.4072 -0.0992  0.2350
 7784TIP3    H144843   0.830   0.498   2.165  1.5271  0.5517  0.1653
 7784TIP3    H244844   0.833   0.409   2.288  1.6293  2.0295  1.2534
 7785TIP3   OH244845   5.833   0.852  11.140  0.1271  0.5129  0.3994
 7785TIP3    H144846   5.748   0.830  11.103 -0.1101 -1.5897  2.0046
 7785TIP3    H244847   5.892   0.783  11.109  0.2919 -0.3434  2.4301
 7786TIP3   OH244848   3.786   6.149   1.717 -0.2181 -0.4379  0.4012
 7786TIP3    H144849   3.810   6.238   1.693 -1.7664 -0.1391 -0.1714
 7786TIP3    H244850   3.810   6.142   1.810  1.4284 -0.0039  0.0430
 7787TIP3   OH244851   4.203   1.710   3.493 -0.2270  0.1403  0.1255
 7787TIP3    H144852   4.282   1.720   3.546  0.3662  0.2395 -0.7477
 7787TIP3    H244853   4.141   1.774   3.529  0.8272  1.5487 -0.4823
 7788TIP3   OH244854   2.527   2.333   4.700 -0.5693  0.4098  0.3915
 7788TIP3    H144855   2.519   2.304   4.609 -2.1054  1.6485  0.1126
 7788TIP3    H244856   2.586   2.268   4.740 -1.4161 -1.2908 -0.9807
 7789TIP3   OH244857   0.301   3.287   3.678 -0.1932  0.3185 -0.1611
 7789TIP3    H144858   0.395   3.298   3.695  0.0362 -0.1724 -1.0322
 7789TIP3    H244859   0.281   3.200   3.713 -0.7631  1.1401  1.7015
 7790TIP3   OH244860   5.270   4.891   4.449  0.5310  0.1047  0.6967
 7790TIP3    H144861   5.215   4.943   4.506 -1.7745 -1.1139 -0.2768
 7790TIP3    H244862   5.231   4.804   4.451  1.1944 -0.3106 -1.6544
 7791TIP3   OH244863   2.079   2.286   0.594 -0.1675  0.2274  0.4800
 7791TIP3    H144864   2.009   2.222   0.612  0.1724  0.4751  2.9750
 7791TIP3    H244865   2.033   2.369   0.583 -0.3575  0.2204  1.1652
 7792TIP3   OH244866   3.463   6.653   4.994 -0.1811  0.5740 -0.4771
 7792TIP3    H144867   3.456   6.593   5.068 -1.3506 -0.1520 -1.1331
 7792TIP3    H244868   3.518   6.608   4.931 -0.6876  0.3717 -0.7846
 7793TIP3   OH244869   3.577   6.302  12.434  0.1827  0.1562 -0.3124
 7793TIP3    H144870   3.637   6.241  12.477 -0.2163 -1.2193 -1.6231
 7793TIP3    H244871   3.573   6.271  12.343 -2.1250  0.5126 -0.3781
 7794TIP3   OH244872   2.208   4.779   2.369  0.0834  0.2076 -0.3364
 7794TIP3    H144873   2.198   4.708   2.306 -0.6072 -1.3091  1.3898
 7794TIP3    H244874   2.299   4.773   2.397 -0.1696 -0.5281  0.3682
 7795TIP3   OH244875   1.939   2.602   4.611 -0.5950 -0.2777 -0.4642
 7795TIP3    H144876   1.847   2.576   4.610 -0.9781  0.9941 -0.4840
 7795TIP3    H244877   1.978   2.554   4.538 -1.6972  0.6395 -1.7186
 7796TIP3   OH244878   0.446   6.310   2.155  0.1506 -0.1419 -0.0644
 7796TIP3    H144879   0.376   6.293   2.092 -1.6581  0.9934  1.5390
 7796TIP3    H244880   0.486   6.391   2.125  0.8158 -0.7982 -0.9912
 7797TIP3   OH244881   0.592   0.308   0.931 -0.5199  0.8480 -0.0228
 7797TIP3    H144882   0.511   0.352   0.903 -0.4882  0.2128 -1.1592
 7797TIP3    H244883   0.608   0.342   1.019 -0.5885  2.9886 -0.7829
 7798TIP3   OH244884   6.608   4.382  11.216  0.0607  0.1139 -0.0875
 7798TIP3    H144885   6.581   4.426  11.136  1.2539 -1.1306 -1.2180
 7798TIP3    H244886   6.529   4.339  11.248 -0.1005 -0.5861 -1.4032
 7799TIP3   OH244887   3.084   2.069  11.558  0.0248 -0.0764  0.4443
 7799TIP3    H144888   3.098   2.035  11.470  1.2051  0.1847  0.5230
 7799TIP3    H244889   3.170   2.099  11.587 -0.6105  1.1546  1.1419
 7800TIP3   OH244890   6.129   2.359   4.797 -0.3791  0.2191  0.0554
 7800TIP3    H144891   6.104   2.357   4.705  0.4017 -2.1693 -0.1654
 7800TIP3    H244892   6.224   2.347   4.797 -0.2776  0.8553  1.1696
 7801TIP3   OH244893   2.074   2.184  12.259  0.2329 -0.3563 -0.5675
 7801TIP3    H144894   2.106   2.105  12.216  1.7452 -0.3463  0.4748
 7801TIP3    H244895   2.007   2.153  12.320  0.7946 -0.8397 -0.1899
 7802TIP3   OH244896   6.713   0.381   6.679 -0.2658 -0.0933 -0.4735
 7802TIP3    H144897   6.808   0.392   6.685 -0.5104  3.1354 -0.8836
 7802TIP3    H244898   6.690   0.415   6.593 -1.9460  0.8227  0.2857
 7803TIP3   OH244899   5.020   3.043  14.271  0.1866 -0.0664  0.3408
 7803TIP3    H144900   4.974   2.967  14.234 -0.2267  1.2035 -1.9712
 7803TIP3    H244901   5.090   3.061  14.207  0.8257  0.9825  1.3019
 7804TIP3   OH244902   0.104   3.346  11.936 -0.2653  0.5484  0.4139
 7804TIP3    H144903   0.164   3.279  11.970 -1.5646 -0.8386  0.0763
 7804TIP3    H244904   0.162   3.418  11.911  1.2879 -0.7131  0.1126
 7805TIP3   OH244905   3.896   3.207  12.123  0.4624  0.1242  0.0549
 7805TIP3    H144906   3.967   3.187  12.061 -0.1219  0.7956 -0.8612
 7805TIP3    H244907   3.833   3.136  12.111 -0.7242  1.3996 -1.8287
 7806TIP3   OH244908   5.493   5.603   4.061 -0.1906  0.4424 -0.2334
 7806TIP3    H144909   5.399   5.590   4.074 -0.2424  1.3925  0.3961
 7806TIP3    H244910   5.527   5.515   4.047 -0.9726 -0.0479  0.8450
 7807TIP3   OH244911   4.795   3.262  12.901 -0.2149  0.3012 -0.3890
 7807TIP3    H144912   4.826   3.173  12.919  1.2010  0.5819 -1.2806
 7807TIP3    H244913   4.812   3.276  12.808 -0.1413  1.5912 -0.2124
 7808TIP3   OH244914   6.787   4.744   4.200  0.9157  0.4276 -0.6431
 7808TIP3    H144915   6.837   4.691   4.137  2.0613  0.7795 -0.0509
 7808TIP3    H244916   6.724   4.683   4.237 -0.0657  0.2978 -2.4067
 7809TIP3   OH244917   0.044   3.897   2.137  0.1150  0.3263  0.2533
 7809TIP3    H144918   0.043   3.962   2.067  1.0938 -0.3184 -0.3815
 7809TIP3    H244919  -0.046   3.896   2.170 -0.3381  0.7386 -0.9044
 7810TIP3   OH244920   5.573   0.479   1.577  0.7014 -0.0118 -0.1214
 7810TIP3    H144921   5.484   0.460   1.605  0.2618 -1.2246 -2.1174
 7810TIP3    H244922   5.628   0.457   1.652 -0.4441 -2.2905  0.1346
 7811TIP3   OH244923   1.326   2.250  11.176 -0.2168  0.3557 -0.6865
 7811TIP3    H144924   1.267   2.325  11.168 -0.9207 -0.1488 -0.3495
 7811TIP3    H244925   1.351   2.230  11.085  1.1489  1.8841 -0.6825
 7812TIP3   OH244926   5.597   6.061  11.514 -0.2648  0.4794  0.0214
 7812TIP3    H144927   5.577   5.968  11.500 -0.2328  0.0788  2.2967
 7812TIP3    H244928   5.521   6.095  11.560  0.5870  1.0538  1.0516
 7813TIP3   OH244929   0.851   1.611   2.619  0.0230  0.5481  0.0599
 7813TIP3    H144930   0.801   1.683   2.657 -1.5508  0.4530 -1.7242
 7813TIP3    H244931   0.785   1.546   2.595  1.3904 -1.6123  1.7295
 7814TIP3   OH244932   2.798   1.113  15.880 -0.1221 -0.0743 -0.0716
 7814TIP3    H144933   2.801   1.029  15.926  1.3930 -0.0667 -0.1041
 7814TIP3    H244934   2.785   1.178  15.949  1.4921 -0.1190  0.3037
 7815TIP3   OH244935   0.028   2.449   6.089 -0.9240  0.2614 -0.6331
 7815TIP3    H144936   0.012   2.497   6.170 -0.6046 -0.7056  0.0128
 7815TIP3    H244937   0.114   2.480   6.060 -1.7114  1.7694 -1.4616
 7816TIP3   OH244938   2.562   1.230  12.215  0.3521  0.4239 -0.4185
 7816TIP3    H144939   2.561   1.321  12.186  2.0191  0.4392 -0.5118
 7816TIP3    H244940   2.599   1.182  12.142 -1.3171 -0.4975 -0.7074
 7817TIP3   OH244941   1.637   1.819   4.109  0.1195 -0.0484 -0.0751
 7817TIP3    H144942   1.593   1.783   4.033 -1.5989  1.7759 -0.0235
 7817TIP3    H244943   1.600   1.771   4.183 -0.1049 -0.0851 -0.2096
 7818TIP3   OH244944   3.884   5.257  15.139  0.3957 -0.0783  0.6761
 7818TIP3    H144945   3.954   5.237  15.076  0.3521  0.8863  0.3108
 7818TIP3    H244946   3.859   5.347  15.119 -2.8004 -1.1878 -0.9710
 7819TIP3   OH244947   0.322   0.024  14.066  0.0626 -0.3513 -0.3281
 7819TIP3    H144948   0.418   0.020  14.063  0.1093  0.6047 -0.5238
 7819TIP3    H244949   0.300  -0.007  14.154  0.4743 -1.5231 -0.6169
 7820TIP3   OH244950   0.763   3.628   1.388 -0.0358  0.1230  0.0982
 7820TIP3    H144951   0.752   3.598   1.478 -0.8043  0.4435  0.1172
 7820TIP3    H244952   0.694   3.583   1.339 -0.8630  1.4141  0.0309
 7821TIP3   OH244953   0.296   1.595  16.099  0.9933  0.5540  0.5641
 7821TIP3    H144954   0.281   1.534  16.171  0.6333  1.5548  1.3654
 7821TIP3    H244955   0.209   1.626  16.075  1.1995  1.1014  0.4970
 7822TIP3   OH244956   6.306   2.839   0.784  0.0333  0.0006  0.4527
 7822TIP3    H144957   6.375   2.842   0.718 -0.1875 -1.4910  0.1212
 7822TIP3    H244958   6.338   2.897   0.854  0.2722  1.5851 -0.9100
 7823TIP3   OH244959   4.549   6.567  13.752 -0.2476 -0.0383  0.2904
 7823TIP3    H144960   4.525   6.659  13.755 -0.5351 -0.0706 -0.6801
 7823TIP3    H244961   4.500   6.527  13.825 -0.2711  0.5345  0.5942
 7824TIP3   OH244962   2.425   0.985   1.407  0.2377  0.4706  0.2830
 7824TIP3    H144963   2.335   0.969   1.437  0.7845  0.6983  2.1754
 7824TIP3    H244964   2.442   1.077   1.428  1.1869  0.2021  0.7685
 7825TIP3   OH244965   0.888   0.061  12.238 -0.3068  0.4354 -0.3618
 7825TIP3    H144966   0.923  -0.020  12.203 -1.6783 -0.5448  0.4492
 7825TIP3    H244967   0.837   0.099  12.165  0.1973  0.4932 -0.6862
 7826TIP3   OH244968   4.632   2.634   3.091  0.3921 -0.2971 -0.1647
 7826TIP3    H144969   4.651   2.587   3.172 -1.1244  0.2126  0.5287
 7826TIP3    H244970   4.662   2.724   3.107  0.5076 -0.3050 -0.3345
 7827TIP3   OH244971   1.692   5.662   3.855 -0.2789  0.1164 -0.6009
 7827TIP3    H144972   1.719   5.616   3.775 -0.5153 -0.2705 -0.4631
 7827TIP3    H244973   1.596   5.658   3.854 -0.3154  0.9532 -0.7840
 7828TIP3   OH244974   6.785   3.227  14.023 -0.2899 -0.3546 -0.2174
 7828TIP3    H144975   6.691   3.236  14.012 -0.2104 -1.2706 -2.1111
 7828TIP3    H244976   6.797   3.138  14.055 -0.0400 -0.7012 -1.2127
 7829TIP3   OH244977   1.673   1.612   3.485 -0.6606 -0.1663  0.0870
 7829TIP3    H144978   1.648   1.607   3.392 -0.8319  1.2016  0.0438
 7829TIP3    H244979   1.758   1.655   3.485 -1.1371  0.8232  0.6033
 7830TIP3   OH244980   3.538   2.602  11.780  0.0766 -0.3170 -0.1240
 7830TIP3    H144981   3.468   2.570  11.837  0.5100  0.1226  0.6598
 7830TIP3    H244982   3.569   2.523  11.734 -1.6891 -0.3438 -1.3452
 7831TIP3   OH244983   1.571   6.487  12.496 -0.1662  0.4626  0.4408
 7831TIP3    H144984   1.624   6.424  12.449  1.3787  2.3035 -0.4372
 7831TIP3    H244985   1.619   6.501  12.578 -0.0877  1.0086  0.3063
 7832TIP3   OH244986   5.172   2.062  16.940 -0.2726  0.5389 -0.0130
 7832TIP3    H144987   5.131   1.984  16.903  1.3840 -0.3526 -0.0996
 7832TIP3    H244988   5.102   2.127  16.943 -1.6609 -0.8823 -0.1071
 7833TIP3   OH244989   5.113   4.210   6.593 -0.4282 -0.3559 -0.1738
 7833TIP3    H144990   5.029   4.240   6.557  0.0152  2.0396  0.5940
 7833TIP3    H244991   5.116   4.250   6.680  2.0394  0.6191 -0.6498
 7834TIP3   OH244992   0.123   4.582  13.508  0.4022 -0.1467 -0.3820
 7834TIP3    H144993   0.107   4.495  13.473  0.8739 -0.0064 -0.9452
 7834TIP3    H244994   0.105   4.573  13.602  0.9963 -0.9872 -0.3403
 7835TIP3   OH244995   6.732   5.653  16.364  0.1226 -0.1108  0.3091
 7835TIP3    H144996   6.747   5.558  16.364  0.3388 -0.0795  0.0103
 7835TIP3    H244997   6.811   5.689  16.405  1.7559  0.1662 -2.7254
 7836TIP3   OH244998   5.406   2.721  16.399 -0.2484 -0.1897 -0.3777
 7836TIP3    H144999   5.488   2.694  16.357 -0.8461 -1.5758 -0.7158
 7836TIP3    H245000   5.340   2.664  16.361 -0.9824 -0.8357  1.7164
 7837TIP3   OH245001   0.335   4.416   4.988  0.2923 -0.0859 -0.2749
 7837TIP3    H145002   0.347   4.382   4.899 -1.2515 -2.2202  0.2409
 7837TIP3    H245003   0.241   4.428   4.997  0.4491  0.3076  0.9884
 7838TIP3   OH245004   1.974   0.792   4.206  0.1064 -0.2680 -0.8433
 7838TIP3    H145005   2.037   0.752   4.267 -0.7634 -0.0892  0.2115
 7838TIP3    H245006   1.978   0.885   4.225 -0.5648 -0.2672 -0.6578
 7839TIP3   OH245007   6.628   0.320  10.809 -1.0295  0.2795 -0.1313
 7839TIP3    H145008   6.610   0.251  10.873 -0.8011  1.5200  1.3364
 7839TIP3    H245009   6.671   0.275  10.736  1.1525 -0.8489  1.7083
 7840TIP3   OH245010   5.695   3.480  17.104  0.3646 -0.0645 -0.4306
 7840TIP3    H145011   5.623   3.465  17.165 -0.1190 -1.2518 -1.2457
 7840TIP3    H245012   5.759   3.412  17.125  0.3351 -0.2824 -1.0168
 7841TIP3   OH245013   0.858   4.722   1.306 -0.0257 -0.2309 -0.2373
 7841TIP3    H145014   0.913   4.743   1.381  0.2345 -1.1606 -0.1583
 7841TIP3    H245015   0.802   4.799   1.294  0.8643  0.4656  0.0626
 7842TIP3   OH245016   0.487   5.144  12.468  0.3162 -0.3335 -0.1583
 7842TIP3    H145017   0.435   5.192  12.403  0.3131  0.9763  0.7630
 7842TIP3    H245018   0.520   5.212  12.526 -1.1278 -1.5474  2.2589
 7843TIP3   OH245019   2.188   1.295   2.825  0.1379  0.0141  0.3626
 7843TIP3    H145020   2.252   1.287   2.896 -0.7181 -1.4960  1.0057
 7843TIP3    H245021   2.196   1.214   2.775 -0.5957  0.2202 -0.1131
 7844TIP3   OH245022   3.903   0.311  14.469 -0.2332  0.1930 -0.1940
 7844TIP3    H145023   3.821   0.261  14.475 -0.8290  0.9538 -1.6386
 7844TIP3    H245024   3.969   0.244  14.449 -0.2990 -0.5644  1.9232
 7845TIP3   OH245025   3.652   4.483  12.586  0.3877  0.0300 -0.0423
 7845TIP3    H145026   3.600   4.550  12.629  1.8256 -0.1912  2.2186
 7845TIP3    H245027   3.625   4.401  12.627 -0.7462 -0.7441 -2.1714
 7846TIP3   OH245028   5.433   1.951   1.675  0.0588 -0.1972 -0.4304
 7846TIP3    H145029   5.400   1.862   1.671  0.3914 -0.3411 -0.0605
 7846TIP3    H245030   5.485   1.962   1.596 -1.1568  0.1567 -1.2124
 7847TIP3   OH245031   3.946   1.568  14.799  0.2970 -0.2867  0.2406
 7847TIP3    H145032   3.872   1.526  14.843  0.9426 -1.0662  0.6181
 7847TIP3    H245033   3.961   1.648  14.849  0.0066 -0.3670  0.4597
 7848TIP3   OH245034   3.350   3.070  16.242 -0.5606 -0.6227  0.3838
 7848TIP3    H145035   3.309   3.020  16.312  0.3848 -1.2906  0.4745
 7848TIP3    H245036   3.297   3.051  16.164  0.2368 -2.4157  0.2415
 7849TIP3   OH245037   0.548   2.277   1.589  0.0097  0.4319  0.2952
 7849TIP3    H145038   0.523   2.358   1.634 -0.8682 -0.0211  0.6327
 7849TIP3    H245039   0.597   2.227   1.654 -0.7483  0.0374  0.5708
 7850TIP3   OH245040   3.920   4.646   2.847  0.7010  0.1214 -0.1697
 7850TIP3    H145041   3.979   4.608   2.912 -1.2165 -1.5569  0.7095
 7850TIP3    H245042   3.894   4.571   2.792 -2.6986  0.1030  1.2133
 7851TIP3   OH245043   3.100   3.871  16.800  0.0640 -0.6669 -0.5270
 7851TIP3    H145044   3.032   3.821  16.755 -0.0349 -1.8037  0.7953
 7851TIP3    H245045   3.182   3.831  16.770  0.0852 -0.2227 -1.0650
 7852TIP3   OH245046   5.509   1.622   2.977 -0.0467 -0.1046 -0.1911
 7852TIP3    H145047   5.560   1.615   3.057 -1.3604  0.3592  0.7225
 7852TIP3    H245048   5.427   1.662   3.004 -1.1945 -1.4722 -1.4789
 7853TIP3   OH245049   2.317   2.880  14.568  0.0690  0.2979  0.6919
 7853TIP3    H145050   2.274   2.947  14.516 -2.0714 -0.8377  0.8569
 7853TIP3    H245051   2.401   2.865  14.525 -1.4696 -0.4112 -2.3385
 7854TIP3   OH245052   0.053   1.680   5.841 -0.3886 -0.3603 -0.1761
 7854TIP3    H145053  -0.002   1.615   5.886 -0.2350 -0.3949 -0.0402
 7854TIP3    H245054  -0.009   1.747   5.812 -0.3673  0.1579  0.9437
 7855TIP3   OH245055   6.252   2.110   1.990 -0.3092  0.5556  0.4082
 7855TIP3    H145056   6.217   2.200   1.981  1.3346  1.3117  1.2570
 7855TIP3    H245057   6.229   2.084   2.079 -1.8957 -0.4104 -0.2353
 7856TIP3   OH245058   4.630   2.578  16.068 -0.0398 -0.3342  0.0070
 7856TIP3    H145059   4.620   2.574  16.163 -2.1312  2.5289  0.0676
 7856TIP3    H245060   4.573   2.510  16.034  0.8636 -1.4941  0.7638
 7857TIP3   OH245061   5.041   0.626  13.899  0.0678  0.3692  0.4914
 7857TIP3    H145062   5.049   0.537  13.935  2.8172 -0.1358 -1.0700
 7857TIP3    H245063   4.978   0.616  13.827  1.6993 -0.8599 -0.8741
 7858TIP3   OH245064   6.091   1.807   4.831 -0.4662 -0.2076  0.5865
 7858TIP3    H145065   6.154   1.736   4.845 -0.2105 -0.3555 -1.1966
 7858TIP3    H245066   6.098   1.860   4.911  1.1063 -0.8210  0.9010
 7859TIP3   OH245067   0.291   0.790  11.236  0.0062  0.5320  0.1727
 7859TIP3    H145068   0.229   0.783  11.309 -1.2585  0.4288 -0.8755
 7859TIP3    H245069   0.331   0.876  11.247 -0.5563  0.7346  0.6894
 7860TIP3   OH245070   4.373   1.865   3.604 -0.4306  0.6634 -0.8761
 7860TIP3    H145071   4.369   1.961   3.607 -0.9393  0.9088 -4.3894
 7860TIP3    H245072   4.419   1.846   3.522  0.8259 -2.1750  0.3543
 7861TIP3   OH245073   1.886   1.520   4.961  0.1384  0.6863  0.1864
 7861TIP3    H145074   1.860   1.468   4.885  0.7983  0.3660  0.1730
 7861TIP3    H245075   1.825   1.495   5.030  0.2265  0.1616  0.0743
 7862TIP3   OH245076   4.931   6.732   0.818  0.3498 -0.3032  0.1749
 7862TIP3    H145077   4.885   6.816   0.811  0.4401 -0.2326  0.4172
 7862TIP3    H245078   4.957   6.727   0.910 -1.3621 -1.4956  0.6531
 7863TIP3   OH245079   6.092   1.414   2.411 -0.3890  0.0367 -0.5017
 7863TIP3    H145080   6.063   1.375   2.493  0.5653 -1.0189 -0.6433
 7863TIP3    H245081   6.029   1.484   2.394 -0.1478  0.8254  1.5480
 7864TIP3   OH245082   0.357   2.662  15.661  0.2019  0.4969  0.0837
 7864TIP3    H145083   0.322   2.663  15.572 -1.1795  1.8355  0.5990
 7864TIP3    H245084   0.429   2.726  15.660  1.2097 -0.5915 -0.4021
 7865TIP3   OH245085   5.228   4.485  13.560  0.1746 -0.8781  0.3077
 7865TIP3    H145086   5.143   4.483  13.604  0.6981 -0.1213  1.4092
 7865TIP3    H245087   5.212   4.444  13.475 -1.1731 -1.1941  0.6856
 7866TIP3   OH245088   3.783   0.225   0.030  0.3380  0.2456 -0.2566
 7866TIP3    H145089   3.816   0.145   0.070 -1.4389 -0.5357 -0.2460
 7866TIP3    H245090   3.840   0.294   0.063  0.5564 -0.7347  1.5268
 7867TIP3   OH245091   3.750   1.748   2.132  0.1844 -0.2451 -0.6108
 7867TIP3    H145092   3.800   1.828   2.147  3.0842 -1.9844 -0.0842
 7867TIP3    H245093   3.775   1.720   2.044 -1.2799 -0.2755 -1.0367
 7868TIP3   OH245094   5.860   6.332   1.136 -0.2659  0.2278  0.0118
 7868TIP3    H145095   5.800   6.396   1.174 -2.5986  0.2493 -3.2981
 7868TIP3    H245096   5.896   6.285   1.211 -1.7763  2.5168  2.3389
 7869TIP3   OH245097   5.017   1.016  16.765  0.5958  0.0525 -0.4665
 7869TIP3    H145098   4.971   1.024  16.681  0.2259 -1.0221 -0.3801
 7869TIP3    H245099   4.949   1.030  16.831  0.3191 -1.7103 -0.3369
 7870TIP3   OH245100   2.905   2.894   6.761  0.6160 -0.5077  0.2632
 7870TIP3    H145101   2.951   2.835   6.700 -0.8650 -0.9203 -0.4962
 7870TIP3    H245102   2.840   2.838   6.803 -0.9795  0.5978 -0.6302
 7871TIP3   OH245103   2.049   0.186  14.531  0.4068 -0.1335  0.1329
 7871TIP3    H145104   2.004   0.266  14.560 -0.2542 -0.7986  0.9924
 7871TIP3    H245105   2.069   0.140  14.612  1.1104 -0.6697 -0.3425
 7872TIP3   OH245106   5.639   4.448  12.369 -0.0028  0.2282  0.4571
 7872TIP3    H145107   5.652   4.528  12.318 -1.3660  0.0406 -0.2009
 7872TIP3    H245108   5.648   4.476  12.460 -0.6223  1.1583  0.2354
 7873TIP3   OH245109   3.571   1.955  14.111  0.4051  0.0085 -0.0301
 7873TIP3    H145110   3.492   1.904  14.127  0.3749  0.0892  0.0856
 7873TIP3    H245111   3.546   2.045  14.133  0.2046  0.2175 -1.0584
 7874TIP3   OH245112   3.379   6.184  15.901 -0.1467 -0.0932  0.6039
 7874TIP3    H145113   3.303   6.224  15.858  0.3831  1.1925  0.7977
 7874TIP3    H245114   3.352   6.095  15.921 -1.6891  0.4148  0.8773
 7875TIP3   OH245115   5.395   4.319   1.162  0.1927  0.7285  0.0540
 7875TIP3    H145116   5.403   4.231   1.125  1.5776  1.5789 -1.8787
 7875TIP3    H245117   5.457   4.320   1.234 -0.1178  0.0237  0.3463
 7876TIP3   OH245118   2.955   5.693   2.304 -0.2586 -0.6758 -0.3735
 7876TIP3    H145119   2.866   5.672   2.333 -1.0601 -1.7798 -3.2182
 7876TIP3    H245120   3.005   5.614   2.321 -0.6808 -1.2537 -1.6815
 7877TIP3   OH245121   6.152   0.823   3.772 -0.1539 -0.0289  0.0309
 7877TIP3    H145122   6.172   0.869   3.691  2.3517  1.4835  1.4014
 7877TIP3    H245123   6.182   0.733   3.757 -1.6356 -0.3460 -1.3577
 7878TIP3   OH245124   0.957   3.208  15.072  0.6997 -1.0134 -0.0574
 7878TIP3    H145125   0.954   3.300  15.048 -1.1317 -0.7404  1.0191
 7878TIP3    H245126   0.998   3.207  15.159 -2.6629 -0.7051  1.6711
 7879TIP3   OH245127   3.461   1.292   0.330  0.3044  0.3125  0.4495
 7879TIP3    H145128   3.421   1.250   0.406  1.3664 -1.1355  0.2517
 7879TIP3    H245129   3.486   1.379   0.360  0.2566 -0.0591  1.6123
 7880TIP3   OH245130   5.342   2.936  15.603 -0.1241 -0.5635 -0.9832
 7880TIP3    H145131   5.389   2.968  15.681 -1.7238 -1.0901  0.2491
 7880TIP3    H245132   5.371   2.994  15.533 -0.6448  1.7049  0.5597
 7881TIP3   OH245133   6.834   0.871   4.513 -0.3381 -0.1087  0.0606
 7881TIP3    H145134   6.810   0.781   4.534  1.9069 -0.2207  2.6626
 7881TIP3    H245135   6.775   0.925   4.566  0.1378 -0.1371  0.6193
 7882TIP3   OH245136   6.359   2.722   4.423  0.1461 -0.2584  0.2607
 7882TIP3    H145137   6.412   2.768   4.358  1.9569 -0.3180  1.6154
 7882TIP3    H245138   6.269   2.735   4.394  0.7691  1.5305 -1.0508
 7883TIP3   OH245139   2.528   0.207   1.649  0.2103 -0.3154  0.5437
 7883TIP3    H145140   2.509   0.116   1.627 -0.8357  0.3624 -1.5637
 7883TIP3    H245141   2.619   0.206   1.679  0.5701 -1.8890 -0.5059
 7884TIP3   OH245142   2.570   1.548   5.683  0.3948  0.8199  0.0162
 7884TIP3    H145143   2.521   1.629   5.698 -0.2034  0.7108 -1.1908
 7884TIP3    H245144   2.529   1.484   5.742 -0.0688  1.0499 -0.0460
 7885TIP3   OH245145   5.778   6.625   0.824  0.0430 -0.5615 -0.0717
 7885TIP3    H145146   5.770   6.705   0.772 -3.4455 -1.1054 -0.6277
 7885TIP3    H245147   5.815   6.654   0.908 -0.5454  1.5338 -0.4744
 7886TIP3   OH245148   1.012   1.324   4.982  0.2539 -0.5256 -0.2593
 7886TIP3    H145149   1.000   1.230   4.992 -0.1779 -0.4559 -0.1044
 7886TIP3    H245150   1.053   1.352   5.065  2.7903 -0.9634 -1.2747
 7887TIP3   OH245151   3.452   0.648  17.063  0.1487 -0.4323 -0.2793
 7887TIP3    H145152   3.396   0.577  17.094  0.6250 -0.3901  0.7144
 7887TIP3    H245153   3.451   0.640  16.968  1.5764 -2.8697 -0.1745
 7888TIP3   OH245154   4.333   6.194   2.973  0.4825 -0.2526  0.6653
 7888TIP3    H145155   4.242   6.167   2.973  0.0853  1.0120  0.9759
 7888TIP3    H245156   4.355   6.207   2.881 -0.2436  1.2854  0.6850
 7889TIP3   OH245157   3.092   1.028  16.604 -0.1592 -0.8410  0.2553
 7889TIP3    H145158   3.160   1.091  16.629 -0.0469 -0.6070 -0.5981
 7889TIP3    H245159   3.136   0.970  16.542 -0.8294 -0.4552 -0.6019
 7890TIP3   OH245160   6.791   2.795   3.699  0.2967  0.2763  0.2014
 7890TIP3    H145161   6.747   2.842   3.769  0.6757  2.0856 -0.7119
 7890TIP3    H245162   6.772   2.846   3.620 -0.5997 -1.9921 -1.1594
 7891TIP3   OH245163   1.791   3.046   0.949  0.4643  0.5549  0.7834
 7891TIP3    H145164   1.811   3.137   0.930  0.2250  0.4763  0.1263
 7891TIP3    H245165   1.865   2.997   0.911 -0.5537  0.3181 -0.9780
 7892TIP3   OH245166   1.279   5.072  14.661  0.3354 -0.1316  0.1570
 7892TIP3    H145167   1.320   5.008  14.602  1.1817  0.3061  0.2536
 7892TIP3    H245168   1.247   5.141  14.604  1.5234  0.4963  0.2132
 7893TIP3   OH245169   1.524   1.971  14.185  0.6683  0.8213 -0.3768
 7893TIP3    H145170   1.458   2.006  14.244  0.1598 -0.5679 -0.0673
 7893TIP3    H245171   1.594   1.941  14.243  0.4350  0.0036 -0.5045
 7894TIP3   OH245172   0.552   4.074   1.355 -0.3466 -0.3256  0.2408
 7894TIP3    H145173   0.460   4.081   1.329 -0.1786  0.4210 -0.1872
 7894TIP3    H245174   0.571   4.157   1.397  0.3427 -0.1768 -0.3588
 7895TIP3   OH245175   5.706   5.438   2.701 -0.2425  0.1795  0.0662
 7895TIP3    H145176   5.788   5.478   2.672  0.6982 -0.4912  1.6582
 7895TIP3    H245177   5.714   5.432   2.796 -2.6267  1.1015  0.3918
 7896TIP3   OH245178   0.224   6.670   4.794 -0.8824 -0.2652 -0.2323
 7896TIP3    H145179   0.198   6.609   4.725  0.5404  0.6240 -1.6166
 7896TIP3    H245180   0.175   6.750   4.774 -1.3093 -0.3354  0.4786
 7897TIP3   OH245181   5.391   0.304   2.619 -0.2989  0.1845  0.7925
 7897TIP3    H145182   5.474   0.271   2.655  0.3843 -0.9740 -1.6689
 7897TIP3    H245183   5.328   0.290   2.689  1.1520 -0.9195  1.9667
 7898TIP3   OH245184   1.904   6.647  13.474  0.2856 -0.0465  0.1663
 7898TIP3    H145185   1.810   6.628  13.476  0.6424 -1.9174  0.6577
 7898TIP3    H245186   1.942   6.576  13.424  1.3743  1.1600 -0.7891
 7899TIP3   OH245187   6.203   5.785  15.966 -0.1151  1.2460  0.0975
 7899TIP3    H145188   6.153   5.866  15.974 -0.7759  0.7706  1.0142
 7899TIP3    H245189   6.188   5.739  16.049 -0.8640 -0.4358 -0.9161
 7900TIP3   OH245190   0.352   6.184   3.680  0.0361  0.3512  0.3599
 7900TIP3    H145191   0.297   6.252   3.642 -0.2248 -0.2666 -0.4185
 7900TIP3    H245192   0.380   6.132   3.604 -0.0529 -0.6024  0.9618
 7901TIP3   OH245193   0.655   2.431  16.545 -0.5115 -0.1274 -0.0399
 7901TIP3    H145194   0.562   2.412  16.554 -0.4753  0.1978  1.4174
 7901TIP3    H245195   0.698   2.346  16.540 -0.7445 -0.3580  1.3937
 7902TIP3   OH245196   6.740   1.962   4.514 -0.0921  0.0671 -0.7574
 7902TIP3    H145197   6.767   1.877   4.480 -1.6190  0.6448 -3.7364
 7902TIP3    H245198   6.649   1.972   4.486 -0.3802  2.1262  0.6726
 7903TIP3   OH245199   1.747   4.416  16.286 -0.6824  0.2854  0.2055
 7903TIP3    H145200   1.692   4.339  16.304  0.2696 -0.7150 -1.0121
 7903TIP3    H245201   1.822   4.381  16.237 -0.1016  1.9651 -0.1583
 7904TIP3   OH245202   3.279   2.872   5.978 -0.2034  0.0641  0.5016
 7904TIP3    H145203   3.307   2.794   6.025 -1.3996  0.4134  1.8472
 7904TIP3    H245204   3.295   2.944   6.039  0.2609  0.8047 -0.4678
 7905TIP3   OH245205   0.822   5.293  16.058 -0.2928 -0.2268 -0.3085
 7905TIP3    H145206   0.898   5.295  16.000  0.9054 -2.3613  1.0474
 7905TIP3    H245207   0.850   5.342  16.136 -1.0087  0.5263 -0.5045
 7906TIP3   OH245208   5.038   6.577  12.034  0.3571 -0.3404 -0.2428
 7906TIP3    H145209   4.984   6.580  12.114 -0.2093 -0.3474 -0.6142
 7906TIP3    H245210   5.128   6.579  12.065  0.2343 -2.9634  0.5648
 7907TIP3   OH245211   6.202   2.703  16.764  0.1065 -0.8748  0.0608
 7907TIP3    H145212   6.257   2.700  16.842  1.4662 -1.1376 -0.8631
 7907TIP3    H245213   6.253   2.656  16.697  0.9282  2.7353 -2.1190
 7908TIP3   OH245214   5.978   2.364   5.683  0.2127  0.1313  0.0641
 7908TIP3    H145215   6.011   2.442   5.640  0.9157  0.0543  0.4566
 7908TIP3    H245216   5.961   2.391   5.773  0.2464 -0.1172  0.1457
 7909TIP3   OH245217   3.642   5.139   1.309 -0.4533  0.1087 -0.7592
 7909TIP3    H145218   3.618   5.177   1.394 -1.1188  0.7730 -1.2329
 7909TIP3    H245219   3.738   5.144   1.307 -0.5318  2.6000 -1.1664
 7910TIP3   OH245220   6.392   4.578  15.961 -0.1945  0.0038 -0.3393
 7910TIP3    H145221   6.443   4.652  15.928 -1.2357  2.3817  2.8215
 7910TIP3    H245222   6.301   4.598  15.938 -0.4601 -0.4193  0.2847
 7911TIP3   OH245223   0.611   4.955  15.162 -0.7367 -0.1984 -0.1449
 7911TIP3    H145224   0.544   5.023  15.171  1.3287  1.9112  0.3809
 7911TIP3    H245225   0.625   4.947  15.067  0.2837  1.5881 -0.2051
 7912TIP3   OH245226   0.444   4.639  15.533  0.0605  0.2737 -0.7486
 7912TIP3    H145227   0.511   4.638  15.601 -0.2976  0.3328 -0.3970
 7912TIP3    H245228   0.479   4.699  15.466  0.2547  0.4768 -0.4670
 7913TIP3   OH245229   2.894   5.329  14.033 -0.1877  0.4864 -0.0281
 7913TIP3    H145230   2.956   5.366  13.970 -0.5257 -0.6174 -1.0478
 7913TIP3    H245231   2.809   5.361  14.004 -0.1799  1.5885  1.0740
 7914TIP3   OH245232   5.256   3.548  13.697 -0.4734 -0.4459 -0.5439
 7914TIP3    H145233   5.341   3.558  13.654 -0.0740 -0.1411  0.3068
 7914TIP3    H245234   5.227   3.638  13.715 -0.0412 -0.5829  0.9578
 7915TIP3   OH245235   0.432   1.834  13.361 -0.0852  0.4982  0.4598
 7915TIP3    H145236   0.371   1.806  13.429 -0.3532  1.6238  0.7024
 7915TIP3    H245237   0.396   1.797  13.280 -0.8354  0.7641  0.6644
 7916TIP3   OH245238   6.641   2.295  13.468 -0.2692 -0.1523  0.1624
 7916TIP3    H145239   6.580   2.348  13.418 -0.6323  0.0536  0.8056
 7916TIP3    H245240   6.723   2.296  13.418 -0.6478 -0.0236 -0.4533
 7917TIP3   OH245241   1.221   3.597  14.020 -1.0485  0.2906 -0.2466
 7917TIP3    H145242   1.263   3.552  14.093 -1.0227 -1.8036 -1.4439
 7917TIP3    H245243   1.177   3.526  13.972 -0.9799  1.5691 -2.2892
 7918TIP3   OH245244   2.133   5.269  15.420  0.2359 -0.8449  0.2718
 7918TIP3    H145245   2.187   5.199  15.457  0.5643 -0.9525 -0.4018
 7918TIP3    H245246   2.081   5.226  15.353  2.5248  0.0109 -2.2294
 7919TIP3   OH245247   1.957   0.631  14.067  0.6114 -0.2037  0.1486
 7919TIP3    H145248   1.894   0.601  14.001  1.8085 -0.8357 -0.7436
 7919TIP3    H245249   1.959   0.561  14.132  0.9385 -0.5144 -0.1985
 7920TIP3   OH245250   4.847   2.616   4.099  0.5763  0.5057 -0.9458
 7920TIP3    H145251   4.851   2.531   4.142 -0.9859  0.2711 -1.1864
 7920TIP3    H245252   4.840   2.679   4.171 -1.0678  0.1895 -0.7902
 7921TIP3   OH245253   4.356   1.648  16.311  0.0478  0.2846  0.2789
 7921TIP3    H145254   4.386   1.691  16.392 -1.5972  1.2185  0.4314
 7921TIP3    H245255   4.278   1.697  16.286 -1.7851 -2.4334  0.2879
 7922TIP3   OH245256   2.332   0.436   3.904  0.1441  0.1409  0.0928
 7922TIP3    H145257   2.428   0.427   3.900  0.0300 -1.0568 -0.6044
 7922TIP3    H245258   2.314   0.462   3.994  1.1932  1.4554 -0.0458
 7923TIP3   OH245259   1.091   4.789  12.278  0.0318 -0.0249  0.2215
 7923TIP3    H145260   1.040   4.716  12.241  0.4827 -0.3452  0.2293
 7923TIP3    H245261   1.064   4.792  12.370 -0.3420  0.1273  0.1104
 7924TIP3   OH245262   4.388   3.702   3.994 -1.0609 -0.2688 -0.6626
 7924TIP3    H145263   4.395   3.761   4.070 -0.6522 -0.8128 -0.2722
 7924TIP3    H245264   4.397   3.760   3.918 -1.3772  0.2685 -0.2987
 7925TIP3   OH245265   1.017   1.333   1.124 -0.4863 -0.1978 -0.2019
 7925TIP3    H145266   1.004   1.420   1.085  0.1421 -0.1092 -0.2127
 7925TIP3    H245267   1.055   1.280   1.055  0.2626 -0.1487  0.1654
 7926TIP3   OH245268   0.262   5.713  12.828 -0.0110  0.4405  0.0029
 7926TIP3    H145269   0.214   5.631  12.835 -0.2948  0.5988 -0.0907
 7926TIP3    H245270   0.212   5.766  12.766  0.6954  0.3124 -0.6936
 7927TIP3   OH245271   2.314   1.873  16.781 -0.1337  0.1560 -0.7582
 7927TIP3    H145272   2.359   1.855  16.699 -0.0667 -1.0755 -0.4828
 7927TIP3    H245273   2.223   1.847  16.764 -0.7610  2.4761 -1.2619
 7928TIP3   OH245274   4.226   3.223   4.414 -0.0480 -0.1662 -0.0365
 7928TIP3    H145275   4.277   3.174   4.479  1.0461 -0.4304 -1.0588
 7928TIP3    H245276   4.292   3.257   4.353 -0.9011  1.5148 -0.0665
 7929TIP3   OH245277   4.882   2.053  15.858 -0.1170 -0.5825  0.1676
 7929TIP3    H145278   4.905   2.133  15.810  1.8842 -0.5898  1.0255
 7929TIP3    H245279   4.960   1.998  15.852 -0.3254 -1.1794  2.1675
 7930TIP3   OH245280   4.093   3.383   4.724 -0.2919 -0.1341  0.0292
 7930TIP3    H145281   4.107   3.294   4.691 -0.1973  0.7520 -2.5643
 7930TIP3    H245282   3.998   3.388   4.738 -0.4169 -0.4106 -0.6516
 7931TIP3   OH245283   2.474   4.398   1.132 -0.0249 -0.0087 -0.3009
 7931TIP3    H145284   2.461   4.393   1.226  0.5741  0.2715 -0.1975
 7931TIP3    H245285   2.387   4.388   1.094 -0.1617 -0.9143  0.2529
 7932TIP3   OH245286   6.068   4.371  12.376 -0.6638 -0.9876  0.4568
 7932TIP3    H145287   6.133   4.304  12.394  1.1702 -1.0092 -4.6332
 7932TIP3    H245288   6.100   4.449  12.421  2.5332 -1.2898 -1.0174
 7933TIP3   OH245289   4.836   4.415  15.737 -0.3903 -1.1210  0.6912
 7933TIP3    H145290   4.770   4.353  15.707 -1.2339  0.2476 -0.4085
 7933TIP3    H245291   4.789   4.498  15.745  1.5653  0.4188 -2.2350
 7934TIP3   OH245292   5.202   3.588  12.217 -0.0626  0.2111 -0.5258
 7934TIP3    H145293   5.224   3.567  12.126  0.4800 -0.0184 -0.3486
 7934TIP3    H245294   5.250   3.523  12.269 -1.4729 -0.5423 -0.1241
 7935TIP3   OH245295   4.650   4.200  12.077 -0.2605  0.0351 -0.6302
 7935TIP3    H145296   4.686   4.266  12.019  0.3185  0.7024  0.4697
 7935TIP3    H245297   4.688   4.118  12.046 -1.5888  0.0453 -2.4967
 7936TIP3   OH245298   4.217   4.130  15.716 -0.1235 -0.4037 -0.5908
 7936TIP3    H145299   4.255   4.061  15.662  0.1265 -1.1985  0.5548
 7936TIP3    H245300   4.132   4.096  15.744  0.8636 -1.2136  1.6798
 7937TIP3   OH245301   1.535   3.497  16.515 -0.8074 -0.3190 -0.0447
 7937TIP3    H145302   1.475   3.522  16.586  1.2232 -0.1691  1.7211
 7937TIP3    H245303   1.567   3.580  16.480  0.1188 -0.3775  0.6231
 7938TIP3   OH245304   6.017   4.247   0.406  0.3029 -0.7660 -0.3350
 7938TIP3    H145305   6.015   4.153   0.390 -0.7043 -0.8054 -0.0892
 7938TIP3    H245306   6.054   4.285   0.326  1.7360 -1.4369 -0.0085
 7939TIP3   OH245307   6.741   3.824   4.794 -0.4979  0.0775  0.1561
 7939TIP3    H145308   6.745   3.804   4.701  0.0111  0.7288  0.0323
 7939TIP3    H245309   6.724   3.739   4.836 -0.4848 -0.2586 -0.5056
 7940TIP3   OH245310   1.575   0.458  13.746  0.0564 -0.5527  0.2457
 7940TIP3    H145311   1.561   0.551  13.766 -1.5822 -0.9518  1.2377
 7940TIP3    H245312   1.565   0.451  13.651  0.3282  0.3012  0.1520
 7941TIP3   OH245313   3.363   3.708  15.311  0.3602 -0.3819  0.3019
 7941TIP3    H145314   3.447   3.754  15.306  0.4148 -0.1012  2.7803
 7941TIP3    H245315   3.299   3.776  15.333 -0.3889 -0.7577 -0.6232
 7942TIP3   OH245316   3.553   6.588   3.031  0.5713  0.0822  0.1471
 7942TIP3    H145317   3.629   6.625   3.076  0.1874 -1.4311  2.1616
 7942TIP3    H245318   3.485   6.655   3.043  1.4910  1.3961 -1.5734
 7943TIP3   OH245319   5.336   0.857   0.286  0.0846 -0.0897 -0.4765
 7943TIP3    H145320   5.336   0.895   0.199 -0.3788  2.0542  0.4033
 7943TIP3    H245321   5.420   0.884   0.325 -0.8038  1.2078  0.6169
 7944TIP3   OH245322   1.180   6.264  10.563  0.5851  0.1210  0.0039
 7944TIP3    H145323   1.135   6.227  10.487  1.5185  0.0176 -0.5166
 7944TIP3    H245324   1.165   6.358  10.557  1.0864  0.1699 -0.6156
 7945TIP3   OH245325   6.251   4.620   2.500  0.1798  0.6586 -0.0270
 7945TIP3    H145326   6.224   4.708   2.526 -1.1562  0.3890 -0.4390
 7945TIP3    H245327   6.252   4.623   2.404  0.4940  0.3348 -0.0334
 7946TIP3   OH245328   3.046   6.090   2.122  0.1567 -0.3289  1.0672
 7946TIP3    H145329   3.139   6.108   2.111  0.2053 -1.8668 -2.0232
 7946TIP3    H245330   3.037   5.998   2.097 -2.5767  0.5567 -1.7932
 7947TIP3   OH245331   1.301   5.559   1.003 -0.1571  0.1394 -0.0520
 7947TIP3    H145332   1.266   5.607   0.927 -0.6690 -1.4329 -0.8446
 7947TIP3    H245333   1.228   5.504   1.032  1.1786 -2.1675 -0.8602
 7948TIP3   OH245334   6.035   2.991   3.264  0.4549  0.3373  0.1209
 7948TIP3    H145335   6.078   3.048   3.201 -1.0792  0.1264 -1.1823
 7948TIP3    H245336   6.094   2.916   3.274  0.2206 -0.2123 -2.0317
 7949TIP3   OH245337   5.964   1.556   4.412 -0.1415 -0.1362 -0.6246
 7949TIP3    H145338   5.879   1.536   4.373  0.3735 -1.7073 -0.9933
 7949TIP3    H245339   6.028   1.518   4.353  0.7118 -1.4101  1.0225
 7950TIP3   OH245340   0.017   4.212  15.373 -0.6342  0.2347 -0.1975
 7950TIP3    H145341   0.023   4.119  15.352  2.6615  0.1515  0.5991
 7950TIP3    H245342  -0.020   4.213  15.462  0.8557 -0.4895  0.4748
 7951TIP3   OH245343   0.027   0.449   5.579  0.0650 -0.1389  0.4619
 7951TIP3    H145344   0.022   0.355   5.559  0.6948  0.2151 -1.5648
 7951TIP3    H245345   0.117   0.461   5.612 -0.1928 -0.3157  1.2579
 7952TIP3   OH245346   4.136   4.230  14.697  0.5839 -0.1737 -0.5238
 7952TIP3    H145347   4.056   4.253  14.650 -0.3437 -0.0925  1.0334
 7952TIP3    H245348   4.203   4.290  14.663 -0.7011  1.7414  0.1829
 7953TIP3   OH245349   1.665   0.781   5.864 -0.3443 -0.0926  0.0548
 7953TIP3    H145350   1.587   0.810   5.913 -0.7661 -0.4433 -0.3935
 7953TIP3    H245351   1.686   0.854   5.807 -2.0535 -1.0023 -1.8540
 7954TIP3   OH245352   0.755   6.220  14.629  0.3942  0.0142  0.0195
 7954TIP3    H145353   0.774   6.232  14.722  0.3927  0.8909 -0.0765
 7954TIP3    H245354   0.828   6.169  14.595  0.7304  0.2592  0.3730
 7955TIP3   OH245355   4.634   4.647   2.183  0.2088 -0.2040  0.1859
 7955TIP3    H145356   4.701   4.656   2.116  0.1689 -1.6442 -0.0898
 7955TIP3    H245357   4.630   4.732   2.226  0.1796  0.7896 -1.6893
 7956TIP3   OH245358   0.856   1.620   4.264  0.5187  0.6234 -0.2485
 7956TIP3    H145359   0.815   1.644   4.347  0.9218 -0.3067  0.2277
 7956TIP3    H245360   0.919   1.690   4.247 -0.6440  1.6248 -0.5608
 7957TIP3   OH245361   3.092   3.859   2.859 -0.1522  0.0942  0.0555
 7957TIP3    H145362   3.020   3.808   2.820 -1.1755 -0.0995  2.0758
 7957TIP3    H245363   3.049   3.935   2.898  0.4877 -0.7254  2.5091
 7958TIP3   OH245364   4.099   3.347  14.516 -0.1066  0.2528  0.3813
 7958TIP3    H145365   4.101   3.430  14.563 -1.1815  1.4311 -1.5009
 7958TIP3    H245366   4.190   3.318  14.516 -0.0298  0.3120  2.8733
 7959TIP3   OH245367   5.990   0.568   5.893  0.6391 -0.1357 -0.6213
 7959TIP3    H145368   5.899   0.593   5.878  0.5137 -0.7268 -0.8832
 7959TIP3    H245369   6.037   0.601   5.816  0.7228  0.5402 -0.2857
 7960TIP3   OH245370   5.960   3.416   4.615  0.4523 -0.2439  0.2472
 7960TIP3    H145371   5.967   3.493   4.672 -1.6650 -0.2001  0.5426
 7960TIP3    H245372   5.949   3.452   4.527  0.9536 -0.2508  0.1794
 7961TIP3   OH245373   1.639   4.463   4.372  0.1170  0.0036 -0.0276
 7961TIP3    H145374   1.726   4.503   4.376  1.1619 -2.2045  0.7717
 7961TIP3    H245375   1.595   4.492   4.453  0.1023  1.0507 -0.3919
 7962TIP3   OH245376   6.629   6.729  11.107 -0.3974  0.5395 -0.6143
 7962TIP3    H145377   6.619   6.701  11.198 -2.7311  1.4107 -0.5321
 7962TIP3    H245378   6.582   6.663  11.056  2.2230 -0.8243 -1.4400
 7963TIP3   OH245379   3.969   6.152   2.375  0.0282 -0.1557 -0.7118
 7963TIP3    H145380   3.886   6.154   2.422 -0.6083 -0.3423 -1.7841
 7963TIP3    H245381   4.007   6.067   2.398 -0.2159 -0.1941 -0.4461
 7964TIP3   OH245382   2.169   1.428   4.982  0.2488 -0.0572  0.3118
 7964TIP3    H145383   2.190   1.334   4.980 -1.4369 -0.4716 -0.3540
 7964TIP3    H245384   2.075   1.431   4.964  0.4420  1.8303 -0.5914
 7965TIP3   OH245385   1.872   0.566   4.886 -0.6554  0.1660 -0.6686
 7965TIP3    H145386   1.869   0.480   4.928 -1.8958  1.2744  1.7230
 7965TIP3    H245387   1.953   0.565   4.836  0.9823 -1.3696  1.7738
 7966TIP3   OH245388   6.107   4.706   2.933 -0.0212  0.4374 -0.0619
 7966TIP3    H145389   6.083   4.798   2.928 -1.8601 -0.0760 -3.3989
 7966TIP3    H245390   6.028   4.658   2.906  1.9308 -1.8714 -2.2306
 7967TIP3   OH245391   6.452   6.002   1.460 -0.4153  0.1058  0.6540
 7967TIP3    H145392   6.401   6.062   1.405  0.4567 -0.6948 -1.0958
 7967TIP3    H245393   6.507   5.954   1.399  0.5628 -0.8898  2.2461
 7968TIP3   OH245394   2.947   6.836   1.799  0.1371 -0.0018 -0.7376
 7968TIP3    H145395   2.968   6.813   1.890  0.2082 -3.8201 -1.5732
 7968TIP3    H245396   2.886   6.910   1.807  1.8892  1.3186  2.2453
 7969TIP3   OH245397   0.797   4.529   0.770 -0.0222  0.1596  0.1273
 7969TIP3    H145398   0.878   4.561   0.812  0.7772 -0.8157 -0.6063
 7969TIP3    H245399   0.727   4.568   0.822  0.8330  3.0130 -0.6556
 7970TIP3   OH245400   4.841   5.778  14.388 -0.3214 -0.3313  0.1398
 7970TIP3    H145401   4.846   5.704  14.448 -0.8837 -0.1178  0.4540
 7970TIP3    H245402   4.795   5.846  14.437  0.8630  0.5067  0.1433
 7971TIP3   OH245403   4.832   1.220   6.024 -0.7187 -0.3924  0.2751
 7971TIP3    H145404   4.800   1.224   6.114  0.2046  1.9333  0.5814
 7971TIP3    H245405   4.919   1.261   6.028 -0.5384 -0.5153 -1.6358
 7972TIP3   OH245406   5.481   2.249   2.836 -0.2647  0.1979  0.2440
 7972TIP3    H145407   5.526   2.178   2.883 -1.0261 -0.4317  0.0330
 7972TIP3    H245408   5.506   2.329   2.884 -1.6389 -0.4939  2.2498
 7973TIP3   OH245409   4.912   2.158   0.978  0.1998 -0.2136  0.5109
 7973TIP3    H145410   4.967   2.122   0.909  0.6733  1.8064 -0.2390
 7973TIP3    H245411   4.973   2.194   1.042 -0.2542 -0.1273  0.9035
 7974TIP3   OH245412   6.276   0.723  16.458  0.4061 -0.0100  0.0047
 7974TIP3    H145413   6.203   0.781  16.483 -0.7202 -1.4076  0.1166
 7974TIP3    H245414   6.244   0.677  16.381  1.7240  0.3176 -0.7548
 7975TIP3   OH245415   2.669   2.988  11.757 -0.6856  0.3107 -0.3136
 7975TIP3    H145416   2.717   2.968  11.837 -1.3724 -0.8352 -0.1690
 7975TIP3    H245417   2.681   3.082  11.744 -1.0440  0.6168  1.4400
 7976TIP3   OH245418   5.278   2.930  13.744  0.4891 -0.1645  0.4685
 7976TIP3    H145419   5.262   2.911  13.836 -1.3777  1.1804  0.4812
 7976TIP3    H245420   5.220   3.004  13.724  2.5623  1.1273 -1.1887
 7977TIP3   OH245421   3.567   6.811  12.168  0.7481 -0.2139  0.8185
 7977TIP3    H145422   3.479   6.789  12.199  0.5722  1.3981  1.5768
 7977TIP3    H245423   3.616   6.830  12.248  0.3073  3.9335  0.2915
 7978TIP3   OH245424   4.245   0.355   4.806 -0.2191 -0.7545  0.0770
 7978TIP3    H145425   4.215   0.433   4.760  3.1034  0.5521 -0.1739
 7978TIP3    H245426   4.308   0.315   4.747 -0.9983 -3.0579  0.6845
 7979TIP3   OH245427   1.865   2.054   3.608  0.2464  0.1703  0.2825
 7979TIP3    H145428   1.773   2.041   3.583  0.4922  0.6344 -0.9218
 7979TIP3    H245429   1.861   2.085   3.699 -0.9260  1.9834 -0.3190
 7980TIP3   OH245430   0.873   0.225  14.592  0.6197  0.0680  0.0723
 7980TIP3    H145431   0.830   0.289  14.649  2.1627  1.7765 -0.6183
 7980TIP3    H245432   0.966   0.246  14.597  1.0717 -1.4638 -1.0105
 7981TIP3   OH245433   0.415   3.249  15.407  0.2648  0.6907 -0.0123
 7981TIP3    H145434   0.328   3.209  15.405 -0.3802  2.0431 -0.1031
 7981TIP3    H245435   0.461   3.208  15.333  0.0908 -0.8234  0.6880
 7982TIP3   OH245436   1.037   2.344  11.966 -0.4536  0.0516  0.1727
 7982TIP3    H145437   1.107   2.307  12.020 -0.1877  1.2236  0.6648
 7982TIP3    H245438   1.045   2.300  11.882 -0.8730 -1.8307  1.0666
 7983TIP3   OH245439   5.917   1.006  16.558  0.2265 -0.4836 -0.3886
 7983TIP3    H145440   5.856   0.950  16.510 -0.4875  0.2460 -0.3664
 7983TIP3    H245441   5.997   1.005  16.507  0.1453 -1.3228 -0.5141
 7984TIP3   OH245442   5.868   5.009  16.808 -0.0921 -1.1314 -0.1543
 7984TIP3    H145443   5.785   5.037  16.768  0.0108 -0.0289  0.3500
 7984TIP3    H245444   5.930   5.078  16.782 -0.0364 -0.3473  1.9121
 7985TIP3   OH245445   5.189   0.251  16.194  0.3046  0.3431  0.0142
 7985TIP3    H145446   5.204   0.267  16.101 -0.2834  0.8601  0.0015
 7985TIP3    H245447   5.262   0.196  16.221 -0.3605 -1.1711 -1.1201
 7986TIP3   OH245448   2.527   3.023  10.926 -0.6539 -0.1920  0.3573
 7986TIP3    H145449   2.595   3.091  10.924 -1.4134  0.5751 -0.2600
 7986TIP3    H245450   2.445   3.071  10.924 -1.2229 -1.1283  0.4774
 7987TIP3   OH245451   3.127   5.872  11.888  0.4850 -0.0783 -0.0143
 7987TIP3    H145452   3.046   5.860  11.838  1.7401 -0.8770 -1.9472
 7987TIP3    H245453   3.119   5.959  11.927 -0.2757  0.9034 -2.1960
 7988TIP3   OH245454   0.429   0.558  10.992  0.0704  0.1090 -0.1311
 7988TIP3    H145455   0.448   0.648  10.968 -0.3452 -0.1674 -1.6250
 7988TIP3    H245456   0.450   0.507  10.913  0.5541 -1.1389  0.7597
 7989TIP3   OH245457   0.815   1.049  11.306  0.8136  0.1370 -0.1757
 7989TIP3    H145458   0.738   0.993  11.319 -0.0129  1.7070  2.2817
 7989TIP3    H245459   0.779   1.131  11.273  1.2281  1.2763  2.0690
 7990TIP3   OH245460   0.425   2.558  14.181  0.2909  0.3614 -0.7009
 7990TIP3    H145461   0.391   2.485  14.129  0.0649 -0.0409 -0.0045
 7990TIP3    H245462   0.366   2.631  14.162 -1.9149 -0.6815  1.5529
 7991TIP3   OH245463   2.235   4.096  12.567  0.2709 -0.3500  0.1853
 7991TIP3    H145464   2.179   4.019  12.576  0.5996 -0.6748 -0.4914
 7991TIP3    H245465   2.318   4.061  12.533  0.0771  0.4386 -1.1442
 7992TIP3   OH245466   2.714   3.947   2.958  0.0397  0.1371 -0.5222
 7992TIP3    H145467   2.635   3.941   2.905  0.3944 -0.4853 -0.9991
 7992TIP3    H245468   2.701   3.880   3.026  0.6462 -0.7967 -1.2907
 7993TIP3   OH245469   3.108   6.641  12.672  0.0751  0.1598 -0.3407
 7993TIP3    H145470   3.117   6.554  12.634 -0.8556  0.4876 -1.3504
 7993TIP3    H245471   3.196   6.663  12.702  0.1081 -1.6030  1.0430
 7994TIP3   OH245472   4.648   3.446   1.216 -0.2172 -0.5279 -0.6260
 7994TIP3    H145473   4.652   3.367   1.162  0.8972 -0.7971 -0.1745
 7994TIP3    H245474   4.555   3.466   1.222 -0.5444 -1.9922 -0.4808
 7995TIP3   OH245475   4.537   3.590   3.126 -0.2219 -0.5222 -0.4376
 7995TIP3    H145476   4.486   3.671   3.123  0.9242  0.3624  1.7750
 7995TIP3    H245477   4.625   3.616   3.101 -0.2581 -1.5547 -1.7771
 7996TIP3   OH245478   1.940   2.861   4.681 -0.4010  0.3490 -0.4827
 7996TIP3    H145479   2.016   2.907   4.645 -1.0842  0.2955 -2.0834
 7996TIP3    H245480   1.954   2.769   4.659 -0.4385  0.1855  0.1458
 7997TIP3   OH245481   2.584   2.696  17.024 -0.0397  0.1814 -0.5912
 7997TIP3    H145482   2.659   2.752  17.002 -0.5147  0.5642 -1.2594
 7997TIP3    H245483   2.623   2.610  17.039  0.6657  0.6213  0.1841
 7998TIP3   OH245484   6.821   5.505   4.904  0.4403 -0.0194  0.1201
 7998TIP3    H145485   6.850   5.430   4.956  0.4847 -1.8278 -2.3218
 7998TIP3    H245486   6.899   5.533   4.857 -0.3306 -0.8609 -1.7507
 7999TIP3   OH245487   1.760   0.778  14.832 -0.6107  0.0868  0.1245
 7999TIP3    H145488   1.806   0.695  14.824 -0.2954  0.1932  0.7659
 7999TIP3    H245489   1.794   0.818  14.912 -0.4602  1.0204 -0.3820
 8000TIP3   OH245490   6.194   6.344   2.489 -0.2708  0.1901  0.6986
 8000TIP3    H145491   6.119   6.284   2.494  0.3556 -0.7190 -0.4478
 8000TIP3    H245492   6.231   6.343   2.577  0.3808 -1.9927  0.4433
 8001TIP3   OH245493   5.745   1.739  16.035  0.1893  0.4517  0.3251
 8001TIP3    H145494   5.651   1.730  16.022  0.2058 -1.3862  1.1714
 8001TIP3    H245495   5.784   1.670  15.981  0.8119 -0.9320  2.4002
 8002TIP3   OH245496   5.964   0.700   0.792 -0.1519  0.3962 -0.0075
 8002TIP3    H145497   5.954   0.698   0.697 -0.0012 -1.4466 -0.0265
 8002TIP3    H245498   5.956   0.608   0.818  1.4752  0.6658  1.5925
 8003TIP3   OH245499   3.218   0.187  12.115  0.4958 -0.2022 -0.2799
 8003TIP3    H145500   3.243   0.095  12.110 -0.0575 -0.3157 -1.2035
 8003TIP3    H245501   3.159   0.192  12.190 -1.7185 -1.1890 -1.8434
 8004TIP3   OH245502   4.494   2.987  11.370  0.2064  0.0233  0.1621
 8004TIP3    H145503   4.404   3.020  11.365  0.4923  1.0516  1.2341
 8004TIP3    H245504   4.531   3.029  11.448  1.5160 -0.6387 -0.0637
 8005TIP3   OH245505   4.894   1.047   0.915 -0.4324  0.7279 -0.2256
 8005TIP3    H145506   4.926   1.009   0.833 -1.6386  1.2280 -0.9707
 8005TIP3    H245507   4.806   1.077   0.894 -0.3284  1.9485  0.9393
 8006TIP3   OH245508   4.386   3.887   4.221  0.6471 -0.1051 -0.1892
 8006TIP3    H145509   4.474   3.864   4.250  0.5955 -0.8742 -0.6128
 8006TIP3    H245510   4.395   3.976   4.187  1.2188 -0.0993 -0.0397
 8007TIP3   OH245511   3.870   4.659  12.601  0.3759  0.1994 -0.2731
 8007TIP3    H145512   3.818   4.583  12.624  0.8524 -1.0818 -3.0105
 8007TIP3    H245513   3.809   4.720  12.559  0.4809  0.1116 -0.5583
 8008TIP3   OH245514   5.377   2.191  12.921 -0.2988 -0.5348  0.1463
 8008TIP3    H145515   5.341   2.260  12.977  0.9351  0.2482  0.0174
 8008TIP3    H245516   5.469   2.216  12.907 -0.4836 -0.8497 -2.0149
 8009TIP3   OH245517   3.037   6.689   4.640  0.6731  0.1736 -0.2215
 8009TIP3    H145518   3.000   6.657   4.722  1.2238  0.2553  0.0648
 8009TIP3    H245519   3.063   6.610   4.592 -0.3074  0.0957 -0.6366
 8010TIP3   OH245520   5.415   1.693  16.828  0.0134 -0.0869  0.7577
 8010TIP3    H145521   5.331   1.709  16.785  0.9503  0.0578 -1.1006
 8010TIP3    H245522   5.452   1.618  16.781  1.7134  0.9813  0.3389
 8011TIP3   OH245523   3.840   6.015  12.933  0.0915 -0.0515  0.1278
 8011TIP3    H145524   3.901   5.977  12.870  1.1077  0.6514  0.6614
 8011TIP3    H245525   3.895   6.059  12.997 -0.9791  0.6959  0.5804
 8012TIP3   OH245526   3.429   1.935   0.791  0.2005  0.2433 -0.1484
 8012TIP3    H145527   3.474   1.981   0.719  0.9880 -0.1350  0.0928
 8012TIP3    H245528   3.336   1.954   0.776  0.4662  1.5877 -0.2896
 8013TIP3   OH245529   5.968   0.529   3.275 -0.0020  0.2493  0.2625
 8013TIP3    H145530   5.965   0.619   3.307  0.2979  0.8387 -1.2485
 8013TIP3    H245531   6.030   0.533   3.201 -0.8161 -0.9518 -0.5112
 8014TIP3   OH245532   5.992   4.976   2.872  0.1505  0.0375  0.0741
 8014TIP3    H145533   5.918   4.935   2.918 -1.6188  1.2341 -1.5499
 8014TIP3    H245534   6.028   5.037   2.936 -0.3211 -0.4935  0.8681
 8015TIP3   OH245535   6.166   5.763   3.644  0.0327 -0.0540 -0.8953
 8015TIP3    H145536   6.250   5.720   3.660  0.2118  0.8394  0.7561
 8015TIP3    H245537   6.189   5.852   3.620 -0.3810  1.3751  3.2495
 8016TIP3   OH245538   4.424   2.504  16.452  0.7447 -0.5411  0.1164
 8016TIP3    H145539   4.479   2.575  16.419  0.1356 -0.0682  0.1065
 8016TIP3    H245540   4.425   2.439  16.382  1.3458 -0.5735  0.1452
 8017TIP3   OH245541   0.279   1.343  11.812 -0.2290  0.3373 -0.1682
 8017TIP3    H145542   0.212   1.291  11.768  0.1025 -0.4631  0.2549
 8017TIP3    H245543   0.313   1.286  11.881  1.9095  0.1443 -1.2771
 8018TIP3   OH245544   5.707   3.075   0.056 -0.1436  0.4260  1.0053
 8018TIP3    H145545   5.639   3.125   0.009  0.9603  1.5103  0.5067
 8018TIP3    H245546   5.688   2.984   0.034 -0.0598  0.8485 -1.0693
 8019TIP3   OH245547   3.589   2.205  16.359  0.9871  0.3102 -0.4407
 8019TIP3    H145548   3.602   2.285  16.309  0.3883 -0.0442 -1.1825
 8019TIP3    H245549   3.677   2.167  16.366  0.8602 -0.5870 -2.8759
 8020TIP3   OH245550   3.270   3.516  10.857  0.2986  0.4113  0.7062
 8020TIP3    H145551   3.197   3.458  10.836  1.7404 -0.4543 -2.5091
 8020TIP3    H245552   3.338   3.457  10.892  0.2143  0.9050  1.7459
 8021TIP3   OH245553   2.879   2.652   6.292  0.5154 -0.3431 -0.1542
 8021TIP3    H145554   2.814   2.676   6.226 -0.4054 -4.4565 -1.0395
 8021TIP3    H245555   2.958   2.701   6.267 -1.0414  1.5777 -1.5827
 8022TIP3   OH245556   1.458   3.605  14.967  0.2327 -0.2975 -0.1715
 8022TIP3    H145557   1.380   3.649  15.001 -1.7164 -1.0688 -3.2496
 8022TIP3    H245558   1.521   3.676  14.952 -0.5720  0.5923  0.5631
 8023TIP3   OH245559   1.248   0.002   5.820  0.2736  0.5272  0.1415
 8023TIP3    H145560   1.300  -0.012   5.899  1.3059 -0.6340 -0.7218
 8023TIP3    H245561   1.249   0.097   5.807 -0.5330  0.8225  1.9070
 8024TIP3   OH245562   6.694   4.668  11.538  0.1403  0.5852  0.1763
 8024TIP3    H145563   6.742   4.683  11.456  1.1221 -1.7118  0.2679
 8024TIP3    H245564   6.633   4.597  11.518  2.5430 -2.2559  2.1034
 8025TIP3   OH245565   6.442   4.423  11.007 -0.0155 -0.2039 -0.1482
 8025TIP3    H145566   6.399   4.358  10.951 -0.7213  0.0804  0.0610
 8025TIP3    H245567   6.383   4.498  11.007  1.7371  1.2860 -2.0523
 8026TIP3   OH245568   4.083   0.436  14.693 -0.1207 -0.1261 -0.3067
 8026TIP3    H145569   4.147   0.367  14.706 -0.5308 -0.3527  0.5534
 8026TIP3    H245570   4.001   0.390  14.673 -0.1166  0.1477 -0.9803
 8027TIP3   OH245571   6.308   4.265   1.782  0.2487 -0.2333  0.1036
 8027TIP3    H145572   6.231   4.322   1.780 -0.3141 -0.9540  0.7161
 8027TIP3    H245573   6.367   4.308   1.844  0.9143  0.9944 -1.3005
 8028TIP3   OH245574   0.210   0.305  11.701 -0.3842  0.2492  0.3925
 8028TIP3    H145575   0.115   0.303  11.690 -0.2840 -0.3413 -0.4654
 8028TIP3    H245576   0.241   0.230  11.652  0.6049  0.9518 -0.0858
 8029TIP3   OH245577   4.278   4.019  13.729  0.5076  0.1145  0.0776
 8029TIP3    H145578   4.358   4.003  13.780  0.7106  1.3839  0.1991
 8029TIP3    H245579   4.311   4.048  13.643  0.1836  0.2466 -0.0021
 8030TIP3   OH245580   3.204   3.606  14.407 -0.2359 -0.6546 -0.6526
 8030TIP3    H145581   3.230   3.694  14.383  0.6243 -0.6159  0.3417
 8030TIP3    H245582   3.205   3.606  14.503 -3.7954 -0.7035 -0.4774
 8031TIP3   OH245583   4.929   1.621  12.072  0.0252 -0.6635 -0.5063
 8031TIP3    H145584   4.981   1.592  11.997  1.1510  1.7866 -0.7483
 8031TIP3    H245585   4.991   1.664  12.130 -1.6225  2.4564 -0.8382
 8032TIP3   OH245586   3.777   6.321   2.007  0.3347 -0.6148 -0.0319
 8032TIP3    H145587   3.702   6.293   2.060  0.6713  1.5633  1.7381
 8032TIP3    H245588   3.738   6.376   1.938  0.2307  0.0903  0.5770
 8033TIP3   OH245589   2.960   2.668  12.181  0.0513 -1.0765 -0.9069
 8033TIP3    H145590   2.903   2.721  12.127  1.2959  0.1648 -1.0598
 8033TIP3    H245591   2.901   2.622  12.241 -1.1033  0.0952 -1.1096
 8034TIP3   OH245592   0.095   0.427  13.166 -0.3126 -0.0999  0.0663
 8034TIP3    H145593   0.146   0.462  13.239  0.6512 -0.6793 -0.3133
 8034TIP3    H245594   0.100   0.496  13.099  1.9495 -1.0556 -0.8457
 8035TIP3   OH245595   6.832   6.181   2.917  0.1813  0.1338 -0.5757
 8035TIP3    H145596   6.750   6.203   2.872  0.1305  2.2683  0.4345
 8035TIP3    H245597   6.885   6.137   2.851 -0.9646  0.6604 -1.8876
 8036TIP3   OH245598   1.795   5.847  12.307  0.2484  0.1268 -0.2555
 8036TIP3    H145599   1.730   5.857  12.376  0.4855 -1.3334  0.2251
 8036TIP3    H245600   1.779   5.920  12.248 -0.0841  1.3112  1.2321
 8037TIP3   OH245601   5.909   6.243   6.502 -0.0324  0.6490 -0.4631
 8037TIP3    H145602   5.878   6.178   6.438  1.7076 -0.0455 -0.6530
 8037TIP3    H245603   5.942   6.315   6.449 -0.0117  0.7558 -0.3059
 8038TIP3   OH245604   4.854   1.562   0.164  0.3659 -0.2209  0.7460
 8038TIP3    H145605   4.932   1.537   0.115  0.4450 -0.7598  1.1373
 8038TIP3    H245606   4.831   1.484   0.215 -0.2613  0.0245  0.8522
 8039TIP3   OH245607   3.860   3.131   5.397 -0.8213  0.3063  0.0728
 8039TIP3    H145608   3.889   3.042   5.416 -0.3888  0.0340 -1.6725
 8039TIP3    H245609   3.843   3.170   5.482  0.1900 -1.0455  0.9205
 8040TIP3   OH245610   4.478   1.039   0.553  0.7782  0.3612 -0.4281
 8040TIP3    H145611   4.424   0.962   0.571  1.0865  0.2549  0.0598
 8040TIP3    H245612   4.567   1.004   0.543  1.0636  0.7502  0.6759
 8041TIP3   OH245613   6.309   4.692  13.342 -0.6978 -0.7595 -0.2384
 8041TIP3    H145614   6.338   4.766  13.290 -1.1780 -0.1298  0.3739
 8041TIP3    H245615   6.388   4.660  13.386 -0.7743  0.5353  0.9144
 8042TIP3   OH245616   0.577   5.973   5.830  0.0413 -0.3820  0.0361
 8042TIP3    H145617   0.592   5.907   5.762  1.7562  0.0595 -0.0727
 8042TIP3    H245618   0.638   6.044   5.808  0.1530  0.0654  1.6449
 8043TIP3   OH245619   2.858   0.285  13.472 -0.2081  0.3124 -0.2108
 8043TIP3    H145620   2.919   0.237  13.417  0.5885  2.2324 -1.0796
 8043TIP3    H245621   2.864   0.242  13.558  1.5343 -0.2344 -0.5776
 8044TIP3   OH245622   2.009   0.981  11.420  0.6423  0.0122 -0.1227
 8044TIP3    H145623   1.973   0.919  11.357 -1.4613 -1.6803  2.4947
 8044TIP3    H245624   2.077   0.931  11.465 -0.4290 -0.1603  1.3820
 8045TIP3   OH245625   0.475   4.215   3.026 -0.4474 -0.0814 -0.4153
 8045TIP3    H145626   0.429   4.140   3.064 -0.5476 -0.2039 -0.7662
 8045TIP3    H245627   0.413   4.287   3.033 -0.7764 -0.2916 -1.0618
 8046TIP3   OH245628   1.562   4.277  13.724  0.3888  0.3210  0.1048
 8046TIP3    H145629   1.499   4.206  13.740 -0.5091  0.9953 -0.3733
 8046TIP3    H245630   1.644   4.245  13.762  0.4944 -1.7514 -1.6422
 8047TIP3   OH245631   4.059   4.842  15.347 -0.7133 -0.2248 -0.4100
 8047TIP3    H145632   4.007   4.922  15.336 -0.3161 -0.0374 -0.9724
 8047TIP3    H245633   3.998   4.779  15.385 -0.4875  0.9774  2.1199
 8048TIP3   OH245634   2.876   5.451  11.329 -0.5238  0.5386  0.2151
 8048TIP3    H145635   2.875   5.382  11.395 -1.5815  0.6903  0.3693
 8048TIP3    H245636   2.796   5.501  11.345 -0.5717  0.8425 -0.9048
 8049TIP3   OH245637   1.288   0.409  14.050 -0.2475  0.0060  0.3585
 8049TIP3    H145638   1.357   0.466  14.083  0.0561 -0.6519  0.8976
 8049TIP3    H245639   1.275   0.345  14.120 -2.3764  0.9187  0.8633
 8050TIP3   OH245640   5.658   0.887   1.768 -0.1318  1.2967  0.0556
 8050TIP3    H145641   5.658   0.980   1.789 -0.0080  0.7976  2.4990
 8050TIP3    H245642   5.604   0.847   1.835  0.3230 -0.4783 -0.5791
 8051TIP3   OH245643   5.850   3.292   3.467  0.2925  0.0165  0.7026
 8051TIP3    H145644   5.810   3.326   3.547 -1.0671  0.0494  0.0391
 8051TIP3    H245645   5.904   3.365   3.434  1.1709 -0.1283  1.7622
 8052TIP3   OH245646   6.813   0.048  15.005 -0.0828 -0.1288 -0.7922
 8052TIP3    H145647   6.876  -0.011  14.963 -1.6292 -2.6320  0.1548
 8052TIP3    H245648   6.728   0.004  14.993 -0.7601 -0.9140  4.4200
 8053TIP3   OH245649   5.917   2.081  12.703  0.1721 -0.1080  0.7704
 8053TIP3    H145650   5.995   2.136  12.703  0.1862 -0.0699 -0.8848
 8053TIP3    H245651   5.886   2.082  12.612 -3.5563  2.3960  1.8178
 8054TIP3   OH245652   2.468   4.917  12.459  0.4296  0.5084 -0.0091
 8054TIP3    H145653   2.537   4.976  12.427  0.1227  1.6543  1.3308
 8054TIP3    H245654   2.389   4.970  12.460  0.0129 -0.1002  0.6324
 8055TIP3   OH245655   1.920   3.241  14.091  0.1670 -0.3529  0.0600
 8055TIP3    H145656   2.014   3.253  14.081  0.0703  1.0500  0.5009
 8055TIP3    H245657   1.911   3.167  14.151  0.9938 -0.2784  0.2877
 8056TIP3   OH245658   3.309   3.633   3.782  0.4038 -0.3235  0.0822
 8056TIP3    H145659   3.293   3.589   3.698 -1.2652 -0.2065  0.3176
 8056TIP3    H245660   3.389   3.684   3.767  0.1956 -0.3885 -1.4027
 8057TIP3   OH245661   2.485   0.301   4.516 -0.6215  0.3748 -1.0656
 8057TIP3    H145662   2.443   0.283   4.432  0.4650 -0.8342 -1.3975
 8057TIP3    H245663   2.422   0.271   4.581 -1.1245  0.5293 -1.4698
 8058TIP3   OH245664   4.479   4.933  12.217 -0.7254 -0.5788 -0.0461
 8058TIP3    H145665   4.402   4.977  12.183  0.5756  1.9228  0.0021
 8058TIP3    H245666   4.532   4.912  12.140 -1.2016 -1.8617 -0.0458
 8059TIP3   OH245667   0.720   4.890   6.584  0.3370  0.1497  0.0174
 8059TIP3    H145668   0.676   4.809   6.558 -0.7029  0.5395  0.4910
 8059TIP3    H245669   0.806   4.886   6.542 -0.4031 -0.3215 -1.5166
 8060TIP3   OH245670   4.372   5.777   6.367  0.3084  0.0142  0.4831
 8060TIP3    H145671   4.399   5.838   6.436 -0.4681  2.9024 -1.5852
 8060TIP3    H245672   4.450   5.766   6.313 -0.0729  0.7824 -0.2382
 8061TIP3   OH245673   1.558   0.246   3.249 -0.2702 -0.2364 -0.1195
 8061TIP3    H145674   1.631   0.237   3.187 -0.0222 -1.7585  0.3531
 8061TIP3    H245675   1.485   0.276   3.196  0.4424  0.3763 -0.7832
 8062TIP3   OH245676   5.408   0.705  12.366 -0.8594 -0.2071 -0.1973
 8062TIP3    H145677   5.473   0.707  12.437 -2.0293  1.3687  0.9252
 8062TIP3    H245678   5.442   0.767  12.301 -2.0578  2.1755  1.2836
 8063TIP3   OH245679   2.679   4.565  12.868  0.0984  0.0749 -0.0057
 8063TIP3    H145680   2.716   4.478  12.882 -3.2658 -1.6765 -0.9060
 8063TIP3    H245681   2.649   4.564  12.777  1.1490  2.7446 -0.4874
 8064TIP3   OH245682   3.369   2.586   4.480 -0.9036  0.3484  0.1234
 8064TIP3    H145683   3.313   2.516   4.515 -0.2481 -0.4626 -0.4196
 8064TIP3    H245684   3.458   2.554   4.492 -0.5625  1.3608  0.4050
 8065TIP3   OH245685   4.501   6.170  11.324 -0.2111  0.5462  0.4145
 8065TIP3    H145686   4.449   6.097  11.290 -0.3761  1.3958 -1.2583
 8065TIP3    H245687   4.583   6.130  11.351 -0.1736 -0.2397 -0.7779
 8066TIP3   OH245688   3.213   5.977   1.667  0.8374  0.1463  0.0236
 8066TIP3    H145689   3.196   6.010   1.579  0.8810  0.9015  0.2942
 8066TIP3    H245690   3.309   5.975   1.674  0.8979 -1.8902 -0.6676
 8067TIP3   OH245691   5.825   2.623   2.939 -0.0812  0.9450 -1.1868
 8067TIP3    H145692   5.833   2.591   3.029 -0.2859  0.2098 -1.4217
 8067TIP3    H245693   5.847   2.716   2.944 -0.7913  1.0727 -0.2632
 8068TIP3   OH245694   2.613   4.623   4.944 -0.6221  0.3145 -0.1426
 8068TIP3    H145695   2.701   4.610   4.908 -0.9227  0.3185 -0.8838
 8068TIP3    H245696   2.622   4.699   5.002  0.4137 -1.1436  1.7192
 8069TIP3   OH245697   0.025   4.175   0.068  0.2490  0.0880 -0.0225
 8069TIP3    H145698  -0.056   4.226   0.065 -0.0969 -0.4777 -0.9315
 8069TIP3    H245699   0.020   4.118  -0.009  2.6298  1.6961 -1.4843
 8070TIP3   OH245700   3.845   3.586   4.005 -0.2818  0.1685 -0.0184
 8070TIP3    H145701   3.798   3.599   4.087 -1.1421 -0.3818 -0.4197
 8070TIP3    H245702   3.920   3.531   4.029  0.0713  0.8908  0.5827
 8071TIP3   OH245703   2.720   3.054  13.550 -0.1994  0.8270 -0.4110
 8071TIP3    H145704   2.630   3.058  13.515  0.0095  0.7335 -0.9755
 8071TIP3    H245705   2.723   3.122  13.616 -0.7372  0.7305 -0.2832
 8072TIP3   OH245706   3.104   2.880  12.097 -0.1435  0.0266 -0.0334
 8072TIP3    H145707   3.066   2.846  12.178  1.9846 -1.6264  0.3633
 8072TIP3    H245708   3.107   2.805  12.038  0.2424  0.7057 -0.8959
 8073TIP3   OH245709   6.481   1.680  14.858  0.3083 -0.1951 -0.4402
 8073TIP3    H145710   6.390   1.687  14.830  0.2319 -0.5992 -0.3007
 8073TIP3    H245711   6.502   1.766  14.896 -0.4703 -0.5508  0.8650
 8074TIP3   OH245712   6.517   1.518  12.881  0.4811 -0.2014 -0.0352
 8074TIP3    H145713   6.511   1.613  12.889 -1.4371 -0.2402 -0.6099
 8074TIP3    H245714   6.426   1.488  12.874  0.9525 -2.2331  1.5617
 8075TIP3   OH245715   0.553   1.708  11.052 -0.0276 -0.1794 -0.3785
 8075TIP3    H145716   0.471   1.693  11.099  0.2808 -0.3624  0.1045
 8075TIP3    H245717   0.533   1.685  10.961 -0.8192  0.8128 -0.4763
 8076TIP3   OH245718   5.352   0.586  16.185  0.2564  0.3717 -0.2107
 8076TIP3    H145719   5.312   0.560  16.102 -0.7765  0.0775  0.3709
 8076TIP3    H245720   5.444   0.559  16.176  0.2721  0.7810 -1.4317
 8077TIP3   OH245721   2.104   6.710  15.326  0.1910  0.2833  0.7555
 8077TIP3    H145722   2.081   6.620  15.349  2.7763 -0.1853  1.9666
 8077TIP3    H245723   2.145   6.703  15.240 -2.4820  0.8558 -0.6373
 8078TIP3   OH245724   0.225   3.552   3.355  0.4485  0.5752 -0.4038
 8078TIP3    H145725   0.282   3.617   3.314  0.8385  0.3964 -0.1458
 8078TIP3    H245726   0.139   3.593   3.356 -0.0892 -0.2241 -3.4301
 8079TIP3   OH245727   0.754   4.550  16.960  0.1662 -0.1841 -0.0263
 8079TIP3    H145728   0.676   4.506  16.993  0.4504 -0.1461  0.7279
 8079TIP3    H245729   0.743   4.641  16.987  1.0339 -0.4093  1.1985
 8080TIP3   OH245730   3.742   1.046   3.119 -0.4910  0.0718  0.2288
 8080TIP3    H145731   3.679   1.113   3.144 -0.7362 -0.9280  2.6226
 8080TIP3    H245732   3.824   1.074   3.161 -0.2269 -0.3564  0.0048
 8081TIP3   OH245733   4.562   0.503   5.186  0.0393  0.1854  0.2961
 8081TIP3    H145734   4.512   0.493   5.106 -2.0942 -0.7984  1.6751
 8081TIP3    H245735   4.584   0.414   5.212 -0.5714  0.3797  1.5518
 8082TIP3   OH245736   3.764   5.028  11.678  0.1828  0.6777  0.1701
 8082TIP3    H145737   3.706   5.000  11.749  1.7621 -0.4795  1.0765
 8082TIP3    H245738   3.768   4.952  11.619  1.8082  0.1821  0.8516
 8083TIP3   OH245739   1.405   0.207  13.330  0.1131  0.4337 -0.1593
 8083TIP3    H145740   1.416   0.230  13.238  2.0436  1.9511  0.3856
 8083TIP3    H245741   1.395   0.112  13.330 -0.0964  0.4267 -1.9289
 8084TIP3   OH245742   3.550   4.309  15.432  0.1940  0.2930 -0.0491
 8084TIP3    H145743   3.517   4.325  15.520 -0.1915 -0.6166 -0.0122
 8084TIP3    H245744   3.551   4.213  15.423  2.9470  0.2426 -0.0261
 8085TIP3   OH245745   5.897   4.713  13.032 -0.3065 -0.4754  0.2209
 8085TIP3    H145746   5.986   4.686  13.053 -0.1291  0.8027  1.2867
 8085TIP3    H245747   5.908   4.791  12.978 -0.7640 -0.1042  0.6523
 8086TIP3   OH245748   5.316   5.314   6.378  0.1131  0.4289  0.4514
 8086TIP3    H145749   5.242   5.323   6.318  0.6788  1.1793 -0.1556
 8086TIP3    H245750   5.288   5.357   6.459 -0.2980  0.2632  0.3987
 8087TIP3   OH245751   1.720   6.379  15.210  0.2801  0.3038  0.0075
 8087TIP3    H145752   1.674   6.339  15.137  0.1239  1.6391 -0.6602
 8087TIP3    H245753   1.788   6.316  15.233 -0.3721 -0.6241 -0.5560
 8088TIP3   OH245754   6.051   0.248   5.082  0.1406 -0.4917  0.0317
 8088TIP3    H145755   6.033   0.174   5.140 -0.4180  0.0017  0.5007
 8088TIP3    H245756   5.976   0.306   5.094 -0.0771 -0.4470 -1.3110
 8089TIP3   OH245757   0.158   3.623   4.594  0.0628 -0.3998 -0.2237
 8089TIP3    H145758   0.250   3.643   4.577  0.3717  2.0456  3.2575
 8089TIP3    H245759   0.161   3.564   4.670 -1.1277  1.8260  1.6795
 8090TIP3   OH245760   4.593   1.297  17.033  0.5531  0.0345  0.2246
 8090TIP3    H145761   4.539   1.244  17.091  0.5793 -1.4423 -1.0346
 8090TIP3    H245762   4.683   1.281  17.063  0.6318 -1.3616 -0.6677
 8091TIP3   OH245763   5.818   5.503   0.729  0.0205  0.0626 -0.1721
 8091TIP3    H145764   5.747   5.511   0.794 -0.4006 -0.6879 -0.5163
 8091TIP3    H245765   5.780   5.536   0.648  0.4141  0.6250 -0.1308
 8092TIP3   OH245766   5.823   4.764  16.036 -0.0223 -0.4253 -0.1273
 8092TIP3    H145767   5.886   4.810  16.092 -0.3467  0.3279 -0.3740
 8092TIP3    H245768   5.818   4.676  16.074  0.1714 -0.0919  0.7082
 8093TIP3   OH245769   0.595   1.938   1.528  0.1276 -0.4873 -0.9171
 8093TIP3    H145770   0.556   2.012   1.574  1.0500 -0.1308 -0.6989
 8093TIP3    H245771   0.558   1.943   1.440  1.1102  0.9723 -1.2744
 8094TIP3   OH245772   1.995   6.006   0.544 -0.2641 -0.2135  0.2578
 8094TIP3    H145773   2.057   6.019   0.472 -0.0520  0.0624  0.4921
 8094TIP3    H245774   1.988   5.911   0.552  0.4282 -0.2453  0.4920
 8095TIP3   OH245775   3.799   0.385  14.726  0.3046 -0.8075 -0.5046
 8095TIP3    H145776   3.731   0.443  14.760  0.2009 -1.5027  0.5243
 8095TIP3    H245777   3.793   0.393  14.631  0.7938  1.4506 -0.3909
 8096TIP3   OH245778   5.024   2.963   0.578  0.0943  0.5198 -0.5437
 8096TIP3    H145779   5.065   2.910   0.510 -3.8208  0.1023 -2.8838
 8096TIP3    H245780   5.054   2.925   0.660  0.2482 -3.0745 -2.1019
 8097TIP3   OH245781   5.502   6.145   5.112  0.3740  0.0292  0.3257
 8097TIP3    H145782   5.418   6.174   5.148 -0.8311 -0.6011 -1.7583
 8097TIP3    H245783   5.478   6.098   5.032  2.5812 -1.9759  0.7230
 8098TIP3   OH245784   2.859   0.686  15.184 -0.1033  0.0935  0.0801
 8098TIP3    H145785   2.766   0.693  15.165 -0.2730 -0.4905  0.6661
 8098TIP3    H245786   2.890   0.777  15.187 -0.8656  0.3280  0.9179
 8099TIP3   OH245787   3.125   1.731  12.314  0.0861 -0.2349  0.6794
 8099TIP3    H145788   3.047   1.697  12.357 -0.0851 -1.2891 -0.4186
 8099TIP3    H245789   3.093   1.799  12.255 -0.1782 -1.4772 -0.6493
 8100TIP3   OH245790   2.258   1.610  12.942  0.2451 -0.2680 -0.4113
 8100TIP3    H145791   2.250   1.652  13.028  2.1456  1.4062 -0.9920
 8100TIP3    H245792   2.210   1.668  12.883  0.9265 -0.1633 -0.8612
 8101TIP3   OH245793   4.403   6.574  17.025 -0.3567 -0.1326 -0.4377
 8101TIP3    H145794   4.487   6.588  16.982 -0.0467 -0.2159  0.1375
 8101TIP3    H245795   4.423   6.518  17.099 -0.7757  0.6000  0.2423
 8102TIP3   OH245796   1.659   0.262  13.533  0.0819  0.0843  0.3477
 8102TIP3    H145797   1.736   0.311  13.503  0.1666  1.2074  2.2724
 8102TIP3    H245798   1.593   0.280  13.466  1.2343 -0.2924 -0.9492
 8103TIP3   OH245799   2.713   1.021  11.694 -0.2471  0.2897 -0.2305
 8103TIP3    H145800   2.723   1.112  11.724  0.5106 -0.2372  1.2228
 8103TIP3    H245801   2.776   0.972  11.746 -0.7531 -1.1085 -0.8908
 8104TIP3   OH245802   2.188   1.508   5.964 -0.5842  0.4037 -0.0381
 8104TIP3    H145803   2.157   1.599   5.959  2.1916  1.4150 -1.5048
 8104TIP3    H245804   2.124   1.458   5.913 -1.4778  1.7561 -0.2993
 8105TIP3   OH245805   2.634   2.067   4.392  0.6911  0.2130  0.7637
 8105TIP3    H145806   2.553   2.016   4.385  0.4762  0.3507  2.0364
 8105TIP3    H245807   2.604   2.158   4.402  1.0726  0.6950 -1.8515
 8106TIP3   OH245808   0.438   1.086  15.770 -0.0690 -0.3413 -0.0447
 8106TIP3    H145809   0.468   1.088  15.861  0.5028 -0.2042 -0.2326
 8106TIP3    H245810   0.379   1.162  15.763  0.2050 -0.1131  0.1004
 8107TIP3   OH245811   3.719   1.671  12.117 -0.0178 -0.8308 -0.4644
 8107TIP3    H145812   3.645   1.726  12.140 -0.9683 -2.1744 -0.1432
 8107TIP3    H245813   3.727   1.609  12.190  0.2723 -1.8202 -1.3000
 8108TIP3   OH245814   6.577   2.700  11.947 -0.0032 -0.1434  0.1578
 8108TIP3    H145815   6.620   2.713  12.031 -0.6692  0.2127  0.4535
 8108TIP3    H245816   6.643   2.721  11.882 -0.4473  3.0419  0.6002
 8109TIP3   OH245817   0.624   6.514   5.533 -0.1070  0.6262  0.1449
 8109TIP3    H145818   0.677   6.498   5.611  1.6944  2.9012 -0.4772
 8109TIP3    H245819   0.601   6.606   5.539  0.0294  0.8409 -1.9501
 8110TIP3   OH245820   5.488   4.644  14.627 -0.5629 -0.5150  0.0580
 8110TIP3    H145821   5.481   4.686  14.541  1.3470 -0.9048 -0.3263
 8110TIP3    H245822   5.421   4.688  14.680 -0.4113  1.1613 -1.0571
 8111TIP3   OH245823   2.721   2.597  14.909  0.3600 -0.2836 -0.2691
 8111TIP3    H145824   2.739   2.510  14.872  0.3239  0.5518 -2.3830
 8111TIP3    H245825   2.650   2.631  14.855 -1.9778 -0.1793  2.5957
 8112TIP3   OH245826   4.263   4.617   3.528  0.1711 -1.3208  0.1499
 8112TIP3    H145827   4.227   4.704   3.510 -0.8556 -2.2056 -2.5863
 8112TIP3    H245828   4.192   4.570   3.570 -0.5700 -1.8666 -1.6375
 8113TIP3   OH245829   4.637   5.438   2.309 -0.0708  0.2781 -0.2485
 8113TIP3    H145830   4.679   5.516   2.345  0.8607  0.4424 -1.6177
 8113TIP3    H245831   4.570   5.473   2.249  0.4539  0.0490 -0.9829
 8114TIP3   OH245832   5.633   0.596  12.937 -0.0913 -0.7797  0.3156
 8114TIP3    H145833   5.706   0.584  12.876  0.3334 -0.4499  0.7521
 8114TIP3    H245834   5.561   0.547  12.898  0.4731 -1.4341  0.0726
 8115TIP3   OH245835   2.244   6.195  15.014  0.5160 -0.0995  0.7765
 8115TIP3    H145836   2.335   6.202  14.984 -0.5533 -1.5487 -3.6908
 8115TIP3    H245837   2.226   6.279  15.055  3.3693  0.8941  0.2727
 8116TIP3   OH245838   5.511   3.968  16.088  0.4049  0.6741  0.6612
 8116TIP3    H145839   5.513   4.011  16.002  0.2191  1.5618  1.0814
 8116TIP3    H245840   5.523   3.875  16.069  1.1632  0.9455 -0.2585
 8117TIP3   OH245841   2.318   1.053   2.400  0.0541 -0.2255 -0.0112
 8117TIP3    H145842   2.371   1.084   2.327  0.5372 -1.6102 -0.2775
 8117TIP3    H245843   2.297   0.962   2.378 -1.6675  0.0124  0.5240
 8118TIP3   OH245844   6.030   4.236   1.487 -0.3469 -0.0287  0.0582
 8118TIP3    H145845   6.053   4.150   1.523  0.6886  0.7762  1.4204
 8118TIP3    H245846   6.114   4.279   1.472 -0.8657  1.3176  0.8374
 8119TIP3   OH245847   2.178   4.152   6.132 -0.0993  0.3818  0.1732
 8119TIP3    H145848   2.213   4.207   6.061 -1.9947 -0.5781 -1.6138
 8119TIP3    H245849   2.126   4.212   6.185  2.6197  1.4600  1.8543
 8120TIP3   OH245850   0.211   1.254  15.889  0.0084  0.1301  0.8027
 8120TIP3    H145851   0.162   1.174  15.904  0.5255 -0.1554  0.9825
 8120TIP3    H245852   0.272   1.260  15.963  2.2966 -1.0735 -0.8574
 8121TIP3   OH245853   2.878   0.245   4.925 -0.2355  0.3235 -0.2916
 8121TIP3    H145854   2.823   0.184   4.975 -0.4071 -0.1444 -1.0382
 8121TIP3    H245855   2.815   0.302   4.880 -0.0871  0.5084 -0.2641
 8122TIP3   OH245856   6.611   1.861   2.783 -0.0720 -0.2773 -0.0856
 8122TIP3    H145857   6.565   1.834   2.704 -1.7056 -1.3013  1.1670
 8122TIP3    H245858   6.698   1.822   2.775 -0.1319 -0.1778 -1.4523
 8123TIP3   OH245859   4.900   3.009   4.525  0.0359 -0.2384  0.7567
 8123TIP3    H145860   4.871   2.942   4.587  0.7585 -0.1983  1.1492
 8123TIP3    H245861   4.986   3.036   4.558  0.2742  0.0286 -0.0762
 8124TIP3   OH245862   2.477   6.139   4.031  0.1695 -0.0193 -0.6612
 8124TIP3    H145863   2.527   6.193   4.092  0.5652 -1.5451  0.4401
 8124TIP3    H245864   2.525   6.145   3.948  0.3473  1.0677 -0.4968
 8125TIP3   OH245865   0.078   4.218  14.310 -0.6025  0.1013  0.9260
 8125TIP3    H145866  -0.012   4.238  14.336 -0.5642  0.0247  1.1152
 8125TIP3    H245867   0.087   4.124  14.326 -0.2565  0.2454  1.6016
 8126TIP3   OH245868   2.884   5.725  13.941  0.0282  0.2027 -0.1102
 8126TIP3    H145869   2.802   5.743  13.895 -2.8248 -3.0596  3.0935
 8126TIP3    H245870   2.904   5.808  13.986 -3.0562  0.5127  1.0076
 8127TIP3   OH245871   4.006   6.686  12.236 -0.1752 -0.0721 -0.0283
 8127TIP3    H145872   3.941   6.691  12.306  0.5537  1.6472  0.5942
 8127TIP3    H245873   3.968   6.737  12.165 -0.1629 -0.3528 -0.2367
 8128TIP3   OH245874   1.451   5.477  12.787 -0.1942 -0.7652  0.4957
 8128TIP3    H145875   1.544   5.489  12.806  0.3594 -1.0811 -1.7508
 8128TIP3    H245876   1.407   5.491  12.871  1.7913  0.3244  1.4080
 8129TIP3   OH245877   1.804   5.089  15.064  0.4834 -0.1759  0.3639
 8129TIP3    H145878   1.751   5.021  15.022  0.0061 -1.2884  2.6254
 8129TIP3    H245879   1.745   5.164  15.071  0.7837  0.3004 -1.4635
 8130TIP3   OH245880   2.864   6.705  11.472 -0.4297  0.4951  0.5024
 8130TIP3    H145881   2.849   6.611  11.484  0.3387  0.2312 -0.4926
 8130TIP3    H245882   2.941   6.723  11.527 -0.1824  0.3989  0.1928
 8131TIP3   OH245883   0.970   2.113  15.799 -0.1862 -0.3090 -0.5458
 8131TIP3    H145884   0.998   2.100  15.708 -0.8567 -1.0190 -0.6583
 8131TIP3    H245885   0.898   2.175  15.793  0.8405  0.9618 -0.3208
 8132TIP3   OH245886   1.676   2.889   3.468  0.4278 -0.0907 -0.1222
 8132TIP3    H145887   1.592   2.870   3.511 -0.9948 -0.2027 -2.7708
 8132TIP3    H245888   1.714   2.959   3.521 -0.9453 -0.5603  1.5910
 8133TIP3   OH245889   5.783   3.081   3.273  0.3890 -0.7145 -0.4549
 8133TIP3    H145890   5.864   3.035   3.295  1.4514  1.2451 -0.0290
 8133TIP3    H245891   5.784   3.159   3.329 -1.0412  0.1330 -1.5506
 8134TIP3   OH245892   2.864   4.736  15.364  0.0951 -0.1347 -0.2174
 8134TIP3    H145893   2.957   4.758  15.371  0.0755  0.0925 -0.6586
 8134TIP3    H245894   2.862   4.655  15.314  0.0368  0.0093 -0.4462
 8135TIP3   OH245895   5.840   2.082   0.852 -0.8891 -0.2096 -0.1264
 8135TIP3    H145896   5.802   2.119   0.773 -0.8817  0.6457  0.2576
 8135TIP3    H245897   5.884   2.156   0.895  0.7282 -1.0419 -0.2719
 8136TIP3   OH245898   1.187   4.230   5.877 -0.3692  0.3741 -0.1907
 8136TIP3    H145899   1.232   4.245   5.960 -1.1592  1.7003  0.0222
 8136TIP3    H245900   1.243   4.272   5.812 -0.0709 -0.1136 -0.2530
 8137TIP3   OH245901   4.041   3.840   2.694  0.5163 -0.2266  0.0002
 8137TIP3    H145902   4.129   3.813   2.668  0.8703 -0.6207  1.4676
 8137TIP3    H245903   4.044   3.936   2.694 -0.2822 -0.0546 -3.7360
 8138TIP3   OH245904   6.215   2.374   0.180  0.1072  0.0068 -0.5279
 8138TIP3    H145905   6.137   2.325   0.207 -0.7604  0.9003 -1.3579
 8138TIP3    H245906   6.206   2.458   0.224 -0.5237  0.9074 -2.2960
 8139TIP3   OH245907   2.664   1.874   5.622 -0.3067 -0.8029  0.6409
 8139TIP3    H145908   2.640   1.809   5.557 -1.5991 -1.2044  1.4592
 8139TIP3    H245909   2.582   1.891   5.670  0.3398  0.3097  1.4148
 8140TIP3   OH245910   5.538   1.736   5.665  0.4154 -0.0442 -0.1166
 8140TIP3    H145911   5.621   1.782   5.654  0.6542 -0.4817 -0.1260
 8140TIP3    H245912   5.527   1.726   5.759 -0.3193  1.2698 -0.0231
 8141TIP3   OH245913   2.936   4.767  14.327 -0.6179  0.4311  0.4745
 8141TIP3    H145914   2.936   4.853  14.285 -1.9445 -0.9501 -2.6475
 8141TIP3    H245915   2.852   4.762  14.373 -0.9823  0.4427 -0.1853
 8142TIP3   OH245916   2.438   5.164   2.236  0.2222  0.3236 -0.8152
 8142TIP3    H145917   2.391   5.083   2.216  0.6468 -0.3310  0.6720
 8142TIP3    H245918   2.370   5.232   2.234 -0.8209 -0.5611  1.0312
 8143TIP3   OH245919   2.115   0.659   4.405 -0.1201 -0.1603  0.1498
 8143TIP3    H145920   2.135   0.568   4.428  0.0173 -0.3928 -0.8442
 8143TIP3    H245921   2.181   0.710   4.452  0.0479 -0.5980  0.4021
 8144TIP3   OH245922   2.121   4.696   0.842 -0.2645 -0.0927 -0.2379
 8144TIP3    H145923   2.088   4.743   0.919  0.4943 -0.2424  0.1874
 8144TIP3    H245924   2.210   4.729   0.830 -0.6081  0.4553 -1.4905
 8145TIP3   OH245925   4.759   5.499  11.237  0.1993  0.4303  0.2429
 8145TIP3    H145926   4.824   5.534  11.297  0.5647 -1.7683  1.1898
 8145TIP3    H245927   4.805   5.493  11.153  1.0606 -0.5202  0.7591
 8146TIP3   OH245928   3.496   4.443  16.876  0.1259  0.1968  0.1740
 8146TIP3    H145929   3.569   4.450  16.815  1.4199 -0.3319  1.6207
 8146TIP3    H245930   3.522   4.375  16.938 -1.6095 -0.0268  0.7318
 8147TIP3   OH245931   1.514   2.276   3.055 -0.9201 -0.3780  0.0594
 8147TIP3    H145932   1.549   2.192   3.084 -0.6183 -0.1075  0.4922
 8147TIP3    H245933   1.424   2.277   3.087 -1.4133 -1.1654 -1.2381
 8148TIP3   OH245934   5.947   6.398   3.672  0.2216  0.4649  0.0903
 8148TIP3    H145935   5.961   6.340   3.746  1.1861  0.9378  0.2901
 8148TIP3    H245936   5.956   6.487   3.708 -0.5716  0.7322 -0.3384
 8149TIP3   OH245937   0.331   2.539   3.296  0.1761  0.0348  0.5147
 8149TIP3    H145938   0.342   2.550   3.202  1.2729 -0.8429  0.5163
 8149TIP3    H245939   0.250   2.587   3.317 -0.0290  0.3193 -0.8406
 8150TIP3   OH245940   6.229   1.936  11.865 -0.1267  0.3679  0.0755
 8150TIP3    H145941   6.257   1.997  11.797  2.6200  0.6314  1.3365
 8150TIP3    H245942   6.310   1.909  11.908 -1.1447 -4.3010 -0.4498
 8151TIP3   OH245943   4.708   0.346   3.729 -0.0323 -0.3846 -0.2395
 8151TIP3    H145944   4.655   0.280   3.685  0.7184 -0.6393 -0.7786
 8151TIP3    H245945   4.658   0.427   3.720 -0.8864 -0.8359  0.3003
 8152TIP3   OH245946   1.973   3.956   0.098 -0.0863  0.1017  0.8835
 8152TIP3    H145947   1.928   3.876   0.125 -1.4591  0.9450  1.1784
 8152TIP3    H245948   2.010   3.936   0.013 -0.8108 -0.7027  0.7534
 8153TIP3   OH245949   3.496   4.627  12.145 -0.1187 -0.6878  0.1078
 8153TIP3    H145950   3.476   4.544  12.189  0.6043 -1.5026 -1.0586
 8153TIP3    H245951   3.585   4.647  12.173  0.1992 -1.0079 -0.6411
 8154TIP3   OH245952   5.224   3.539   6.616  0.0517  0.7455 -0.0267
 8154TIP3    H145953   5.295   3.478   6.638 -0.2638  0.4198  0.0938
 8154TIP3    H245954   5.163   3.487   6.564 -0.1480  0.9960 -0.0415
 8155TIP3   OH245955   2.166   1.270   0.422 -0.2718  0.6856 -0.4835
 8155TIP3    H145956   2.073   1.260   0.442  0.1255 -0.1881  1.0816
 8155TIP3    H245957   2.171   1.352   0.373 -1.8821  0.6501 -0.7646
 8156TIP3   OH245958   5.157   0.280  13.134  0.2745  0.2052 -0.6413
 8156TIP3    H145959   5.063   0.284  13.153  0.3919  0.2447 -0.0431
 8156TIP3    H245960   5.163   0.290  13.039 -0.4119 -1.1449 -0.8454
 8157TIP3   OH245961   6.383   4.924  15.009 -0.6983 -0.0107 -0.3162
 8157TIP3    H145962   6.439   4.955  15.080 -1.1509 -0.2581  0.1549
 8157TIP3    H245963   6.427   4.846  14.975  0.1054  0.7514 -1.0711
 8158TIP3   OH245964   4.815   0.001  16.594  0.4124 -0.0212  0.2724
 8158TIP3    H145965   4.805  -0.095  16.595 -2.7904  0.1509 -2.0746
 8158TIP3    H245966   4.795   0.028  16.683  0.3722 -1.4529  0.7210
 8159TIP3   OH245967   3.818   0.359  12.225 -0.1864 -0.2796  0.4834
 8159TIP3    H145968   3.765   0.299  12.277 -1.2046 -0.6032 -0.8858
 8159TIP3    H245969   3.777   0.445  12.237 -1.1291 -0.5449 -0.6489
 8160TIP3   OH245970   1.240   5.964  12.495 -0.1737 -0.4549 -0.4013
 8160TIP3    H145971   1.284   6.049  12.496 -2.2086  0.6652 -1.3938
 8160TIP3    H245972   1.212   5.952  12.404 -0.6224 -1.8442 -0.1125
 8161TIP3   OH245973   4.425   3.339  14.318  0.2820 -0.2648 -0.0209
 8161TIP3    H145974   4.393   3.394  14.246  0.1161  1.6275  1.4208
 8161TIP3    H245975   4.518   3.360  14.325  0.3083 -0.4791  0.3009
 8162TIP3   OH245976   2.335   5.093   1.466 -0.3669 -0.1066  0.2897
 8162TIP3    H145977   2.381   5.097   1.550 -0.1051  0.5973  0.1205
 8162TIP3    H245978   2.402   5.069   1.402 -0.2502  0.7755  0.0654
 8163TIP3   OH245979   6.105   2.619   2.597  0.2287 -0.1657  0.6469
 8163TIP3    H145980   6.068   2.559   2.661 -2.5029  0.3009 -0.3570
 8163TIP3    H245981   6.071   2.588   2.513  2.4836  0.1224 -0.4409
 8164TIP3   OH245982   0.203   6.121  15.411  0.2270  0.0605 -0.0166
 8164TIP3    H145983   0.296   6.100  15.410 -0.0867 -1.8079  1.8607
 8164TIP3    H245984   0.159   6.036  15.407 -1.3549  0.8215  0.3085
 8165TIP3   OH245985   0.617   3.989  13.992 -0.7683 -0.2259 -0.7926
 8165TIP3    H145986   0.567   4.062  14.028 -1.0541 -0.7901 -0.0049
 8165TIP3    H245987   0.684   4.030  13.938 -1.4782  0.5801 -1.0805
 8166TIP3   OH245988   2.160   1.789  13.946  0.3321 -0.3477  0.4116
 8166TIP3    H145989   2.136   1.839  13.867 -4.3101 -0.2118  1.6461
 8166TIP3    H245990   2.170   1.699  13.915 -0.2737 -0.1048 -0.5297
 8167TIP3   OH245991   0.969   4.890   6.453 -0.5282  0.3819  0.0807
 8167TIP3    H145992   0.987   4.983   6.443 -1.3299  0.4578 -0.8942
 8167TIP3    H245993   1.042   4.856   6.505  1.4301  0.9792 -2.1036
 8168TIP3   OH245994   3.451   2.518   1.503 -0.2286 -0.1968  0.0366
 8168TIP3    H145995   3.535   2.517   1.549 -0.9759 -1.2809  1.4565
 8168TIP3    H245996   3.465   2.460   1.428  1.2722  2.2747 -1.7636
 8169TIP3   OH245997   3.431   3.887   5.323  0.0393  0.1708 -0.4953
 8169TIP3    H145998   3.477   3.848   5.397 -2.2648 -0.0691  0.8838
 8169TIP3    H245999   3.433   3.981   5.340  0.5227  0.2161 -0.7719
 8170TIP3   OH246000   1.108   0.105   4.263 -0.5520  0.1024 -0.1463
 8170TIP3    H146001   1.057   0.047   4.319  0.0998  0.5616  0.9582
 8170TIP3    H246002   1.195   0.065   4.259  0.1267  1.3514  1.2527
 8171TIP3   OH246003   0.586   3.806  11.449 -0.5302  0.1601  0.9986
 8171TIP3    H146004   0.617   3.771  11.365 -2.1833 -0.3016  0.5399
 8171TIP3    H246005   0.574   3.899  11.434 -1.8133 -0.0783  0.3561
 8172TIP3   OH246006   4.765   1.882   2.240 -0.0769  0.3304  0.4373
 8172TIP3    H146007   4.727   1.947   2.181  1.0817  1.9487  1.3648
 8172TIP3    H246008   4.832   1.838   2.188 -0.7101  0.0326 -0.1344
 8173TIP3   OH246009   2.263   6.569   4.388  0.6597  0.9163 -0.4649
 8173TIP3    H146010   2.314   6.518   4.324 -1.0529 -1.5194 -0.0225
 8173TIP3    H246011   2.173   6.540   4.375 -0.1273  2.4703  1.1659
 8174TIP3   OH246012   1.374   2.290   0.071  0.4065  0.7065  0.7503
 8174TIP3    H146013   1.314   2.354   0.110  1.2140  1.0256  1.5333
 8174TIP3    H246014   1.320   2.238   0.012 -1.5296 -1.4261  4.0354
 8175TIP3   OH246015   0.751   1.313  16.933 -0.2880 -0.2559 -0.0689
 8175TIP3    H146016   0.745   1.358  16.849 -0.1305  0.5059  0.3250
 8175TIP3    H246017   0.831   1.260  16.926  0.2876  0.5865 -0.0381
 8176TIP3   OH246018   5.546   3.274   2.192 -0.1515 -0.5933 -0.4612
 8176TIP3    H146019   5.484   3.346   2.180 -0.3956 -0.9407 -1.3296
 8176TIP3    H246020   5.618   3.294   2.133 -0.3060 -1.1517 -0.8450
 8177TIP3   OH246021   1.867   1.108  16.212 -0.1643 -0.1169 -0.4227
 8177TIP3    H146022   1.895   1.197  16.232  1.7590 -1.2417  2.4696
 8177TIP3    H246023   1.816   1.080  16.288 -0.3092 -1.6532 -1.0338
 8178TIP3   OH246024   6.647   4.227  16.401 -0.0340 -0.0689 -0.2055
 8178TIP3    H146025   6.616   4.226  16.310  1.2613 -0.6010 -0.6673
 8178TIP3    H246026   6.652   4.320  16.424  1.1141  0.1570 -1.2375
 8179TIP3   OH246027   5.657   0.628  14.395 -0.4197 -0.8645 -0.2854
 8179TIP3    H146028   5.750   0.607  14.404 -0.2573 -0.9449 -1.8175
 8179TIP3    H246029   5.612   0.567  14.453  0.4165 -1.6952 -0.4904
 8180TIP3   OH246030   1.490   3.960  16.782 -1.1649 -0.0420  0.1271
 8180TIP3    H146031   1.580   3.935  16.805 -1.3476  0.5558  1.6490
 8180TIP3    H246032   1.448   3.977  16.867 -2.8088 -0.6055 -0.5354
 8181TIP3   OH246033   5.600   3.783  12.298 -0.3523 -0.0996  0.4147
 8181TIP3    H146034   5.526   3.836  12.266 -0.1546 -0.6080 -0.9739
 8181TIP3    H246035   5.668   3.847  12.318 -1.2285  0.3999  1.9858
 8182TIP3   OH246036   1.825   3.223   5.253  0.0425 -0.5101  0.5829
 8182TIP3    H146037   1.838   3.130   5.268 -1.7633 -0.9645 -0.3219
 8182TIP3    H246038   1.757   3.248   5.315  0.5679  0.2387  0.8729
 8183TIP3   OH246039   4.808   6.821  15.480  0.5297 -0.8456  0.4705
 8183TIP3    H146040   4.836   6.736  15.447  0.8374 -0.8947  0.8529
 8183TIP3    H246041   4.810   6.878  15.404  0.4199 -1.1551  0.2314
 8184TIP3   OH246042   5.519   2.787  13.801 -0.6231 -0.5941 -0.1224
 8184TIP3    H146043   5.429   2.818  13.817  0.1329  1.3814  0.6178
 8184TIP3    H246044   5.532   2.719  13.867 -1.4533 -0.6379  0.0177
 8185TIP3   OH246045   3.813   4.378  15.939 -0.0419 -0.2685  0.1089
 8185TIP3    H146046   3.818   4.469  15.909 -1.3216 -0.4140 -0.6192
 8185TIP3    H246047   3.892   4.337  15.904 -0.6151  0.0101 -1.5812
 8186TIP3   OH246048   0.759   3.410   2.571  0.3174 -0.5164 -0.0531
 8186TIP3    H146049   0.812   3.331   2.566 -0.4192 -1.0884  0.8224
 8186TIP3    H246050   0.787   3.453   2.651  0.0189 -0.4092 -0.0059
 8187TIP3   OH246051   0.057   4.580   1.143 -0.2782  0.1923  0.1386
 8187TIP3    H146052   0.029   4.667   1.170  1.4101  1.4603 -1.8207
 8187TIP3    H246053  -0.018   4.545   1.094 -0.4762  1.1465 -0.2640
 8188TIP3   OH246054   5.387   4.061  14.610 -0.2401 -0.5709  0.4069
 8188TIP3    H146055   5.322   4.131  14.611 -0.3692 -0.5516 -2.0552
 8188TIP3    H246056   5.424   4.060  14.698 -2.9283  0.0111  1.6277
 8189TIP3   OH246057   2.307   2.680  13.208 -0.1248 -0.4387  0.3918
 8189TIP3    H146058   2.384   2.716  13.252  1.2645 -1.9165 -0.7261
 8189TIP3    H246059   2.325   2.690  13.115 -1.2249 -0.9865  0.0964
 8190TIP3   OH246060   6.634   4.885   6.608 -0.2460 -0.1676 -0.8597
 8190TIP3    H146061   6.684   4.918   6.534  0.3919 -1.1694 -0.8967
 8190TIP3    H246062   6.626   4.960   6.667 -1.6607  0.9430 -2.3614
 8191TIP3   OH246063   5.253   2.475  14.616 -0.6350  0.0638  0.5249
 8191TIP3    H146064   5.278   2.386  14.640  1.6718  0.5245  0.0434
 8191TIP3    H246065   5.271   2.527  14.695 -1.3034  0.2193  0.5804
 8192TIP3   OH246066   4.602   3.768   5.639 -0.3266 -0.2978 -0.6166
 8192TIP3    H146067   4.527   3.750   5.583 -0.8047 -0.9646  0.2174
 8192TIP3    H246068   4.619   3.861   5.627 -0.7475 -0.3184 -1.4576
 8193TIP3   OH246069   2.186   3.591  14.187 -0.6351  0.6744  1.0173
 8193TIP3    H146070   2.267   3.579  14.138  0.1634  1.6903  2.0315
 8193TIP3    H246071   2.213   3.633  14.268 -1.8677 -1.2509  2.5078
 8194TIP3   OH246072   2.926   2.474   1.552 -0.3298  0.0123  0.4897
 8194TIP3    H146073   2.876   2.394   1.570  0.9162 -0.5814  1.4844
 8194TIP3    H246074   2.921   2.524   1.634  0.3653  0.1168  0.4745
 8195TIP3   OH246075   5.365   2.032   4.863  0.8728  0.3493 -0.1857
 8195TIP3    H146076   5.318   1.954   4.895  0.1726  0.8825  0.0984
 8195TIP3    H246077   5.457   2.006   4.867  0.8301  0.2858  2.1083
 8196TIP3   OH246078   0.396   5.874  13.321  0.1764 -0.0695  0.3291
 8196TIP3    H146079   0.468   5.935  13.339 -0.4594  1.2313 -1.2623
 8196TIP3    H246080   0.324   5.905  13.375 -0.3893  1.1439 -1.0523
 8197TIP3   OH246081   4.678   1.586   2.779 -0.3281 -0.2121  0.6943
 8197TIP3    H146082   4.596   1.632   2.796 -2.1132 -2.8877 -0.0274
 8197TIP3    H246083   4.730   1.599   2.858 -1.1644  2.0335  0.9465
 8198TIP3   OH246084   1.831   2.194   3.353  0.2835 -0.4414 -0.6189
 8198TIP3    H146085   1.847   2.150   3.437 -2.1642 -1.0212 -0.3999
 8198TIP3    H246086   1.739   2.178   3.334  0.5326  0.5137 -2.9693
 8199TIP3   OH246087   3.710   6.575   1.149 -0.3092 -0.1511  0.6765
 8199TIP3    H146088   3.674   6.577   1.060 -1.2352  1.9619  1.0246
 8199TIP3    H246089   3.729   6.483   1.165  1.0183 -0.4839 -2.1297
 8200TIP3   OH246090   5.855   4.218  13.251 -0.5452 -0.1344 -0.3726
 8200TIP3    H146091   5.947   4.197  13.235 -0.2414  0.1593  0.8933
 8200TIP3    H246092   5.822   4.247  13.166  0.9874  1.3867 -0.5110
 8201TIP3   OH246093   5.025   5.449  16.304 -0.2185 -0.9504 -0.2919
 8201TIP3    H146094   5.012   5.436  16.210  1.7367  0.5717 -0.8473
 8201TIP3    H246095   5.112   5.413  16.321 -0.2575 -0.5710  0.7945
 8202TIP3   OH246096   4.469   3.516   3.798 -0.0756 -0.6590 -0.0241
 8202TIP3    H146097   4.415   3.563   3.863 -2.0491 -1.8765 -0.6993
 8202TIP3    H246098   4.432   3.541   3.714  0.7026 -1.2259 -0.5447
 8203TIP3   OH246099   1.276   0.575  11.171  0.2039  0.1212  0.5281
 8203TIP3    H146100   1.320   0.638  11.114  0.5889 -0.4857  0.1556
 8203TIP3    H246101   1.342   0.548  11.234 -0.8138  2.5932  2.8487
 8204TIP3   OH246102   5.384   2.238  14.735 -1.1416  0.2190  0.2954
 8204TIP3    H146103   5.300   2.203  14.706 -2.1401  2.3233  0.5100
 8204TIP3    H246104   5.403   2.191  14.816 -2.2156 -0.1236  0.3605
 8205TIP3   OH246105   2.844   4.733   0.293 -0.0524 -0.0530 -0.0966
 8205TIP3    H146106   2.813   4.708   0.206  0.9770 -0.3089 -0.3948
 8205TIP3    H246107   2.876   4.651   0.331  0.0524  0.1664  0.2946
 8206TIP3   OH246108   6.529   4.119  11.878  0.2442  0.1070  0.3826
 8206TIP3    H146109   6.579   4.100  11.799  0.7582  0.2570  0.6664
 8206TIP3    H246110   6.437   4.112  11.851  0.4122 -1.1812  0.0971
 8207TIP3   OH246111   2.813   3.688  13.988 -0.1018 -0.3576  0.1115
 8207TIP3    H146112   2.756   3.756  13.954 -2.3943 -0.7489  2.7784
 8207TIP3    H246113   2.892   3.694  13.935  0.4494  5.2731  0.9406
 8208TIP3   OH246114   3.487   3.946  14.812  0.1672 -0.3789 -0.0420
 8208TIP3    H146115   3.582   3.951  14.814  0.1814  0.4411 -1.4908
 8208TIP3    H246116   3.461   4.008  14.744 -1.4542  0.0760  0.9281
 8209TIP3   OH246117   2.364   1.177   5.482  0.3064 -0.3430 -0.2723
 8209TIP3    H146118   2.360   1.272   5.483  1.4865 -0.2571 -0.8651
 8209TIP3    H246119   2.380   1.152   5.573  4.4246  0.3739 -0.5919
 8210TIP3   OH246120   5.470   2.253  11.555 -0.5987  0.1003 -0.6640
 8210TIP3    H146121   5.412   2.245  11.631 -1.9277  0.4983 -1.6116
 8210TIP3    H246122   5.463   2.169  11.510  1.0611 -0.5574  0.2180
 8211TIP3   OH246123   1.800   1.103   1.853 -0.3832  0.3100 -0.0561
 8211TIP3    H146124   1.763   1.127   1.939  0.4880 -0.8575  0.6645
 8211TIP3    H246125   1.888   1.072   1.872  0.1585  0.8706 -1.4957
 8212TIP3   OH246126   5.043   6.403   1.501  0.2635  0.6604  0.1628
 8212TIP3    H146127   5.104   6.332   1.481  0.3274  0.7776 -0.0689
 8212TIP3    H246128   4.961   6.378   1.457  0.5430  1.1484 -0.6706
 8213TIP3   OH246129   2.188   6.250  11.915 -0.1744 -0.5286  0.3034
 8213TIP3    H146130   2.137   6.284  11.988 -1.9523  0.9664 -1.5191
 8213TIP3    H246131   2.154   6.162  11.901 -0.1650 -0.6407  0.9485
 8214TIP3   OH246132   5.577   1.498  13.971 -0.2950  0.3794  0.4764
 8214TIP3    H146133   5.595   1.421  13.917  0.9692  0.6946  0.4008
 8214TIP3    H246134   5.493   1.531  13.939  0.1579  0.2461 -0.9323
 8215TIP3   OH246135   4.337   6.653   1.846 -0.1316 -0.1243 -0.1652
 8215TIP3    H146136   4.361   6.571   1.804  2.3891  0.0340  0.8158
 8215TIP3    H246137   4.415   6.708   1.839 -1.3441  1.7758  0.2796
 8216TIP3   OH246138   6.344   0.144  14.660 -0.1078  0.0454  0.1295
 8216TIP3    H146139   6.266   0.113  14.614 -1.3051  1.8634  0.8120
 8216TIP3    H246140   6.309   0.196  14.733  1.7508 -0.4693  1.4457
 8217TIP3   OH246141   1.794   4.640   3.074 -0.1038  0.1857 -0.0085
 8217TIP3    H146142   1.838   4.616   2.992  1.3185 -0.2112  0.8429
 8217TIP3    H246143   1.701   4.643   3.051  0.1403 -1.1866 -1.3309
 8218TIP3   OH246144   0.069   3.827   3.682  0.0153 -0.1042  0.2148
 8218TIP3    H146145   0.014   3.753   3.707  0.7331 -0.8028 -0.2396
 8218TIP3    H246146   0.158   3.801   3.707  0.2451  0.7077  0.2747
 8219TIP3   OH246147   4.772   5.738   1.414 -0.0045  0.1445 -0.5495
 8219TIP3    H146148   4.718   5.709   1.487 -0.8762 -0.2982 -1.3506
 8219TIP3    H246149   4.825   5.662   1.391  0.8068  0.5047  0.0770
 8220TIP3   OH246150   0.556   2.648   5.313 -0.0036  0.7012 -0.0753
 8220TIP3    H146151   0.505   2.730   5.316  1.7201  1.8432  2.9727
 8220TIP3    H246152   0.493   2.580   5.338 -0.6888  1.7029  1.0807
 8221TIP3   OH246153   6.431   6.557   4.321 -0.3282 -0.2434  0.7365
 8221TIP3    H146154   6.382   6.488   4.367  0.4619 -1.5309 -0.2846
 8221TIP3    H246155   6.366   6.599   4.264 -0.2659 -2.0685 -0.7635
 8222TIP3   OH246156   1.008   5.899  11.143 -0.0155 -0.3022 -0.5629
 8222TIP3    H146157   0.974   5.974  11.191 -0.2738 -0.4752 -0.4689
 8222TIP3    H246158   0.933   5.867  11.093 -0.4203 -1.5988  0.7875
 8223TIP3   OH246159   2.000   0.924   3.461  0.6909 -0.0958  0.4479
 8223TIP3    H146160   2.081   0.962   3.497  0.7892  0.5793 -0.4600
 8223TIP3    H246161   1.980   0.978   3.384 -0.2122 -0.7291  0.2234
 8224TIP3   OH246162   5.663   2.212   2.475  0.0799  0.5546 -0.2516
 8224TIP3    H146163   5.640   2.134   2.526  0.7132  0.1037 -0.6323
 8224TIP3    H246164   5.588   2.271   2.485 -1.3987 -0.9775 -1.7306
 8225TIP3   OH246165   4.659   3.656   1.927 -0.0507 -0.1628 -0.5334
 8225TIP3    H146166   4.723   3.612   1.871  0.6475  1.1437 -0.8068
 8225TIP3    H246167   4.692   3.746   1.935 -1.2992  0.2575  0.1905
 8226TIP3   OH246168   4.651   4.408  11.783  0.2339 -0.5080 -0.1928
 8226TIP3    H146169   4.560   4.387  11.763  0.4866 -0.0055 -2.1128
 8226TIP3    H246170   4.701   4.332  11.753  0.4338 -1.0711  1.4557
 8227TIP3   OH246171   0.090   0.622   1.888 -0.3253 -1.0110 -0.2271
 8227TIP3    H146172   0.185   0.613   1.879 -0.0151  0.8128  0.7714
 8227TIP3    H246173   0.071   0.583   1.974 -0.1632  0.3380  0.4464
 8228TIP3   OH246174   4.453   4.203   5.225 -0.6085  0.1413  0.3264
 8228TIP3    H146175   4.395   4.140   5.182 -0.3083 -0.4130  0.7077
 8228TIP3    H246176   4.509   4.148   5.280  0.6094  0.6274 -0.4112
 8229TIP3   OH246177   3.060   1.701  11.566 -0.2707 -0.2577  0.0021
 8229TIP3    H146178   3.022   1.649  11.496  1.0709 -0.0920 -0.8804
 8229TIP3    H246179   3.130   1.751  11.524  0.8586 -0.4874  1.5207
 8230TIP3   OH246180   4.336   2.462   2.794 -0.5394  0.6873 -0.1794
 8230TIP3    H146181   4.292   2.464   2.710 -1.3429  2.4249  0.2236
 8230TIP3    H246182   4.340   2.370   2.818 -2.0476  0.3148 -1.2226
 8231TIP3   OH246183   5.632   1.121   1.136  0.3239  0.4176 -0.4050
 8231TIP3    H146184   5.607   1.085   1.221 -0.4006  0.9669 -0.3671
 8231TIP3    H246185   5.684   1.053   1.095  0.9081  0.2510  0.5845
 8232TIP3   OH246186   0.307   5.523   0.796  0.1537 -0.2502  0.0182
 8232TIP3    H146187   0.357   5.585   0.743  0.7948 -0.9295 -0.1870
 8232TIP3    H246188   0.360   5.512   0.875  0.2100 -0.7779 -0.0879
 8233TIP3   OH246189   0.955   4.351   4.457 -0.1025  0.5393  0.4155
 8233TIP3    H146190   0.963   4.256   4.453  0.6358  0.5320  1.4030
 8233TIP3    H246191   1.019   4.377   4.524  0.8064  1.8733 -0.9100
 8234TIP3   OH246192   5.549   1.466  14.637 -0.2795 -0.1919 -0.8439
 8234TIP3    H146193   5.496   1.397  14.597  1.9245 -3.4369  1.2711
 8234TIP3    H246194   5.636   1.453  14.599  0.5215  0.4104  0.6971
 8235TIP3   OH246195   6.595   5.729  12.022  0.0864  0.6589 -0.1045
 8235TIP3    H146196   6.658   5.749  12.092 -1.0255  2.8241  0.3908
 8235TIP3    H246197   6.557   5.645  12.048  1.8470 -0.0677  0.2450
 8236TIP3   OH246198   2.107   2.246  11.893  0.5804 -0.5566 -0.0390
 8236TIP3    H146199   2.067   2.331  11.913  1.1491 -0.2848 -0.0290
 8236TIP3    H246200   2.069   2.186  11.957 -0.3145 -0.4491 -0.4647
 8237TIP3   OH246201   1.021   4.890  15.034  0.3571  0.6046 -0.2391
 8237TIP3    H146202   1.107   4.927  15.053  0.5479 -0.5193  1.3192
 8237TIP3    H246203   0.968   4.911  15.110 -0.3687  0.1520 -0.6035
 8238TIP3   OH246204   5.032   6.383   0.396 -0.7899  0.4067  0.2977
 8238TIP3    H146205   4.985   6.427   0.466  0.6248  1.4147  0.6715
 8238TIP3    H246206   5.084   6.453   0.355 -0.3800 -0.4672 -0.7181
 8239TIP3   OH246207   3.468   1.338  14.316 -0.4534  0.4152  0.4808
 8239TIP3    H146208   3.442   1.331  14.224  1.4436 -1.4593  0.0123
 8239TIP3    H246209   3.556   1.374  14.313 -0.3041  0.1540  1.5543
 8240TIP3   OH246210   6.322   3.949  11.433  0.4794 -0.0283  0.6163
 8240TIP3    H146211   6.339   4.009  11.505 -0.0384 -1.1443  1.6985
 8240TIP3    H246212   6.352   3.863  11.465 -0.4224 -0.6776 -0.2157
 8241TIP3   OH246213   1.676   0.800  10.648  0.5065 -0.2902 -0.3078
 8241TIP3    H146214   1.731   0.872  10.619  1.8268  0.0210  2.6153
 8241TIP3    H246215   1.599   0.842  10.687 -0.4208 -0.6389 -1.6799
 8242TIP3   OH246216   1.058   2.457   5.062  0.0884  0.2010  0.2308
 8242TIP3    H146217   1.146   2.436   5.031  0.9043  0.9354  1.9056
 8242TIP3    H246218   1.006   2.467   4.982  1.8418  1.1288 -0.8674
 8243TIP3   OH246219   1.404   5.749  14.813  0.7613  0.3726 -0.5405
 8243TIP3    H146220   1.324   5.798  14.835  2.0573  1.7276  1.4600
 8243TIP3    H246221   1.463   5.814  14.776  1.8317 -0.0396  0.3742
 8244TIP3   OH246222   6.088   0.334   0.288 -0.6997  0.3070 -0.0434
 8244TIP3    H146223   6.097   0.297   0.376 -1.3001  2.8883  1.2061
 8244TIP3    H246224   6.052   0.421   0.302 -2.6582  0.1393 -3.0196
 8245TIP3   OH246225   2.895   5.846   1.683  0.3439 -0.8614 -0.0950
 8245TIP3    H146226   2.936   5.927   1.714 -0.6010 -0.4082  0.0098
 8245TIP3    H246227   2.964   5.802   1.633  1.3359 -0.7368  1.1297
 8246TIP3   OH246228   2.920   0.513  14.971  0.4277  0.1198  0.6911
 8246TIP3    H146229   2.829   0.536  14.950  0.8294  1.4881  0.3329
 8246TIP3    H246230   2.950   0.585  15.028  2.1679  1.2967 -1.5747
 8247TIP3   OH246231   4.940   4.493  13.619  0.1362 -0.8296 -0.1486
 8247TIP3    H146232   4.848   4.466  13.630 -0.6047  0.6634 -2.0338
 8247TIP3    H246233   4.935   4.587  13.600  2.1564 -0.5270  0.5799
 8248TIP3   OH246234   6.103   6.313  15.367  0.3021 -0.0401  0.2358
 8248TIP3    H146235   6.027   6.279  15.414  0.5784  0.0843  0.7687
 8248TIP3    H246236   6.102   6.265  15.284 -0.5886  0.2500  0.0661
 8249TIP3   OH246237   5.389   2.914   5.974 -0.8911 -0.2342  0.1916
 8249TIP3    H146238   5.413   2.876   6.059  1.1937  1.2553  0.3521
 8249TIP3    H246239   5.373   3.007   5.993 -0.2324  0.1613 -1.0215
 8250TIP3   OH246240   4.933   1.339   1.395 -0.3761  0.4901 -0.3892
 8250TIP3    H146241   4.837   1.336   1.402 -0.4051 -0.4595 -1.0020
 8250TIP3    H246242   4.953   1.286   1.318  0.6165  1.1634 -0.6212
 8251TIP3   OH246243   5.116   3.335  11.084 -0.8423  0.0688 -0.3778
 8251TIP3    H146244   5.075   3.298  11.007  0.7237 -1.4699 -0.5296
 8251TIP3    H246245   5.181   3.270  11.111  0.2512  1.5948  0.8768
 8252TIP3   OH246246   5.678   3.865  12.965 -0.4697  0.4595  0.0715
 8252TIP3    H146247   5.719   3.951  12.970 -1.7721  1.1625 -0.7876
 8252TIP3    H246248   5.668   3.837  13.056 -0.4195  1.4031  0.3695
 8253TIP3   OH246249   1.952   0.357  11.150  0.2927  0.1624 -0.1273
 8253TIP3    H146250   1.943   0.322  11.061  0.3850  1.0709 -0.5000
 8253TIP3    H246251   2.005   0.435  11.140 -0.9970  1.1659  0.4934
 8254TIP3   OH246252   0.442   5.418  17.041  0.2532 -0.2008 -0.4205
 8254TIP3    H146253   0.513   5.353  17.033  0.3403 -0.0959 -0.4980
 8254TIP3    H246254   0.485   5.497  17.073  0.4518  0.3554 -1.9855
 8255TIP3   OH246255   5.550   0.400  14.526 -0.3334 -0.3744 -0.3872
 8255TIP3    H146256   5.577   0.357  14.445 -1.5215 -0.2773 -0.8608
 8255TIP3    H246257   5.464   0.362  14.545 -0.1499 -0.2617  0.7369
 8256TIP3   OH246258   6.712   1.207   5.602 -0.3794  0.1425 -0.2841
 8256TIP3    H146259   6.727   1.297   5.572 -2.3474 -0.3521 -3.1803
 8256TIP3    H246260   6.657   1.217   5.680  1.5339  1.4351  0.9827
 8257TIP3   OH246261   0.346   4.298   0.059  0.0958 -0.5695  0.3134
 8257TIP3    H146262   0.271   4.328   0.008  0.8639 -0.3326 -0.6999
 8257TIP3    H246263   0.318   4.213   0.094 -1.5904  0.6495  2.1086
 8258TIP3   OH246264   4.800   2.217   5.506 -0.7312 -0.6548 -0.6204
 8258TIP3    H146265   4.833   2.157   5.439 -1.2054 -0.5965 -0.9130
 8258TIP3    H246266   4.755   2.286   5.457 -0.4345 -0.2015 -0.2750
 8259TIP3   OH246267   3.254   2.562   1.935  0.5980  0.5125  0.0073
 8259TIP3    H146268   3.235   2.493   1.999  1.7575 -0.2788 -0.4781
 8259TIP3    H246269   3.170   2.608   1.924 -0.1226 -0.6171  0.5758
 8260TIP3   OH246270   2.352   3.923  16.046 -0.3588 -0.6176  0.9549
 8260TIP3    H146271   2.304   3.996  16.007  2.5213  0.0775 -1.6893
 8260TIP3    H246272   2.302   3.845  16.020 -0.7554  0.1249 -0.6262
 8261TIP3   OH246273   3.303   6.232  16.260  0.1101  0.0525 -0.4354
 8261TIP3    H146274   3.396   6.252  16.269  0.5251 -1.1605 -1.7162
 8261TIP3    H246275   3.300   6.141  16.231 -1.4098  0.4478 -1.7053
 8262TIP3   OH246276   4.472   5.323  14.599  0.1809  0.1763  0.2208
 8262TIP3    H146277   4.397   5.358  14.647  1.1678  0.1282  1.8903
 8262TIP3    H246278   4.460   5.228  14.602  0.1464  0.1811  0.2379
 8263TIP3   OH246279   4.728   4.386   3.246 -0.7022  0.0236  0.2342
 8263TIP3    H146280   4.720   4.338   3.164 -0.0538  0.3758 -0.0473
 8263TIP3    H246281   4.681   4.333   3.310 -0.3639 -0.7605 -0.1555
 8264TIP3   OH246282   3.831   2.015   0.642  0.0350 -0.5341  0.2261
 8264TIP3    H146283   3.735   2.018   0.638 -0.0004 -1.8431 -1.7399
 8264TIP3    H246284   3.859   2.093   0.594 -0.0466 -0.3614  0.4573
 8265TIP3   OH246285   0.579   6.381  15.296 -0.5300  0.0623  0.1571
 8265TIP3    H146286   0.592   6.340  15.382  0.1428 -0.7164 -0.3016
 8265TIP3    H246287   0.486   6.369  15.278 -0.6158 -0.0363  0.6374
 8266TIP3   OH246288   2.749   5.585   5.178 -0.2836  0.2696 -0.4671
 8266TIP3    H146289   2.844   5.586   5.169 -0.3937 -0.5496 -1.9220
 8266TIP3    H246290   2.735   5.549   5.266  0.7468  2.3577  0.6278
 8267TIP3   OH246291   2.880   6.284  15.173  0.1474 -0.1224  0.6698
 8267TIP3    H146292   2.910   6.372  15.196  0.1519 -0.0176  0.2861
 8267TIP3    H246293   2.918   6.269  15.086 -1.8344  0.4887 -0.3726
 8268TIP3   OH246294   6.091   3.327  13.763  0.2119  0.0322 -0.2506
 8268TIP3    H146295   6.084   3.327  13.859 -0.1208 -1.2825 -0.2530
 8268TIP3    H246296   6.185   3.336  13.746  0.7628 -3.2068  0.3356
 8269TIP3   OH246297   3.971   1.270  15.199 -0.0791  0.5362 -0.6307
 8269TIP3    H146298   4.052   1.218  15.200 -0.5098 -0.1481  0.1508
 8269TIP3    H246299   3.999   1.358  15.222  0.3003  0.0263  1.0051
 8270TIP3   OH246300   4.374   3.346   5.079 -0.5946 -0.2484 -0.0620
 8270TIP3    H146301   4.428   3.424   5.095  0.0300 -0.4080 -1.2577
 8270TIP3    H246302   4.304   3.352   5.143  0.0642  0.7171  0.6023
 8271TIP3   OH246303   0.814   1.048  11.589 -0.0781 -0.1208  0.6289
 8271TIP3    H146304   0.824   1.055  11.494 -0.0304 -2.0759  0.4491
 8271TIP3    H246305   0.893   1.088  11.625 -0.8472  2.2064 -0.0267
 8272TIP3   OH246306   5.781   2.809   4.852  0.0156  0.1564  0.0730
 8272TIP3    H146307   5.765   2.715   4.845  0.7215  0.0536 -0.1829
 8272TIP3    H246308   5.869   2.821   4.817 -0.7568  1.1726 -1.6266
 8273TIP3   OH246309   5.322   4.703  13.006 -0.0149 -0.0823  0.2860
 8273TIP3    H146310   5.345   4.699  12.913 -1.3726 -0.8250 -0.0544
 8273TIP3    H246311   5.350   4.790  13.034 -0.2232  0.4279 -1.0073
 8274TIP3   OH246312   5.519   0.796   2.002 -0.0025  0.4564 -0.2751
 8274TIP3    H146313   5.547   0.835   2.085 -0.1623  0.3875 -0.1873
 8274TIP3    H246314   5.430   0.764   2.019 -0.1099  0.6151 -0.5304
 8275TIP3   OH246315   1.965   0.295   2.445  0.0663 -0.4889 -1.0455
 8275TIP3    H146316   1.870   0.303   2.448  0.2318  3.0181  0.3848
 8275TIP3    H246317   1.992   0.362   2.382  1.6031 -1.1096 -1.0763
 8276TIP3   OH246318   4.313   3.030  12.856  0.0390  0.7491  0.7044
 8276TIP3    H146319   4.256   3.091  12.903  1.5910  1.3707  1.8699
 8276TIP3    H246320   4.270   3.017  12.771 -1.1645  2.1774  1.0582
 8277TIP3   OH246321   3.490   6.570  12.484  0.7456 -0.1417 -0.7658
 8277TIP3    H146322   3.483   6.573  12.579  2.3417 -0.1189 -0.6209
 8277TIP3    H246323   3.536   6.488  12.465 -0.5203 -0.6976 -1.6091
 8278TIP3   OH246324   2.567   1.467  12.086 -0.3726  0.4689 -0.2263
 8278TIP3    H146325   2.514   1.537  12.048 -2.2844  0.5781  2.2996
 8278TIP3    H246326   2.626   1.512  12.146  1.4404  0.1813 -1.7056
 8279TIP3   OH246327   1.155   5.424   0.685 -0.3398  0.2553 -0.4232
 8279TIP3    H146328   1.221   5.493   0.679  0.3573 -0.4080 -0.6032
 8279TIP3    H246329   1.137   5.416   0.779  0.7527 -0.3902 -0.2520
 8280TIP3   OH246330   2.735   5.875  16.767  0.3117 -0.1978  0.9584
 8280TIP3    H146331   2.755   5.954  16.716 -3.0180  0.2773  0.1690
 8280TIP3    H246332   2.821   5.836  16.784  1.8588  0.2212 -4.0188
 8281TIP3   OH246333   3.629   1.021  11.992  0.4516  0.3795  0.3108
 8281TIP3    H146334   3.620   0.926  11.989 -0.3418  0.4640 -0.2939
 8281TIP3    H246335   3.576   1.049  12.066  0.6444  0.3569  0.4575
 8282TIP3   OH246336   0.712   5.676  12.438  0.1661  0.4992 -0.4327
 8282TIP3    H146337   0.776   5.608  12.459  0.1355 -0.1795 -2.3355
 8282TIP3    H246338   0.764   5.753  12.415  0.2631  0.3719 -0.6367
 8283TIP3   OH246339   1.264   3.564  16.061 -0.6626  0.2988 -0.3939
 8283TIP3    H146340   1.171   3.584  16.069 -0.4883  0.6235  0.9598
 8283TIP3    H246341   1.269   3.469  16.069 -0.6958  0.4430  1.7010
 8284TIP3   OH246342   4.913   6.655   3.287 -0.0027  0.4474  0.3068
 8284TIP3    H146343   4.820   6.674   3.279 -0.3023 -0.5138  1.2464
 8284TIP3    H246344   4.953   6.696   3.210 -1.6382 -2.0502 -2.0415
 8285TIP3   OH246345   2.092   4.923  12.634  0.2509  0.2944  0.7773
 8285TIP3    H146346   2.089   4.842  12.583  2.2035  0.3021  0.5554
 8285TIP3    H246347   2.085   4.895  12.725 -0.3256 -0.0003  0.6422
 8286TIP3   OH246348   3.523   3.297   1.965 -0.0841  0.5913  0.0247
 8286TIP3    H146349   3.526   3.325   2.056  1.7345 -1.3614  0.6353
 8286TIP3    H246350   3.550   3.206   1.967  2.8342  1.2139 -2.7319
 8287TIP3   OH246351   0.005   1.936   1.467 -0.3483 -0.0878 -0.2223
 8287TIP3    H146352  -0.017   2.020   1.508  0.1732 -0.7888  1.5848
 8287TIP3    H246353  -0.064   1.876   1.497  0.2376 -0.6962 -0.0617
 8288TIP3   OH246354   0.649   5.138  16.519  0.1419  0.4526  0.2799
 8288TIP3    H146355   0.662   5.069  16.584 -1.9479 -2.8945 -2.4923
 8288TIP3    H246356   0.574   5.187  16.552  0.0886 -0.2051  1.1701
 8289TIP3   OH246357   3.084   4.176   5.696  0.6047 -0.2507  0.6813
 8289TIP3    H146358   3.070   4.241   5.765  1.5459  0.9567 -0.2074
 8289TIP3    H246359   3.108   4.228   5.619  1.3831 -1.6548 -0.0739
 8290TIP3   OH246360   2.225   5.521  15.454 -0.1130 -0.0658 -0.3694
 8290TIP3    H146361   2.320   5.532  15.462 -0.3588  1.4230  1.1625
 8290TIP3    H246362   2.214   5.435  15.413  1.8865 -0.2753 -0.5742
 8291TIP3   OH246363   5.378   5.905  12.740 -0.3459  0.0264 -0.4782
 8291TIP3    H146364   5.429   5.831  12.773 -1.3799 -0.4972 -0.0068
 8291TIP3    H246365   5.322   5.930  12.814  0.0938  1.3857 -0.5816
 8292TIP3   OH246366   2.788   0.722  14.494 -0.1681 -0.0066 -0.2194
 8292TIP3    H146367   2.788   0.674  14.576 -1.8293 -0.1986 -0.3109
 8292TIP3    H246368   2.717   0.785  14.502  0.1587  0.5163 -1.2072
 8293TIP3   OH246369   3.575   3.995   2.741  0.3994 -0.3418  0.1052
 8293TIP3    H146370   3.480   4.007   2.750  0.4545 -0.0743  0.3339
 8293TIP3    H246371   3.597   3.924   2.802  0.1301 -1.3920 -0.9796
 8294TIP3   OH246372   1.808   0.621   4.031  0.0184 -0.0344 -0.2525
 8294TIP3    H146373   1.725   0.652   4.067 -0.4529 -0.0554 -1.3062
 8294TIP3    H246374   1.869   0.693   4.047 -0.5658  0.5954 -0.8207
 8295TIP3   OH246375   5.953   3.752   1.819  0.2283 -0.0630  0.1232
 8295TIP3    H146376   6.047   3.738   1.828  0.5265  1.5800 -0.1159
 8295TIP3    H246377   5.928   3.802   1.896 -0.1076  0.9594 -0.6189
 8296TIP3   OH246378   5.048   0.320  13.586 -0.3612 -0.2369  0.0896
 8296TIP3    H146379   4.956   0.346  13.575 -0.3013  0.6520  1.4873
 8296TIP3    H246380   5.076   0.295  13.498 -2.1494 -1.2599 -0.2460
 8297TIP3   OH246381   6.261   2.860  10.555 -0.0013  0.5609 -0.1021
 8297TIP3    H146382   6.344   2.873  10.602 -0.2304  0.5683  0.2999
 8297TIP3    H246383   6.268   2.772  10.519  0.0709  0.4605  0.1549
 8298TIP3   OH246384   4.302   1.840  12.309  0.0208 -0.3760 -0.0235
 8298TIP3    H146385   4.320   1.781  12.236 -1.7850 -0.4204 -0.4944
 8298TIP3    H246386   4.285   1.781  12.383 -0.3805 -0.4097 -0.1402
 8299TIP3   OH246387   4.730   6.704   1.359 -0.0171 -0.2417 -0.0931
 8299TIP3    H146388   4.638   6.730   1.369 -0.5258 -1.8153 -0.3349
 8299TIP3    H246389   4.774   6.782   1.325 -1.2590  0.5515  0.0602
 8300TIP3   OH246390   0.840   4.007  14.807 -0.5982 -0.0551  0.0395
 8300TIP3    H146391   0.866   4.064  14.880  0.1292  1.1786 -1.1247
 8300TIP3    H246392   0.749   4.032  14.790 -1.4134 -1.6585  1.6493
 8301TIP3   OH246393   3.332   3.980   4.233  0.3729 -0.3952  0.4592
 8301TIP3    H146394   3.341   4.026   4.316  1.4178 -0.8254  0.5922
 8301TIP3    H246395   3.419   3.946   4.214 -0.5234 -3.1260  0.8143
 8302TIP3   OH246396   6.671   2.826   0.931  0.1512  0.1738  0.1963
 8302TIP3    H146397   6.639   2.761   0.995 -0.9622  0.2109 -0.2864
 8302TIP3    H246398   6.740   2.873   0.977 -0.8372  0.4144  1.4963
 8303TIP3   OH246399   5.090   0.310   3.226 -0.5412  0.0761 -0.2795
 8303TIP3    H146400   5.101   0.397   3.186  0.2054 -0.4778 -1.3244
 8303TIP3    H246401   5.035   0.262   3.164  1.3953 -1.0981 -1.2125
 8304TIP3   OH246402   4.063   0.424   2.567  0.0829 -0.2585  0.6056
 8304TIP3    H146403   4.121   0.442   2.641  0.0392  2.2977  0.1061
 8304TIP3    H246404   3.996   0.492   2.572 -1.6426 -1.8308 -0.0929
 8305TIP3   OH246405   2.543   3.382  12.545 -0.5993  0.1615 -0.2264
 8305TIP3    H146406   2.591   3.420  12.620 -1.9680 -0.1392  0.8398
 8305TIP3    H246407   2.557   3.445  12.474 -0.7822  1.4098  0.7978
 8306TIP3   OH246408   1.582   4.504  12.115  0.2470 -0.6037  0.2858
 8306TIP3    H146409   1.645   4.568  12.083  0.3071  0.0318  1.6080
 8306TIP3    H246410   1.536   4.474  12.037  0.4086  0.8366 -0.3897
 8307TIP3   OH246411   5.029   6.334   3.707 -0.5804 -0.5072  0.6042
 8307TIP3    H146412   5.051   6.384   3.785  2.3770 -1.5835  0.5873
 8307TIP3    H246413   4.998   6.399   3.645 -1.3190  0.6088  2.0642
 8308TIP3   OH246414   4.435   0.157   1.846  0.0120 -0.0650  0.3976
 8308TIP3    H146415   4.397   0.206   1.919 -1.7211  0.4422 -0.7740
 8308TIP3    H246416   4.458   0.224   1.782  1.7645 -0.4833  0.5459
 8309TIP3   OH246417   0.199   0.278   6.016 -0.1859 -0.0236  0.5217
 8309TIP3    H146418   0.176   0.204   5.960 -1.6944  2.1844 -2.0694
 8309TIP3    H246419   0.288   0.302   5.989 -0.2073 -0.0879  0.3953
 8310TIP3   OH246420   5.790   2.536   0.692  0.1432  0.2171  0.1705
 8310TIP3    H146421   5.722   2.603   0.687 -2.1407 -2.0056 -0.5560
 8310TIP3    H246422   5.808   2.527   0.785  0.9026  2.1442  0.2582
 8311TIP3   OH246423   1.016   0.997   4.886 -0.5446 -0.1721 -0.5043
 8311TIP3    H146424   0.980   1.035   4.966 -1.4106  0.7870 -1.3119
 8311TIP3    H246425   1.026   0.904   4.905  1.3946  0.3429  1.4602
 8312TIP3   OH246426   0.013   6.740   3.497 -0.0596  0.1233 -0.0711
 8312TIP3    H146427   0.041   6.751   3.406 -0.3445 -0.0964 -0.1896
 8312TIP3    H246428  -0.045   6.663   3.495 -0.8560  0.7079  0.1177
 8313TIP3   OH246429   1.112   4.993   1.307  0.1398  0.0973 -0.4625
 8313TIP3    H146430   1.106   5.003   1.402 -0.9218 -0.7529 -0.4216
 8313TIP3    H246431   1.206   5.002   1.288  0.2973  0.8656  0.5806
 8314TIP3   OH246432   4.459   3.720  11.062 -0.2093 -0.2185  0.0026
 8314TIP3    H146433   4.412   3.803  11.064  1.4838  0.8059 -0.4299
 8314TIP3    H246434   4.469   3.700  10.969 -0.0752 -0.5926  0.0928
 8315TIP3   OH246435   1.019   5.071  13.873  0.0494  0.3744  0.0349
 8315TIP3    H146436   1.017   5.105  13.963  0.7460  1.2661 -0.2726
 8315TIP3    H246437   0.978   5.139  13.820  0.1644  0.1037 -0.4106
 8316TIP3   OH246438   5.085   5.760  16.887 -0.0932 -0.3960  0.7929
 8316TIP3    H146439   5.082   5.815  16.965 -3.2758 -0.0772  0.5703
 8316TIP3    H246440   5.072   5.820  16.814 -0.7665 -1.0813  0.3289
 8317TIP3   OH246441   0.425   1.705  14.636  0.5933 -0.3439 -0.5001
 8317TIP3    H146442   0.440   1.630  14.694  1.4141 -0.6784 -1.1367
 8317TIP3    H246443   0.390   1.773  14.694  0.5222 -0.9759  0.2155
 8318TIP3   OH246444   2.979   4.368   2.506  0.3111 -0.0738 -0.1655
 8318TIP3    H146445   2.956   4.394   2.417  1.0339 -0.8376 -0.5865
 8318TIP3    H246446   2.995   4.451   2.552 -2.8394  0.5215  0.0862
 8319TIP3   OH246447   0.307   0.533   5.629 -0.7055 -0.2323 -0.0374
 8319TIP3    H146448   0.364   0.465   5.594 -1.4762 -0.2830 -1.2505
 8319TIP3    H246449   0.345   0.615   5.595 -0.5343 -0.1472  0.3479
 8320TIP3   OH246450   6.076   3.072  14.539 -0.5317  0.1431  0.0131
 8320TIP3    H146451   6.064   3.062  14.444  0.3373  1.7480 -0.3024
 8320TIP3    H246452   6.000   3.027  14.578 -0.6572 -0.9592 -1.4007
 8321TIP3   OH246453   4.369   6.114  14.138 -0.3523 -0.2195 -0.2638
 8321TIP3    H146454   4.459   6.136  14.116 -0.3206 -0.5503 -0.4694
 8321TIP3    H246455   4.376   6.051  14.210 -0.3587 -1.6238 -1.4577
 8322TIP3   OH246456   4.292   2.894   4.223 -0.6472  0.1344 -0.0288
 8322TIP3    H146457   4.261   2.901   4.313  0.3874  0.7900  0.3009
 8322TIP3    H246458   4.303   2.800   4.209  0.3654  0.0764  0.9691
 8323TIP3   OH246459   3.382   6.589  11.908 -0.3957  0.1160  0.1474
 8323TIP3    H146460   3.345   6.578  11.820 -0.8469 -0.6889  0.4279
 8323TIP3    H246461   3.476   6.600  11.893  0.0512 -3.1413 -0.3173
 8324TIP3   OH246462   6.471   2.597  10.223 -0.5064  0.2990 -0.0411
 8324TIP3    H146463   6.497   2.657  10.153  1.8427 -1.2433 -0.6056
 8324TIP3    H246464   6.408   2.538  10.181  0.7536 -0.5089 -0.8877
 8325TIP3   OH246465   2.070   6.838  14.736 -0.2834 -0.0225  0.5086
 8325TIP3    H146466   2.160   6.807  14.739  0.5636  2.1054 -0.3491
 8325TIP3    H246467   2.023   6.771  14.688  0.7371 -1.3722  1.3355
 8326TIP3   OH246468   5.447   4.929  15.479  0.2645  0.7233  0.8073
 8326TIP3    H146469   5.381   4.995  15.503 -1.3218  0.3245 -1.9896
 8326TIP3    H246470   5.397   4.847  15.474  1.1673  0.2141 -0.3413
 8327TIP3   OH246471   4.131   4.278  11.313  0.3029 -0.4638  0.1443
 8327TIP3    H146472   4.165   4.226  11.241  0.5521 -1.7847  1.1695
 8327TIP3    H246473   4.036   4.269  11.308  0.3177 -0.4954 -0.0679
 8328TIP3   OH246474   0.577   3.399   4.053 -0.0588 -0.2671 -0.3199
 8328TIP3    H146475   0.503   3.424   3.999 -1.3836 -0.5966  1.2408
 8328TIP3    H246476   0.643   3.467   4.038 -0.3197 -0.4049 -2.3493
 8329TIP3   OH246477   6.695   5.726  13.705  0.6090  0.2391  0.4642
 8329TIP3    H146478   6.605   5.757  13.700  1.0508  1.3665 -1.8617
 8329TIP3    H246479   6.725   5.752  13.792 -1.2010  0.0544  1.1908
 8330TIP3   OH246480   2.949   4.672   4.391 -0.1297 -0.0971 -0.4365
 8330TIP3    H146481   3.007   4.742   4.360 -1.3846  1.0822 -0.2350
 8330TIP3    H246482   2.970   4.664   4.485  0.8271 -0.8378 -0.6916
 8331TIP3   OH246483   3.336   2.144  15.496  0.5847  0.0648 -0.6816
 8331TIP3    H146484   3.426   2.138  15.527  0.5195 -2.7816 -0.8047
 8331TIP3    H246485   3.344   2.164  15.403  1.0551  0.3203 -0.5892
 8332TIP3   OH246486   1.141   2.983   5.576 -0.7223 -0.1080 -0.1119
 8332TIP3    H146487   1.214   3.036   5.545  1.3606 -0.6756  3.2878
 8332TIP3    H246488   1.146   2.903   5.524 -0.0132  0.5521 -1.0950
 8333TIP3   OH246489   4.159   2.399  11.158 -0.9117 -0.0491 -0.0936
 8333TIP3    H146490   4.212   2.331  11.116 -1.0687 -1.5215  1.9523
 8333TIP3    H246491   4.070   2.363  11.160 -0.5437 -1.1585  3.4470
 8334TIP3   OH246492   1.112   4.677  10.757  0.5043  0.1019 -0.6222
 8334TIP3    H146493   1.204   4.688  10.782  0.4874 -0.0205 -0.5031
 8334TIP3    H246494   1.102   4.582  10.748  0.3777  0.1128 -0.5890
 8335TIP3   OH246495   3.405   6.809   0.756 -0.2852  0.2548 -0.3746
 8335TIP3    H146496   3.472   6.764   0.705 -0.6163 -1.0564  0.3107
 8335TIP3    H246497   3.399   6.896   0.716  0.6977 -0.1414 -1.4375
 8336TIP3   OH246498   5.092   6.806  13.523 -0.4793 -0.0901 -0.3338
 8336TIP3    H146499   5.052   6.838  13.603  0.8625  1.0894 -0.0989
 8336TIP3    H246500   5.107   6.885  13.470  1.1698 -0.5210 -0.5558
 8337TIP3   OH246501   3.927   0.477  12.854  0.0315  0.3202 -0.1924
 8337TIP3    H146502   3.850   0.531  12.873 -0.5009  0.7653 -3.1906
 8337TIP3    H246503   3.988   0.536  12.809  1.2115 -0.5913  0.1412
 8338TIP3   OH246504   1.184   0.540   0.737 -0.2446  0.2229  0.1079
 8338TIP3    H146505   1.255   0.527   0.674 -0.9349 -0.9498 -0.4707
 8338TIP3    H246506   1.106   0.508   0.692 -1.3638  2.4240  0.3326
 8339TIP3   OH246507   2.575   3.481   2.600  0.3233 -0.3506 -0.3626
 8339TIP3    H146508   2.563   3.441   2.514 -0.3018 -0.0301 -0.4343
 8339TIP3    H246509   2.616   3.413   2.653  0.0778 -0.7893 -0.7278
 8340TIP3   OH246510   0.572   2.039   0.401 -0.2414 -0.2180  0.4803
 8340TIP3    H146511   0.660   2.076   0.406  0.3238 -1.5968  1.4664
 8340TIP3    H246512   0.537   2.049   0.489 -1.2312  0.6312  0.0120
 8341TIP3   OH246513   5.879   0.971  12.171  0.4630  0.6071 -0.3116
 8341TIP3    H146514   5.788   0.975  12.202 -0.1116  0.0545 -1.8523
 8341TIP3    H246515   5.928   1.022  12.236 -1.1854  2.2984 -0.2986
 8342TIP3   OH246516   0.439   1.711  14.352 -0.2459 -0.0893 -0.0158
 8342TIP3    H146517   0.437   1.727  14.446 -0.6303 -1.1100  0.1691
 8342TIP3    H246518   0.476   1.790  14.315  0.8400 -0.0571  1.0829
 8343TIP3   OH246519   5.602   6.465   2.321  0.2390 -0.0834 -0.7028
 8343TIP3    H146520   5.575   6.505   2.404  0.8843  1.5428 -1.2369
 8343TIP3    H246521   5.520   6.451   2.274 -0.0170  0.6185 -0.4852
 8344TIP3   OH246522   4.151   1.180   4.191  0.4525 -0.1694  0.5328
 8344TIP3    H146523   4.067   1.216   4.163  0.4798 -1.9363 -2.3018
 8344TIP3    H246524   4.137   1.152   4.281 -0.5523  3.5385  1.6848
 8345TIP3   OH246525   4.323   3.280   5.999  0.3193 -0.0763 -0.3553
 8345TIP3    H146526   4.341   3.209   6.062 -2.4980  0.0415  0.7388
 8345TIP3    H246527   4.337   3.360   6.049  0.2457  0.0674 -0.5634
 8346TIP3   OH246528   5.762   6.411  14.798  0.7279 -0.3588  0.2991
 8346TIP3    H146529   5.760   6.507  14.794  0.1466 -0.3872 -0.0877
 8346TIP3    H246530   5.852   6.391  14.826  0.5333  0.3297  1.4632
 8347TIP3   OH246531   5.622   6.643  12.329 -0.0150  0.7855  0.1289
 8347TIP3    H146532   5.630   6.639  12.233  0.9590  1.0393  0.1830
 8347TIP3    H246533   5.602   6.553  12.355  0.1843  0.6147 -0.2832
 8348TIP3   OH246534   4.257   5.359  16.909  0.1516 -0.0341  0.2741
 8348TIP3    H146535   4.180   5.408  16.883  0.6202 -0.4926 -2.3064
 8348TIP3    H246536   4.331   5.413  16.881  0.6882 -1.2228 -0.7272
 8349TIP3   OH246537   6.795   1.409   1.964  0.2324 -0.4727 -0.3467
 8349TIP3    H146538   6.817   1.326   2.007  0.8378  1.1851  2.8349
 8349TIP3    H246539   6.701   1.421   1.981  0.6019  0.4853  1.2153
 8350TIP3   OH246540   2.147   3.549  16.255  0.7120  0.5124  0.3445
 8350TIP3    H146541   2.082   3.518  16.192  1.0890 -0.7555  0.5601
 8350TIP3    H246542   2.098   3.610  16.310 -0.1962 -0.0809  0.2250
 8351TIP3   OH246543   5.395   6.675   0.496  0.5050 -0.5198 -0.5353
 8351TIP3    H146544   5.390   6.634   0.582 -4.5710 -0.2032 -0.3325
 8351TIP3    H246545   5.415   6.767   0.515  1.9492 -0.9253  0.0045
 8352TIP3   OH246546   0.588   6.387  15.023 -0.2207 -0.3909 -0.3250
 8352TIP3    H146547   0.594   6.398  15.118 -0.3266 -1.8057 -0.1254
 8352TIP3    H246548   0.666   6.336  15.000  0.2866  0.7072 -1.1586
 8353TIP3   OH246549   5.914   2.132   4.778 -0.0016  0.6319 -0.4922
 8353TIP3    H146550   6.006   2.125   4.751 -0.5207 -1.3640 -2.0245
 8353TIP3    H246551   5.874   2.191   4.714 -0.0016  0.6434 -0.4812
 8354TIP3   OH246552   6.000   4.799   4.048 -0.1796  0.1494 -0.4746
 8354TIP3    H146553   6.061   4.779   3.977  0.5207 -0.7753  0.3558
 8354TIP3    H246554   5.985   4.893   4.040  0.9438  0.3075 -1.0369
 8355TIP3   OH246555   0.916   3.107   4.894  0.3991  0.1292  0.4402
 8355TIP3    H146556   0.840   3.053   4.871 -0.0431  1.8936 -2.9255
 8355TIP3    H246557   0.879   3.190   4.923  0.9850  0.7680 -0.5741
 8356TIP3   OH246558   6.521   5.512   5.452 -0.4237 -0.5793  0.4354
 8356TIP3    H146559   6.496   5.420   5.459  0.3248 -0.9902 -1.7020
 8356TIP3    H246560   6.613   5.514   5.476 -0.7836 -0.0984  1.9288
 8357TIP3   OH246561   0.583   2.013  10.747 -0.1317  0.5978 -0.0758
 8357TIP3    H146562   0.506   1.984  10.795  0.2087 -1.7106 -0.7776
 8357TIP3    H246563   0.656   1.971  10.793  0.6205  1.9310 -0.0226
 8358TIP3   OH246564   2.977   4.582   4.655  0.5314  0.4957  0.0847
 8358TIP3    H146565   2.966   4.489   4.638 -1.0274  0.6059  0.3895
 8358TIP3    H246566   2.955   4.594   4.747  3.4351  0.7899  0.8587
 8359TIP3   OH246567   5.593   0.692  12.575 -0.3601 -0.1244 -0.0850
 8359TIP3    H146568   5.554   0.732  12.653 -2.2473 -1.7972 -0.0834
 8359TIP3    H246569   5.664   0.638  12.609  0.1860  0.7799  0.2349
 8360TIP3   OH246570   5.260   0.740  11.862  0.5223  0.3163 -0.6143
 8360TIP3    H146571   5.244   0.822  11.908 -0.9132 -0.9300  1.2371
 8360TIP3    H246572   5.173   0.705  11.844  1.0872 -1.5767  0.1125
 8361TIP3   OH246573   6.551   4.635  12.573 -0.2655 -0.3361 -0.5503
 8361TIP3    H146574   6.499   4.592  12.505  0.3155 -0.5465 -0.8612
 8361TIP3    H246575   6.641   4.610  12.554 -0.0413  0.0896 -0.0530
 8362TIP3   OH246576   2.938   6.569  14.369 -0.4578  0.1004  0.4013
 8362TIP3    H146577   3.024   6.539  14.398 -0.8532 -1.1452  0.3271
 8362TIP3    H246578   2.883   6.564  14.447 -0.9897 -1.2063 -0.0365
 8363TIP3   OH246579   0.659   6.580   0.005  0.0713 -0.7905  0.1758
 8363TIP3    H146580   0.626   6.667   0.027  0.1041 -0.8535  0.4793
 8363TIP3    H246581   0.586   6.538  -0.041 -1.0230 -1.6205  2.5157
 8364TIP3   OH246582   0.827   3.386  13.648  0.1308 -0.7704  0.2265
 8364TIP3    H146583   0.805   3.293  13.649  3.2032 -1.5914  0.8072
 8364TIP3    H246584   0.778   3.424  13.721 -1.0932 -1.9345  0.0270
 8365TIP3   OH246585   4.881   1.771  13.518 -0.3227 -0.3394  0.3703
 8365TIP3    H146586   4.821   1.698  13.532 -1.1393  0.0409 -1.0162
 8365TIP3    H246587   4.932   1.747  13.441  1.6061 -0.8082  1.7137
 8366TIP3   OH246588   6.235   2.364   0.569 -0.3685 -0.2700 -0.1773
 8366TIP3    H146589   6.319   2.402   0.540 -0.2539 -0.6972 -0.3985
 8366TIP3    H246590   6.194   2.435   0.619  1.3284 -0.8720  2.2789
 8367TIP3   OH246591   0.177   1.407   4.450 -0.3674  0.0651  0.0844
 8367TIP3    H146592   0.262   1.368   4.470 -0.0538 -0.7973 -2.4925
 8367TIP3    H246593   0.195   1.500   4.434 -0.2416  0.2474  1.2047
 8368TIP3   OH246594   2.356   0.363  12.829 -0.1610 -0.3739 -0.4900
 8368TIP3    H146595   2.358   0.423  12.754  0.2540 -1.0902 -1.0571
 8368TIP3    H246596   2.301   0.290  12.800  1.7169 -1.6733 -0.8974
 8369TIP3   OH246597   2.494   5.682   4.098 -0.1407  0.1817  0.1379
 8369TIP3    H146598   2.437   5.686   4.021 -0.5396 -2.1304  0.2337
 8369TIP3    H246599   2.435   5.669   4.171  0.3730 -0.5458  0.4466
 8370TIP3   OH246600   3.934   4.836  11.272  0.2095 -0.7931  0.1704
 8370TIP3    H146601   3.843   4.817  11.294  0.3739 -2.8991 -0.8306
 8370TIP3    H246602   3.952   4.784  11.194  2.4274 -0.8099  0.6380
 8371TIP3   OH246603   6.278   6.363   5.677  0.0952  0.5171  0.2049
 8371TIP3    H146604   6.327   6.384   5.598  1.1366 -2.3110  0.0002
 8371TIP3    H246605   6.325   6.408   5.747  0.9951  0.5789 -0.4237
 8372TIP3   OH246606   1.361   2.929   1.186 -0.2605 -0.6476  0.0492
 8372TIP3    H146607   1.419   2.988   1.138 -2.6408  1.8029 -0.0197
 8372TIP3    H246608   1.334   2.865   1.120 -0.7353  0.5801 -0.9974
 8373TIP3   OH246609   1.512   4.659   3.280 -0.5640 -0.7948  0.0274
 8373TIP3    H146610   1.458   4.581   3.272 -0.0276 -1.3541  1.3632
 8373TIP3    H246611   1.592   4.627   3.323 -0.4273  0.5186  0.7959
 8374TIP3   OH246612   0.927   1.999   4.101  0.4383 -0.9068 -0.2263
 8374TIP3    H146613   1.004   1.955   4.138 -0.2659  0.0535  2.6968
 8374TIP3    H246614   0.950   2.092   4.103 -0.5887 -0.6485  0.2347
 8375TIP3   OH246615   1.710   6.083   5.146  0.6407 -0.1489 -0.6800
 8375TIP3    H146616   1.777   6.065   5.080  1.9763 -1.6141  0.9461
 8375TIP3    H246617   1.667   5.998   5.160 -2.7315  1.0253 -2.7484
 8376TIP3   OH246618   5.110   1.191  15.682 -0.3105 -0.1061  0.2565
 8376TIP3    H146619   5.077   1.196  15.772 -0.7514  0.8661  0.0509
 8376TIP3    H246620   5.044   1.141  15.634  0.4337 -1.5519  0.6817
 8377TIP3   OH246621   5.086   1.934   1.060  0.3688  0.0627  0.0534
 8377TIP3    H146622   5.181   1.925   1.065  0.5186  1.2330 -0.4080
 8377TIP3    H246623   5.062   1.983   1.139  0.0690 -0.7160  0.4565
 8378TIP3   OH246624   5.128   6.138   1.502  0.8295  0.2183 -0.4635
 8378TIP3    H146625   5.221   6.159   1.512  1.2929 -0.0956 -3.3633
 8378TIP3    H246626   5.124   6.043   1.516  0.8486  0.3033  0.1400
 8379TIP3   OH246627   1.520   5.174  13.582  0.1880  0.0907 -0.2189
 8379TIP3    H146628   1.545   5.089  13.617 -1.0290 -0.0045  0.4543
 8379TIP3    H246629   1.560   5.177  13.495  1.0439 -0.7584  0.1342
 8380TIP3   OH246630   4.897   3.438   4.723  0.6693  0.4659  0.3475
 8380TIP3    H146631   4.805   3.426   4.696  1.1570 -1.0749 -0.7636
 8380TIP3    H246632   4.908   3.379   4.797  0.6521  1.0100  0.7902
 8381TIP3   OH246633   0.457   6.030   0.707  0.1830  0.3016  0.0395
 8381TIP3    H146634   0.461   6.095   0.777  0.7553  1.2464 -0.8445
 8381TIP3    H246635   0.395   6.067   0.644 -0.6067 -0.7077  0.1827
 8382TIP3   OH246636   0.689   3.166  15.011 -0.0154  0.0782 -0.2256
 8382TIP3    H146637   0.778   3.166  15.045 -0.9009  0.0801  2.3210
 8382TIP3    H246638   0.689   3.232  14.942  1.5511  1.2987  0.8747
 8383TIP3   OH246639   0.645   4.771   5.329 -0.5809  0.5404  0.7453
 8383TIP3    H146640   0.592   4.698   5.362  0.4200 -0.4297  0.2689
 8383TIP3    H246641   0.580   4.837   5.302 -1.5072 -0.1514  1.2059
 8384TIP3   OH246642   3.175   6.029   1.373 -0.4928  0.2539 -0.6313
 8384TIP3    H146643   3.082   6.046   1.354 -0.4725  0.6734 -0.3866
 8384TIP3    H246644   3.218   6.112   1.353 -0.4703  0.7184  1.1624
 8385TIP3   OH246645   3.579   1.824   4.397  0.9246  0.3055  0.0941
 8385TIP3    H146646   3.548   1.749   4.345  0.6046  0.4286  0.1046
 8385TIP3    H246647   3.668   1.840   4.366  1.7188 -1.2739  1.4030
 8386TIP3   OH246648   6.831   3.199   4.808  0.0824 -0.5114  0.1597
 8386TIP3    H146649   6.911   3.244   4.779  0.3829 -0.5112  0.9428
 8386TIP3    H246650   6.762   3.234   4.752  0.5705 -0.2336 -0.2806
 8387TIP3   OH246651   4.459   0.108  10.538  0.1395  0.0808 -0.0676
 8387TIP3    H146652   4.500   0.191  10.515 -2.9226  1.4249 -1.2562
 8387TIP3    H246653   4.391   0.132  10.601  1.0320 -1.9955  1.7984
 8388TIP3   OH246654   2.070   4.647   0.520  0.3908  0.0289 -0.0993
 8388TIP3    H146655   2.104   4.558   0.509  0.7609  0.1205  0.2911
 8388TIP3    H246656   2.055   4.656   0.614  1.3731  0.7405 -0.0024
 8389TIP3   OH246657   1.166   4.672   0.763  0.4223 -0.2604  0.2743
 8389TIP3    H146658   1.129   4.732   0.698 -0.4953 -0.7999  0.2750
 8389TIP3    H246659   1.254   4.654   0.732  0.1378 -0.1875 -0.5971
 8390TIP3   OH246660   3.782   3.991   6.260  0.4670 -0.5047 -0.2154
 8390TIP3    H146661   3.756   4.008   6.170  0.5006 -1.0544 -0.3342
 8390TIP3    H246662   3.715   4.035   6.313 -1.1533 -2.4315 -0.5150
 8391TIP3   OH246663   0.107   3.654  15.286 -0.1408 -0.3336  0.7634
 8391TIP3    H146664   0.194   3.643  15.249 -0.6680 -0.0580 -0.5929
 8391TIP3    H246665   0.049   3.660  15.211 -1.1247  1.3346  1.5932
 8392TIP3   OH246666   2.441   0.755  12.468 -0.1220 -0.0880 -0.3689
 8392TIP3    H146667   2.521   0.795  12.433  0.7598 -1.2461  0.2762
 8392TIP3    H246668   2.410   0.697  12.399  0.1870 -0.4412 -0.2095
 8393TIP3   OH246669   4.863   6.059   0.603 -0.1148  0.2545  0.0289
 8393TIP3    H146670   4.807   6.131   0.574 -0.3053  0.0919 -0.0120
 8393TIP3    H246671   4.814   6.016   0.672 -0.9686 -1.1180 -1.3492
 8394TIP3   OH246672   1.939   5.491  14.497 -0.7576 -0.0411  0.1553
 8394TIP3    H146673   1.876   5.549  14.539  1.2065  1.6137  1.0379
 8394TIP3    H246674   1.895   5.459  14.419 -2.5728  1.2119  0.6040
 8395TIP3   OH246675   1.272   2.609   3.531 -0.1311  0.0669  0.0434
 8395TIP3    H146676   1.224   2.527   3.539 -0.7745  0.5195  1.1283
 8395TIP3    H246677   1.204   2.675   3.515  0.4331  0.3261 -1.4788
 8396TIP3   OH246678   1.692   4.340   5.502 -0.1308 -0.4193 -0.0016
 8396TIP3    H146679   1.706   4.246   5.499 -4.2515 -1.2513  0.4295
 8396TIP3    H246680   1.636   4.359   5.427 -2.2882  0.9340  1.8062
 8397TIP3   OH246681   6.750   1.235   2.856  0.0365  0.6911 -0.8893
 8397TIP3    H146682   6.743   1.194   2.942  1.9543 -0.8401 -1.4082
 8397TIP3    H246683   6.806   1.311   2.870  0.8083  0.1245 -0.8794
 8398TIP3   OH246684   1.326   4.302  13.146  0.1632 -0.0148  0.0656
 8398TIP3    H146685   1.303   4.267  13.232  1.1585  1.6000  1.0491
 8398TIP3    H246686   1.318   4.228  13.086 -1.0783 -1.0424  1.4505
 8399TIP3   OH246687   1.031   4.328  16.840 -0.3065  0.6164  0.3462
 8399TIP3    H146688   1.079   4.256  16.881  1.8619  1.7126 -0.1140
 8399TIP3    H246689   1.053   4.405  16.894 -0.3010  1.4231 -0.7795
 8400TIP3   OH246690   3.398   2.527   4.059  0.6747  0.0756 -0.7280
 8400TIP3    H146691   3.380   2.603   4.114 -1.2257 -1.1668  0.4588
 8400TIP3    H246692   3.400   2.563   3.970  3.0556  1.9925 -0.0297
 8401TIP3   OH246693   0.092   0.955   3.886 -0.7334  0.2273  0.2641
 8401TIP3    H146694   0.015   0.926   3.934 -0.4672  0.6819  0.9802
 8401TIP3    H246695   0.166   0.914   3.931 -0.4377  1.1314  0.6201
 8402TIP3   OH246696   5.977   5.359   5.712 -0.3276  0.3204  0.0346
 8402TIP3    H146697   5.994   5.338   5.803 -0.2894  2.4609  0.5832
 8402TIP3    H246698   5.963   5.454   5.711 -3.8534 -0.0363 -1.6564
 8403TIP3   OH246699   1.915   1.650  16.354  0.0794 -0.5374  0.4730
 8403TIP3    H146700   1.914   1.708  16.278  1.7210 -1.4353 -0.3172
 8403TIP3    H246701   2.007   1.648  16.381  0.0591 -2.5773  0.5728
 8404TIP3   OH246702   1.828   5.435  11.825 -0.2031 -0.1379 -0.4829
 8404TIP3    H146703   1.832   5.431  11.729 -1.3844  1.0425 -0.5993
 8404TIP3    H246704   1.812   5.344  11.851  0.2709 -0.5000 -1.3815
 8405TIP3   OH246705   6.114   3.582  15.507  0.2919  0.2915  0.3216
 8405TIP3    H146706   6.126   3.667  15.465  0.6093  0.5462  0.9351
 8405TIP3    H246707   6.082   3.602  15.595 -0.1469 -0.2414  0.2947
 8406TIP3   OH246708   6.057   0.408  12.400 -0.4966  0.3802 -0.6342
 8406TIP3    H146709   6.108   0.336  12.361  1.0056  1.8102 -1.4437
 8406TIP3    H246710   6.123   0.469  12.432 -1.7353  1.4229  0.0079
 8407TIP3   OH246711   6.499   3.013  11.460 -0.3215 -0.5253 -0.4534
 8407TIP3    H146712   6.506   3.103  11.430  0.2776 -0.0154  1.0895
 8407TIP3    H246713   6.429   3.015  11.525  0.5849 -0.8643  0.5650
 8408TIP3   OH246714   6.649   2.603   1.729  0.2246 -0.2761 -0.4724
 8408TIP3    H146715   6.573   2.598   1.672 -1.5043 -2.9103  1.8487
 8408TIP3    H246716   6.678   2.694   1.721 -0.7972 -0.0950 -4.2495
 8409TIP3   OH246717   5.619   1.411  16.275  0.4703 -0.2643 -0.4345
 8409TIP3    H146718   5.585   1.322  16.281  0.2846 -0.1493  0.2949
 8409TIP3    H246719   5.676   1.421  16.351  0.3401  0.2937 -0.3996
 8410TIP3   OH246720   3.570   5.838   5.077 -0.0922 -0.6699 -0.1578
 8410TIP3    H146721   3.610   5.911   5.124  2.3182 -2.1210  0.1746
 8410TIP3    H246722   3.530   5.878   4.999  0.7785  1.0451  0.2419
 8411TIP3   OH246723   3.295   3.783   6.100 -0.8214  0.3992  0.0641
 8411TIP3    H146724   3.229   3.839   6.058  0.3054  0.1466 -2.1881
 8411TIP3    H246725   3.373   3.838   6.105 -0.4123 -0.1821  0.1201
 8412TIP3   OH246726   3.836   2.132  12.435  0.4055 -0.2986  0.0908
 8412TIP3    H146727   3.838   2.038  12.418  0.3680 -0.6347  1.7267
 8412TIP3    H246728   3.746   2.158  12.419 -0.0378 -0.9380  1.3532
 8413TIP3   OH246729   5.233   3.986  12.720  0.0605 -0.1412 -0.5362
 8413TIP3    H146730   5.299   3.931  12.763 -0.9376 -1.2555 -0.3932
 8413TIP3    H246731   5.278   4.020  12.642  0.4090 -1.9441 -1.1613
 8414TIP3   OH246732   5.616   2.954  14.383  0.5354  0.0707 -0.3076
 8414TIP3    H146733   5.591   3.025  14.442  0.4164 -0.4001  0.2257
 8414TIP3    H246734   5.596   2.986  14.295  1.2563  1.0165 -0.1431
 8415TIP3   OH246735   1.242   1.853  16.355  0.1927  0.1229  0.0708
 8415TIP3    H146736   1.320   1.877  16.405  0.3012 -0.1014  0.0096
 8415TIP3    H246737   1.223   1.763  16.383  1.0953 -0.5469 -1.3422
 8416TIP3   OH246738   2.974   6.245  12.756 -0.3417  0.1531  0.0962
 8416TIP3    H146739   2.911   6.247  12.828  2.6814  0.7721  3.0089
 8416TIP3    H246740   2.997   6.153  12.747 -0.2250  0.1420  0.4699
 8417TIP3   OH246741   3.280   0.815   1.266 -0.5641 -0.2253 -0.4230
 8417TIP3    H146742   3.318   0.791   1.182 -2.4349 -1.1074 -1.0761
 8417TIP3    H246743   3.186   0.819   1.250 -0.8282  1.7418  1.1308
 8418TIP3   OH246744   6.228   2.704  16.086 -0.1063  0.0707  0.4572
 8418TIP3    H146745   6.202   2.630  16.141  1.4264 -0.1549  0.9285
 8418TIP3    H246746   6.318   2.682  16.058  0.0112  1.3018 -0.1790
 8419TIP3   OH246747   2.477   0.571  13.886  0.0827 -0.0377  0.2877
 8419TIP3    H146748   2.448   0.482  13.867  0.9129 -0.3372  0.3724
 8419TIP3    H246749   2.441   0.624  13.815  0.2291 -0.5724 -0.1892
 8420TIP3   OH246750   0.697   0.787   1.592 -0.0893  0.2507  0.6912
 8420TIP3    H146751   0.777   0.745   1.560 -0.1309 -0.0481  0.9763
 8420TIP3    H246752   0.680   0.857   1.529  1.1294  1.1689  1.3454
 8421TIP3   OH246753   3.865   4.193   4.141 -0.1324 -0.4594 -0.3457
 8421TIP3    H146754   3.853   4.184   4.047 -1.3335 -0.4552 -0.2179
 8421TIP3    H246755   3.906   4.279   4.152 -0.2717 -0.3274 -0.8478
 8422TIP3   OH246756   6.210   1.109   5.844 -0.0418 -0.2836 -0.2761
 8422TIP3    H146757   6.255   1.082   5.924 -0.4953 -1.3665 -0.3695
 8422TIP3    H246758   6.163   1.189   5.868 -1.7860 -1.6356  1.1533
 8423TIP3   OH246759   2.241   4.542   3.623  0.1525  0.0210  0.6609
 8423TIP3    H146760   2.204   4.550   3.535  0.5676 -0.9288  0.3840
 8423TIP3    H246761   2.192   4.604   3.676 -0.2775  0.4180 -0.1910
 8424TIP3   OH246762   2.905   0.118  16.486  0.1464  0.1832 -0.1131
 8424TIP3    H146763   2.821   0.078  16.463  0.4649 -0.5800  0.0265
 8424TIP3    H246764   2.960   0.044  16.513  1.0091  0.6233 -0.6357
 8425TIP3   OH246765   2.189   0.952  15.595 -0.4899  0.5184  0.0151
 8425TIP3    H146766   2.239   1.031  15.616 -0.6615  0.5896  0.1552
 8425TIP3    H246767   2.133   0.979  15.522 -1.5447  0.9204  0.9561
 8426TIP3   OH246768   4.592   4.893  11.969  0.0931  0.0122 -0.0064
 8426TIP3    H146769   4.585   4.823  11.904  0.7627  1.0152 -1.2018
 8426TIP3    H246770   4.614   4.971  11.918 -0.0297  0.9748  1.3591
 8427TIP3   OH246771   0.952   5.505   4.298  0.4729  0.1654  0.6286
 8427TIP3    H146772   0.901   5.561   4.240  0.5252 -1.5199 -1.1810
 8427TIP3    H246773   0.971   5.559   4.375 -1.9091  1.6255  0.2737
 8428TIP3   OH246774   5.461   5.582   5.082  0.4457 -0.7157 -0.3954
 8428TIP3    H146775   5.377   5.568   5.125  0.2464  1.8498  0.2198
 8428TIP3    H246776   5.518   5.616   5.151  1.1481  0.2046 -1.3957
 8429TIP3   OH246777   6.480   5.746   3.697 -0.0916  0.5885  0.2664
 8429TIP3    H146778   6.518   5.771   3.781  1.4830 -0.3597 -0.1226
 8429TIP3    H246779   6.476   5.828   3.648  2.1065  0.6642  0.1107
 8430TIP3   OH246780   1.045   3.567   1.601 -0.0013  0.7036  0.1518
 8430TIP3    H146781   1.077   3.515   1.527  0.0702 -0.2893  0.8628
 8430TIP3    H246782   0.957   3.533   1.617  0.7408 -0.5950  1.8485
 8431TIP3   OH246783   1.437   5.262   0.762 -0.2449 -0.2785  0.0880
 8431TIP3    H146784   1.492   5.266   0.684  0.9442 -4.7513  0.4357
 8431TIP3    H246785   1.370   5.198   0.742 -0.6814 -0.6120  2.2809
 8432TIP3   OH246786   0.621   0.837   3.903 -0.5845 -0.1110 -0.2503
 8432TIP3    H146787   0.598   0.865   3.814 -1.6507  2.2196  0.6786
 8432TIP3    H246788   0.668   0.912   3.940 -1.5500 -0.4014  1.6717
 8433TIP3   OH246789   2.075   0.226  12.427 -0.3621  0.4893  0.0622
 8433TIP3    H146790   2.017   0.193  12.495 -0.5120 -0.1314 -0.3614
 8433TIP3    H246791   2.163   0.215  12.463 -0.3530 -1.2530 -0.4244
 8434TIP3   OH246792   4.861   0.986  11.872  0.6175  0.6569 -0.2015
 8434TIP3    H146793   4.796   0.951  11.811  0.1766  2.0145 -0.5335
 8434TIP3    H246794   4.886   1.070  11.835  0.1433  1.6440  1.5974
 8435TIP3   OH246795   1.517   3.535   2.078  0.1121  0.0413 -0.3302
 8435TIP3    H146796   1.460   3.482   2.134  1.3619 -0.8454  0.1283
 8435TIP3    H246797   1.461   3.558   2.004 -1.7902  1.8032  1.5250
 8436TIP3   OH246798   5.564   4.844  15.924  0.1878 -0.2252  0.3275
 8436TIP3    H146799   5.543   4.783  15.854 -1.6782 -1.0001  1.4867
 8436TIP3    H246800   5.634   4.801  15.973  0.4271 -0.3872 -0.1501
 8437TIP3   OH246801   3.670   2.715  13.898 -0.4055  0.1941 -0.7487
 8437TIP3    H146802   3.690   2.654  13.969 -1.7957  0.6491  0.0549
 8437TIP3    H246803   3.756   2.735  13.860  0.4517  0.3895  1.1659
 8438TIP3   OH246804   2.176   5.881  12.357 -0.4231  0.1482 -0.3747
 8438TIP3    H146805   2.092   5.919  12.384 -0.3718 -0.8359  1.2980
 8438TIP3    H246806   2.152   5.801  12.310 -0.4333 -0.7491  1.1084
 8439TIP3   OH246807   5.509   4.336   5.031 -0.5030  0.4382 -0.0500
 8439TIP3    H146808   5.477   4.425   5.016 -2.1948 -0.2719 -0.9026
 8439TIP3    H246809   5.601   4.339   5.006 -0.8736  1.6267 -1.3722
 8440TIP3   OH246810   1.856   1.977  16.495  0.2144  0.0997 -0.2751
 8440TIP3    H146811   1.836   1.965  16.403  1.0250  0.6217 -0.5363
 8440TIP3    H246812   1.771   1.982  16.539 -0.2159  1.1921 -1.1766
 8441TIP3   OH246813   2.882   2.791  17.018 -0.8570 -0.5680  0.6031
 8441TIP3    H146814   2.852   2.860  17.078 -1.0227 -0.3546  0.2829
 8441TIP3    H246815   2.958   2.830  16.973 -0.8936 -0.6281  0.4886
 8442TIP3   OH246816   4.124   0.100  11.980 -0.1287 -0.0014 -0.0638
 8442TIP3    H146817   4.130   0.177  12.038  0.1882  0.7245 -1.0242
 8442TIP3    H246818   4.046   0.054  12.009 -1.4189  1.7030 -0.6511
 8443TIP3   OH246819   5.786   5.222   0.566 -0.0687 -0.5164  0.2192
 8443TIP3    H146820   5.775   5.313   0.593 -0.5208 -0.1647 -1.0873
 8443TIP3    H246821   5.826   5.227   0.479 -0.9751 -1.5381 -0.2809
 8444TIP3   OH246822   3.052   1.876   0.289 -0.1325  0.8287 -0.4274
 8444TIP3    H146823   3.124   1.938   0.295 -0.8821  1.5727  2.7469
 8444TIP3    H246824   3.089   1.793   0.319 -0.2028  0.8511 -0.2749
 8445TIP3   OH246825   5.003   4.532   5.906  0.2027  0.6612  0.7672
 8445TIP3    H146826   5.030   4.453   5.953 -1.4572 -0.2461  0.2645
 8445TIP3    H246827   5.083   4.563   5.864  0.4888 -2.0832 -0.9574
 8446TIP3   OH246828   2.486   1.679  15.315 -0.4511  0.0276  0.2177
 8446TIP3    H146829   2.485   1.648  15.405  2.1423 -2.5984 -0.4687
 8446TIP3    H246830   2.403   1.649  15.279 -0.9472 -0.0621  1.3985
 8447TIP3   OH246831   0.715   4.887  16.664 -0.0741 -0.3216  0.9176
 8447TIP3    H146832   0.645   4.830  16.631  0.7622 -0.1281 -1.4031
 8447TIP3    H246833   0.786   4.827  16.684  0.6324 -0.2331 -1.0618
 8448TIP3   OH246834   3.563   4.928   0.369 -0.2720 -0.2122  0.6743
 8448TIP3    H146835   3.625   5.000   0.356 -0.8245  0.1571  0.0141
 8448TIP3    H246836   3.591   4.861   0.307 -1.0561  0.3110 -0.2574
 8449TIP3   OH246837   5.416   0.862  16.423 -0.1430 -0.0257  0.4655
 8449TIP3    H146838   5.461   0.781  16.445  2.0048  0.4645 -1.6475
 8449TIP3    H246839   5.327   0.852  16.458  0.2151 -3.0358  0.6930
 8450TIP3   OH246840   6.502   4.440   5.926  0.2333 -0.2664 -0.4633
 8450TIP3    H146841   6.557   4.390   5.865 -0.1425  0.3201 -1.3029
 8450TIP3    H246842   6.415   4.437   5.887  0.0898  0.5577 -0.2298
 8451TIP3   OH246843   2.444   1.208  10.476 -0.3065  0.2990  0.7188
 8451TIP3    H146844   2.478   1.287  10.516  0.2313  0.8235 -0.7122
 8451TIP3    H246845   2.417   1.235  10.388 -0.4830 -1.0235  0.3414
 8452TIP3   OH246846   5.439   4.134   0.232 -0.0353 -0.0390  0.8599
 8452TIP3    H146847   5.358   4.092   0.201  0.3221  0.5014 -0.9168
 8452TIP3    H246848   5.499   4.062   0.249  0.3015 -0.3356 -1.3671
 8453TIP3   OH246849   2.881   4.069  16.678 -0.8137  0.6015  0.1478
 8453TIP3    H146850   2.966   4.052  16.718 -0.8901  0.5866  0.3081
 8453TIP3    H246851   2.833   3.986  16.689 -0.3741  0.1631 -1.1608
 8454TIP3   OH246852   0.700   4.889   5.671  0.8232 -0.0798  0.2177
 8454TIP3    H146853   0.626   4.918   5.723  2.5339  0.7107  2.3388
 8454TIP3    H246854   0.682   4.921   5.583 -1.5732 -0.3900  0.5371
 8455TIP3   OH246855   1.091   0.210  17.088  0.3615  0.1150  0.2430
 8455TIP3    H146856   1.078   0.262  17.010 -0.6315  0.2189  0.4707
 8455TIP3    H246857   1.010   0.161  17.099  1.0015 -0.9428  0.4392
 8456TIP3   OH246858   5.872   3.249  16.951  0.2594 -0.2442  0.8153
 8456TIP3    H146859   5.783   3.277  16.931  0.4888  0.3087  0.5137
 8456TIP3    H246860   5.908   3.222  16.867  0.9239  1.1886  0.6030
 8457TIP3   OH246861   2.387   0.131  16.707 -0.4546  0.3359 -0.1271
 8457TIP3    H146862   2.477   0.144  16.735 -0.6720  1.4381  0.1393
 8457TIP3    H246863   2.336   0.134  16.788 -0.6744 -1.0379 -0.1928
 8458TIP3   OH246864   5.203   3.525  11.515  0.3925  0.6712  0.5794
 8458TIP3    H146865   5.172   3.515  11.605 -1.4605  0.4453 -0.0379
 8458TIP3    H246866   5.257   3.604  11.516 -0.3734  1.2004  1.7037
 8459TIP3   OH246867   4.640   0.769   5.657 -0.7748  0.2088  0.3664
 8459TIP3    H146868   4.677   0.702   5.714  0.9137  1.7466  1.2019
 8459TIP3    H246869   4.574   0.813   5.711 -0.9546  0.0528  0.2728
 8460TIP3   OH246870   2.305   0.972  15.081  0.4430  0.4132 -0.0420
 8460TIP3    H146871   2.282   0.911  15.151  1.1213 -0.5046 -0.5982
 8460TIP3    H246872   2.388   1.011  15.109  0.2227  0.7648  0.1188
 8461TIP3   OH246873   3.245   2.336  11.218  0.0107  0.2867 -1.0176
 8461TIP3    H146874   3.152   2.312  11.213 -0.0018 -0.2750  0.8857
 8461TIP3    H246875   3.245   2.430  11.233 -0.5813 -0.1854  3.3371
 8462TIP3   OH246876   1.225   0.442   4.025 -0.8507  0.2118  0.0082
 8462TIP3    H146877   1.306   0.436   4.077 -0.6442 -0.7200 -0.4052
 8462TIP3    H246878   1.252   0.485   3.944 -0.6455 -0.5734 -0.3505
 8463TIP3   OH246879   5.558   3.804   5.442  0.2898  0.1565  0.0728
 8463TIP3    H146880   5.518   3.735   5.495 -0.8927  0.6203 -0.1943
 8463TIP3    H246881   5.652   3.790   5.453  0.1049 -2.0409 -0.6872
 8464TIP3   OH246882   1.893   4.040  14.203  0.6437  0.2472 -0.5852
 8464TIP3    H146883   1.918   3.967  14.147  0.7160 -0.7163  0.6503
 8464TIP3    H246884   1.906   4.118  14.149 -1.1082 -0.7300 -2.5579
 8465TIP3   OH246885   0.175   4.189   0.653 -0.0230 -0.5382 -0.2156
 8465TIP3    H146886   0.181   4.280   0.625  0.2628 -0.6394 -0.4796
 8465TIP3    H246887   0.121   4.146   0.587 -1.1468 -0.3122  0.5195
 8466TIP3   OH246888   1.857   2.130  12.007 -0.7428  0.6388 -0.2447
 8466TIP3    H146889   1.856   2.197  12.075 -1.3863 -1.1569  1.6162
 8466TIP3    H246890   1.786   2.155  11.948  0.3625  2.6828 -0.7865
 8467TIP3   OH246891   0.032   5.261   5.004  0.2194 -0.5460 -0.1686
 8467TIP3    H146892   0.005   5.179   4.963  0.3329 -0.1406 -1.0732
 8467TIP3    H246893   0.125   5.251   5.021  0.7632  0.2375 -2.4026
 8468TIP3   OH246894   5.249   5.303   4.535  0.4142  0.3432 -0.0055
 8468TIP3    H146895   5.191   5.235   4.570  0.1183 -0.0921 -1.2733
 8468TIP3    H246896   5.337   5.271   4.554  0.2997  1.2970  2.4724
 8469TIP3   OH246897   5.358   5.410  13.952  0.1580  0.4109 -0.2906
 8469TIP3    H146898   5.446   5.375  13.951 -0.4207 -1.0966 -0.1670
 8469TIP3    H246899   5.302   5.336  13.928 -0.9271  1.7891 -2.3769
 8470TIP3   OH246900   4.793   5.623  14.889  0.0255 -0.1063 -0.4142
 8470TIP3    H146901   4.870   5.625  14.945  0.1406 -0.2312 -0.5672
 8470TIP3    H246902   4.743   5.701  14.914  0.5643  0.3797 -0.8224
 8471TIP3   OH246903   4.041   3.716  16.968 -0.1202  0.0740  0.4909
 8471TIP3    H146904   3.990   3.696  16.889 -0.5680 -1.3126  1.1018
 8471TIP3    H246905   4.099   3.787  16.941 -2.0826  1.4590 -0.3415
 8472TIP3   OH246906   6.315   1.042  11.283  0.1908  0.5868  0.1684
 8472TIP3    H146907   6.270   1.095  11.218  1.1993 -0.4610 -1.4598
 8472TIP3    H246908   6.266   0.960  11.285  0.8203  0.1938 -0.1337
 8473TIP3   OH246909   6.138   4.596   0.072 -0.7211  1.0328 -0.4158
 8473TIP3    H146910   6.230   4.591   0.045 -0.1166  1.6393  1.3939
 8473TIP3    H246911   6.129   4.525   0.136 -1.4929  1.0448 -0.5115
 8474TIP3   OH246912   0.265   4.582  11.015 -0.5256 -0.7430  0.2988
 8474TIP3    H146913   0.179   4.615  10.989  0.0456 -0.6054 -1.5797
 8474TIP3    H246914   0.301   4.544  10.935  0.7635 -1.7031  1.2899
 8475TIP3   OH246915   5.234   0.874  13.630 -0.0513  0.0973  0.4238
 8475TIP3    H146916   5.275   0.807  13.685 -0.2147 -0.2225  0.1560
 8475TIP3    H246917   5.162   0.908  13.683  1.0442  1.2494  1.2394
 8476TIP3   OH246918   3.205   5.398   6.139  0.0489 -0.0295 -0.2571
 8476TIP3    H146919   3.129   5.447   6.170 -0.0343  0.0184 -0.5297
 8476TIP3    H246920   3.280   5.446   6.172  0.0181  1.2589 -1.9082
 8477TIP3   OH246921   4.720   0.933   0.479 -0.4573 -0.0287  0.2162
 8477TIP3    H146922   4.756   0.937   0.390  0.7732 -2.3015  0.5138
 8477TIP3    H246923   4.666   0.854   0.478 -0.1048 -0.3042  1.5760
 8478TIP3   OH246924   3.911   1.589  15.166  0.1074  0.1793  0.6522
 8478TIP3    H146925   3.897   1.586  15.072 -2.4866  0.0158  0.9788
 8478TIP3    H246926   3.824   1.594  15.204  1.0629  0.1324  3.0785
 8479TIP3   OH246927   4.893   2.249  13.125 -0.4561 -0.0831 -0.2306
 8479TIP3    H146928   4.952   2.210  13.060  0.3374  0.4570  0.1452
 8479TIP3    H246929   4.838   2.176  13.153  0.2707 -0.6941 -0.3353
 8480TIP3   OH246930   0.637   5.479   0.390  0.0377  0.4058  0.1873
 8480TIP3    H146931   0.642   5.392   0.428  0.2201  0.4068  0.1674
 8480TIP3    H246932   0.728   5.503   0.372 -0.1015 -0.0596 -1.3009
 8481TIP3   OH246933   4.157   5.343   3.741  0.1157 -0.7754 -0.0302
 8481TIP3    H146934   4.224   5.277   3.755  0.8171 -0.4746 -1.6764
 8481TIP3    H246935   4.141   5.381   3.827  1.9458 -0.9675  0.4207
 8482TIP3   OH246936   2.811   5.044   4.602  0.7417 -0.1791 -0.1169
 8482TIP3    H146937   2.840   4.966   4.649  0.8433  0.7803  1.4954
 8482TIP3    H246938   2.725   5.064   4.638  0.7170  0.4525 -0.5117
 8483TIP3   OH246939   3.697   4.795  15.620 -0.1829 -0.2747 -0.0184
 8483TIP3    H146940   3.643   4.718  15.601 -0.0567  0.1245 -2.3006
 8483TIP3    H246941   3.784   4.771  15.586  0.3224  0.2114  0.9048
 8484TIP3   OH246942   4.637   0.042  12.230 -0.0862 -0.1308 -0.0249
 8484TIP3    H146943   4.640   0.002  12.317 -1.4728  0.3689  0.2726
 8484TIP3    H246944   4.639   0.136  12.246 -1.1111 -0.0162 -0.4599
 8485TIP3   OH246945   0.290   6.332  15.250  0.5413  0.1246 -0.3039
 8485TIP3    H146946   0.225   6.401  15.233  0.6135  0.1957 -0.2941
 8485TIP3    H246947   0.250   6.277  15.318  0.4095  0.0563 -0.4360
 8486TIP3   OH246948   5.633   0.179   1.632  0.2402  0.8041 -0.0428
 8486TIP3    H146949   5.555   0.226   1.602  0.3130 -0.5156 -2.4975
 8486TIP3    H246950   5.611   0.151   1.721 -2.6227 -0.5552 -1.0777
 8487TIP3   OH246951   6.796   0.247   0.066 -0.2782  0.0141 -0.5424
 8487TIP3    H146952   6.861   0.178   0.052 -0.0928  0.2846 -1.0687
 8487TIP3    H246953   6.732   0.235  -0.004 -0.0912  0.5396 -0.8155
 8488TIP3   OH246954   2.164   6.828  13.103  0.3082 -0.1519 -0.1931
 8488TIP3    H146955   2.150   6.737  13.128  0.9234 -0.2263 -0.1161
 8488TIP3    H246956   2.088   6.850  13.049 -0.4246 -0.3597  0.7226
 8489TIP3   OH246957   6.019   6.285   3.046  0.6470  0.0322 -0.0054
 8489TIP3    H146958   6.001   6.191   3.040  2.3903 -0.3048 -0.6161
 8489TIP3    H246959   6.041   6.311   2.957 -0.3917  1.1800  0.0414
 8490TIP3   OH246960   3.263   6.384   3.129  0.0367 -0.6613 -0.1897
 8490TIP3    H146961   3.225   6.297   3.117 -2.1418  0.3043 -0.8282
 8490TIP3    H246962   3.201   6.429   3.187  1.4498  0.2896  0.6490
 8491TIP3   OH246963   1.818   2.189   0.634  0.1350  0.6615  0.1690
 8491TIP3    H146964   1.770   2.271   0.626  0.2621  0.6536 -0.8926
 8491TIP3    H246965   1.783   2.134   0.564  1.5216  0.5913 -0.5143
 8492TIP3   OH246966   5.850   6.786   4.319  0.1054  0.4025  0.3168
 8492TIP3    H146967   5.825   6.843   4.392 -2.2404 -1.6662  1.2706
 8492TIP3    H246968   5.902   6.842   4.261 -2.4146  3.6468  0.9108
 8493TIP3   OH246969   4.241   2.715  14.833  0.2633  0.8220  0.4610
 8493TIP3    H146970   4.243   2.679  14.744 -1.1380 -0.5937  0.9547
 8493TIP3    H246971   4.333   2.715  14.860  0.4532 -1.7150  0.1108
 8494TIP3   OH246972   4.901   2.025  11.826 -0.3471 -0.3891 -0.1076
 8494TIP3    H146973   4.813   1.988  11.817  0.2555 -1.7800 -0.5754
 8494TIP3    H246974   4.959   1.950  11.814  0.9340  0.7037 -0.8965
 8495TIP3   OH246975   2.181   0.808  11.552  0.4760 -0.2634 -0.3812
 8495TIP3    H146976   2.229   0.844  11.627 -2.0962  1.4339  0.5809
 8495TIP3    H246977   2.146   0.725  11.585 -1.5201  0.9626  0.7650
 8496TIP3   OH246978   2.685   4.154   2.210 -0.4914 -0.4841 -0.6763
 8496TIP3    H146979   2.682   4.067   2.248  1.0051 -0.6246 -0.8200
 8496TIP3    H246980   2.636   4.209   2.271  0.8073 -0.9365  0.8491
 8497TIP3   OH246981   3.013   5.369   4.917 -0.0543 -0.3493 -0.1111
 8497TIP3    H146982   3.032   5.289   4.867 -1.5751  0.1329 -1.5716
 8497TIP3    H246983   2.930   5.350   4.961  1.4512 -0.9206  2.7245
 8498TIP3   OH246984   3.388   5.049   4.666  0.1197 -0.6011  0.1967
 8498TIP3    H146985   3.357   5.021   4.580 -0.3787 -0.6371  0.3798
 8498TIP3    H246986   3.353   5.138   4.676 -0.1706 -0.7490  0.5263
 8499TIP3   OH246987   6.775   0.285   5.785 -0.1027 -0.0734 -0.0921
 8499TIP3    H146988   6.836   0.358   5.773  0.6560 -0.8374 -1.0722
 8499TIP3    H246989   6.791   0.228   5.709 -1.6644 -0.5586 -0.0803
 8500TIP3   OH246990   3.560   6.283  13.339 -0.3199  0.0331 -0.3015
 8500TIP3    H146991   3.637   6.252  13.387  0.8673  1.1573 -1.4065
 8500TIP3    H246992   3.596   6.325  13.261 -2.1507 -1.1917 -1.8948
 8501TIP3   OH246993   2.121   4.042  15.817  0.2232  0.3672 -0.0087
 8501TIP3    H146994   2.106   4.115  15.757  2.8490  1.1113  0.1307
 8501TIP3    H246995   2.215   4.045  15.835  0.0109 -1.6999  1.7725
 8502TIP3   OH246996   2.828   4.500   5.577 -0.0367 -0.0503 -0.1868
 8502TIP3    H146997   2.765   4.501   5.649 -0.1866 -0.9182 -0.2897
 8502TIP3    H246998   2.823   4.411   5.542  0.1134  0.3287 -1.2085
 8503TIP3   OH246999   4.641   2.391   0.431  0.2099 -0.1732  0.3303
 8503TIP3    H147000   4.696   2.467   0.448  0.9155 -0.7153  0.5158
 8503TIP3    H247001   4.697   2.331   0.382 -0.1538 -0.8101  0.6803
 8504TIP3   OH247002   5.969   4.670   2.021  0.2655  0.1056  0.0075
 8504TIP3    H147003   5.945   4.676   2.113 -0.1643  3.2374 -0.2039
 8504TIP3    H247004   5.888   4.689   1.974  1.0792  1.4467 -0.9157
 8505TIP3   OH247005   1.648   6.757   2.087 -0.5599 -0.1954 -0.2147
 8505TIP3    H147006   1.619   6.678   2.132 -2.5015 -1.4954 -3.4121
 8505TIP3    H247007   1.689   6.726   2.006 -0.6474  2.0342 -1.2022
 8506TIP3   OH247008   6.678   6.187   5.717  0.1310 -0.4369 -0.5075
 8506TIP3    H147009   6.674   6.102   5.674 -0.1949 -0.4792 -0.3911
 8506TIP3    H247010   6.764   6.222   5.692  0.0304 -0.5483 -1.0205
 8507TIP3   OH247011   5.205   0.373   5.400  0.4898  0.2240  0.3804
 8507TIP3    H147012   5.156   0.348   5.478 -0.7341 -1.1877 -0.7604
 8507TIP3    H247013   5.137   0.383   5.332  1.5792  0.6476 -0.6840
 8508TIP3   OH247014   5.990   5.765  11.833  0.0349  0.4063 -0.1334
 8508TIP3    H147015   6.051   5.693  11.849 -0.8605  0.0641  2.1152
 8508TIP3    H247016   6.007   5.792  11.743  0.8992 -2.1285 -0.7856
 8509TIP3   OH247017   2.760   4.424  15.939 -0.2310  0.0229  0.2410
 8509TIP3    H147018   2.702   4.478  15.994  0.0502 -0.1389  0.6924
 8509TIP3    H247019   2.736   4.334  15.961 -2.9864 -0.1894 -2.8024
 8510TIP3   OH247020   1.304   0.673   1.109 -0.1809  0.8228 -0.2319
 8510TIP3    H147021   1.318   0.579   1.097 -0.9912  0.9178 -2.2709
 8510TIP3    H247022   1.211   0.686   1.092 -0.2356  1.9126  0.7931
 8511TIP3   OH247023   1.119   3.879  15.478 -0.2311  0.1697 -0.1554
 8511TIP3    H147024   1.126   3.794  15.521  0.9567 -0.1275 -0.8851
 8511TIP3    H247025   1.196   3.927  15.506  0.0395  0.3332 -1.1239
 8512TIP3   OH247026   5.369   4.684  16.150 -1.0375  0.0371  0.7258
 8512TIP3    H147027   5.288   4.669  16.198 -1.8495 -0.2587 -0.6866
 8512TIP3    H247028   5.368   4.777  16.129 -0.4444  0.2699  1.6586
 8513TIP3   OH247029   2.199   6.000   3.799  0.8363  0.2699  0.5933
 8513TIP3    H147030   2.141   5.998   3.723  0.4606  3.7601  0.5831
 8513TIP3    H247031   2.155   5.945   3.864 -0.4921 -0.2438 -0.6803
 8514TIP3   OH247032   1.981   0.516   3.255 -0.3119 -0.0620  0.4512
 8514TIP3    H147033   1.917   0.583   3.234 -0.5916  0.2373  2.0976
 8514TIP3    H247034   1.937   0.433   3.234 -1.3145  0.1302  1.6483
 8515TIP3   OH247035   4.750   4.708   2.864  0.2583 -0.6205 -0.0288
 8515TIP3    H147036   4.796   4.767   2.804 -0.0745  0.1645  0.4583
 8515TIP3    H247037   4.810   4.635   2.877  0.4824 -0.6250 -1.0262
 8516TIP3   OH247038   3.136   2.871  11.150 -0.1818 -0.3600 -0.3160
 8516TIP3    H147039   3.106   2.825  11.071  0.7258 -1.0712 -0.2739
 8516TIP3    H247040   3.064   2.928  11.174 -0.6997 -0.5558 -1.3384
 8517TIP3   OH247041   4.410   6.215  15.477  0.0197  0.0814  0.5230
 8517TIP3    H147042   4.504   6.233  15.468  0.0092 -0.2668 -0.3397
 8517TIP3    H247043   4.403   6.165  15.559  0.4337  1.1146  1.2179
 8518TIP3   OH247044   2.331   2.781  16.924 -0.5180 -0.3335 -0.5121
 8518TIP3    H147045   2.354   2.829  16.845  0.2049 -1.8655 -1.2859
 8518TIP3    H247046   2.413   2.744  16.955 -1.0156 -0.9194  0.1465
 8519TIP3   OH247047   0.091   6.092  16.258  0.1787  0.4907 -0.1974
 8519TIP3    H147048   0.042   6.124  16.334 -0.8837  0.5375 -0.8731
 8519TIP3    H247049   0.144   6.021  16.292 -0.8905 -0.0352  0.4513
 8520TIP3   OH247050   3.807   1.648   3.898 -0.0758 -0.4621 -0.5514
 8520TIP3    H147051   3.783   1.707   3.969 -0.1243 -0.7008 -0.3656
 8520TIP3    H247052   3.765   1.685   3.820 -0.3738 -0.4298 -0.3780
 8521TIP3   OH247053   4.311   5.852   2.562 -0.1158 -0.0808  0.0511
 8521TIP3    H147054   4.328   5.890   2.647  0.8347 -0.2680 -0.0516
 8521TIP3    H247055   4.378   5.785   2.551 -1.7313 -1.8402  0.2370
 8522TIP3   OH247056   0.127   5.509  13.884  0.5080 -0.3915  0.0166
 8522TIP3    H147057   0.093   5.443  13.823  0.3969  0.4381 -0.8473
 8522TIP3    H247058   0.049   5.552  13.919  0.6008  0.3020 -0.5978
 8523TIP3   OH247059   6.762   2.062   4.211  0.0069 -0.7738  0.2596
 8523TIP3    H147060   6.678   2.082   4.169 -0.3131  0.4112  1.4155
 8523TIP3    H247061   6.811   2.144   4.208  0.9537 -1.3394  0.0096
 8524TIP3   OH247062   2.682   3.959  15.276  0.2698 -0.0554 -0.3387
 8524TIP3    H147063   2.722   3.879  15.309 -0.6264 -0.3802 -0.0150
 8524TIP3    H247064   2.595   3.932  15.247 -0.0084  0.7873 -0.3056
 8525TIP3   OH247065   2.181   5.368  14.370 -0.2939  0.3263 -0.2373
 8525TIP3    H147066   2.113   5.416  14.417  0.1281  0.7766 -0.0743
 8525TIP3    H247067   2.219   5.433  14.310  0.2467  0.1870 -0.0488
 8526TIP3   OH247068   6.119   6.238   0.474  0.4889 -0.2909  0.3778
 8526TIP3    H147069   6.117   6.281   0.560  0.2739 -0.5668  0.5086
 8526TIP3    H247070   6.126   6.145   0.494  0.4454 -0.3543  0.0949
 8527TIP3   OH247071   5.337   5.957  16.751 -0.1867 -0.6363  0.6299
 8527TIP3    H147072   5.283   6.027  16.788  1.6721  0.6180  1.1107
 8527TIP3    H247073   5.362   5.903  16.826  2.5031  1.1534  1.1465
 8528TIP3   OH247074   0.595   1.589  13.603  0.1256  0.1138 -0.1029
 8528TIP3    H147075   0.548   1.562  13.524  0.5163  0.3627 -0.4281
 8528TIP3    H247076   0.578   1.519  13.667 -0.9946  0.3906 -0.0832
 8529TIP3   OH247077   1.084   1.040  14.001 -0.5529 -0.0383 -0.5031
 8529TIP3    H147078   1.108   1.017  14.090  0.3767  0.4591 -0.6139
 8529TIP3    H247079   1.035   0.964  13.969  0.2461 -0.7814 -0.0098
 8530TIP3   OH247080   6.772   0.906  11.714  0.0703  0.6638 -0.6263
 8530TIP3    H147081   6.709   0.942  11.651  0.1166 -0.1898 -1.1831
 8530TIP3    H247082   6.855   0.902  11.667  0.4831  1.4881  0.0065
 8531TIP3   OH247083   1.295   1.124   4.073  0.4075 -0.0208  0.1324
 8531TIP3    H147084   1.348   1.046   4.089  1.8486  0.8992  0.0233
 8531TIP3    H247085   1.254   1.143   4.157  1.4642  0.1082  0.6328
 8532TIP3   OH247086   4.398   2.905   6.135 -0.7148 -0.6343 -0.2120
 8532TIP3    H147087   4.363   2.837   6.192  0.6555 -0.1761  1.2502
 8532TIP3    H247088   4.341   2.981   6.149 -1.8015 -1.2156 -1.2939
 8533TIP3   OH247089   4.626   5.671  13.922  0.1090  0.2731  0.1905
 8533TIP3    H147090   4.588   5.712  14.000 -1.2697  1.4649 -1.0405
 8533TIP3    H247091   4.703   5.723  13.902 -0.4979  1.0607 -0.1890
 8534TIP3   OH247092   0.735   6.166  14.304  0.0526  0.2385 -0.1843
 8534TIP3    H147093   0.789   6.239  14.335 -0.1574 -0.3549  1.7071
 8534TIP3    H247094   0.651   6.178  14.348  0.2102 -1.4489  0.6616
 8535TIP3   OH247095   0.296   4.921   5.884 -0.3826 -0.4892  0.0628
 8535TIP3    H147096   0.225   4.980   5.856 -0.0331 -1.0453 -2.1774
 8535TIP3    H247097   0.276   4.903   5.976 -1.2804  1.9745  0.4433
 8536TIP3   OH247098   2.338   5.464   5.472 -0.0768 -0.0630  0.0528
 8536TIP3    H147099   2.251   5.465   5.433 -0.8287 -2.4730  1.4233
 8536TIP3    H247100   2.327   5.414   5.553  2.8043 -1.5988 -0.3680
 8537TIP3   OH247101   5.810   2.850  14.017 -0.5011 -0.1094 -0.1880
 8537TIP3    H147102   5.874   2.808  14.074 -0.4872  1.5795  1.1272
 8537TIP3    H247103   5.861   2.881  13.942 -0.0703 -0.2162  0.0577
 8538TIP3   OH247104   0.978   6.244  15.855 -0.2986  0.3034  0.1117
 8538TIP3    H147105   1.044   6.179  15.828 -0.1577  0.3046  0.4490
 8538TIP3    H247106   1.012   6.279  15.937  0.3017  1.7840 -0.7404
 8539TIP3   OH247107   2.002   4.945  14.542  0.2982 -0.0444 -0.5243
 8539TIP3    H147108   1.935   4.960  14.610 -0.7315 -2.4172 -0.8929
 8539TIP3    H247109   1.983   4.857  14.510  3.2245 -0.5284 -1.1550
 8540TIP3   OH247110   0.435   5.908   5.089 -0.1236 -0.9014 -0.3867
 8540TIP3    H147111   0.525   5.936   5.073 -1.1619  2.8131 -0.6547
 8540TIP3    H247112   0.428   5.904   5.184  0.3786 -1.4178 -0.3686
 8541TIP3   OH247113   2.709   0.410   5.933  0.4019 -0.4466 -0.1787
 8541TIP3    H147114   2.642   0.387   5.998 -0.5300 -0.2739 -1.0450
 8541TIP3    H247115   2.728   0.328   5.888 -1.2342 -0.0348 -1.7282
 8542TIP3   OH247116   5.811   1.487  10.696  0.0650  0.0713  0.3409
 8542TIP3    H147117   5.843   1.405  10.658  0.5288  0.5322 -0.2775
 8542TIP3    H247118   5.806   1.470  10.790 -0.7455 -0.9680  0.1305
 8543TIP3   OH247119   4.436   3.562   2.685 -0.0224  0.3820 -0.3142
 8543TIP3    H147120   4.522   3.562   2.644  0.4628  0.1282  0.6588
 8543TIP3    H247121   4.444   3.500   2.757 -1.4191 -0.6275 -0.9881
 8544TIP3   OH247122   5.769   0.415  14.123 -0.8025 -0.7236  0.4180
 8544TIP3    H147123   5.810   0.502  14.127 -1.8223 -0.2665  1.3047
 8544TIP3    H247124   5.843   0.354  14.119 -0.0575  0.1348  0.8874
 8545TIP3   OH247125   6.458   5.542  14.789  0.1987 -0.1383  0.5063
 8545TIP3    H147126   6.484   5.504  14.873  0.5329  1.0831  0.9781
 8545TIP3    H247127   6.406   5.619  14.813 -0.5050 -0.3090 -0.4191
 8546TIP3   OH247128   6.405   3.203  16.358 -0.0066 -0.1213  0.5738
 8546TIP3    H147129   6.356   3.283  16.340  0.6495  0.4393  1.2017
 8546TIP3    H247130   6.395   3.189  16.452  1.5061  0.3613  0.8446
 8547TIP3   OH247131   5.093   1.437  12.453 -0.3939 -0.4270 -0.0114
 8547TIP3    H147132   5.033   1.512  12.449 -0.4358 -0.3926  0.9782
 8547TIP3    H247133   5.118   1.431  12.545 -0.8375 -1.9763  0.0424
 8548TIP3   OH247134   2.630   3.336  14.192  0.1326 -0.1051 -0.2968
 8548TIP3    H147135   2.687   3.316  14.118  0.5324 -1.0691  0.2475
 8548TIP3    H247136   2.689   3.357  14.264 -0.0752 -2.4154  0.6493
 8549TIP3   OH247137   3.482   6.392   4.832  0.5412 -0.4650 -0.1469
 8549TIP3    H147138   3.456   6.336   4.905  1.2796  1.4967  1.7268
 8549TIP3    H247139   3.564   6.433   4.860  0.9924  0.1904 -2.2017
 8550TIP3   OH247140   0.304   2.254   4.539  0.5385 -0.5107  0.0154
 8550TIP3    H147141   0.216   2.229   4.512  0.0180  0.8686  0.3568
 8550TIP3    H247142   0.293   2.296   4.624  1.5468 -0.4692  0.1454
 8551TIP3   OH247143   0.300   6.225   1.531 -0.5695 -0.4883  0.7419
 8551TIP3    H147144   0.332   6.136   1.515 -0.1816 -0.3330  0.6362
 8551TIP3    H247145   0.220   6.231   1.478 -0.7752 -0.8772  1.0001
 8552TIP3   OH247146   3.809   5.442  14.717 -0.6412 -0.2469 -0.7830
 8552TIP3    H147147   3.721   5.441  14.680 -0.7435  0.0669 -0.5520
 8552TIP3    H247148   3.850   5.361  14.684 -1.1332 -0.5759 -0.5921
 8553TIP3   OH247149   6.537   6.235   4.253  0.0708  0.2468  0.2912
 8553TIP3    H147150   6.623   6.200   4.278 -0.6761 -3.2205 -1.3884
 8553TIP3    H247151   6.491   6.247   4.335  1.3591 -0.0857  1.0893
 8554TIP3   OH247152   1.675   1.896   5.716  0.1611  0.2458  0.5403
 8554TIP3    H147153   1.590   1.854   5.700 -0.2211  0.6019  1.5114
 8554TIP3    H247154   1.681   1.900   5.812  1.3106  0.1656  0.4761
 8555TIP3   OH247155   2.620   1.204   3.280 -0.4810 -0.1147 -0.1801
 8555TIP3    H147156   2.590   1.197   3.371  3.9571 -0.9421  1.4777
 8555TIP3    H247157   2.640   1.114   3.254 -0.2342  0.2697 -1.3811
 8556TIP3   OH247158   6.250   5.136  11.299  0.3377 -0.2152  0.5651
 8556TIP3    H147159   6.198   5.057  11.310 -1.6256  0.6634 -1.5613
 8556TIP3    H247160   6.338   5.105  11.278 -0.5604 -1.8631 -1.0025
 8557TIP3   OH247161   0.637   3.591  15.749  0.4634  0.0832  0.4342
 8557TIP3    H147162   0.629   3.539  15.829  1.2375 -0.5133  0.1454
 8557TIP3    H247163   0.610   3.532  15.678 -0.5948  0.7286  0.2722
 8558TIP3   OH247164   4.804   0.179   3.909 -0.0992  0.5771 -0.9257
 8558TIP3    H147165   4.872   0.238   3.941 -0.0840 -0.5219  1.2881
 8558TIP3    H247166   4.759   0.228   3.840  0.3472  2.8772  0.3178
 8559TIP3   OH247167   5.955   0.009   3.654 -0.3099  0.8787  0.0864
 8559TIP3    H147168   5.886  -0.057   3.660  1.4111 -1.1090 -0.9309
 8559TIP3    H247169   5.918   0.076   3.595 -2.0383  0.8434  1.0485
 8560TIP3   OH247170   0.846   1.457  13.924 -0.0284 -0.4070 -0.1388
 8560TIP3    H147171   0.848   1.505  14.007 -1.3491 -0.1560 -0.2366
 8560TIP3    H247172   0.897   1.512  13.864 -2.6106  1.6363 -0.6072
 8561TIP3   OH247173   5.442   2.342   2.563 -0.1414 -0.8583 -0.0529
 8561TIP3    H147174   5.426   2.436   2.569  2.1188 -0.2548 -1.8967
 8561TIP3    H247175   5.456   2.314   2.654  1.3647  1.0685  0.3711
 8562TIP3   OH247176   1.339   1.644  15.964  0.4087 -0.3648 -0.2965
 8562TIP3    H147177   1.388   1.657  15.883  1.9795 -2.0961  0.3089
 8562TIP3    H247178   1.337   1.730  16.006  1.1520  0.1610 -1.3129
 8563TIP3   OH247179   4.631   4.039   0.846  0.1293 -0.1328  0.3925
 8563TIP3    H147180   4.561   4.056   0.782 -0.2279 -0.5038  0.6781
 8563TIP3    H247181   4.665   4.125   0.868 -0.2374  0.0528  0.2455
 8564TIP3   OH247182   6.780   3.690  15.087 -0.3552 -0.7097 -0.1666
 8564TIP3    H147183   6.762   3.635  15.011 -1.5897 -0.7613  0.1535
 8564TIP3    H247184   6.695   3.705  15.127 -0.1866  2.1347 -0.7069
 8565TIP3   OH247185   5.008   4.624   2.876 -0.1403 -0.1136 -0.3606
 8565TIP3    H147186   4.989   4.641   2.968 -1.6991 -0.8158 -0.5181
 8565TIP3    H247187   5.083   4.680   2.856 -0.0747  0.4030  1.2024
 8566TIP3   OH247188   2.197   6.615  11.385  0.9569 -0.3544 -0.0815
 8566TIP3    H147189   2.154   6.607  11.300  2.2603  3.5331 -1.3314
 8566TIP3    H247190   2.288   6.593  11.368  1.2976  0.7854  0.1813
 8567TIP3   OH247191   5.540   0.920  11.129 -0.2387  0.2942 -0.6398
 8567TIP3    H147192   5.473   0.853  11.144  0.6276 -0.6650 -0.9140
 8567TIP3    H247193   5.532   0.979  11.204 -0.0134 -1.0039  0.4593
 8568TIP3   OH247194   4.189   2.465   3.270  0.7964 -0.6326 -0.1261
 8568TIP3    H147195   4.171   2.447   3.363  1.6693 -1.3365 -0.0822
 8568TIP3    H247196   4.133   2.404   3.223 -0.9299  0.8744 -0.1301
 8569TIP3   OH247197   6.103   0.760   0.085  0.2354  0.2321 -0.1050
 8569TIP3    H147198   6.140   0.848   0.076  0.1092  0.3893  0.8241
 8569TIP3    H247199   6.173   0.709   0.125 -0.4010  0.4323  1.2966
 8570TIP3   OH247200   2.852   1.527  13.306 -0.0918 -0.1983 -0.2060
 8570TIP3    H147201   2.833   1.591  13.237  1.1797  0.5745  0.1365
 8570TIP3    H247202   2.825   1.571  13.387 -2.1290 -1.3271 -0.2187
 8571TIP3   OH247203   4.638   6.020   4.546  0.2846 -0.1488  0.6630
 8571TIP3    H147204   4.695   6.007   4.622  0.5311  1.3674  0.7653
 8571TIP3    H247205   4.550   6.006   4.579  0.5552 -3.5880  0.2766
 8572TIP3   OH247206   0.216   5.153   0.688 -0.3025 -0.2109 -0.5473
 8572TIP3    H147207   0.284   5.205   0.732  0.1122 -1.1635 -0.0496
 8572TIP3    H247208   0.170   5.217   0.633 -0.4081  0.8626  0.7541
 8573TIP3   OH247209   1.427   1.749  15.653  0.0274  0.1243 -0.1989
 8573TIP3    H147210   1.346   1.798  15.640 -0.7609 -1.1688 -0.2971
 8573TIP3    H247211   1.411   1.665  15.610  1.9780  0.3955 -1.5711
 8574TIP3   OH247212   2.781   6.075  13.731 -0.5372 -0.0804 -0.0470
 8574TIP3    H147213   2.737   6.027  13.662  0.0924  2.3351 -2.3043
 8574TIP3    H247214   2.874   6.053  13.721 -0.0775  2.2010 -1.8504
 8575TIP3   OH247215   3.926   3.103  14.817 -0.2656 -0.2759  0.1081
 8575TIP3    H147216   3.903   3.140  14.902  1.6543  0.6880  0.2695
 8575TIP3    H247217   3.889   3.164  14.753 -0.1601 -0.0216  0.2913
 8576TIP3   OH247218   2.234   4.616   0.178  0.1963 -0.4183  0.0753
 8576TIP3    H147219   2.227   4.619   0.083  0.0083 -0.8441  0.0757
 8576TIP3    H247220   2.259   4.705   0.203  1.9065 -0.6964 -0.5101
 8577TIP3   OH247221   0.911   1.170   2.715 -0.4726 -0.1165  0.9243
 8577TIP3    H147222   0.979   1.206   2.658 -2.0876 -0.2800 -1.2699
 8577TIP3    H247223   0.940   1.190   2.804  0.4380  3.4357 -0.0267
 8578TIP3   OH247224   6.701   1.239  13.138 -0.4991 -0.4916  0.4668
 8578TIP3    H147225   6.729   1.274  13.053 -1.1438  3.0873  1.5730
 8578TIP3    H247226   6.606   1.250  13.138 -0.4066  0.5651  2.0099
 8579TIP3   OH247227   3.493   5.482  11.860 -0.6205  0.2916  0.3147
 8579TIP3    H147228   3.500   5.451  11.770  0.5908  0.7903  0.2228
 8579TIP3    H247229   3.436   5.559  11.854  0.2592  0.9228 -0.1965
 8580TIP3   OH247230   2.793   3.352  13.180 -0.1473  0.4472  0.0695
 8580TIP3    H147231   2.767   3.443  13.162 -0.2557  0.4455  0.2201
 8580TIP3    H247232   2.764   3.336  13.269 -0.3737  0.1735 -0.0512
 8581TIP3   OH247233   3.924   0.727   5.359  0.2699  0.0281 -0.0397
 8581TIP3    H147234   3.836   0.749   5.331  0.4286  0.5261 -0.1625
 8581TIP3    H247235   3.978   0.742   5.282  0.3249 -1.2334 -0.2548
 8582TIP3   OH247236   0.868   4.850  11.558  0.1355  0.8530  0.1073
 8582TIP3    H147237   0.963   4.836  11.566 -0.0100  0.0724  0.5968
 8582TIP3    H247238   0.844   4.889  11.642 -0.0576  0.5750  0.1806
 8583TIP3   OH247239   1.416   6.116  13.550 -0.0312 -0.0775 -0.2436
 8583TIP3    H147240   1.418   6.167  13.469 -0.4729 -0.4455 -0.4925
 8583TIP3    H247241   1.439   6.027  13.523 -0.1130 -0.1889  0.0453
 8584TIP3   OH247242   1.582   6.534   1.014 -0.9142 -0.2638 -0.0152
 8584TIP3    H147243   1.576   6.629   1.016 -0.2763 -0.1762 -1.1639
 8584TIP3    H247244   1.565   6.506   1.104 -0.9212  0.9417  0.3670
 8585TIP3   OH247245   6.457   5.321   3.218 -0.1448  0.0567  0.2721
 8585TIP3    H147246   6.402   5.387   3.176  0.6856 -0.3837 -1.6519
 8585TIP3    H247247   6.520   5.371   3.269 -1.4503  0.6058  1.3824
 8586TIP3   OH247248   1.502   6.105  14.810 -0.1102  0.0680 -0.1498
 8586TIP3    H147249   1.489   6.074  14.900 -0.8245  0.0822 -0.2426
 8586TIP3    H247250   1.588   6.148  14.812  0.3532 -0.8332  0.2758
 8587TIP3   OH247251   0.283   6.062  14.688  1.0182  0.0622 -0.9704
 8587TIP3    H147252   0.340   6.098  14.756  1.9724 -1.6465 -0.8133
 8587TIP3    H247253   0.230   5.997  14.733  0.5156  0.0531 -1.5575
 8588TIP3   OH247254   4.375   5.289   4.837 -0.5385 -0.1422 -0.6235
 8588TIP3    H147255   4.391   5.245   4.920 -1.6957 -0.6667 -0.6604
 8588TIP3    H247256   4.456   5.339   4.820 -1.0718  1.7709  1.8951
 8589TIP3   OH247257   0.886   5.947   2.150  0.1041 -0.3428 -0.4278
 8589TIP3    H147258   0.909   5.868   2.199  2.3125 -0.4420 -1.4915
 8589TIP3    H247259   0.892   6.018   2.214 -1.0285 -0.9056  0.3300
 8590TIP3   OH247260   0.166   2.770  13.601 -0.3627  0.8052 -0.4263
 8590TIP3    H147261   0.090   2.770  13.660 -0.1115  0.3923 -0.0920
 8590TIP3    H247262   0.207   2.685  13.617  0.5202  1.2704 -0.1510
 8591TIP3   OH247263   3.909   6.142   6.435  0.0409  0.0508 -0.2076
 8591TIP3    H147264   3.903   6.234   6.409 -0.5362 -0.2999 -1.3509
 8591TIP3    H247265   4.002   6.129   6.457  0.2280  0.7601 -0.5713
 8592TIP3   OH247266   4.615   1.469   1.484  0.3026  0.7229  0.2658
 8592TIP3    H147267   4.681   1.487   1.551  0.1511  2.2717  0.0295
 8592TIP3    H247268   4.595   1.554   1.447 -1.0680  0.1306 -0.4056
 8593TIP3   OH247269   1.803   6.148   5.543  0.0972 -0.0418  0.1356
 8593TIP3    H147270   1.770   6.059   5.531  2.3799 -1.3104  2.3047
 8593TIP3    H247271   1.790   6.167   5.636  1.6153  0.9789  0.1907
 8594TIP3   OH247272   2.891   4.133  15.347  0.2315 -0.1434 -0.1250
 8594TIP3    H147273   2.932   4.180  15.274  1.6819  0.6553  1.1389
 8594TIP3    H247274   2.813   4.092  15.309 -0.5522  2.4307 -1.5344
 8595TIP3   OH247275   1.223   2.672  13.325 -0.5968  0.7969 -0.1742
 8595TIP3    H147276   1.179   2.605  13.376  1.6472 -0.1500  0.5884
 8595TIP3    H247277   1.212   2.644  13.234 -0.0893 -0.3536  0.1102
 8596TIP3   OH247278   2.415   3.065  11.445  0.7572  0.5072  0.5298
 8596TIP3    H147279   2.325   3.071  11.413  0.4944  1.7204  1.4394
 8596TIP3    H247280   2.467   3.047  11.367 -0.1210  1.1717 -0.2289
 8597TIP3   OH247281   0.605   3.870  14.673  0.3408 -0.3851  0.2089
 8597TIP3    H147282   0.548   3.942  14.700  1.5045  0.1820  1.2872
 8597TIP3    H247283   0.554   3.791  14.692 -0.4883  0.1259  0.1443
 8598TIP3   OH247284   6.138   5.384  14.666  0.3388 -0.6863  0.4473
 8598TIP3    H147285   6.229   5.362  14.644  0.0943 -0.1265 -1.2390
 8598TIP3    H247286   6.135   5.480  14.664  0.1361 -0.6212  2.4053
 8599TIP3   OH247287   2.763   1.683  16.454  0.6201  0.2634  0.5903
 8599TIP3    H147288   2.837   1.732  16.490  2.6254 -0.1536 -2.5713
 8599TIP3    H247289   2.802   1.605  16.415 -1.8932 -1.4601  1.2452
 8600TIP3   OH247290   5.406   3.093  15.402  0.1412 -0.5383  0.1066
 8600TIP3    H147291   5.495   3.081  15.370 -0.9866 -2.0758 -2.8001
 8600TIP3    H247292   5.394   3.188  15.406  1.4051 -0.3075 -1.0228
 8601TIP3   OH247293   0.391   0.965  16.057  0.0361 -0.0805  0.4439
 8601TIP3    H147294   0.465   1.018  16.027 -1.5003  1.9661  0.0039
 8601TIP3    H247295   0.376   0.902  15.987 -0.2872  1.2898 -0.7814
 8602TIP3   OH247296   0.324   1.449  16.599  0.3404 -0.2309 -0.0555
 8602TIP3    H147297   0.419   1.455  16.606  0.2163  0.6915  1.0300
 8602TIP3    H247298   0.293   1.447  16.690 -0.7282  0.3147 -0.3925
 8603TIP3   OH247299   2.163   2.234  14.951  0.9452  0.1038  0.1156
 8603TIP3    H147300   2.179   2.303  15.015  1.4891  0.3447 -0.2816
 8603TIP3    H247301   2.108   2.171  14.998 -0.4650  1.3009  0.1594
 8604TIP3   OH247302   5.973   0.883   4.209 -0.3728 -0.0758  0.2025
 8604TIP3    H147303   5.918   0.900   4.133  1.4133  0.5684 -1.0142
 8604TIP3    H247304   5.923   0.916   4.283 -1.6124  0.4811 -0.8538
 8605TIP3   OH247305   5.246   1.011   3.832 -0.0716  0.5805 -0.6492
 8605TIP3    H147306   5.221   1.084   3.887 -0.3430  0.0006  0.0145
 8605TIP3    H247307   5.191   0.938   3.861  0.9197 -0.1665 -0.5777
 8606TIP3   OH247308   0.944   3.118  16.911  0.2038  0.0194  0.2408
 8606TIP3    H147309   1.013   3.178  16.939  0.7570 -0.3546 -0.2869
 8606TIP3    H247310   0.866   3.145  16.960  1.0009 -0.2609  1.7037
 8607TIP3   OH247311   2.666   1.722   3.383  0.0710  0.0929 -0.0252
 8607TIP3    H147312   2.595   1.714   3.446 -0.5077 -1.0555 -0.7693
 8607TIP3    H247313   2.677   1.816   3.369  0.1610  0.3658  1.6935
 8608TIP3   OH247314   5.649   6.737   6.714  0.0014 -0.4237 -0.4061
 8608TIP3    H147315   5.557   6.711   6.716 -0.4384  0.9982  2.0218
 8608TIP3    H247316   5.695   6.667   6.760 -0.0335 -0.5675 -0.5876
 8609TIP3   OH247317   6.792   2.603   2.843  0.3958  0.1849  0.0242
 8609TIP3    H147318   6.776   2.595   2.749  0.4823 -1.3202  0.1112
 8609TIP3    H247319   6.719   2.556   2.883  0.8932 -0.0458  0.6680
 8610TIP3   OH247320   1.441   2.830   3.564  0.9635 -0.4265  0.2809
 8610TIP3    H147321   1.392   2.858   3.641 -2.8025  1.4584 -2.4686
 8610TIP3    H247322   1.406   2.744   3.542 -0.0567  0.2122 -0.7498
 8611TIP3   OH247323   6.764   2.367  15.563  0.1243 -0.0784 -0.3692
 8611TIP3    H147324   6.852   2.363  15.600 -0.3309  0.1813  0.8002
 8611TIP3    H247325   6.737   2.276  15.555 -1.0840 -0.2530  3.3766
 8612TIP3   OH247326   1.029   3.373  13.966 -0.1341 -0.0843  0.4348
 8612TIP3    H147327   0.951   3.426  13.979 -0.4291 -0.1662 -0.8697
 8612TIP3    H247328   0.997   3.292  13.925  0.7470  0.4677 -1.4771
 8613TIP3   OH247329   0.497   0.553  13.332 -0.0232  0.1423  0.1026
 8613TIP3    H147330   0.553   0.530  13.407  0.9636 -0.3258 -0.7436
 8613TIP3    H247331   0.559   0.572  13.261 -0.9258 -0.4994 -0.9008
 8614TIP3   OH247332   4.339   4.879  12.942  0.5662  0.2476  0.0367
 8614TIP3    H147333   4.312   4.943  13.007  0.8886  1.7804 -1.2629
 8614TIP3    H247334   4.262   4.823  12.929 -0.4117  1.6129 -0.2166
 8615TIP3   OH247335   2.068   1.781   0.865 -0.2745 -0.1951  0.0485
 8615TIP3    H147336   2.151   1.768   0.911 -0.2887  1.0294  0.4465
 8615TIP3    H247337   2.091   1.831   0.787 -0.7033  0.6881  0.4730
 8616TIP3   OH247338   5.800   5.818  11.511 -0.3727  0.4754 -0.2550
 8616TIP3    H147339   5.833   5.785  11.427 -1.1096 -0.9864 -0.0015
 8616TIP3    H247340   5.879   5.839  11.561  0.1579 -0.8870 -0.4677
 8617TIP3   OH247341   2.719   4.036  13.416  0.6577 -0.1336  0.3476
 8617TIP3    H147342   2.689   3.946  13.423  0.8702 -0.1397  1.3949
 8617TIP3    H247343   2.639   4.087  13.400  0.4773 -0.4518  0.2359
 8618TIP3   OH247344   6.813   4.898   0.138  0.6622 -0.0060  0.3550
 8618TIP3    H147345   6.826   4.805   0.119  1.1146  0.1111  0.0763
 8618TIP3    H247346   6.849   4.943   0.062 -3.0586  0.3109 -1.4935
 8619TIP3   OH247347   4.713   2.418   1.664  0.3020  0.7389 -0.3343
 8619TIP3    H147348   4.721   2.324   1.654 -2.5074 -0.2129  3.8549
 8619TIP3    H247349   4.774   2.440   1.734 -0.5780  1.5810  0.1973
 8620TIP3   OH247350   1.584   6.042  13.301 -0.2872  0.6678 -0.3090
 8620TIP3    H147351   1.534   6.114  13.262 -0.6350  0.7410  0.2504
 8620TIP3    H247352   1.605   5.984  13.228 -1.6785  0.3484 -0.4799
 8621TIP3   OH247353   2.839   0.046   4.641 -0.2676  0.1803 -0.5021
 8621TIP3    H147354   2.881   0.110   4.699  0.0909 -0.9318  0.4885
 8621TIP3    H247355   2.904  -0.023   4.630 -1.2220 -0.7683 -0.3097
 8622TIP3   OH247356   6.334   3.213  11.529 -0.4853  0.1471 -0.1105
 8622TIP3    H147357   6.333   3.292  11.583  0.9999 -2.6795  4.7131
 8622TIP3    H247358   6.242   3.186  11.525 -0.6763  0.6142  0.7976
 8623TIP3   OH247359   2.201   5.498  13.031 -0.1774 -0.1484  0.4857
 8623TIP3    H147360   2.286   5.489  13.073 -0.7847  0.1684  1.8288
 8623TIP3    H247361   2.167   5.408  13.026  0.3362 -0.3073 -0.3022
 8624TIP3   OH247362   6.489   6.755  14.539  0.8512  0.1548 -0.0436
 8624TIP3    H147363   6.529   6.771  14.454 -0.5287  0.0362 -0.7435
 8624TIP3    H247364   6.408   6.805  14.538 -0.7662 -2.2852 -0.0678
 8625TIP3   OH247365   3.100   5.468  11.688 -0.1043  0.0058 -0.2728
 8625TIP3    H147366   3.054   5.426  11.616 -0.5617  2.5570 -1.6042
 8625TIP3    H247367   3.126   5.554  11.653  2.2075  0.2236  1.7064
 8626TIP3   OH247368   0.633   1.362   3.683  0.3998 -0.2540  0.2348
 8626TIP3    H147369   0.602   1.448   3.653  1.9423  1.1497  2.3981
 8626TIP3    H247370   0.569   1.336   3.749  0.2373 -0.5291 -0.0274
 8627TIP3   OH247371   1.941   1.026  16.963  1.3339  0.7824 -0.2896
 8627TIP3    H147372   1.856   1.056  16.996  0.9513 -0.8579  0.2727
 8627TIP3    H247373   2.001   1.098  16.983  0.3794  1.3378  0.6511
 8628TIP3   OH247374   5.370   1.758  16.502 -0.0350 -0.5726 -0.1942
 8628TIP3    H147375   5.375   1.700  16.426  0.9544 -0.1353 -0.4809
 8628TIP3    H247376   5.457   1.796  16.508 -0.8068  1.3012 -0.3470
 8629TIP3   OH247377   5.008   4.562   2.583  0.2283  0.0400  0.2415
 8629TIP3    H147378   5.076   4.496   2.601 -0.6015 -0.4734  1.6520
 8629TIP3    H247379   4.984   4.595   2.670 -1.7045 -0.1932 -0.1720
 8630TIP3   OH247380   1.239   5.012   6.553 -0.6194 -0.0529 -0.4148
 8630TIP3    H147381   1.295   5.084   6.523 -0.1275 -0.9631 -1.7845
 8630TIP3    H247382   1.173   5.054   6.609 -0.9210  1.6171 -1.9335
 8631TIP3   OH247383   2.631   2.792   2.823  0.1188  0.0027 -0.1876
 8631TIP3    H147384   2.635   2.872   2.874  2.6205 -0.0519 -0.1909
 8631TIP3    H247385   2.644   2.820   2.732  0.2902 -0.3405 -0.2711
 8632TIP3   OH247386   1.464   1.321  15.478 -0.0854  0.0364  0.5015
 8632TIP3    H147387   1.425   1.252  15.424 -0.0659 -0.1876  0.7706
 8632TIP3    H247388   1.534   1.277  15.527  0.6021  0.4627 -0.0786
 8633TIP3   OH247389   6.217   5.664   0.711 -0.2657  0.5240 -0.1834
 8633TIP3    H147390   6.304   5.691   0.741 -0.7016  1.2184  0.5092
 8633TIP3    H247391   6.218   5.568   0.717  0.5417  0.5071 -0.4553
 8634TIP3   OH247392   5.692   1.941  11.696  0.1261 -0.1614 -0.2389
 8634TIP3    H147393   5.611   1.892  11.682 -0.0075  0.3834 -1.5279
 8634TIP3    H247394   5.663   2.032  11.702  0.4621 -0.1215  1.2842
 8635TIP3   OH247395   4.859   0.264  13.187  0.2376  0.2924  0.4561
 8635TIP3    H147396   4.779   0.317  13.182  0.0265  0.1449  1.7332
 8635TIP3    H247397   4.829   0.174  13.177  0.4487  0.3278 -0.5610
 8636TIP3   OH247398   4.288   5.289   0.984  0.1981 -0.5872 -0.5178
 8636TIP3    H147399   4.259   5.376   0.956 -1.7034 -1.0154  0.0199
 8636TIP3    H247400   4.324   5.249   0.904  2.0242  1.0038 -0.5670
 8637TIP3   OH247401   5.022   0.223   6.143  0.7772  0.0622  0.2249
 8637TIP3    H147402   5.032   0.156   6.211  0.9308  0.7000  0.8401
 8637TIP3    H247403   5.065   0.300   6.179 -1.1462  1.0983  0.4045
 8638TIP3   OH247404   5.361   4.371  12.293 -0.0808 -0.0146  0.3872
 8638TIP3    H147405   5.435   4.404  12.345 -0.6713 -0.8710  1.8520
 8638TIP3    H247406   5.338   4.443  12.235  0.8336  0.8765  1.0923
 8639TIP3   OH247407   4.267   5.946  11.860  0.0807 -0.4091 -0.4667
 8639TIP3    H147408   4.245   5.854  11.875  1.5961 -0.8673 -0.8549
 8639TIP3    H247409   4.361   5.945  11.840 -0.0836  1.1134 -1.4647
 8640TIP3   OH247410   6.510   3.040   1.345 -0.0269 -0.1054 -0.3696
 8640TIP3    H147411   6.467   3.013   1.263  0.4059  0.0068 -0.6374
 8640TIP3    H247412   6.442   3.089   1.391 -1.1143 -2.3134  0.5302
 8641TIP3   OH247413   1.819   4.641  12.684 -0.4005  0.5088 -0.7113
 8641TIP3    H147414   1.861   4.700  12.747 -0.0713 -0.4329 -0.0200
 8641TIP3    H247415   1.738   4.686  12.660  0.7789  2.1778 -1.7703
 8642TIP3   OH247416   3.240   5.297  11.857  0.2883  0.2398  0.1621
 8642TIP3    H147417   3.184   5.368  11.824  0.7594  1.8923  2.6071
 8642TIP3    H247418   3.326   5.339  11.870  0.3454 -0.4677  2.5248
 8643TIP3   OH247419   6.815   3.774   4.437 -0.3564 -0.1113 -0.0263
 8643TIP3    H147420   6.881   3.717   4.477  0.6812  0.9747 -0.1515
 8643TIP3    H247421   6.833   3.769   4.344  0.6283  1.4491  0.0503
 8644TIP3   OH247422   2.371   5.841  15.702 -0.2576  0.1082  0.2271
 8644TIP3    H147423   2.391   5.916  15.758  0.2774  2.4744 -2.8802
 8644TIP3    H247424   2.388   5.872  15.613  0.4192 -3.8783 -1.2432
 8645TIP3   OH247425   6.506   0.774   3.615  0.2305  0.3042 -0.5807
 8645TIP3    H147426   6.510   0.705   3.549  2.2206  0.5212 -0.7557
 8645TIP3    H247427   6.598   0.790   3.638 -0.0910  3.3341 -1.0192
 8646TIP3   OH247428   4.859   4.292   6.483  0.3567  0.5253 -0.0405
 8646TIP3    H147429   4.775   4.293   6.528  0.4920  1.3045  0.1996
 8646TIP3    H247430   4.846   4.348   6.407  0.8535  1.1847  0.3560
 8647TIP3   OH247431   2.466   2.921  16.732  0.1019  0.1397  0.0836
 8647TIP3    H147432   2.404   2.965  16.674 -0.2974 -0.5695 -0.0413
 8647TIP3    H247433   2.552   2.940  16.694 -0.1936 -0.8755 -1.1445
 8648TIP3   OH247434   2.009   6.622   0.877 -0.3743 -0.0874  0.0589
 8648TIP3    H147435   2.016   6.708   0.837 -1.1844 -0.4961 -1.0101
 8648TIP3    H247436   2.034   6.561   0.808  0.6870 -0.7127  0.9505
 8649TIP3   OH247437   5.228   3.133  16.012  0.1602  0.1398  0.0976
 8649TIP3    H147438   5.221   3.074  16.087  0.1284  0.7599  0.5892
 8649TIP3    H247439   5.178   3.210  16.038  1.9072  1.2377  0.3116
 8650TIP3   OH247440   5.328   5.426   5.843  0.3958  0.7542  0.2181
 8650TIP3    H147441   5.233   5.434   5.857  0.2650 -1.4561  1.1115
 8650TIP3    H247442   5.367   5.452   5.927  0.4428  0.1051  0.4090
 8651TIP3   OH247443   2.697   4.506   2.453 -0.6221 -0.3636  0.1738
 8651TIP3    H147444   2.738   4.503   2.540 -0.4661 -1.4953  0.0728
 8651TIP3    H247445   2.769   4.530   2.394 -0.4648 -0.7730  0.2003
 8652TIP3   OH247446   2.753   6.415   5.439  0.2464  0.1842 -0.4541
 8652TIP3    H147447   2.712   6.450   5.518  0.9649 -0.0105  0.0192
 8652TIP3    H247448   2.819   6.480   5.415  0.0393  0.2367 -0.8900
 8653TIP3   OH247449   3.023   3.887   5.714  0.2013  0.1510  0.1819
 8653TIP3    H147450   3.011   3.982   5.715  0.0895  0.1460 -0.5575
 8653TIP3    H247451   3.036   3.865   5.622  1.3175 -0.4176  0.4476
 8654TIP3   OH247452   1.022   3.960   0.612 -0.6671  0.0522  0.4163
 8654TIP3    H147453   0.951   3.991   0.669  0.0364  2.1555  0.2450
 8654TIP3    H247454   1.034   4.031   0.548  2.3653  0.3628  1.1766
 8655TIP3   OH247455   2.938   4.203   6.193  0.0649  0.1338 -0.1372
 8655TIP3    H147456   2.989   4.283   6.181  0.0622 -0.0538 -1.6106
 8655TIP3    H247457   2.918   4.201   6.287  0.6035  1.5152  0.0328
 8656TIP3   OH247458   5.921   4.199  14.880 -0.2045 -0.0707  0.0951
 8656TIP3    H147459   5.865   4.121  14.872 -1.5564  0.9293 -0.5408
 8656TIP3    H247460   6.010   4.164  14.880 -0.7133 -1.5443 -1.5831
 8657TIP3   OH247461   0.248   5.621  14.407  0.4790 -0.1935  0.9168
 8657TIP3    H147462   0.215   5.695  14.458  1.3501  0.4686  0.5485
 8657TIP3    H247463   0.250   5.653  14.317  0.7112 -0.7195  0.7337
 8658TIP3   OH247464   0.347   4.013   0.219 -0.6574 -0.6716  0.0942
 8658TIP3    H147465   0.439   4.033   0.200 -0.7828  0.5535  0.6960
 8658TIP3    H247466   0.351   3.936   0.276 -0.0445 -1.0895 -0.4994
 8659TIP3   OH247467   0.086   0.303  16.550  0.3061 -0.2791 -0.1514
 8659TIP3    H147468   0.111   0.211  16.559 -0.1579 -0.7471 -2.9027
 8659TIP3    H247469   0.165   0.347  16.520  0.2702  0.0453  0.2215
 8660TIP3   OH247470   4.014   4.815   0.437 -0.1307  0.1951 -0.3127
 8660TIP3    H147471   4.013   4.882   0.369 -0.8575  1.0443  0.5210
 8660TIP3    H247472   3.971   4.739   0.396  1.6064 -0.1632 -1.6090
 8661TIP3   OH247473   4.501   1.178   1.749 -0.2047 -0.0266  0.8182
 8661TIP3    H147474   4.460   1.251   1.702 -0.3456 -0.1664  0.7205
 8661TIP3    H247475   4.527   1.214   1.833 -1.6334 -0.2392  1.3732
 8662TIP3   OH247476   2.105   0.496   0.946 -0.0015 -0.1410 -0.2969
 8662TIP3    H147477   2.026   0.488   0.999  1.4745  0.5122  2.1299
 8662TIP3    H247478   2.168   0.439   0.988  1.4478  0.9358 -0.9282
 8663TIP3   OH247479   4.202   0.175   2.113 -0.1809  0.2464  0.2715
 8663TIP3    H147480   4.250   0.250   2.079 -1.3473  0.9119  0.0236
 8663TIP3    H247481   4.269   0.108   2.129  0.7112  0.8720 -0.7546
 8664TIP3   OH247482   0.043   5.697  13.200  0.2685  0.4551 -0.4928
 8664TIP3    H147483   0.023   5.654  13.283  0.9576  0.1216 -0.4892
 8664TIP3    H247484  -0.019   5.659  13.138  0.8366 -0.5312 -0.4810
 8665TIP3   OH247485   4.181   4.548   2.696  0.2849  0.5298 -0.1391
 8665TIP3    H147486   4.198   4.605   2.771  0.9424 -0.0367  0.1561
 8665TIP3    H247487   4.256   4.562   2.638  0.7771 -0.4881  0.2294
 8666TIP3   OH247488   3.082   5.808  15.430  0.2116  0.5570 -0.2992
 8666TIP3    H147489   3.170   5.844  15.417  0.2478  0.8001  0.5451
 8666TIP3    H247490   3.088   5.761  15.513 -1.0201  2.4721  0.9592
 8667TIP3   OH247491   3.909   3.977  14.582  0.1111  0.3531 -0.3414
 8667TIP3    H147492   3.872   3.936  14.660 -3.8785  1.4276 -1.4294
 8667TIP3    H247493   3.909   4.071  14.602  1.3628  0.4879 -0.8347
 8668TIP3   OH247494   6.353   0.799  13.240  0.5079  0.1748  0.1754
 8668TIP3    H147495   6.348   0.826  13.149 -0.2333  1.4460  0.5725
 8668TIP3    H247496   6.264   0.770  13.262  0.5141  0.5194  0.6777
 8669TIP3   OH247497   3.539   3.095  10.760  0.0156 -0.2145  0.4845
 8669TIP3    H147498   3.623   3.051  10.775 -1.6603 -3.5397  1.1037
 8669TIP3    H247499   3.522   3.084  10.667  0.4498  0.8865  0.2640
 8670TIP3   OH247500   3.344   2.394   3.713 -0.2580  0.0075  0.4743
 8670TIP3    H147501   3.345   2.441   3.629 -1.4731  0.0373  0.4523
 8670TIP3    H247502   3.254   2.402   3.743 -0.5077 -2.2372  0.5115
 8671TIP3   OH247503   4.461   2.593  11.546 -0.5750  0.4140  0.4174
 8671TIP3    H147504   4.513   2.593  11.465  0.8813  1.4373  1.3014
 8671TIP3    H247505   4.399   2.665  11.534  0.5313  1.4530  0.7194
 8672TIP3   OH247506   3.794   2.930  16.908  0.3977 -0.2164  0.3416
 8672TIP3    H147507   3.870   2.979  16.875 -0.0241  0.1447 -0.1072
 8672TIP3    H247508   3.813   2.839  16.886  0.5250 -0.0818 -0.1343
 8673TIP3   OH247509   2.485   0.738   4.436  0.0004 -0.5778  0.5429
 8673TIP3    H147510   2.470   0.651   4.397 -1.7910  0.0602 -0.3020
 8673TIP3    H247511   2.447   0.731   4.524 -1.0141 -0.4122  0.1400
 8674TIP3   OH247512   6.174   2.523   1.358  0.5313  0.0502 -0.3589
 8674TIP3    H147513   6.161   2.429   1.374 -0.3891  0.2765  0.2502
 8674TIP3    H247514   6.109   2.566   1.413  1.0357  1.0591 -0.5431
 8675TIP3   OH247515   4.287   1.360  16.113 -0.2397 -0.5020 -0.4523
 8675TIP3    H147516   4.228   1.432  16.136  1.2520  0.4580  0.5085
 8675TIP3    H247517   4.264   1.289  16.173  0.6504  0.4416  1.0392
 8676TIP3   OH247518   1.258   5.427   0.404 -0.4726  0.2425 -0.1322
 8676TIP3    H147519   1.222   5.512   0.379  0.3792  0.4710 -0.6150
 8676TIP3    H247520   1.323   5.446   0.472  0.0369  0.0343 -0.5496
 8677TIP3   OH247521   2.572   1.249   0.780 -0.1520  0.1827  0.5677
 8677TIP3    H147522   2.519   1.250   0.701  0.7689  0.3132 -0.0619
 8677TIP3    H247523   2.509   1.243   0.851 -0.9675 -0.6096 -0.1998
 8678TIP3   OH247524   1.415   5.361  16.778  0.0906  0.1158 -0.0850
 8678TIP3    H147525   1.432   5.434  16.719 -2.2624  2.0945  1.4555
 8678TIP3    H247526   1.499   5.342  16.819  1.0041  1.1373 -1.4321
 8679TIP3   OH247527   0.800   0.191   4.734  0.4676 -0.4390 -0.2571
 8679TIP3    H147528   0.815   0.193   4.828 -0.1211 -0.1802 -0.1668
 8679TIP3    H247529   0.805   0.098   4.711 -2.3211 -0.8836  0.5279
 8680TIP3   OH247530   5.256   3.123   5.269  0.4561 -0.4075  0.2366
 8680TIP3    H147531   5.324   3.115   5.336 -0.3410 -1.3208  0.9717
 8680TIP3    H247532   5.280   3.058   5.203  1.0905  0.3042 -0.2602
 8681TIP3   OH247533   0.274   5.713   5.599  0.1210 -0.2960 -0.3187
 8681TIP3    H147534   0.293   5.711   5.693 -0.0336 -1.1933 -0.2991
 8681TIP3    H247535   0.341   5.658   5.559  2.5647  3.0185 -1.2323
 8682TIP3   OH247536   2.434   5.683   2.346  0.0640  0.2445 -0.4765
 8682TIP3    H147537   2.445   5.695   2.251  1.3701 -0.0147 -0.3846
 8682TIP3    H247538   2.505   5.623   2.370  0.3005  1.0243  0.8168
 8683TIP3   OH247539   0.013   5.837   2.092 -0.6069  0.4630  0.8220
 8683TIP3    H147540   0.026   5.931   2.090 -0.8864  0.5206  1.3820
 8683TIP3    H247541   0.020   5.814   2.185  1.2287 -0.3296  0.5394
 8684TIP3   OH247542   0.852   0.706  13.123  0.2681 -0.7416 -0.1483
 8684TIP3    H147543   0.841   0.623  13.169 -2.1812 -0.4313 -0.0346
 8684TIP3    H247544   0.894   0.764  13.187  3.1720 -2.1430 -0.6314
 8685TIP3   OH247545   1.884   3.132   3.976 -0.3167  0.0966  0.0886
 8685TIP3    H147546   1.964   3.176   3.946 -0.4371  0.2245 -0.0488
 8685TIP3    H247547   1.823   3.204   3.993 -0.7963 -0.0473 -0.9334
 8686TIP3   OH247548   3.384   6.438  13.468  0.2246  0.0786 -0.0692
 8686TIP3    H147549   3.377   6.417  13.561  1.5474  1.7771  0.4671
 8686TIP3    H247550   3.434   6.366  13.430  1.5011  0.4007  0.9629
 8687TIP3   OH247551   5.940   5.397  12.086 -0.5048  0.2152  0.2999
 8687TIP3    H147552   5.855   5.354  12.099  0.6147 -2.5796 -0.8437
 8687TIP3    H247553   5.918   5.489  12.069 -3.1965 -0.1818  1.1865
 8688TIP3   OH247554   3.430   0.478   4.346  0.0521 -0.4294 -0.2805
 8688TIP3    H147555   3.357   0.425   4.314 -0.8171 -0.9381  2.2640
 8688TIP3    H247556   3.504   0.416   4.351  0.5043 -0.0879 -2.1764
 8689TIP3   OH247557   0.298   6.802   4.052 -0.2644 -0.5605  0.0415
 8689TIP3    H147558   0.261   6.728   4.101  0.3856 -1.0242 -0.1544
 8689TIP3    H247559   0.386   6.773   4.028 -0.3261 -0.0669 -0.8110
 8690TIP3   OH247560   2.982   0.489   2.317 -0.2167 -0.3017 -0.0958
 8690TIP3    H147561   2.915   0.547   2.353  1.5347  2.4877 -0.9767
 8690TIP3    H247562   3.063   0.516   2.362  0.9553 -0.8164 -1.8081
 8691TIP3   OH247563   1.655   2.503   4.707 -0.1187  0.5394 -0.4358
 8691TIP3    H147564   1.589   2.484   4.641  0.2645  1.8346 -1.2310
 8691TIP3    H247565   1.670   2.420   4.751 -0.1173 -0.4466 -2.2198
 8692TIP3   OH247566   5.739   2.589   1.232  0.4743 -0.1348 -0.1958
 8692TIP3    H147567   5.690   2.594   1.314  1.0519 -0.2278  0.1596
 8692TIP3    H247568   5.787   2.672   1.228 -0.0159  0.1289 -0.7413
 8693TIP3   OH247569   5.600   4.712   6.087  0.3319 -0.5115  0.5440
 8693TIP3    H147570   5.682   4.736   6.130  0.4869  2.3653 -1.1264
 8693TIP3    H247571   5.627   4.660   6.011  0.5596 -0.1419  0.3716
 8694TIP3   OH247572   5.806   4.229  15.630  0.1621 -0.2409 -0.9510
 8694TIP3    H147573   5.827   4.178  15.552 -1.7202 -0.7326 -1.1749
 8694TIP3    H247574   5.758   4.305  15.597 -0.7261 -0.4929 -0.2964
 8695TIP3   OH247575   2.609   2.919   0.704  0.2956 -0.2347 -0.0076
 8695TIP3    H147576   2.690   2.950   0.743  1.1087  0.2322 -1.9469
 8695TIP3    H247577   2.636   2.873   0.624 -1.2000 -2.2111  0.5329
 8696TIP3   OH247578   0.998   0.430   0.565  0.6442 -0.4522 -0.3860
 8696TIP3    H147579   1.028   0.342   0.588  1.1593  0.0735  1.0750
 8696TIP3    H247580   0.917   0.416   0.516  0.7141 -1.7359 -0.1607
 8697TIP3   OH247581   6.228   5.500   4.283 -0.1573  0.0465 -0.4130
 8697TIP3    H147582   6.312   5.545   4.275 -0.7884  1.0574 -2.0779
 8697TIP3    H247583   6.212   5.465   4.195 -0.4860 -2.0340  0.4319
 8698TIP3   OH247584   1.485   2.567  16.952  0.4192  0.2191  0.5371
 8698TIP3    H147585   1.428   2.496  16.920 -0.2953  1.1031 -0.2202
 8698TIP3    H247586   1.424   2.631  16.989  0.7711  1.6978 -1.2962
 8699TIP3   OH247587   6.130   6.268   4.082  0.1952 -0.2544 -0.5252
 8699TIP3    H147588   6.150   6.312   4.164 -0.5780 -0.1731 -0.3699
 8699TIP3    H247589   6.203   6.289   4.024 -0.6033  2.0516 -0.7803
 8700TIP3   OH247590   5.896   1.815   0.873  0.1288  0.3465  0.4108
 8700TIP3    H147591   5.869   1.899   0.835  0.3016  0.3034  0.1894
 8700TIP3    H247592   5.865   1.818   0.963  1.1704  1.1411  0.7608
 8701TIP3   OH247593   1.146   0.790   2.446  0.7211 -0.2349  0.1014
 8701TIP3    H147594   1.114   0.745   2.368 -0.3149 -0.8091  0.8255
 8701TIP3    H247595   1.149   0.882   2.420 -0.5866 -0.2828 -0.3413
 8702TIP3   OH247596   1.325   4.757   4.835  0.1155  0.1081  0.4168
 8702TIP3    H147597   1.325   4.775   4.929  0.5876  1.0155  0.2540
 8702TIP3    H247598   1.236   4.729   4.816 -0.0525  0.1694  1.0903
 8703TIP3   OH247599   1.133   5.956   4.012 -0.0996  0.5135 -0.1803
 8703TIP3    H147600   1.144   6.008   3.932 -1.3648  0.8642 -0.1445
 8703TIP3    H247601   1.044   5.921   4.005  0.4306 -0.9909  0.1918
 8704TIP3   OH247602   0.083   0.934   1.972  0.6194  0.3971  0.7422
 8704TIP3    H147603   0.107   0.947   1.881  2.5187 -0.5077  1.0678
 8704TIP3    H247604   0.125   0.852   1.997 -1.6119 -0.4845  1.8657
 8705TIP3   OH247605   5.940   3.079   4.807  0.0136 -0.3767  0.1515
 8705TIP3    H147606   5.966   3.023   4.734  1.9551  1.4582 -0.6728
 8705TIP3    H247607   5.846   3.095   4.792  0.3423 -0.0546 -1.9934
 8706TIP3   OH247608   3.046   3.477  13.160  0.0923  0.2645  0.2212
 8706TIP3    H147609   3.069   3.386  13.175  0.3607  0.4937  1.2655
 8706TIP3    H247610   2.961   3.474  13.117  0.4562 -0.4913 -0.4741
 8707TIP3   OH247611   3.667   1.615  11.519 -0.0867 -0.0729  0.4736
 8707TIP3    H147612   3.713   1.616  11.603 -2.3394 -0.5852  1.7857
 8707TIP3    H247613   3.664   1.706  11.492  2.4271 -0.0940 -0.1423
 8708TIP3   OH247614   3.808   1.187   3.795  0.1613  0.3269  0.0336
 8708TIP3    H147615   3.832   1.276   3.822 -1.4331  1.0565 -0.7913
 8708TIP3    H247616   3.890   1.149   3.763  1.0616  1.1514  1.2551
 8709TIP3   OH247617   4.954   5.834   0.716  0.3817 -1.3162  1.1895
 8709TIP3    H147618   4.883   5.861   0.658  1.9804  0.6052  0.0372
 8709TIP3    H247619   4.938   5.883   0.797 -0.0804 -1.5996  1.2790
 8710TIP3   OH247620   4.837   4.181   4.718  0.8538  0.4639  0.0660
 8710TIP3    H147621   4.913   4.146   4.672  2.3395  0.8996  2.0559
 8710TIP3    H247622   4.814   4.260   4.669  1.0709 -0.1693 -1.0901
 8711TIP3   OH247623   5.765   1.514   1.173 -0.4948 -0.1874 -0.0163
 8711TIP3    H147624   5.669   1.517   1.165 -0.7168  1.1702  2.2068
 8711TIP3    H247625   5.781   1.451   1.243  0.3856 -1.5219 -1.3546
 8712TIP3   OH247626   6.500   0.409   5.323  0.0890  0.0852 -0.5271
 8712TIP3    H147627   6.558   0.364   5.263  0.1660  0.1945 -0.5347
 8712TIP3    H247628   6.478   0.491   5.279  0.3341  0.2737 -0.3052
 8713TIP3   OH247629   2.062   4.430  16.728 -0.2371 -0.0582  0.0100
 8713TIP3    H147630   1.987   4.446  16.671 -0.5351 -1.6272 -0.1010
 8713TIP3    H247631   2.044   4.480  16.807 -0.6521  0.7877 -0.6137
 8714TIP3   OH247632   2.076   2.903  13.230 -0.1069  0.0954  0.4053
 8714TIP3    H147633   2.129   2.945  13.162 -0.4909 -0.3186 -0.1526
 8714TIP3    H247634   2.092   2.810  13.220 -1.3550 -0.0816 -0.1311
 8715TIP3   OH247635   0.567   3.722   2.961  0.2785 -0.6464  0.1199
 8715TIP3    H147636   0.534   3.712   2.872  1.5592 -0.4664 -0.3958
 8715TIP3    H247637   0.520   3.799   2.995 -0.9454 -1.3035 -0.0260
 8716TIP3   OH247638   5.012   2.007   5.054 -0.1786  0.0391 -0.7999
 8716TIP3    H147639   5.008   2.004   5.149  1.0235  0.0676 -0.7280
 8716TIP3    H247640   5.088   1.952   5.032 -1.1922 -0.9998 -1.8139
 8717TIP3   OH247641   5.555   6.488   0.686  0.0371 -0.4194  0.2568
 8717TIP3    H147642   5.642   6.523   0.706 -0.2251  0.2816  0.2271
 8717TIP3    H247643   5.571   6.401   0.652  0.8910  0.4900 -1.8203
 8718TIP3   OH247644   3.905   5.711  15.383 -0.2341 -0.1156 -0.0885
 8718TIP3    H147645   3.984   5.657  15.386  0.4681  0.8002 -1.4443
 8718TIP3    H247646   3.936   5.800  15.398 -0.7535  0.4713 -2.2103
 8719TIP3   OH247647   0.217   2.117  15.592  0.0804  0.0479  0.4497
 8719TIP3    H147648   0.183   2.110  15.681  2.5328  1.0902  1.5404
 8719TIP3    H247649   0.232   2.210  15.579 -0.9230  0.0057 -1.3842
 8720TIP3   OH247650   1.159   4.582   5.623  0.3602 -0.7288 -0.2387
 8720TIP3    H147651   1.131   4.631   5.700  0.7465 -1.5839  0.4467
 8720TIP3    H247652   1.079   4.542   5.589 -0.2334  1.4021 -1.6026
 8721TIP3   OH247653   2.778   5.044   1.525  0.4097  0.1288  0.0627
 8721TIP3    H147654   2.765   5.109   1.457  0.1608  1.0414  0.9677
 8721TIP3    H247655   2.703   4.985   1.517  0.5223  0.0730 -0.6167
 8722TIP3   OH247656   0.823   3.730  13.969  0.1493 -0.3484  0.5436
 8722TIP3    H147657   0.887   3.791  13.931 -0.9209  0.8929  0.6709
 8722TIP3    H247658   0.748   3.734  13.910 -0.3416 -0.7429  1.1321
 8723TIP3   OH247659   4.554   1.271   5.148  0.1797  0.0847  1.1847
 8723TIP3    H147660   4.532   1.354   5.107 -3.0275 -1.0674  0.2378
 8723TIP3    H247661   4.473   1.220   5.143  1.7452 -2.7740  2.5300
 8724TIP3   OH247662   4.138   0.658  12.761  0.2584  0.1897 -0.8059
 8724TIP3    H147663   4.219   0.615  12.788 -0.3753  0.0164  0.9494
 8724TIP3    H247664   4.151   0.751  12.783  0.3726  0.3583 -1.5402
 8725TIP3   OH247665   0.413   1.434  15.740  0.5102  0.5247  0.8396
 8725TIP3    H147666   0.398   1.493  15.666  1.9748  1.9708  1.6397
 8725TIP3    H247667   0.333   1.440  15.792  0.1658  0.8526  0.2847
 8726TIP3   OH247668   3.511   4.781  10.626  0.2596  0.0168 -0.4247
 8726TIP3    H147669   3.600   4.758  10.654  0.2783  2.6307  2.1130
 8726TIP3    H247670   3.517   4.871  10.596 -1.5890  0.3792  0.1573
 8727TIP3   OH247671   6.247   3.277   0.310 -0.2580 -0.4867 -0.1640
 8727TIP3    H147672   6.325   3.320   0.346 -0.8376  0.0280  0.5069
 8727TIP3    H247673   6.258   3.185   0.334 -0.4375 -0.2170  1.0282
 8728TIP3   OH247674   0.827   2.490   4.895  0.0643 -0.1387  0.2163
 8728TIP3    H147675   0.787   2.421   4.841 -1.2881  2.0085 -1.7075
 8728TIP3    H247676   0.761   2.512   4.959  0.9404 -1.3382  1.6003
 8729TIP3   OH247677   5.721   5.162  10.857 -0.2107 -0.5135  0.2480
 8729TIP3    H147678   5.690   5.180  10.768 -2.5796  0.4853  1.1909
 8729TIP3    H247679   5.723   5.248  10.899  3.7866 -0.5216  0.4094
 8730TIP3   OH247680   5.901   6.501   2.346  0.0446 -0.5446 -0.4120
 8730TIP3    H147681   5.910   6.539   2.433 -1.9949 -0.4466 -0.1843
 8730TIP3    H247682   5.820   6.450   2.351  1.2751 -2.7750 -1.4784
 8731TIP3   OH247683   2.737   2.628   2.114  0.1712 -0.1928  0.0889
 8731TIP3    H147684   2.647   2.598   2.124  0.5896 -0.7522  2.7471
 8731TIP3    H247685   2.731   2.724   2.117 -0.5579 -0.0341 -2.7867
 8732TIP3   OH247686   5.876   2.289  14.858  0.4062  0.5274 -0.4936
 8732TIP3    H147687   5.791   2.280  14.814 -0.8544 -0.7327  2.0237
 8732TIP3    H247688   5.889   2.384  14.864 -1.6323  0.8065  0.4327
 8733TIP3   OH247689   6.827   3.310   0.035 -0.4176 -0.4039 -0.3201
 8733TIP3    H147690   6.873   3.252   0.095  1.7298  1.3493 -0.1254
 8733TIP3    H247691   6.859   3.286  -0.052 -0.1827 -0.1101 -0.3196
 8734TIP3   OH247692   1.034   4.930  12.060 -0.6401 -0.0216 -0.2711
 8734TIP3    H147693   1.072   4.886  12.137 -0.7139 -1.4836 -1.0410
 8734TIP3    H247694   0.969   4.868  12.027 -1.0989  0.8983 -1.1078
 8735TIP3   OH247695   5.787   2.247  15.660  0.3926  0.5264  0.4766
 8735TIP3    H147696   5.851   2.177  15.672  2.3068  2.0805 -0.0741
 8735TIP3    H247697   5.759   2.239  15.568 -0.3313 -0.2210  0.7496
 8736TIP3   OH247698   4.848   3.713  12.725 -0.2191 -0.0767 -0.1677
 8736TIP3    H147699   4.883   3.756  12.804 -0.3877  0.9352 -0.6243
 8736TIP3    H247700   4.804   3.635  12.758  0.9668 -0.4456  0.5933
 8737TIP3   OH247701   2.544   5.155   3.659 -0.5725  0.5073 -0.4557
 8737TIP3    H147702   2.617   5.101   3.630 -0.1785  0.8958 -0.1911
 8737TIP3    H247703   2.584   5.232   3.699 -1.0928  0.0352  1.0634
 8738TIP3   OH247704   0.448   3.293   4.352  0.3818  0.0201 -0.0400
 8738TIP3    H147705   0.436   3.338   4.435 -1.2523 -0.1512 -0.1536
 8738TIP3    H247706   0.411   3.351   4.286  0.8398 -0.2424 -0.5446
 8739TIP3   OH247707   3.594   4.404  11.720 -0.4726  0.0423 -0.7326
 8739TIP3    H147708   3.597   4.319  11.764 -4.6397 -0.6212 -1.3387
 8739TIP3    H247709   3.533   4.456  11.772  0.1247  1.8450 -1.7529
 8740TIP3   OH247710   2.587   1.418  11.124  0.5425  0.4282 -0.3234
 8740TIP3    H147711   2.635   1.402  11.043  2.4762  1.1315  0.6135
 8740TIP3    H247712   2.573   1.331  11.161  0.0607  0.1373 -1.1551
 8741TIP3   OH247713   0.462   6.263   4.680 -0.0839  0.0142 -0.3318
 8741TIP3    H147714   0.493   6.318   4.609 -1.1729  0.8424 -0.2032
 8741TIP3    H247715   0.541   6.226   4.719  0.5277 -0.8524 -2.2472
 8742TIP3   OH247716   4.583   5.478   0.350 -0.4758 -0.2233 -0.0487
 8742TIP3    H147717   4.536   5.403   0.314 -0.9017  0.1701 -0.3338
 8742TIP3    H247718   4.671   5.473   0.311 -0.4610 -0.6434  0.0370
 8743TIP3   OH247719   0.698   6.610  16.772  0.1162  0.6567 -0.1143
 8743TIP3    H147720   0.625   6.551  16.786  0.6744 -0.4268 -1.5580
 8743TIP3    H247721   0.761   6.560  16.719  2.9084  0.7381  2.7900
 8744TIP3   OH247722   6.209   6.800   0.361  0.5236 -0.2775 -0.1398
 8744TIP3    H147723   6.163   6.855   0.298  1.8135  1.9964  0.7940
 8744TIP3    H247724   6.222   6.856   0.437 -0.8163 -2.8606  2.1675
 8745TIP3   OH247725   2.494   5.792  11.355  0.6629 -0.2735  0.6310
 8745TIP3    H147726   2.469   5.842  11.277 -0.2344 -1.8202 -0.1128
 8745TIP3    H247727   2.456   5.842  11.427  0.3696  0.4887 -0.0267
 8746TIP3   OH247728   4.706   3.104  16.796  0.2732  0.2359  0.1122
 8746TIP3    H147729   4.633   3.123  16.854  0.5462  0.8930  0.2462
 8746TIP3    H247730   4.719   3.009  16.803 -1.1042 -0.0191 -0.5632
 8747TIP3   OH247731   4.543   5.200  16.626  0.1145 -0.3238 -0.2200
 8747TIP3    H147732   4.522   5.137  16.695 -2.4472 -0.4238 -0.9842
 8747TIP3    H247733   4.472   5.190  16.563  0.2354  2.5591 -0.9183
 8748TIP3   OH247734   2.907   2.337  12.544  0.3686  0.5625 -0.5104
 8748TIP3    H147735   2.874   2.256  12.505 -1.7140  0.8829  0.4842
 8748TIP3    H247736   2.915   2.398  12.470  1.8033 -0.4386 -1.2366
 8749TIP3   OH247737   1.990   6.015   5.050  0.0944  0.0213  0.0001
 8749TIP3    H147738   2.050   6.036   5.121  1.6123 -0.3093 -1.1226
 8749TIP3    H247739   2.027   5.935   5.011 -1.1668 -0.2743 -0.6327
 8750TIP3   OH247740   4.298   6.130   0.960 -0.3805  0.4941 -0.1894
 8750TIP3    H147741   4.228   6.132   1.025 -0.0375  0.8702  0.1695
 8750TIP3    H247742   4.323   6.222   0.948  0.8328  0.2843  0.5434
 8751TIP3   OH247743   2.477   0.888  16.535 -0.4766  0.7952  0.2311
 8751TIP3    H147744   2.535   0.868  16.462 -1.1664  0.6393 -0.2803
 8751TIP3    H247745   2.449   0.803  16.568 -0.5462  0.8752  0.3792
 8752TIP3   OH247746   5.679   2.325   2.219 -0.1718 -0.4093  0.1411
 8752TIP3    H147747   5.667   2.264   2.292 -2.1394 -0.0038  0.2325
 8752TIP3    H247748   5.607   2.387   2.228  0.9006  1.0385 -0.8301
 8753TIP3   OH247749   2.116   6.316  12.917 -0.4025  0.2749 -0.0046
 8753TIP3    H147750   2.068   6.257  12.858  0.3656  0.2572 -0.6237
 8753TIP3    H247751   2.185   6.354  12.862 -0.9582  1.8647  0.3462
 8754TIP3   OH247752   6.415   2.243  12.001 -0.0482 -0.3132  0.7378
 8754TIP3    H147753   6.463   2.256  11.920 -1.4090 -0.5362 -0.1372
 8754TIP3    H247754   6.322   2.247  11.976 -0.5112 -1.3803  2.1063
 8755TIP3   OH247755   0.166   3.148   4.210 -0.2507 -0.5963 -0.5844
 8755TIP3    H147756   0.154   3.199   4.130 -0.0905 -0.5605 -0.5852
 8755TIP3    H247757   0.204   3.065   4.180 -0.1614 -0.5703 -0.5410
 8756TIP3   OH247758   2.981   5.502   0.447  0.0833 -0.3591  0.1974
 8756TIP3    H147759   2.926   5.488   0.369 -1.3072  0.1320  1.0581
 8756TIP3    H247760   3.070   5.493   0.414 -0.4819 -0.8991 -1.3139
 8757TIP3   OH247761   6.020   4.632   4.964  0.0675  0.3397 -0.2402
 8757TIP3    H147762   6.089   4.677   5.013 -1.3368  0.7779  1.4375
 8757TIP3    H247763   6.067   4.572   4.906  1.8626  1.0080  0.4461
 8758TIP3   OH247764   2.609   4.839   2.867  0.7529 -0.3809  0.0749
 8758TIP3    H147765   2.585   4.915   2.814  0.4649  0.7911  1.8266
 8758TIP3    H247766   2.556   4.767   2.831  0.6818  0.3382 -1.3044
 8759TIP3   OH247767   1.887   5.519  12.413 -0.0910 -0.2771  0.3192
 8759TIP3    H147768   1.813   5.512  12.352 -1.1452  0.4928  1.4556
 8759TIP3    H247769   1.846   5.532  12.499  1.3748  0.0661  1.0010
 8760TIP3   OH247770   1.455   0.554   4.847 -0.3129 -0.6715 -0.2927
 8760TIP3    H147771   1.521   0.589   4.787  0.4899 -1.0327  0.3618
 8760TIP3    H247772   1.463   0.607   4.926 -1.6786  0.0985 -0.6457
 8761TIP3   OH247773   1.164   4.774   2.556  0.2216 -0.7458  0.0118
 8761TIP3    H147774   1.164   4.869   2.567  0.9706 -0.5559 -1.3554
 8761TIP3    H247775   1.074   4.747   2.576 -0.6434  0.5621 -1.8210
 8762TIP3   OH247776   1.221   6.424  11.398 -0.3336  0.1110 -0.8166
 8762TIP3    H147777   1.314   6.433  11.379  0.0668  1.5056  1.4082
 8762TIP3    H247778   1.181   6.503  11.363 -0.9407 -1.0217 -2.8218
 8763TIP3   OH247779   2.182   2.672   0.443  0.1769 -0.6793 -0.2868
 8763TIP3    H147780   2.245   2.668   0.371  0.8733  2.8519 -0.0522
 8763TIP3    H247781   2.232   2.645   0.520  1.8722  2.6902  0.0209
 8764TIP3   OH247782   0.969   3.566  11.928 -0.5621  0.5743  0.2075
 8764TIP3    H147783   0.884   3.552  11.887 -1.9583 -1.3499  3.3898
 8764TIP3    H247784   0.949   3.595  12.017  2.1420  0.8533  0.8319
 8765TIP3   OH247785   6.271   3.013   4.777  0.3200 -0.2731 -0.4675
 8765TIP3    H147786   6.337   2.945   4.790  0.3540 -0.1788 -0.1341
 8765TIP3    H247787   6.241   3.035   4.866  2.0682  1.8725 -0.3259
 8766TIP3   OH247788   3.937   3.766   1.455 -0.0594 -0.2017  0.0578
 8766TIP3    H147789   3.920   3.683   1.409 -0.8083 -0.6497  1.0891
 8766TIP3    H247790   3.898   3.753   1.542  1.4023  0.5709  0.8677
 8767TIP3   OH247791   6.586   5.733   1.942 -0.0991  0.5463  0.7215
 8767TIP3    H147792   6.609   5.780   1.863 -0.3361 -0.1988  0.1928
 8767TIP3    H247793   6.646   5.766   2.009  0.7437  0.4983  0.0003
 8768TIP3   OH247794   0.825   0.266   0.276 -0.4083 -0.0806 -0.6222
 8768TIP3    H147795   0.735   0.291   0.255 -0.4043 -0.8692 -1.6645
 8768TIP3    H247796   0.878   0.306   0.206  0.1191  0.8126  0.2687
 8769TIP3   OH247797   6.376   0.421   2.487  0.6630  0.1158 -0.0770
 8769TIP3    H147798   6.356   0.343   2.539 -2.6491  0.3104 -0.7966
 8769TIP3    H247799   6.397   0.387   2.400  0.1726 -0.0447 -0.1392
 8770TIP3   OH247800   4.292   4.497  11.390  0.6463 -0.2082 -0.4272
 8770TIP3    H147801   4.203   4.464  11.401  0.7980 -0.9719 -1.3358
 8770TIP3    H247802   4.283   4.575  11.336  0.4807 -0.0169 -0.1205
 8771TIP3   OH247803   0.860   6.155   0.886 -0.4259  0.0668  0.3174
 8771TIP3    H147804   0.855   6.189   0.796  1.4063 -0.1116  0.0917
 8771TIP3    H247805   0.882   6.062   0.875  1.1088  0.3262  0.9128
 8772TIP3   OH247806   1.648   6.670  17.083  0.5144  0.3561  0.2871
 8772TIP3    H147807   1.598   6.716  17.015 -1.4275  1.4803  2.3226
 8772TIP3    H247808   1.581   6.629  17.138  1.9935 -0.3248  1.6515
 8773TIP3   OH247809   3.836   4.596  16.236  0.0700 -0.1132  0.0655
 8773TIP3    H147810   3.819   4.502  16.235  0.0052 -0.1005 -0.0435
 8773TIP3    H247811   3.797   4.626  16.318  0.7220 -0.2985  0.4495
 8774TIP3   OH247812   5.565   0.629   2.345  0.1408  0.0159  0.0517
 8774TIP3    H147813   5.524   0.549   2.313 -0.6295  0.6434 -0.5548
 8774TIP3    H247814   5.659   0.616   2.331 -0.1510  0.2269 -2.3841
 8775TIP3   OH247815   3.216   2.184   0.817  0.0558 -0.4405 -0.6566
 8775TIP3    H147816   3.309   2.189   0.836 -0.2039 -0.0458  0.6004
 8775TIP3    H247817   3.211   2.143   0.730  1.3357 -1.7420 -0.1437
 8776TIP3   OH247818   3.918   5.702  16.489 -0.0911 -0.0458 -0.0437
 8776TIP3    H147819   3.860   5.688  16.564 -1.6777  0.9652 -0.9972
 8776TIP3    H247820   3.904   5.625  16.434  0.8255 -0.6336  0.5333
 8777TIP3   OH247821   2.453   2.439  14.762  0.1222 -0.2389 -0.0425
 8777TIP3    H147822   2.512   2.459  14.689  0.7628 -0.1690  0.4901
 8777TIP3    H247823   2.456   2.517  14.817 -1.1794  0.1349 -0.4701
 8778TIP3   OH247824   5.597   5.648   4.680  0.3315 -0.5019  0.2253
 8778TIP3    H147825   5.540   5.577   4.709  1.8215 -1.2663  1.4718
 8778TIP3    H247826   5.685   5.621   4.709  0.8230  2.2966  1.7373
 8779TIP3   OH247827   5.391   6.165  11.310 -0.1950 -0.2033  0.1385
 8779TIP3    H147828   5.436   6.120  11.382 -0.9248 -1.2259 -0.0271
 8779TIP3    H247829   5.349   6.095  11.260 -0.0858  0.5346 -1.0267
 8780TIP3   OH247830   5.565   4.456   6.195  0.0485  0.1874  0.0667
 8780TIP3    H147831   5.646   4.409   6.215  0.0881  0.4519  0.5470
 8780TIP3    H247832   5.593   4.547   6.182 -0.4473  0.7814  2.6560
 8781TIP3   OH247833   4.231   2.893   5.115 -0.6041  0.1953  0.0997
 8781TIP3    H147834   4.138   2.902   5.092 -1.1545  0.7947  2.3375
 8781TIP3    H247835   4.232   2.823   5.181  0.5325  0.2205  0.1188
 8782TIP3   OH247836   2.205   4.064   4.239  0.0626  0.5390 -0.0129
 8782TIP3    H147837   2.161   4.124   4.299 -0.2378  0.8029 -0.4831
 8782TIP3    H247838   2.192   3.977   4.277  2.4579  0.9187  1.8973
 8783TIP3   OH247839   1.666   0.296  11.849 -0.1353 -0.1063  0.1088
 8783TIP3    H147840   1.656   0.201  11.856 -1.6660 -0.0983 -1.3646
 8783TIP3    H247841   1.679   0.325  11.939  0.2140 -1.6972  0.6047
 8784TIP3   OH247842   1.365   4.911  11.005  0.4124  0.1623  0.3472
 8784TIP3    H147843   1.423   4.928  11.079  0.4111 -0.6719  0.5553
 8784TIP3    H247844   1.360   4.815  11.001 -2.1993  0.1789  1.3428
 8785TIP3   OH247845   4.131   6.335  11.930  0.3919  0.1636  0.0885
 8785TIP3    H147846   4.110   6.262  11.872  0.5405 -1.0516  1.5131
 8785TIP3    H247847   4.212   6.372  11.894  0.3079 -0.3531 -0.6501
 8786TIP3   OH247848   0.940   1.889  14.379  0.1947  0.0743 -0.2034
 8786TIP3    H147849   0.927   1.984  14.378 -1.0248 -0.0686 -0.0149
 8786TIP3    H247850   0.941   1.864  14.286 -1.3345  0.0770 -0.2517
 8787TIP3   OH247851   1.336   6.709   1.136 -0.3422 -0.8699  0.2191
 8787TIP3    H147852   1.283   6.642   1.091  0.1537 -1.1293  0.0155
 8787TIP3    H247853   1.285   6.730   1.214  0.4252 -2.9936  1.3931
 8788TIP3   OH247854   3.826   6.589   3.196 -0.4151 -1.0493  0.2922
 8788TIP3    H147855   3.881   6.656   3.155 -0.2322 -1.2976  0.1285
 8788TIP3    H247856   3.868   6.506   3.173 -0.1753 -1.1836  1.1857
 8789TIP3   OH247857   2.180   0.806   3.278  0.1539 -0.0671  0.0620
 8789TIP3    H147858   2.111   0.789   3.342  0.9640  0.9697  1.2495
 8789TIP3    H247859   2.252   0.750   3.305  0.5187  0.4101  0.0942
 8790TIP3   OH247860   1.211   0.867  16.152 -0.8841  0.0136  1.0482
 8790TIP3    H147861   1.292   0.915  16.134 -0.4081 -0.8281  0.9047
 8790TIP3    H247862   1.142   0.926  16.122 -0.2451 -0.0941 -0.7818
 8791TIP3   OH247863   3.081   3.204  16.155 -0.1185  0.3881  0.7943
 8791TIP3    H147864   3.066   3.294  16.125 -3.2649 -0.0590  0.7330
 8791TIP3    H247865   3.090   3.212  16.250 -0.3732  0.7738  0.7886
 8792TIP3   OH247866   4.113   2.555   4.654  0.3377  0.5069  0.6308
 8792TIP3    H147867   4.092   2.541   4.747  0.4735  0.4251  0.6494
 8792TIP3    H247868   4.206   2.577   4.654  1.2843 -2.8931  0.2374
 8793TIP3   OH247869   6.068   6.814  15.860  0.2582 -0.0637  0.0620
 8793TIP3    H147870   5.974   6.818  15.874  0.3661 -2.3018  2.0906
 8793TIP3    H247871   6.093   6.727  15.891  2.6997 -0.3912 -2.4836
 8794TIP3   OH247872   3.619   6.001   0.556  0.7264 -0.0733  0.3658
 8794TIP3    H147873   3.585   6.014   0.644  2.0726 -1.7536  1.1803
 8794TIP3    H247874   3.579   5.919   0.526  0.1754  0.5438 -0.6728
 8795TIP3   OH247875   1.176   4.535  16.028  0.3432 -0.1669  0.3190
 8795TIP3    H147876   1.088   4.514  16.059 -0.5103  2.0936 -0.3967
 8795TIP3    H247877   1.217   4.450  16.015 -2.1336 -1.3388 -0.4595
 8796TIP3   OH247878   3.985   3.995   3.315  0.0232 -0.4044  0.3754
 8796TIP3    H147879   3.990   3.990   3.410  0.7003  1.4180  0.4716
 8796TIP3    H247880   3.975   3.904   3.286 -0.5831 -0.9431  2.1917
 8797TIP3   OH247881   4.790   4.541   0.830 -0.4357  0.2755  0.2742
 8797TIP3    H147882   4.745   4.461   0.856 -0.7349  0.1713 -0.5115
 8797TIP3    H247883   4.883   4.520   0.837 -0.4828  0.5277  2.0175
 8798TIP3   OH247884   5.844   3.214  13.976 -0.6496 -0.1883 -0.1705
 8798TIP3    H147885   5.846   3.309  13.989  1.2273 -0.4611  2.2126
 8798TIP3    H247886   5.851   3.178  14.064 -1.8264 -2.5800 -0.9800
 8799TIP3   OH247887   5.075   1.227  16.268 -0.3250  0.3403 -0.1459
 8799TIP3    H147888   5.007   1.290  16.289 -1.7290  0.4097 -4.0343
 8799TIP3    H247889   5.148   1.250  16.326 -2.6618  1.8717  2.4326
 8800TIP3   OH247890   4.966   3.485   1.434  0.3176  0.1282  0.3625
 8800TIP3    H147891   4.899   3.552   1.449 -0.5810 -0.9083  1.1047
 8800TIP3    H247892   5.049   3.534   1.433 -0.5095  1.6810 -2.2641
 8801TIP3   OH247893   2.947   4.985   6.700 -0.1074  0.1772  0.1594
 8801TIP3    H147894   3.010   5.026   6.641 -0.9639  0.8656 -0.3001
 8801TIP3    H247895   2.916   5.056   6.756 -1.1856  0.0773 -0.2723
 8802TIP3   OH247896   1.170   1.372   0.473  0.4458 -0.2779  0.2024
 8802TIP3    H147897   1.248   1.404   0.518  0.5997  1.0213 -0.9407
 8802TIP3    H247898   1.119   1.451   0.453 -0.4023 -0.9701 -0.4505
 8803TIP3   OH247899   3.084   4.636   2.550 -0.8783 -0.8103 -0.2142
 8803TIP3    H147900   3.135   4.690   2.610 -1.6256  0.3375 -0.5777
 8803TIP3    H247901   3.149   4.594   2.493 -0.2627 -0.6385  0.3568
 8804TIP3   OH247902   6.675   2.292  14.657  0.3656 -0.5705  0.2197
 8804TIP3    H147903   6.713   2.338  14.582  1.6009  0.4201  1.3998
 8804TIP3    H247904   6.581   2.287  14.637  0.7754 -1.1429 -1.7737
 8805TIP3   OH247905   4.067   0.753   4.502 -0.9982 -0.2014 -0.7316
 8805TIP3    H147906   3.990   0.810   4.495  0.1922  1.3873 -1.3617
 8805TIP3    H247907   4.035   0.667   4.475 -2.3250  0.6460 -1.9945
 8806TIP3   OH247908   5.077   5.852   1.543 -0.3017  0.4288  0.1684
 8806TIP3    H147909   5.002   5.826   1.490 -0.4169  1.2601 -0.0988
 8806TIP3    H247910   5.080   5.788   1.614 -1.2662  0.3718  0.1731
 8807TIP3   OH247911   4.289   5.862  11.594 -0.3562  1.1250 -0.2806
 8807TIP3    H147912   4.239   5.850  11.674  0.6145 -0.2602  0.1550
 8807TIP3    H247913   4.339   5.781  11.584 -0.4067  1.2728 -2.2585
 8808TIP3   OH247914   3.256   3.428   1.949 -0.6652  0.2609  0.4645
 8808TIP3    H147915   3.337   3.377   1.958 -1.7394 -1.7599 -0.6075
 8808TIP3    H247916   3.266   3.500   2.011  2.1376  0.3458  0.0256
 8809TIP3   OH247917   4.344   4.631   3.210 -0.1835 -0.3149  0.0535
 8809TIP3    H147918   4.408   4.603   3.276 -0.4371  0.4797  0.6597
 8809TIP3    H247919   4.332   4.725   3.228 -2.0711 -0.5955  0.4185
 8810TIP3   OH247920   3.611   0.039  13.147  0.4764 -0.5807 -0.5997
 8810TIP3    H147921   3.700   0.064  13.124  1.1761 -1.5232  0.9907
 8810TIP3    H247922   3.571   0.120  13.180  0.5856 -0.0682 -1.6810
 8811TIP3   OH247923   2.339   1.991  15.009 -0.2589  0.1231 -0.0871
 8811TIP3    H147924   2.405   1.963  15.072  0.5974  0.6291 -0.7389
 8811TIP3    H247925   2.375   2.070  14.969 -0.0530 -0.9984 -2.3037
 8812TIP3   OH247926   0.776   5.689  10.827 -0.1133 -0.3889  0.1181
 8812TIP3    H147927   0.828   5.645  10.894  1.7681  3.1255  1.2240
 8812TIP3    H247928   0.788   5.637  10.748  2.1681 -1.7043  1.2377
 8813TIP3   OH247929   1.863   5.379  15.376  0.4195  0.1282 -0.0218
 8813TIP3    H147930   1.923   5.423  15.316 -0.6459  1.0415 -0.4590
 8813TIP3    H247931   1.857   5.290  15.342 -0.0242  0.5821 -1.1941
 8814TIP3   OH247932   1.246   0.006   3.792  0.1500 -0.5160  0.4147
 8814TIP3    H147933   1.182   0.055   3.844 -1.2232 -2.4954  0.6808
 8814TIP3    H247934   1.233   0.038   3.702  1.0374  1.3540  0.8889
 8815TIP3   OH247935   0.631   4.756   4.715 -0.1067  0.3109 -0.2050
 8815TIP3    H147936   0.586   4.768   4.632 -2.2857 -0.4786  0.7649
 8815TIP3    H247937   0.645   4.661   4.722  0.5369  0.4220  0.0925
 8816TIP3   OH247938   5.062   5.996  15.184  0.5902  0.3089 -0.0608
 8816TIP3    H147939   5.079   6.069  15.243  0.9927 -1.3012  1.8967
 8816TIP3    H247940   5.007   6.034  15.115  0.4715  2.3567  1.0842
 8817TIP3   OH247941   1.930   4.727   5.585 -0.3325 -0.4051  0.5032
 8817TIP3    H147942   2.023   4.711   5.600 -0.0865 -0.2659 -0.7801
 8817TIP3    H247943   1.903   4.657   5.526 -1.0168 -0.3507  0.7452
 8818TIP3   OH247944   6.753   1.912   5.593 -0.0510 -0.1666  0.5335
 8818TIP3    H147945   6.838   1.904   5.549  0.5921  0.8853  1.5086
 8818TIP3    H247946   6.729   2.004   5.583 -1.1712 -0.4834  0.1402
 8819TIP3   OH247947   4.196   6.748   0.892 -0.4725  0.1984  0.5469
 8819TIP3    H147948   4.278   6.756   0.842 -0.4078 -1.4585  0.3257
 8819TIP3    H247949   4.129   6.730   0.825 -0.7936  0.2926  0.8432
 8820TIP3   OH247950   4.740   6.133   1.139  0.6309  0.4804 -0.0125
 8820TIP3    H147951   4.777   6.094   1.218  2.6777 -0.0246 -1.1367
 8820TIP3    H247952   4.645   6.133   1.154  0.9762  0.7842  2.5701
 8821TIP3   OH247953   3.489   5.021   2.999  0.3329 -0.1122 -0.2080
 8821TIP3    H147954   3.571   4.994   2.958  0.3163  0.1119 -0.3832
 8821TIP3    H247955   3.473   5.110   2.968 -0.6631 -0.6169 -1.2321
 8822TIP3   OH247956   2.891   4.808   2.898 -0.4254 -0.1085 -0.5013
 8822TIP3    H147957   2.813   4.823   2.952  0.2188 -0.1668  0.4708
 8822TIP3    H247958   2.863   4.831   2.809 -1.2996  0.7293 -0.0358
 8823TIP3   OH247959   1.482   1.203  13.278  0.0027 -0.2524  0.4527
 8823TIP3    H147960   1.439   1.194  13.193  0.1273  0.3137  0.3300
 8823TIP3    H247961   1.411   1.189  13.342 -0.0214 -1.0423  0.2696
 8824TIP3   OH247962   4.924   2.278   3.994  0.1966 -0.6723 -0.4521
 8824TIP3    H147963   4.847   2.258   3.941  0.6981 -0.2073 -1.3691
 8824TIP3    H247964   4.889   2.314   4.075 -0.5349  1.1999 -1.5497
 8825TIP3   OH247965   1.557   5.208  11.992 -0.4199 -0.6315  0.1075
 8825TIP3    H147966   1.523   5.292  12.024  2.5190  0.6769  0.0971
 8825TIP3    H247967   1.506   5.142  12.040 -0.1183  1.1903  3.1890
 8826TIP3   OH247968   2.098   5.784  11.545 -0.1006 -0.4688  0.1404
 8826TIP3    H147969   2.128   5.769  11.635 -0.4417  0.9895  0.5289
 8826TIP3    H247970   2.075   5.877  11.543 -1.4277 -0.7864 -1.0666
 8827TIP3   OH247971   5.558   1.443  11.880  0.2690 -1.0618  0.1321
 8827TIP3    H147972   5.633   1.488  11.840 -1.4454  1.0072 -0.9479
 8827TIP3    H247973   5.495   1.513  11.899 -0.7271 -2.5180  2.6351
 8828TIP3   OH247974   1.934   0.714   5.212  0.1208  0.9703 -0.6147
 8828TIP3    H147975   1.875   0.642   5.236  0.3974  0.6996 -0.7420
 8828TIP3    H247976   1.944   0.764   5.293  0.0609  0.7729 -0.4849
 8829TIP3   OH247977   5.353   1.078  12.297  0.1196  0.1900  0.0947
 8829TIP3    H147978   5.360   1.162  12.251  0.2613 -0.4441 -1.0875
 8829TIP3    H247979   5.406   1.090  12.376 -0.3807  1.4165  0.2730
 8830TIP3   OH247980   1.869   1.425  13.997 -0.4213 -0.1168  0.1520
 8830TIP3    H147981   1.851   1.341  13.954 -1.1702  0.5341 -0.8355
 8830TIP3    H247982   1.893   1.401  14.086  1.0585 -1.5153 -0.5443
 8831TIP3   OH247983   2.889   1.615   4.459  0.4448 -0.0281 -0.5843
 8831TIP3    H147984   2.897   1.623   4.554  0.7153 -0.4200 -0.5686
 8831TIP3    H247985   2.968   1.657   4.425  1.0318 -1.0848 -0.5712
 8832TIP3   OH247986   3.609   0.107  13.748  0.0722  0.5316  0.1481
 8832TIP3    H147987   3.604   0.202  13.759 -0.8330  0.4329  0.7491
 8832TIP3    H247988   3.625   0.074  13.837 -2.9854 -0.0447  0.6159
 8833TIP3   OH247989   5.165   0.873   4.926  0.4837 -0.1812 -0.0544
 8833TIP3    H147990   5.256   0.845   4.926  0.2655 -0.9157  0.5886
 8833TIP3    H247991   5.151   0.909   5.013  0.3094  0.4586 -0.3383
 8834TIP3   OH247992   2.399   5.612  10.896  0.0135  0.3613  0.1527
 8834TIP3    H147993   2.383   5.706  10.886  0.8736  0.4008 -1.1554
 8834TIP3    H247994   2.415   5.581  10.807  2.9730 -0.3928  0.8416
 8835TIP3   OH247995   3.552   2.416  15.820  0.3656 -0.4498 -0.2797
 8835TIP3    H147996   3.556   2.368  15.903  1.4893 -2.1154 -1.2332
 8835TIP3    H247997   3.554   2.348  15.753 -0.3681  0.8688 -1.6884
 8836TIP3   OH247998   4.393   4.671  13.838 -0.7840 -0.2050  0.5269
 8836TIP3    H147999   4.394   4.761  13.807  0.7209 -0.1771  0.5703
 8836TIP3    H248000   4.483   4.641  13.828 -1.7584 -2.7389 -2.4522
 8837TIP3   OH248001   0.424   5.758  11.671 -0.4155 -0.0936  0.0317
 8837TIP3    H148002   0.438   5.832  11.611  2.2158  0.3867  1.1081
 8837TIP3    H248003   0.397   5.798  11.753 -0.6424 -0.4805  0.1484
 8838TIP3   OH248004   0.789   6.206  16.773  0.6551  0.2218 -0.1369
 8838TIP3    H148005   0.818   6.272  16.710  0.4323 -0.1743 -0.6574
 8838TIP3    H248006   0.870   6.163  16.802  0.7212  0.0838 -0.5153
 8839TIP3   OH248007   3.941   6.194   0.632  0.0526  0.0714 -0.7016
 8839TIP3    H148008   3.906   6.210   0.720 -0.2700  2.2315 -1.1606
 8839TIP3    H248009   4.023   6.146   0.646 -0.8518 -1.1518  0.6446
 8840TIP3   OH248010   1.199   0.263  14.244  0.0147 -0.7579 -0.1364
 8840TIP3    H148011   1.144   0.229  14.174 -2.5704 -0.9988  1.8841
 8840TIP3    H248012   1.226   0.186  14.294 -0.1661 -0.4033  0.5183
 8841TIP3   OH248013   4.974   2.714   0.245  0.0801 -0.1738 -0.5986
 8841TIP3    H148014   5.066   2.689   0.238  0.6736  1.6426  0.1534
 8841TIP3    H248015   4.965   2.788   0.185 -0.6228  0.3405  0.1176
 8842TIP3   OH248016   0.831   1.067  10.821  0.3663 -0.4397  0.5380
 8842TIP3    H148017   0.766   1.030  10.760  0.9652 -1.1862  0.3404
 8842TIP3    H248018   0.871   1.139  10.772  1.3744 -1.5071 -0.2688
 8843TIP3   OH248019   4.292   4.918  14.246  0.6646 -0.3936 -0.1405
 8843TIP3    H148020   4.251   4.833  14.232  1.7832 -0.9757  0.0041
 8843TIP3    H248021   4.220   4.981  14.241 -0.1365 -1.3206 -0.5110
 8844TIP3   OH248022   0.457   5.731  17.131  0.3396  0.6313  0.1595
 8844TIP3    H148023   0.438   5.764  17.043  0.9574 -1.0296 -0.6461
 8844TIP3    H248024   0.534   5.780  17.159 -0.3895  1.8077  0.1664
 8845TIP3   OH248025   6.770   2.943   0.096  0.2636  0.5849 -0.3632
 8845TIP3    H148026   6.777   2.923   0.189 -0.2580  1.1794 -0.1875
 8845TIP3    H248027   6.859   2.966   0.070  1.0256 -2.3335 -0.7072
 8846TIP3   OH248028   2.831   2.095  16.046  0.1773 -0.1232  0.0673
 8846TIP3    H148029   2.775   2.091  16.123  1.1890 -2.5647  0.7716
 8846TIP3    H248030   2.820   2.010  16.003  1.5636  0.2159 -1.0477
 8847TIP3   OH248031   6.412   3.346  14.433 -0.1562  0.1124  0.3018
 8847TIP3    H148032   6.487   3.400  14.405 -0.1300 -0.5093 -0.8858
 8847TIP3    H248033   6.335   3.401  14.415 -0.1227 -0.1892 -0.8068
 8848TIP3   OH248034   4.594   4.453  12.579 -0.1770 -0.1330 -0.0942
 8848TIP3    H148035   4.566   4.419  12.494 -0.9105  0.1077  0.0450
 8848TIP3    H248036   4.613   4.546  12.562  3.0955 -0.7893 -0.7807
 8849TIP3   OH248037   3.921   0.093   2.845 -0.2784  0.1916 -0.3358
 8849TIP3    H148038   4.016   0.084   2.849 -0.5129 -3.0529  0.5191
 8849TIP3    H248039   3.899   0.065   2.756 -0.5370 -0.7511  0.0177
 8850TIP3   OH248040   2.614   6.064  13.931  0.2816 -0.1295  0.3924
 8850TIP3    H148041   2.562   5.984  13.933 -0.4493  0.3196  0.2627
 8850TIP3    H248042   2.664   6.059  13.850 -1.3923  0.5019 -0.7516
 8851TIP3   OH248043   6.304   0.169   4.812 -0.6725  0.1277  1.3585
 8851TIP3    H148044   6.314   0.235   4.881 -0.0070 -0.2080  1.5974
 8851TIP3    H248045   6.211   0.148   4.812 -0.6823  0.1290  2.1690
 8852TIP3   OH248046   1.669   2.449   4.054  0.0951  0.0090  0.4440
 8852TIP3    H148047   1.687   2.493   4.137 -0.9795  0.6685  0.3429
 8852TIP3    H248048   1.733   2.377   4.050  1.1750  0.9041  1.1059
 8853TIP3   OH248049   0.084   2.223  13.992 -0.3561  0.3437 -0.0723
 8853TIP3    H148050   0.059   2.303  13.946  0.0952 -0.3313 -1.5743
 8853TIP3    H248051   0.002   2.193  14.032 -0.6174  1.3280  0.1567
 8854TIP3   OH248052   6.060   4.737  16.237  0.5319  0.8243  0.5963
 8854TIP3    H148053   6.145   4.714  16.276  1.0355  0.1442 -0.8354
 8854TIP3    H248054   6.023   4.652  16.212  0.0428  1.2150 -0.0083
 8855TIP3   OH248055   2.371   1.694  12.041 -0.0952 -0.6107  0.2281
 8855TIP3    H148056   2.294   1.727  11.995 -0.5936  0.8134  1.9643
 8855TIP3    H248057   2.337   1.663  12.125  1.3315  1.3790  1.6260
 8856TIP3   OH248058   2.636   0.068   0.585  0.5326  0.0818 -0.0712
 8856TIP3    H148059   2.578   0.057   0.660 -1.0968  0.6188 -1.1907
 8856TIP3    H248060   2.591   0.024   0.513  1.1764  1.0883 -1.1304
 8857TIP3   OH248061   1.574   3.342  15.018 -0.3742  0.4281  0.6729
 8857TIP3    H148062   1.554   3.431  14.988 -0.1314 -0.0351 -0.9956
 8857TIP3    H248063   1.494   3.314  15.062 -0.6241  1.3085  0.8095
 8858TIP3   OH248064   4.998   0.331   5.606  0.3383  0.4388  0.5282
 8858TIP3    H148065   5.025   0.310   5.696  0.3274 -1.0390  0.2164
 8858TIP3    H248066   4.911   0.369   5.615  0.9689  1.7874  1.2500
 8859TIP3   OH248067   0.444   5.506   5.477  0.1306  0.1727 -0.1515
 8859TIP3    H148068   0.403   5.446   5.540  1.6994 -0.9114 -0.1225
 8859TIP3    H248069   0.440   5.461   5.393 -2.0846  1.6746 -0.9547
 8860TIP3   OH248070   3.615   1.780  16.693  0.7639  0.1537  0.0180
 8860TIP3    H148071   3.560   1.752  16.766  1.6907 -1.8170  0.0126
 8860TIP3    H248072   3.587   1.727  16.619  1.6615  0.1746 -0.3524
 8861TIP3   OH248073   3.263   1.348   2.899 -0.2631 -0.8010 -0.5930
 8861TIP3    H148074   3.334   1.359   2.962 -0.3949 -2.6871 -0.0320
 8861TIP3    H248075   3.307   1.349   2.813  0.3073 -0.8715 -0.3093
 8862TIP3   OH248076   0.228   3.638  13.933  0.1080 -0.7908 -0.5966
 8862TIP3    H148077   0.245   3.552  13.895  0.8737 -1.9434  2.0832
 8862TIP3    H248078   0.314   3.672  13.956 -0.3295 -0.8132  1.2788
 8863TIP3   OH248079   5.001   5.059  16.182 -0.0892 -0.4879  0.1531
 8863TIP3    H148080   4.945   5.136  16.172  0.1263 -0.4992 -1.2820
 8863TIP3    H248081   4.980   5.004  16.107  1.3362 -0.8174 -0.0229
 8864TIP3   OH248082   6.574   5.065   2.550 -0.4083  0.4241  0.3432
 8864TIP3    H148083   6.662   5.102   2.548  0.2890 -1.1806 -0.6596
 8864TIP3    H248084   6.553   5.046   2.458 -1.7939  0.7512  0.5652
 8865TIP3   OH248085   4.488   5.047  12.504 -0.0259  0.1284 -0.2109
 8865TIP3    H148086   4.444   4.973  12.546 -0.1931  1.0941  1.4243
 8865TIP3    H248087   4.430   5.071  12.431 -0.9360 -0.1894  0.3847
 8866TIP3   OH248088   1.248   2.736   2.680 -0.0942 -0.2595 -0.7724
 8866TIP3    H148089   1.174   2.769   2.629  0.0521  0.3299 -0.6133
 8866TIP3    H248090   1.322   2.736   2.618  0.3038  1.3558 -0.3255
 8867TIP3   OH248091   2.301   5.196   0.474  0.3207 -0.5966  0.2423
 8867TIP3    H148092   2.300   5.140   0.552 -1.3359 -3.2498 -1.5283
 8867TIP3    H248093   2.369   5.158   0.418 -1.1485 -1.2144 -1.1874
 8868TIP3   OH248094   3.250   0.381   4.069  0.0080  0.3383  0.4868
 8868TIP3    H148095   3.209   0.455   4.023 -0.2372  0.2960  0.6343
 8868TIP3    H248096   3.192   0.364   4.144 -0.8655 -1.0809 -0.4599
 8869TIP3   OH248097   5.518   6.229   1.223  0.7645 -0.2765 -0.4646
 8869TIP3    H148098   5.432   6.271   1.221  0.5243 -0.6175  1.1134
 8869TIP3    H248099   5.554   6.244   1.136 -0.4442  0.8079 -0.8138
 8870TIP3   OH248100   0.293   6.175  13.995 -0.0513 -0.2471  0.0900
 8870TIP3    H148101   0.359   6.124  14.041  1.0199  2.0557  1.2502
 8870TIP3    H248102   0.340   6.214  13.921 -1.1037 -1.6636 -1.4096
 8871TIP3   OH248103   0.518   1.969   2.320 -0.4610 -0.1775 -0.5508
 8871TIP3    H148104   0.539   2.052   2.362 -1.3303  0.2568 -0.9416
 8871TIP3    H248105   0.554   1.976   2.232  0.5690 -0.7298 -0.1917
 8872TIP3   OH248106   1.485   5.557  16.507 -0.4182 -0.1210 -0.0734
 8872TIP3    H148107   1.571   5.517  16.499 -0.4792 -0.6436  1.4680
 8872TIP3    H248108   1.446   5.548  16.420  1.2063  0.4737 -0.8984
 8873TIP3   OH248109   3.152   6.278  12.997  0.4038 -0.7357  0.0816
 8873TIP3    H148110   3.108   6.293  13.081 -0.0085  0.3391 -0.3029
 8873TIP3    H248111   3.083   6.292  12.931  1.3088  1.1510 -0.5497
 8874TIP3   OH248112   4.702   5.044   0.807 -0.5405  0.1055  0.8022
 8874TIP3    H148113   4.762   4.970   0.795 -0.6004  0.2030 -0.1607
 8874TIP3    H248114   4.756   5.112   0.848 -0.2053 -0.0997  0.7069
 8875TIP3   OH248115   3.901   2.429  10.909  0.6100 -0.3086  0.3694
 8875TIP3    H148116   3.821   2.454  10.956 -0.8091  1.4301 -2.6475
 8875TIP3    H248117   3.935   2.512  10.875  3.2337 -1.1384  0.8271
 8876TIP3   OH248118   3.667   6.348   5.388 -0.0060 -0.4983  0.4947
 8876TIP3    H148119   3.682   6.260   5.421  1.3130 -0.7952 -0.7542
 8876TIP3    H248120   3.744   6.398   5.416  0.7811 -0.5736 -1.3580
 8877TIP3   OH248121   4.122   4.400   6.683  0.3867  1.0743 -0.0155
 8877TIP3    H148122   4.210   4.391   6.648 -0.4125  1.0445 -2.1808
 8877TIP3    H248123   4.111   4.495   6.696  0.1792  1.2688 -1.4215
 8878TIP3   OH248124   2.260   6.360  16.445  0.5310  0.3318 -0.5429
 8878TIP3    H148125   2.255   6.415  16.523 -0.1350 -1.7306  0.9660
 8878TIP3    H248126   2.351   6.367  16.416  0.8766  0.8681  0.6150
 8879TIP3   OH248127   4.650   0.358  11.287  0.3852 -0.1950 -0.0760
 8879TIP3    H148128   4.708   0.426  11.324 -0.0150  0.5699 -0.8147
 8879TIP3    H248129   4.637   0.385  11.196  0.2578 -1.3097 -0.3993
 8880TIP3   OH248130   1.800   5.156  13.700  0.3132  0.1967  0.0838
 8880TIP3    H148131   1.775   5.114  13.783  1.5412 -0.3380  0.1964
 8880TIP3    H248132   1.824   5.083  13.643 -0.7897  0.5326 -0.8700
 8881TIP3   OH248133   4.142   1.206  16.338  0.0836 -0.6431  0.1916
 8881TIP3    H148134   4.057   1.180  16.302 -1.0155  3.3495 -0.5044
 8881TIP3    H248135   4.120   1.261  16.413  2.1378 -0.4838  0.7332
 8882TIP3   OH248136   2.596   1.585  11.748 -0.2598 -0.6038  0.0852
 8882TIP3    H148137   2.513   1.609  11.706  0.5652  0.5364 -0.9525
 8882TIP3    H248138   2.608   1.650  11.818  0.1733 -0.2249 -0.3332
 8883TIP3   OH248139   4.785   0.003   4.269  0.6944 -0.6529 -0.7068
 8883TIP3    H148140   4.775   0.098   4.262  0.9719 -0.6248 -0.7444
 8883TIP3    H248141   4.810  -0.024   4.181  2.1869 -0.5586 -0.3377
 8884TIP3   OH248142   2.615   4.234  12.367 -0.5750  0.3502  0.7035
 8884TIP3    H148143   2.564   4.194  12.297  0.4639 -0.0355  0.1574
 8884TIP3    H248144   2.674   4.294  12.323  0.9596 -0.8087  1.0961
 8885TIP3   OH248145   5.463   1.120  11.358  0.1849 -0.0700 -0.2740
 8885TIP3    H148146   5.368   1.123  11.350  0.1637 -0.9234 -0.4058
 8885TIP3    H248147   5.482   1.167  11.440 -0.4174 -0.6908  0.2334
 8886TIP3   OH248148   1.873   2.776  12.685 -0.4902  0.6777  0.3375
 8886TIP3    H148149   1.787   2.813  12.665 -0.6262 -0.0287 -0.4659
 8886TIP3    H248150   1.883   2.789  12.779 -1.6547  0.4363  0.5174
 8887TIP3   OH248151   1.699   1.143  17.056 -0.2644 -0.2234  0.0990
 8887TIP3    H148152   1.725   1.227  17.095  0.1442 -0.6315  0.7147
 8887TIP3    H248153   1.604   1.150  17.046 -0.5880 -0.5712  2.3582
 8888TIP3   OH248154   3.840   5.960  11.690 -0.1105  0.3501  0.0104
 8888TIP3    H148155   3.886   5.905  11.626  1.7269 -0.9920  2.3294
 8888TIP3    H248156   3.799   5.897  11.750 -2.8230  1.5520 -0.4205
 8889TIP3   OH248157   5.722   1.958   0.097  0.5566  0.2314 -0.1542
 8889TIP3    H148158   5.754   1.966   0.186  1.1858 -1.1212 -0.2429
 8889TIP3    H248159   5.792   1.993   0.042  0.3790  0.5850 -0.1646
 8890TIP3   OH248160   3.770   5.965   0.215  0.0104  0.6106 -0.1209
 8890TIP3    H148161   3.813   5.959   0.300 -0.5629 -2.1849  0.0583
 8890TIP3    H248162   3.835   6.009   0.159  1.4799  0.1022  1.0990
 8891TIP3   OH248163   6.821   2.868  14.425  0.0611 -0.4959 -0.1745
 8891TIP3    H148164   6.861   2.847  14.341 -1.1204 -1.3744 -0.5362
 8891TIP3    H248165   6.783   2.786  14.456 -1.2123  0.2373  0.2795
 8892TIP3   OH248166   5.458   1.924   1.328 -0.6373  0.4760  0.6638
 8892TIP3    H148167   5.529   1.882   1.278 -0.3450  1.3555  0.3184
 8892TIP3    H248168   5.435   1.860   1.395  0.1759 -0.0084  0.4959
 8893TIP3   OH248169   3.682   0.974  16.897  0.4541  0.1141  0.4713
 8893TIP3    H148170   3.777   0.971  16.882  0.3794 -1.3920  0.2080
 8893TIP3    H248171   3.644   0.985  16.809  0.3635  0.2025  0.5199
 8894TIP3   OH248172   2.130   3.047  14.846 -0.3392 -0.3420 -0.0453
 8894TIP3    H148173   2.079   2.968  14.830 -0.8546 -0.0569  0.1579
 8894TIP3    H248174   2.066   3.111  14.878  0.0908  0.1185 -0.0875
 8895TIP3   OH248175   4.072   1.178  12.888  0.0087 -0.5184 -0.0405
 8895TIP3    H148176   4.030   1.129  12.959  0.6884 -1.7772 -0.4706
 8895TIP3    H248177   4.084   1.113  12.819  0.1919  0.4702 -0.9625
 8896TIP3   OH248178   4.158   3.466  13.893 -0.2595  0.1977 -1.1173
 8896TIP3    H148179   4.119   3.399  13.949  2.3533  1.9649  3.3519
 8896TIP3    H248180   4.222   3.419  13.840 -2.3025 -1.4525 -2.2939
 8897TIP3   OH248181   4.191   2.405  13.941  0.4543 -0.4610  0.1673
 8897TIP3    H148182   4.273   2.435  13.902  1.3440  0.2858  2.4173
 8897TIP3    H248183   4.124   2.462  13.902  1.4208  0.8931  0.4146
 8898TIP3   OH248184   3.970   5.530   0.003  0.3133 -0.2898  0.1057
 8898TIP3    H148185   3.907   5.601   0.007  0.3689 -0.2836  1.2224
 8898TIP3    H248186   3.919   5.454  -0.025  0.7413  0.6689 -3.8784
 8899TIP3   OH248187   6.414   0.460   5.594  0.8349 -0.0824  0.4438
 8899TIP3    H148188   6.440   0.410   5.516 -0.7868  1.3562 -1.1057
 8899TIP3    H248189   6.477   0.531   5.599 -0.2974  1.0786 -0.9157
 8900TIP3   OH248190   1.757   3.637  10.568  0.2442  0.0048  0.4140
 8900TIP3    H148191   1.727   3.716  10.613  0.6546 -0.0707  0.8253
 8900TIP3    H248192   1.720   3.565  10.618 -1.0605 -0.0656 -0.6087
 8901TIP3   OH248193   2.588   5.644  14.254 -0.2821  0.2502 -0.3843
 8901TIP3    H148194   2.592   5.586  14.330 -2.0974  1.0426  0.3596
 8901TIP3    H248195   2.680   5.668  14.237  0.1372  0.3848  1.8036
 8902TIP3   OH248196   6.753   3.775  16.309 -0.2092  0.6282 -0.9286
 8902TIP3    H148197   6.752   3.780  16.213  2.2390  0.6237 -1.0185
 8902TIP3    H248198   6.833   3.819  16.334  0.1279 -0.9617  1.0108
 8903TIP3   OH248199   2.423   1.394   5.897 -0.5549  0.2651  0.1564
 8903TIP3    H148200   2.344   1.447   5.886  0.1337  1.0678 -1.2933
 8903TIP3    H248201   2.419   1.330   5.825 -1.0263 -1.2562  1.4725
 8904TIP3   OH248202   4.424   1.019   4.356 -0.9049 -0.1867  0.7384
 8904TIP3    H148203   4.405   0.929   4.381 -1.4685 -0.8539 -1.8493
 8904TIP3    H248204   4.340   1.054   4.326 -0.6176  1.0938  1.3579
 8905TIP3   OH248205   0.758   5.582   5.666  0.1125  0.1480 -0.9723
 8905TIP3    H148206   0.784   5.546   5.581 -1.8252  1.7396 -2.3397
 8905TIP3    H248207   0.821   5.545   5.728  1.5884 -1.0986 -3.0740
 8906TIP3   OH248208   2.862   0.656  11.089 -0.1872 -0.2044  0.1948
 8906TIP3    H148209   2.924   0.705  11.035 -1.2055  0.8454 -0.0731
 8906TIP3    H248210   2.879   0.687  11.178 -0.9092  0.7738  0.0108
 8907TIP3   OH248211   2.393   0.398   1.044  0.4132  0.4539  0.3558
 8907TIP3    H148212   2.410   0.387   0.950 -1.6128  1.8277 -0.2394
 8907TIP3    H248213   2.399   0.493   1.058 -1.2293  0.4699  1.1738
 8908TIP3   OH248214   2.307   1.017   4.107  0.1319  0.1711 -0.3533
 8908TIP3    H148215   2.279   1.011   4.199 -1.9202  0.0151 -0.9349
 8908TIP3    H248216   2.297   0.928   4.074  1.5004  0.0848 -0.5919
 8909TIP3   OH248217   1.411   0.170  15.715 -0.5508  0.0051  0.2029
 8909TIP3    H148218   1.372   0.116  15.784 -1.5529  0.1413 -0.2264
 8909TIP3    H248219   1.412   0.112  15.638 -3.1912  1.0248 -0.7158
 8910TIP3   OH248220   0.830   6.827  11.772 -0.1814 -0.9991 -0.0369
 8910TIP3    H148221   0.859   6.878  11.696 -0.0501 -0.0045  0.6587
 8910TIP3    H248222   0.853   6.737  11.750 -0.4120 -0.7758 -1.3002
 8911TIP3   OH248223   3.361   1.298   2.084 -0.2024 -0.0071 -0.4909
 8911TIP3    H148224   3.304   1.346   2.143 -0.0319  0.0177 -0.3448
 8911TIP3    H248225   3.334   1.207   2.093 -0.4878  0.0537 -0.7256
 8912TIP3   OH248226   1.114   2.212   2.422 -0.1651  0.0967 -0.1352
 8912TIP3    H148227   1.072   2.181   2.342  0.1846 -0.9369  0.0606
 8912TIP3    H248228   1.205   2.184   2.414 -0.0206  0.4044  0.4063
 8913TIP3   OH248229   3.747   5.179  12.017 -0.4092  0.0173 -0.2073
 8913TIP3    H148230   3.784   5.148  12.100 -0.1001 -0.6130 -0.5792
 8913TIP3    H248231   3.806   5.146  11.950 -0.7755  0.3479 -0.7005
 8914TIP3   OH248232   1.841   0.045  14.362  0.3348 -0.3681 -0.2898
 8914TIP3    H148233   1.917   0.082  14.406 -0.8645  2.4563 -0.3905
 8914TIP3    H248234   1.843   0.081  14.273 -1.2272 -0.0090 -0.2226
 8915TIP3   OH248235   2.650   0.661  13.187 -0.6791  0.0835  0.0034
 8915TIP3    H148236   2.697   0.610  13.121  1.2643 -0.3932  1.6673
 8915TIP3    H248237   2.661   0.752  13.158 -0.0717 -0.1292 -0.4688
 8916TIP3   OH248238   2.124   3.523  13.483 -0.3383  0.0840 -0.1699
 8916TIP3    H148239   2.141   3.617  13.472 -1.1908  0.3429  0.6709
 8916TIP3    H248240   2.042   3.508  13.436  0.8667 -0.7073 -2.1971
 8917TIP3   OH248241   4.822   3.177  16.368  0.1695 -0.2135 -0.6153
 8917TIP3    H148242   4.840   3.184  16.462  0.7913  0.6703 -0.7922
 8917TIP3    H248243   4.825   3.267  16.336 -0.2907 -0.4855 -1.4431
 8918TIP3   OH248244   3.692   5.703  16.653 -0.2913 -0.1538 -0.1349
 8918TIP3    H148245   3.621   5.747  16.701  0.8802 -0.4423  1.9485
 8918TIP3    H248246   3.681   5.610  16.673 -0.5827 -0.4541 -1.5777
 8919TIP3   OH248247   4.864   4.605   0.273 -0.6187 -0.3525  0.2434
 8919TIP3    H148248   4.923   4.544   0.317  0.3637 -1.5759 -2.5263
 8919TIP3    H248249   4.787   4.552   0.251 -0.6941 -0.0356 -0.2702
 8920TIP3   OH248250   3.842   5.288   2.685 -0.1861 -0.0838 -0.7102
 8920TIP3    H148251   3.808   5.199   2.692 -0.6245  0.1846  1.8590
 8920TIP3    H248252   3.937   5.277   2.678  0.2398 -0.9157  3.3493
 8921TIP3   OH248253   2.281   2.170  15.388  0.1960  0.0669  0.2181
 8921TIP3    H148254   2.365   2.178  15.433 -0.0075 -1.4905  0.9234
 8921TIP3    H248255   2.303   2.144  15.299  0.4705  0.0225  0.2986
 8922TIP3   OH248256   3.787   0.787  13.332 -0.2761  0.6976  0.2457
 8922TIP3    H148257   3.728   0.751  13.398 -0.0912 -1.5877 -0.7606
 8922TIP3    H248258   3.850   0.839  13.383  0.6161 -1.9958  2.1248
 8923TIP3   OH248259   6.775   1.985   1.816 -0.1278  0.6631  0.3304
 8923TIP3    H148260   6.790   1.890   1.814 -1.2059  0.4250  1.5746
 8923TIP3    H248261   6.858   2.022   1.845 -0.1184 -0.0567  1.2833
 8924TIP3   OH248262   6.764   4.037   5.944  0.8582 -0.4356  0.4737
 8924TIP3    H148263   6.750   4.115   5.891 -0.2705 -0.1677  1.1417
 8924TIP3    H248264   6.773   4.069   6.034  0.3244 -1.0663  0.7613
 8925TIP3   OH248265   1.859   2.233   4.357 -0.2060 -0.4415  0.0496
 8925TIP3    H148266   1.780   2.279   4.385 -0.7266 -1.5513  0.4749
 8925TIP3    H248267   1.930   2.278   4.402 -0.6100  0.3987 -0.1221
 8926TIP3   OH248268   3.121   5.606   5.905 -0.0012  0.2863  0.4664
 8926TIP3    H148269   3.100   5.574   5.992  0.9147  0.7096  0.8544
 8926TIP3    H248270   3.085   5.695   5.903  0.6820  0.5756  0.7113
 8927TIP3   OH248271   4.232   4.765   2.027 -0.1577  0.3782 -0.1942
 8927TIP3    H148272   4.240   4.670   2.027 -0.2251  0.3625 -1.0281
 8927TIP3    H248273   4.189   4.785   2.110 -1.8923 -0.4958 -0.8106
 8928TIP3   OH248274   1.554   5.463  12.344 -0.1628 -0.0428  0.6535
 8928TIP3    H148275   1.597   5.378  12.352 -1.5665 -0.7949  0.4540
 8928TIP3    H248276   1.608   5.511  12.281 -1.4997 -2.2590 -2.4143
 8929TIP3   OH248277   0.731   0.572   3.272  0.1868  0.1310 -0.5959
 8929TIP3    H148278   0.762   0.649   3.319 -0.5173  0.9252 -1.3870
 8929TIP3    H248279   0.635   0.579   3.274  0.1320 -0.1672 -1.5446
 8930TIP3   OH248280   5.205   5.084   2.865 -0.3656  0.2328 -0.2240
 8930TIP3    H148281   5.133   5.124   2.914  0.3594  0.5393  0.6057
 8930TIP3    H248282   5.265   5.052   2.932  0.1989 -0.1658 -0.9087
 8931TIP3   OH248283   4.414   2.271   0.253 -0.0519  0.1574  0.1363
 8931TIP3    H148284   4.333   2.306   0.290 -0.0556 -0.3229  0.6000
 8931TIP3    H248285   4.470   2.254   0.330 -0.1805 -1.1572 -0.0424
 8932TIP3   OH248286   6.812   4.331   4.155 -0.2272  0.1215 -0.4143
 8932TIP3    H148287   6.806   4.305   4.247  0.8834 -1.6437 -0.7853
 8932TIP3    H248288   6.721   4.340   4.126 -0.5881  0.4184  0.7696
 8933TIP3   OH248289   4.520   3.908   3.831 -0.0002 -0.4370  0.5522
 8933TIP3    H148290   4.573   3.934   3.756 -0.7722 -0.9929 -0.1922
 8933TIP3    H248291   4.438   3.956   3.821  0.2236  0.2062  1.5554
 8934TIP3   OH248292   2.532   3.401  15.265  0.0501 -0.0274 -0.1449
 8934TIP3    H148293   2.554   3.494  15.278  0.8231 -0.1879 -0.2579
 8934TIP3    H248294   2.592   3.355  15.323 -0.2030 -0.4731 -0.2374
 8935TIP3   OH248295   5.117   3.911   2.522 -0.4259  0.1832 -0.8676
 8935TIP3    H148296   5.208   3.902   2.497 -0.5316 -2.4127 -0.5249
 8935TIP3    H248297   5.073   3.836   2.481 -2.3657  1.2207 -0.8057
 8936TIP3   OH248298   0.842   5.436  11.303 -0.3378 -0.4847  0.3928
 8936TIP3    H148299   0.904   5.507  11.320 -3.8247  3.2093 -0.6433
 8936TIP3    H248300   0.862   5.407  11.214  0.0028  0.5966  0.1043
 8937TIP3   OH248301   6.003   2.780   1.143 -0.4949  0.1565 -0.7299
 8937TIP3    H148302   6.036   2.789   1.232  1.5229 -0.4043 -1.3607
 8937TIP3    H248303   6.026   2.863   1.101 -1.8544  0.6057 -0.6365
 8938TIP3   OH248304   2.442   6.667  12.149 -0.2788  0.4761 -0.3155
 8938TIP3    H148305   2.475   6.583  12.118 -2.2231 -0.2015 -0.6497
 8938TIP3    H248306   2.521   6.721  12.160  1.2203 -1.9133  1.6595
 8939TIP3   OH248307   5.054   1.638  15.863  0.8500 -0.3877 -0.9900
 8939TIP3    H148308   4.973   1.630  15.813  1.0443 -3.7065 -0.9929
 8939TIP3    H248309   5.028   1.623  15.954  1.2842 -0.2360 -0.8361
 8940TIP3   OH248310   6.505   0.678  12.308 -0.5057 -0.3581 -0.1157
 8940TIP3    H148311   6.457   0.741  12.254 -0.8680 -0.4299  0.1237
 8940TIP3    H248312   6.472   0.692  12.397 -0.1955 -0.5143  0.0259
 8941TIP3   OH248313   3.251   6.479  15.055 -0.4778 -0.1979 -0.0727
 8941TIP3    H148314   3.307   6.488  14.978  0.9634  0.4352  1.0048
 8941TIP3    H248315   3.265   6.560  15.105  0.9217 -1.7814  2.2865
 8942TIP3   OH248316   4.405   3.138  13.401  0.1921 -0.0394  0.0473
 8942TIP3    H148317   4.460   3.063  13.425  1.0892  0.8654  0.9292
 8942TIP3    H248318   4.327   3.099  13.362 -0.1399 -1.5066  2.0312
 8943TIP3   OH248319   0.714   0.417  12.854 -0.2873 -0.4211 -0.2236
 8943TIP3    H148320   0.690   0.452  12.769 -0.3877  2.1751  0.7804
 8943TIP3    H248321   0.632   0.388  12.893 -0.4816 -0.0391 -0.3495
 8944TIP3   OH248322   0.365   3.517   3.918  0.0257  0.3416 -0.3600
 8944TIP3    H148323   0.379   3.543   3.827 -2.5295  0.1605 -0.8790
 8944TIP3    H248324   0.312   3.588   3.955  1.3286  0.5870  1.1355
 8945TIP3   OH248325   6.682   2.223   2.777 -0.3248 -0.4059  0.7580
 8945TIP3    H148326   6.704   2.314   2.797  0.2325  0.3733 -2.7067
 8945TIP3    H248327   6.748   2.171   2.823  0.3692  1.0349  1.4321
 8946TIP3   OH248328   2.008   3.601  15.780 -0.1654  0.2099  0.0119
 8946TIP3    H148329   1.987   3.589  15.687  2.8134  1.2552 -0.9252
 8946TIP3    H248330   1.959   3.679  15.806  0.2267  0.8841 -1.1899
 8947TIP3   OH248331   6.782   1.186   5.328 -0.2764 -0.0850 -0.0250
 8947TIP3    H148332   6.754   1.099   5.300 -1.1135 -0.1287  0.8470
 8947TIP3    H248333   6.761   1.188   5.422 -1.8976  1.6444 -0.3561
 8948TIP3   OH248334   5.177   3.022  15.155 -0.4200 -0.2460 -0.0310
 8948TIP3    H148335   5.121   3.001  15.229 -1.1074 -1.7632 -0.9253
 8948TIP3    H248336   5.195   3.116  15.163 -1.4251 -0.1558  1.3885
 8949TIP3   OH248337   4.741   2.279  14.270  0.5366  0.3899  0.1859
 8949TIP3    H148338   4.826   2.308  14.301  1.6453 -3.0120  0.7323
 8949TIP3    H248339   4.749   2.184  14.262 -3.6115 -0.2825  1.5252
 8950TIP3   OH248340   0.501   2.707   0.070 -0.3528  0.0157  0.3421
 8950TIP3    H148341   0.589   2.705   0.108  0.3820 -0.6197 -1.2692
 8950TIP3    H248342   0.483   2.616   0.046 -2.5558 -0.3455  2.8917
 8951TIP3   OH248343   1.361   3.506   5.155 -0.2491 -0.1688 -0.3116
 8951TIP3    H148344   1.414   3.456   5.218  0.5438  0.5839 -0.3601
 8951TIP3    H248345   1.354   3.448   5.079  1.5621  0.1758 -0.7825
 8952TIP3   OH248346   4.367   3.525   5.581 -0.3497  0.7834  0.1733
 8952TIP3    H148347   4.337   3.481   5.502 -1.2774  1.8027 -0.0787
 8952TIP3    H248348   4.462   3.521   5.577 -0.4057 -0.0655 -0.4721
 8953TIP3   OH248349   5.502   3.918  14.036  0.3300  0.0557  0.7149
 8953TIP3    H148350   5.554   3.851  14.081 -0.0751 -1.1726 -0.5675
 8953TIP3    H248351   5.412   3.888  14.044 -0.0085  1.1790  1.2921
 8954TIP3   OH248352   0.217   3.612  13.386 -0.1020  0.2912 -0.2076
 8954TIP3    H148353   0.306   3.645  13.400 -0.1308  0.4905 -0.4875
 8954TIP3    H248354   0.206   3.615  13.291 -0.0547 -0.6607 -0.2500
 8955TIP3   OH248355   6.605   6.561   0.063 -0.0546 -0.0550  0.1433
 8955TIP3    H148356   6.631   6.484   0.113  1.3714  0.8858  0.9374
 8955TIP3    H248357   6.519   6.585   0.097 -0.4989 -1.2447 -0.0923
 8956TIP3   OH248358   3.632   1.725  13.701 -0.4682 -0.1993  0.4918
 8956TIP3    H148359   3.615   1.688  13.788  2.2314  2.3629  2.2857
 8956TIP3    H248360   3.654   1.817  13.717  0.2026  0.3813 -2.9153
 8957TIP3   OH248361   3.223   0.208   3.686 -0.5136  0.0473 -0.3101
 8957TIP3    H148362   3.186   0.233   3.602 -2.4340 -2.3750 -0.2834
 8957TIP3    H248363   3.148   0.205   3.746  0.5886  0.2937  1.1449
 8958TIP3   OH248364   0.688   1.573   2.957 -0.3835  1.1670  0.6399
 8958TIP3    H148365   0.720   1.512   3.023 -0.5111  0.8743  0.4307
 8958TIP3    H248366   0.592   1.568   2.964 -0.5224 -1.0175 -1.4847
 8959TIP3   OH248367   4.371   2.006  13.277 -0.4444 -0.0065  0.2915
 8959TIP3    H148368   4.396   1.982  13.366 -0.6276 -1.7796 -0.0949
 8959TIP3    H248369   4.445   2.057  13.244 -0.1092  0.1394  1.2342
 8960TIP3   OH248370   6.254   6.290  11.573 -0.5237  0.3116  0.4630
 8960TIP3    H148371   6.222   6.272  11.484 -1.2927 -0.9768  0.9656
 8960TIP3    H248372   6.181   6.334  11.616 -0.7207 -0.4009  0.8793
 8961TIP3   OH248373   2.593   6.411   0.433 -0.3948  0.5713  0.2664
 8961TIP3    H148374   2.568   6.503   0.425 -2.3274  0.0255 -0.6178
 8961TIP3    H248375   2.687   6.410   0.414 -0.4367  2.2825 -0.2255
 8962TIP3   OH248376   0.454   4.509   1.972 -0.0747  0.1301  0.4293
 8962TIP3    H148377   0.402   4.472   2.044  0.3390 -0.2207  0.5608
 8962TIP3    H248378   0.537   4.460   1.976  0.3893  0.9071  0.4386
 8963TIP3   OH248379   0.050   0.794   3.488  0.1375 -0.4148  0.3078
 8963TIP3    H148380   0.020   0.768   3.576 -1.6759 -0.2522 -0.2316
 8963TIP3    H248381   0.123   0.734   3.470  0.3145 -0.6969  1.7666
 8964TIP3   OH248382   2.566   0.467  16.104 -0.2020 -0.6052 -0.2500
 8964TIP3    H148383   2.479   0.478  16.143  0.1784  3.3515 -0.1376
 8964TIP3    H248384   2.617   0.424  16.172 -1.1189  0.6200  1.3054
 8965TIP3   OH248385   5.046   2.968   5.891 -0.7905 -0.4314  0.3178
 8965TIP3    H148386   5.130   2.922   5.878  1.4342  3.4352 -0.3824
 8965TIP3    H248387   5.009   2.928   5.970  4.4260  1.0507  4.0728
 8966TIP3   OH248388   6.031   4.210   2.041  0.1392 -0.1829  0.0477
 8966TIP3    H148389   6.085   4.288   2.039 -0.3849  0.3113  2.1538
 8966TIP3    H248390   6.093   4.137   2.043  0.7854  0.3610  2.2613
 8967TIP3   OH248391   5.583   0.910   0.661  0.3869  0.0608 -0.3085
 8967TIP3    H148392   5.522   0.953   0.721  0.2006 -0.8804  0.1945
 8967TIP3    H248393   5.669   0.921   0.702  0.5798  1.3403 -0.9910
 8968TIP3   OH248394   4.398   6.115   2.176 -0.0875 -1.0425 -0.2217
 8968TIP3    H148395   4.485   6.154   2.168  0.2241 -1.3189  1.4014
 8968TIP3    H248396   4.415   6.022   2.193 -0.7222 -1.1742 -0.2822
 8969TIP3   OH248397   1.867   4.660   3.929  0.1959  0.0790  0.3411
 8969TIP3    H148398   1.891   4.668   4.021 -0.2130 -0.8283  0.5458
 8969TIP3    H248399   1.783   4.613   3.931  0.1587  0.1028 -0.4878
 8970TIP3   OH248400   2.113   4.023   1.949 -0.5715  0.6377  0.3197
 8970TIP3    H148401   2.160   3.967   2.010 -0.1844  0.6933  0.0787
 8970TIP3    H248402   2.021   4.016   1.975 -0.2275  2.0861  2.0465
 8971TIP3   OH248403   5.258   2.447  15.999 -1.3980 -0.0643  0.7577
 8971TIP3    H148404   5.271   2.386  15.926 -2.1912  0.7372 -0.0780
 8971TIP3    H248405   5.249   2.390  16.076 -0.7586 -0.9373  0.2146
 8972TIP3   OH248406   5.692   2.273  14.429  0.2828  0.3557  0.4254
 8972TIP3    H148407   5.602   2.275  14.396  0.6753 -0.3012 -0.7474
 8972TIP3    H248408   5.738   2.339  14.378  0.3670  1.0510  1.3788
 8973TIP3   OH248409   0.815   2.172   5.478  0.3315 -0.1047 -0.4260
 8973TIP3    H148410   0.888   2.211   5.527 -0.9924  0.3891  1.2663
 8973TIP3    H248411   0.763   2.247   5.449 -0.3765 -0.4754 -0.1546
 8974TIP3   OH248412   3.049   4.576  16.127  0.2931  0.2059  0.0292
 8974TIP3    H148413   3.014   4.536  16.207 -1.7410  2.5120  0.4293
 8974TIP3    H248414   3.110   4.643  16.158 -0.8067  1.3898 -0.2534
 8975TIP3   OH248415   5.435   4.930   1.777 -0.3392 -0.2401 -0.1451
 8975TIP3    H148416   5.499   4.914   1.708 -0.3112 -1.0137  0.0480
 8975TIP3    H248417   5.468   5.006   1.824 -0.6528  0.6490 -1.3239
 8976TIP3   OH248418   4.889   2.323  14.893  0.2971 -0.5972  0.2443
 8976TIP3    H148419   4.844   2.356  14.971  0.2558  2.5353 -0.9786
 8976TIP3    H248420   4.946   2.394  14.866 -1.1037 -0.7259 -3.6765
 8977TIP3   OH248421   0.203   0.771   4.383  0.5448  0.5084 -0.0905
 8977TIP3    H148422   0.191   0.678   4.399  0.2652  0.7276  1.0404
 8977TIP3    H248423   0.119   0.811   4.408  0.9081  1.1372  0.1476
 8978TIP3   OH248424   1.973   5.368   1.687 -0.3227 -0.3199  0.1995
 8978TIP3    H148425   1.906   5.385   1.620 -0.4641 -0.3700  0.3275
 8978TIP3    H248426   2.056   5.385   1.642 -0.4210 -0.2445  0.0426
 8979TIP3   OH248427   2.843   0.778   2.696  0.7075 -0.3649  0.3784
 8979TIP3    H148428   2.915   0.731   2.739  0.5830 -0.3281  0.6287
 8979TIP3    H248429   2.765   0.749   2.742  0.6798  0.4928  0.8906
 8980TIP3   OH248430   2.093   2.972   5.231  0.1851  1.0719  0.2738
 8980TIP3    H148431   2.155   2.916   5.185 -0.2824  0.2398  0.6462
 8980TIP3    H248432   2.147   3.043   5.266  1.3815 -0.8814  2.6896
 8981TIP3   OH248433   2.692   0.814   3.448  0.0269 -0.3286  0.2336
 8981TIP3    H148434   2.776   0.845   3.483 -0.3851  0.9717  0.1161
 8981TIP3    H248435   2.715   0.767   3.368  0.6217  0.1267  0.1341
 8982TIP3   OH248436   4.795   4.280   0.972  0.4513  0.2161  0.0523
 8982TIP3    H148437   4.860   4.244   0.911 -0.8821 -2.3631 -0.0144
 8982TIP3    H248438   4.794   4.218   1.045 -1.8193  0.2324  0.0891
 8983TIP3   OH248439   2.807   5.398  16.457  0.2491 -0.6773 -0.3721
 8983TIP3    H148440   2.807   5.377  16.550  2.0403  0.5550 -0.0252
 8983TIP3    H248441   2.839   5.319  16.414  0.9962 -0.7259  0.2486
 8984TIP3   OH248442   3.027   2.365   3.443  0.5771  0.2030 -0.0043
 8984TIP3    H148443   3.064   2.390   3.528  0.3619 -1.0630  0.4941
 8984TIP3    H248444   3.087   2.401   3.378  2.0018 -0.6973  0.7545
 8985TIP3   OH248445   6.699   6.611  10.796  0.2801  0.1487 -0.2920
 8985TIP3    H148446   6.774   6.638  10.849 -0.3976 -1.1446  1.4308
 8985TIP3    H248447   6.701   6.515  10.799 -0.6612  0.0753 -1.3732
 8986TIP3   OH248448   1.131   5.113   4.729  0.2794 -0.2336 -0.2007
 8986TIP3    H148449   1.037   5.117   4.709  0.2280  0.1348  0.1131
 8986TIP3    H248450   1.136   5.062   4.809  0.4803 -1.6322 -1.0726
 8987TIP3   OH248451   5.199   1.926  16.184  0.3523 -0.3602  0.0059
 8987TIP3    H148452   5.289   1.952  16.205  0.5999 -1.3016  0.1500
 8987TIP3    H248453   5.149   2.007  16.192  0.9749 -0.0626  1.1232
 8988TIP3   OH248454   2.772   4.263   5.909 -0.3411  0.1801 -0.0985
 8988TIP3    H148455   2.742   4.220   5.989 -0.2122 -0.1451 -0.2255
 8988TIP3    H248456   2.699   4.254   5.848 -1.1928  2.0267  0.5477
 8989TIP3   OH248457   0.314   5.569   2.379  0.0549 -0.4286  0.2155
 8989TIP3    H148458   0.386   5.622   2.412  1.9555 -1.5522 -1.8782
 8989TIP3    H248459   0.312   5.586   2.285  0.0912 -3.2273 -0.3756
 8990TIP3   OH248460   6.766   0.517   4.230 -0.5398  0.1687 -0.0843
 8990TIP3    H148461   6.846   0.550   4.190  0.5034 -2.1105 -0.0529
 8990TIP3    H248462   6.795   0.477   4.312 -1.7790 -0.3182  0.1441
 8991TIP3   OH248463   4.186   6.504  12.958 -0.1950 -0.9964  0.1801
 8991TIP3    H148464   4.176   6.420  12.914 -0.0400 -1.1184  0.3760
 8991TIP3    H248465   4.164   6.486  13.049  0.5349 -0.9817  0.3631
 8992TIP3   OH248466   3.668   5.049   0.829 -0.6535  0.0958  0.4881
 8992TIP3    H148467   3.717   5.063   0.910  2.8061  1.4978 -1.5760
 8992TIP3    H248468   3.712   4.974   0.787 -0.6961  0.9222 -1.1305
 8993TIP3   OH248469   2.298   2.841  11.969 -0.2186  0.2175 -0.0703
 8993TIP3    H148470   2.363   2.801  12.027 -0.4880  1.2475  0.9785
 8993TIP3    H248471   2.350   2.884  11.901  0.1365 -0.3520 -0.1641
 8994TIP3   OH248472   1.103   4.545  14.723  0.3585 -0.5307  0.1143
 8994TIP3    H148473   1.100   4.507  14.635 -0.0734  3.1360 -1.6480
 8994TIP3    H248474   1.091   4.470  14.782  2.9737 -3.5269 -2.7595
 8995TIP3   OH248475   5.058   2.082   4.409  0.4679 -0.3958 -0.4773
 8995TIP3    H148476   5.118   2.010   4.428  1.0461  0.3442  0.6677
 8995TIP3    H248477   4.974   2.053   4.442  0.9328 -0.1366  1.0156
 8996TIP3   OH248478   3.302   3.878   6.636  0.9448 -0.2515 -0.0652
 8996TIP3    H148479   3.393   3.866   6.664  0.3328  0.4622  2.4637
 8996TIP3    H248480   3.279   3.966   6.666 -1.1980 -1.1911  1.2644
 8997TIP3   OH248481   6.207   1.221  16.118  0.1114  0.7334  0.2028
 8997TIP3    H148482   6.249   1.138  16.138 -0.1989  0.0582 -1.7109
 8997TIP3    H248483   6.149   1.238  16.192  1.1377 -0.0699  1.2309
 8998TIP3   OH248484   4.576   5.512   2.925  0.4155  0.7875 -0.7436
 8998TIP3    H148485   4.512   5.554   2.982  0.3994 -0.0951 -0.0925
 8998TIP3    H248486   4.536   5.428   2.901  1.1628  0.3917 -0.6369
 8999TIP3   OH248487   3.129   2.328  15.577 -0.0845 -0.1378  0.2889
 8999TIP3    H148488   3.159   2.238  15.562 -2.7714 -0.8174 -1.6119
 8999TIP3    H248489   3.202   2.382  15.546  0.9170 -1.6456 -0.1386
 9000TIP3   OH248490   4.652   2.802   6.187 -0.2610  0.2840  0.4154
 9000TIP3    H148491   4.568   2.847   6.174 -0.3835 -0.2973 -1.0175
 9000TIP3    H248492   4.628   2.719   6.229 -1.0715 -1.8648 -3.7260
 9001TIP3   OH248493   1.498   4.161   3.018 -0.1941  0.0999 -0.2505
 9001TIP3    H148494   1.511   4.235   3.077 -0.9491 -1.1566  1.6223
 9001TIP3    H248495   1.553   4.180   2.942  3.1964  0.5098  2.0712
 9002TIP3   OH248496   3.128   6.723   3.766  0.0314 -0.1493 -0.3982
 9002TIP3    H148497   3.203   6.719   3.825 -0.5731  0.0442  0.4102
 9002TIP3    H248498   3.077   6.645   3.786  0.2916 -0.5729 -1.3385
 9003TIP3   OH248499   3.721   3.608  13.208  0.2614 -0.1993 -0.1434
 9003TIP3    H148500   3.706   3.542  13.140 -0.8402 -0.0726 -0.0400
 9003TIP3    H248501   3.728   3.691  13.160 -1.8122  0.0744 -0.0389
 9004TIP3   OH248502   3.398   4.634   0.793 -0.0352 -0.7343 -0.3450
 9004TIP3    H148503   3.391   4.678   0.708  0.8323 -0.9584 -0.5470
 9004TIP3    H248504   3.411   4.542   0.771 -0.6300 -0.9136  0.0520
 9005TIP3   OH248505   6.742   4.009  16.531 -0.0185  0.2228  0.4173
 9005TIP3    H148506   6.650   3.983  16.541 -0.0734  0.0090 -0.5153
 9005TIP3    H248507   6.740   4.077  16.463  0.6851 -0.9658 -0.8335
 9006TIP3   OH248508   3.491   0.875  11.358 -0.5890  0.0922  0.1824
 9006TIP3    H148509   3.488   0.971  11.363 -4.5440  0.2882 -1.4394
 9006TIP3    H248510   3.494   0.857  11.264 -2.2161 -1.2561  0.3479
 9007TIP3   OH248511   2.310   1.590   4.822  0.1213  0.3665  0.0880
 9007TIP3    H148512   2.393   1.544   4.815  0.1861  0.4748  0.1525
 9007TIP3    H248513   2.268   1.551   4.899  0.9286  1.6202  1.2040
 9008TIP3   OH248514   0.885   5.698   3.100 -0.0961 -0.9127 -0.7351
 9008TIP3    H148515   0.891   5.657   3.014  0.4734  1.1616 -1.7264
 9008TIP3    H248516   0.970   5.680   3.141  1.3820  1.7616 -2.3837
 9009TIP3   OH248517   2.807   5.385   0.118 -0.2458  0.5348  0.3680
 9009TIP3    H148518   2.762   5.329   0.054  1.6757 -2.2996  1.2996
 9009TIP3    H248519   2.878   5.426   0.068 -0.8381  1.0919 -0.0294
 9010TIP3   OH248520   5.383   4.478   3.133  0.4201 -0.0366 -0.1417
 9010TIP3    H148521   5.459   4.509   3.083 -0.0648 -0.8172 -1.4148
 9010TIP3    H248522   5.367   4.390   3.099 -0.1911 -0.4297  1.1248
 9011TIP3   OH248523   6.481   6.217  14.736  0.2000 -0.4153  0.1971
 9011TIP3    H148524   6.513   6.300  14.703  0.9428 -1.2165 -1.2006
 9011TIP3    H248525   6.485   6.158  14.660 -2.7817 -1.0764  0.4195
 9012TIP3   OH248526   4.214   1.815  15.115  0.3548 -0.8666  0.1281
 9012TIP3    H148527   4.236   1.821  15.022  0.4401  0.8251  0.2176
 9012TIP3    H248528   4.263   1.740  15.147  1.4895 -0.5941 -0.8926
 9013TIP3   OH248529   0.275   3.970  16.958  0.0394 -0.3965 -0.0120
 9013TIP3    H148530   0.183   3.998  16.967  0.0797 -0.4352  0.5973
 9013TIP3    H248531   0.294   3.978  16.865 -0.1374  1.0496  0.0502
 9014TIP3   OH248532   0.141   1.141   2.523 -0.6212  0.2871 -0.4184
 9014TIP3    H148533   0.137   1.166   2.431  0.2356  2.1307 -0.0083
 9014TIP3    H248534   0.227   1.101   2.534  0.4475  2.5244  0.0580
 9015TIP3   OH248535   0.306   4.370   3.803  0.1407 -0.0857  0.3337
 9015TIP3    H148536   0.273   4.298   3.857 -3.8991  1.5638  0.4142
 9015TIP3    H248537   0.393   4.389   3.838  0.1087 -2.9195  2.2537
 9016TIP3   OH248538   2.862   1.875  15.478  0.3481  0.1217  0.5155
 9016TIP3    H148539   2.827   1.836  15.398 -1.3149  0.6159  0.9606
 9016TIP3    H248540   2.920   1.945  15.447  1.3191 -0.9902 -0.2547
 9017TIP3   OH248541   4.803   1.706   4.452  0.1308  0.0374  0.2543
 9017TIP3    H148542   4.834   1.788   4.489 -0.6301 -0.5715  2.3776
 9017TIP3    H248543   4.875   1.676   4.397  0.4196  2.0876 -0.5557
 9018TIP3   OH248544   6.376   3.248  16.073 -0.0324  0.3189 -0.7513
 9018TIP3    H148545   6.282   3.231  16.063 -0.2326  0.6651  0.4131
 9018TIP3    H248546   6.397   3.212  16.159  1.2941 -1.3728 -1.7290
 9019TIP3   OH248547   0.403   0.239  14.808 -0.4774 -0.1041 -0.2588
 9019TIP3    H148548   0.414   0.312  14.869 -0.1208 -0.3868  0.0176
 9019TIP3    H248549   0.376   0.166  14.863  1.4492 -0.8034 -0.1919
 9020TIP3   OH248550   3.802   5.189   4.713  0.0065  0.1159  0.5339
 9020TIP3    H148551   3.773   5.100   4.730  1.0832 -0.0848  1.4503
 9020TIP3    H248552   3.745   5.220   4.643  0.1660 -1.5779 -0.4006
 9021TIP3   OH248553   2.047   1.947  13.738  0.0242 -0.0759 -0.3700
 9021TIP3    H148554   1.974   1.905  13.783  1.9586 -1.0626  2.0838
 9021TIP3    H248555   2.076   2.016  13.799  2.1244 -0.7861 -0.4745
 9022TIP3   OH248556   0.627   6.574   1.157  0.0944  0.3706  0.3626
 9022TIP3    H148557   0.616   6.651   1.212  1.4556 -0.5884  2.0889
 9022TIP3    H248558   0.543   6.529   1.161 -0.1352  0.8287  0.8319
 9023TIP3   OH248559   1.036   6.302  16.150  0.3386  0.1381  0.0989
 9023TIP3    H148560   1.007   6.323  16.238  0.2272 -0.1897  0.1432
 9023TIP3    H248561   1.113   6.247  16.162  0.7191  0.6420 -0.0161
 9024TIP3   OH248562   0.622   2.201  14.461 -0.3963  0.0411 -0.1693
 9024TIP3    H148563   0.552   2.227  14.520 -0.7196  0.0055 -0.5292
 9024TIP3    H248564   0.689   2.269  14.471  0.1173 -0.6277  1.1693
 9025TIP3   OH248565   0.602   6.551  14.798  0.3674 -0.0254 -0.2787
 9025TIP3    H148566   0.693   6.526  14.787  0.3388 -0.6800  0.7945
 9025TIP3    H248567   0.573   6.503  14.876 -0.9140  0.1050 -0.6473
 9026TIP3   OH248568   2.084   5.187   6.056 -0.1984 -0.3139  0.3175
 9026TIP3    H148569   2.117   5.251   6.119  2.2120 -0.7069 -0.4428
 9026TIP3    H248570   2.059   5.112   6.110 -0.0814  0.0982  0.9553
 9027TIP3   OH248571   3.875   6.029   5.380  0.1623 -0.0632  0.4838
 9027TIP3    H148572   3.915   5.954   5.337  0.7868  0.7509 -0.3909
 9027TIP3    H248573   3.799   6.050   5.325  1.3737  1.4279 -0.6784
 9028TIP3   OH248574   0.697   1.657   1.459  0.5426 -0.2346  0.3048
 9028TIP3    H148575   0.781   1.663   1.415  0.7503 -1.0022  0.5846
 9028TIP3    H248576   0.671   1.749   1.474  0.9217  0.0149 -0.5185
 9029TIP3   OH248577   3.765   1.804  13.047  0.3523 -0.3407 -0.1504
 9029TIP3    H148578   3.751   1.711  13.035  0.4316 -0.2297 -1.1335
 9029TIP3    H248579   3.790   1.813  13.140 -0.0609 -1.2337  0.0500
 9030TIP3   OH248580   4.393   4.422   0.764  0.2004  0.8017  0.0337
 9030TIP3    H148581   4.367   4.501   0.717 -0.8721 -0.7967 -2.2419
 9030TIP3    H248582   4.447   4.374   0.702  3.8896  1.2517  2.6121
 9031TIP3   OH248583   6.030   1.302   3.617 -0.2548  0.2507  0.0165
 9031TIP3    H148584   6.071   1.351   3.688 -0.3271  0.7922 -0.3090
 9031TIP3    H248585   6.054   1.349   3.538 -1.5901  0.6598 -0.1740
 9032TIP3   OH248586   2.602   4.213  16.748  0.2173 -0.7158  0.1207
 9032TIP3    H148587   2.611   4.182  16.839 -1.7883 -0.8716  0.3018
 9032TIP3    H248588   2.689   4.199  16.711  0.7005 -2.0768  1.5889
 9033TIP3   OH248589   4.117   0.892   5.207 -0.4382  0.2375  0.1942
 9033TIP3    H148590   4.155   0.911   5.292 -1.4393 -2.0722  1.2408
 9033TIP3    H248591   4.041   0.950   5.200 -0.8730 -0.1756  1.2902
 9034TIP3   OH248592   2.624   4.647  11.360  0.2382  0.2722  0.1302
 9034TIP3    H148593   2.577   4.580  11.310  0.7840  0.0245 -0.0518
 9034TIP3    H248594   2.590   4.730  11.325  1.4391  0.1259 -1.4855
 9035TIP3   OH248595   6.091   2.336   2.025  0.3977  0.2775 -0.2145
 9035TIP3    H148596   6.125   2.425   2.016 -0.1936  0.5584  0.2314
 9035TIP3    H248597   6.041   2.338   2.107 -0.2600 -0.2629 -0.5942
 9036TIP3   OH248598   5.034   1.152  12.643 -0.2186 -0.1855 -0.4146
 9036TIP3    H148599   5.073   1.102  12.572  0.8022 -1.4737  0.9998
 9036TIP3    H248600   4.988   1.088  12.697  0.8765  0.3561  1.2797
 9037TIP3   OH248601   6.712   5.534  15.277  0.3827 -0.5288 -0.4059
 9037TIP3    H148602   6.784   5.581  15.234  1.9079 -1.7532  0.6654
 9037TIP3    H248603   6.667   5.489  15.205  1.1238 -0.2935 -1.0333
 9038TIP3   OH248604   5.873   0.919   5.254  0.0599  0.0551  0.3348
 9038TIP3    H148605   5.886   0.946   5.164  2.3296 -0.9723  0.3007
 9038TIP3    H248606   5.924   0.981   5.306 -0.2304 -0.1093  0.8315
 9039TIP3   OH248607   2.656   2.071  14.429  0.0938  0.1643 -0.1201
 9039TIP3    H148608   2.670   2.067  14.334  2.1557 -1.4322  0.1745
 9039TIP3    H248609   2.592   2.002  14.447  0.5106 -0.2695 -0.2636
 9040TIP3   OH248610   2.335   0.823  16.117 -0.3168 -0.0134  0.0254
 9040TIP3    H148611   2.240   0.829  16.123 -0.4345 -1.0174 -0.5835
 9040TIP3    H248612   2.351   0.735  16.084  0.7709  0.6551 -1.3082
 9041TIP3   OH248613   5.841   5.767  10.965 -0.6055 -0.5442  0.0199
 9041TIP3    H148614   5.844   5.687  10.913 -1.1743 -0.0270 -0.8238
 9041TIP3    H248615   5.763   5.813  10.935  0.8488  1.3439 -1.0467
 9042TIP3   OH248616   4.331   2.752   1.917  0.2656 -0.1402 -0.3868
 9042TIP3    H148617   4.268   2.780   1.983  0.4246 -0.9786  0.1277
 9042TIP3    H248618   4.289   2.773   1.834 -1.0652 -1.4092 -0.0739
 9043TIP3   OH248619   1.748   5.183  16.635  0.1794 -0.2602 -0.4721
 9043TIP3    H148620   1.703   5.105  16.602  1.5971 -1.9653  1.3421
 9043TIP3    H248621   1.829   5.187  16.584 -0.0055  0.1943 -0.7339
 9044TIP3   OH248622   6.260   3.254  15.346  0.5711 -0.1344 -0.0136
 9044TIP3    H148623   6.313   3.271  15.268  1.0579 -0.8676  0.1544
 9044TIP3    H248624   6.280   3.164  15.371 -0.4536 -0.2974  0.2932
 9045TIP3   OH248625   1.406   3.054   5.590  0.5185  0.1860 -0.3795
 9045TIP3    H148626   1.375   2.964   5.595 -2.7801  0.9782 -2.9889
 9045TIP3    H248627   1.475   3.051   5.524  1.7137 -0.6382  0.8542
 9046TIP3   OH248628   4.780   4.232  13.122  0.2789  0.0171 -0.0349
 9046TIP3    H148629   4.823   4.236  13.037 -1.2135 -0.6520 -0.8652
 9046TIP3    H248630   4.708   4.295  13.116  2.3743  2.9200  2.1701
 9047TIP3   OH248631   5.826   2.126  11.994 -0.4856 -0.4094 -0.5959
 9047TIP3    H148632   5.817   2.220  12.011 -1.0984 -0.8822  2.3302
 9047TIP3    H248633   5.917   2.115  11.967 -0.1179  0.9424 -0.0273
 9048TIP3   OH248634   2.689   3.473  15.510  0.5556 -0.1069 -0.2123
 9048TIP3    H148635   2.717   3.492  15.599  1.2044  1.6981 -0.7674
 9048TIP3    H248636   2.627   3.400  15.519  1.1932 -0.4515  1.6082
 9049TIP3   OH248637   4.367   2.354  15.597 -0.7704 -0.2704  0.4045
 9049TIP3    H148638   4.298   2.406  15.556 -1.5993 -1.8451 -0.3008
 9049TIP3    H248639   4.369   2.273  15.547  1.6801 -0.2613  0.3665
 9050TIP3   OH248640   0.409   1.561  15.492  0.2940  0.3029  0.6177
 9050TIP3    H148641   0.442   1.599  15.411  1.7973 -1.6189  0.2471
 9050TIP3    H248642   0.317   1.540  15.474  1.1703 -2.1677 -1.4530
 9051TIP3   OH248643   2.942   5.754  12.554  0.5253  0.3985 -0.2798
 9051TIP3    H148644   2.969   5.667  12.584 -1.6851 -0.4557 -0.5927
 9051TIP3    H248645   2.982   5.764  12.468 -0.0758 -0.8060 -0.7201
 9052TIP3   OH248646   1.000   3.571  12.208 -0.1552  0.0378 -0.4044
 9052TIP3    H148647   1.066   3.502  12.215  0.0939  0.2702 -0.4692
 9052TIP3    H248648   0.935   3.548  12.275 -0.2282 -0.4243 -0.6242
 9053TIP3   OH248649   2.953   6.835  13.365 -0.6076  0.1200  0.2994
 9053TIP3    H148650   2.980   6.756  13.319 -0.5179  1.0834 -1.3632
 9053TIP3    H248651   2.934   6.806  13.454  1.2114 -1.4368  0.2266
 9054TIP3   OH248652   2.432   3.374  16.658 -0.0510  0.2441  0.4296
 9054TIP3    H148653   2.516   3.338  16.631 -0.0048  1.3407 -1.0710
 9054TIP3    H248654   2.409   3.437  16.589 -2.3540 -0.3814  0.5186
 9055TIP3   OH248655   0.114   2.189  13.572 -0.1676  0.4043 -0.7482
 9055TIP3    H148656   0.029   2.145  13.574 -0.1017  0.1865  2.0924
 9055TIP3    H248657   0.161   2.147  13.500 -1.8601 -0.6823 -1.2852
 9056TIP3   OH248658   6.498   1.577  16.695  0.1857 -0.0814  0.5301
 9056TIP3    H148659   6.431   1.588  16.627  1.3502 -0.4490 -0.7315
 9056TIP3    H248660   6.454   1.530  16.765 -1.0524  0.2601  0.0132
 9057TIP3   OH248661   4.342   0.561   1.387 -0.5429  0.3799  0.3104
 9057TIP3    H148662   4.317   0.581   1.477 -0.1170  1.0709  0.2831
 9057TIP3    H248663   4.294   0.481   1.366 -1.0102  0.4729  0.9888
 9058TIP3   OH248664   0.910   6.617  12.163  0.4376 -0.0983 -0.8044
 9058TIP3    H148665   0.856   6.618  12.084  1.4467  2.2612 -1.5634
 9058TIP3    H248666   0.986   6.565  12.138  0.6678  0.4835 -1.3649
 9059TIP3   OH248667   5.014   2.764   0.790  0.5278 -0.2597  0.2254
 9059TIP3    H148668   4.981   2.818   0.862  0.7789  0.1624  0.0245
 9059TIP3    H248669   4.982   2.676   0.810 -2.0827  0.3862 -0.8203
 9060TIP3   OH248670   5.583   1.463  12.878  0.3458  0.3722 -0.1462
 9060TIP3    H148671   5.621   1.433  12.796  1.9567 -0.5628  0.8779
 9060TIP3    H248672   5.545   1.549  12.858  0.7652  0.1874 -1.8322
 9061TIP3   OH248673   2.595   0.685  13.464  0.2146  0.0500 -0.4939
 9061TIP3    H148674   2.627   0.658  13.378 -0.0506 -0.3429 -0.4698
 9061TIP3    H248675   2.561   0.774  13.450  3.1646  1.3575 -0.0893
 9062TIP3   OH248676   5.603   3.066   4.964  0.4967 -0.1778 -0.5443
 9062TIP3    H148677   5.516   3.039   4.993  0.1175  0.0317 -1.4593
 9062TIP3    H248678   5.592   3.086   4.871  1.8577 -1.6478 -1.0681
 9063TIP3   OH248679   0.018   2.114   4.707 -0.2027 -0.5742  0.2346
 9063TIP3    H148680  -0.015   2.054   4.641 -0.8989 -0.3298  0.3550
 9063TIP3    H248681   0.020   2.062   4.788  0.6543 -0.8744  0.0329
 9064TIP3   OH248682   6.248   3.851  13.100 -0.2940 -0.6787 -0.5768
 9064TIP3    H148683   6.339   3.880  13.090 -0.8980  0.9701 -1.6330
 9064TIP3    H248684   6.240   3.830  13.193  1.0479 -0.3984 -0.3789
 9065TIP3   OH248685   6.135   4.487   1.912  0.5622 -0.8710 -0.0086
 9065TIP3    H148686   6.092   4.450   1.835  0.3514  0.6612 -0.6679
 9065TIP3    H248687   6.076   4.557   1.940  1.4747 -0.2990  0.5180
 9066TIP3   OH248688   0.942   6.516   2.841 -0.0376  0.7230  0.0804
 9066TIP3    H148689   1.010   6.549   2.782 -1.7676  1.9793 -1.3012
 9066TIP3    H248690   0.917   6.592   2.893 -1.0270  0.5070 -0.0697
 9067TIP3   OH248691   1.731   4.208  16.872 -0.4484  0.0560 -0.7416
 9067TIP3    H148692   1.805   4.147  16.865 -0.2197  0.2296  0.0056
 9067TIP3    H248693   1.699   4.217  16.783 -0.6261 -1.3269 -0.8449
 9068TIP3   OH248694   4.596   0.578   3.041  0.0900 -0.5022 -0.9754
 9068TIP3    H148695   4.514   0.615   3.073  1.3660  0.7594  0.9907
 9068TIP3    H248696   4.591   0.485   3.064  0.1068 -0.0122  1.1592
 9069TIP3   OH248697   2.203   2.223   3.682 -0.1116  0.1949 -0.6975
 9069TIP3    H148698   2.133   2.205   3.745  1.7109 -3.0569  0.6159
 9069TIP3    H248699   2.226   2.315   3.698 -2.4472  0.6735  0.4344
 9070TIP3   OH248700   5.330   5.681  10.787 -0.7049  0.1119  0.8177
 9070TIP3    H148701   5.262   5.725  10.736  0.1361  0.2768 -0.1713
 9070TIP3    H248702   5.343   5.597  10.744  0.1234  0.3199  0.6342
 9071TIP3   OH248703   4.027   4.334   4.426 -0.0551 -0.1950 -0.1234
 9071TIP3    H148704   4.119   4.314   4.444  1.0387  2.9730 -1.3560
 9071TIP3    H248705   3.992   4.364   4.510  0.7535  0.7206 -0.0887
 9072TIP3   OH248706   3.036   1.722   4.959 -0.4083 -0.1964  0.1042
 9072TIP3    H148707   2.945   1.751   4.964 -0.6066 -0.9558  1.9683
 9072TIP3    H248708   3.082   1.796   4.920 -1.7260  0.4442 -0.3172
 9073TIP3   OH248709   3.165   6.654  14.504 -0.0574  0.5405  0.5076
 9073TIP3    H148710   3.188   6.591  14.572 -0.9009 -1.5055 -1.0028
 9073TIP3    H248711   3.095   6.707  14.543  3.0161  3.1443  3.1155
 9074TIP3   OH248712   5.959   0.056   5.463  0.0036  0.6133  0.3049
 9074TIP3    H148713   6.004   0.010   5.534  1.2695  0.9650 -0.2257
 9074TIP3    H248714   6.027   0.113   5.426  0.0830 -1.2020 -2.6483
 9075TIP3   OH248715   3.740   3.221  14.350  0.0519 -0.0443  0.0401
 9075TIP3    H148716   3.831   3.205  14.325 -0.5105 -1.1917 -1.4335
 9075TIP3    H248717   3.726   3.162  14.425 -0.0026 -1.3286 -0.9490
 9076TIP3   OH248718   4.293   1.656  12.544 -0.0642  0.0584 -0.5596
 9076TIP3    H148719   4.211   1.676  12.590 -0.0566 -0.3911 -0.3399
 9076TIP3    H248720   4.270   1.586  12.483 -0.3516  1.4740 -2.1440
 9077TIP3   OH248721   4.475   0.473   3.360 -0.0955  0.1159 -0.2855
 9077TIP3    H148722   4.415   0.525   3.307 -1.3997 -0.3180  0.7095
 9077TIP3    H248723   4.419   0.410   3.406  0.8232  0.9912  2.2355
 9078TIP3   OH248724   3.825   5.280  15.588 -0.2869  1.0377 -0.8911
 9078TIP3    H148725   3.761   5.227  15.541 -2.5910  0.1899  2.7798
 9078TIP3    H248726   3.776   5.357  15.616  1.5775  2.5510 -1.5926
 9079TIP3   OH248727   2.327   4.057   4.714  0.2450  0.0705 -0.3380
 9079TIP3    H148728   2.285   4.118   4.652 -0.3640 -0.1737 -0.1736
 9079TIP3    H248729   2.254   4.017   4.761  0.7031  0.4584  0.7419
 9080TIP3   OH248730   4.835   5.141  12.453 -0.5955 -0.3735  0.0823
 9080TIP3    H148731   4.922   5.170  12.428 -0.5357  0.7285  1.5191
 9080TIP3    H248732   4.788   5.221  12.475 -1.0385 -1.1722  2.1953
 9081TIP3   OH248733   5.684   3.227   0.296  0.0612 -0.0053  0.1291
 9081TIP3    H148734   5.688   3.164   0.224 -0.9177  0.1513 -0.0822
 9081TIP3    H248735   5.773   3.230   0.330  0.3680 -0.6719 -0.5695
 9082TIP3   OH248736   3.673   0.489   0.160  0.0244  0.0367 -0.5079
 9082TIP3    H148737   3.684   0.418   0.097  0.2689 -0.8473  0.5028
 9082TIP3    H248738   3.716   0.458   0.240 -1.3542  0.5851  0.4902
 9083TIP3   OH248739   4.429   1.850  11.417 -0.1546  0.3057  0.2499
 9083TIP3    H148740   4.359   1.789  11.395  1.4233 -0.9727 -1.5586
 9083TIP3    H248741   4.505   1.793  11.433  1.0935  1.7454 -0.3974
 9084TIP3   OH248742   2.710   0.426   3.486 -0.0084  0.2316  0.8141
 9084TIP3    H148743   2.706   0.409   3.392 -0.7338  0.0723  0.8688
 9084TIP3    H248744   2.799   0.458   3.501  0.3517 -0.4504  0.1921
 9085TIP3   OH248745   5.585   5.176   2.538 -0.3695 -0.6352 -0.4112
 9085TIP3    H148746   5.654   5.237   2.566  0.1004 -1.1079 -0.5275
 9085TIP3    H248747   5.509   5.232   2.522 -0.6741 -0.3316  1.8269
 9086TIP3   OH248748   0.399   4.996   3.162  0.1847 -0.1357 -0.2545
 9086TIP3    H148749   0.426   5.087   3.172  0.7477 -0.4124  1.0344
 9086TIP3    H248750   0.346   4.994   3.083  0.4970  1.2338 -0.5126
 9087TIP3   OH248751   3.150   6.329  14.319 -0.4857  0.0899 -0.1026
 9087TIP3    H148752   3.178   6.255  14.267  3.1950  0.8158  0.5647
 9087TIP3    H248753   3.105   6.387  14.258  0.4016 -0.7658 -1.6076
 9088TIP3   OH248754   5.130   3.568  12.604 -0.5997  0.5707 -0.5374
 9088TIP3    H148755   5.088   3.503  12.547 -0.6955 -0.3873  0.5857
 9088TIP3    H248756   5.216   3.530  12.624 -1.6271 -0.6011  2.2638
 9089TIP3   OH248757   1.414   2.604  15.370  0.3146 -0.4585  0.2501
 9089TIP3    H148758   1.427   2.590  15.464 -1.3085 -0.2781  0.5266
 9089TIP3    H248759   1.365   2.528  15.340  0.6806 -0.4362 -0.4274
 9090TIP3   OH248760   2.624   4.629  16.051 -0.4418 -0.1830  0.1269
 9090TIP3    H148761   2.674   4.686  16.110  0.7032  0.6957 -1.5937
 9090TIP3    H248762   2.545   4.679  16.030  0.4452  0.7358 -1.1835
 9091TIP3   OH248763   1.480   1.023   5.321  0.4596  0.4971  0.6087
 9091TIP3    H148764   1.454   0.967   5.394  1.2549  0.1031  0.6018
 9091TIP3    H248765   1.575   1.025   5.325  0.6377 -0.8968 -1.4105
 9092TIP3   OH248766   4.642   2.354  15.359  0.1268  0.0578  0.1189
 9092TIP3    H148767   4.644   2.309  15.275 -1.0581 -3.0392  1.5796
 9092TIP3    H248768   4.730   2.344  15.394  0.6013  1.2867 -0.6816
 9093TIP3   OH248769   1.030   1.201   0.674 -0.5045 -0.3611 -0.1486
 9093TIP3    H148770   1.034   1.136   0.603  0.2506  0.7253 -1.1435
 9093TIP3    H248771   1.070   1.280   0.636  0.0967  0.1987  1.5591
 9094TIP3   OH248772   5.108   2.051  11.423  0.1920 -0.8390  0.4997
 9094TIP3    H148773   5.099   2.136  11.379 -0.4164 -0.1459  1.9026
 9094TIP3    H248774   5.137   1.992  11.354 -1.0418  0.1281 -0.9326
 9095TIP3   OH248775   3.028   3.038  12.385 -0.2497 -0.1116  0.3611
 9095TIP3    H148776   3.041   3.087  12.466 -1.7875 -0.9129  1.1376
 9095TIP3    H248777   3.003   2.950  12.414 -1.3082 -0.2793 -0.9535
 9096TIP3   OH248778   0.432   4.043   1.076 -0.1738  0.1132 -0.0254
 9096TIP3    H148779   0.414   4.128   1.035  0.7602 -1.0705 -3.1989
 9096TIP3    H248780   0.522   4.049   1.107 -0.1598  0.3297 -0.1075
 9097TIP3   OH248781   5.186   2.049  11.680 -0.0264 -0.0794 -0.6493
 9097TIP3    H148782   5.161   2.135  11.715 -1.8917 -1.5246  1.9017
 9097TIP3    H248783   5.146   2.046  11.592 -0.2474  1.5062 -0.6271
 9098TIP3   OH248784   1.271   6.504  16.634 -0.1880  0.7798 -0.4568
 9098TIP3    H148785   1.355   6.477  16.598 -0.4739  2.6969 -2.8303
 9098TIP3    H248786   1.289   6.588  16.677 -0.5380  0.2048  0.8615
 9099TIP3   OH248787   6.603   0.645  10.165 -0.0629 -0.2727 -0.0253
 9099TIP3    H148788   6.688   0.624  10.203 -0.2556 -1.1474 -0.0708
 9099TIP3    H248789   6.568   0.561  10.136 -1.1195  0.0248  0.3479
 9100TIP3   OH248790   0.625   2.301  13.652 -0.1427 -0.7329  0.1812
 9100TIP3    H148791   0.719   2.309  13.641 -0.2356  0.1151 -0.0755
 9100TIP3    H248792   0.604   2.213  13.621  0.1970  0.0389 -2.4340
 9101TIP3   OH248793   3.284   3.396   2.946 -0.3335 -0.0460 -0.1630
 9101TIP3    H148794   3.281   3.410   3.041  0.5766 -0.8224 -0.0097
 9101TIP3    H248795   3.287   3.484   2.909  3.1621  0.3267  0.6949
 9102TIP3   OH248796   6.660   3.949   1.101  0.1588 -0.0839  0.3362
 9102TIP3    H148797   6.656   3.991   1.187  0.4144 -0.8143  0.7104
 9102TIP3    H248798   6.616   4.011   1.042 -1.3623 -0.2468  1.2556
 9103TIP3   OH248799   4.889   2.437  12.177 -0.3382 -0.2966 -0.2232
 9103TIP3    H148800   4.892   2.531  12.157 -0.7496 -0.2217  0.0592
 9103TIP3    H248801   4.836   2.399  12.107 -1.0939 -0.1532  0.2580
 9104TIP3   OH248802   5.432   5.341  11.194 -0.2668 -0.2553  0.2067
 9104TIP3    H148803   5.455   5.399  11.121  3.5238  1.2326  2.2954
 9104TIP3    H248804   5.486   5.264  11.181 -1.3590 -1.0481  0.2541
 9105TIP3   OH248805   4.879   5.054  16.860 -0.3233  0.2857 -0.3083
 9105TIP3    H148806   4.954   4.995  16.855  1.8903  2.8765  0.1081
 9105TIP3    H248807   4.816   5.008  16.915  1.4682 -1.5062  0.3542
 9106TIP3   OH248808   5.471   3.031  12.330  0.3641  0.0249  0.0527
 9106TIP3    H148809   5.550   3.045  12.279 -0.5181 -5.1046 -3.4642
 9106TIP3    H248810   5.399   3.049  12.269 -0.9579 -1.1192  1.1894
 9107TIP3   OH248811   2.604   6.359   1.533 -0.2238 -0.4545  0.3980
 9107TIP3    H148812   2.522   6.312   1.519  1.3634 -3.1747 -0.6689
 9107TIP3    H248813   2.643   6.366   1.445  0.5863  1.0501  0.8408
 9108TIP3   OH248814   0.739   0.512  15.890  0.8605 -0.1405 -0.4912
 9108TIP3    H148815   0.747   0.421  15.863  0.6793  0.0150 -1.0874
 9108TIP3    H248816   0.827   0.536  15.918  0.4663 -1.1390  1.8034
 9109TIP3   OH248817   1.096   5.394   2.916 -0.5328  0.2440 -0.8561
 9109TIP3    H148818   1.116   5.458   2.984 -1.5093 -0.3993  0.0606
 9109TIP3    H248819   1.167   5.404   2.852  1.5036 -0.4792  1.1799
 9110TIP3   OH248820   3.950   6.143  10.626  0.0825 -0.0582  0.6547
 9110TIP3    H148821   3.881   6.209  10.633 -1.4775 -1.6288  1.0856
 9110TIP3    H248822   4.000   6.167  10.549 -0.1617  1.8325  1.0395
 9111TIP3   OH248823   4.943   1.858   0.862 -0.0889  0.4907  0.1734
 9111TIP3    H148824   5.023   1.827   0.821 -1.2376 -1.8913 -0.3961
 9111TIP3    H248825   4.973   1.908   0.938  1.9235 -0.3708 -0.0054
 9112TIP3   OH248826   4.356   5.706   2.999 -0.0906 -0.0111  0.1105
 9112TIP3    H148827   4.288   5.751   2.948  1.0846  2.0496  0.2280
 9112TIP3    H248828   4.421   5.774   3.016  1.6523 -1.7247  0.6460
 9113TIP3   OH248829   3.151   2.530   2.412 -0.3847 -0.0446  0.6378
 9113TIP3    H148830   3.222   2.585   2.379  1.1450 -2.3839 -0.2943
 9113TIP3    H248831   3.106   2.499   2.333 -2.2838  1.1216  1.2028
 9114TIP3   OH248832   5.973   4.331   1.738 -0.1811  0.0760 -0.4141
 9114TIP3    H148833   5.882   4.304   1.747  0.2353 -1.1761  0.2384
 9114TIP3    H248834   5.998   4.303   1.650 -0.4251  0.4320 -0.5982
 9115TIP3   OH248835   0.041   6.093  11.334 -0.3109  0.1833  0.4645
 9115TIP3    H148836   0.020   6.044  11.413 -1.2719  0.0573  0.1471
 9115TIP3    H248837  -0.043   6.104  11.290  0.0213  1.3750  0.1035
 9116TIP3   OH248838   0.210   1.597   4.727  0.6695 -0.7409 -0.1479
 9116TIP3    H148839   0.242   1.659   4.792  0.0634 -1.3245  0.7429
 9116TIP3    H248840   0.239   1.632   4.643 -1.4469  1.8966  0.0780
 9117TIP3   OH248841   0.066   0.383  16.900 -0.2245  0.1055 -0.2986
 9117TIP3    H148842   0.072   0.443  16.825  2.3491 -1.2968 -1.3269
 9117TIP3    H248843   0.063   0.441  16.976  0.1338  1.5713 -1.3463
 9118TIP3   OH248844   4.041   1.537   4.663  0.5812 -0.0859  0.4891
 9118TIP3    H148845   3.952   1.567   4.681 -0.7883 -1.2698 -3.4191
 9118TIP3    H248846   4.089   1.617   4.641 -0.4639  0.2561 -0.6298
 9119TIP3   OH248847   1.437   5.008  16.398  0.5523 -0.1476 -0.4363
 9119TIP3    H148848   1.469   5.011  16.488  1.9359 -1.4773 -0.8481
 9119TIP3    H248849   1.421   5.100  16.375  1.7020  0.3448  0.6424
 9120TIP3   OH248850   2.833   5.952   2.616 -0.4009  0.5181  0.3230
 9120TIP3    H148851   2.757   5.908   2.577  0.7536 -0.6688 -0.6648
 9120TIP3    H248852   2.892   5.967   2.542  0.3654  1.3770  1.0870
 9121TIP3   OH248853   0.473   6.634   1.485  0.0942  0.0364 -0.3817
 9121TIP3    H148854   0.428   6.706   1.529  0.4438  0.9605 -1.4919
 9121TIP3    H248855   0.415   6.610   1.413  0.5737  0.0657 -0.7768
 9122TIP3   OH248856   3.325   4.029   2.687  0.2606  0.3458 -0.7554
 9122TIP3    H148857   3.286   4.114   2.706 -1.7265 -0.6050 -0.2701
 9122TIP3    H248858   3.251   3.968   2.688  1.9259 -1.8376  1.5724
 9123TIP3   OH248859   1.425   1.722  14.593  0.2566  0.9826 -0.0793
 9123TIP3    H148860   1.484   1.797  14.588  3.2551 -1.1700 -0.3586
 9123TIP3    H248861   1.430   1.682  14.505  0.2922 -0.5385  0.5730
 9124TIP3   OH248862   0.190   0.539  11.147  0.1169  0.8198  0.1702
 9124TIP3    H148863   0.165   0.628  11.120  1.2426  1.0024 -0.3332
 9124TIP3    H248864   0.258   0.514  11.084 -1.6527 -1.2562 -1.0412
 9125TIP3   OH248865   4.070   2.262   4.552 -0.4300 -0.2773  0.1204
 9125TIP3    H148866   4.161   2.256   4.523 -0.3122  1.1231  0.1266
 9125TIP3    H248867   4.026   2.313   4.483 -1.0775 -0.4333  0.4048
 9126TIP3   OH248868   6.790   1.486  10.897 -0.1253 -0.1339 -0.0375
 9126TIP3    H148869   6.825   1.533  10.821  1.9799  1.2813  1.6913
 9126TIP3    H248870   6.858   1.421  10.918 -0.5905 -0.3775  0.7386
 9127TIP3   OH248871   0.067   1.651  10.706 -0.5728 -0.6714  0.1901
 9127TIP3    H148872   0.091   1.573  10.657  0.3407 -0.1868 -0.1507
 9127TIP3    H248873   0.098   1.724  10.652  1.8107 -0.1247  2.1092
 9128TIP3   OH248874   3.344   6.718  12.877 -0.1243  0.2532  0.2349
 9128TIP3    H148875   3.354   6.624  12.894  0.3512  0.3570  0.5726
 9128TIP3    H248876   3.333   6.757  12.964 -1.0184  0.4383  0.0417
 9129TIP3   OH248877   0.317   3.607   1.625  0.4424  0.7601  0.0829
 9129TIP3    H148878   0.250   3.629   1.690  0.7099 -0.8573  0.9496
 9129TIP3    H248879   0.287   3.525   1.586  0.6258  1.3595 -1.4006
 9130TIP3   OH248880   5.381   0.297  11.226  0.0661  0.1733  0.1624
 9130TIP3    H148881   5.362   0.207  11.255 -0.0864 -0.1846 -1.0056
 9130TIP3    H248882   5.475   0.307  11.240 -0.0902  0.1954  1.2610
 9131TIP3   OH248883   5.720   4.325  11.998  0.0851 -0.3765  0.0079
 9131TIP3    H148884   5.805   4.281  11.995 -1.4942 -3.6305 -1.1828
 9131TIP3    H248885   5.721   4.384  11.922  2.1452  1.7382  1.5001
 9132TIP3   OH248886   2.982   0.351  11.896  0.1086 -0.2700 -0.0652
 9132TIP3    H148887   2.956   0.434  11.855 -0.1354 -1.0114 -1.4695
 9132TIP3    H248888   3.015   0.376  11.982  0.3140  1.3159 -0.5737
 9133TIP3   OH248889   0.835   6.830   4.077 -0.2105 -1.0153 -0.3366
 9133TIP3    H148890   0.880   6.911   4.051 -3.0158  0.2213 -1.7422
 9133TIP3    H248891   0.892   6.760   4.044  0.5069  0.4539 -2.4860
 9134TIP3   OH248892   4.202   3.432   2.580  0.2400  0.1603  0.0284
 9134TIP3    H148893   4.168   3.509   2.534 -0.9548 -0.9114 -0.9656
 9134TIP3    H248894   4.288   3.458   2.611  0.4433  1.4309 -1.5058
 9135TIP3   OH248895   5.670   4.665  13.180  0.0438 -0.2625  0.1083
 9135TIP3    H148896   5.687   4.737  13.240 -2.8392  3.4384 -2.9502
 9135TIP3    H248897   5.740   4.671  13.115 -0.8113  0.6955 -0.7727
 9136TIP3   OH248898   1.940   5.708   0.554 -0.1692  0.1422 -0.0162
 9136TIP3    H148899   1.892   5.687   0.634 -0.9277 -0.5836 -0.6595
 9136TIP3    H248900   2.030   5.680   0.573 -0.2438  0.3612  0.7267
 9137TIP3   OH248901   3.535   3.578  14.639  0.2924  0.0786  0.8036
 9137TIP3    H148902   3.454   3.628  14.639 -1.5973 -2.7667 -0.5776
 9137TIP3    H248903   3.556   3.566  14.731 -0.5207  1.2793  1.1735
 9138TIP3   OH248904   1.270   0.863  16.937 -0.0524  0.1535 -0.2745
 9138TIP3    H148905   1.307   0.935  16.988  0.3144 -0.1912 -0.0468
 9138TIP3    H248906   1.342   0.832  16.882  0.5919 -1.7516  1.5101
 9139TIP3   OH248907   0.335   2.908  15.461 -0.2738 -0.4682 -0.2594
 9139TIP3    H148908   0.287   2.986  15.491 -0.7897 -0.7864 -0.2499
 9139TIP3    H248909   0.371   2.934  15.376 -0.1137 -0.0876 -0.0809
 9140TIP3   OH248910   6.614   2.671  16.763 -0.3688 -0.7661  0.0852
 9140TIP3    H148911   6.530   2.647  16.723 -0.8769 -0.3704  0.8894
 9140TIP3    H248912   6.677   2.611  16.724 -0.8992 -0.5888 -1.0746
 9141TIP3   OH248913   3.474   0.186  16.767  0.1924 -0.1241 -0.4714
 9141TIP3    H148914   3.555   0.204  16.719  0.0056 -1.7755 -1.5206
 9141TIP3    H248915   3.427   0.269  16.767  0.5604  0.1564 -2.5184
 9142TIP3   OH248916   6.618   4.894  17.072  0.4706  0.3343  0.0527
 9142TIP3    H148917   6.676   4.866  17.000  1.2801  2.4620 -0.1819
 9142TIP3    H248918   6.675   4.897  17.149  0.1996  0.5265  0.2479
 9143TIP3   OH248919   4.922   6.365  17.049  0.0952  0.0464  0.1813
 9143TIP3    H148920   4.991   6.431  17.056  0.2811  0.0891 -1.6660
 9143TIP3    H248921   4.944   6.301  17.116  0.5258  1.2764  1.2766
 9144TIP3   OH248922   0.300   5.303   0.275 -0.0597  0.3696  0.0684
 9144TIP3    H148923   0.255   5.223   0.250 -0.3688  0.8114 -0.8050
 9144TIP3    H248924   0.287   5.363   0.202  1.4821  0.6976  0.0272
 9145TIP3   OH248925   0.188   0.665  12.637  0.0750  0.3450  0.3175
 9145TIP3    H148926   0.219   0.741  12.588  0.1040 -0.6789 -1.3237
 9145TIP3    H248927   0.261   0.643  12.696  0.2737  1.2409  0.4201
 9146TIP3   OH248928   2.337   2.124  14.762  0.3408  0.0418  0.2003
 9146TIP3    H148929   2.269   2.173  14.808  0.6661  0.4170  0.2896
 9146TIP3    H248930   2.332   2.154  14.671 -0.4870 -0.9030 -0.0842
 9147TIP3   OH248931   4.441   4.108   3.160 -0.5145 -0.3369  0.4548
 9147TIP3    H148932   4.422   4.191   3.205 -0.6588 -0.1662  0.0847
 9147TIP3    H248933   4.534   4.113   3.138 -0.7171  0.1074 -0.3327
 9148TIP3   OH248934   4.984   5.980   6.595 -0.0286 -0.7026 -0.2615
 9148TIP3    H148935   4.991   5.889   6.566  1.1292 -0.5286 -0.5794
 9148TIP3    H248936   4.979   5.974   6.691 -0.6700 -1.1254 -0.3146
 9149TIP3   OH248937   5.935   2.329   5.942 -0.3014  0.2112  0.0349
 9149TIP3    H148938   5.956   2.395   6.007 -1.7094 -0.9256  1.7444
 9149TIP3    H248939   5.848   2.298   5.966 -0.0168 -1.7058 -1.1663
 9150TIP3   OH248940   1.300   4.212  13.414 -0.8194 -0.2452  0.0026
 9150TIP3    H148941   1.233   4.167  13.465 -1.1514  0.3585  0.1030
 9150TIP3    H248942   1.376   4.214  13.472 -0.8268 -0.5924  0.0312
 9151TIP3   OH248943   6.766   1.450  15.995  0.1151 -0.3411 -0.0435
 9151TIP3    H148944   6.770   1.479  16.086 -1.0008 -0.4929  0.0747
 9151TIP3    H248945   6.785   1.356  15.999 -3.9090 -1.3319  0.6539
 9152TIP3   OH248946   0.203   3.670  14.759  0.0514  0.1490  0.6797
 9152TIP3    H148947   0.144   3.614  14.809 -1.2215  0.5172 -0.3753
 9152TIP3    H248948   0.184   3.758  14.790  1.5228  0.1139  1.7967
 9153TIP3   OH248949   5.768   1.689  16.479 -0.6463  0.1599 -0.6794
 9153TIP3    H148950   5.806   1.621  16.535 -0.2236  0.2049 -0.9009
 9153TIP3    H248951   5.718   1.744  16.539 -0.0406  0.3233 -0.3060
 9154TIP3   OH248952   1.286   1.053   6.690 -0.0980 -0.8188  0.1618
 9154TIP3    H148953   1.348   0.991   6.652  0.3100  1.3344 -3.1271
 9154TIP3    H248954   1.340   1.125   6.720 -0.8112  0.1155 -0.7158
 9155TIP3   OH248955   4.127   4.381  12.074 -0.0781  0.2861 -0.2742
 9155TIP3    H148956   4.115   4.470  12.108  0.7129 -0.1043  1.1396
 9155TIP3    H248957   4.217   4.359  12.097 -0.3663 -0.9984 -0.3118
 9156TIP3   OH248958   4.079   0.872  16.014  0.4921  0.2022  0.3940
 9156TIP3    H148959   4.071   0.790  15.964 -0.3830  0.3655  0.2596
 9156TIP3    H248960   4.173   0.881  16.029  0.6498 -0.5290 -0.0910
 9157TIP3   OH248961   6.120   2.070  16.093  0.0326 -0.2760 -0.0423
 9157TIP3    H148962   6.077   2.014  16.029  0.2373  0.2470 -0.6600
 9157TIP3    H248963   6.053   2.133  16.119 -0.4766 -1.3541  1.3564
 9158TIP3   OH248964   2.053   0.451  12.282 -0.1255 -0.3773  0.0535
 9158TIP3    H148965   2.121   0.430  12.218 -1.0353 -0.3836 -0.9334
 9158TIP3    H248966   2.041   0.369  12.331 -1.0919 -1.1254 -1.3650
 9159TIP3   OH248967   6.544   0.355  14.593  0.1485  0.0567 -0.4137
 9159TIP3    H148968   6.497   0.272  14.595 -1.4955  0.9273  2.3952
 9159TIP3    H248969   6.476   0.421  14.612  1.5750  1.9760 -1.5835
 9160TIP3   OH248970   1.884   0.416  16.534  0.1274 -0.1314  0.4329
 9160TIP3    H148971   1.928   0.480  16.590 -1.3036  2.0089 -0.7383
 9160TIP3    H248972   1.954   0.383  16.476  1.1443 -0.6790  1.9058
 9161TIP3   OH248973   4.867   0.054   1.844 -0.1232 -0.9627 -0.1148
 9161TIP3    H148974   4.895   0.029   1.932  2.2220  0.8754 -0.2402
 9161TIP3    H248975   4.949   0.073   1.798 -1.3689 -0.6040 -2.2904
 9162TIP3   OH248976   3.566   1.247   3.176 -0.1659 -0.2861  0.1150
 9162TIP3    H148977   3.525   1.330   3.155  1.8265  0.2873 -1.9206
 9162TIP3    H248978   3.497   1.195   3.217 -1.5646  2.1976  1.0767
 9163TIP3   OH248979   0.122   0.424  14.828 -0.0614 -0.0350 -0.1237
 9163TIP3    H148980   0.106   0.353  14.765 -1.9880 -1.2192  1.5941
 9163TIP3    H248981   0.045   0.480  14.821  0.1904  0.3930  0.4711
 9164TIP3   OH248982   4.507   5.682  16.403 -0.2747 -0.7961 -0.2182
 9164TIP3    H148983   4.547   5.752  16.455 -1.3595 -0.9485  0.8854
 9164TIP3    H248984   4.433   5.725  16.359 -0.0698 -0.9317 -0.6974
 9165TIP3   OH248985   2.171   1.390  11.190 -0.6384  0.4066 -0.2031
 9165TIP3    H148986   2.221   1.462  11.228  0.4122 -0.1142 -0.5405
 9165TIP3    H248987   2.083   1.401  11.224 -0.6135  2.0976 -0.5914
 9166TIP3   OH248988   0.162   2.605   0.420  0.2349 -0.3970 -0.4399
 9166TIP3    H148989   0.145   2.585   0.328  0.2957 -2.4651 -0.0647
 9166TIP3    H248990   0.088   2.565   0.466 -0.6334  1.9687  0.3442
 9167TIP3   OH248991   6.345   0.264   0.888  0.1977  0.2979 -0.2925
 9167TIP3    H148992   6.299   0.227   0.963 -0.6085  1.4465 -0.2079
 9167TIP3    H248993   6.352   0.191   0.826  0.1293 -0.4348  0.5391
 9168TIP3   OH248994   3.482   1.740   3.693 -0.1870  0.4301  0.0487
 9168TIP3    H148995   3.430   1.820   3.692 -1.1132 -0.1608 -0.9391
 9168TIP3    H248996   3.455   1.696   3.774 -0.6114  0.5242 -0.0355
 9169TIP3   OH248997   3.715   2.504  15.137 -0.4893  0.0173 -0.2099
 9169TIP3    H148998   3.673   2.424  15.170  2.0589 -1.0640  0.6306
 9169TIP3    H248999   3.719   2.562  15.214  2.4317 -1.2067  0.6943
 9170TIP3   OH249000   3.586   4.743  16.812 -0.0766 -0.1102 -0.5767
 9170TIP3    H149001   3.592   4.826  16.859 -0.9779  0.2543 -1.0873
 9170TIP3    H249002   3.603   4.676  16.879  0.3019  0.4662 -0.0883
 9171TIP3   OH249003   3.056   2.520  13.324 -0.0388 -0.0664  0.5157
 9171TIP3    H149004   3.034   2.449  13.264  0.1112  0.3654 -0.0658
 9171TIP3    H249005   2.990   2.516  13.392 -1.6844  0.9272 -0.9438
 9172TIP3   OH249006   2.226   1.209   0.744  0.3282 -0.0829  0.0992
 9172TIP3    H149007   2.203   1.302   0.740 -2.2524 -0.6198  0.5566
 9172TIP3    H249008   2.300   1.199   0.683  0.5212  2.2050 -0.1015
 9173TIP3   OH249009   4.359   2.665   4.722 -0.1831  0.2539  0.2599
 9173TIP3    H149010   4.389   2.738   4.669  0.7778  0.2346  0.7440
 9173TIP3    H249011   4.336   2.704   4.806 -3.9901  0.6624 -0.8023
 9174TIP3   OH249012   5.635   6.687  16.039  0.3995  0.4392 -0.3529
 9174TIP3    H149013   5.627   6.633  15.961  0.7234  1.7115 -1.3115
 9174TIP3    H249014   5.590   6.769  16.016 -0.2794  0.5172  1.1247
 9175TIP3   OH249015   4.729   6.367   2.057 -0.4201  0.3613 -0.2662
 9175TIP3    H149016   4.752   6.452   2.095  0.7027  0.9082 -2.0388
 9175TIP3    H249017   4.698   6.387   1.969 -1.2067 -0.9973 -0.3295
 9176TIP3   OH249018   0.144   2.486  16.276 -0.5201  0.3710 -0.0278
 9176TIP3    H149019   0.079   2.426  16.314 -0.6425 -0.5478 -1.6144
 9176TIP3    H249020   0.097   2.569  16.267 -1.1666  0.0000 -0.1969
 9177TIP3   OH249021   2.857   0.257  14.843 -0.0172 -0.5502 -0.4238
 9177TIP3    H149022   2.933   0.314  14.850 -1.3272  1.2353 -0.0937
 9177TIP3    H249023   2.866   0.196  14.916  1.3103 -0.6642 -0.6626
 9178TIP3   OH249024   2.177   4.332  12.713 -0.3825 -0.3317 -0.2517
 9178TIP3    H149025   2.240   4.377  12.657 -0.3678 -1.6497 -1.3553
 9178TIP3    H249026   2.181   4.241  12.684  0.3385 -1.2950  2.5603
 9179TIP3   OH249027   0.974   4.009  11.397 -0.4251  0.2265  0.7647
 9179TIP3    H149028   1.058   3.968  11.378 -0.2141  1.5644 -1.5701
 9179TIP3    H249029   0.909   3.947  11.365 -0.1648  0.7554 -0.8983
 9180TIP3   OH249030   1.249   3.022  13.521  0.4964 -0.3483  0.1104
 9180TIP3    H149031   1.304   2.948  13.496 -0.3742 -0.8829 -0.2609
 9180TIP3    H249032   1.237   3.013  13.616 -0.7131 -1.4835 -0.1181
 9181TIP3   OH249033   2.261   3.437   6.925  0.9730  0.2673 -0.4681
 9181TIP3    H149034   2.340   3.452   6.872  1.3317 -0.0111 -0.0222
 9181TIP3    H249035   2.261   3.509   6.989  1.0672  0.0593 -0.2334
 9182TIP3   OH249036   1.709   6.181  11.673 -0.0911 -0.1958  0.1765
 9182TIP3    H149037   1.704   6.126  11.595 -0.2972  1.0367 -0.7187
 9182TIP3    H249038   1.679   6.267  11.642  1.0052  0.6168  1.3293
 9183TIP3   OH249039   5.488   6.546   0.932  0.6057 -0.1347  0.4456
 9183TIP3    H149040   5.520   6.537   0.842  3.6436  0.2894  1.3598
 9183TIP3    H249041   5.545   6.489   0.984 -1.3942 -0.7623  2.0767
 9184TIP3   OH249042   1.868   1.266  16.439  0.0049  0.8645 -0.3421
 9184TIP3    H149043   1.851   1.239  16.529 -0.6219  1.1924 -0.3604
 9184TIP3    H249044   1.818   1.347  16.428 -0.2349  0.6150 -1.1088
 9185TIP3   OH249045   3.557   6.170   0.861 -0.4539  0.4804 -0.2273
 9185TIP3    H149046   3.468   6.171   0.895 -0.6140 -1.9481 -0.4019
 9185TIP3    H249047   3.601   6.243   0.905 -2.1010  0.7705  1.0083
 9186TIP3   OH249048   1.767   2.183   1.793 -0.4235 -0.3199 -0.0652
 9186TIP3    H149049   1.725   2.118   1.849 -0.3612 -0.1322  0.2025
 9186TIP3    H249050   1.844   2.211   1.842 -0.2745 -0.2781 -0.3212
 9187TIP3   OH249051   5.610   6.827  12.529  0.3092 -0.6948 -0.4769
 9187TIP3    H149052   5.601   6.760  12.462  0.5694 -0.9021 -0.3064
 9187TIP3    H249053   5.647   6.781  12.604  1.5332 -0.1544 -0.7169
 9188TIP3   OH249054   2.564   6.443  12.035  0.0349 -0.1660 -0.0598
 9188TIP3    H149055   2.575   6.350  12.054  0.2381 -0.1435 -0.0671
 9188TIP3    H249056   2.602   6.454  11.948  2.1534  0.3696  0.8705
 9189TIP3   OH249057   3.773   1.065  14.834 -0.3529  0.5883 -0.0451
 9189TIP3    H149058   3.865   1.059  14.807 -0.3384 -1.2839  0.2846
 9189TIP3    H249059   3.724   1.067  14.752 -0.0791 -0.1051 -0.2329
 9190TIP3   OH249060   6.719   4.300  12.470  0.0440 -0.5419 -0.7703
 9190TIP3    H149061   6.806   4.267  12.449  1.3231  1.6467  0.6454
 9190TIP3    H249062   6.708   4.376  12.413  0.8362  1.5445  1.6162
 9191TIP3   OH249063   0.333   3.224  16.621  0.0426  0.5426 -0.5286
 9191TIP3    H149064   0.238   3.223  16.604  0.1885  2.2786 -1.7749
 9191TIP3    H249065   0.343   3.284  16.694  0.2732  1.7401 -1.5030
 9192TIP3   OH249066   6.435   5.898   5.087  0.2324  0.3852  0.0321
 9192TIP3    H149067   6.498   5.888   5.016 -1.8661 -0.3414 -1.8680
 9192TIP3    H249068   6.387   5.978   5.065 -2.6001 -1.4935 -1.3622
 9193TIP3   OH249069   2.714   2.571  15.430  0.2497  0.1108  0.4039
 9193TIP3    H149070   2.740   2.612  15.347  0.5826 -1.5117 -0.3438
 9193TIP3    H249071   2.691   2.481  15.405  0.2749 -0.3812  2.0727
 9194TIP3   OH249072   0.698   0.845   1.108  0.0522  1.0748  0.0937
 9194TIP3    H149073   0.738   0.932   1.106  1.3120  0.5086 -0.3684
 9194TIP3    H249074   0.750   0.794   1.046  0.3157 -0.4076  1.4724
 9195TIP3   OH249075   0.436   4.104  11.452 -0.1092 -0.9617  0.1970
 9195TIP3    H149076   0.521   4.088  11.412 -0.2081 -0.7513 -0.1051
 9195TIP3    H249077   0.391   4.020  11.447 -0.0156 -1.0083  0.1222
 9196TIP3   OH249078   1.386   3.789  16.422  0.3405 -0.1439 -0.2916
 9196TIP3    H149079   1.312   3.774  16.363  0.3418  0.3259 -0.4146
 9196TIP3    H249080   1.346   3.814  16.505  0.3041 -1.7604  0.2114
 9197TIP3   OH249081   0.054   6.597  14.603  0.6238 -0.1453 -0.4546
 9197TIP3    H149082   0.132   6.623  14.652  0.5436 -0.5875 -0.0893
 9197TIP3    H249083   0.009   6.535  14.660 -0.0271  0.1460 -0.6410
 9198TIP3   OH249084   3.064   1.119  15.761 -0.5485 -0.1753  0.1022
 9198TIP3    H149085   3.050   1.028  15.734  0.8062 -0.3959  0.0800
 9198TIP3    H249086   2.977   1.159  15.754 -0.8165 -0.9430 -1.8830
 9199TIP3   OH249087   3.275   5.460   0.356  0.7629 -0.3656  0.1526
 9199TIP3    H149088   3.338   5.495   0.419 -0.6219  1.8046  0.4222
 9199TIP3    H249089   3.295   5.504   0.274 -0.6363  0.7584  0.3593
 9200TIP3   OH249090   5.156   4.037   1.093 -0.4336 -0.5007 -0.5888
 9200TIP3    H149091   5.161   4.048   0.998 -1.2372  2.2348 -0.3951
 9200TIP3    H249092   5.136   4.124   1.126  2.0357 -0.8630  2.2890
 9201TIP3   OH249093   4.511   0.766   4.729  0.0636  0.4333  0.6264
 9201TIP3    H149094   4.521   0.684   4.681 -1.7802  0.6624 -0.2225
 9201TIP3    H249095   4.577   0.824   4.690  1.7865 -0.7550  1.6302
 9202TIP3   OH249096   2.212   1.019  12.710 -0.2489 -0.3791  0.0553
 9202TIP3    H149097   2.193   1.045  12.620 -0.6440  1.0588  0.5384
 9202TIP3    H249098   2.183   0.928  12.715 -1.3245 -0.1087 -0.9399
 9203TIP3   OH249099   2.395   5.926  14.876 -0.1796 -0.3827  0.1478
 9203TIP3    H149100   2.479   5.893  14.843 -0.3345 -0.4303 -0.2107
 9203TIP3    H249101   2.419   5.991  14.942  0.1318 -1.7297  1.4175
 9204TIP3   OH249102   3.007   4.409   2.031  0.3286  0.0067  0.2836
 9204TIP3    H149103   2.977   4.420   1.941  0.2873 -0.5913  0.2176
 9204TIP3    H249104   3.062   4.331   2.028  1.1831  0.5889  0.5757
 9205TIP3   OH249105   5.967   1.878   4.427 -0.4932  0.0840 -0.0941
 9205TIP3    H149106   6.002   1.827   4.353  0.3570  1.0632 -0.3824
 9205TIP3    H249107   6.041   1.931   4.457 -0.3547 -1.4323  2.5164
 9206TIP3   OH249108   6.810   4.078  11.943 -0.0224  0.0509  0.3308
 9206TIP3    H149109   6.738   4.131  11.910  0.2604  0.1383 -0.1613
 9206TIP3    H249110   6.888   4.128  11.921  0.2669 -0.6787 -0.3696
 9207TIP3   OH249111   4.989   5.488   0.928 -0.2236 -0.0752  0.4065
 9207TIP3    H149112   4.894   5.487   0.939 -0.1817 -1.0084  0.7633
 9207TIP3    H249113   5.017   5.401   0.956  0.7928  0.3651  0.7940
 9208TIP3   OH249114   5.052   4.812  12.192  0.3136 -0.3383 -0.3183
 9208TIP3    H149115   5.077   4.836  12.281  0.2626 -1.7971  0.1133
 9208TIP3    H249116   5.038   4.896  12.148 -0.6816  0.4276  1.3290
 9209TIP3   OH249117   5.237   3.286  13.803  0.1682 -0.6326  0.0017
 9209TIP3    H149118   5.248   3.368  13.756 -0.1296  0.1545  1.2769
 9209TIP3    H249119   5.221   3.221  13.734  0.6547  0.3175 -1.0310
 9210TIP3   OH249120   1.366   2.307   0.647  0.0878 -0.0480  0.3879
 9210TIP3    H149121   1.383   2.288   0.555  1.4825  2.4159  0.0422
 9210TIP3    H249122   1.452   2.310   0.688 -0.5804 -2.8547  2.2679
 9211TIP3   OH249123   6.223   3.546  15.056 -0.0996  0.5396  0.4202
 9211TIP3    H149124   6.155   3.508  15.110  1.2753 -1.3537  0.9390
 9211TIP3    H249125   6.189   3.632  15.030 -2.1704  0.1104  1.5326
 9212TIP3   OH249126   1.716   1.605  13.333  0.1506 -0.1001  0.0237
 9212TIP3    H149127   1.700   1.687  13.379  0.9362 -0.1046  0.3242
 9212TIP3    H249128   1.647   1.546  13.364  0.1378  0.1677  0.5177
 9213TIP3   OH249129   5.289   1.746   3.880  0.5306 -0.3379 -0.7014
 9213TIP3    H149130   5.317   1.830   3.842 -0.8242  0.1327 -0.7251
 9213TIP3    H249131   5.198   1.761   3.905  0.7994 -1.2582  0.9644
 9214TIP3   OH249132   4.747   6.650   5.234 -0.5159  0.3734  0.5416
 9214TIP3    H149133   4.654   6.672   5.239  0.0130  2.6815  2.6081
 9214TIP3    H249134   4.787   6.724   5.187  0.3731 -0.1521  0.4514
 9215TIP3   OH249135   3.157   6.549   2.199  0.0314 -0.1197 -0.4533
 9215TIP3    H149136   3.106   6.470   2.216  0.0688 -0.0101  0.1714
 9215TIP3    H249137   3.207   6.528   2.120  0.0697 -0.7302 -0.2702
 9216TIP3   OH249138   0.698   4.176  14.423  0.1771  0.0399 -0.1211
 9216TIP3    H149139   0.693   4.084  14.448  1.8931 -0.2719 -0.7780
 9216TIP3    H249140   0.777   4.209  14.466  0.4998  0.7466 -1.2059
 9217TIP3   OH249141   3.170   1.002  15.407  0.1270 -0.4187  0.1573
 9217TIP3    H149142   3.238   0.965  15.464 -0.3864 -0.0596  1.0252
 9217TIP3    H249143   3.218   1.043  15.335  0.7508 -2.0104 -0.3875
 9218TIP3   OH249144   6.154   2.420  11.521  0.3159 -0.2397 -0.0035
 9218TIP3    H149145   6.102   2.389  11.595  0.4309  1.2550  0.7348
 9218TIP3    H249146   6.244   2.403  11.547  0.2866 -1.5649 -0.6924
 9219TIP3   OH249147   6.776   2.931  14.755  0.5692 -0.6113  0.1162
 9219TIP3    H149148   6.741   3.002  14.810 -0.2158 -0.8742 -0.0328
 9219TIP3    H249149   6.726   2.853  14.783 -1.6874 -0.3155 -2.6620
 9220TIP3   OH249150   6.132   1.102  14.712  0.3098  0.4181  0.0373
 9220TIP3    H149151   6.132   1.006  14.710  0.7514  0.4267 -0.7638
 9220TIP3    H249152   6.165   1.124  14.799  2.6154 -0.1704 -0.6284
 9221TIP3   OH249153   3.867   1.110  14.326  0.1129 -0.2188  0.1633
 9221TIP3    H149154   3.878   1.185  14.268 -0.3217  0.6510  1.1692
 9221TIP3    H249155   3.946   1.057  14.312  0.4024  0.3958 -0.5997
 9222TIP3   OH249156   1.754   6.729   3.311 -0.0190  0.1533 -0.0684
 9222TIP3    H149157   1.694   6.798   3.340 -0.3920 -0.4783  0.6764
 9222TIP3    H249158   1.735   6.719   3.218 -0.4971  0.5269 -0.0160
 9223TIP3   OH249159   3.235   0.024  13.347  0.1171  0.4528 -0.0878
 9223TIP3    H149160   3.140   0.027  13.357  0.1474  2.3365 -0.0524
 9223TIP3    H249161   3.269   0.023  13.437  0.1310  1.0742 -0.0787
 9224TIP3   OH249162   5.720   1.920  13.847  0.1379 -0.0987 -0.2101
 9224TIP3    H149163   5.805   1.963  13.838  0.2211 -0.2746 -0.2837
 9224TIP3    H249164   5.733   1.835  13.805 -0.2253  0.0697 -0.6649
 9225TIP3   OH249165   1.495   6.294   4.602  0.2761 -0.5225 -0.0763
 9225TIP3    H149166   1.414   6.312   4.651  0.2515 -1.5844  0.2938
 9225TIP3    H249167   1.542   6.230   4.656  1.0620 -0.4053 -0.6096
 9226TIP3   OH249168   1.498   4.598  12.383 -0.0464  1.2137 -0.8143
 9226TIP3    H149169   1.467   4.688  12.384 -2.3161  0.4977 -0.4007
 9226TIP3    H249170   1.520   4.581  12.291  2.1347  2.6766 -0.6173
 9227TIP3   OH249171   4.231   3.684  12.282 -0.0422  0.2785 -0.0332
 9227TIP3    H149172   4.186   3.766  12.304  1.2165  0.5003  2.1249
 9227TIP3    H249173   4.291   3.708  12.211 -3.0399 -0.0029 -2.8717
 9228TIP3   OH249174   1.074   1.688  15.636  0.5245  0.5810  0.6136
 9228TIP3    H149175   1.062   1.728  15.550 -0.0086  0.1067  0.4640
 9228TIP3    H249176   1.133   1.615  15.621 -3.2766 -2.6311 -0.3543
 9229TIP3   OH249177   0.320   5.781  16.295  0.1215  0.4941  0.1875
 9229TIP3    H149178   0.404   5.823  16.312 -0.0150  1.1050 -0.6009
 9229TIP3    H249179   0.330   5.692  16.330  0.9139  0.7225  0.5594
 9230TIP3   OH249180   0.723   6.120  10.572 -0.1334 -0.7399 -0.0864
 9230TIP3    H149181   0.677   6.182  10.629  1.4661  1.4384 -1.0246
 9230TIP3    H249182   0.661   6.104  10.500 -0.4763  0.0179  0.0319
 9231TIP3   OH249183   5.684   6.622  13.003  0.2249 -0.1651  0.0975
 9231TIP3    H149184   5.729   6.682  13.061  0.3344 -0.6096  0.4765
 9231TIP3    H249185   5.675   6.670  12.920  0.1884  0.4136  0.4371
 9232TIP3   OH249186   5.675   3.242   6.472 -0.3715  0.0969 -0.8512
 9232TIP3    H149187   5.602   3.192   6.510  0.8599 -1.1136  0.0360
 9232TIP3    H249188   5.739   3.247   6.543  1.0243 -0.1733 -2.0520
 9233TIP3   OH249189   4.868   2.500   5.630 -0.1768 -0.4013  0.2520
 9233TIP3    H149190   4.847   2.549   5.551 -2.3941 -0.9606  0.4190
 9233TIP3    H249191   4.949   2.454   5.609  1.1858  2.1154 -0.4182
 9234TIP3   OH249192   2.366   5.705   0.825 -0.0493  0.4364 -0.4928
 9234TIP3    H149193   2.275   5.681   0.842  0.7930 -2.7428  0.2110
 9234TIP3    H249194   2.367   5.727   0.732 -1.6950  1.6948 -0.2691
 9235TIP3   OH249195   5.983   2.038  14.924  0.1682  0.1211 -0.3504
 9235TIP3    H149196   5.954   1.969  14.864 -1.3551 -0.6315  1.1721
 9235TIP3    H249197   5.949   2.119  14.886 -1.6149 -0.4520 -0.0495
 9236TIP3   OH249198   6.431   2.942  13.314  0.4412 -0.8013 -0.0991
 9236TIP3    H149199   6.513   2.974  13.351 -0.5600  0.6638  0.9942
 9236TIP3    H249200   6.391   3.019  13.274 -0.7546 -1.2910  0.0961
 9237TIP3   OH249201   4.038   1.142  11.367 -0.2842 -0.0497  0.2041
 9237TIP3    H149202   4.072   1.226  11.397 -1.0101  0.3389 -0.0529
 9237TIP3    H249203   3.946   1.141  11.394 -0.5229 -0.3822 -0.5687
 9238TIP3   OH249204   2.041   5.576  15.947  0.3508 -0.5872  0.1663
 9238TIP3    H149205   1.968   5.624  15.908  0.2419 -1.2750 -0.4926
 9238TIP3    H249206   2.051   5.498  15.892  0.1283 -1.6437  1.5679
 9239TIP3   OH249207   1.218   1.287   4.767  0.3087 -0.0726 -0.2472
 9239TIP3    H149208   1.169   1.295   4.849  0.7247 -0.6411  0.0634
 9239TIP3    H249209   1.251   1.197   4.768 -0.5931 -0.4483 -1.5540
 9240TIP3   OH249210   0.688   2.950   1.923  0.1652 -0.2651 -0.2847
 9240TIP3    H149211   0.706   2.876   1.980  1.2192  1.3952  1.6530
 9240TIP3    H249212   0.768   3.001   1.923 -0.2694  0.5100 -2.2082
 9241TIP3   OH249213   4.280   1.949   5.476 -0.6074 -0.2008 -0.2224
 9241TIP3    H149214   4.290   1.948   5.571 -2.3336 -0.4906 -0.0075
 9241TIP3    H249215   4.346   2.011   5.446  0.7430 -0.9612  1.0491
 9242TIP3   OH249216   1.667   6.012   2.508 -0.1178  0.0855  0.6130
 9242TIP3    H149217   1.654   5.917   2.503 -0.2991  0.1346  0.0192
 9242TIP3    H249218   1.706   6.034   2.423  1.2428  0.3399  1.2856
 9243TIP3   OH249219   0.184   3.043  13.880  0.0893  0.0899  0.3800
 9243TIP3    H149220   0.220   2.996  13.955 -1.8479 -0.1741  1.1888
 9243TIP3    H249221   0.241   3.018  13.807  0.1681 -2.1306  1.1314
 9244TIP3   OH249222   5.406   2.505  12.370 -0.5200 -0.0456 -0.5340
 9244TIP3    H149223   5.435   2.596  12.360 -0.0746 -0.2822 -1.3754
 9244TIP3    H249224   5.313   2.513  12.392 -0.0977  0.6677  1.1396
 9245TIP3   OH249225   1.752   0.809   3.524 -0.1454 -0.2422  0.0734
 9245TIP3    H149226   1.829   0.848   3.484 -1.0386  1.0942 -0.3988
 9245TIP3    H249227   1.763   0.715   3.508  2.0676 -0.2551  1.2786
 9246TIP3   OH249228   5.217   4.959   5.649  0.6789  0.1889  0.0895
 9246TIP3    H149229   5.265   5.020   5.705 -0.3606  0.4257  0.7487
 9246TIP3    H249230   5.269   4.879   5.652  1.0551  0.4416  0.7729
 9247TIP3   OH249231   4.587   6.788   1.812 -0.1132 -0.8481 -0.0921
 9247TIP3    H149232   4.534   6.862   1.842 -0.8263 -2.0250  1.7294
 9247TIP3    H249233   4.670   6.797   1.860 -0.6378 -1.8252  1.0533
 9248TIP3   OH249234   3.366   2.298  11.977 -0.2340  0.2233  0.2426
 9248TIP3    H149235   3.459   2.310  11.959 -0.0130 -1.6554 -0.0477
 9248TIP3    H249236   3.323   2.370  11.929  0.9912  0.6067 -0.3272
 9249TIP3   OH249237   5.153   4.009   3.939  0.5503  0.0977  0.0286
 9249TIP3    H149238   5.098   3.940   3.901 -0.4020  0.6964  0.2662
 9249TIP3    H249239   5.136   4.003   4.033  1.0691  0.1473  0.1263
 9250TIP3   OH249240   0.049   0.552  16.161  0.3059 -0.2428 -0.2476
 9250TIP3    H149241   0.019   0.635  16.123  0.6490  0.5418  1.1039
 9250TIP3    H249242   0.121   0.525  16.104  0.1340  0.3404 -0.7608
 9251TIP3   OH249243   1.077   1.648   1.473 -0.3810  0.4203  0.0360
 9251TIP3    H149244   1.038   1.721   1.425  0.0031  0.5576 -0.0788
 9251TIP3    H249245   1.095   1.684   1.560 -1.2375  0.1199  0.3463
 9252TIP3   OH249246   4.283   1.419   3.859 -0.3139 -0.5559 -0.2383
 9252TIP3    H149247   4.351   1.405   3.925 -0.0691 -0.7599 -0.5290
 9252TIP3    H249248   4.314   1.495   3.810  0.0319 -1.0432 -0.7833
 9253TIP3   OH249249   4.687   3.795   5.015  0.0714 -0.4908 -0.3956
 9253TIP3    H149250   4.689   3.795   5.111 -2.1841  0.4085 -0.2762
 9253TIP3    H249251   4.766   3.843   4.990  0.1986  0.1390  1.0666
 9254TIP3   OH249252   5.739   1.634  12.461  0.2477 -0.6420  0.0570
 9254TIP3    H149253   5.710   1.674  12.380 -0.2807 -0.3812  0.3695
 9254TIP3    H249254   5.704   1.691  12.530  0.0824 -1.2476  0.4838
 9255TIP3   OH249255   6.620   4.177  10.962  0.3923 -0.0700 -0.8922
 9255TIP3    H149256   6.625   4.212  11.051  0.7666 -0.4018 -0.7809
 9255TIP3    H249257   6.532   4.137  10.957  0.5550 -0.4942 -0.5014
 9256TIP3   OH249258   3.349   0.981   2.702 -0.2304 -0.0130 -0.0265
 9256TIP3    H149259   3.405   1.039   2.754  0.2404 -0.1890 -0.3330
 9256TIP3    H249260   3.348   1.021   2.615 -0.7970  0.1330  0.0432
 9257TIP3   OH249261   4.470   1.977  12.058  0.3326 -0.0074 -0.0209
 9257TIP3    H149262   4.502   1.888  12.043  0.3460  0.2292 -1.5693
 9257TIP3    H249263   4.550   2.029  12.069  0.3192 -0.2096  1.1982
 9258TIP3   OH249264   0.066   6.370   0.594  0.0537 -0.0512  0.4009
 9258TIP3    H149265  -0.015   6.321   0.581  1.4018 -2.8266  1.4633
 9258TIP3    H249266   0.106   6.373   0.507 -0.2750 -0.4573  0.2294
 9259TIP3   OH249267   0.663   6.730   5.087 -0.5490 -0.6220  0.1058
 9259TIP3    H149268   0.574   6.697   5.098 -1.0508  1.1828  1.9173
 9259TIP3    H249269   0.709   6.701   5.165 -0.0848  0.0873  0.1018
 9260TIP3   OH249270   5.985   5.754  12.124 -0.6876 -0.1341  0.0718
 9260TIP3    H149271   6.071   5.728  12.155 -0.2656 -2.0784 -2.4141
 9260TIP3    H249272   5.999   5.783  12.034 -2.5731 -0.2110 -0.3007
 9261TIP3   OH249273   4.395   0.496  13.372 -0.1337 -0.1908  0.2979
 9261TIP3    H149274   4.319   0.552  13.390 -1.3905 -1.5157 -0.6789
 9261TIP3    H249275   4.376   0.414  13.416  1.7192  0.0780  1.7397
 9262TIP3   OH249276   1.028   3.838  16.833  0.3753  0.4013  0.1269
 9262TIP3    H149277   0.936   3.855  16.809  0.1966  0.6957  0.9965
 9262TIP3    H249278   1.029   3.745  16.856  0.1505  0.5368  0.7143
 9263TIP3   OH249279   5.583   1.747  12.937  0.0096  0.0011  0.0609
 9263TIP3    H149280   5.573   1.688  13.012  0.4118  0.0762  0.1771
 9263TIP3    H249281   5.565   1.834  12.972  0.0604  0.0205  0.0392
 9264TIP3   OH249282   2.730   4.951  13.232  0.5626 -0.5157 -0.0156
 9264TIP3    H149283   2.747   4.858  13.218  1.6075 -0.5085  1.0381
 9264TIP3    H249284   2.758   4.993  13.150  4.2860 -0.7054  0.9749
 9265TIP3   OH249285   0.151   2.341   4.771  0.3806  0.5104 -0.3510
 9265TIP3    H149286   0.093   2.273   4.737  0.9944  0.6102 -1.6630
 9265TIP3    H249287   0.104   2.378   4.845 -1.0530  0.3371 -1.1475
 9266TIP3   OH249288   4.558   6.662  11.501  0.0093  0.0441 -0.0932
 9266TIP3    H149289   4.648   6.665  11.470  0.7222 -1.4114  1.6920
 9266TIP3    H249290   4.565   6.653  11.596 -2.0069 -0.5697  0.0514
 9267TIP3   OH249291   0.567   2.800   4.245 -0.2442  0.3728 -0.3559
 9267TIP3    H149292   0.610   2.721   4.277 -3.1531 -0.5324  1.6720
 9267TIP3    H249293   0.638   2.851   4.205  2.3856 -1.6227  1.4264
 9268TIP3   OH249294   6.619   1.710  15.617  0.1412  0.4376 -0.2259
 9268TIP3    H149295   6.682   1.779  15.638 -0.4535  0.6047  1.1066
 9268TIP3    H249296   6.545   1.756  15.577  0.0272  0.4979  0.0501
 9269TIP3   OH249297   2.128   3.497  10.814  1.1559  0.0204 -0.4774
 9269TIP3    H149298   2.081   3.464  10.737  1.2611  0.0607 -0.5574
 9269TIP3    H249299   2.064   3.554  10.857  1.4297  0.8055 -1.0788
 9270TIP3   OH249300   3.315   1.214   1.336 -0.1291 -0.0732 -0.3690
 9270TIP3    H149301   3.370   1.277   1.383  1.0060 -0.6108 -0.9545
 9270TIP3    H249302   3.353   1.209   1.249 -1.2430 -0.3078 -0.8580
 9271TIP3   OH249303   3.558   0.865  15.893 -0.4302 -0.0825 -0.2368
 9271TIP3    H149304   3.571   0.940  15.951  1.0150  0.4881 -1.2348
 9271TIP3    H249305   3.640   0.816  15.898 -0.0148  0.3071 -2.1973
 9272TIP3   OH249306   5.668   4.552  13.542 -0.5298 -0.4512  0.2826
 9272TIP3    H149307   5.683   4.607  13.619 -0.7797 -0.2439  0.1857
 9272TIP3    H249308   5.664   4.463  13.576 -1.8995 -0.2558  0.6898
 9273TIP3   OH249309   4.094   1.149   0.811  0.4324  1.0073 -0.4681
 9273TIP3    H149310   4.091   1.210   0.738 -0.0056  1.0603 -0.4053
 9273TIP3    H249311   4.016   1.168   0.862  0.7578  1.0022  0.0416
 9274TIP3   OH249312   2.270   0.030   4.502  0.0740  0.2750 -0.4075
 9274TIP3    H149313   2.219   0.027   4.583  0.0304 -0.8424 -0.4538
 9274TIP3    H249314   2.311  -0.057   4.497  1.2452  0.8248 -0.8386
 9275TIP3   OH249315   2.060   4.879   6.764 -0.5868 -0.0867  0.0947
 9275TIP3    H149316   2.076   4.799   6.714 -0.0305  0.5267 -0.7399
 9275TIP3    H249317   2.076   4.950   6.701 -0.4463  0.6906  0.9880
 9276TIP3   OH249318   1.629   3.464   3.324  0.3555 -0.3743 -0.1282
 9276TIP3    H149319   1.684   3.477   3.247 -0.0720  0.5346 -0.2917
 9276TIP3    H249320   1.645   3.541   3.379  1.6969 -1.6391  1.3578
 9277TIP3   OH249321   0.970   0.373   3.856 -0.1276  0.6256 -0.5799
 9277TIP3    H149322   0.990   0.448   3.912  0.2092  0.8455 -0.9835
 9277TIP3    H249323   0.957   0.412   3.769 -0.8465  0.3166 -0.6174
 9278TIP3   OH249324   4.771   0.531  14.482  0.7052  0.0338 -0.4845
 9278TIP3    H149325   4.790   0.597  14.549 -1.4791 -0.9291  1.2136
 9278TIP3    H249326   4.749   0.582  14.404  1.6075  1.2278  0.0109
 9279TIP3   OH249327   4.410   2.094  12.323  0.2005 -0.0306 -0.1426
 9279TIP3    H149328   4.373   2.012  12.356 -1.2301  0.0941 -1.3582
 9279TIP3    H249329   4.469   2.067  12.253  0.2860 -0.0620 -0.0587
 9280TIP3   OH249330   5.575   4.255   5.652  0.1855  0.3890  0.4487
 9280TIP3    H149331   5.533   4.170   5.637 -0.7113  0.5004  2.0191
 9280TIP3    H249332   5.658   4.250   5.607 -0.6270 -0.6533 -0.9989
 9281TIP3   OH249333   6.414   0.290  12.004  0.2121  0.6012 -0.3498
 9281TIP3    H149334   6.474   0.226  11.966  0.3048  1.1576 -1.1641
 9281TIP3    H249335   6.455   0.374  11.988 -0.5912  0.9634 -0.5718
 9282TIP3   OH249336   4.703   5.450   6.824  0.0068  0.1525  0.6983
 9282TIP3    H149337   4.627   5.500   6.794 -0.7107 -1.9985 -1.4592
 9282TIP3    H249338   4.667   5.386   6.885 -0.4974 -2.3361 -1.9747
 9283TIP3   OH249339   4.716   3.763  16.609  0.8293 -0.5030 -0.3539
 9283TIP3    H149340   4.783   3.801  16.552 -0.9602 -0.0384 -2.2506
 9283TIP3    H249341   4.722   3.669  16.593  2.7144 -0.7872  1.4977
 9284TIP3   OH249342   1.145   6.635  14.868  0.4254 -0.7155 -0.3026
 9284TIP3    H149343   1.150   6.581  14.947  0.2017  0.9808  0.9186
 9284TIP3    H249344   1.232   6.630  14.829  0.5983 -1.3791  0.1579
 9285TIP3   OH249345   4.439   3.272  15.422 -0.0016  0.2760 -0.3903
 9285TIP3    H149346   4.451   3.365  15.439  1.6225 -0.2500  1.8112
 9285TIP3    H249347   4.431   3.232  15.508  0.6519 -1.7629 -1.2045
 9286TIP3   OH249348   4.916   5.264   0.635 -0.9988 -0.1276 -0.2984
 9286TIP3    H149349   4.936   5.357   0.645 -1.4198  0.0633 -1.1467
 9286TIP3    H249350   4.993   5.219   0.669 -0.3643  0.5557 -0.8034
 9287TIP3   OH249351   4.989   2.701  15.216  0.1996  0.2177 -0.3313
 9287TIP3    H149352   5.004   2.712  15.310  0.3475  0.0567 -0.3358
 9287TIP3    H249353   4.917   2.761  15.196 -0.3541 -0.3035  0.0352
 9288TIP3   OH249354   3.127   3.896  12.559  0.3336  0.1480 -0.0755
 9288TIP3    H149355   3.172   3.812  12.557  0.9447  0.4643  0.0543
 9288TIP3    H249356   3.057   3.888  12.494  0.6495 -0.3121 -0.3661
 9289TIP3   OH249357   3.672   2.323   2.697 -0.0653 -0.4592  0.0844
 9289TIP3    H149358   3.627   2.242   2.720 -1.7913  0.4688  0.1341
 9289TIP3    H249359   3.610   2.393   2.719  1.3397  0.8918 -0.0109
 9290TIP3   OH249360   4.276   2.501   4.429  0.1980  0.3492  0.1401
 9290TIP3    H149361   4.213   2.536   4.492 -1.2461  0.6016 -1.3891
 9290TIP3    H249362   4.236   2.419   4.399  0.0486  1.0285 -1.6237
 9291TIP3   OH249363   0.647   2.767  13.359 -0.0331 -0.0827  0.2000
 9291TIP3    H149364   0.742   2.764  13.371 -0.2213 -1.9691  1.8547
 9291TIP3    H249365   0.619   2.846  13.405  0.7151  0.3648 -0.1102
 9292TIP3   OH249366   6.494   5.835   5.339  0.1143 -0.1992 -0.5373
 9292TIP3    H149367   6.469   5.849   5.248 -0.2415 -0.4828 -0.4885
 9292TIP3    H249368   6.455   5.909   5.386 -0.9611 -0.8129 -0.4137
 9293TIP3   OH249369   5.012   1.379   3.151 -0.2132  0.6108 -0.4026
 9293TIP3    H149370   5.035   1.302   3.203  0.1942  2.0796  1.7314
 9293TIP3    H249371   4.994   1.345   3.063 -0.0413 -1.8808  0.4671
 9294TIP3   OH249372   0.351   6.516   3.561 -0.0112  0.1641  0.3565
 9294TIP3    H149373   0.306   6.451   3.508 -0.1583 -0.3757  1.1179
 9294TIP3    H249374   0.369   6.589   3.502  0.2253 -0.6024 -0.5283
 9295TIP3   OH249375   3.179   1.480  12.209  0.2486  0.3322 -0.2919
 9295TIP3    H149376   3.192   1.565  12.250 -0.6587 -0.2541  1.2776
 9295TIP3    H249377   3.110   1.494  12.144  0.6157  0.9299 -0.5619
 9296TIP3   OH249378   5.995   1.464  12.857  0.3763  0.1771  0.1161
 9296TIP3    H149379   5.965   1.384  12.814  1.7650 -0.3449  0.0612
 9296TIP3    H249380   5.920   1.493  12.908 -0.3351 -0.8488 -0.3058
 9297TIP3   OH249381   2.342   6.421   5.693  0.0417  0.1477  0.7871
 9297TIP3    H149382   2.373   6.406   5.782 -1.4013 -2.3748  0.9412
 9297TIP3    H249383   2.266   6.478   5.703 -0.9511 -1.2462  1.3405
 9298TIP3   OH249384   5.999   1.599  13.329 -0.2288 -0.4039  0.4714
 9298TIP3    H149385   6.027   1.681  13.289  2.5429 -1.3855  0.1817
 9298TIP3    H249386   6.022   1.607  13.421 -0.3671 -0.7000  0.5342
 9299TIP3   OH249387   1.061   4.168   3.040  0.4544  0.0654 -0.0067
 9299TIP3    H149388   0.998   4.164   2.968 -0.3072 -0.5539  0.6753
 9299TIP3    H249389   1.123   4.098   3.021  0.7462  0.4546 -0.5036
 9300TIP3   OH249390   5.153   2.224   2.520 -0.4953  0.0534 -0.1563
 9300TIP3    H149391   5.237   2.242   2.562  0.0873 -1.2193 -0.7124
 9300TIP3    H249392   5.094   2.202   2.592 -0.4886  1.4070  0.2757
 9301TIP3   OH249393   5.009   3.846   0.100  0.0386 -0.1860  0.6353
 9301TIP3    H149394   4.987   3.855   0.192  1.5523  1.7266  0.8839
 9301TIP3    H249395   4.925   3.851   0.054 -0.5432  1.3855  1.7916
 9302TIP3   OH249396   3.470   4.963  13.954  0.0288  0.0802 -0.8269
 9302TIP3    H149397   3.456   5.052  13.987 -0.8236 -0.6996  1.0799
 9302TIP3    H249398   3.419   4.908  14.014  0.2418 -1.6600 -2.1937
 9303TIP3   OH249399   2.066   1.037   5.247  0.6094 -0.6653 -0.0985
 9303TIP3    H149400   2.157   1.064   5.247 -0.0513  1.7519  0.4223
 9303TIP3    H249401   2.024   1.092   5.181 -0.8749 -0.2088  1.1755
 9304TIP3   OH249402   6.303   2.631   1.635 -0.6476  0.1450  0.0020
 9304TIP3    H149403   6.298   2.628   1.539 -0.6019 -0.5056  0.0161
 9304TIP3    H249404   6.315   2.540   1.661  1.6574  0.5328  0.5176
 9305TIP3   OH249405   3.390   3.432   2.323  0.4526 -0.7007 -0.2127
 9305TIP3    H149406   3.334   3.355   2.328 -0.2587 -0.1851  0.0047
 9305TIP3    H249407   3.342   3.493   2.266  0.5144 -0.0392  0.4177
 9306TIP3   OH249408   0.400   5.694  15.518  0.3216  0.4706  0.2150
 9306TIP3    H149409   0.314   5.709  15.559 -0.0610  1.2377 -0.8195
 9306TIP3    H249410   0.381   5.637  15.443  0.7524  0.4310  0.1337
 9307TIP3   OH249411   3.090   4.330   4.642  0.0715 -0.2191  0.0552
 9307TIP3    H149412   3.156   4.359   4.704  0.1860 -0.4767  0.0573
 9307TIP3    H249413   3.053   4.251   4.682  1.8200 -1.8107 -1.2936
 9308TIP3   OH249414   3.024   3.344   5.064 -0.0026 -0.3832 -0.1134
 9308TIP3    H149415   3.087   3.328   4.993  0.2363  0.1991 -0.0360
 9308TIP3    H249416   2.989   3.431   5.045 -0.0743 -0.3033  0.3851
 9309TIP3   OH249417   1.154   6.365   0.819  0.0582 -0.5427 -0.2205
 9309TIP3    H149418   1.124   6.406   0.901  2.1927 -0.9771  0.8575
 9309TIP3    H249419   1.249   6.361   0.828  0.2797 -1.4151 -2.3802
 9310TIP3   OH249420   1.346   5.547  15.701  0.2834  0.3250  0.6946
 9310TIP3    H149421   1.435   5.576  15.683 -0.0479  1.7887  1.3022
 9310TIP3    H249422   1.292   5.625  15.691 -0.9729 -0.5712  0.1762
 9311TIP3   OH249423   3.563   0.630  13.434  1.0131 -0.2624  0.3562
 9311TIP3    H149424   3.608   0.592  13.510  0.6413 -0.7613  0.3368
 9311TIP3    H249425   3.481   0.665  13.469  0.4085 -1.3263  0.0486
 9312TIP3   OH249426   6.414   4.529  12.346 -0.4556  0.6828 -0.3071
 9312TIP3    H149427   6.391   4.442  12.313  0.7611 -0.2268  1.1510
 9312TIP3    H249428   6.441   4.578  12.268 -2.2566  0.1651 -1.3163
 9313TIP3   OH249429   1.496   3.047  14.497  0.1716  0.3500  0.6787
 9313TIP3    H149430   1.410   3.006  14.492 -0.2796  1.4068 -1.4458
 9313TIP3    H249431   1.490   3.107  14.572 -0.5578 -0.3894  1.2254
 9314TIP3   OH249432   1.464   5.831  13.520  0.9312 -0.3358  0.3016
 9314TIP3    H149433   1.495   5.779  13.446  1.1984 -0.3211  0.4006
 9314TIP3    H249434   1.409   5.771  13.570 -0.5238  0.0923 -0.7272
 9315TIP3   OH249435   4.700   1.093  11.653  0.3063  0.2286  0.5565
 9315TIP3    H149436   4.607   1.076  11.666 -0.2775  2.4258 -0.2416
 9315TIP3    H249437   4.704   1.186  11.631  2.6479  0.0577  0.0245
 9316TIP3   OH249438   5.699   5.658   0.529 -0.2992 -1.0867  0.2994
 9316TIP3    H149439   5.624   5.639   0.586 -1.8881 -3.4345 -2.2743
 9316TIP3    H249440   5.665   5.721   0.465  0.6287 -0.5017  0.3660
 9317TIP3   OH249441   6.430   3.554   4.321  0.0598 -0.0339  0.2228
 9317TIP3    H149442   6.379   3.620   4.368 -0.7854 -0.4946 -0.0287
 9317TIP3    H249443   6.408   3.471   4.364  1.0781 -0.1680  0.5073
 9318TIP3   OH249444   6.732   1.619  15.380 -1.0243  0.5959  0.5529
 9318TIP3    H149445   6.719   1.532  15.344 -0.2328  0.9808 -0.7538
 9318TIP3    H249446   6.686   1.618  15.464 -3.6204 -0.1154 -0.7736
 9319TIP3   OH249447   0.765   1.718  14.470  0.5685 -0.8404  0.1475
 9319TIP3    H149448   0.836   1.764  14.424  1.3958 -1.1807  1.0541
 9319TIP3    H249449   0.717   1.786  14.516  0.0527 -0.5607 -0.7685
 9320TIP3   OH249450   6.454   6.349   1.350 -0.0857  0.5180 -0.5070
 9320TIP3    H149451   6.526   6.291   1.326  0.0548  0.4107  0.1784
 9320TIP3    H249452   6.382   6.321   1.294 -0.0588 -0.4137 -0.0828
 9321TIP3   OH249453   6.561   1.943   5.224  0.5313 -0.1698  0.3120
 9321TIP3    H149454   6.600   2.026   5.197 -0.3798 -0.3818 -1.8677
 9321TIP3    H249455   6.489   1.967   5.282  1.9444  0.3725  1.9044
 9322TIP3   OH249456   4.602   3.109  14.343  0.0274 -0.4093  0.1434
 9322TIP3    H149457   4.651   3.028  14.356 -1.4828 -1.2970  0.4916
 9322TIP3    H249458   4.653   3.176  14.388 -0.6323 -1.8459  3.2614
 9323TIP3   OH249459   6.555   5.094   6.776 -0.1944 -0.1860  0.0728
 9323TIP3    H149460   6.529   5.142   6.855 -0.9044 -2.4070  1.2541
 9323TIP3    H249461   6.576   5.163   6.713 -0.5983  1.6724  1.8496
 9324TIP3   OH249462   5.213   0.982  14.575 -0.5038  0.4330 -0.1647
 9324TIP3    H149463   5.255   0.992  14.661  0.2364 -0.2013 -0.4481
 9324TIP3    H249464   5.285   0.987  14.512 -1.0686  1.1192 -0.7784
 9325TIP3   OH249465   4.200   6.380   0.398 -0.1106 -0.2326  0.2879
 9325TIP3    H149466   4.206   6.401   0.492  1.4797 -1.6302  0.5485
 9325TIP3    H249467   4.220   6.462   0.354 -2.8480  0.9819  1.0869
 9326TIP3   OH249468   5.090   1.404   5.323 -0.8724 -0.0635  0.1437
 9326TIP3    H149469   5.152   1.391   5.394 -0.2635 -0.7268 -0.4858
 9326TIP3    H249470   5.040   1.322   5.321  0.4378 -0.8869 -1.4274
 9327TIP3   OH249471   5.234   4.722  15.874  0.0667 -0.0542  0.1861
 9327TIP3    H149472   5.327   4.711  15.858 -0.3470 -3.4114 -0.6967
 9327TIP3    H249473   5.217   4.670  15.953 -1.1839 -0.3562 -0.2497
 9328TIP3   OH249474   0.256   4.207  13.237 -0.3226  0.8888 -0.0833
 9328TIP3    H149475   0.213   4.124  13.220 -0.1831  0.6567  0.6903
 9328TIP3    H249476   0.330   4.208  13.177 -2.3248  2.0771 -2.7643
 9329TIP3   OH249477   4.632   3.813  14.039 -0.7960  0.3037  0.2045
 9329TIP3    H149478   4.627   3.731  13.989 -1.1676  0.1382  0.5118
 9329TIP3    H249479   4.677   3.873  13.980  0.0286 -0.2908  0.2083
 9330TIP3   OH249480   2.139   6.446   2.993 -0.3104  0.3719  0.1449
 9330TIP3    H149481   2.096   6.432   2.909 -1.1683  1.4820  0.3785
 9330TIP3    H249482   2.132   6.362   3.038  0.5414 -0.3646 -1.0421
 9331TIP3   OH249483   6.028   1.768  12.011 -0.1022  0.2921 -0.2014
 9331TIP3    H149484   5.968   1.780  11.937  0.4743  2.6923 -0.3724
 9331TIP3    H249485   6.114   1.757  11.970  0.1326  1.0208  0.0746
 9332TIP3   OH249486   0.659   0.899  13.635  0.5562 -0.3778  0.1483
 9332TIP3    H149487   0.606   0.824  13.661 -1.7470  0.6288 -1.2708
 9332TIP3    H249488   0.620   0.929  13.553  2.8245  1.0210 -0.5245
 9333TIP3   OH249489   0.209   0.512   4.436  0.0334  0.1749 -0.1451
 9333TIP3    H149490   0.280   0.448   4.445  0.3414  0.4712 -0.4109
 9333TIP3    H249491   0.130   0.464   4.460  0.2536 -0.3269 -0.4032
 9334TIP3   OH249492   3.251   1.232  13.552  0.5059 -0.1526  0.0907
 9334TIP3    H149493   3.180   1.296  13.555  1.8705  1.4473 -0.2639
 9334TIP3    H249494   3.314   1.269  13.490  1.2460 -1.9672 -0.2901
 9335TIP3   OH249495   2.598   3.313   5.485  0.6697 -0.3650 -0.0830
 9335TIP3    H149496   2.584   3.319   5.391  0.1783 -2.2751 -0.1592
 9335TIP3    H249497   2.693   3.323   5.495  0.9941 -2.0565 -1.0048
 9336TIP3   OH249498   1.454   0.927   4.423  0.3321  0.1701 -1.0716
 9336TIP3    H149499   1.409   0.842   4.420  2.1635 -0.8523 -1.1938
 9336TIP3    H249500   1.422   0.974   4.347  0.1147 -0.8698 -1.6416
 9337TIP3   OH249501   1.941   3.847  14.561  0.1840  0.0989 -0.1635
 9337TIP3    H149502   1.899   3.918  14.511 -0.9105  0.4292  1.1427
 9337TIP3    H249503   1.975   3.787  14.494  0.1962  1.3134 -1.2951
 9338TIP3   OH249504   2.643   0.001  10.851  0.0754  0.0360  0.2486
 9338TIP3    H149505   2.698   0.016  10.775  1.0084  1.2352  1.1251
 9338TIP3    H249506   2.602  -0.084  10.835  2.1853 -0.9095 -0.4267
 9339TIP3   OH249507   3.076   6.392   1.917  0.0917 -0.0998  0.5286
 9339TIP3    H149508   3.148   6.455   1.923  1.6375 -1.7236 -0.2579
 9339TIP3    H249509   3.002   6.444   1.885  1.1164  1.4461  0.5531
 9340TIP3   OH249510   4.098   3.487  13.539 -0.1335  0.3364  0.0541
 9340TIP3    H149511   4.015   3.480  13.493 -0.7500 -0.8500  1.2570
 9340TIP3    H249512   4.122   3.396  13.559  0.5886  0.7524  1.1903
 9341TIP3   OH249513   2.849   5.704   1.353 -0.2087 -0.7527 -0.7517
 9341TIP3    H149514   2.853   5.794   1.385 -2.3209 -0.5506 -0.9137
 9341TIP3    H249515   2.781   5.662   1.405  0.4754 -2.1694 -0.9344
 9342TIP3   OH249516   5.801   5.716   3.110 -0.1594  0.0495 -0.5157
 9342TIP3    H149517   5.812   5.809   3.091 -1.7405  0.1270 -1.1322
 9342TIP3    H249518   5.889   5.686   3.135 -0.0518  2.1938  2.0084
 9343TIP3   OH249519   5.485   0.365   2.354 -0.6190  0.3768 -0.7683
 9343TIP3    H149520   5.437   0.343   2.434 -0.2965  1.2051 -0.3302
 9343TIP3    H249521   5.574   0.331   2.369 -0.5682  0.5017 -0.7834
 9344TIP3   OH249522   2.774   2.646   4.250  0.6226  0.4296 -0.3156
 9344TIP3    H149523   2.757   2.613   4.338  2.8143  0.2232  0.0949
 9344TIP3    H249524   2.716   2.722   4.242 -1.4013 -0.9458  0.3293
 9345TIP3   OH249525   6.755   5.488   2.276  0.1593  0.2877  0.2437
 9345TIP3    H149526   6.738   5.395   2.285  1.3636  0.2628  3.3628
 9345TIP3    H249527   6.671   5.526   2.253 -0.1869 -1.5824 -1.9297
 9346TIP3   OH249528   0.045   3.138   3.297 -0.5363  0.1610  0.2899
 9346TIP3    H149529   0.001   3.215   3.334 -0.4847  0.5564 -0.4542
 9346TIP3    H249530   0.138   3.160   3.299 -0.4478 -0.2616  0.9262
 9347TIP3   OH249531   0.913   5.286   4.078  0.3137  0.2040 -0.4735
 9347TIP3    H149532   0.869   5.273   3.994  1.2739 -0.8582 -0.8419
 9347TIP3    H249533   0.905   5.379   4.095 -1.8722  0.0945 -0.6165
 9348TIP3   OH249534   6.694   0.409  13.359 -0.2007  0.0260  0.9296
 9348TIP3    H149535   6.631   0.478  13.340  1.2292  1.5538  1.4299
 9348TIP3    H249536   6.762   0.453  13.411  1.6708 -1.3080 -0.2655
 9349TIP3   OH249537   5.030   3.979  14.597 -0.2245 -0.7335  0.4978
 9349TIP3    H149538   4.937   3.985  14.622 -0.7185 -0.6084 -1.2556
 9349TIP3    H249539   5.077   4.008  14.676 -1.6970  0.0974  1.1308
 9350TIP3   OH249540   2.957   3.044  13.860 -0.2984 -0.8702 -0.3027
 9350TIP3    H149541   3.004   3.126  13.873  0.2349 -1.2140  0.0139
 9350TIP3    H249542   3.022   2.984  13.823 -0.3586 -1.4750  0.5325
 9351TIP3   OH249543   0.960   4.393   5.768  0.2309 -0.0345 -0.0625
 9351TIP3    H149544   1.019   4.358   5.835 -0.7239  0.1986  0.9383
 9351TIP3    H249545   0.909   4.460   5.813  0.0303  0.6231 -1.2145
 9352TIP3   OH249546   4.982   1.597   2.690 -0.2284 -0.1814 -0.2375
 9352TIP3    H149547   4.998   1.527   2.627  0.2957 -0.9401  0.7051
 9352TIP3    H249548   4.887   1.606   2.692 -0.3159 -1.0275 -0.2078
 9353TIP3   OH249549   2.697   5.465   3.690 -0.0991 -0.3919 -0.6426
 9353TIP3    H149550   2.674   5.427   3.775 -0.1448  0.1016 -0.4343
 9353TIP3    H249551   2.628   5.529   3.673  0.2172 -0.0887 -0.7903
 9354TIP3   OH249552   6.755   1.938  14.386 -0.1441  0.5089  0.3606
 9354TIP3    H149553   6.823   1.903  14.329 -0.5122 -2.6243  1.6105
 9354TIP3    H249554   6.707   1.860  14.416 -2.5146  2.3601  1.7062
 9355TIP3   OH249555   3.950   2.122  16.139 -0.3046  1.0206  0.4120
 9355TIP3    H149556   3.904   2.131  16.223  1.6980 -0.4238  1.7862
 9355TIP3    H249557   3.907   2.048  16.096 -0.3359  0.7237  0.9387
 9356TIP3   OH249558   4.262   1.559   6.585 -0.6554  0.1302 -0.1662
 9356TIP3    H149559   4.184   1.566   6.641 -0.3003  1.2525  0.2010
 9356TIP3    H249560   4.322   1.504   6.636 -0.3670  1.0717  0.5361
 9357TIP3   OH249561   1.549   2.995   3.974 -0.3145  0.0018 -0.6478
 9357TIP3    H149562   1.532   3.055   3.901  0.4515 -1.4355 -2.0769
 9357TIP3    H249563   1.635   2.957   3.954 -0.3790 -0.9074  0.6797
 9358TIP3   OH249564   3.807   4.741  13.125  0.2463  0.0367  0.1331
 9358TIP3    H149565   3.798   4.744  13.220 -1.4948  1.9505 -0.0117
 9358TIP3    H249566   3.751   4.669  13.097 -0.4002  0.3965  0.4812
 9359TIP3   OH249567   5.338   6.592  12.014  0.1504  0.0887 -0.4460
 9359TIP3    H149568   5.341   6.658  11.945  0.1418  2.9169  2.0378
 9359TIP3    H249569   5.430   6.572  12.032  0.1819  0.0675 -0.6272
 9360TIP3   OH249570   3.374   5.173   5.163  0.3617 -0.1186 -0.2208
 9360TIP3    H149571   3.459   5.214   5.144  0.6151  0.1458  1.3852
 9360TIP3    H249572   3.356   5.120   5.085  1.2887  0.9580 -1.2189
 9361TIP3   OH249573   4.185   2.291   4.299 -0.1307  0.2497 -0.1209
 9361TIP3    H149574   4.249   2.220   4.291 -0.1001  0.3827 -1.2345
 9361TIP3    H249575   4.154   2.305   4.209 -2.4183 -0.4434  0.4943
 9362TIP3   OH249576   1.170   5.852   4.624 -0.0121  0.1729  1.1987
 9362TIP3    H149577   1.107   5.923   4.629 -0.2347  0.1037 -0.1897
 9362TIP3    H249578   1.192   5.846   4.531  1.2371 -0.5022  1.5100
 9363TIP3   OH249579   5.280   4.723  13.273  0.3523 -0.3892  0.6678
 9363TIP3    H149580   5.300   4.700  13.183  3.0026  1.0170  0.7891
 9363TIP3    H249581   5.344   4.676  13.325 -0.6125 -0.5364  1.7664
 9364TIP3   OH249582   5.720   1.529  13.308 -0.3706  0.0497 -0.2247
 9364TIP3    H149583   5.798   1.555  13.358 -0.9034  1.4081 -0.0586
 9364TIP3    H249584   5.664   1.486  13.373 -0.8654  1.4038  0.2787
 9365TIP3   OH249585   0.390   5.611   5.007 -0.2776  0.0547 -0.5942
 9365TIP3    H149586   0.450   5.686   4.997  0.3849 -0.5301 -1.0679
 9365TIP3    H249587   0.398   5.587   5.100  0.7562 -0.4483 -0.8033
 9366TIP3   OH249588   2.247   1.719   3.144 -0.3564 -0.4293  0.3468
 9366TIP3    H149589   2.203   1.678   3.070 -1.7081 -0.9336  1.3944
 9366TIP3    H249590   2.332   1.745   3.110  0.4572 -3.7817 -0.4553
 9367TIP3   OH249591   6.554   3.984  17.052  0.4087  0.1009  1.1464
 9367TIP3    H149592   6.530   3.900  17.093 -2.0555  0.0216 -0.2808
 9367TIP3    H249593   6.496   4.048  17.094 -1.7620  0.1129 -1.6104
 9368TIP3   OH249594   3.143   2.597  14.681  0.1258  0.6632  0.5338
 9368TIP3    H149595   3.089   2.523  14.651  0.5760  1.1158 -1.5922
 9368TIP3    H249596   3.083   2.672  14.680 -0.0192  0.5699  1.4701
 9369TIP3   OH249597   3.377   3.895  12.926 -0.1871  0.0940 -0.4567
 9369TIP3    H149598   3.368   3.810  12.884 -0.6674 -0.9372  1.6118
 9369TIP3    H249599   3.360   3.878  13.019 -0.8797  2.5400 -0.0564
 9370TIP3   OH249600   3.093   2.391   6.064 -0.3486  0.2756  0.0844
 9370TIP3    H149601   3.074   2.297   6.075 -2.0700  0.4475 -1.0919
 9370TIP3    H249602   3.115   2.421   6.152  1.2495 -1.4192  0.3295
 9371TIP3   OH249603   4.176   1.882  13.106  0.6399 -0.1678 -0.5505
 9371TIP3    H149604   4.203   1.953  13.164  0.0377 -0.0666 -0.3803
 9371TIP3    H249605   4.101   1.842  13.151 -0.6014  0.6695 -1.8011
 9372TIP3   OH249606   3.785   0.134  10.701 -0.7152 -0.1288  0.2711
 9372TIP3    H149607   3.788   0.155  10.794 -0.1034  1.7473 -0.1087
 9372TIP3    H249608   3.841   0.200  10.660  0.5955 -2.0850 -1.2503
 9373TIP3   OH249609   5.221   4.681  12.677  0.2976  0.3437  0.3282
 9373TIP3    H149610   5.248   4.592  12.703 -2.0890 -0.2772  0.9517
 9373TIP3    H249611   5.220   4.678  12.581 -0.8083 -0.6850  0.3472
 9374TIP3   OH249612   2.338   0.611   2.180  0.3416 -0.5673 -0.5982
 9374TIP3    H149613   2.273   0.601   2.110 -1.6807  1.3546  0.8323
 9374TIP3    H249614   2.393   0.683   2.151 -1.7209  1.5988  0.4647
 9375TIP3   OH249615   6.067   5.415   0.742 -0.0324 -0.6596 -0.1864
 9375TIP3    H149616   6.091   5.375   0.659  1.3664  1.0926 -0.6693
 9375TIP3    H249617   5.987   5.464   0.723  0.9164  0.6989 -0.8535
 9376TIP3   OH249618   0.841   3.208  16.159 -0.7306 -0.7555 -0.4858
 9376TIP3    H149619   0.821   3.140  16.094  1.9879  0.7172 -3.1103
 9376TIP3    H249620   0.911   3.170  16.212  0.0861 -0.3956 -1.2937
 9377TIP3   OH249621   6.737   1.667  14.763  0.1732  0.1226 -0.0859
 9377TIP3    H149622   6.765   1.753  14.732  2.4647  0.1882  1.9586
 9377TIP3    H249623   6.643   1.677  14.780  0.1878  1.8894 -0.8557
 9378TIP3   OH249624   5.668   4.376   3.220 -0.6795  0.3424 -0.0494
 9378TIP3    H149625   5.579   4.376   3.254 -0.4960  0.6661  0.4478
 9378TIP3    H249626   5.664   4.429   3.140 -1.0630 -0.2114 -0.4032
 9379TIP3   OH249627   0.230   6.704   1.340  0.1711  0.3128 -0.4717
 9379TIP3    H149628   0.290   6.715   1.266  1.1071 -1.8579 -0.1128
 9379TIP3    H249629   0.155   6.657   1.303 -0.7005  1.7354 -0.5987
 9380TIP3   OH249630   2.018   5.383  10.477  0.5768  0.0998  0.4420
 9380TIP3    H149631   1.984   5.467  10.445 -1.1469 -1.5198 -2.4087
 9380TIP3    H249632   2.105   5.376  10.436  1.0220  0.7536  1.2496
 9381TIP3   OH249633   1.379   0.761  10.518  0.1740 -0.0861  0.3318
 9381TIP3    H149634   1.287   0.738  10.518  0.2198 -0.2705  0.7440
 9381TIP3    H249635   1.424   0.683  10.549  0.3991  0.2787  0.9324
 9382TIP3   OH249636   6.511   2.803   1.490  0.3620  0.1128 -0.4573
 9382TIP3    H149637   6.534   2.833   1.578 -1.4088  0.0547  0.0541
 9382TIP3    H249638   6.504   2.882   1.438  0.2611  0.2340 -0.2583
 9383TIP3   OH249639   1.624   4.874  14.304  0.6192 -0.1208  0.3843
 9383TIP3    H149640   1.621   4.794  14.252  0.4527 -0.7795  1.3759
 9383TIP3    H249641   1.684   4.931  14.256  0.4432 -0.6929 -0.5365
 9384TIP3   OH249642   5.492   5.285   2.890 -0.3254 -0.8320 -0.4616
 9384TIP3    H149643   5.542   5.366   2.880 -2.0117 -0.0438 -4.6484
 9384TIP3    H249644   5.553   5.215   2.865  0.4859 -0.6802  0.9887
 9385TIP3   OH249645   2.483   5.996  12.765 -0.0762 -0.3263 -0.5248
 9385TIP3    H149646   2.554   6.004  12.700  1.3134  0.0992  0.9834
 9385TIP3    H249647   2.403   6.011  12.714  0.9842  0.5401 -2.0535
 9386TIP3   OH249648   5.304   1.420  16.397  0.0107  0.2791  0.0060
 9386TIP3    H149649   5.371   1.352  16.400  0.6761  0.8856 -0.6453
 9386TIP3    H249650   5.345   1.493  16.350 -0.8316  0.9711  0.2983
 9387TIP3   OH249651   2.949   4.684   1.186 -0.0963 -0.0724  0.0717
 9387TIP3    H149652   2.953   4.766   1.234 -0.9114 -1.3482  2.4951
 9387TIP3    H249653   2.889   4.701   1.114 -0.2443  1.4538  0.5224
 9388TIP3   OH249654   0.238   5.669  14.113  0.2351  0.1678 -0.4708
 9388TIP3    H149655   0.210   5.636  14.028 -1.5499  1.0565 -0.2614
 9388TIP3    H249656   0.257   5.761  14.097 -0.5262  0.4449  0.1668
 9389TIP3   OH249657   1.398   2.302  14.923 -0.4487 -0.0637  0.5883
 9389TIP3    H149658   1.369   2.322  14.833  0.3426  0.2888  0.3999
 9389TIP3    H249659   1.317   2.298  14.974 -0.9138 -0.3076 -0.1475
 9390TIP3   OH249660   6.788   4.333  13.256  0.1093  0.9243 -0.2048
 9390TIP3    H149661   6.848   4.297  13.323 -0.9350  0.7412  0.6586
 9390TIP3    H249662   6.814   4.288  13.175  0.5997  0.2214  0.3204
 9391TIP3   OH249663   1.913   0.038  16.953 -0.4896  0.2183  0.2926
 9391TIP3    H149664   1.929   0.060  16.861 -1.5934 -2.8077 -0.7619
 9391TIP3    H249665   1.876  -0.051  16.950  0.0542 -0.2613  3.7184
 9392TIP3   OH249666   1.548   4.582   4.865  0.0283 -0.1495 -0.1637
 9392TIP3    H149667   1.522   4.623   4.947  1.8399  1.1895 -0.2047
 9392TIP3    H249668   1.607   4.645   4.824 -0.0072 -1.2406 -2.0097
 9393TIP3   OH249669   3.525   0.905   4.461 -0.1544  0.5143 -0.0547
 9393TIP3    H149670   3.513   0.978   4.401 -1.2362 -0.0710 -0.5765
 9393TIP3    H249671   3.450   0.910   4.520 -0.8735 -0.8235 -0.8068
 9394TIP3   OH249672   0.336   6.825  16.452  0.2036 -0.3903 -0.4519
 9394TIP3    H149673   0.400   6.787  16.391  0.9590 -2.0918  1.2774
 9394TIP3    H249674   0.336   6.765  16.526 -1.6969  0.8614  0.6400
 9395TIP3   OH249675   5.737   3.318   0.636  0.0758  0.2502 -0.0819
 9395TIP3    H149676   5.689   3.236   0.621  0.2297  0.2479 -0.5552
 9395TIP3    H249677   5.719   3.338   0.728 -0.9435  0.3172 -0.2740
 9396TIP3   OH249678   2.115   1.284   1.458 -0.1942  0.5363  0.1265
 9396TIP3    H149679   2.060   1.271   1.381  1.1457 -0.8432 -0.6615
 9396TIP3    H249680   2.168   1.361   1.437 -1.2693  1.4203  0.5776
 9397TIP3   OH249681   3.649   1.296   1.383  0.2475  0.2528 -0.2004
 9397TIP3    H149682   3.706   1.316   1.309 -1.2517  0.3072 -1.3967
 9397TIP3    H249683   3.694   1.333   1.458  0.7571  2.2248 -1.3982
 9398TIP3   OH249684   0.910   5.478  15.155 -1.0034  0.5976  0.2578
 9398TIP3    H149685   0.862   5.552  15.118 -1.1898  0.3987  0.1032
 9398TIP3    H249686   0.898   5.407  15.092  1.0810  1.0758 -0.7873
 9399TIP3   OH249687   0.744   4.387   1.956  0.2904  0.4997  0.4311
 9399TIP3    H149688   0.837   4.404   1.975  0.9167 -1.0337 -1.0530
 9399TIP3    H249689   0.714   4.335   2.031  0.7127  0.7121  0.7537
 9400TIP3   OH249690   4.945   1.497  13.328  0.4058 -0.0687  0.5375
 9400TIP3    H149691   4.979   1.460  13.246 -0.8554  0.1823 -0.1333
 9400TIP3    H249692   4.976   1.588  13.328 -0.4952  0.2601 -0.2379
 9401TIP3   OH249693   6.785   2.172   5.749 -0.2012  0.4415  0.0518
 9401TIP3    H149694   6.705   2.120   5.742 -0.8841  1.5965 -1.0827
 9401TIP3    H249695   6.776   2.218   5.833 -0.8294  0.7152 -0.1606
 9402TIP3   OH249696   5.335   1.091   4.433 -0.1417  0.4171 -0.7367
 9402TIP3    H149697   5.322   1.058   4.522 -2.0781 -0.7495 -1.3898
 9402TIP3    H249698   5.389   1.025   4.391 -0.4587  0.2216 -0.8388
 9403TIP3   OH249699   5.675   3.617   2.343 -0.1077 -0.1123  0.4331
 9403TIP3    H149700   5.592   3.583   2.310  1.8587 -6.0063  0.5190
 9403TIP3    H249701   5.692   3.695   2.290 -4.3014 -0.2276 -1.4733
 9404TIP3   OH249702   4.183   3.659  11.465 -0.0460 -0.0203  0.2878
 9404TIP3    H149703   4.231   3.578  11.448  0.0994  0.4022 -1.5084
 9404TIP3    H249704   4.214   3.688  11.551  2.7440  0.0944 -0.6823
 9405TIP3   OH249705   4.319   1.058   5.691 -0.3329 -0.2061 -0.1645
 9405TIP3    H149706   4.366   1.104   5.621  1.0161 -1.1872  0.0441
 9405TIP3    H249707   4.385   1.046   5.760 -1.2199 -0.6053  0.6339
 9406TIP3   OH249708   0.242   1.852  12.233  0.5962 -0.0789  0.0128
 9406TIP3    H149709   0.241   1.947  12.229  0.8735  0.0283  1.7724
 9406TIP3    H249710   0.156   1.826  12.199  1.2235  0.6596 -2.2911
 9407TIP3   OH249711   2.103   3.691  12.148 -0.2249 -0.2587  0.3281
 9407TIP3    H149712   2.064   3.760  12.095  1.8215  0.6918 -0.0390
 9407TIP3    H249713   2.105   3.728  12.237 -1.3255 -0.8559  0.6341
 9408TIP3   OH249714   4.396   3.704   1.941  0.2091  0.2956 -0.4724
 9408TIP3    H149715   4.482   3.662   1.946  0.5920  1.1121  0.2663
 9408TIP3    H249716   4.336   3.634   1.917  1.0055 -0.4036 -0.4811
 9409TIP3   OH249717   0.470   2.448   4.436 -0.0365 -0.6070  0.4087
 9409TIP3    H149718   0.394   2.399   4.466 -2.1276  2.3645  0.3941
 9409TIP3    H249719   0.465   2.531   4.482  0.9373  1.2269 -2.5097
 9410TIP3   OH249720   0.321   3.757   0.653  0.1739 -0.2023 -0.0249
 9410TIP3    H149721   0.363   3.711   0.726 -0.8112 -0.9136  0.1142
 9410TIP3    H249722   0.313   3.848   0.683 -0.1081 -0.4646  0.7028
 9411TIP3   OH249723   3.786   4.661  13.736 -0.6872 -0.1437 -0.0120
 9411TIP3    H149724   3.880   4.645  13.744 -0.2147  1.1782 -2.2140
 9411TIP3    H249725   3.763   4.712  13.814  0.6840  0.5292 -0.0262
 9412TIP3   OH249726   6.802   0.148   4.225  0.4955 -0.1152 -0.2708
 9412TIP3    H149727   6.718   0.182   4.258  0.8442 -2.0953  3.0565
 9412TIP3    H249728   6.866   0.213   4.252  0.4060 -0.1835  0.1080
 9413TIP3   OH249729   6.374   0.170   3.486 -0.3202 -0.0048 -0.0185
 9413TIP3    H149730   6.389   0.088   3.439 -0.1402 -1.3221  2.1908
 9413TIP3    H249731   6.288   0.199   3.458  0.6009  0.4375 -2.6944
 9414TIP3   OH249732   2.943   6.205  14.422 -0.1137 -0.1579 -0.3164
 9414TIP3    H149733   3.020   6.241  14.377  0.8949 -1.4093  0.3597
 9414TIP3    H249734   2.907   6.142  14.360 -0.1639 -0.0998 -0.3460
 9415TIP3   OH249735   0.050   4.000   3.897 -0.0128  0.0409  0.2101
 9415TIP3    H149736  -0.033   4.044   3.915  0.4968  1.1010  0.0830
 9415TIP3    H249737   0.038   3.961   3.810 -0.9651 -1.3392  0.9254
 9416TIP3   OH249738   5.036   6.001   2.430  0.2716  0.4660 -0.4196
 9416TIP3    H149739   5.126   6.009   2.397  0.4557  0.4425  0.0714
 9416TIP3    H249740   5.022   6.082   2.480 -0.9313  1.7887 -2.6991
 9417TIP3   OH249741   5.261   6.179   5.779 -0.1869  0.0366 -0.2696
 9417TIP3    H149742   5.286   6.091   5.750 -0.4546 -0.3305  0.5664
 9417TIP3    H249743   5.299   6.238   5.715  1.2648 -0.6068 -0.0226
 9418TIP3   OH249744   2.654   1.084  11.419 -0.5404  0.4326  0.6423
 9418TIP3    H149745   2.672   1.069  11.512  1.4842  1.5437  0.4784
 9418TIP3    H249746   2.591   1.155  11.418  1.8990  2.7451  1.2055
 9419TIP3   OH249747   0.523   5.303  14.900  0.0574  0.4323  0.1383
 9419TIP3    H149748   0.466   5.229  14.923 -0.6074  0.2406 -1.9343
 9419TIP3    H249749   0.514   5.311  14.805  1.5152  2.0580  0.1013
 9420TIP3   OH249750   5.506   3.520  11.631 -0.3136 -0.1320  0.1499
 9420TIP3    H149751   5.500   3.450  11.567 -0.1403 -0.4253  0.4501
 9420TIP3    H249752   5.529   3.598  11.580 -0.0184 -0.3964 -0.1231
 9421TIP3   OH249753   1.053   5.713   1.011  0.7315 -0.0285 -0.6656
 9421TIP3    H149754   1.047   5.781   0.943 -0.2793  0.0627 -0.5041
 9421TIP3    H249755   1.037   5.760   1.093 -1.0111 -0.5902 -0.6420
 9422TIP3   OH249756   5.189   1.242   4.946 -0.2909 -0.0505  0.3951
 9422TIP3    H149757   5.277   1.278   4.960 -0.8472  0.8442  1.7233
 9422TIP3    H249758   5.194   1.153   4.980 -0.3802  0.6184  2.2690
 9423TIP3   OH249759   3.389   3.254  13.163  0.4887  0.3362 -0.2111
 9423TIP3    H149760   3.425   3.178  13.117  0.5251  0.8578 -1.0610
 9423TIP3    H249761   3.353   3.218  13.244  1.6450 -0.4020  0.0015
 9424TIP3   OH249762   3.820   0.638   0.858 -0.2215  0.0927 -0.3261
 9424TIP3    H149763   3.877   0.715   0.855 -1.2804  0.8418 -2.4812
 9424TIP3    H249764   3.835   0.601   0.946  0.8315  2.3230  0.5005
 9425TIP3   OH249765   6.013   1.641   1.049 -0.3704 -0.1931  0.0544
 9425TIP3    H149766   5.926   1.636   1.010 -0.5359  0.8573  0.2604
 9425TIP3    H249767   6.011   1.577   1.120 -1.3389  0.5335  0.7069
 9426TIP3   OH249768   1.787   3.307  13.687 -0.1574 -0.0356  0.3008
 9426TIP3    H149769   1.814   3.254  13.612  1.2479  0.4667  0.4209
 9426TIP3    H249770   1.859   3.298  13.750 -0.7541  0.5317  1.0864
 9427TIP3   OH249771   1.107   6.790  16.535  0.0139 -0.4849  0.1950
 9427TIP3    H149772   1.131   6.840  16.457  1.8330 -2.9989 -1.0090
 9427TIP3    H249773   1.190   6.772  16.578 -0.6939 -1.3847  1.2383
 9428TIP3   OH249774   2.592   5.411   5.386 -0.2069 -0.0819  0.6500
 9428TIP3    H149775   2.502   5.429   5.413 -0.8307 -0.3383 -1.0955
 9428TIP3    H249776   2.646   5.438   5.460 -1.7049  0.2769  1.6455
 9429TIP3   OH249777   2.301   2.572   1.032 -0.0370 -0.2506  0.6186
 9429TIP3    H149778   2.283   2.487   0.991  0.4090  0.1373 -0.4164
 9429TIP3    H249779   2.259   2.566   1.118  1.6615 -2.2512  1.3883
 9430TIP3   OH249780   2.384   3.290  12.163 -0.1692  0.4247 -0.0633
 9430TIP3    H149781   2.349   3.250  12.242 -0.7563  0.7628 -0.1510
 9430TIP3    H249782   2.467   3.328  12.191  1.4355 -2.5299 -0.3963
 9431TIP3   OH249783   4.882   1.549  12.753 -0.2077 -0.2249 -0.0083
 9431TIP3    H149784   4.959   1.491  12.747 -0.3766 -0.3723 -0.9748
 9431TIP3    H249785   4.918   1.634  12.775  0.1741 -0.4381  0.2035
 9432TIP3   OH249786   6.137   0.546   2.074  0.3146 -0.4406 -0.0096
 9432TIP3    H149787   6.150   0.536   2.168  1.0983  0.8659  0.0438
 9432TIP3    H249788   6.225   0.541   2.037  0.1556  0.4155 -0.5236
 9433TIP3   OH249789   1.256   1.720  14.120 -0.4813 -0.3757 -0.1715
 9433TIP3    H149790   1.280   1.783  14.187  1.9624  0.0778 -1.3630
 9433TIP3    H249791   1.211   1.772  14.053  0.3529 -0.1026 -0.5381
 9434TIP3   OH249792   6.191   4.841  11.280  0.1786  0.5340 -0.2582
 9434TIP3    H149793   6.128   4.770  11.286 -0.9033  1.2707 -2.1530
 9434TIP3    H249794   6.233   4.829  11.195 -0.3338  2.3719 -0.8194
 9435TIP3   OH249795   3.675   0.292  16.640 -0.5536 -0.2958 -0.0178
 9435TIP3    H149796   3.724   0.366  16.675 -0.0301 -1.6246  2.2626
 9435TIP3    H249797   3.741   0.240  16.593 -0.8169  0.3854 -1.1704
 9436TIP3   OH249798   1.861   3.360  15.649 -0.3473  0.4719  0.3260
 9436TIP3    H149799   1.885   3.286  15.593  0.6010  2.0462 -1.4485
 9436TIP3    H249800   1.919   3.353  15.725  0.9694  0.3730 -0.6660
 9437TIP3   OH249801   0.276   1.383   1.590  0.2188 -0.1145 -0.1546
 9437TIP3    H149802   0.216   1.309   1.592  0.8270 -0.6084  0.1215
 9437TIP3    H249803   0.263   1.427   1.674  0.3908 -0.3438 -0.0064
 9438TIP3   OH249804   0.187   5.876   4.442 -0.0704 -0.1109  0.1120
 9438TIP3    H149805   0.210   5.892   4.533 -0.9846 -1.9479  0.7070
 9438TIP3    H249806   0.094   5.897   4.436 -0.2479 -0.9335 -0.1425
 9439TIP3   OH249807   5.654   6.804   1.461  0.0004 -0.9068 -0.2088
 9439TIP3    H149808   5.651   6.879   1.520 -0.9269 -0.8453 -0.3220
 9439TIP3    H249809   5.710   6.833   1.388  0.9168 -0.8860  0.4933
 9440TIP3   OH249810   6.454   2.021  12.388  0.3393  0.1925  0.2771
 9440TIP3    H149811   6.422   1.938  12.424  1.9847 -0.4777  0.2565
 9440TIP3    H249812   6.549   2.012  12.388  0.5941  2.3695  0.9411
 9441TIP3   OH249813   3.512   4.627   4.316 -0.6612 -0.1731 -0.0732
 9441TIP3    H149814   3.518   4.550   4.259  0.1078 -0.1868  0.0201
 9441TIP3    H249815   3.483   4.593   4.400  2.0699 -0.7707  0.7229
 9442TIP3   OH249816   4.250   5.696  14.463  0.2157 -0.2072  0.0826
 9442TIP3    H149817   4.295   5.728  14.541  0.4157 -0.9313  0.2686
 9442TIP3    H249818   4.203   5.773  14.430  0.3958  0.1892  0.7220
 9443TIP3   OH249819   0.409   5.887   5.352  0.4594 -0.0993  0.5545
 9443TIP3    H149820   0.463   5.952   5.397  3.5464 -1.8966 -0.2274
 9443TIP3    H249821   0.386   5.823   5.420 -0.4574  0.5240  0.8351
 9444TIP3   OH249822   6.293   5.124  10.639  0.0847  0.5275  0.3529
 9444TIP3    H149823   6.335   5.053  10.590 -0.4943  0.5865 -0.2330
 9444TIP3    H249824   6.286   5.090  10.729 -0.0161 -0.0834  0.1224
 9445TIP3   OH249825   1.001   0.387   4.185 -0.2266 -0.0058  0.1854
 9445TIP3    H149826   1.024   0.317   4.246  2.0363  0.8461  0.4128
 9445TIP3    H249827   1.081   0.401   4.133 -0.8793  1.8342 -0.4116
 9446TIP3   OH249828   6.756   2.358  16.391 -0.3216  0.0894 -0.1833
 9446TIP3    H149829   6.663   2.342  16.408 -0.5133  0.0992 -1.1954
 9446TIP3    H249830   6.782   2.418  16.461 -0.6624 -1.1553  1.0715
 9447TIP3   OH249831   4.039   2.407  12.082  0.1642  0.2319  0.0159
 9447TIP3    H149832   3.988   2.450  12.151  0.8483  0.4109  0.4203
 9447TIP3    H249833   4.006   2.317  12.081 -0.6224  0.5160 -0.1884
 9448TIP3   OH249834   1.182   2.494   1.425  0.4089  0.2286  0.0681
 9448TIP3    H149835   1.224   2.579   1.436 -0.1518  0.6610 -1.0473
 9448TIP3    H249836   1.254   2.434   1.407  0.9632  0.1817  2.1530
 9449TIP3   OH249837   3.432   2.232  12.812  0.2103  0.0746 -0.0409
 9449TIP3    H149838   3.353   2.177  12.803  0.5830 -0.6868  1.1252
 9449TIP3    H249839   3.453   2.228  12.905  1.8863 -0.1026 -0.4003
 9450TIP3   OH249840   6.043   6.569   0.703 -0.1166  0.3882 -0.2438
 9450TIP3    H149841   6.020   6.554   0.612  0.9210 -0.6047 -0.3548
 9450TIP3    H249842   5.959   6.582   0.747 -0.5848  1.9723 -1.4971
 9451TIP3   OH249843   3.425   6.487  13.732 -0.2786 -0.6586 -0.1456
 9451TIP3    H149844   3.349   6.541  13.752 -0.3874  0.4141 -2.9849
 9451TIP3    H249845   3.496   6.549  13.716  0.4157 -1.4886 -0.4090
 9452TIP3   OH249846   2.008   5.288  12.364 -0.0257 -0.0682  0.6672
 9452TIP3    H149847   1.919   5.281  12.398 -0.3369 -0.2489 -0.1783
 9452TIP3    H249848   2.032   5.379  12.380 -0.2845 -0.0671  1.0772
 9453TIP3   OH249849   5.430   4.570   1.041 -0.6476 -1.0366 -0.2604
 9453TIP3    H149850   5.517   4.558   1.003 -0.4576  0.4946 -0.3644
 9453TIP3    H249851   5.400   4.481   1.061  0.1447 -1.7214 -1.9645
 9454TIP3   OH249852   1.443   2.583   2.938  0.4860 -0.6038  0.0935
 9454TIP3    H149853   1.361   2.543   2.907 -0.2491  1.3056 -0.5792
 9454TIP3    H249854   1.470   2.528   3.012 -3.5392  0.8333  2.9909
 9455TIP3   OH249855   4.057   1.805   2.019  0.1851  0.2627 -0.1045
 9455TIP3    H149856   4.131   1.776   1.965 -0.4083 -1.7569  0.0892
 9455TIP3    H249857   3.979   1.775   1.971 -0.3667 -3.4194  2.5920
 9456TIP3   OH249858   3.760   2.811  14.621 -0.2854 -0.0614 -0.2430
 9456TIP3    H149859   3.755   2.736  14.562  1.4941 -0.5621  0.1782
 9456TIP3    H249860   3.847   2.804  14.660 -0.4516  1.7157  0.5018
 9457TIP3   OH249861   4.017   5.731  14.164 -0.0198  0.5427  0.0277
 9457TIP3    H149862   4.104   5.741  14.127  0.4306  0.4661  1.0242
 9457TIP3    H249863   3.958   5.765  14.098  0.4218 -2.6346 -2.2433
 9458TIP3   OH249864   4.188   0.126  12.841  0.3466 -0.0535  0.2551
 9458TIP3    H149865   4.273   0.080  12.844 -0.2383 -1.1188  1.1395
 9458TIP3    H249866   4.199   0.191  12.771  1.7117 -0.5353 -0.0172
 9459TIP3   OH249867   0.795   4.169   2.375  0.3828 -0.3187 -0.0912
 9459TIP3    H149868   0.887   4.172   2.400  0.3403  1.1316 -0.0373
 9459TIP3    H249869   0.748   4.148   2.456  0.5499  0.4446  0.2047
 9460TIP3   OH249870   2.747   2.310  16.731  0.5027 -0.3588  0.0308
 9460TIP3    H149871   2.654   2.333  16.725  0.7455  0.2475 -3.0227
 9460TIP3    H249872   2.749   2.215  16.722  0.2112 -0.3310 -0.3318
 9461TIP3   OH249873   1.741   0.953  14.607  0.2239  0.7209  0.3338
 9461TIP3    H149874   1.783   0.924  14.526 -1.4660 -1.0714  0.0188
 9461TIP3    H249875   1.758   0.882  14.670  0.5789  1.5798  1.2346
 9462TIP3   OH249876   6.398   5.742  11.379 -0.0302  0.5120  0.5044
 9462TIP3    H149877   6.399   5.722  11.472 -1.3310 -1.1598  0.2171
 9462TIP3    H249878   6.463   5.683  11.341 -1.2549 -0.6189  0.0884
 9463TIP3   OH249879   4.887   0.777  12.994  0.3187 -0.5562  0.1850
 9463TIP3    H149880   4.973   0.752  13.029  0.6041 -1.6810 -1.2658
 9463TIP3    H249881   4.839   0.695  12.985 -0.7269  0.0035  0.4388
 9464TIP3   OH249882   6.152   4.553  15.803 -0.0042 -0.8471 -0.6426
 9464TIP3    H149883   6.225   4.598  15.761  0.5572 -1.6626 -0.5519
 9464TIP3    H249884   6.082   4.555  15.737  0.1665 -0.2709 -0.8165
 9465TIP3   OH249885   3.267   4.108   1.181 -0.5339 -0.3089  0.2485
 9465TIP3    H149886   3.307   4.154   1.255  1.0621  1.4475 -1.5784
 9465TIP3    H249887   3.173   4.113   1.198 -0.2390  0.5233  1.8835
 9466TIP3   OH249888   6.032   0.049   0.147 -0.5220  0.4609 -0.4249
 9466TIP3    H149889   6.052   0.142   0.144  1.3299  0.1895  1.2458
 9466TIP3    H249890   5.958   0.042   0.208 -0.0215  0.7635  0.2257
 9467TIP3   OH249891   1.932   2.418  13.784  0.1742 -0.1191  0.4554
 9467TIP3    H149892   1.839   2.422  13.806  0.2090  0.2368  0.5510
 9467TIP3    H249893   1.976   2.407  13.868 -0.0039 -5.7647  0.1893
 9468TIP3   OH249894   3.898   1.105  12.573 -0.0013  0.1134 -0.1492
 9468TIP3    H149895   3.960   1.077  12.641 -0.4131  1.7744  0.9680
 9468TIP3    H249896   3.867   1.023  12.535  3.5153 -0.8291 -1.4311
 9469TIP3   OH249897   6.777   1.637   3.755 -0.4698 -0.0586  0.1781
 9469TIP3    H149898   6.724   1.659   3.678  0.3570  0.3222 -0.2997
 9469TIP3    H249899   6.806   1.722   3.788 -0.9765 -0.2103  1.0294
 9470TIP3   OH249900   2.221   2.762  15.403 -0.5386  0.3225 -0.6015
 9470TIP3    H149901   2.203   2.741  15.494 -1.3946  0.6591 -0.6814
 9470TIP3    H249902   2.283   2.695  15.374 -3.2490 -2.2922 -0.9019
 9471TIP3   OH249903   1.237   1.504  11.390  0.3157 -0.5289 -0.4089
 9471TIP3    H149904   1.266   1.425  11.437 -0.5210 -0.0224  1.0254
 9471TIP3    H249905   1.198   1.471  11.309  1.1381 -1.4858 -0.4397
 9472TIP3   OH249906   4.067   5.905  12.785  0.3834  0.2035  0.3392
 9472TIP3    H149907   4.041   5.813  12.791 -1.4884  0.6741  0.2994
 9472TIP3    H249908   4.128   5.918  12.858  1.5579 -1.3054 -0.3293
 9473TIP3   OH249909   5.662   0.474  14.772  0.0858 -0.0761  0.1393
 9473TIP3    H149910   5.663   0.445  14.680 -0.0350  0.9168 -0.1809
 9473TIP3    H249911   5.753   0.497  14.790  0.2010 -0.7361  0.4291
 9474TIP3   OH249912   0.029   0.704  10.784  0.1199 -0.1446  0.0498
 9474TIP3    H149913   0.104   0.744  10.829  0.5860 -1.2012  0.2299
 9474TIP3    H249914  -0.022   0.663  10.853 -0.2249 -0.0800 -0.1614
 9475TIP3   OH249915   5.878   4.048   5.871  0.3378  0.1481  0.4317
 9475TIP3    H149916   5.885   4.138   5.838  0.3410  0.3639  1.0021
 9475TIP3    H249917   5.940   3.998   5.819 -2.0816 -0.2600 -2.3260
 9476TIP3   OH249918   0.519   5.636  16.097 -0.4328  0.5280  0.4359
 9476TIP3    H149919   0.466   5.711  16.073  0.8606  0.8602 -1.6783
 9476TIP3    H249920   0.482   5.563  16.047 -1.8495 -0.3709  2.6773
 9477TIP3   OH249921   4.483   2.154   5.376 -0.4860  0.0134 -0.0701
 9477TIP3    H149922   4.447   2.191   5.296  0.5784  3.1016  0.7290
 9477TIP3    H249923   4.518   2.230   5.424  0.0456 -1.8463  2.7361
 9478TIP3   OH249924   5.962   1.861  13.238  0.0576 -0.1346  0.1773
 9478TIP3    H149925   5.967   1.931  13.173  1.0490 -0.4013 -0.0388
 9478TIP3    H249926   5.869   1.839  13.242 -0.1568  0.6386 -0.3400
 9479TIP3   OH249927   1.255   5.027   3.174  0.0347 -0.1705  0.0364
 9479TIP3    H149928   1.248   5.100   3.235 -2.5337 -0.0113 -0.3215
 9479TIP3    H249929   1.274   4.951   3.230 -1.7745  0.0574  1.0442
 9480TIP3   OH249930   6.138   5.680   0.406 -0.5592  0.0065  0.3644
 9480TIP3    H149931   6.219   5.628   0.411 -0.6093  0.0326  2.2157
 9480TIP3    H249932   6.103   5.676   0.495 -0.4629  3.3632  0.6536
 9481TIP3   OH249933   4.637   5.069   0.241  0.3090 -0.0702 -0.3956
 9481TIP3    H149934   4.583   4.990   0.242  2.6680 -1.8038  0.7059
 9481TIP3    H249935   4.680   5.069   0.327  0.8433  2.0783 -0.6275
 9482TIP3   OH249936   4.608   6.286  16.051 -0.1300 -0.2312  0.1245
 9482TIP3    H149937   4.557   6.224  15.999  0.2805 -1.3412  1.0054
 9482TIP3    H249938   4.676   6.316  15.991  0.9532 -2.2613  0.2413
 9483TIP3   OH249939   5.683   2.330   5.564  0.0769  0.4047  0.2119
 9483TIP3    H149940   5.776   2.346   5.552  0.8403 -2.8684  0.8758
 9483TIP3    H249941   5.649   2.314   5.476  0.6683 -0.7603  0.1894
 9484TIP3   OH249942   5.194   6.450  15.572 -0.5976  0.3571  0.1638
 9484TIP3    H149943   5.138   6.415  15.641  2.0026 -0.3591  2.0489
 9484TIP3    H249944   5.240   6.523  15.613  0.3767  0.4781 -1.0687
 9485TIP3   OH249945   5.443   5.697  13.004 -0.2430 -0.1455 -0.1470
 9485TIP3    H149946   5.397   5.660  13.080 -1.3006  0.2071 -0.5989
 9485TIP3    H249947   5.433   5.792  13.014  1.0823 -0.0185  0.1605
 9486TIP3   OH249948   5.714   6.474  11.530  0.3829 -0.4964  0.2179
 9486TIP3    H149949   5.745   6.528  11.457 -0.9766 -2.5555 -2.0490
 9486TIP3    H249950   5.677   6.537  11.592  1.3496  1.3425 -0.9727
 9487TIP3   OH249951   3.404   1.061  14.490 -0.0210 -0.0357  0.3129
 9487TIP3    H149952   3.419   1.051  14.396  0.1434 -1.9531  0.5160
 9487TIP3    H249953   3.313   1.091  14.496  0.5169  1.9470 -0.4908
 9488TIP3   OH249954   1.729   3.733  10.949  0.6573 -0.2549  0.3609
 9488TIP3    H149955   1.713   3.778  10.866 -1.3143  0.1254  0.8906
 9488TIP3    H249956   1.671   3.657  10.947  1.2525 -0.7384  1.0183
 9489TIP3   OH249957   4.251   6.462  13.256  0.1328  0.4320  0.3150
 9489TIP3    H149958   4.250   6.468  13.352 -0.1487  0.4404  0.3147
 9489TIP3    H249959   4.258   6.368  13.238 -2.2333  0.1775  0.3694
 9490TIP3   OH249960   2.128   3.434  15.154 -0.0732 -0.0363 -0.6036
 9490TIP3    H149961   2.206   3.395  15.115 -0.2849  1.7675 -3.0655
 9490TIP3    H249962   2.161   3.486  15.227  0.6595 -1.3891  0.0671
 9491TIP3   OH249963   2.640   6.309  15.294 -0.0268 -0.9781 -0.4576
 9491TIP3    H149964   2.733   6.293  15.276  0.5292  1.3947 -0.0239
 9491TIP3    H249965   2.627   6.276  15.383  0.8711  0.1652  0.1337
 9492TIP3   OH249966   6.513   5.269   4.760  0.1229 -0.4855  0.6803
 9492TIP3    H149967   6.436   5.232   4.715  0.2641 -0.8022  0.6989
 9492TIP3    H249968   6.563   5.193   4.789  2.9114 -0.5180 -3.3569
 9493TIP3   OH249969   0.847   2.723  12.988  0.6315  0.0604  0.2884
 9493TIP3    H149970   0.857   2.717  12.893  0.7455 -2.0010  0.3744
 9493TIP3    H249971   0.892   2.646  13.021  0.2240  0.5149  1.9957
 9494TIP3   OH249972   4.904   3.864  15.439 -0.4890 -0.2968 -0.1150
 9494TIP3    H149973   4.817   3.868  15.479 -1.2617  0.4502 -1.7703
 9494TIP3    H249974   4.891   3.899  15.350  1.4116 -0.6040 -0.5519
 9495TIP3   OH249975   5.227   0.234  15.925 -0.1563  0.3423 -0.3287
 9495TIP3    H149976   5.194   0.154  15.885 -0.7786  0.2943  0.2565
 9495TIP3    H249977   5.267   0.283  15.853  1.5971 -1.1499 -0.4558
 9496TIP3   OH249978   1.923   1.718  16.929  0.2430  0.0655  0.4193
 9496TIP3    H149979   1.911   1.809  16.901  2.4100  0.6301  1.0933
 9496TIP3    H249980   1.896   1.717  17.021 -0.7337 -0.2450  0.1436
 9497TIP3   OH249981   3.186   5.778   3.796  0.2267  0.3027 -0.2751
 9497TIP3    H149982   3.112   5.738   3.750 -0.8835  2.0434 -0.1130
 9497TIP3    H249983   3.231   5.830   3.730  1.3054 -0.6718 -0.3493
 9498TIP3   OH249984   3.145   2.040   2.842  0.3367  0.2273 -0.0600
 9498TIP3    H149985   3.115   1.977   2.777  2.3542 -0.7747 -0.1028
 9498TIP3    H249986   3.100   2.014   2.923 -1.5285  0.9574 -0.8080
 9499TIP3   OH249987   2.808   1.934   0.211  0.3270  0.2361 -0.0430
 9499TIP3    H149988   2.783   2.026   0.212  2.0978  0.7603 -1.2495
 9499TIP3    H249989   2.901   1.934   0.232  0.5516 -1.2102 -0.9219
 9500TIP3   OH249990   5.864   2.331   1.200 -0.2745  0.0739  0.0206
 9500TIP3    H149991   5.922   2.308   1.272 -0.8227 -0.3738  0.3306
 9500TIP3    H249992   5.821   2.412   1.228 -1.0766 -0.5237  0.5578
 9501TIP3   OH249993   3.377   2.613  11.516 -0.2926 -0.0513 -0.6535
 9501TIP3    H149994   3.351   2.667  11.591  0.5694  0.5870 -0.7977
 9501TIP3    H249995   3.320   2.642  11.445 -1.2981 -0.8433 -0.1948
 9502TIP3   OH249996   5.188   5.836  14.883  0.0139 -0.9527  0.0494
 9502TIP3    H149997   5.116   5.788  14.842  0.4425 -1.3450 -0.2408
 9502TIP3    H249998   5.225   5.775  14.947 -0.6143 -0.3661  1.0028
 9503TIP3   OH249999   2.671   5.608  11.429 -0.0262 -0.0904 -0.6014
 9503TIP3    H150000   2.638   5.564  11.507  3.6234 -0.4156  0.9936
 9503TIP3    H250001   2.598   5.661  11.398 -2.0149 -0.8851  2.3113
 9504TIP3   OH250002   2.200   3.087   1.616 -0.0231 -0.0711  0.2714
 9504TIP3    H150003   2.124   3.084   1.558 -0.3399 -1.1933  0.7118
 9504TIP3    H250004   2.211   2.996   1.645  0.1857  0.4450  1.8823
 9505TIP3   OH250005   1.891   0.768  15.063 -0.1763 -0.7428 -0.2883
 9505TIP3    H150006   1.903   0.698  15.127 -0.1864 -1.5357 -1.1372
 9505TIP3    H250007   1.977   0.779  15.023 -0.1900 -0.3027 -0.1998
 9506TIP3   OH250008   5.595   0.137   0.405 -0.7087  0.1490  0.0829
 9506TIP3    H150009   5.615   0.228   0.384 -0.4613  0.2599  0.7960
 9506TIP3    H250010   5.500   0.131   0.401 -0.6737  0.0819 -1.3952
 9507TIP3   OH250011   2.657   3.373  14.954  0.0399  0.1175  0.1463
 9507TIP3    H150012   2.741   3.334  14.979 -0.4522 -0.5315  0.8354
 9507TIP3    H250013   2.591   3.314  14.991 -0.7307  0.1228 -1.1534
 9508TIP3   OH250014   4.241   5.779   0.109  0.3382  0.0219  0.4231
 9508TIP3    H150015   4.243   5.707   0.172 -0.2541  0.4497  0.9279
 9508TIP3    H250016   4.237   5.735   0.024 -1.2650 -0.5597  0.7683
 9509TIP3   OH250017   0.615   1.620   3.614 -0.3557 -0.5149  0.1484
 9509TIP3    H150018   0.650   1.691   3.561 -2.7318  0.6956  0.0392
 9509TIP3    H250019   0.555   1.663   3.675  0.0531 -2.1917  1.8465
 9510TIP3   OH250020   6.514   0.203  16.432 -0.7729  0.2503 -0.3455
 9510TIP3    H150021   6.535   0.161  16.348 -0.5911 -0.5429  0.0824
 9510TIP3    H250022   6.425   0.175  16.450  0.0579 -1.8009  0.9799
 9511TIP3   OH250023   4.773   1.922  10.876  0.2045 -0.0318 -0.1218
 9511TIP3    H150024   4.697   1.976  10.896  1.0508  1.8470 -1.6929
 9511TIP3    H250025   4.737   1.849  10.826 -0.5584  0.9425 -1.0313
 9512TIP3   OH250026   0.357   2.338   0.231  0.2232 -0.2013 -0.2884
 9512TIP3    H150027   0.293   2.307   0.296  1.2704 -2.3628 -0.1999
 9512TIP3    H250028   0.393   2.258   0.193  2.2704  0.9673 -0.9531
 9513TIP3   OH250029   1.809   2.017  15.929  0.2494  0.4997 -0.0366
 9513TIP3    H150030   1.715   1.999  15.919  0.1296  0.7864  0.5656
 9513TIP3    H250031   1.835   2.055  15.845  0.1027 -0.7263 -0.6639
 9514TIP3   OH250032   6.669   2.739  12.204  0.0193 -0.1274 -0.4939
 9514TIP3    H150033   6.691   2.818  12.254  0.1844  0.5219 -1.5553
 9514TIP3    H250034   6.692   2.666  12.262  0.2274  0.5995  0.3539
 9515TIP3   OH250035   0.696   5.003  12.296 -0.1521 -0.3098  0.4351
 9515TIP3    H150036   0.616   5.049  12.321  0.3333  0.9407 -0.2275
 9515TIP3    H250037   0.718   5.038  12.210  0.1726 -1.9057 -0.1772
 9516TIP3   OH250038   3.424   5.684  13.448  0.1625 -0.3285  0.3008
 9516TIP3    H150039   3.515   5.657  13.437 -0.3303 -1.8850 -0.1318
 9516TIP3    H250040   3.378   5.646  13.373 -0.9102  0.1637  0.6875
 9517TIP3   OH250041   1.152   4.934   5.520  0.1357 -0.6356  0.2178
 9517TIP3    H150042   1.161   4.954   5.427 -0.3850 -0.5113  0.1862
 9517TIP3    H250043   1.058   4.919   5.531 -0.3067  2.2407  1.2644
 9518TIP3   OH250044   3.720   3.839   1.970  0.2221  0.1131 -0.4540
 9518TIP3    H150045   3.644   3.860   2.024 -0.2056 -1.7149 -0.2823
 9518TIP3    H250046   3.745   3.751   1.997  1.0732 -0.1574 -2.0049
 9519TIP3   OH250047   1.965   2.877   3.233 -0.4713 -0.9184 -0.2831
 9519TIP3    H150048   1.870   2.885   3.235 -0.3857  0.1068 -0.1350
 9519TIP3    H250049   1.989   2.860   3.324 -0.6487 -3.2099 -0.5862
 9520TIP3   OH250050   3.085   2.148  16.643  0.7425  0.1646 -0.0464
 9520TIP3    H150051   3.158   2.090  16.663  0.6834  0.2231  0.3525
 9520TIP3    H250052   3.079   2.148  16.547 -0.7481 -2.3707 -0.0580
 9521TIP3   OH250053   2.960   1.921  14.066  0.5358  0.4258  0.4891
 9521TIP3    H150054   2.991   1.848  14.013 -1.8730 -0.6227  0.3624
 9521TIP3    H250055   2.864   1.914  14.062  0.2351  2.8693  1.4986
 9522TIP3   OH250056   5.675   1.437  11.442  0.3126 -0.0224  0.3853
 9522TIP3    H150057   5.742   1.368  11.442 -0.8758 -1.2564 -1.2029
 9522TIP3    H250058   5.621   1.418  11.518 -0.4593 -1.3619 -0.4648
 9523TIP3   OH250059   6.277   2.985  17.027  0.0080 -0.9584 -0.0755
 9523TIP3    H150060   6.328   2.911  16.993 -0.6940 -0.7808 -1.5445
 9523TIP3    H250061   6.264   3.042  16.952 -0.2071  0.2530  0.8582
 9524TIP3   OH250062   2.162   3.999  14.409  0.0666 -0.0469  0.7094
 9524TIP3    H150063   2.189   3.913  14.441 -0.6147  0.4210  2.6779
 9524TIP3    H250064   2.111   3.981  14.330  2.5504 -1.2106 -0.7409
 9525TIP3   OH250065   5.668   1.164  10.560 -0.4861 -0.3172 -0.4524
 9525TIP3    H150066   5.586   1.189  10.518  0.7171  0.1935 -2.6523
 9525TIP3    H250067   5.691   1.080  10.520  0.0902 -0.4347  0.1015
 9526TIP3   OH250068   6.458   2.434   3.673  0.0537 -0.2265 -0.1562
 9526TIP3    H150069   6.467   2.457   3.766 -0.9054  0.8067 -0.2976
 9526TIP3    H250070   6.519   2.361   3.661  0.0606 -0.5107  1.3280
 9527TIP3   OH250071   6.649   4.502  10.856 -0.4538 -0.6375  0.1852
 9527TIP3    H150072   6.602   4.571  10.808  0.0002  0.2401  0.9801
 9527TIP3    H250073   6.580   4.446  10.891 -0.8560 -0.2285  0.0559
 9528TIP3   OH250074   4.049   0.050   3.722 -0.3526  0.0318  0.3470
 9528TIP3    H150075   3.980   0.049   3.788 -1.0008 -0.5841 -0.3159
 9528TIP3    H250076   4.006   0.018   3.642  1.2709 -2.7858  0.4923
 9529TIP3   OH250077   4.282   2.583   3.627  0.0575 -0.0275 -0.0614
 9529TIP3    H150078   4.257   2.632   3.705  3.2477 -0.7179  1.5513
 9529TIP3    H250079   4.335   2.644   3.576 -1.0780  0.0587 -1.1940
 9530TIP3   OH250080   4.676   2.302   0.948 -0.2742 -0.3206 -0.1024
 9530TIP3    H150081   4.752   2.254   0.982  0.1078 -0.1325 -0.6777
 9530TIP3    H250082   4.689   2.304   0.853 -2.5122 -2.9177 -0.5949
 9531TIP3   OH250083   4.765   0.302  13.687  0.6261  0.0644 -0.8730
 9531TIP3    H150084   4.729   0.361  13.754 -2.5312 -1.9551 -0.5577
 9531TIP3    H250085   4.741   0.343  13.604 -0.2027  0.0235 -0.6698
 9532TIP3   OH250086   3.820   1.351  14.922  0.3668 -0.2491  0.0736
 9532TIP3    H150087   3.749   1.292  14.896  0.2517  0.0212 -0.2307
 9532TIP3    H250088   3.863   1.306  14.995  0.5597 -0.9236 -0.4378
 9533TIP3   OH250089   1.444   6.106  11.578 -0.1885  0.3277 -0.9531
 9533TIP3    H150090   1.470   6.101  11.486 -1.8038 -2.0691 -1.3546
 9533TIP3    H250091   1.445   6.015  11.609 -1.5696  0.8598  0.8451
 9534TIP3   OH250092   4.000   1.112   3.133  0.0094 -0.2807 -0.5000
 9534TIP3    H150093   4.065   1.087   3.198  0.6147  1.0325 -0.5611
 9534TIP3    H250094   4.034   1.194   3.096 -0.7845 -0.5116 -1.8019
 9535TIP3   OH250095   5.124   4.391  14.392  0.1102 -0.4406 -0.6154
 9535TIP3    H150096   5.134   4.460  14.327  0.5380 -0.6266 -0.7493
 9535TIP3    H250097   5.129   4.310  14.342 -0.7855 -0.5678 -0.5092
 9536TIP3   OH250098   6.565   6.086   4.694 -0.2637 -0.1247 -0.0482
 9536TIP3    H150099   6.558   6.179   4.715 -1.2397 -0.3247  0.5653
 9536TIP3    H250100   6.498   6.071   4.628  0.0899 -0.3452 -0.3656
 9537TIP3   OH250101   2.092   5.990  13.380  0.5265  0.2113 -0.3697
 9537TIP3    H150102   2.089   6.016  13.472  2.6138  2.3076 -0.8181
 9537TIP3    H250103   2.015   6.032  13.341  0.9315  1.3113 -0.0209
 9538TIP3   OH250104   5.320   0.804  14.985 -0.4545  0.5421  0.0124
 9538TIP3    H150105   5.282   0.740  15.045  0.5812  0.1283  0.2545
 9538TIP3    H250106   5.364   0.867  15.041  0.4093  0.2281 -0.2885
 9539TIP3   OH250107   5.427   0.224  10.683  0.0768 -0.3680 -0.7030
 9539TIP3    H150108   5.429   0.319  10.698 -0.2284 -0.5302  0.4758
 9539TIP3    H250109   5.388   0.214  10.597  0.6866  0.5995 -1.1116
 9540TIP3   OH250110   0.080   3.669  11.626  0.0979 -0.1633  0.3458
 9540TIP3    H150111   0.103   3.579  11.604  1.6541  0.0339  1.0015
 9540TIP3    H250112  -0.015   3.671  11.626  0.0176 -2.0874  1.3510
 9541TIP3   OH250113   0.333   4.344  12.984 -0.3153  0.5227 -0.5997
 9541TIP3    H150114   0.381   4.405  13.041  1.3606  2.3553 -3.7236
 9541TIP3    H250115   0.397   4.277  12.961 -0.2242  1.0667 -2.0508
 9542TIP3   OH250116   4.226   3.322  16.537 -0.3275 -0.4057 -0.8509
 9542TIP3    H150117   4.213   3.360  16.450 -0.9674 -2.8068 -1.8672
 9542TIP3    H250118   4.301   3.264  16.528  0.4197  0.2664  0.5835
 9543TIP3   OH250119   2.848   3.340  14.348 -1.0557  0.7995 -0.5259
 9543TIP3    H150120   2.885   3.428  14.339 -1.4552  1.0006 -0.2271
 9543TIP3    H250121   2.925   3.282  14.352 -0.8030  1.0219 -1.7712
 9544TIP3   OH250122   1.674   5.050   1.503 -0.0792  0.0414  0.4794
 9544TIP3    H150123   1.622   5.091   1.434  0.9216  0.3995 -0.0951
 9544TIP3    H250124   1.667   5.109   1.578 -1.4436 -0.5175  0.8133
 9545TIP3   OH250125   6.223   3.323   2.055 -0.6519  0.0523 -0.2702
 9545TIP3    H150126   6.239   3.247   1.998 -0.1500  0.2788 -0.4391
 9545TIP3    H250127   6.130   3.317   2.078 -0.7083 -0.3939 -0.6049
 9546TIP3   OH250128   1.971   3.100  11.572  0.6727 -0.2196 -0.5803
 9546TIP3    H150129   1.980   3.005  11.565 -0.7369 -0.4745  0.5022
 9546TIP3    H250130   2.009   3.121  11.658  2.4580  0.4517 -1.4916
 9547TIP3   OH250131   6.166   5.960  13.043  0.2832  0.1418 -0.3367
 9547TIP3    H150132   6.125   5.876  13.023 -0.6491  0.7543 -1.0815
 9547TIP3    H250133   6.121   6.022  12.986 -0.3439  1.4829  1.5379
 9548TIP3   OH250134   5.953   5.780   0.775 -0.3595  0.0066  0.4885
 9548TIP3    H150135   5.935   5.732   0.694 -0.7464  1.5940 -0.3924
 9548TIP3    H250136   6.042   5.814   0.763  0.6793 -1.9914  1.9110
 9549TIP3   OH250137   4.598   6.377   0.779 -0.1711 -0.4869  0.0885
 9549TIP3    H150138   4.510   6.338   0.775 -0.9620  1.3035 -1.0242
 9549TIP3    H250139   4.582   6.471   0.780  1.7607 -0.1156 -0.7049
 9550TIP3   OH250140   4.890   4.398   5.668  0.5637  0.2341  0.6041
 9550TIP3    H150141   4.885   4.493   5.676  2.0265  0.4430 -0.4924
 9550TIP3    H250142   4.983   4.379   5.667  0.4677 -0.7916 -2.9233
 9551TIP3   OH250143   2.051   5.275   0.132  0.3023 -0.3978  0.7017
 9551TIP3    H150144   2.031   5.231   0.215 -1.6634 -0.4716  0.2400
 9551TIP3    H250145   2.022   5.365   0.145 -0.4067 -0.5090 -0.0145
 9552TIP3   OH250146   6.295   1.189  14.378  0.0743 -0.2089  0.0799
 9552TIP3    H150147   6.353   1.118  14.350 -0.0063 -0.8751  1.4755
 9552TIP3    H250148   6.308   1.258  14.314 -0.5031 -1.8148 -1.8436
 9553TIP3   OH250149   0.652   3.451  12.845 -0.5012 -0.1849  0.1439
 9553TIP3    H150150   0.704   3.371  12.853 -0.0269  0.0373 -0.5907
 9553TIP3    H250151   0.678   3.488  12.760  0.4691  1.5603  1.1465
 9554TIP3   OH250152   0.513   3.336   4.666  0.3557  0.1920  0.0231
 9554TIP3    H150153   0.526   3.330   4.760  1.7971 -0.9541 -0.2189
 9554TIP3    H250154   0.587   3.290   4.628  0.4602  1.6579 -1.7147
 9555TIP3   OH250155   4.781   2.848   5.838 -0.0564 -0.1243 -0.8256
 9555TIP3    H150156   4.873   2.834   5.816  0.0741 -0.3179 -0.1669
 9555TIP3    H250157   4.775   2.940   5.861 -0.1617  0.0418 -1.4998
 9556TIP3   OH250158   6.571   2.525  16.199  0.3109 -0.0895  0.1974
 9556TIP3    H150159   6.528   2.562  16.121  1.3480  1.0477  0.1370
 9556TIP3    H250160   6.660   2.559  16.195  0.5228 -0.4360  1.6187
 9557TIP3   OH250161   0.349   5.660   6.697 -0.5576 -0.0116 -0.2418
 9557TIP3    H150162   0.308   5.680   6.613 -2.3606  1.0724  0.8450
 9557TIP3    H250163   0.284   5.685   6.763  2.0577  2.5184  1.6417
 9558TIP3   OH250164   2.203   3.441   2.751 -0.2208 -0.2826  0.0153
 9558TIP3    H150165   2.290   3.456   2.789  0.0284 -1.0800 -0.2192
 9558TIP3    H250166   2.159   3.383   2.813 -0.3685 -0.3636 -0.1632
 9559TIP3   OH250167   5.811   2.337   1.606 -0.0069 -1.0385 -0.5638
 9559TIP3    H150168   5.859   2.326   1.688  0.0191 -0.9816 -0.5713
 9559TIP3    H250169   5.750   2.408   1.624  1.0794  0.0664 -1.0753
 9560TIP3   OH250170   6.476   5.982   3.529 -0.1153  0.0348  0.1641
 9560TIP3    H150171   6.430   6.003   3.610 -2.5169  2.1028 -1.6009
 9560TIP3    H250172   6.548   6.046   3.525 -0.3190  0.2778  0.3842
 9561TIP3   OH250173   3.008   2.370   4.838  0.0035  0.1048 -0.0436
 9561TIP3    H150174   3.016   2.284   4.880 -1.6264 -0.6002 -1.0971
 9561TIP3    H250175   2.988   2.430   4.910  2.0068 -0.2020  0.8266
 9562TIP3   OH250176   2.742   0.122  17.108  0.0309  0.9608  0.4373
 9562TIP3    H150177   2.766   0.151  17.196 -0.7932  1.4259  0.5219
 9562TIP3    H250178   2.824   0.119  17.060  0.2515  2.7956  0.6299
 9563TIP3   OH250179   1.576   4.759   4.477  0.0139 -0.1859  0.2531
 9563TIP3    H150180   1.499   4.770   4.421 -0.2212 -1.0000  0.3960
 9563TIP3    H250181   1.650   4.785   4.423 -0.3572  0.5374  0.0904
 9564TIP3   OH250182   3.834   4.496  11.306  0.4318 -0.2525  0.1301
 9564TIP3    H150183   3.751   4.478  11.348  0.0844  2.5812  0.8814
 9564TIP3    H250184   3.900   4.480  11.373  0.1800  0.7324  0.6268
 9565TIP3   OH250185   1.480   6.615   1.682 -0.5696 -0.4711  0.3965
 9565TIP3    H150186   1.455   6.524   1.697 -0.9601 -0.2318  1.2367
 9565TIP3    H250187   1.446   6.663   1.758 -0.9542  0.4846 -0.3493
 9566TIP3   OH250188   3.315   5.456   2.787  0.3653  0.3213  0.0079
 9566TIP3    H150189   3.222   5.451   2.810  0.5606 -0.9416  0.6317
 9566TIP3    H250190   3.338   5.548   2.800 -0.5484  0.4457  0.8588
 9567TIP3   OH250191   2.274   5.755  13.275  0.5830 -0.6331 -0.0177
 9567TIP3    H150192   2.318   5.712  13.349  1.6368  0.9217  0.3037
 9567TIP3    H250193   2.223   5.825  13.316  1.3830  0.4108 -0.7717
 9568TIP3   OH250194   1.154   2.408   2.604 -0.4344 -0.2604  0.2955
 9568TIP3    H150195   1.216   2.362   2.661  1.6357  0.0456 -1.5563
 9568TIP3    H250196   1.131   2.343   2.537 -0.4789  0.2549 -0.1960
 9569TIP3   OH250197   1.006   5.150  14.131 -0.4459  0.2428 -0.1920
 9569TIP3    H150198   0.911   5.146  14.136 -0.3732 -0.2388  1.3062
 9569TIP3    H250199   1.032   5.208  14.202  0.4086  0.0849 -0.3587
 9570TIP3   OH250200   3.907   0.887   0.697 -0.2025  0.6793  0.1771
 9570TIP3    H150201   3.945   0.947   0.761  0.6896  0.8788 -0.5105
 9570TIP3    H250202   3.814   0.886   0.717  0.0699  0.6646  1.5265
 9571TIP3   OH250203   4.710   5.550  15.835 -0.0466  0.7670  0.0789
 9571TIP3    H150204   4.633   5.504  15.802  1.4196 -1.0100 -1.0724
 9571TIP3    H250205   4.737   5.499  15.911  1.6254 -0.4749 -1.2429
 9572TIP3   OH250206   3.167   5.123  10.935  1.0147  0.0232  0.2088
 9572TIP3    H150207   3.261   5.130  10.954  0.7237 -0.8487  2.1967
 9572TIP3    H250208   3.124   5.140  11.018 -0.6294  0.6218 -0.7238
 9573TIP3   OH250209   6.105   1.861   2.144 -0.3002  0.1733 -0.0098
 9573TIP3    H150210   6.067   1.792   2.090 -1.8741  1.0612 -0.0941
 9573TIP3    H250211   6.104   1.825   2.233  0.0282 -0.3666 -0.2208
 9574TIP3   OH250212   4.343   0.229  16.076 -0.2040 -0.2457 -0.2085
 9574TIP3    H150213   4.432   0.264  16.068 -0.1825  0.0361  0.9838
 9574TIP3    H250214   4.327   0.228  16.171 -1.4343 -0.3975 -0.4068
 9575TIP3   OH250215   3.548   1.914   1.645  0.1414  0.2910 -0.6655
 9575TIP3    H150216   3.465   1.959   1.630 -0.7581 -1.2425 -0.5395
 9575TIP3    H250217   3.613   1.984   1.656 -1.0267  1.5107 -1.3383
 9576TIP3   OH250218   2.606   1.218  17.129 -0.1926 -0.0570 -0.0340
 9576TIP3    H150219   2.672   1.216  17.060 -0.5085 -1.2766 -0.3312
 9576TIP3    H250220   2.626   1.296  17.179  0.2118  0.7184 -1.3475
 9577TIP3   OH250221   3.041   0.907  13.044 -0.0150  0.5414 -0.2078
 9577TIP3    H150222   2.973   0.841  13.056 -1.1406  1.9376  1.6580
 9577TIP3    H250223   3.100   0.894  13.119  0.4203  0.8728 -0.4895
 9578TIP3   OH250224   4.616   5.039   4.499  1.2633  0.4197  0.0930
 9578TIP3    H150225   4.536   5.030   4.448  1.1257  0.1496  0.3586
 9578TIP3    H250226   4.590   5.020   4.589  2.0368 -1.7210 -0.0807
 9579TIP3   OH250227   1.562   4.015   4.013  0.2759 -0.0876  0.0436
 9579TIP3    H150228   1.526   4.017   3.924  0.3266  0.3918  0.0309
 9579TIP3    H250229   1.656   4.023   4.001  0.4734 -2.1121  0.0362
 9580TIP3   OH250230   5.775   2.473   2.492  0.2050  0.3104  0.4586
 9580TIP3    H150231   5.748   2.385   2.465 -0.1735  0.1983  1.1704
 9580TIP3    H250232   5.751   2.529   2.418 -1.0393  0.0521  0.6441
 9581TIP3   OH250233   4.989   1.624   1.017  0.0882 -0.3935 -0.2214
 9581TIP3    H150234   4.970   1.712   0.985 -0.0762 -0.0374  0.8158
 9581TIP3    H250235   4.956   1.566   0.948 -0.2939  0.3360 -0.6698
 9582TIP3   OH250236   6.380   4.909  15.573  0.3830  0.4327 -0.5636
 9582TIP3    H150237   6.297   4.954  15.559  1.8437  2.4727 -4.1713
 9582TIP3    H250238   6.429   4.965  15.633  0.0440  0.5678 -0.4163
 9583TIP3   OH250239   3.936   6.751  16.076  0.7044  0.3755  0.1753
 9583TIP3    H150240   3.887   6.686  16.027 -1.7940  1.7914  0.6115
 9583TIP3    H250241   3.993   6.793  16.012  0.7272 -0.7388 -0.5485
 9584TIP3   OH250242   0.924   6.474   6.300 -0.1150 -0.0420  0.0325
 9584TIP3    H150243   1.006   6.472   6.251 -0.2014 -0.7697 -0.0881
 9584TIP3    H250244   0.892   6.384   6.297 -0.2158 -0.0637  1.2725
 9585TIP3   OH250245   3.507   1.486   0.534  0.0741  0.4131  0.1085
 9585TIP3    H150246   3.421   1.497   0.576 -0.2870  0.7677 -0.7082
 9585TIP3    H250247   3.550   1.418   0.586  0.1729  1.7484  1.8764
 9586TIP3   OH250248   0.960   1.631  13.028  0.3539  0.3283  0.6499
 9586TIP3    H150249   0.878   1.583  13.019  0.0767  0.9347 -0.2550
 9586TIP3    H250250   1.005   1.589  13.101  0.7427 -2.1702 -0.9362
 9587TIP3   OH250251   4.614   0.807  15.029 -0.1764  0.3970  0.1194
 9587TIP3    H150252   4.641   0.898  15.015 -3.1847  1.5763  1.1344
 9587TIP3    H250253   4.571   0.782  14.947 -0.5999  0.3982  0.3381
 9588TIP3   OH250254   5.296   6.641   2.566  0.1293 -0.5066  0.3615
 9588TIP3    H150255   5.377   6.599   2.597  0.1024 -1.0561 -0.3008
 9588TIP3    H250256   5.296   6.727   2.609  0.8849 -0.6408  0.6458
 9589TIP3   OH250257   0.881   4.453  12.540  0.1109 -0.2179 -0.0372
 9589TIP3    H150258   0.937   4.459  12.618  0.6141 -1.0882 -0.3073
 9589TIP3    H250259   0.795   4.429  12.574 -0.0140  0.7523  0.3550
 9590TIP3   OH250260   5.008   2.054  12.582 -0.0042  0.2693 -0.2590
 9590TIP3    H150261   4.931   2.112  12.576 -0.3783 -0.2334 -0.4027
 9590TIP3    H250262   5.068   2.100  12.639 -0.0095  1.1339 -0.9214
 9591TIP3   OH250263   5.879   3.315  13.079  0.2247  0.4942 -0.3818
 9591TIP3    H150264   5.933   3.300  13.001  1.9650  1.0049  0.6654
 9591TIP3    H250265   5.840   3.230  13.098  0.3374  0.1977 -1.3978
 9592TIP3   OH250266   0.722   0.424   0.528 -0.4555  0.1749 -0.2223
 9592TIP3    H150267   0.730   0.328   0.522  4.7755  0.4167 -4.3589
 9592TIP3    H250268   0.673   0.449   0.450  0.1877  0.9121 -0.3997
 9593TIP3   OH250269   3.757   4.334   6.164  0.0481 -0.0074  0.2629
 9593TIP3    H150270   3.694   4.371   6.226 -0.5898  0.1156 -0.4553
 9593TIP3    H250271   3.731   4.369   6.079  1.2803  0.3125 -0.0073
 9594TIP3   OH250272   0.311   6.620  14.724 -0.0921  0.0527 -0.3965
 9594TIP3    H150273   0.283   6.534  14.756 -0.3424 -0.5195 -2.0646
 9594TIP3    H250274   0.401   6.629  14.756 -0.1076 -0.7764 -0.0946
 9595TIP3   OH250275   0.999   1.612   0.181  0.4228 -0.0294  0.3857
 9595TIP3    H150276   0.932   1.550   0.210 -0.0388 -0.3030 -1.1772
 9595TIP3    H250277   0.952   1.694   0.168  0.3617 -0.2453 -0.8035
 9596TIP3   OH250278   3.918   4.987   1.237  0.2280  0.2335  0.0677
 9596TIP3    H150279   3.988   5.049   1.217 -0.2385  1.5736  2.3065
 9596TIP3    H250280   3.951   4.935   1.310 -0.4076 -0.4095 -0.0838
 9597TIP3   OH250281   6.240   5.373   5.159 -0.3096  0.0651 -0.1970
 9597TIP3    H150282   6.224   5.460   5.122  1.1607  0.5297  0.1671
 9597TIP3    H250283   6.335   5.369   5.169 -0.4502 -1.1016  0.9612
 9598TIP3   OH250284   1.254   6.322   3.926  0.2913 -0.4148  0.6943
 9598TIP3    H150285   1.347   6.344   3.930  0.3244 -0.5882  0.8996
 9598TIP3    H250286   1.209   6.406   3.918  0.6342 -0.4134 -2.7555
 9599TIP3   OH250287   4.473   1.041  12.391  0.5617 -0.1571 -0.1018
 9599TIP3    H150288   4.521   1.097  12.329 -0.8736 -0.2827 -1.3796
 9599TIP3    H250289   4.397   1.094  12.417  0.4199 -0.6379  0.4872
 9600TIP3   OH250290   6.841   6.099   1.664  0.3676  0.0154  0.7728
 9600TIP3    H150291   6.898   6.166   1.702  1.2182  1.5742 -2.8761
 9600TIP3    H250292   6.902   6.040   1.619 -0.6776  0.4066 -1.2585
 9601TIP3   OH250293   1.227   0.880  14.675  0.2395 -0.1521 -0.3226
 9601TIP3    H150294   1.227   0.909  14.766  3.8481 -2.2081  0.5269
 9601TIP3    H250295   1.305   0.919  14.637  0.0913 -1.2370 -1.8577
 9602TIP3   OH250296   6.105   3.571  13.119 -0.0392  0.7856 -0.4772
 9602TIP3    H150297   6.089   3.484  13.081  0.8174  0.6188 -0.4643
 9602TIP3    H250298   6.184   3.561  13.171  2.4800  2.4317 -3.5793
 9603TIP3   OH250299   4.492   2.849   2.710 -0.4283 -0.5191 -0.0593
 9603TIP3    H150300   4.420   2.844   2.648 -0.6388  0.1460  0.1260
 9603TIP3    H250301   4.470   2.922   2.767 -0.6765 -1.6453  1.3583
 9604TIP3   OH250302   1.734   0.097   5.010  0.3145  0.1687 -0.6832
 9604TIP3    H150303   1.667   0.161   4.984 -1.7093 -1.3530  0.4598
 9604TIP3    H250304   1.744   0.110   5.104 -1.6204 -2.3603 -0.0080
 9605TIP3   OH250305   4.919   4.069  15.699 -0.0965 -0.2207  0.1049
 9605TIP3    H150306   4.914   4.090  15.605  0.4547 -0.6654 -0.0311
 9605TIP3    H250307   4.934   3.975  15.701 -1.6250 -0.4871  0.6840
 9606TIP3   OH250308   6.036   2.859  12.841 -1.0214 -0.1807  0.2746
 9606TIP3    H150309   6.117   2.878  12.889 -1.2439  0.7500  0.2843
 9606TIP3    H250310   6.048   2.899  12.756  0.1983 -3.4697 -1.3036
 9607TIP3   OH250311   4.194   6.248   5.723 -0.1318  0.3406  0.0967
 9607TIP3    H150312   4.203   6.195   5.803  1.1074  0.9499  0.3896
 9607TIP3    H250313   4.231   6.193   5.654  1.4770  0.8884  0.4578
 9608TIP3   OH250314   0.657   1.121   2.884 -0.6810 -0.3953  0.3255
 9608TIP3    H150315   0.744   1.155   2.905 -0.9683 -0.0750  1.0121
 9608TIP3    H250316   0.674   1.049   2.822  0.1001 -0.5949  0.7617
 9609TIP3   OH250317   2.521   2.021   6.409 -0.3828 -0.0388 -0.0405
 9609TIP3    H150318   2.528   2.094   6.471  1.2446 -1.4128  1.5373
 9609TIP3    H250319   2.612   1.996   6.392 -0.8776 -1.7198 -0.4555
 9610TIP3   OH250320   2.515   0.357  11.923 -0.2879 -0.0363 -0.3612
 9610TIP3    H150321   2.546   0.332  11.836  0.4990 -0.2175 -0.0437
 9610TIP3    H250322   2.440   0.414  11.907 -1.2567 -1.4602 -1.1423
 9611TIP3   OH250323   5.643   3.545  13.572 -0.3151 -0.1300  0.6435
 9611TIP3    H150324   5.714   3.514  13.517 -1.9466 -2.2135 -0.4152
 9611TIP3    H250325   5.595   3.466  13.597 -3.0179  1.2333  0.2073
 9612TIP3   OH250326   2.423   4.979  16.145 -0.1540  0.0233 -0.4538
 9612TIP3    H150327   2.371   4.898  16.142 -0.2887  0.1446 -2.4578
 9612TIP3    H250328   2.358   5.049  16.134  0.2070  0.2829 -0.9412
 9613TIP3   OH250329   5.564   2.916  14.117  0.0209 -0.5258  0.5488
 9613TIP3    H150330   5.555   3.003  14.078  0.2905 -0.2008  1.1920
 9613TIP3    H250331   5.652   2.888  14.092  0.5733  0.0963  1.7017
 9614TIP3   OH250332   4.455   6.800   2.503 -0.2095  0.0893  0.8992
 9614TIP3    H150333   4.460   6.895   2.509 -0.9696  0.3154 -1.2034
 9614TIP3    H250334   4.372   6.777   2.543 -0.8074  0.5009 -0.0868
 9615TIP3   OH250335   4.671   0.348  16.743 -0.7562  0.0947  0.0059
 9615TIP3    H150336   4.595   0.388  16.786 -2.0990 -0.3987 -1.7592
 9615TIP3    H250337   4.675   0.259  16.778 -2.1863 -0.4910 -1.2201
 9616TIP3   OH250338   0.797   0.310   3.382 -0.2250  0.9223  0.0337
 9616TIP3    H150339   0.808   0.404   3.369  0.0857  1.2461  2.1870
 9616TIP3    H250340   0.871   0.270   3.338  0.4807  1.8274  0.3686
 9617TIP3   OH250341   1.430   5.648   0.208 -0.0773 -0.4683  0.6606
 9617TIP3    H150342   1.334   5.650   0.214 -0.1718  0.1190 -0.5799
 9617TIP3    H250343   1.453   5.557   0.228 -0.9654 -0.7996  0.2691
 9618TIP3   OH250344   0.193   5.400  11.109 -0.0615  0.3506 -0.0323
 9618TIP3    H150345   0.183   5.467  11.040 -1.0387  0.4029  0.1497
 9618TIP3    H250346   0.181   5.317  11.063  1.3268  0.2708 -0.2913
 9619TIP3   OH250347   5.414   1.831  11.661  0.7319  0.1811  0.5545
 9619TIP3    H150348   5.335   1.822  11.608  1.2550  1.0691 -0.4163
 9619TIP3    H250349   5.401   1.770  11.734 -1.3223  1.0706  1.0168
 9620TIP3   OH250350   6.736   6.654  15.443 -0.0385 -0.2242 -0.2134
 9620TIP3    H150351   6.803   6.705  15.397  0.4749 -0.8288 -0.1387
 9620TIP3    H250352   6.766   6.563  15.437 -1.5132 -0.6860 -1.3598
 9621TIP3   OH250353   1.146   3.543  11.580 -0.0506 -0.7475  0.1618
 9621TIP3    H150354   1.192   3.537  11.496  0.8901  1.0364  0.5045
 9621TIP3    H250355   1.066   3.492  11.567  0.2540 -0.8280 -1.6864
 9622TIP3   OH250356   1.291   5.040  14.183 -0.4538 -0.0279  0.1845
 9622TIP3    H150357   1.248   5.118  14.148 -2.9928 -0.2073  2.5383
 9622TIP3    H250358   1.258   4.968  14.129 -0.6306  0.1771  0.0190
 9623TIP3   OH250359   5.621   1.821   4.449  0.4358  0.6233 -0.2520
 9623TIP3    H150360   5.645   1.734   4.482 -1.4654  0.7945  1.7929
 9623TIP3    H250361   5.645   1.881   4.520 -1.9151  1.2701  0.0633
 9624TIP3   OH250362   3.040   1.127  10.502  0.5042  0.4371  0.2230
 9624TIP3    H150363   3.126   1.167  10.505  0.7702 -0.1820  2.3296
 9624TIP3    H250364   3.051   1.042  10.544 -0.9407 -0.0276 -0.2771
 9625TIP3   OH250365   5.679   6.767   3.068 -0.2007  0.2588 -0.3352
 9625TIP3    H150366   5.620   6.758   2.993 -0.5167  0.6423 -0.1384
 9625TIP3    H250367   5.725   6.849   3.052 -1.4870  1.2281  0.7117
 9626TIP3   OH250368   5.947   3.629  14.329 -0.7610  0.4008 -0.7009
 9626TIP3    H150369   5.886   3.665  14.265 -2.6411 -2.2317 -0.5488
 9626TIP3    H250370   5.924   3.672  14.411 -2.6660 -0.7066 -0.5999
 9627TIP3   OH250371   5.862   1.390  12.080  0.1942 -0.1665 -0.0157
 9627TIP3    H150372   5.873   1.478  12.045 -1.1651  0.1355  0.2538
 9627TIP3    H250373   5.799   1.348  12.021  0.0471 -0.5941  0.4338
 9628TIP3   OH250374   6.766   6.250  12.057  0.0106  0.5127 -0.5836
 9628TIP3    H150375   6.828   6.314  12.091  0.6974 -0.3440 -0.1903
 9628TIP3    H250376   6.784   6.245  11.964  0.2982  0.5211 -0.5277
 9629TIP3   OH250377   6.801   6.777  13.232 -0.5477 -0.0445 -0.3356
 9629TIP3    H150378   6.871   6.834  13.201  0.3946 -0.5817  0.7054
 9629TIP3    H250379   6.834   6.689  13.219 -0.0402 -0.3092  2.1389
 9630TIP3   OH250380   2.669   1.429   4.608  0.2859 -0.4879  0.0714
 9630TIP3    H150381   2.614   1.450   4.532 -0.0016  0.3557  0.5025
 9630TIP3    H250382   2.729   1.503   4.616  2.8978 -2.2512 -1.5832
 9631TIP3   OH250383   2.396   3.720   5.321  0.1041  0.4186 -0.3424
 9631TIP3    H150384   2.340   3.765   5.384  0.1139  0.9079 -0.6737
 9631TIP3    H250385   2.360   3.745   5.236 -0.6157 -1.1376 -0.5257
 9632TIP3   OH250386   3.922   2.014  13.917  0.7656 -0.0140 -0.1370
 9632TIP3    H150387   3.962   1.954  13.980  0.1976 -1.9188 -1.4869
 9632TIP3    H250388   3.919   2.098  13.962 -0.1348 -1.3959  2.6147
 9633TIP3   OH250389   3.489   0.666   2.616  0.6912 -0.0753 -0.1933
 9633TIP3    H150390   3.515   0.731   2.551 -0.8919 -0.7887 -1.6221
 9633TIP3    H250391   3.529   0.696   2.698  1.2317  1.8436 -1.1090
 9634TIP3   OH250392   0.503   5.003  14.029 -0.1647  0.3392 -0.5028
 9634TIP3    H150393   0.506   4.943  14.103  0.1027 -0.8447 -1.4317
 9634TIP3    H250394   0.428   5.059  14.046 -1.0008 -0.8790 -0.0543
 9635TIP3   OH250395   6.382   3.671  13.576  0.1272 -0.1428 -0.3953
 9635TIP3    H150396   6.427   3.705  13.654  0.3917 -0.5407 -0.3692
 9635TIP3    H250397   6.359   3.581  13.599 -1.4217  0.3046 -0.1131
 9636TIP3   OH250398   5.646   3.450  11.372  0.0743 -0.4343  0.2726
 9636TIP3    H150399   5.597   3.376  11.409  0.1160 -0.5987  0.0077
 9636TIP3    H250400   5.641   3.436  11.277 -1.1226  0.6909  0.1569
 9637TIP3   OH250401   5.855   4.319   0.800  0.5043 -0.1353 -0.3602
 9637TIP3    H150402   5.904   4.365   0.868 -0.3480 -1.6034  1.3377
 9637TIP3    H250403   5.921   4.266   0.756  0.6429 -1.5173  1.3952
 9638TIP3   OH250404   3.322   6.107   2.261  0.2541  0.1125 -0.2434
 9638TIP3    H150405   3.308   6.166   2.334 -1.6658  0.5330 -0.8944
 9638TIP3    H250406   3.305   6.020   2.296  1.7278  0.0346  0.3679
 9639TIP3   OH250407   2.736   2.335  11.948 -0.8011  0.0403 -0.4775
 9639TIP3    H150408   2.710   2.268  12.012 -1.4667  0.9926  0.2800
 9639TIP3    H250409   2.679   2.320  11.873 -1.3895  0.1527 -0.0597
 9640TIP3   OH250410   1.495   3.055  13.232  0.2416  0.3013  0.5907
 9640TIP3    H150411   1.466   3.001  13.305 -0.0363  0.8488  0.8858
 9640TIP3    H250412   1.492   2.997  13.156  0.7171 -0.3252  1.0426
 9641TIP3   OH250413   5.921   5.449  15.241 -0.3642 -0.0446  0.2482
 9641TIP3    H150414   5.854   5.388  15.274  1.0457 -1.1826  1.1282
 9641TIP3    H250415   5.958   5.405  15.165 -1.2359  1.0258 -0.8320
 9642TIP3   OH250416   0.855   3.112   2.351  0.0137 -0.3923  0.1983
 9642TIP3    H150417   0.879   3.078   2.265  0.5424  0.8960 -0.1959
 9642TIP3    H250418   0.780   3.169   2.333 -1.1916 -1.7137  0.9129
 9643TIP3   OH250419   4.276   1.180  15.760 -0.3684  0.6112  0.0833
 9643TIP3    H150420   4.327   1.226  15.693 -0.2883  1.0817  0.4589
 9643TIP3    H250421   4.186   1.181  15.727 -0.2940  0.6479 -0.1188
 9644TIP3   OH250422   5.075   2.963  14.587  0.0928 -0.3430 -0.5570
 9644TIP3    H150423   4.982   2.948  14.604  0.3767 -1.6290 -0.0446
 9644TIP3    H250424   5.078   2.991  14.495 -0.6522 -2.0393 -1.1364
 9645TIP3   OH250425   3.545   0.567  11.133 -0.7051 -0.5446 -0.2753
 9645TIP3    H150426   3.573   0.560  11.224 -1.4743  0.2960  0.0406
 9645TIP3    H250427   3.503   0.653  11.127  0.7131  0.1085 -1.8047
 9646TIP3   OH250428   0.734   3.200   0.187 -0.7877  0.1468 -0.6422
 9646TIP3    H150429   0.782   3.282   0.198 -0.7073 -0.0200  0.2931
 9646TIP3    H250430   0.803   3.134   0.180 -0.8605  0.0786 -0.7117
 9647TIP3   OH250431   6.479   2.709  13.200 -0.0951 -0.0053  0.0132
 9647TIP3    H150432   6.414   2.695  13.131 -0.7591 -1.9547  0.9597
 9647TIP3    H250433   6.447   2.787  13.247 -2.2108 -1.3097  0.8907
 9648TIP3   OH250434   2.700   5.684   0.040 -0.4476  0.5557  0.3409
 9648TIP3    H150435   2.657   5.676  -0.044  0.2754  3.0943 -0.3560
 9648TIP3    H250436   2.635   5.653   0.104 -1.7159  0.4000 -0.9857
 9649TIP3   OH250437   4.922   2.635   2.168 -0.6704 -0.0910 -0.1287
 9649TIP3    H150438   4.976   2.585   2.106  0.2435 -1.3635  1.6153
 9649TIP3    H250439   4.835   2.596   2.160 -0.6833  0.0748 -0.9269
 9650TIP3   OH250440   2.863   2.641  12.891 -0.1547  0.4296  0.6388
 9650TIP3    H150441   2.806   2.584  12.840  0.4833  0.2238  0.1468
 9650TIP3    H250442   2.909   2.581  12.950  1.9957  0.1117 -1.2326
 9651TIP3   OH250443   5.873   5.199   1.509 -0.2897  0.1448  0.5679
 9651TIP3    H150444   5.961   5.212   1.474 -0.1856 -0.4799  0.5760
 9651TIP3    H250445   5.821   5.270   1.471  0.1596  0.3680  0.3594
 9652TIP3   OH250446   5.527   5.288  13.420  0.0043  0.2580  0.2634
 9652TIP3    H150447   5.553   5.247  13.337  0.6564  1.9871 -0.4204
 9652TIP3    H250448   5.515   5.380  13.398 -0.3600  0.6442  1.9945
 9653TIP3   OH250449   4.114   0.526  16.275  0.1021 -0.3004  0.0489
 9653TIP3    H150450   4.145   0.456  16.332 -0.6960  0.2863  1.2400
 9653TIP3    H250451   4.190   0.584  16.264  0.7095 -1.2074 -0.7836
 9654TIP3   OH250452   0.784   6.032   4.187  0.1301 -0.4763  0.0204
 9654TIP3    H150453   0.751   6.027   4.277  0.1528 -1.7867 -0.0289
 9654TIP3    H250454   0.715   6.078   4.139 -0.8926 -1.7096  0.2621
 9655TIP3   OH250455   1.418   1.598  12.418 -0.2208  0.0175 -0.1087
 9655TIP3    H150456   1.381   1.670  12.368 -1.8878  0.8067  2.0859
 9655TIP3    H250457   1.442   1.637  12.502  1.3225 -1.4825  0.1985
 9656TIP3   OH250458   3.460   0.770   0.278 -0.0282 -0.1989  0.7253
 9656TIP3    H150459   3.439   0.714   0.203 -0.3413  0.3666  0.3815
 9656TIP3    H250460   3.517   0.716   0.333 -0.1592 -0.7806  0.3036
 9657TIP3   OH250461   6.818   6.721  13.520  0.8968 -0.3143 -1.0227
 9657TIP3    H150462   6.905   6.716  13.480 -0.2451 -0.6191 -3.7016
 9657TIP3    H250463   6.779   6.635  13.504  0.1463 -0.2706  0.3630
 9658TIP3   OH250464   2.965   3.864  14.872  0.3256 -0.1797 -0.1017
 9658TIP3    H150465   2.870   3.861  14.881  0.2194  2.3024  0.3997
 9658TIP3    H250466   2.993   3.929  14.936  2.4913 -1.4674  0.3730
 9659TIP3   OH250467   6.693   3.421   3.807  0.1117  0.7588  0.0736
 9659TIP3    H150468   6.701   3.449   3.899 -1.1490  3.8816 -0.6349
 9659TIP3    H250469   6.776   3.445   3.767  0.3075  0.2591  0.1677
 9660TIP3   OH250470   3.278   2.339  14.485  0.6762  0.0928 -0.2016
 9660TIP3    H150471   3.195   2.368  14.523  0.3442 -0.8373 -0.1903
 9660TIP3    H250472   3.270   2.244  14.481  2.5758 -0.2086  1.7361
 9661TIP3   OH250473   3.440   1.797   4.754  0.0672 -0.1180 -0.4089
 9661TIP3    H150474   3.515   1.814   4.811 -0.9465  0.6238  0.7778
 9661TIP3    H250475   3.442   1.867   4.690 -0.3670  0.7152  0.4626
 9662TIP3   OH250476   6.596   1.557   4.254  0.1061 -0.5825 -0.0746
 9662TIP3    H150477   6.545   1.524   4.328 -1.0604 -2.5648 -1.6682
 9662TIP3    H250478   6.682   1.514   4.264  0.6567  0.7286  1.1734
 9663TIP3   OH250479   0.778   6.209  14.899  0.4805  0.5949  0.6994
 9663TIP3    H150480   0.826   6.245  14.973  0.2910  0.0023  1.1210
 9663TIP3    H250481   0.791   6.114  14.906  0.4485  0.5295 -0.0158
 9664TIP3   OH250482   1.172   1.246  13.860  0.4291 -0.0343  0.3813
 9664TIP3    H150483   1.111   1.282  13.796  2.4954  0.2592 -1.5564
 9664TIP3    H250484   1.120   1.184  13.911 -1.9682  1.7664  0.3142
 9665TIP3   OH250485   1.135   5.526   2.325 -0.0522 -0.1024  0.6854
 9665TIP3    H150486   1.178   5.569   2.252 -2.4958  0.8685 -0.3054
 9665TIP3    H250487   1.104   5.443   2.289 -2.4296  0.9432  0.0801
 9666TIP3   OH250488   2.960   3.922  14.605 -0.6232 -0.6221 -0.0688
 9666TIP3    H150489   2.976   3.863  14.679 -0.0088 -0.6403 -0.2102
 9666TIP3    H250490   3.023   3.993  14.618  0.0103 -1.0015 -0.9764
 9667TIP3   OH250491   0.771   3.052   1.540 -0.6717  0.2153  0.0001
 9667TIP3    H150492   0.745   2.980   1.598 -1.8839  1.3913  0.9783
 9667TIP3    H250493   0.758   3.017   1.452  0.6915 -1.4317  0.3968
 9668TIP3   OH250494   2.921   0.652  15.781  0.0291 -0.1962 -0.6080
 9668TIP3    H150495   2.947   0.582  15.721 -1.3253 -0.9670 -0.3478
 9668TIP3    H250496   2.982   0.723  15.763  0.5006 -0.8987 -1.9400
 9669TIP3   OH250497   2.202   1.495   0.260  0.1470 -0.3262 -0.1094
 9669TIP3    H150498   2.169   1.554   0.192  0.3966  0.2553  0.2761
 9669TIP3    H250499   2.285   1.462   0.224  0.1147 -0.2789 -0.2287
 9670TIP3   OH250500   2.940   1.375  17.084  0.1077  0.0859 -0.4851
 9670TIP3    H150501   2.963   1.327  17.163 -1.4117  0.3220  0.1453
 9670TIP3    H250502   2.916   1.308  17.021  0.7289 -0.0803 -0.5482
 9671TIP3   OH250503   4.989   4.762  12.827  0.1640 -0.0066  0.1147
 9671TIP3    H150504   5.010   4.716  12.908 -1.6122 -1.4530 -0.1797
 9671TIP3    H250505   5.067   4.753  12.772 -0.3940 -3.5475 -0.2809
 9672TIP3   OH250506   4.887   6.649  13.736 -0.3956  0.0845 -0.0848
 9672TIP3    H150507   4.801   6.619  13.763  0.0307 -0.1833  1.0168
 9672TIP3    H250508   4.948   6.583  13.769  0.2216  0.1201 -1.0871
 9673TIP3   OH250509   6.047   5.884  14.347  0.1872  0.3222 -0.0332
 9673TIP3    H150510   5.984   5.839  14.404 -0.2941  0.2435 -0.6236
 9673TIP3    H250511   6.046   5.975  14.377  0.2410  0.1989  0.3502
 9674TIP3   OH250512   5.977   3.292   2.520  0.1900  0.3809  0.2283
 9674TIP3    H150513   5.938   3.287   2.608 -0.9319 -0.1390 -0.2768
 9674TIP3    H250514   5.902   3.295   2.461  0.9384  1.2539 -0.6972
 9675TIP3   OH250515   3.185   0.751   0.355  0.1206  0.0051  0.0358
 9675TIP3    H150516   3.276   0.724   0.361  0.8281  1.9378 -1.2272
 9675TIP3    H250517   3.169   0.801   0.436  0.3467  0.1494 -0.0098
 9676TIP3   OH250518   6.387   1.174  10.817 -0.0495 -0.2509 -0.4315
 9676TIP3    H150519   6.310   1.175  10.761 -1.0614 -1.4833  0.8514
 9676TIP3    H250520   6.394   1.263  10.851 -1.4841 -0.3314  0.1517
 9677TIP3   OH250521   1.009   0.084  14.116 -0.0506 -0.3589 -0.1606
 9677TIP3    H150522   0.931   0.125  14.153 -1.1202 -0.8639 -1.7556
 9677TIP3    H250523   1.005  -0.007  14.148  0.2425 -0.2237  0.2705
 9678TIP3   OH250524   3.566   2.828   3.528 -0.1763 -0.5752  0.4825
 9678TIP3    H150525   3.522   2.804   3.446 -0.4938  1.0942  0.1199
 9678TIP3    H250526   3.621   2.753   3.548 -0.5215 -1.2627 -0.9597
 9679TIP3   OH250527   5.194   0.382  15.696 -0.2951 -0.6832  0.1269
 9679TIP3    H150528   5.204   0.343  15.609  1.4068  0.7068 -0.3824
 9679TIP3    H250529   5.101   0.373  15.716 -0.4307 -2.5078 -1.1067
 9680TIP3   OH250530   5.805   0.842  16.347 -0.0193 -0.2883  0.2834
 9680TIP3    H150531   5.794   0.870  16.257 -2.2571 -1.3592  0.1425
 9680TIP3    H250532   5.871   0.773  16.344  0.6650  0.3842 -0.3503
 9681TIP3   OH250533   3.329   2.955  16.004  0.7073 -0.1028  0.2316
 9681TIP3    H150534   3.286   3.032  15.967  0.2726  0.2002  1.3304
 9681TIP3    H250535   3.393   2.929  15.937 -1.3320 -0.7271 -1.5922
 9682TIP3   OH250536   2.752   1.423   0.893  0.2563  0.1738  0.1933
 9682TIP3    H150537   2.687   1.372   0.846 -0.9555  0.9292  0.9980
 9682TIP3    H250538   2.780   1.367   0.966  0.3310 -0.0563 -0.0132
 9683TIP3   OH250539   6.201   3.703  11.766 -0.1157  0.0966 -0.6700
 9683TIP3    H150540   6.287   3.720  11.726  0.1492  0.1405 -0.0958
 9683TIP3    H250541   6.221   3.689  11.859 -0.6444 -0.6287 -0.6612
 9684TIP3   OH250542   2.121   4.722   3.784  0.0730  0.4189  0.3410
 9684TIP3    H150543   2.046   4.666   3.800 -0.3550 -0.0932 -2.7003
 9684TIP3    H250544   2.171   4.720   3.865 -3.3014  1.0930  2.6609
 9685TIP3   OH250545   1.233   4.956   1.592  0.4542 -0.2076 -0.3059
 9685TIP3    H150546   1.286   4.896   1.645 -0.5840 -0.5355  0.4049
 9685TIP3    H250547   1.257   5.043   1.623 -0.3293 -0.4074  0.9245
 9686TIP3   OH250548   2.172   2.228   1.200  0.1307 -0.2740  0.2029
 9686TIP3    H150549   2.103   2.292   1.218  0.9565  1.1363 -1.2962
 9686TIP3    H250550   2.184   2.233   1.105  1.1677 -1.7076  0.2273
 9687TIP3   OH250551   5.167   3.833   0.596 -0.2739 -0.2047 -0.4915
 9687TIP3    H150552   5.242   3.834   0.537 -0.3361 -0.7727 -0.5878
 9687TIP3    H250553   5.168   3.745   0.634 -1.3905 -0.5211 -1.1492
 9688TIP3   OH250554   5.483   0.320  12.246  0.0344 -0.3469 -0.6156
 9688TIP3    H150555   5.413   0.367  12.201  0.3924  0.0969 -0.7198
 9688TIP3    H250556   5.564   0.356  12.209  0.3195 -1.0838 -0.7391
 9689TIP3   OH250557   5.847   3.604   6.552  0.0714  0.2913  0.4950
 9689TIP3    H150558   5.877   3.678   6.604  0.9364  1.4441 -1.5440
 9689TIP3    H250559   5.927   3.567   6.515 -0.6119  0.6195 -1.4174
 9690TIP3   OH250560   0.064   4.136   6.184  0.2942 -0.0487 -0.2676
 9690TIP3    H150561   0.135   4.123   6.122 -0.3267  0.5664 -1.1306
 9690TIP3    H250562   0.040   4.228   6.176 -1.7953 -0.6048 -1.3773
 9691TIP3   OH250563   5.999   2.716  14.161  0.2442  0.1540 -0.0827
 9691TIP3    H150564   6.023   2.627  14.135  0.2062 -0.2071  1.0594
 9691TIP3    H250565   5.961   2.706  14.248 -1.6043  1.0356 -0.7204
 9692TIP3   OH250566   3.361   6.213   0.494 -0.7139 -0.2909 -0.3460
 9692TIP3    H150567   3.269   6.210   0.520 -0.5920 -1.8030 -0.0297
 9692TIP3    H250568   3.374   6.133   0.442  0.6218 -0.5138  0.2962
 9693TIP3   OH250569   3.602   3.275   2.306 -0.6793  0.3084 -0.0768
 9693TIP3    H150570   3.532   3.339   2.322 -0.5827 -0.2914  3.2789
 9693TIP3    H250571   3.666   3.291   2.376 -1.2221 -4.1783  1.7324
 9694TIP3   OH250572   4.736   3.786   0.287  0.3355  0.0379 -0.7119
 9694TIP3    H150573   4.694   3.778   0.201  1.5730  1.9400 -1.5462
 9694TIP3    H250574   4.794   3.710   0.292  0.5313  0.1061 -1.7257
 9695TIP3   OH250575   1.606   2.848  12.629  0.3419 -0.1816  0.7177
 9695TIP3    H150576   1.527   2.871  12.677 -0.5374 -1.3134 -0.1224
 9695TIP3    H250577   1.592   2.884  12.541  2.0784  2.1735  1.3260
 9696TIP3   OH250578   3.329   0.399   0.021 -0.2795 -0.1018  0.1547
 9696TIP3    H150579   3.383   0.333  -0.022  0.4335  0.3235  0.3746
 9696TIP3    H250580   3.344   0.385   0.115 -0.7626 -0.1485  0.2314
 9697TIP3   OH250581   1.571   0.998  13.713  0.1730 -0.2927 -0.3107
 9697TIP3    H150582   1.533   0.958  13.635 -1.3381 -2.0109  1.1983
 9697TIP3    H250583   1.512   1.070  13.734  0.3874 -0.0467 -0.5392
 9698TIP3   OH250584   2.351   2.527   3.965 -0.4681  0.6184 -0.5491
 9698TIP3    H150585   2.431   2.529   3.911  0.0514 -0.4371  0.1359
 9698TIP3    H250586   2.317   2.616   3.961 -0.4802  0.5662 -2.6506
 9699TIP3   OH250587   6.734   1.521  11.620  0.3095  0.6861 -0.0724
 9699TIP3    H150588   6.743   1.451  11.685  0.9882  0.7930 -0.0472
 9699TIP3    H250589   6.669   1.487  11.559 -0.8424  0.8535  1.0057
 9700TIP3   OH250590   2.922   2.407  13.063 -0.0664 -0.5155  0.6062
 9700TIP3    H150591   2.943   2.315  13.076 -2.0426 -0.8810  1.6563
 9700TIP3    H250592   2.839   2.419  13.109 -0.4624  1.5164 -0.5299
 9701TIP3   OH250593   2.140   1.748  12.483 -0.1573  0.1294  0.2816
 9701TIP3    H150594   2.201   1.816  12.513  0.9952 -0.9335  0.4206
 9701TIP3    H250595   2.185   1.706  12.410 -0.6070 -0.8416  0.5498
 9702TIP3   OH250596   0.032   4.435  16.958  0.0618  0.7564  0.1240
 9702TIP3    H150597   0.093   4.508  16.967  0.3162  0.6416 -0.6172
 9702TIP3    H250598  -0.030   4.446  17.030  2.1761 -0.3236  2.2359
 9703TIP3   OH250599   1.165   4.198   0.162 -0.3363 -0.5415 -0.1555
 9703TIP3    H150600   1.185   4.291   0.151  0.5801 -0.7457 -0.2711
 9703TIP3    H250601   1.247   4.154   0.145 -0.2811 -1.2684  1.7976
 9704TIP3   OH250602   6.833   3.954  14.135  0.3132 -0.1155 -0.1363
 9704TIP3    H150603   6.816   3.929  14.226 -0.4377 -1.1904 -0.5556
 9704TIP3    H250604   6.754   4.000  14.107  0.2709 -0.3762 -0.4503
 9705TIP3   OH250605   1.811   5.792   3.276  0.2368 -0.4987 -0.2187
 9705TIP3    H150606   1.890   5.739   3.268  1.7914  1.8717 -2.3451
 9705TIP3    H250607   1.739   5.730   3.262  1.8768 -2.2164 -1.6178
 9706TIP3   OH250608   0.417   4.081  12.734  0.4345  0.6336 -0.1939
 9706TIP3    H150609   0.401   4.175  12.723 -0.8568  0.4691  0.1153
 9706TIP3    H250610   0.378   4.060  12.819 -1.3225 -0.5926 -1.2415
 9707TIP3   OH250611   4.085   0.512   2.186 -0.2159 -0.8067  0.2609
 9707TIP3    H150612   4.172   0.553   2.181  0.2230 -1.6687  0.5620
 9707TIP3    H250613   4.024   0.585   2.185  0.5231 -0.1776  0.1511
 9708TIP3   OH250614   1.508   5.261  12.539  0.4983 -0.1402 -0.3559
 9708TIP3    H150615   1.427   5.212  12.525 -0.1413  0.8091 -0.0755
 9708TIP3    H250616   1.567   5.229  12.470 -0.6418  0.2783 -1.5749
 9709TIP3   OH250617   3.952   2.120  13.451  0.3426 -0.4747  0.7720
 9709TIP3    H150618   3.983   2.150  13.366  2.3105  1.6571  2.1048
 9709TIP3    H250619   4.019   2.058  13.480  0.0453 -0.6680  1.0525
 9710TIP3   OH250620   5.421   0.853   3.705  0.8467  0.4039 -0.1691
 9710TIP3    H150621   5.368   0.920   3.748  0.9806  0.5631 -0.2511
 9710TIP3    H250622   5.418   0.778   3.764  1.4949  0.8128  0.3950
 9711TIP3   OH250623   4.963   2.198  12.299  0.2683  0.0026 -0.4647
 9711TIP3    H150624   4.928   2.268  12.244  0.3234  0.1590 -0.3008
 9711TIP3    H250625   4.939   2.223  12.389  0.1696 -0.2569 -0.4168
 9712TIP3   OH250626   3.252   4.569  16.880  0.2711  0.0627 -0.0063
 9712TIP3    H150627   3.198   4.491  16.894  1.8908 -0.9963  0.5629
 9712TIP3    H250628   3.342   4.540  16.895  1.0779  1.6702 -1.3329
 9713TIP3   OH250629   4.046   0.622   3.765  0.2194 -0.3808 -0.3320
 9713TIP3    H150630   4.093   0.691   3.718  2.8214 -1.3362  0.6898
 9713TIP3    H250631   4.018   0.664   3.846 -2.4231  0.6797 -1.6730
 9714TIP3   OH250632   1.512   3.267   5.270  0.0135 -0.9102  0.2431
 9714TIP3    H150633   1.420   3.244   5.282 -0.3736  0.4059 -0.0306
 9714TIP3    H250634   1.541   3.212   5.197 -0.7021 -0.9459 -0.0237
 9715TIP3   OH250635   6.721   3.641  12.934  0.0115  0.4656  0.0846
 9715TIP3    H150636   6.750   3.639  13.025 -0.5814  0.3721  0.2733
 9715TIP3    H250637   6.703   3.550  12.912  2.3358  0.1507 -0.8606
 9716TIP3   OH250638   0.109   0.841   5.132 -0.1480  0.2417  0.3045
 9716TIP3    H150639   0.106   0.937   5.136  3.3704  0.4428  1.3000
 9716TIP3    H250640   0.131   0.814   5.221  2.6229 -1.1394 -0.6738
 9717TIP3   OH250641   3.293   0.911  14.049 -0.7954  0.2892 -0.4709
 9717TIP3    H150642   3.228   0.928  13.980 -0.3002  2.6349 -0.4564
 9717TIP3    H250643   3.264   0.965  14.123  0.6487  0.6495 -0.1398
 9718TIP3   OH250644   0.315   3.999  15.369  0.0881  0.2848  0.2192
 9718TIP3    H150645   0.238   3.966  15.416 -0.7106 -0.0576 -1.2865
 9718TIP3    H250646   0.382   4.008  15.437 -0.5680 -1.6225  1.2075
 9719TIP3   OH250647   2.815   5.671   1.894  0.6533 -0.5880 -0.1699
 9719TIP3    H150648   2.846   5.707   1.812  1.1003 -0.4162  0.0718
 9719TIP3    H250649   2.872   5.596   1.911  1.8461  0.5332  0.9582
 9720TIP3   OH250650   1.400   2.073  16.825 -0.4238 -0.1485 -0.0166
 9720TIP3    H150651   1.416   1.988  16.785 -1.3203  0.3276 -1.4673
 9720TIP3    H250652   1.487   2.111  16.837  0.0061 -1.3487  0.9034
 9721TIP3   OH250653   2.564   5.130   4.734  0.2615  0.4461  0.0785
 9721TIP3    H150654   2.518   5.090   4.807  1.5454  0.8125  1.1300
 9721TIP3    H250655   2.495   5.151   4.671 -0.7975 -0.4699  0.8867
 9722TIP3   OH250656   6.664   2.107  16.678 -1.0182  0.5797 -0.4261
 9722TIP3    H150657   6.678   2.057  16.759  1.1012  0.7298 -0.6382
 9722TIP3    H250658   6.688   2.046  16.609  2.6250  2.0167 -0.6651
 9723TIP3   OH250659   5.502   6.653   5.247 -0.1895 -0.1209  0.1487
 9723TIP3    H150660   5.589   6.631   5.281 -0.2484  0.6862  0.8601
 9723TIP3    H250661   5.483   6.584   5.184  0.8979 -0.4045  0.1012
 9724TIP3   OH250662   2.144   4.279   0.991  0.2527  0.1155 -0.2953
 9724TIP3    H150663   2.200   4.340   0.942  0.5633  1.0005  1.0918
 9724TIP3    H250664   2.064   4.274   0.939  0.8062  0.4890 -1.2302
 9725TIP3   OH250665   4.171   5.232   1.484 -0.4976 -0.2838  0.3705
 9725TIP3    H150666   4.239   5.252   1.419 -0.9062 -0.7126 -0.2016
 9725TIP3    H250667   4.213   5.172   1.546 -0.0886  0.1735  0.5376
 9726TIP3   OH250668   5.180   1.518   4.896 -0.4159  0.0400 -0.1482
 9726TIP3    H150669   5.275   1.531   4.903 -0.3801 -0.3671  0.2050
 9726TIP3    H250670   5.171   1.424   4.880 -0.8024 -0.1209  0.9431
 9727TIP3   OH250671   6.220   6.761   4.564  0.3357  0.2649 -0.7873
 9727TIP3    H150672   6.295   6.786   4.619 -0.1470  0.9148 -0.4043
 9727TIP3    H250673   6.153   6.826   4.585 -0.7773 -1.0090 -0.1988
 9728TIP3   OH250674   2.871   2.008   3.135  0.1467 -0.2939 -0.4611
 9728TIP3    H150675   2.965   1.996   3.121 -0.0525  0.5469 -2.9870
 9728TIP3    H250676   2.861   2.100   3.156 -0.1639 -0.2275 -0.8884
 9729TIP3   OH250677   3.157   6.005  16.704  0.3532  0.1670  0.3470
 9729TIP3    H150678   3.164   6.096  16.676  0.8869 -0.0336 -0.1876
 9729TIP3    H250679   3.116   5.960  16.630  0.9350 -0.1964  0.2397
 9730TIP3   OH250680   3.696   0.017  13.984 -0.1072  0.5211  0.2441
 9730TIP3    H150681   3.683  -0.077  13.971  2.6222 -0.0165  0.8481
 9730TIP3    H250682   3.667   0.033  14.074 -2.0160  0.6236 -0.3464
 9731TIP3   OH250683   0.389   2.407  17.081  0.0373  0.0062 -0.3762
 9731TIP3    H150684   0.302   2.384  17.113 -0.8536 -0.0762 -2.6873
 9731TIP3    H250685   0.427   2.324  17.052  0.5494  0.1720 -0.2000
 9732TIP3   OH250686   3.413   5.505  14.874  0.2932 -0.4154 -0.4081
 9732TIP3    H150687   3.358   5.584  14.877  2.0223  0.8714 -0.9048
 9732TIP3    H250688   3.451   5.500  14.961 -2.6664 -2.9545  0.9140
 9733TIP3   OH250689   2.839   4.188  11.883 -0.1977 -0.0674  0.2255
 9733TIP3    H150690   2.784   4.169  11.807 -0.4936  2.2175 -0.2106
 9733TIP3    H250691   2.818   4.279  11.905  1.8077  0.1645  1.4265
 9734TIP3   OH250692   4.574   0.997  16.746  0.1511  0.1280  0.3045
 9734TIP3    H150693   4.552   1.041  16.664 -3.1592 -1.0221  0.4058
 9734TIP3    H250694   4.635   0.928  16.721  0.6069  0.9227 -0.8571
 9735TIP3   OH250695   1.362   5.602  13.664 -0.1102 -0.3922  0.1063
 9735TIP3    H150696   1.306   5.617  13.741  1.9188  1.5182  1.3095
 9735TIP3    H250697   1.395   5.513  13.676  0.1108 -0.1579  1.4168
 9736TIP3   OH250698   3.400   4.902   3.455  0.4009  0.3094  0.2229
 9736TIP3    H150699   3.423   4.952   3.533 -0.0445  0.3974  0.3018
 9736TIP3    H250700   3.369   4.818   3.489 -0.0844  0.4607  0.1592
 9737TIP3   OH250701   5.285   1.352   5.521 -0.5106  0.5075 -0.2354
 9737TIP3    H150702   5.299   1.447   5.525 -0.5741  0.4932  0.4653
 9737TIP3    H250703   5.369   1.315   5.548  0.1761  0.3151 -2.4318
 9738TIP3   OH250704   3.427   2.498  14.295 -0.5613  0.0793 -0.2564
 9738TIP3    H150705   3.354   2.467  14.348 -0.0125  1.7694  1.6238
 9738TIP3    H250706   3.439   2.589  14.321  1.6828  0.0996 -1.1184
 9739TIP3   OH250707   4.468   2.379  16.021 -0.0790  0.2899  0.3516
 9739TIP3    H150708   4.380   2.348  16.039 -0.1681 -2.3471 -3.3770
 9739TIP3    H250709   4.524   2.302  16.033  1.0429  0.8015 -1.1459
 9740TIP3   OH250710   6.106   5.032  15.655  0.2971 -0.3873 -0.1523
 9740TIP3    H150711   6.149   5.046  15.739  2.2656 -1.5171 -0.8978
 9740TIP3    H250712   6.044   4.961  15.671  1.7625 -1.6741  0.0588
 9741TIP3   OH250713   6.606   1.116   3.640  0.0526 -0.6775 -0.3507
 9741TIP3    H150714   6.541   1.083   3.702 -1.5165  0.5727 -1.2330
 9741TIP3    H250715   6.572   1.202   3.614 -0.1039 -1.6383 -3.8791
 9742TIP3   OH250716   5.959   0.133  16.867 -0.2832  0.4344 -0.0112
 9742TIP3    H150717   5.913   0.055  16.900  3.2585 -1.8951 -0.0936
 9742TIP3    H250718   5.903   0.206  16.894 -2.2922 -1.8909  2.8538
 9743TIP3   OH250719   0.071   3.511   4.853 -0.0173 -0.1984  0.7427
 9743TIP3    H150720  -0.025   3.513   4.851 -0.0427 -0.5418  1.4096
 9743TIP3    H250721   0.092   3.429   4.898  0.5803  0.2919  1.3748
 9744TIP3   OH250722   1.850   0.407   1.367  0.0815 -0.2784 -0.4306
 9744TIP3    H150723   1.757   0.396   1.348 -0.3378  0.8357  0.8185
 9744TIP3    H250724   1.874   0.328   1.416 -1.1829  0.9614  2.4693
 9745TIP3   OH250725   2.022   0.493  12.738  0.1231  0.1629 -0.5416
 9745TIP3    H150726   2.059   0.424  12.793 -0.6403  0.5433  0.4720
 9745TIP3    H250727   2.017   0.569  12.795  0.5465  0.9577 -1.5237
 9746TIP3   OH250728   4.599   4.548   5.664 -0.1159 -0.6674 -0.0195
 9746TIP3    H150729   4.555   4.463   5.653  0.6163 -0.8878 -1.5140
 9746TIP3    H250730   4.545   4.609   5.615  0.5352 -0.7063 -0.8127
 9747TIP3   OH250731   6.195   0.944   0.370 -0.0780  0.0041  0.7305
 9747TIP3    H150732   6.259   0.962   0.300 -0.1161 -1.3767  0.3199
 9747TIP3    H250733   6.131   1.015   0.363  0.7047  0.6846  0.3087
 9748TIP3   OH250734   5.322   0.353   1.582 -0.2485 -0.4136  0.0496
 9748TIP3    H150735   5.289   0.328   1.668  1.1255  4.6038  2.4171
 9748TIP3    H250736   5.243   0.366   1.529 -1.2513 -1.2767  1.2804
 9749TIP3   OH250737   5.855   5.886  15.246 -0.3300  0.4852 -0.3392
 9749TIP3    H150738   5.874   5.848  15.160 -1.2864  1.3215 -0.9488
 9749TIP3    H250739   5.941   5.905  15.284  0.1426 -1.4007 -0.4018
 9750TIP3   OH250740   6.220   3.341  15.682  0.0155  0.3320  0.5976
 9750TIP3    H150741   6.240   3.393  15.603 -0.2766  0.8654  0.8659
 9750TIP3    H250742   6.159   3.274  15.652  1.4697 -0.7596 -0.0477
 9751TIP3   OH250743   2.417   1.471   5.417  0.1015 -0.2132  0.2164
 9751TIP3    H150744   2.354   1.492   5.348  0.8827 -0.1295 -0.4826
 9751TIP3    H250745   2.484   1.420   5.373 -0.7303 -2.5227  1.4772
 9752TIP3   OH250746   0.929   3.526   5.202 -0.0078 -0.2738  0.3634
 9752TIP3    H150747   0.898   3.609   5.165  0.8078 -0.9087 -1.9825
 9752TIP3    H250748   1.005   3.551   5.255 -0.4208  0.5713  0.5837
 9753TIP3   OH250749   3.467   2.614   5.431  0.1555 -0.5388  0.5161
 9753TIP3    H150750   3.421   2.612   5.347  0.7670  0.0059  0.1636
 9753TIP3    H250751   3.397   2.606   5.496 -0.3355 -0.8592 -0.0349
 9754TIP3   OH250752   0.255   3.089   0.877 -0.2010 -0.2787 -0.2977
 9754TIP3    H150753   0.333   3.137   0.851 -1.5795  1.0517 -2.3082
 9754TIP3    H250754   0.187   3.156   0.885 -1.2332 -1.4240  1.1048
 9755TIP3   OH250755   6.698   0.784  12.097 -0.2334 -0.4372 -0.2260
 9755TIP3    H150756   6.671   0.817  12.183  0.7333 -0.5954  0.1465
 9755TIP3    H250757   6.625   0.728  12.069 -1.0598  0.5077 -0.0316
 9756TIP3   OH250758   6.596   4.064  14.050 -0.0764  0.7114  0.1793
 9756TIP3    H150759   6.550   4.146  14.066  0.2761  0.9175  0.1545
 9756TIP3    H250760   6.528   3.997  14.054 -0.3770  1.0102  0.1405
 9757TIP3   OH250761   6.598   5.788  14.822 -0.1585 -0.1956  0.1272
 9757TIP3    H150762   6.614   5.694  14.817  0.9675 -0.1226  1.5369
 9757TIP3    H250763   6.684   5.827  14.833 -0.7538  0.7843  1.8201
 9758TIP3   OH250764   5.059   4.501  15.013 -0.2113  0.2736  0.0776
 9758TIP3    H150765   4.989   4.436  15.017  0.7761 -0.8501 -0.4764
 9758TIP3    H250766   5.057   4.543  15.099 -0.3375 -1.0625  0.7471
 9759TIP3   OH250767   1.480   2.992  11.913 -0.0137  0.3229 -0.0282
 9759TIP3    H150768   1.515   2.908  11.942  1.7399  0.9472 -0.1557
 9759TIP3    H250769   1.475   3.046  11.992  0.7052  0.6775 -0.2094
 9760TIP3   OH250770   1.347   5.057  16.103  0.5718 -0.0691 -0.4224
 9760TIP3    H150771   1.282   5.081  16.169  1.2046 -0.9501  0.5466
 9760TIP3    H250772   1.341   4.962  16.097  2.6431 -0.3094  0.6377
 9761TIP3   OH250773   4.844   4.641  16.167  0.1352 -0.3902 -0.0844
 9761TIP3    H150774   4.788   4.597  16.231 -0.1972 -1.3271 -0.9878
 9761TIP3    H250775   4.799   4.724  16.149 -0.4036 -0.6640 -0.0085
 9762TIP3   OH250776   3.606   5.176  14.708  0.7474 -0.0330  0.0799
 9762TIP3    H150777   3.686   5.152  14.660  1.4044  0.3409  0.9608
 9762TIP3    H250778   3.556   5.230  14.646  0.4255 -1.5223 -1.0360
 9763TIP3   OH250779   5.205   4.649  14.318  0.4911  0.0114 -0.2255
 9763TIP3    H150780   5.297   4.639  14.341  0.6181  0.4453 -0.5327
 9763TIP3    H250781   5.205   4.701  14.238 -0.0039 -0.3978 -0.4986
 9764TIP3   OH250782   2.177   3.517   1.387 -0.1835 -0.9173 -0.0433
 9764TIP3    H150783   2.261   3.556   1.362 -0.8833  0.5175 -0.3197
 9764TIP3    H250784   2.195   3.464   1.464  1.2837 -2.0598 -1.1252
 9765TIP3   OH250785   3.314   3.698  12.199 -0.5378 -0.0010  0.0771
 9765TIP3    H150786   3.390   3.687  12.255  0.5572 -1.9251 -1.6772
 9765TIP3    H250787   3.343   3.757  12.129 -0.1789 -1.7363 -1.2989
 9766TIP3   OH250788   2.228   2.417   2.697 -0.0098  0.0581  0.4803
 9766TIP3    H150789   2.293   2.371   2.750 -0.3243 -1.3090 -0.2787
 9766TIP3    H250790   2.184   2.348   2.647 -1.5438  1.0242  0.4260
 9767TIP3   OH250791   1.346   1.376   5.764 -0.2052 -0.2453  0.0769
 9767TIP3    H150792   1.399   1.372   5.843 -1.0507 -0.0997  0.6528
 9767TIP3    H250793   1.376   1.301   5.712 -0.5702 -1.1221  1.1065
 9768TIP3   OH250794   6.123   2.085  11.400 -0.7645 -0.6517  0.4360
 9768TIP3    H150795   6.134   2.094  11.305  1.0625 -0.8899  0.5913
 9768TIP3    H250796   6.029   2.098  11.415 -0.9721  0.1064 -1.3172
 9769TIP3   OH250797   2.074   4.448  17.137 -0.4756  0.4074  0.3195
 9769TIP3    H150798   2.053   4.534  17.101 -0.9847 -0.1963 -0.8723
 9769TIP3    H250799   2.165   4.434  17.114 -0.9828 -0.2631 -1.3908
 9770TIP3   OH250800   4.922   0.689   0.828 -0.6044 -0.0661 -0.1580
 9770TIP3    H150801   4.895   0.624   0.763  3.3813 -0.2404 -1.9996
 9770TIP3    H250802   4.897   0.773   0.789 -0.0027 -0.2751 -1.0463
 9771TIP3   OH250803   2.663   4.752  16.648 -0.2343 -0.4703  0.2917
 9771TIP3    H150804   2.712   4.676  16.680  0.8094  0.3972  0.7798
 9771TIP3    H250805   2.728   4.806  16.604 -1.0806 -0.1107 -0.5387
 9772TIP3   OH250806   5.416   3.841  14.973  0.3302  0.2435  0.0387
 9772TIP3    H150807   5.454   3.771  14.920 -0.8278 -0.8171  0.5647
 9772TIP3    H250808   5.466   3.841  15.054  2.1206  1.8832 -0.9791
 9773TIP3   OH250809   0.896   6.234   3.897  0.6761 -0.2615  0.5862
 9773TIP3    H150810   0.970   6.181   3.869 -0.3059 -2.2806  1.5518
 9773TIP3    H250811   0.879   6.206   3.987 -1.2546  0.1052  0.3817
 9774TIP3   OH250812   6.485   5.085  13.540 -0.2455  0.2497  0.1731
 9774TIP3    H150813   6.492   5.181  13.547 -2.9477  0.4941  0.9843
 9774TIP3    H250814   6.477   5.069  13.446 -1.1255  0.9957  0.1016
 9775TIP3   OH250815   6.825   4.103   1.616 -0.4390  0.3118 -0.2503
 9775TIP3    H150816   6.874   4.177   1.651 -1.4327 -0.0637  2.1216
 9775TIP3    H250817   6.736   4.135   1.606 -0.5346 -0.1103 -0.8339
 9776TIP3   OH250818   1.386   5.799   3.547 -0.1947 -0.0817 -0.3170
 9776TIP3    H150819   1.312   5.791   3.608 -0.6619 -0.5533 -0.9240
 9776TIP3    H250820   1.454   5.742   3.583 -1.2505 -2.1287 -1.3297
 9777TIP3   OH250821   5.858   6.328  11.223 -0.4741  0.0429  0.0073
 9777TIP3    H150822   5.858   6.311  11.318  3.1118  1.4287  0.4106
 9777TIP3    H250823   5.845   6.241  11.184  0.9586 -1.0602  1.8173
 9778TIP3   OH250824   3.047   5.099   1.378  0.4768 -0.3860  0.3901
 9778TIP3    H150825   3.013   5.086   1.466  3.2099  0.7383  1.7270
 9778TIP3    H250826   3.081   5.013   1.353  0.2552 -0.5652  0.7031
 9779TIP3   OH250827   6.373   1.094   2.277  0.2199  0.3273  0.1637
 9779TIP3    H150828   6.381   1.012   2.326 -2.4282 -0.6755 -0.8873
 9779TIP3    H250829   6.381   1.163   2.343 -2.6161 -0.9300  2.0435
 9780TIP3   OH250830   3.298   1.168  16.719  0.1740  0.1469 -0.3455
 9780TIP3    H150831   3.358   1.241  16.703 -0.2922  0.8612  1.0586
 9780TIP3    H250832   3.241   1.199  16.789  0.1023 -1.6426  0.4238
 9781TIP3   OH250833   1.417   3.899   5.158  0.2929  0.1859 -0.0352
 9781TIP3    H150834   1.418   3.816   5.111 -0.8729 -0.2087  0.5944
 9781TIP3    H250835   1.398   3.875   5.249 -0.3095  1.1547  0.1097
 9782TIP3   OH250836   4.709   1.735   0.655  0.2963  0.0930 -0.5056
 9782TIP3    H150837   4.735   1.764   0.742  1.3647 -0.6415 -0.5533
 9782TIP3    H250838   4.790   1.737   0.604 -0.5256  1.5946 -1.8108
 9783TIP3   OH250839   4.035   1.469   0.273 -0.2966 -0.2139 -0.1703
 9783TIP3    H150840   3.954   1.450   0.319 -1.1263  1.3479 -0.9272
 9783TIP3    H250841   4.064   1.383   0.240 -0.6999 -1.0449  1.5444
 9784TIP3   OH250842   4.751   0.205   2.164  0.2949 -1.0408 -0.6167
 9784TIP3    H150843   4.828   0.153   2.190  0.7373 -0.6691 -1.1586
 9784TIP3    H250844   4.677   0.146   2.178  0.6882 -1.4569 -0.2212
 9785TIP3   OH250845   2.902   3.076   2.839  0.1183  0.4143 -0.0295
 9785TIP3    H150846   2.971   3.113   2.895 -0.6391  2.5442 -0.4368
 9785TIP3    H250847   2.820   3.102   2.881 -0.4508  0.3972 -1.0889
 9786TIP3   OH250848   0.152   2.727  12.018  0.0364  0.1251 -0.1984
 9786TIP3    H150849   0.206   2.738  11.940 -1.1347 -0.7547 -1.1781
 9786TIP3    H250850   0.124   2.636  12.016  0.8824 -0.2273  1.8913
 9787TIP3   OH250851   2.256   4.194  16.551 -0.2003  0.2594  0.1174
 9787TIP3    H150852   2.259   4.098  16.547 -0.6630  0.2692 -0.5291
 9787TIP3    H250853   2.339   4.221  16.512  0.8862  0.1044  2.1674
 9788TIP3   OH250854   6.719   1.451   3.103  0.3665 -0.2399 -0.3376
 9788TIP3    H150855   6.735   1.357   3.116 -0.8281 -0.4373 -0.1710
 9788TIP3    H250856   6.806   1.491   3.105  0.9717 -1.4415 -1.2548
 9789TIP3   OH250857   0.061   1.469  15.103  0.1884  0.1943  0.0582
 9789TIP3    H150858   0.097   1.512  15.026  0.9013  0.2197  0.4024
 9789TIP3    H250859  -0.033   1.490  15.101  0.4090  1.2085 -0.1380
 9790TIP3   OH250860   1.406   5.236   6.523  0.0361 -0.0381 -0.4316
 9790TIP3    H150861   1.345   5.276   6.586  1.1319  0.6474  0.2238
 9790TIP3    H250862   1.377   5.269   6.438 -1.3517 -0.8274 -0.3004
 9791TIP3   OH250863   4.185   3.007   4.851  1.4595  0.2067 -0.7045
 9791TIP3    H150864   4.227   2.941   4.906  2.2062  0.3382 -1.1076
 9791TIP3    H250865   4.118   2.958   4.802  0.3715  0.2019  0.7402
 9792TIP3   OH250866   4.406   1.664   4.075 -0.5424 -0.0840  0.2323
 9792TIP3    H150867   4.411   1.570   4.088  0.2541 -0.1090 -0.2268
 9792TIP3    H250868   4.485   1.699   4.116 -1.9348  0.6661  2.5477
 9793TIP3   OH250869   3.972   0.482   0.062 -0.6156 -0.4171 -0.3869
 9793TIP3    H150870   3.916   0.554   0.033  3.1802  1.2762 -4.8100
 9793TIP3    H250871   4.040   0.524   0.115  0.1135 -1.2181 -0.6582
 9794TIP3   OH250872   3.688   2.350   3.379  0.4095 -0.3294  0.0494
 9794TIP3    H150873   3.709   2.259   3.358 -0.2826 -0.2853 -0.8864
 9794TIP3    H250874   3.712   2.399   3.300  0.8301  0.3185  0.5648
 9795TIP3   OH250875   6.813   3.854  12.787  0.4739 -0.3198  0.3139
 9795TIP3    H150876   6.775   3.801  12.856 -0.4890 -1.0618 -0.7390
 9795TIP3    H250877   6.843   3.934  12.830 -0.5586 -0.5460  1.4795
 9796TIP3   OH250878   4.425   3.675  12.082 -0.2458  0.0741  0.0195
 9796TIP3    H150879   4.460   3.713  12.001  1.6194 -1.6237 -0.0546
 9796TIP3    H250880   4.487   3.699  12.150 -0.6820 -0.2529  0.5485
 9797TIP3   OH250881   0.069   3.935   1.822  0.0192 -0.4864 -0.1910
 9797TIP3    H150882   0.009   4.006   1.800 -0.1921 -0.8047 -0.6517
 9797TIP3    H250883   0.155   3.977   1.828 -0.0838 -0.2115 -0.5873
 9798TIP3   OH250884   0.627   4.686  15.127 -0.1888 -0.1525  0.5568
 9798TIP3    H150885   0.663   4.664  15.213  2.3650  0.5603 -0.2289
 9798TIP3    H250886   0.608   4.780  15.133  0.8324  0.0939  0.1049
 9799TIP3   OH250887   2.359   2.901  14.837 -0.3946 -0.1748  0.0689
 9799TIP3    H150888   2.317   2.985  14.853 -2.7626 -1.3658  0.6412
 9799TIP3    H250889   2.354   2.889  14.742 -0.6774  0.0262  0.0581
 9800TIP3   OH250890   2.511   6.379  13.536  0.1221 -0.6633 -0.4179
 9800TIP3    H150891   2.455   6.413  13.605 -1.0502 -0.3511 -1.4836
 9800TIP3    H250892   2.485   6.287  13.526 -0.6023 -0.3849 -1.2618
 9801TIP3   OH250893   4.323   2.442  11.961 -0.1878 -0.1265  0.2345
 9801TIP3    H150894   4.233   2.428  11.991 -0.6680 -0.6491 -1.3824
 9801TIP3    H250895   4.377   2.403  12.031 -1.2844 -1.8222  0.1921
 9802TIP3   OH250896   5.055   6.002  12.097 -0.1552 -0.0195  0.6323
 9802TIP3    H150897   5.114   6.028  12.026 -0.4131  0.9620  0.7618
 9802TIP3    H250898   5.021   6.085  12.132 -0.5175 -0.5134  1.4892
 9803TIP3   OH250899   3.340   1.262  14.971 -0.4668  0.1707 -0.3886
 9803TIP3    H150900   3.403   1.314  15.021 -0.6552 -1.5455  1.8402
 9803TIP3    H250901   3.256   1.302  14.991 -0.3064  1.1588 -1.6194
 9804TIP3   OH250902   6.359   3.217  16.898 -0.2265  0.0385 -0.3906
 9804TIP3    H150903   6.450   3.245  16.907  1.1428 -3.6996 -0.6145
 9804TIP3    H250904   6.321   3.231  16.984  0.5618  1.5695 -0.2593
 9805TIP3   OH250905   0.680   1.617  11.788  0.1249  0.4429  0.0909
 9805TIP3    H150906   0.673   1.706  11.824  0.8037  0.2672  0.6862
 9805TIP3    H250907   0.594   1.578  11.802 -0.3374  1.1687 -0.6304
 9806TIP3   OH250908   1.813   2.957   5.229  0.0988  0.3113  0.0503
 9806TIP3    H150909   1.780   2.896   5.163 -0.7419  0.4762  0.3015
 9806TIP3    H250910   1.908   2.950   5.223  0.0288 -0.0954 -0.7871
 9807TIP3   OH250911   1.269   6.305  11.620 -0.2595 -0.6317 -0.0198
 9807TIP3    H150912   1.337   6.237  11.615  0.7179  0.2773  0.5263
 9807TIP3    H250913   1.264   6.341  11.532  0.0141 -0.6596 -0.0467
 9808TIP3   OH250914   3.569   0.914  14.644  0.5020  0.1645 -0.2691
 9808TIP3    H150915   3.478   0.929  14.616  0.6181 -0.0492 -0.7768
 9808TIP3    H250916   3.618   0.987  14.607  0.8408 -0.7027 -1.5952
 9809TIP3   OH250917   3.554   2.871   3.782 -0.1797 -0.4134 -0.0561
 9809TIP3    H150918   3.547   2.859   3.687  1.1723 -2.8900  0.0822
 9809TIP3    H250919   3.636   2.919   3.794 -0.4283  0.0369 -0.1199
 9810TIP3   OH250920   3.809   1.727   4.195  0.0046  0.3806  0.0314
 9810TIP3    H150921   3.796   1.670   4.271  0.5149  0.2873  0.0542
 9810TIP3    H250922   3.904   1.730   4.184 -0.0790 -0.1393 -0.9978
 9811TIP3   OH250923   1.028   0.641   2.705 -0.5460 -0.3891  0.1653
 9811TIP3    H150924   0.941   0.612   2.733 -0.6793 -0.0505  0.0986
 9811TIP3    H250925   1.015   0.674   2.617 -0.3697 -0.2273  0.2012
 9812TIP3   OH250926   5.828   5.226   3.938  0.1200  0.0819  0.3397
 9812TIP3    H150927   5.875   5.173   4.003 -1.0715 -1.0703  0.3090
 9812TIP3    H250928   5.811   5.166   3.866  0.0123  0.9152 -0.3477
 9813TIP3   OH250929   4.131   2.798   0.470 -0.0065 -0.2989  0.3723
 9813TIP3    H150930   4.127   2.702   0.468  1.5398 -0.5372  3.3943
 9813TIP3    H250931   4.056   2.824   0.524 -0.9121  0.3303 -1.1161
 9814TIP3   OH250932   4.423   2.015  16.454  0.3244 -0.0057 -0.2759
 9814TIP3    H150933   4.506   1.979  16.421 -0.7808 -0.6979 -2.4865
 9814TIP3    H250934   4.388   2.065  16.381 -1.4968 -0.2361  0.3904
 9815TIP3   OH250935   0.336   5.858   0.900  0.6756 -0.5620 -0.4517
 9815TIP3    H150936   0.420   5.815   0.919  0.5387 -0.9655 -0.7532
 9815TIP3    H250937   0.336   5.868   0.805  0.5658 -0.1807 -0.4108
 9816TIP3   OH250938   0.860   3.778   5.769  0.2246 -0.0658 -0.3645
 9816TIP3    H150939   0.801   3.717   5.814 -0.1935  0.1688 -0.5932
 9816TIP3    H250940   0.805   3.820   5.703  0.4544  0.7188 -0.0659
 9817TIP3   OH250941   6.402   0.714  15.622 -0.6548 -0.0063 -0.5824
 9817TIP3    H150942   6.398   0.632  15.572 -0.7137 -0.3838  0.0338
 9817TIP3    H250943   6.482   0.757  15.591  0.5529 -1.2913  0.5863
 9818TIP3   OH250944   3.576   0.082   2.075  0.4897 -0.4161 -0.2506
 9818TIP3    H150945   3.483   0.079   2.052  0.4134 -0.2020  0.0368
 9818TIP3    H250946   3.621   0.095   1.991  0.1174  2.0326 -0.1463
 9819TIP3   OH250947   2.996   5.201  15.941 -0.1997 -0.2717  0.1504
 9819TIP3    H150948   3.008   5.237  15.852  0.0005 -1.0348 -0.1336
 9819TIP3    H250949   2.907   5.228  15.964 -0.1064  0.2908 -0.1135
 9820TIP3   OH250950   0.043   5.679  15.090  0.2196  0.2477 -0.2188
 9820TIP3    H150951   0.076   5.760  15.052  0.2330 -0.4630 -1.7850
 9820TIP3    H250952   0.111   5.614  15.073 -0.4706 -0.4503 -0.3905
 9821TIP3   OH250953   2.862   4.691  11.644  0.2861 -0.3767  0.1178
 9821TIP3    H150954   2.772   4.722  11.633  0.0391 -0.3402  1.9498
 9821TIP3    H250955   2.908   4.765  11.684  0.9048 -0.6934 -0.0014
 9822TIP3   OH250956   6.788   0.389   1.760 -0.9205  0.3889  0.3217
 9822TIP3    H150957   6.765   0.425   1.674  0.4380 -1.9755 -1.1430
 9822TIP3    H250958   6.824   0.463   1.809 -0.9960  1.6349 -1.4299
 9823TIP3   OH250959   1.955   6.820   3.709  0.2473  0.2766 -0.4610
 9823TIP3    H150960   2.025   6.788   3.653 -0.8195 -0.6563 -1.3225
 9823TIP3    H250961   1.894   6.746   3.715  1.1280 -0.3648  3.4271
 9824TIP3   OH250962   1.565   0.686   0.742 -0.1381 -0.5644 -0.2695
 9824TIP3    H150963   1.651   0.723   0.718 -0.6735  0.3150 -0.8865
 9824TIP3    H250964   1.507   0.762   0.747 -1.0774 -1.2357 -0.7154
 9825TIP3   OH250965   6.303   4.525   3.546  0.1176 -0.3646 -0.0925
 9825TIP3    H150966   6.267   4.613   3.555 -1.4012 -1.1157  1.8249
 9825TIP3    H250967   6.397   4.538   3.539 -0.0415  1.4082  0.6363
 9826TIP3   OH250968   3.625   2.142  15.571 -0.9283  0.1664  0.5436
 9826TIP3    H150969   3.684   2.115  15.500 -2.3932 -0.2846 -0.5546
 9826TIP3    H250970   3.681   2.144  15.649  0.9698  1.6177 -0.7551
 9827TIP3   OH250971   2.419   1.767   5.745  0.0885  0.0449 -0.2543
 9827TIP3    H150972   2.324   1.760   5.752 -0.0621 -0.5043 -2.2209
 9827TIP3    H250973   2.446   1.810   5.826 -1.7671 -0.2618  0.5747
 9828TIP3   OH250974   0.377   6.329   5.754 -0.0645 -0.2575 -0.2674
 9828TIP3    H150975   0.469   6.328   5.725 -0.4028 -0.9018 -1.3884
 9828TIP3    H250976   0.380   6.305   5.846  0.9080 -0.1368 -0.2572
 9829TIP3   OH250977   5.111   6.053  11.425  0.5779  0.0083 -0.1883
 9829TIP3    H150978   5.034   6.013  11.466  0.2432  1.0956  0.2938
 9829TIP3    H250979   5.183   6.031  11.484  0.0051  2.0730  1.4330
 9830TIP3   OH250980   3.112   6.091   0.595 -0.5075 -0.0773 -0.2113
 9830TIP3    H150981   3.098   6.065   0.504 -1.8866  0.1829 -0.0967
 9830TIP3    H250982   3.033   6.140   0.618 -0.3373 -0.4522  1.2424
 9831TIP3   OH250983   6.558   3.410  16.483 -0.2936 -0.1992  0.3986
 9831TIP3    H150984   6.599   3.485  16.525 -0.2233  0.4746 -0.8527
 9831TIP3    H250985   6.464   3.427  16.491 -0.3492 -1.0544  2.0118
 9832TIP3   OH250986   0.256   2.120   2.890 -0.4133  0.4650 -0.1444
 9832TIP3    H150987   0.171   2.088   2.921  0.1022 -1.3280 -0.4478
 9832TIP3    H250988   0.279   2.191   2.950 -0.4345 -1.4403  2.2815
 9833TIP3   OH250989   6.665   1.003  15.222  0.0530  0.8701  0.8849
 9833TIP3    H150990   6.725   1.026  15.293  1.2557 -0.5447  0.3847
 9833TIP3    H250991   6.714   1.022  15.142  0.5402 -1.7501  0.4501
 9834TIP3   OH250992   1.090   6.205   4.924 -0.2033 -0.2813  0.4715
 9834TIP3    H150993   1.041   6.246   4.995  0.5965  1.7705 -0.0693
 9834TIP3    H250994   1.168   6.168   4.967 -0.4327 -0.3276  0.8509
 9835TIP3   OH250995   4.096   0.840   0.197 -0.1673  0.0708 -0.4887
 9835TIP3    H150996   4.014   0.844   0.146 -0.6413 -1.3577  0.1087
 9835TIP3    H250997   4.072   0.875   0.283 -0.6113 -1.8197  0.2018
 9836TIP3   OH250998   2.634   2.781  11.000  0.3955 -0.1855 -0.1864
 9836TIP3    H150999   2.588   2.860  10.970 -0.3097 -0.3562  0.4154
 9836TIP3    H251000   2.669   2.742  10.920 -1.2580 -0.5161 -0.7803
 9837TIP3   OH251001   0.895   3.410   0.181  0.3559 -0.0798  0.0355
 9837TIP3    H151002   0.862   3.438   0.267  0.3630 -1.6236  0.5718
 9837TIP3    H251003   0.989   3.399   0.194  0.1130 -2.1293  0.4040
 9838TIP3   OH251004   0.521   0.643  16.580  0.2058  0.1054 -0.9145
 9838TIP3    H151005   0.478   0.725  16.604  1.1796  1.1214 -2.4225
 9838TIP3    H251006   0.513   0.588  16.657 -1.5335  1.1714 -0.2816
 9839TIP3   OH251007   2.980   1.822  15.782 -0.2923  0.0902 -0.3911
 9839TIP3    H151008   2.954   1.914  15.781 -5.0141 -0.9517 -0.0085
 9839TIP3    H251009   2.955   1.789  15.695  0.3494 -1.0226 -0.1798
 9840TIP3   OH251010   4.773   0.395   1.352  0.1935  0.5491 -0.0031
 9840TIP3    H151011   4.783   0.430   1.263  1.0907 -0.3524 -0.2766
 9840TIP3    H251012   4.792   0.302   1.343 -0.1528  0.3664  1.0626
 9841TIP3   OH251013   3.833   1.179   1.697 -0.3751  0.8895 -0.0895
 9841TIP3    H151014   3.750   1.131   1.700 -0.2172  0.6381  0.5302
 9841TIP3    H251015   3.808   1.268   1.673 -0.7411  0.6399 -0.6443
 9842TIP3   OH251016   2.224   3.719  10.634 -0.0507 -0.4231  0.1545
 9842TIP3    H151017   2.222   3.631  10.670  1.8717 -0.7998 -0.5171
 9842TIP3    H251018   2.254   3.707  10.543  0.2055  0.9015  0.0440
 9843TIP3   OH251019   3.527   3.095  11.808 -0.5615 -0.5402  0.2122
 9843TIP3    H151020   3.485   3.179  11.828  0.0921 -0.6837  2.3993
 9843TIP3    H251021   3.467   3.030  11.844 -1.1477 -1.0707 -1.6244
 9844TIP3   OH251022   2.593   4.040  11.951  0.3544 -0.1002 -0.3387
 9844TIP3    H151023   2.687   4.036  11.934  0.6624  0.7407  1.0228
 9844TIP3    H251024   2.583   4.007  12.041 -0.5701  0.3985 -0.2438
 9845TIP3   OH251025   2.780   3.568  15.109  0.2608  0.2985 -0.0241
 9845TIP3    H151026   2.875   3.563  15.102  0.2617 -1.8039  0.6455
 9845TIP3    H251027   2.748   3.498  15.052 -0.7460 -0.4603  1.3951
 9846TIP3   OH251028   2.865   0.696   1.682 -0.1350  0.1942 -0.1479
 9846TIP3    H151029   2.800   0.657   1.740  1.4731  0.3889  1.8841
 9846TIP3    H251030   2.847   0.790   1.686 -0.3182  0.1709 -0.3696
 9847TIP3   OH251031   1.645   3.241  15.412  0.1900  0.8938 -0.3169
 9847TIP3    H151032   1.699   3.297  15.356 -0.1320 -0.3129 -1.9133
 9847TIP3    H251033   1.692   3.158  15.416 -0.2385  0.6786  0.4774
 9848TIP3   OH251034   0.244   6.427   1.955  0.1405 -0.2578  0.5110
 9848TIP3    H151035   0.222   6.514   1.920 -0.8181 -0.2196  1.1771
 9848TIP3    H251036   0.212   6.429   2.045  0.8812 -1.0151  0.7969
 9849TIP3   OH251037   2.749   2.170  14.164  0.5845 -0.1899 -0.2663
 9849TIP3    H151038   2.841   2.164  14.191  0.1147  0.3933  1.6843
 9849TIP3    H251039   2.746   2.247  14.107  1.1705  0.4211  0.4890
 9850TIP3   OH251040   6.285   1.043  10.510  0.2833 -0.0758 -0.6203
 9850TIP3    H151041   6.239   1.121  10.541  1.4073  0.4039 -0.1052
 9850TIP3    H251042   6.239   0.970  10.552  1.0421  0.4992  1.3254
 9851TIP3   OH251043   5.121   3.418   5.638 -0.2403 -0.2860 -0.2787
 9851TIP3    H151044   5.090   3.332   5.666 -1.3440  0.1620 -0.0848
 9851TIP3    H251045   5.126   3.412   5.543 -0.6442 -0.4533 -0.2888
 9852TIP3   OH251046   3.523   2.767  14.376 -0.0120 -0.8319 -0.1535
 9852TIP3    H151047   3.558   2.856  14.366 -0.3053 -0.8720 -1.9791
 9852TIP3    H251048   3.595   2.716  14.412  0.7227 -0.2043 -0.7115
 9853TIP3   OH251049   6.475   3.030  14.169 -0.3132  0.0519  0.2542
 9853TIP3    H151050   6.510   3.025  14.258  1.2436  0.6304 -0.2994
 9853TIP3    H251051   6.505   2.950  14.127 -0.8796 -0.1264  0.1867
 9854TIP3   OH251052   2.918   4.903  11.319  0.0356  0.2315 -0.6771
 9854TIP3    H151053   2.901   4.816  11.284 -0.6109 -0.1359  0.4981
 9854TIP3    H251054   2.849   4.917  11.384  1.2810  0.8146  0.5633
 9855TIP3   OH251055   2.486   3.102   3.987  0.0366 -0.1645 -0.6267
 9855TIP3    H151056   2.572   3.136   4.012 -0.6078  1.2116 -0.1801
 9855TIP3    H251057   2.487   3.103   3.891  1.6493 -3.2265 -0.7753
 9856TIP3   OH251058   1.951   4.011  16.553 -0.4967  0.2080  0.0651
 9856TIP3    H151059   2.035   3.975  16.583 -0.0459  0.7927 -0.4671
 9856TIP3    H251060   1.898   4.018  16.632  0.5872  1.5172  0.7131
 9857TIP3   OH251061   0.304   3.285   3.401 -0.2305 -0.5981 -0.3733
 9857TIP3    H151062   0.268   3.373   3.390  2.8426  0.4847 -3.3713
 9857TIP3    H251063   0.319   3.277   3.495  0.1358  2.4030 -0.0772
 9858TIP3   OH251064   3.633   5.033   5.332 -0.4809 -1.1209  0.5445
 9858TIP3    H151065   3.709   5.055   5.278  0.1539 -1.8964  1.1138
 9858TIP3    H251066   3.594   5.118   5.353 -1.8332 -0.8190 -2.5932
 9859TIP3   OH251067   1.297   0.328  16.229  0.2434  0.2299  0.1060
 9859TIP3    H151068   1.307   0.343  16.135  0.4092 -1.2548 -0.1341
 9859TIP3    H251069   1.345   0.400  16.270  0.6132  0.6017 -0.9469
 9860TIP3   OH251070   6.548   1.463  13.629  0.4297  0.1548 -0.3517
 9860TIP3    H151071   6.475   1.508  13.672 -0.8041 -0.2240 -1.9812
 9860TIP3    H251072   6.590   1.530  13.575  1.2940  0.3536  0.5217
 9861TIP3   OH251073   1.472   4.516  13.830 -0.0503 -0.2161  0.1529
 9861TIP3    H151074   1.409   4.559  13.771  0.1650 -0.3294 -0.1622
 9861TIP3    H251075   1.520   4.455  13.774  3.1623  2.6669 -0.5910
 9862TIP3   OH251076   0.441   1.824  14.911 -0.1956  1.0207 -0.3688
 9862TIP3    H151077   0.434   1.883  14.836 -0.6264  0.5397 -0.7167
 9862TIP3    H251078   0.534   1.826  14.934  0.0892  0.5915 -1.4040
 9863TIP3   OH251079   2.735   3.465   2.351 -0.0779  0.7060 -0.0945
 9863TIP3    H151080   2.646   3.446   2.324  0.4477  0.0660 -1.4446
 9863TIP3    H251081   2.747   3.558   2.334 -0.2727  0.6438 -0.5860
 9864TIP3   OH251082   2.750   2.611  15.834 -0.2855 -0.5748 -0.2961
 9864TIP3    H151083   2.767   2.522  15.805  0.9688 -0.4374 -0.0116
 9864TIP3    H251084   2.834   2.643  15.867 -0.7253  0.6927 -0.3398
 9865TIP3   OH251085   6.406   2.302   4.798 -0.0861 -0.7326 -0.5402
 9865TIP3    H151086   6.390   2.341   4.712  0.5637 -0.5743 -0.5920
 9865TIP3    H251087   6.501   2.303   4.808 -0.1970  1.2284  1.0757
 9866TIP3   OH251088   2.063   2.557  12.369  0.8464 -0.3414  0.5345
 9866TIP3    H151089   2.072   2.641  12.416 -0.2987  0.6362 -0.9026
 9866TIP3    H251090   2.122   2.566  12.294 -0.5244 -0.1021 -0.5487
 9867TIP3   OH251091   2.908   6.495   2.471  0.0604  0.0711 -0.8572
 9867TIP3    H151092   2.959   6.491   2.390 -2.3915  1.7532 -2.6566
 9867TIP3    H251093   2.915   6.407   2.509  0.9803 -0.9067 -3.1256
 9868TIP3   OH251094   6.263   5.769   4.383  0.4836  0.6452 -0.4485
 9868TIP3    H151095   6.197   5.836   4.401  0.6789  0.7361 -0.0665
 9868TIP3    H251096   6.215   5.686   4.390  0.5372  0.6758  0.4689
 9869TIP3   OH251097   6.575   1.171   5.857  0.7174 -0.8460 -0.2465
 9869TIP3    H151098   6.529   1.216   5.928  0.7156  0.8667 -1.2667
 9869TIP3    H251099   6.657   1.141   5.897 -1.0552 -3.8069  1.5634
 9870TIP3   OH251100   4.856   0.050  15.205  0.4941 -0.3353  0.3877
 9870TIP3    H151101   4.950   0.063  15.220  0.3968 -0.1258  0.8545
 9870TIP3    H251102   4.836   0.103  15.128  0.3579  1.3155  1.5015
 9871TIP3   OH251103   3.542   0.511  14.444 -0.5922 -0.4906  0.2595
 9871TIP3    H151104   3.478   0.440  14.449  1.3201 -2.5220 -1.8833
 9871TIP3    H251105   3.544   0.535  14.352  0.8658  0.3429  0.4774
 9872TIP3   OH251106   2.673   0.045  12.499 -0.0227 -0.9033  0.0698
 9872TIP3    H151107   2.763   0.012  12.493  0.3102 -0.1197  0.6412
 9872TIP3    H251108   2.673   0.100  12.578 -0.8080 -0.2922 -0.3518
 9873TIP3   OH251109   3.123   1.792   1.183 -0.1764 -0.2665  0.5986
 9873TIP3    H151110   3.197   1.851   1.196 -0.4690  0.2135  0.1606
 9873TIP3    H251111   3.161   1.709   1.155  0.1406  0.3050 -0.7360
 9874TIP3   OH251112   6.555   4.481  16.728 -0.8432 -0.0301  0.1636
 9874TIP3    H151113   6.498   4.427  16.672 -0.5149 -0.6036  0.3743
 9874TIP3    H251114   6.638   4.435  16.729 -0.5325  0.5290  0.2922
 9875TIP3   OH251115   6.306   2.780  14.264 -0.4886  0.4093  0.0046
 9875TIP3    H151116   6.304   2.791  14.169 -1.1353 -0.6232 -0.1197
 9875TIP3    H251117   6.340   2.691  14.277 -1.0802  0.2793  0.7008
 9876TIP3   OH251118   0.370   1.059   2.090 -0.2903  0.0701 -0.6119
 9876TIP3    H151119   0.371   1.086   1.998  3.1144 -1.6707 -1.2224
 9876TIP3    H251120   0.378   0.964   2.087 -2.4642 -0.2712  1.5546
 9877TIP3   OH251121   0.418   5.367  13.621  0.0822  0.4055 -0.0120
 9877TIP3    H151122   0.509   5.379  13.595 -0.0044  0.7557 -0.1558
 9877TIP3    H251123   0.368   5.425  13.564 -0.3093 -0.3397 -0.4480
 9878TIP3   OH251124   3.183   2.816   0.054  0.4251 -0.1195  0.1455
 9878TIP3    H151125   3.176   2.748   0.122 -0.8406  1.4183  1.6520
 9878TIP3    H251126   3.115   2.879   0.077  1.5032  1.6294 -1.2435
 9879TIP3   OH251127   1.597   0.438   0.883  0.3492 -0.1458 -0.3192
 9879TIP3    H151128   1.523   0.464   0.938 -0.1066  0.2000 -1.0858
 9879TIP3    H251129   1.605   0.507   0.818  1.8384  0.2107  0.1924
 9880TIP3   OH251130   0.565   6.284   5.093  0.0782  0.1157  0.3207
 9880TIP3    H151131   0.477   6.247   5.082  0.8166 -1.2915 -1.3824
 9880TIP3    H251132   0.564   6.364   5.040  0.4816 -1.1863 -1.7804
 9881TIP3   OH251133   6.223   0.813   4.086 -0.1802 -0.1477  0.0297
 9881TIP3    H151134   6.136   0.832   4.121 -0.7165 -0.8092 -0.8983
 9881TIP3    H251135   6.207   0.761   4.007  1.0552 -0.2163 -0.2064
 9882TIP3   OH251136   4.464   3.207  12.616  0.2575  0.1570  0.5181
 9882TIP3    H151137   4.523   3.194  12.542 -0.6121  1.0446 -0.3539
 9882TIP3    H251138   4.402   3.135  12.611 -0.3587  0.7213 -0.1840
 9883TIP3   OH251139   1.852   0.348   0.748 -0.4462  0.3853 -0.4987
 9883TIP3    H151140   1.901   0.400   0.685  0.1563 -0.8495 -1.0870
 9883TIP3    H251141   1.791   0.410   0.789  0.0881  1.4822 -1.3227
 9884TIP3   OH251142   5.951   4.619  14.492  0.0375 -0.3762 -0.6115
 9884TIP3    H151143   5.976   4.536  14.534  0.6171 -0.7703 -1.6931
 9884TIP3    H251144   5.989   4.687  14.548  3.1627 -0.9339 -1.8491
 9885TIP3   OH251145   3.285   0.408  14.399 -0.7950 -0.0182  0.1028
 9885TIP3    H151146   3.263   0.490  14.355 -4.5037 -1.4442 -1.0701
 9885TIP3    H251147   3.256   0.340  14.339  1.3494 -2.2567  1.4265
 9886TIP3   OH251148   2.872   2.045   5.638 -0.1365  0.0138 -0.0483
 9886TIP3    H151149   2.802   1.992   5.600 -0.5998  0.7717 -0.2824
 9886TIP3    H251150   2.828   2.123   5.671  0.5289  0.2546  0.2884
 9887TIP3   OH251151   6.430   4.294  14.532  0.1695  0.3646 -0.2153
 9887TIP3    H151152   6.382   4.304  14.614  0.1386 -0.2881 -0.1498
 9887TIP3    H251153   6.363   4.277  14.466  0.1144  1.7252 -0.5440
 9888TIP3   OH251154   4.514   3.394  16.532  1.0351  0.4901  0.4302
 9888TIP3    H151155   4.511   3.329  16.462  0.1379  0.9028  0.0779
 9888TIP3    H251156   4.505   3.342  16.612  0.8129  0.1366  0.1805
 9889TIP3   OH251157   2.042   4.102  16.295  0.0597 -0.5803  0.3715
 9889TIP3    H151158   2.137   4.092  16.283  0.1785  0.5377  0.3202
 9889TIP3    H251159   2.031   4.102  16.390  0.2274  0.2587  0.3946
 9890TIP3   OH251160   1.004   5.762  10.622 -0.3792 -0.3773 -0.5010
 9890TIP3    H151161   0.949   5.685  10.612 -0.8813 -0.4170  1.8510
 9890TIP3    H251162   1.075   5.733  10.680  0.4192  0.4867 -1.0061
 9891TIP3   OH251163   5.625   2.933  11.011 -0.5316  0.4382 -0.3511
 9891TIP3    H151164   5.635   2.843  10.979 -0.8681  0.1327  0.3819
 9891TIP3    H251165   5.687   2.984  10.957  1.4626 -0.6136  0.8129
 9892TIP3   OH251166   2.650   4.364  13.144  0.3298  0.2798  0.1969
 9892TIP3    H151167   2.682   4.350  13.054  1.0416 -2.5548  0.8031
 9892TIP3    H251168   2.727   4.397  13.191  0.8145 -1.0861  0.3932
 9893TIP3   OH251169   5.864   1.205  16.860 -0.7967 -0.7068  0.0320
 9893TIP3    H151170   5.930   1.273  16.876 -1.6930 -0.4349  3.1936
 9893TIP3    H251171   5.898   1.128  16.906 -0.9733 -1.6843 -1.4276
 9894TIP3   OH251172   5.633   1.323   3.038 -0.0374  0.2797 -0.1140
 9894TIP3    H151173   5.661   1.414   3.051 -0.2848  0.1750  1.3079
 9894TIP3    H251174   5.539   1.330   3.023 -0.0472  0.2571 -0.0617
 9895TIP3   OH251175   6.472   5.200  14.909 -0.2771 -0.1835 -0.3947
 9895TIP3    H151176   6.497   5.131  14.847 -0.6449  0.2122 -0.9983
 9895TIP3    H251177   6.395   5.164  14.953 -0.9840  0.1638 -1.3089
 9896TIP3   OH251178   1.070   2.362   5.522 -0.0751  0.2059  0.1480
 9896TIP3    H151179   1.125   2.425   5.568  0.2514  0.3660 -0.4551
 9896TIP3    H251180   1.131   2.308   5.472 -0.4732  0.4737 -0.6348
 9897TIP3   OH251181   6.722   1.699  13.825  0.0791 -0.0677 -0.1252
 9897TIP3    H151182   6.758   1.788  13.824  0.3585 -0.1565  0.8498
 9897TIP3    H251183   6.669   1.694  13.746 -0.4511  1.1949  0.1166
 9898TIP3   OH251184   4.507   5.410  15.676 -0.5225 -0.9252 -0.4894
 9898TIP3    H151185   4.523   5.399  15.583 -1.0768  1.0611 -0.8663
 9898TIP3    H251186   4.411   5.418  15.683 -0.5346 -1.5966  0.3284
 9899TIP3   OH251187   4.930   2.785  14.858 -0.1682  0.0121  0.2814
 9899TIP3    H151188   4.911   2.826  14.773  0.5730 -0.6696 -0.2175
 9899TIP3    H251189   4.850   2.737  14.879  0.5293 -1.9659 -1.3014
 9900TIP3   OH251190   0.892   4.474   1.174  0.2461 -0.3441 -0.1315
 9900TIP3    H151191   0.873   4.568   1.179 -0.2486 -0.4343 -0.2708
 9900TIP3    H251192   0.969   4.469   1.117  1.0903  0.0701  0.9230
 9901TIP3   OH251193   3.124   4.157  12.925 -0.4758  0.6334 -0.3814
 9901TIP3    H151194   3.120   4.097  12.999  0.1106  0.1652 -0.7219
 9901TIP3    H251195   3.178   4.112  12.860 -0.7410  1.1645 -0.9785
 9902TIP3   OH251196   2.514   1.851  14.306  0.4565  0.4865 -0.0119
 9902TIP3    H151197   2.565   1.774  14.332  0.6011  0.6928  0.3356
 9902TIP3    H251198   2.428   1.816  14.285 -0.1984  0.4630  2.3779
 9903TIP3   OH251199   4.188   4.567   1.501 -0.3151  0.2426  0.0940
 9903TIP3    H151200   4.123   4.529   1.442  0.8774 -1.4655 -0.1731
 9903TIP3    H251201   4.190   4.660   1.477 -1.0688 -0.0889 -1.3973
 9904TIP3   OH251202   4.811   1.688  14.936 -0.1349 -0.0916  0.2489
 9904TIP3    H151203   4.800   1.753  14.867  2.2812 -0.6436 -0.7672
 9904TIP3    H251204   4.746   1.620  14.916 -0.6422  0.5920 -0.4419
 9905TIP3   OH251205   0.437   3.577  16.426 -0.2746  0.1047 -0.1644
 9905TIP3    H151206   0.414   3.484  16.423 -0.6733  0.1592  0.6946
 9905TIP3    H251207   0.526   3.579  16.461 -0.9406  0.1038  1.6242
 9906TIP3   OH251208   0.830   0.230  15.959  0.2344 -0.6805 -0.0580
 9906TIP3    H151209   0.878   0.190  15.887 -0.2011  0.1614 -0.8350
 9906TIP3    H251210   0.758   0.170  15.977 -2.5704  1.2049 -3.5772
 9907TIP3   OH251211   4.480   6.463   0.140 -0.4714 -0.2065 -0.3379
 9907TIP3    H151212   4.522   6.396   0.194 -0.7703  0.8733  1.3126
 9907TIP3    H251213   4.551   6.499   0.086  0.0218 -0.7213 -0.0370
 9908TIP3   OH251214   2.900   6.344   4.435 -0.2950 -0.0537 -0.0268
 9908TIP3    H151215   2.877   6.255   4.463 -0.7485  0.2195  0.4944
 9908TIP3    H251216   2.845   6.401   4.489  0.6404  0.5777  0.2804
 9909TIP3   OH251217   1.139   1.599   3.479  0.1093  0.9420  0.3940
 9909TIP3    H151218   1.138   1.527   3.543 -0.7373  0.6993  0.1205
 9909TIP3    H251219   1.203   1.661   3.514  2.0515 -0.6603 -0.1709
 9910TIP3   OH251220   1.379   0.250  13.044  0.1370  0.4519 -0.3199
 9910TIP3    H151221   1.464   0.236  13.001  0.9625 -0.1063  1.4033
 9910TIP3    H251222   1.316   0.209  12.985  1.2377 -0.3774 -0.9749
 9911TIP3   OH251223   5.161   4.098  17.127  0.7313 -0.2891  0.3079
 9911TIP3    H151224   5.103   4.024  17.140 -0.3385  0.3958 -0.4278
 9911TIP3    H251225   5.169   4.138  17.214 -0.4613  0.0000  0.2982
 9912TIP3   OH251226   6.457   4.999   5.188 -0.9796 -0.0447  0.0956
 9912TIP3    H151227   6.416   4.962   5.110 -1.7899 -0.9271  0.9147
 9912TIP3    H251228   6.385   5.037   5.238 -0.1646  2.9419 -0.8041
 9913TIP3   OH251229   3.055   1.341  12.723  0.4189 -0.2424 -0.1134
 9913TIP3    H151230   3.002   1.347  12.643  0.7110  1.2758 -0.2345
 9913TIP3    H251231   3.008   1.395  12.786  1.5787  0.8093 -0.1071
 9914TIP3   OH251232   6.278   5.034  12.752 -0.5670 -0.2393 -0.0199
 9914TIP3    H151233   6.270   4.982  12.832 -2.1054  1.9722  1.3811
 9914TIP3    H251234   6.366   5.071  12.757  0.1033 -1.6703 -0.4444
 9915TIP3   OH251235   5.098   2.769  16.919 -0.6427  0.1285  0.2028
 9915TIP3    H151236   5.106   2.848  16.866 -0.5709  0.3561  0.5538
 9915TIP3    H251237   5.020   2.725  16.884 -0.7774  0.4330  0.1122
 9916TIP3   OH251238   5.076   2.729  14.025 -0.2637 -0.1705  0.6059
 9916TIP3    H151239   5.109   2.684  14.103  1.6686 -0.8117 -0.5035
 9916TIP3    H251240   5.001   2.678  13.997  0.3887 -1.2624  0.8019
 9917TIP3   OH251241   1.595   1.491   1.447  0.1811  0.4595  0.0886
 9917TIP3    H151242   1.637   1.577   1.441  1.3438 -0.1662 -1.0117
 9917TIP3    H251243   1.656   1.439   1.499 -0.5655  0.2979  0.8279
 9918TIP3   OH251244   1.553   6.441  16.482 -0.0691  0.4486  0.3753
 9918TIP3    H151245   1.634   6.395  16.459 -0.7779 -1.2746  1.1586
 9918TIP3    H251246   1.550   6.515  16.421 -0.0548 -1.8651 -2.6286
 9919TIP3   OH251247   0.481   1.881   6.098 -0.2879 -0.0965 -0.0189
 9919TIP3    H151248   0.487   1.951   6.164 -3.7576 -0.5489  1.0030
 9919TIP3    H251249   0.405   1.906   6.045 -0.2079 -1.9465 -1.0687
 9920TIP3   OH251250   3.880   6.383  11.730 -0.4691 -0.4635 -0.2020
 9920TIP3    H151251   3.879   6.411  11.822 -2.0076 -0.7196 -0.1176
 9920TIP3    H251252   3.967   6.408  11.699 -0.7587  1.8785  0.6426
 9921TIP3   OH251253   1.051   5.999  12.211 -0.0755  0.1899 -0.4577
 9921TIP3    H151254   1.005   6.015  12.128  0.6013  2.9486 -0.4207
 9921TIP3    H251255   1.059   6.086  12.250  4.2644 -0.1898  0.0116
 9922TIP3   OH251256   2.968   3.920  15.511  0.3053 -0.4710 -0.2436
 9922TIP3    H151257   3.038   3.896  15.451  0.7576 -0.7940  0.3974
 9922TIP3    H251258   2.911   3.978  15.460 -0.0047 -1.7133 -1.3712
 9923TIP3   OH251259   6.527   2.655   5.943 -0.4125  0.6563  0.0005
 9923TIP3    H151260   6.612   2.696   5.954  0.0473 -0.5309  1.0808
 9923TIP3    H251261   6.464   2.726   5.956  0.3708  1.2376  0.7131
 9924TIP3   OH251262   1.648   6.311  10.926  0.2574 -0.9498 -0.2389
 9924TIP3    H151263   1.627   6.220  10.903 -1.1149 -0.5338 -0.7666
 9924TIP3    H251264   1.575   6.338  10.983  0.2366  0.0548 -0.7288
 9925TIP3   OH251265   6.477   0.167   5.820 -0.1406 -0.3142 -0.2745
 9925TIP3    H151266   6.468   0.127   5.734 -2.0599  1.9042 -1.2082
 9925TIP3    H251267   6.567   0.200   5.822 -0.1103 -0.2899 -1.4790
 9926TIP3   OH251268   4.842   4.786   0.728  0.1610  0.0696  0.6461
 9926TIP3    H151269   4.827   4.765   0.636 -0.8715 -0.1901  0.8655
 9926TIP3    H251270   4.811   4.709   0.776  1.1674 -0.0144  1.1974
 9927TIP3   OH251271   3.131   1.705  14.020  0.3151 -0.4056 -0.3774
 9927TIP3    H151272   3.127   1.738  13.931  1.1370 -0.4187 -0.4272
 9927TIP3    H251273   3.106   1.613  14.013 -1.7952  0.0986 -0.2630
 9928TIP3   OH251274   0.756   0.124  16.465  0.1561 -0.8099 -0.7408
 9928TIP3    H151275   0.667   0.135  16.432 -0.4821 -2.3905  0.3391
 9928TIP3    H251276   0.785   0.040  16.431  0.7004 -0.9573  0.0500
 9929TIP3   OH251277   3.897   2.451  15.658 -0.1397 -0.3303  0.5824
 9929TIP3    H151278   3.936   2.412  15.737 -0.3934 -1.2532  0.2617
 9929TIP3    H251279   3.917   2.545  15.666  2.9897 -0.8083 -0.0169
 9930TIP3   OH251280   2.261   4.921  11.721 -0.0147  0.2228  0.1024
 9930TIP3    H151281   2.276   4.834  11.683 -0.6237  0.5971 -1.0695
 9930TIP3    H251282   2.166   4.933  11.714  0.1718  1.4091 -0.7712
 9931TIP3   OH251283   0.155   0.427   4.750 -0.7957 -0.4584 -0.1334
 9931TIP3    H151284   0.191   0.471   4.826 -0.4275 -0.7901 -0.1114
 9931TIP3    H251285   0.061   0.420   4.768 -0.8895  0.4618 -0.2148
 9932TIP3   OH251286   1.939   5.204   0.847 -0.3027  0.2043 -0.4106
 9932TIP3    H151287   1.871   5.137   0.858 -1.2035  0.7180 -2.2855
 9932TIP3    H251288   2.002   5.186   0.916 -2.8072  0.3147  2.1105
 9933TIP3   OH251289   2.788   6.394   1.088  0.2003 -0.0990  0.0504
 9933TIP3    H151290   2.739   6.428   1.163 -0.7949  0.5104 -0.8540
 9933TIP3    H251291   2.767   6.301   1.086 -0.1084 -0.0372  0.2840
 9934TIP3   OH251292   4.044   2.661   1.020 -0.2232 -0.6689 -0.3385
 9934TIP3    H151293   4.063   2.741   1.069 -2.5577 -1.1844  1.6197
 9934TIP3    H251294   3.980   2.689   0.955  0.5947 -0.5628 -1.1094
 9935TIP3   OH251295   0.810   4.575   3.909 -0.2933  0.3786 -0.2662
 9935TIP3    H151296   0.744   4.603   3.973  1.1790  2.3729  0.5064
 9935TIP3    H251297   0.888   4.560   3.962 -0.0263 -1.7866 -1.1866
 9936TIP3   OH251298   3.571   0.576   4.875  0.0227 -0.1857 -0.3532
 9936TIP3    H151299   3.618   0.572   4.792  0.1534 -0.8221 -0.2527
 9936TIP3    H251300   3.633   0.544   4.939 -0.6828 -1.4945 -0.2860
 9937TIP3   OH251301   1.400   3.153   4.731  0.1395 -0.2109  0.1127
 9937TIP3    H151302   1.369   3.226   4.678 -0.6975  0.3456  1.3039
 9937TIP3    H251303   1.449   3.098   4.671 -0.5472  0.5262 -1.1622
 9938TIP3   OH251304   5.216   3.119  14.067 -0.5063 -0.0611 -0.0376
 9938TIP3    H151305   5.208   3.172  13.987 -2.2751 -1.9868 -1.2585
 9938TIP3    H251306   5.251   3.035  14.037  0.6736 -0.1802  1.5631
 9939TIP3   OH251307   5.442   4.322   5.868 -0.7537 -0.3667 -0.1293
 9939TIP3    H151308   5.500   4.327   5.944 -2.7796  1.8416  1.4284
 9939TIP3    H251309   5.501   4.312   5.793  1.5056  0.0046  1.4996
 9940TIP3   OH251310   5.545   2.505  15.437  0.0084 -0.2145  0.2151
 9940TIP3    H151311   5.477   2.527  15.500  0.2576 -0.7241  0.6650
 9940TIP3    H251312   5.543   2.410  15.431  0.0037 -0.1750 -0.5281
 9941TIP3   OH251313   4.975   3.517  15.719 -0.1348 -0.1679  0.2125
 9941TIP3    H151314   4.969   3.477  15.633 -2.2054  1.0808 -0.2912
 9941TIP3    H251315   4.888   3.506  15.757 -0.6744  3.1634  0.2869
 9942TIP3   OH251316   6.014   1.656  12.266 -0.1548  0.1755 -0.1901
 9942TIP3    H151317   5.992   1.566  12.292  3.4762 -1.1156 -1.0788
 9942TIP3    H251318   6.018   1.653  12.170 -1.6038  1.8002 -0.3546
 9943TIP3   OH251319   5.505   6.010   4.864 -0.4649  0.2613  0.4261
 9943TIP3    H151320   5.553   6.067   4.804  0.0776  0.4361  1.0151
 9943TIP3    H251321   5.454   5.952   4.807 -1.2266  1.4995 -0.1694
 9944TIP3   OH251322   0.888   4.283   5.117  0.4413 -0.1207  0.5893
 9944TIP3    H151323   0.919   4.274   5.207  2.0552 -2.1506 -0.0836
 9944TIP3    H251324   0.966   4.309   5.068  0.3246 -1.8696 -0.6153
 9945TIP3   OH251325   3.986   1.341  16.810 -0.0963  0.2675  0.2405
 9945TIP3    H151326   4.061   1.293  16.775 -0.9315  0.9018 -2.6348
 9945TIP3    H251327   3.943   1.279  16.869  0.7300 -1.3309 -0.7761
 9946TIP3   OH251328   1.028   6.599   3.537 -0.3997  0.4166  0.1252
 9946TIP3    H151329   1.061   6.688   3.550  0.5893 -0.0219  0.8317
 9946TIP3    H251330   1.080   6.564   3.465 -0.6593  0.3573 -0.0326
 9947TIP3   OH251331   3.675   6.135   4.201 -0.3035  0.0534 -0.1462
 9947TIP3    H151332   3.619   6.165   4.272 -0.2300 -0.6241  0.2137
 9947TIP3    H251333   3.676   6.040   4.210 -0.3256 -0.0445 -1.0882
 9948TIP3   OH251334   6.625   4.817   1.893 -0.0403 -0.3912  0.3517
 9948TIP3    H151335   6.584   4.837   1.809 -0.1325  0.8012  0.6527
 9948TIP3    H251336   6.711   4.781   1.870  0.1286  0.3728 -0.2605
 9949TIP3   OH251337   1.880   3.449  13.323 -0.3346 -0.1072 -0.5411
 9949TIP3    H151338   1.848   3.535  13.298 -1.1035  0.2383  1.4105
 9949TIP3    H251339   1.876   3.397  13.243 -2.8743  0.8153 -1.1136
 9950TIP3   OH251340   6.445   1.185  16.786 -0.1878 -0.1651  0.8627
 9950TIP3    H151341   6.437   1.103  16.737  1.3127  0.0552  0.1906
 9950TIP3    H251342   6.354   1.210  16.804 -0.6985 -2.8411  2.6168
 9951TIP3   OH251343   0.448   4.209  14.328  0.8509  0.2585 -0.4423
 9951TIP3    H151344   0.438   4.221  14.234  1.4830 -3.2978 -1.0831
 9951TIP3    H251345   0.542   4.218  14.343  1.3327 -2.9636 -0.9297
 9952TIP3   OH251346   0.537   2.870   3.898 -0.2489  0.0892 -0.4646
 9952TIP3    H151347   0.609   2.852   3.838 -0.6019 -0.2122 -0.8106
 9952TIP3    H251348   0.578   2.882   3.983  0.1545 -0.7772 -0.5286
 9953TIP3   OH251349   2.316   5.045   6.197  0.2501 -0.7543  0.3910
 9953TIP3    H151350   2.225   5.014   6.197  0.0338 -0.3890  3.1332
 9953TIP3    H251351   2.369   4.966   6.197 -0.0872 -0.9835 -0.0904
 9954TIP3   OH251352   5.786   0.919  15.738 -0.7806 -0.4630  0.2580
 9954TIP3    H151353   5.821   1.000  15.700  2.0531 -1.7469 -0.0716
 9954TIP3    H251354   5.717   0.893  15.676 -0.1871  0.5089 -0.8752
 9955TIP3   OH251355   6.192   2.382   3.942 -0.0273  0.2373  0.1582
 9955TIP3    H151356   6.232   2.464   3.971  1.5725 -0.2836 -0.4276
 9955TIP3    H251357   6.193   2.327   4.020  0.2424  0.2966  0.1995
 9956TIP3   OH251358   1.247   5.264  14.433 -0.1478 -0.0724 -0.0940
 9956TIP3    H151359   1.176   5.200  14.435 -0.5638  0.3946  0.3865
 9956TIP3    H251360   1.222   5.326  14.364 -0.4772  0.3926  0.4393
 9957TIP3   OH251361   4.304   0.670  11.760  0.6883 -0.0875  0.0377
 9957TIP3    H151362   4.340   0.678  11.848  1.6353  1.8639 -0.4703
 9957TIP3    H251363   4.265   0.582  11.758 -0.2150  0.1524  2.6832
 9958TIP3   OH251364   4.376   0.249  12.000  0.6843  0.1897 -0.5278
 9958TIP3    H151365   4.452   0.234  11.943 -0.5927 -1.3108 -1.9228
 9958TIP3    H251366   4.308   0.192  11.965 -0.5025 -0.0134  1.9078
 9959TIP3   OH251367   0.613   3.229   2.296 -0.2147 -0.1720  0.2420
 9959TIP3    H151368   0.519   3.228   2.278 -0.3115  0.9280  0.5804
 9959TIP3    H251369   0.642   3.317   2.269  0.3118  0.2350  2.0047
 9960TIP3   OH251370   5.876   1.809   1.938 -0.3768 -0.1125  0.2156
 9960TIP3    H151371   5.819   1.811   1.861  1.4497  3.2086 -1.2516
 9960TIP3    H251372   5.821   1.838   2.010 -1.3390 -0.2483 -0.4425
 9961TIP3   OH251373   6.488   4.149  13.344 -0.4519  0.2344 -0.1690
 9961TIP3    H151374   6.534   4.214  13.398  0.0808 -1.5890  1.6879
 9961TIP3    H251375   6.396   4.176  13.348  0.0779  2.6804 -2.1425
 9962TIP3   OH251376   6.698   6.130   3.468 -0.1783  0.4317 -0.0521
 9962TIP3    H151377   6.730   6.204   3.520 -0.2237 -0.9657  2.1059
 9962TIP3    H251378   6.775   6.096   3.424  0.0660  1.0428 -0.0982
 9963TIP3   OH251379   4.513   6.303   5.859 -0.3843  0.1191  0.1209
 9963TIP3    H151380   4.447   6.269   5.920  1.1929  0.7762  2.2745
 9963TIP3    H251381   4.568   6.227   5.839 -0.6728 -0.0038 -0.2448
 9964TIP3   OH251382   4.663   6.268  16.380  0.2465 -0.0274  0.2558
 9964TIP3    H151383   4.592   6.226  16.331  0.1726  2.1301 -1.6386
 9964TIP3    H251384   4.628   6.354  16.404  1.2358 -0.0364  1.9089
 9965TIP3   OH251385   5.526   6.298  15.237  0.2374 -0.2577  0.1677
 9965TIP3    H151386   5.476   6.310  15.318 -0.0570  1.7746 -0.2616
 9965TIP3    H251387   5.586   6.227  15.256 -0.6606 -0.6298  1.7655
 9966TIP3   OH251388   6.752   5.921   4.437  0.0282 -0.1625  0.6490
 9966TIP3    H151389   6.672   5.879   4.404  0.5210 -0.0592 -0.7397
 9966TIP3    H251390   6.750   5.904   4.532 -1.0925 -1.0798  0.4934
 9967TIP3   OH251391   6.125   4.122  13.158 -0.4705  0.5193 -0.3089
 9967TIP3    H151392   6.180   4.057  13.203  0.2827  0.9560 -0.5779
 9967TIP3    H251393   6.149   4.114  13.066 -0.0032  1.5042 -0.2889
 9968TIP3   OH251394   0.787   0.337   6.282  0.3239 -0.4742  0.1498
 9968TIP3    H151395   0.697   0.306   6.280 -0.2286  1.0301  0.5879
 9968TIP3    H251396   0.822   0.305   6.365  0.5441 -1.9408 -0.4855
 9969TIP3   OH251397   5.001   6.824   2.596 -0.4268  0.2629  0.1787
 9969TIP3    H151398   5.081   6.851   2.642 -0.0505  0.3554 -0.5025
 9969TIP3    H251399   4.930   6.856   2.650  0.0057  2.1214 -0.2771
 9970TIP3   OH251400   1.472   2.642   0.166 -0.0273 -0.3007  0.2402
 9970TIP3    H151401   1.508   2.581   0.101 -0.3639  1.0580 -1.2911
 9970TIP3    H251402   1.542   2.705   0.182 -0.7439  0.7820 -0.7000
 9971TIP3   OH251403   6.730   1.604  16.883 -0.0344 -0.1896 -0.3914
 9971TIP3    H151404   6.730   1.571  16.973  3.0208 -1.2977 -0.6703
 9971TIP3    H251405   6.656   1.560  16.841 -0.4528 -1.0237  1.1475
 9972TIP3   OH251406   2.859   2.996   0.562 -0.1574 -0.6574  0.2156
 9972TIP3    H151407   2.881   2.904   0.550 -0.4055 -1.1876  3.1050
 9972TIP3    H251408   2.943   3.038   0.579 -0.0046 -0.2281 -1.4084
 9973TIP3   OH251409   6.432   1.352  11.618 -0.0543 -0.1230  0.0893
 9973TIP3    H151410   6.442   1.375  11.526  1.6867  0.9145  0.4823
 9973TIP3    H251411   6.340   1.330  11.628 -0.4932  0.7507 -1.6923
 9974TIP3   OH251412   5.648   3.861  16.901  0.4974  0.2980 -0.4266
 9974TIP3    H151413   5.648   3.766  16.914  0.0485  0.4451  0.7481
 9974TIP3    H251414   5.634   3.897  16.988  2.2277  1.4901 -0.5820
 9975TIP3   OH251415   4.936   1.184   5.372  0.2329 -0.3240  0.2586
 9975TIP3    H151416   4.924   1.134   5.453 -0.6825 -0.0278  0.3172
 9975TIP3    H251417   4.931   1.118   5.303 -1.9487 -0.2582  0.2711
 9976TIP3   OH251418   4.282   4.642  11.143 -0.5361  0.6682 -0.2036
 9976TIP3    H151419   4.293   4.732  11.110 -1.8358  1.2563  0.8573
 9976TIP3    H251420   4.190   4.622  11.125 -0.8864  0.4504  1.6355
 9977TIP3   OH251421   4.973   2.238  13.709  0.0524 -0.2148  0.1275
 9977TIP3    H151422   5.033   2.177  13.753 -0.3404 -0.8985 -0.2760
 9977TIP3    H251423   5.013   2.253  13.623  1.2063  1.6920  0.9212
 9978TIP3   OH251424   4.331   4.910   3.273 -0.2472  0.4146 -0.6421
 9978TIP3    H151425   4.390   4.985   3.274 -2.0546  1.9001  0.6275
 9978TIP3    H251426   4.292   4.909   3.360 -1.4930 -1.0057 -1.1778
 9979TIP3   OH251427   5.624   0.621   0.166  0.3784  0.0739  0.1141
 9979TIP3    H151428   5.557   0.616   0.098  1.0128 -1.0594 -0.4558
 9979TIP3    H251429   5.593   0.690   0.225 -0.7872  0.2440 -0.6610
 9980TIP3   OH251430   5.487   0.376   5.713 -0.0279  0.2001  0.9961
 9980TIP3    H151431   5.451   0.289   5.694 -1.4904  0.6141  1.7070
 9980TIP3    H251432   5.412   0.435   5.707  0.9791  1.4514  0.3596
 9981TIP3   OH251433   0.438   6.365   5.372 -0.1725 -0.0884  0.3924
 9981TIP3    H151434   0.459   6.271   5.374  0.5528  0.0741  1.2818
 9981TIP3    H251435   0.504   6.405   5.428 -2.3550  0.5732  2.6750
 9982TIP3   OH251436   0.267   5.583  13.507 -0.6426  0.4427  0.1319
 9982TIP3    H151437   0.193   5.555  13.560 -0.7595 -0.0006 -0.2548
 9982TIP3    H251438   0.227   5.618  13.427 -0.4383  0.1936 -0.0819
 9983TIP3   OH251439   3.076   2.957   0.338  0.3362 -0.2964 -0.1792
 9983TIP3    H151440   3.050   3.021   0.272  1.4415 -0.2206 -0.5653
 9983TIP3    H251441   3.167   2.978   0.358  1.1331 -2.4270 -1.1745
 9984TIP3   OH251442   5.125   3.154   0.818  0.2984 -0.1624 -0.0812
 9984TIP3    H151443   5.108   3.199   0.902 -0.0244  0.8730 -0.6763
 9984TIP3    H251444   5.191   3.208   0.775 -0.5740  0.1218 -1.0987
 9985TIP3   OH251445   2.641   0.407  13.677 -0.4577  0.7258  0.5644
 9985TIP3    H151446   2.702   0.451  13.737  2.2740 -1.7027 -0.2262
 9985TIP3    H251447   2.573   0.372  13.734  0.7846  0.5113  1.9772
 9986TIP3   OH251448   4.852   1.209  14.023 -0.1351  1.0118 -0.0346
 9986TIP3    H151449   4.833   1.115  14.018  1.5774  0.6059  0.5247
 9986TIP3    H251450   4.794   1.242  14.091  1.4372 -0.2968  2.0604
 9987TIP3   OH251451   2.679   2.974   0.334  0.0004  0.5951  0.6098
 9987TIP3    H151452   2.764   2.939   0.305 -1.3713 -1.5155 -1.1574
 9987TIP3    H251453   2.616   2.940   0.271 -2.5225  0.0413  3.2182
 9988TIP3   OH251454   6.256   0.043  13.161  0.3284 -0.4602 -0.1417
 9988TIP3    H151455   6.269   0.102  13.235  0.5199  0.1068 -0.6296
 9988TIP3    H251456   6.258   0.099  13.084 -1.4178 -0.8191 -0.4952
 9989TIP3   OH251457   0.190   3.544   5.572  0.4950 -0.2352  0.2398
 9989TIP3    H151458   0.129   3.616   5.558 -1.1766 -1.5921  0.2424
 9989TIP3    H251459   0.277   3.586   5.574 -0.4359  1.7881  0.6121
 9990TIP3   OH251460   2.077   4.385  13.991  0.2442  0.0244 -0.2283
 9990TIP3    H151461   1.993   4.409  13.952  1.7075  2.5327 -2.0985
 9990TIP3    H251462   2.099   4.302  13.950 -0.7415 -0.0482 -0.6381
 9991TIP3   OH251463   5.914   6.400   6.279  0.7259 -0.3085  0.2696
 9991TIP3    H151464   5.946   6.381   6.191  0.6318 -0.4615  0.2689
 9991TIP3    H251465   5.904   6.495   6.281 -0.3580 -0.3982 -0.2575
 9992TIP3   OH251466   4.914   2.700  14.352 -0.1015 -0.4298  0.0839
 9992TIP3    H151467   5.001   2.741  14.351  0.1094 -0.8749 -0.0492
 9992TIP3    H251468   4.931   2.609  14.329 -0.7559 -0.2539 -1.1223
 9993TIP3   OH251469   3.488   1.556   0.839 -0.0288 -0.0128 -0.4797
 9993TIP3    H151470   3.580   1.560   0.813 -0.5589 -0.6029 -2.6909
 9993TIP3    H251471   3.471   1.638   0.885  1.0876  1.0893 -1.9597
 9994TIP3   OH251472   4.232   3.156  14.146 -0.6948 -0.2952 -0.2437
 9994TIP3    H151473   4.256   3.071  14.182 -0.2353  0.9986  2.8773
 9994TIP3    H251474   4.313   3.207  14.148 -1.5291  1.1037  0.9410
 9995TIP3   OH251475   1.253   2.388   2.875  0.1573 -0.0710 -0.0058
 9995TIP3    H151476   1.176   2.349   2.916  0.5597 -1.2651 -0.3460
 9995TIP3    H251477   1.308   2.313   2.851  0.1935  0.6115 -2.2285
 9996TIP3   OH251478   3.064   6.728  16.447  0.0991  0.7031  0.2074
 9996TIP3    H151479   3.130   6.677  16.402  0.7927  1.9265 -0.2204
 9996TIP3    H251480   2.985   6.719  16.393  0.8590  1.9780 -1.2010
 9997TIP3   OH251481   5.954   5.731   0.188 -0.5204 -0.4106 -0.5765
 9997TIP3    H151482   6.018   5.725   0.259  0.9680  0.5327 -1.7911
 9997TIP3    H251483   5.925   5.640   0.174 -0.2662 -0.7095  0.6904
 9998TIP3   OH251484   6.734   2.678   1.364 -0.3738 -0.5715  0.6704
 9998TIP3    H151485   6.687   2.668   1.282  0.5919 -0.7114  0.1207
 9998TIP3    H251486   6.687   2.748   1.410 -0.5571 -0.0505 -0.2771
 9999TIP3   OH251487   3.578   4.566   4.891 -0.1441 -0.4598  0.6623
 9999TIP3    H151488   3.547   4.621   4.819  0.6203  1.1573  1.5081
 9999TIP3    H251489   3.520   4.588   4.964  0.6750 -0.1641  1.2316
10000TIP3   OH251490   1.781   6.587  11.740 -0.2890  1.0588  0.1494
10000TIP3    H151491   1.792   6.551  11.652  2.1239 -1.2779  1.2712
10000TIP3    H251492   1.855   6.646  11.751  0.0160  0.5563  0.9073
10001TIP3   OH251493   3.666   4.717  16.533  0.8460 -0.6053 -0.1706
10001TIP3    H151494   3.760   4.737  16.541  0.7309  0.0687 -0.3715
10001TIP3    H251495   3.634   4.715  16.623  0.9796 -0.4436 -0.1185
10002TIP3   OH251496   3.533   0.835  13.966 -0.1750 -0.4936  0.4932
10002TIP3    H151497   3.440   0.857  13.960 -0.2604 -0.9458  0.1213
10002TIP3    H251498   3.578   0.917  13.946 -0.4957 -0.3951  0.1569
10003TIP3   OH251499   0.210   1.000   1.203  0.3581 -0.1096 -0.1131
10003TIP3    H151500   0.239   1.009   1.294  1.4314  2.0016 -0.6154
10003TIP3    H251501   0.116   1.019   1.206 -0.0944 -2.1546  0.8027
10004TIP3   OH251502   5.412   3.018   1.956  0.8999  0.0886 -0.5809
10004TIP3    H151503   5.377   3.016   1.867  0.5025  2.0200 -0.5000
10004TIP3    H251504   5.481   3.084   1.953  2.7354 -1.7192 -0.0666
10005TIP3   OH251505   0.946   6.276   1.121 -0.3275  0.6699 -0.5763
10005TIP3    H151506   1.041   6.274   1.123 -0.3399  0.2733  1.0325
10005TIP3    H251507   0.923   6.245   1.033  0.9950 -0.5036 -0.5380
10006TIP3   OH251508   3.424   4.140   0.117  0.5702  0.3308  0.1302
10006TIP3    H151509   3.429   4.080   0.043 -2.3922 -1.4095  1.1580
10006TIP3    H251510   3.491   4.109   0.178  1.5930  0.4604 -0.8930
10007TIP3   OH251511   1.517   3.500   1.591  0.0197  0.2687  0.1882
10007TIP3    H151512   1.502   3.505   1.497 -0.6348 -0.6125  0.2402
10007TIP3    H251513   1.454   3.561   1.629  0.5206  0.8909  0.0506
10008TIP3   OH251514   5.386   5.915  11.225  0.1223 -0.7743 -0.2480
10008TIP3    H151515   5.401   5.880  11.137  3.0682  1.8897 -0.9710
10008TIP3    H251516   5.451   5.871  11.280 -1.2498 -1.9106  0.5539
10009TIP3   OH251517   1.700   4.785   0.008 -0.1045 -0.3833  0.1737
10009TIP3    H151518   1.700   4.692  -0.015 -0.5317 -0.4414  0.4041
10009TIP3    H251519   1.698   4.786   0.104  3.3756 -0.1595  0.3606
10010TIP3   OH251520   6.553   2.370  16.683  0.4075  0.0051 -0.0837
10010TIP3    H151521   6.522   2.381  16.773 -0.4902 -1.9751 -0.0949
10010TIP3    H251522   6.640   2.330  16.692  0.3358 -0.1529 -0.0857
10011TIP3   OH251523   4.530   5.443   4.575 -0.2290 -0.1135 -0.0388
10011TIP3    H151524   4.580   5.487   4.507 -0.0261 -1.0002 -0.4710
10011TIP3    H251525   4.578   5.461   4.656  1.7839 -2.3327 -0.6437
10012TIP3   OH251526   2.989   2.148  15.277 -0.4309 -0.1732  0.1672
10012TIP3    H151527   3.054   2.089  15.315  1.7132  0.8878 -1.6216
10012TIP3    H251528   2.961   2.104  15.196 -0.2565  0.3737 -0.1951
10013TIP3   OH251529   4.717   0.628  11.628  0.1794 -0.0496  0.3584
10013TIP3    H151530   4.743   0.579  11.550 -1.6679  0.5379 -0.6999
10013TIP3    H251531   4.769   0.708  11.626  0.8502 -0.4788  0.2989
10014TIP3   OH251532   2.293   6.219   1.717  0.4789  0.0903  0.8108
10014TIP3    H151533   2.243   6.138   1.723 -0.1724  0.5380  1.6846
10014TIP3    H251534   2.368   6.206   1.776 -0.3616  0.6098  2.0437
10015TIP3   OH251535   1.249   0.404   0.325 -0.2992  0.1058 -0.8244
10015TIP3    H151536   1.243   0.494   0.357  2.3113  0.6291 -1.5413
10015TIP3    H251537   1.325   0.367   0.371 -1.3927 -1.7975 -0.4502
10016TIP3   OH251538   0.162   1.775  16.564 -0.3887  0.7106 -0.0324
10016TIP3    H151539   0.105   1.845  16.531  0.1603  0.6304 -1.1883
10016TIP3    H251540   0.237   1.774  16.505  0.0130 -0.3176  0.4567
10017TIP3   OH251541   4.804   2.904   2.217 -0.6686  0.1222 -0.0113
10017TIP3    H151542   4.715   2.927   2.245 -1.4888  0.4451 -2.5811
10017TIP3    H251543   4.800   2.810   2.202 -0.7323  0.2109 -0.5722
10018TIP3   OH251544   6.574   3.553  14.088  0.0623 -0.0170  0.1939
10018TIP3    H151545   6.652   3.602  14.063  1.0140 -1.6749 -0.2428
10018TIP3    H251546   6.600   3.506  14.168 -0.3347 -0.8827 -0.1681
10019TIP3   OH251547   1.399   1.459   0.609  0.1784  0.2530 -0.0078
10019TIP3    H151548   1.427   1.520   0.676 -0.2093 -1.3246  1.6671
10019TIP3    H251549   1.478   1.439   0.560  0.9445 -0.1977  1.3655
10020TIP3   OH251550   5.736   3.341   2.387  0.4624 -0.3542  0.4498
10020TIP3    H151551   5.665   3.285   2.357  0.4935 -0.2192  0.1293
10020TIP3    H251552   5.694   3.425   2.406  0.4175 -0.4791  0.9207
10021TIP3   OH251553   0.946   2.543   2.514  0.4217  0.0448 -0.2615
10021TIP3    H151554   0.988   2.544   2.428  1.4483 -1.1769  0.1932
10021TIP3    H251555   1.011   2.506   2.573 -0.0760  1.2974  1.1714
10022TIP3   OH251556   6.571   0.333  13.589 -0.4130 -0.1487  0.1424
10022TIP3    H151557   6.632   0.293  13.651  1.0732 -0.0927 -1.2052
10022TIP3    H251558   6.626   0.354  13.513 -1.4923  2.7600  0.0610
10023TIP3   OH251559   0.042   0.249   2.159 -0.1737 -0.3888 -1.0427
10023TIP3    H151560   0.063   0.210   2.075 -0.7660 -1.2741 -0.8019
10023TIP3    H251561  -0.041   0.207   2.185 -0.2065  0.1559 -0.2108
10024TIP3   OH251562   5.300   1.126   2.080 -0.1145  0.3018  0.1012
10024TIP3    H151563   5.205   1.140   2.078  0.0027  1.0403 -0.7956
10024TIP3    H251564   5.328   1.167   2.162 -0.1161  3.3840 -1.2939
10025TIP3   OH251565   4.143   0.953  14.280 -0.5289 -0.2428 -0.4450
10025TIP3    H151566   4.233   0.940  14.308 -1.0049  0.8168  1.7536
10025TIP3    H251567   4.114   0.867  14.251  0.6217 -0.9881  0.5489
10026TIP3   OH251568   3.042   4.477  13.028  0.1213  0.0217 -0.3513
10026TIP3    H151569   3.044   4.518  12.941  1.0293  1.4465  0.3024
10026TIP3    H251570   3.131   4.444  13.040 -0.4883 -1.8810 -0.6987
10027TIP3   OH251571   5.272   1.723  10.825  0.5472 -0.2792  0.1248
10027TIP3    H151572   5.326   1.753  10.751  1.2980 -0.8662  0.4150
10027TIP3    H251573   5.214   1.657  10.788  1.7523 -1.4553  0.2627
10028TIP3   OH251574   1.119   2.447  13.430  0.2292  0.0273  0.5648
10028TIP3    H151575   1.191   2.415  13.375 -0.5026 -0.7223  0.0164
10028TIP3    H251576   1.041   2.437  13.375 -0.2812  0.9192  1.1190
10029TIP3   OH251577   2.049   2.185  14.265 -0.0221 -1.1492 -0.0886
10029TIP3    H151578   2.010   2.243  14.331  1.8432 -0.1509  0.1948
10029TIP3    H251579   2.009   2.099  14.282 -1.9297 -0.2441  0.2731
10030TIP3   OH251580   3.545   5.862  13.179  0.0779  0.4716  0.4821
10030TIP3    H151581   3.596   5.831  13.104  0.6486  1.7875  0.2816
10030TIP3    H251582   3.506   5.783  13.217 -0.1644 -0.2274 -1.1479
10031TIP3   OH251583   5.870   1.560   1.732  0.4836 -0.6678  0.1308
10031TIP3    H151584   5.896   1.469   1.720  0.5470 -0.5836 -0.4282
10031TIP3    H251585   5.853   1.592   1.643 -0.8581 -0.5222  0.4038
10032TIP3   OH251586   1.572   6.311   5.182  0.0624  0.0435  0.2970
10032TIP3    H151587   1.595   6.218   5.180  1.2908  0.3255 -2.3250
10032TIP3    H251588   1.649   6.354   5.219  0.5022  0.2227 -0.8001
10033TIP3   OH251589   0.101   1.768  17.047 -0.3191 -0.5221 -0.0163
10033TIP3    H151590   0.132   1.768  16.956  2.9145  0.7671  0.9499
10033TIP3    H251591   0.146   1.694  17.087 -1.6076 -0.9878  0.6370
10034TIP3   OH251592   0.948   6.519   5.771  0.4039 -0.1885 -0.4003
10034TIP3    H151593   1.040   6.496   5.785  0.1040 -0.7537  0.7506
10034TIP3    H251594   0.950   6.580   5.697  1.7618  0.3127  0.0171
10035TIP3   OH251595   3.404   3.627  10.408  0.3387  0.5481  0.3033
10035TIP3    H151596   3.434   3.708  10.366 -0.0313  0.7599  0.4407
10035TIP3    H251597   3.364   3.656  10.490 -0.9181  0.3617 -0.2112
10036TIP3   OH251598   1.978   5.600  15.211 -0.2421 -0.2683  0.2018
10036TIP3    H151599   2.002   5.637  15.126 -0.4766  0.3559  0.3975
10036TIP3    H251600   1.927   5.669  15.253 -0.3330 -0.6653  0.7513
10037TIP3   OH251601   0.488   6.114   5.500  0.2234  0.1759 -0.3179
10037TIP3    H151602   0.417   6.082   5.555  0.5717 -1.6902 -0.8724
10037TIP3    H251603   0.554   6.146   5.562 -1.0243  1.8660  0.1986
10038TIP3   OH251604   6.255   1.969  14.438  0.1990 -0.2169  0.0353
10038TIP3    H151605   6.328   1.952  14.378  0.7648 -1.5485  1.0438
10038TIP3    H251606   6.177   1.940  14.391  0.6521 -1.3848 -0.0102
10039TIP3   OH251607   5.940   0.009  14.789  0.5313  0.0905  0.7090
10039TIP3    H151608   5.960   0.050  14.705 -1.4567  0.4330  0.3516
10039TIP3    H251609   5.913   0.081  14.846 -0.7860 -0.4296  0.7740
10040TIP3   OH251610   3.428   3.717   1.865 -0.8095 -0.2843  0.3369
10040TIP3    H151611   3.488   3.653   1.903 -1.3063 -1.1972 -0.3795
10040TIP3    H251612   3.477   3.756   1.793 -0.8790 -0.6569  0.0822
10041TIP3   OH251613   4.470   4.452  11.139  0.2587 -0.2914  0.3460
10041TIP3    H151614   4.425   4.371  11.165  0.0292 -0.1784  0.3037
10041TIP3    H251615   4.402   4.519  11.145  0.5022 -0.0643  0.5895
10042TIP3   OH251616   0.567   4.954   5.917  0.4016  0.0945  0.7767
10042TIP3    H151617   0.473   4.953   5.933 -0.1131  0.3559 -1.8251
10042TIP3    H251618   0.599   4.872   5.955 -1.2611 -1.0590 -0.1669
10043TIP3   OH251619   5.283   0.573  11.342 -0.0914 -0.0714  0.0488
10043TIP3    H151620   5.351   0.629  11.304 -1.0262  0.8504 -0.3211
10043TIP3    H251621   5.282   0.496  11.286 -0.8249  0.8671 -1.2802
10044TIP3   OH251622   4.792   1.641  16.295 -0.2501  0.9673  0.6617
10044TIP3    H151623   4.865   1.693  16.329  1.0128 -0.5200  0.3336
10044TIP3    H251624   4.765   1.689  16.216  0.7842  1.2196  0.4404
10045TIP3   OH251625   2.753   0.219  11.348 -0.1607  0.6763  0.1290
10045TIP3    H151626   2.761   0.213  11.253  1.8014  0.6058  0.2756
10045TIP3    H251627   2.840   0.201  11.382 -1.6344 -4.2125  2.2149
10046TIP3   OH251628   2.043   4.372  16.216  0.1933  0.9995  0.5090
10046TIP3    H151629   2.061   4.278  16.204  0.9294  1.2082 -0.1061
10046TIP3    H251630   2.085   4.393  16.299 -0.8526  0.5690  1.1590
10047TIP3   OH251631   2.550   0.405  14.918 -0.0913 -0.3910 -0.2770
10047TIP3    H151632   2.621   0.383  14.856  0.9071  1.8340 -0.0088
10047TIP3    H251633   2.489   0.457  14.866  0.3730  0.8467  0.3876
10048TIP3   OH251634   3.352   0.353   5.210  0.3521 -0.0691  0.3022
10048TIP3    H151635   3.359   0.417   5.139  1.9420  2.6226  2.6280
10048TIP3    H251636   3.357   0.268   5.167  3.2485  1.3751 -2.6764
10049TIP3   OH251637   5.822   4.133  10.945  0.2495 -0.3549  0.0187
10049TIP3    H151638   5.737   4.176  10.935  0.3856  0.0305  0.5203
10049TIP3    H251639   5.880   4.179  10.884  0.2659 -0.1767  0.1697
10050TIP3   OH251640   1.440   5.617   2.954  0.0805  0.0903 -0.1167
10050TIP3    H151641   1.452   5.562   3.031  2.5931  1.1674  0.3891
10050TIP3    H251642   1.529   5.632   2.921 -0.6909  1.8644 -1.6237
10051TIP3   OH251643   2.410   4.376  12.560 -0.1977  0.4416  0.1632
10051TIP3    H151644   2.467   4.314  12.514  0.2409  0.8884  0.0995
10051TIP3    H251645   2.342   4.398  12.496  0.7174  1.4876 -0.4884
10052TIP3   OH251646   3.960   6.220  16.387  0.0682 -0.2599 -0.7506
10052TIP3    H151647   3.975   6.152  16.453 -0.7635 -0.9075 -1.2065
10052TIP3    H251648   3.938   6.298  16.437  0.4837 -0.4634 -0.2377
10053TIP3   OH251649   6.804   6.495  12.421 -0.5561  0.6347 -0.1010
10053TIP3    H151650   6.818   6.529  12.509 -1.2278  1.5611 -0.3265
10053TIP3    H251651   6.712   6.518  12.401  0.0367  1.9297 -1.6370
10054TIP3   OH251652   5.646   3.145   3.003 -0.1205 -0.5974 -0.1783
10054TIP3    H151653   5.722   3.131   2.947  0.2885  2.5199 -0.6069
10054TIP3    H251654   5.577   3.174   2.943 -1.2686 -2.0630  0.3776
10055TIP3   OH251655   1.593   5.622  15.612  0.3292 -0.0792 -0.4082
10055TIP3    H151656   1.574   5.568  15.535 -0.8145 -0.9812  0.4790
10055TIP3    H251657   1.688   5.611  15.626  0.4639 -0.2651 -1.4100
10056TIP3   OH251658   6.359   4.590  14.718 -0.2658  0.0873  0.2634
10056TIP3    H151659   6.410   4.578  14.799  0.6598  1.0523 -0.1478
10056TIP3    H251660   6.308   4.509  14.710 -1.7064  0.6273  2.7103
10057TIP3   OH251661   0.839   6.124   3.402  0.0782 -0.5285  0.4632
10057TIP3    H151662   0.920   6.168   3.428  0.0840  0.2263 -0.7644
10057TIP3    H251663   0.773   6.154   3.465  0.1004  1.1924 -0.3021
10058TIP3   OH251664   4.830   5.256  11.569 -0.0159  0.6517 -0.3208
10058TIP3    H151665   4.778   5.216  11.638  0.9659 -0.6867 -0.3138
10058TIP3    H251666   4.785   5.230  11.488  0.2109  0.1202 -0.2821
10059TIP3   OH251667   4.424   2.972   3.815  0.3390 -0.6699 -0.1314
10059TIP3    H151668   4.516   2.984   3.791 -0.0578  3.1297 -0.3473
10059TIP3    H251669   4.378   2.969   3.731  0.0758 -0.5794  0.0106
10060TIP3   OH251670   1.239   2.227  16.659  0.2358 -0.0277 -0.1042
10060TIP3    H151671   1.250   2.314  16.698 -1.4490  0.7240 -1.1519
10060TIP3    H251672   1.268   2.166  16.727  1.1454  1.3449  0.7827
10061TIP3   OH251673   5.700   5.019  13.936  0.2478  0.2666 -0.2411
10061TIP3    H151674   5.646   4.939  13.937  2.0504 -1.1026  3.0602
10061TIP3    H251675   5.789   4.988  13.919  1.0242  1.5014  1.3444
10062TIP3   OH251676   3.518   4.540  15.288 -0.8224 -0.4645 -0.2370
10062TIP3    H151677   3.537   4.448  15.307 -3.1718 -1.2409 -1.3194
10062TIP3    H251678   3.510   4.543  15.193  2.1108  1.5389 -0.5458
10063TIP3   OH251679   1.571   2.105   4.189 -1.1221 -0.7137 -0.2256
10063TIP3    H151680   1.568   2.010   4.181 -2.2747 -0.7056 -0.0129
10063TIP3    H251681   1.611   2.120   4.275 -0.1255 -0.9736 -0.6240
10064TIP3   OH251682   2.995   0.556   4.683  0.4781 -0.1780 -0.1865
10064TIP3    H151683   3.080   0.563   4.726  0.8049 -0.5450 -0.7554
10064TIP3    H251684   3.015   0.560   4.589 -0.1353 -0.2025 -0.3238
10065TIP3   OH251685   5.034   5.241  14.374 -0.3521 -0.5129  0.0810
10065TIP3    H151686   5.102   5.267  14.436  0.4909 -1.7018 -0.3119
10065TIP3    H251687   4.986   5.171  14.420 -1.2669  0.2578  0.3214
10066TIP3   OH251688   6.568   2.617   1.146 -0.3922  0.1675 -0.1659
10066TIP3    H151689   6.598   2.536   1.104  0.5349  0.3121  0.1840
10066TIP3    H251690   6.474   2.619   1.130 -0.5459 -1.3318  0.4377
10067TIP3   OH251691   1.011   6.371   4.237 -1.0578 -0.1748  0.4134
10067TIP3    H151692   1.063   6.301   4.197 -1.0810 -0.9171  1.6276
10067TIP3    H251693   1.062   6.397   4.314 -0.5685  1.8446 -0.5258
10068TIP3   OH251694   6.397   2.241   3.024 -0.5747 -0.4686  0.2594
10068TIP3    H151695   6.346   2.307   3.072  2.2545  1.3437  1.0095
10068TIP3    H251696   6.418   2.174   3.090  0.6365  0.4183  0.8105
10069TIP3   OH251697   6.772   4.595   0.406  0.0325 -1.0401 -0.2511
10069TIP3    H151698   6.761   4.508   0.443 -0.2363 -1.3703 -1.0837
10069TIP3    H251699   6.857   4.624   0.439  0.0066 -1.5067  0.2399
10070TIP3   OH251700   6.037   1.792  13.828  0.0100  0.2490 -0.2571
10070TIP3    H151701   6.078   1.866  13.873 -0.5984  0.5463 -0.1805
10070TIP3    H251702   5.971   1.760  13.890 -0.5262  0.3800 -0.7600
10071TIP3   OH251703   1.965   4.625   0.265 -0.0617  0.2481  0.0790
10071TIP3    H151704   1.985   4.617   0.358 -0.4035 -0.2899  0.1093
10071TIP3    H251705   2.036   4.579   0.221 -0.9484 -1.2799  0.1685
10072TIP3   OH251706   0.112   1.714  14.511  0.1050  0.4902 -0.1041
10072TIP3    H151707   0.082   1.736  14.599  1.3802 -1.6289  0.9444
10072TIP3    H251708   0.200   1.679  14.524  1.0937  1.8192 -2.4722
10073TIP3   OH251709   1.119   6.220   1.837 -0.3274 -0.0765 -0.5506
10073TIP3    H151710   1.041   6.250   1.789  0.0329  0.7052 -0.6587
10073TIP3    H251711   1.119   6.273   1.917 -0.2889 -0.5728 -0.2183
10074TIP3   OH251712   3.372   1.213  16.135  0.2625  0.3725  0.4638
10074TIP3    H151713   3.401   1.274  16.067 -0.5801  1.7660  1.2800
10074TIP3    H251714   3.326   1.144  16.088  1.7669  0.0294 -0.5447
10075TIP3   OH251715   6.388   0.092  12.188 -0.2772 -0.7957 -0.3220
10075TIP3    H151716   6.358   0.170  12.141 -0.2886  0.3027  1.4327
10075TIP3    H251717   6.309   0.060  12.233 -0.0349 -1.2233 -0.1953
10076TIP3   OH251718   6.282   3.311   2.758  0.0619  0.9470  0.2563
10076TIP3    H151719   6.254   3.393   2.799  1.1007  1.6496 -0.3987
10076TIP3    H251720   6.373   3.327   2.733 -0.2380  0.1850 -1.4041
10077TIP3   OH251721   1.762   5.054  16.372 -0.3283 -0.2352 -0.3090
10077TIP3    H151722   1.832   5.110  16.404 -0.2525 -0.2872 -0.3849
10077TIP3    H251723   1.806   4.971  16.350 -0.2399  0.0862 -1.3846
10078TIP3   OH251724   2.861   1.030   5.003  0.5940 -0.3987 -0.2591
10078TIP3    H151725   2.891   1.074   4.923 -0.1795  1.6512  0.5164
10078TIP3    H251726   2.836   0.942   4.974 -0.2051  0.4735 -2.3936
10079TIP3   OH251727   5.743   3.759   0.430  0.1703  0.2909 -0.2253
10079TIP3    H151728   5.713   3.678   0.388 -0.1837  0.5091 -0.3977
10079TIP3    H251729   5.833   3.770   0.400  0.8304 -0.9657  1.1855
10080TIP3   OH251730   0.521   4.760   3.065 -0.2180  0.3891 -0.7721
10080TIP3    H151731   0.508   4.705   3.143 -0.2194  0.6551 -0.5818
10080TIP3    H251732   0.480   4.844   3.088  1.7447  1.2343 -0.1870
10081TIP3   OH251733   5.554   4.208  16.221 -0.3447  0.0573  0.1002
10081TIP3    H151734   5.575   4.116  16.237 -1.5074 -0.3446 -0.6205
10081TIP3    H251735   5.623   4.238  16.162  0.9194  0.0977  1.5231
10082TIP3   OH251736   0.921   2.661   0.624  0.2836  0.1028 -0.1777
10082TIP3    H151737   0.990   2.680   0.560  0.6160 -2.2749 -0.6259
10082TIP3    H251738   0.964   2.672   0.709  0.4713  1.1502 -0.4019
10083TIP3   OH251739   0.283   1.645   2.090 -0.2320  0.0438 -0.2892
10083TIP3    H151740   0.237   1.725   2.117  1.8808  1.0451  0.5252
10083TIP3    H251741   0.251   1.578   2.151 -2.3407  0.1030 -1.2376
10084TIP3   OH251742   6.479   0.217  10.342  0.1657  0.1879 -1.0284
10084TIP3    H151743   6.527   0.148  10.295 -0.2609 -0.9821  0.1959
10084TIP3    H251744   6.440   0.172  10.417 -1.1609  1.5250 -0.8737
10085TIP3   OH251745   4.661   1.131   0.810  0.1290  0.1153 -0.4551
10085TIP3    H151746   4.594   1.170   0.753  0.8015  1.2106 -0.5179
10085TIP3    H251747   4.624   1.138   0.898  0.1124  0.6490 -0.4991
10086TIP3   OH251748   5.809   0.791  13.324  0.9352 -0.2714  0.1123
10086TIP3    H151749   5.850   0.732  13.261  0.8961 -1.1334  0.8782
10086TIP3    H251750   5.783   0.735  13.397 -0.0204  0.5291  0.4198
10087TIP3   OH251751   3.167   3.132   2.539  0.1764  0.7113  0.5434
10087TIP3    H151752   3.146   3.224   2.523 -0.9386  0.2487 -0.8420
10087TIP3    H251753   3.255   3.121   2.503 -0.4974  0.7870 -1.2258
10088TIP3   OH251754   4.311   4.083   1.160 -1.0106 -0.3479 -0.3331
10088TIP3    H151755   4.325   4.167   1.203 -2.9928  0.1057 -0.4985
10088TIP3    H251756   4.316   4.103   1.066 -2.5330 -0.1687 -0.4003
10089TIP3   OH251757   4.421   4.909  15.718 -0.3481 -0.0524 -0.0675
10089TIP3    H151758   4.337   4.866  15.727 -0.0502 -0.6076  0.0785
10089TIP3    H251759   4.459   4.907  15.806  0.5235 -1.2701 -0.4560
10090TIP3   OH251760   0.737   6.171   3.668 -0.2636  1.1393  0.4714
10090TIP3    H151761   0.772   6.207   3.749  0.2437  2.3224 -0.2407
10090TIP3    H251762   0.676   6.239   3.636 -1.6673  0.0123  0.6392
10091TIP3   OH251763   0.359   0.905  16.691  0.0066  0.0271  0.0339
10091TIP3    H151764   0.280   0.938  16.647 -1.3006  0.1329  2.2674
10091TIP3    H251765   0.326   0.835  16.748  0.6085  2.8171  4.2878
10092TIP3   OH251766   3.292   0.387   1.532 -0.5168 -0.4315  0.2367
10092TIP3    H151767   3.305   0.481   1.539 -0.5968  0.1176 -4.1192
10092TIP3    H251768   3.197   0.376   1.522 -0.5098 -0.9874  0.7191
10093TIP3   OH251769   2.891   1.174   4.097  0.0372 -0.2666 -0.3088
10093TIP3    H151770   2.857   1.110   4.160  0.9344 -0.3060  0.1473
10093TIP3    H251771   2.980   1.145   4.080  0.0347  0.1580 -1.0651
10094TIP3   OH251772   2.710   2.869   2.574  0.2114 -0.4847  0.0282
10094TIP3    H151773   2.805   2.865   2.563  0.3330 -1.1478  1.1470
10094TIP3    H251774   2.677   2.798   2.519  0.4566 -0.9540  0.4756
10095TIP3   OH251775   0.609   3.165  12.786  0.6825 -0.4259 -0.2500
10095TIP3    H151776   0.650   3.192  12.868  2.1744 -1.5153 -0.5759
10095TIP3    H251777   0.681   3.127  12.735 -0.1462  0.4435 -2.1751
10096TIP3   OH251778   0.448   0.497  16.822 -0.6821 -0.1485  1.1951
10096TIP3    H151779   0.515   0.453  16.874  0.5329  0.5515  0.2711
10096TIP3    H251780   0.406   0.427  16.773  1.0963 -0.3508 -0.1131
10097TIP3   OH251781   1.378   5.529  11.405 -0.0251 -0.3205  0.3911
10097TIP3    H151782   1.331   5.526  11.322 -0.9791 -0.3609  0.9083
10097TIP3    H251783   1.385   5.622  11.425  1.4860 -0.2311 -0.4088
10098TIP3   OH251784   4.399   0.691  14.220  0.3113 -0.0828  0.3661
10098TIP3    H151785   4.305   0.688  14.203  0.5933 -0.0573 -1.3338
10098TIP3    H251786   4.414   0.620  14.282 -0.7586 -0.3298  0.3687
10099TIP3   OH251787   4.516   2.373   4.331 -0.7521  0.2256 -0.9033
10099TIP3    H151788   4.468   2.388   4.250 -0.8418 -0.0997 -0.9116
10099TIP3    H251789   4.467   2.423   4.397 -0.4689  0.7884 -1.1151
10100TIP3   OH251790   6.546   1.869   3.828  0.5317  0.3210 -0.6361
10100TIP3    H151791   6.453   1.847   3.818  0.5025  0.3892 -0.5145
10100TIP3    H251792   6.553   1.960   3.800  0.5328  0.3674 -0.4837
10101TIP3   OH251793   6.042   4.863   0.160  0.3385 -0.2077 -0.2622
10101TIP3    H151794   5.957   4.827   0.136  0.0579  2.1050 -3.3285
10101TIP3    H251795   6.105   4.797   0.129 -0.2308 -1.3937  0.9819
10102TIP3   OH251796   3.076   3.368   6.195 -0.4113 -0.3212 -0.3485
10102TIP3    H151797   3.076   3.407   6.107 -0.1822  1.0076  0.2107
10102TIP3    H251798   2.986   3.379   6.226  0.2261  2.2789  0.8293
10103TIP3   OH251799   5.958   6.755  12.150 -0.3851  0.1794 -0.5710
10103TIP3    H151800   6.024   6.765  12.081  0.6972 -2.2107  0.0131
10103TIP3    H251801   5.958   6.662  12.170  0.3193  0.8438  3.5557
10104TIP3   OH251802   4.214   3.321   6.678  0.3262 -0.3247  0.2652
10104TIP3    H151803   4.251   3.307   6.591 -1.1301  1.8222 -0.7825
10104TIP3    H251804   4.289   3.345   6.732  0.8314  1.7675 -1.2654
10105TIP3   OH251805   6.137   6.521  12.781 -0.1665  0.0518 -0.7129
10105TIP3    H151806   6.072   6.580  12.743  0.2807 -0.8524 -3.0000
10105TIP3    H251807   6.212   6.578  12.800 -1.7157  1.2704  2.7127
10106TIP3   OH251808   5.701   5.922  17.056  0.4403 -0.2245  0.0488
10106TIP3    H151809   5.755   5.945  17.131 -0.4083  0.9558  0.3240
10106TIP3    H251810   5.743   5.844  17.020  4.2656  2.3642 -1.7373
10107TIP3   OH251811   0.241   2.761  15.879 -0.4519 -0.1283  0.1010
10107TIP3    H151812   0.256   2.742  15.787 -2.6346  1.1415 -0.5798
10107TIP3    H251813   0.247   2.675  15.922  1.3397 -0.6338 -1.0614
10108TIP3   OH251814   4.983   3.444  14.573  0.1347 -0.4891  0.2870
10108TIP3    H151815   4.929   3.520  14.549 -0.0838 -0.5882  0.4645
10108TIP3    H251816   4.922   3.371  14.576  0.5820 -0.9613 -1.2833
10109TIP3   OH251817   0.824   3.413   2.833  0.0142  0.6254  0.0263
10109TIP3    H151818   0.884   3.341   2.815  0.2972  0.2034  2.3092
10109TIP3    H251819   0.739   3.371   2.847  0.3300  0.5622  2.1262
10110TIP3   OH251820   2.561   5.640  12.095  0.0758 -0.0757  0.0460
10110TIP3    H151821   2.541   5.561  12.045 -0.5232 -1.1466  1.9057
10110TIP3    H251822   2.608   5.608  12.172 -0.2419  1.3655  0.8685
10111TIP3   OH251823   2.608   1.311   4.017 -0.3119  0.0997  0.3998
10111TIP3    H151824   2.654   1.318   4.100  1.1356 -0.7610 -0.2745
10111TIP3    H251825   2.666   1.257   3.962 -1.8190 -0.4431 -0.7389
10112TIP3   OH251826   1.022   0.747  14.916 -0.7974 -0.3904  0.3033
10112TIP3    H151827   0.998   0.709  15.001 -3.0090 -0.3821 -0.2344
10112TIP3    H251828   0.978   0.832  14.915  1.1453  0.6614  0.0535
10113TIP3   OH251829   2.008   0.745  15.898  0.1227 -0.4297  0.4083
10113TIP3    H151830   2.022   0.789  15.982  0.5158 -0.7657  0.5257
10113TIP3    H251831   1.946   0.675  15.917 -0.1370 -0.2238  0.3216
10114TIP3   OH251832   1.781   1.941   1.543 -0.2811 -0.4450 -0.9664
10114TIP3    H151833   1.862   1.987   1.565  0.8610 -2.2087 -1.2197
10114TIP3    H251834   1.727   1.948   1.621  1.0412 -1.0777  0.0625
10115TIP3   OH251835   4.761   3.857   0.023 -0.1153  0.7837 -0.3126
10115TIP3    H151836   4.688   3.808  -0.016 -0.4341  0.8058  0.2361
10115TIP3    H251837   4.735   3.949   0.015 -0.3133  0.7752  0.1958
10116TIP3   OH251838   4.375   4.721  12.369 -0.7007  0.2572 -0.2986
10116TIP3    H151839   4.422   4.800  12.343  1.0440 -0.3349  0.8180
10116TIP3    H251840   4.421   4.650  12.324 -0.4280 -0.3482  0.8681
10117TIP3   OH251841   1.104   4.228   2.400 -0.0924  0.7354  0.2217
10117TIP3    H151842   1.194   4.259   2.393 -0.1293  0.7308 -0.3500
10117TIP3    H251843   1.070   4.233   2.310  0.1604 -1.7119 -0.0915
10118TIP3   OH251844   0.803   4.181   4.200 -0.5051 -0.5307 -0.1586
10118TIP3    H151845   0.864   4.253   4.187  0.0719 -1.0865 -0.5779
10118TIP3    H251846   0.820   4.150   4.289 -0.1331 -0.7191 -0.2938
10119TIP3   OH251847   0.361   0.242  16.155  0.3737  0.3432  0.0066
10119TIP3    H151848   0.353   0.177  16.084  0.1480  0.2875  0.0818
10119TIP3    H251849   0.452   0.234  16.184  0.4230  0.2506 -0.1676
10120TIP3   OH251850   3.657   6.651   5.501  0.2587 -0.3338 -0.1161
10120TIP3    H151851   3.582   6.604   5.539  0.2443  1.2622  2.0192
10120TIP3    H251852   3.725   6.584   5.494 -0.9911 -1.5896 -1.1510
10121TIP3   OH251853   3.562   0.242  15.225  0.2697 -0.1993 -0.0492
10121TIP3    H151854   3.627   0.293  15.178  0.1057 -1.0264 -1.2199
10121TIP3    H251855   3.491   0.229  15.162 -0.2481 -0.7902  0.6324
10122TIP3   OH251856   1.558   2.287  15.173  0.4595 -0.0475 -0.1883
10122TIP3    H151857   1.519   2.307  15.088 -0.2121  0.5236  0.2453
10122TIP3    H251858   1.617   2.214  15.155  0.6063  0.2991 -1.2109
10123TIP3   OH251859   3.143   0.549   1.197 -0.3483 -0.1595 -0.7963
10123TIP3    H151860   3.187   0.521   1.278  1.6722  1.0735 -1.3793
10123TIP3    H251861   3.060   0.502   1.197 -0.3963 -0.2201  1.9744
10124TIP3   OH251862   4.474   2.723  15.913 -0.0470  0.3922 -0.3238
10124TIP3    H151863   4.529   2.693  15.985  0.2106  0.9238 -0.2896
10124TIP3    H251864   4.454   2.644  15.863 -0.9752 -0.1272  0.8262
10125TIP3   OH251865   4.935   6.368   1.227  0.2162  0.4670 -0.1236
10125TIP3    H151866   4.846   6.367   1.263  0.5026 -1.0785  0.6431
10125TIP3    H251867   4.963   6.277   1.232  1.7905  0.9097 -0.4974
10126TIP3   OH251868   4.021   1.282   2.154 -0.3784 -0.3138  0.1308
10126TIP3    H151869   3.973   1.363   2.173 -0.7653  0.0679 -2.1280
10126TIP3    H251870   3.959   1.229   2.104  0.3367 -1.4238  0.3932
10127TIP3   OH251871   3.062   0.860   6.248 -0.1218  0.1600 -0.1842
10127TIP3    H151872   3.069   0.808   6.168 -0.7222 -1.1641  0.5999
10127TIP3    H251873   3.151   0.892   6.263  0.2545 -0.6079 -0.7163
10128TIP3   OH251874   3.509   3.714  13.615  0.5252  0.1353  0.2360
10128TIP3    H151875   3.503   3.619  13.607  1.1785  0.1603 -0.8501
10128TIP3    H251876   3.571   3.728  13.687  2.2622 -0.3261 -1.0867
10129TIP3   OH251877   6.223   2.821   1.390  0.0168 -0.6113  0.5047
10129TIP3    H151878   6.303   2.802   1.440 -1.1024 -0.6954  2.3848
10129TIP3    H251879   6.159   2.844   1.457 -1.1123  1.0450 -1.0746
10130TIP3   OH251880   4.343   2.284  12.926  0.3241 -0.5208  0.1592
10130TIP3    H151881   4.428   2.241  12.919 -0.1934 -1.3917 -1.2012
10130TIP3    H251882   4.281   2.221  12.890 -0.6304  0.8725 -0.7804
10131TIP3   OH251883   1.101   1.466   3.736  0.0514  0.6033  0.2355
10131TIP3    H151884   1.029   1.520   3.768 -0.1015  0.2782  0.4492
10131TIP3    H251885   1.058   1.396   3.686 -0.0296 -1.2783  2.7369
10132TIP3   OH251886   3.044   3.482  16.117  0.0801 -0.0870  0.1277
10132TIP3    H151887   2.955   3.515  16.102 -0.0547 -0.7413 -0.6275
10132TIP3    H251888   3.063   3.502  16.208 -0.5463  0.7559  0.0795
10133TIP3   OH251889   0.138   0.679  13.044 -0.0064 -0.0117 -0.2648
10133TIP3    H151890   0.188   0.725  13.112 -1.7234 -0.4036  1.3429
10133TIP3    H251891   0.098   0.749  12.992  1.8287  0.3014 -1.3697
10134TIP3   OH251892   3.982   3.878  11.683 -0.0027  0.2806 -0.6039
10134TIP3    H151893   4.062   3.931  11.675  0.5810 -0.4389  0.2287
10134TIP3    H251894   4.000   3.819  11.757 -1.4064  0.2727 -0.2494
10135TIP3   OH251895   5.227   0.323   1.833  0.8342  0.1922 -0.5578
10135TIP3    H151896   5.247   0.416   1.844 -2.8857  1.1365 -0.5819
10135TIP3    H251897   5.242   0.284   1.919 -3.2027  2.1857  1.2874
10136TIP3   OH251898   2.705   4.928   4.388  0.6462  0.0552 -0.3619
10136TIP3    H151899   2.754   4.980   4.452  1.9291 -0.9826 -0.4585
10136TIP3    H251900   2.724   4.837   4.411  0.9001 -0.3460 -2.0216
10137TIP3   OH251901   5.980   5.080   4.130 -0.3186  0.0873 -0.0730
10137TIP3    H151902   6.067   5.113   4.110 -0.7456  0.5103 -1.3885
10137TIP3    H251903   5.958   5.116   4.215 -0.7035  3.1725 -1.3499
10138TIP3   OH251904   5.390   5.266  11.476  0.0535 -0.1715  0.0653
10138TIP3    H151905   5.311   5.212  11.466 -3.1432  3.7768  0.8638
10138TIP3    H251906   5.401   5.308  11.391  0.7917 -0.0534  0.2140
10139TIP3   OH251907   3.521   1.357  14.650  0.3110  0.0326 -0.0191
10139TIP3    H151908   3.531   1.297  14.577  1.8355 -1.2261  1.1618
10139TIP3    H251909   3.511   1.300  14.727  1.6646  1.2672  1.1298
10140TIP3   OH251910   5.890   1.487  15.409  0.1619  0.4757 -0.1287
10140TIP3    H151911   5.964   1.548  15.412 -1.8956  3.1945 -1.2977
10140TIP3    H251912   5.904   1.437  15.328  1.0902  0.4082  0.0558
10141TIP3   OH251913   4.087   3.942  13.904  0.2210 -0.7021 -0.0770
10141TIP3    H151914   4.049   3.866  13.861  0.0246  0.8036 -2.8128
10141TIP3    H251915   4.153   3.974  13.842  0.5369  1.1651  1.1282
10142TIP3   OH251916   6.500   2.471   3.948 -0.0613 -0.0327 -0.5772
10142TIP3    H151917   6.502   2.485   4.042 -1.4102  2.3170 -0.8416
10142TIP3    H251918   6.592   2.468   3.922  0.3390 -1.2657  0.8261
10143TIP3   OH251919   1.634   1.124   4.349  0.4654  0.5058  0.2135
10143TIP3    H151920   1.608   1.032   4.355 -0.9225  0.9059  0.6902
10143TIP3    H251921   1.665   1.133   4.259 -3.0338  0.3937 -1.1917
10144TIP3   OH251922   3.428   5.252   6.554  0.4314  0.4276  0.0115
10144TIP3    H151923   3.360   5.316   6.531  0.9546  0.4453 -1.5825
10144TIP3    H251924   3.484   5.299   6.616 -0.6138  0.6400  0.8239
10145TIP3   OH251925   3.808   4.991  16.285  0.1944 -0.2539  0.4457
10145TIP3    H151926   3.731   4.944  16.255  0.5142  0.0785 -0.9284
10145TIP3    H251927   3.836   5.043  16.210  0.7340  0.9845  1.4625
10146TIP3   OH251928   2.205   2.429   3.182  0.3852  0.0804  0.2974
10146TIP3    H151929   2.276   2.369   3.205  1.7178  0.8236 -1.5913
10146TIP3    H251930   2.129   2.372   3.168  0.6308 -0.7587  2.0803
10147TIP3   OH251931   4.331   3.165   3.204  0.3542  0.1573 -0.1961
10147TIP3    H151932   4.335   3.185   3.297  0.9561 -0.6221 -0.0369
10147TIP3    H251933   4.364   3.243   3.160  0.7067  0.2789  0.2841
10148TIP3   OH251934   2.878   0.268  14.167  0.3938  0.1138  0.0509
10148TIP3    H151935   2.874   0.348  14.114  0.8618  0.3548  0.3683
10148TIP3    H251936   2.966   0.233  14.152  0.8628  0.6624  1.3310
10149TIP3   OH251937   5.729   0.650   0.960  0.2009 -0.2081  0.5413
10149TIP3    H151938   5.793   0.689   0.900  0.4576  1.5751  1.8902
10149TIP3    H251939   5.771   0.653   1.045 -1.7707  1.4578  1.5572
10150TIP3   OH251940   6.143   0.347  15.161  0.3809  0.2953 -0.0067
10150TIP3    H151941   6.212   0.404  15.196 -0.9807  1.6941  0.5123
10150TIP3    H251942   6.094   0.317  15.238 -2.7781  3.5797 -0.4698
10151TIP3   OH251943   1.087   6.388  13.272 -0.3380 -0.6146 -0.4740
10151TIP3    H151944   1.079   6.318  13.206 -1.3547  0.9211 -2.0799
10151TIP3    H251945   0.997   6.417  13.286 -0.2240 -1.2512  2.0932
10152TIP3   OH251946   1.973   0.423   4.106  0.2214  0.0580 -0.4217
10152TIP3    H151947   1.918   0.492   4.071 -0.7953  0.0759  1.1322
10152TIP3    H251948   1.935   0.402   4.191  1.4753 -1.2818 -0.1444
10153TIP3   OH251949   4.598   1.640  11.237  0.0762 -0.2484 -0.3553
10153TIP3    H151950   4.536   1.597  11.296 -1.0633 -1.0400 -2.0467
10153TIP3    H251951   4.658   1.570  11.210  0.6722  0.1362 -0.0523
10154TIP3   OH251952   5.094   5.116   4.706  0.1894 -0.0124  0.1648
10154TIP3    H151953   5.089   5.024   4.681 -1.4155  0.0838 -0.0006
10154TIP3    H251954   5.038   5.123   4.783 -1.2101  1.1255 -0.8913
10155TIP3   OH251955   6.453   2.268  15.291  0.0271  0.3740  0.8500
10155TIP3    H151956   6.439   2.334  15.224 -0.1153 -0.2377  0.2604
10155TIP3    H251957   6.397   2.295  15.364 -0.0685  0.8689  0.5946
10156TIP3   OH251958   2.705   3.455   3.680 -0.3184 -0.2567 -0.0088
10156TIP3    H151959   2.739   3.525   3.625  0.2739 -0.3424  0.2427
10156TIP3    H251960   2.636   3.415   3.628  2.2217 -2.3453 -2.0279
10157TIP3   OH251961   2.670   3.209  14.523 -0.0069  0.0914  0.0209
10157TIP3    H151962   2.720   3.273  14.471  1.2310 -0.2544  0.7560
10157TIP3    H251963   2.706   3.124  14.497 -1.3261 -0.3044 -0.6022
10158TIP3   OH251964   4.135   4.580   2.289 -0.2453 -0.0142  0.2404
10158TIP3    H151965   4.209   4.629   2.324  0.1068  0.8601 -1.5972
10158TIP3    H251966   4.174   4.517   2.228 -0.8774 -0.9464  0.7747
10159TIP3   OH251967   4.162   3.952   3.986  0.6700  0.0489  0.0820
10159TIP3    H151968   4.095   3.934   4.052  0.2777  1.0135 -0.0397
10159TIP3    H251969   4.185   4.044   3.999  1.3644 -0.0422 -0.4328
10160TIP3   OH251970   1.364   2.371   1.139 -0.1914 -0.2206  0.0103
10160TIP3    H151971   1.455   2.396   1.151 -0.1492 -0.6496  0.6209
10160TIP3    H251972   1.365   2.308   1.067 -0.0400 -0.0304 -0.1544
10161TIP3   OH251973   4.426   0.257  11.620 -0.3749 -0.4997  0.1908
10161TIP3    H151974   4.355   0.193  11.620  0.5844 -1.6009  0.8578
10161TIP3    H251975   4.478   0.234  11.697  1.1565 -0.2350 -0.7403
10162TIP3   OH251976   3.124   1.021   4.476 -0.4899 -0.1451 -0.4710
10162TIP3    H151977   3.031   1.023   4.452 -0.0654 -1.8393 -2.5463
10162TIP3    H251978   3.157   1.108   4.452 -1.1788 -0.1192 -1.3603
10163TIP3   OH251979   6.813   6.759  16.463 -0.1917  0.1455 -0.3819
10163TIP3    H151980   6.758   6.683  16.443  1.2194 -0.9159 -0.3604
10163TIP3    H251981   6.854   6.782  16.380 -1.3516  1.5419 -0.6080
10164TIP3   OH251982   6.169   0.462  16.526 -0.2949 -0.4741 -0.1533
10164TIP3    H151983   6.204   0.455  16.438  0.6040 -0.7276  0.2120
10164TIP3    H251984   6.205   0.386  16.572 -0.7813 -0.3636  0.4161
10165TIP3   OH251985   3.898   2.601   5.186 -0.0694  0.6783 -0.2289
10165TIP3    H151986   3.970   2.540   5.172  0.7434  1.4295  0.6020
10165TIP3    H251987   3.821   2.556   5.151  0.7464 -0.2540 -0.8536
10166TIP3   OH251988   2.842   3.660   5.692  0.0943 -0.0698  0.4994
10166TIP3    H151989   2.931   3.664   5.656  0.3779 -1.1506  1.0316
10166TIP3    H251990   2.836   3.736   5.751  0.6011  0.1001  0.3360
10167TIP3   OH251991   1.816   5.684   5.725  0.3176 -0.0993 -0.5243
10167TIP3    H151992   1.870   5.607   5.743  1.6570  0.7809 -0.6476
10167TIP3    H251993   1.793   5.718   5.812  1.5347  0.5706 -0.4435
10168TIP3   OH251994   0.487   0.428   2.867  0.3415  0.5906  0.5526
10168TIP3    H151995   0.416   0.365   2.851  0.0578  0.5320  1.9122
10168TIP3    H251996   0.449   0.513   2.845 -0.5130  0.6735  2.2106
10169TIP3   OH251997   1.284   1.063  11.014 -0.3304 -0.5888  0.5531
10169TIP3    H151998   1.256   1.064  11.105 -0.3889  0.0563  0.5301
10169TIP3    H251999   1.252   1.145  10.977 -1.3430 -1.3617 -0.3645
10170TIP3   OH252000   3.793   3.815  11.147  0.3403  0.2611  0.5755
10170TIP3    H152001   3.845   3.817  11.227  0.4106 -0.8885  0.5834
10170TIP3    H252002   3.840   3.871  11.086  1.2441 -0.2547  0.7881
10171TIP3   OH252003   5.638   5.268   2.180  0.4225  0.0342  0.1785
10171TIP3    H152004   5.554   5.237   2.214  0.2178 -0.1167 -0.4529
10171TIP3    H252005   5.693   5.190   2.176  0.5681  0.1202  0.5237
10172TIP3   OH252006   1.404   2.639  16.068  0.0879  0.4202  0.3587
10172TIP3    H152007   1.330   2.591  16.032 -0.8046  0.1354  2.4607
10172TIP3    H252008   1.418   2.602  16.155  3.1795 -0.0207 -0.2001
10173TIP3   OH252009   0.519   5.585  10.842  0.2999  0.7625 -0.1277
10173TIP3    H152010   0.456   5.656  10.828  0.1903  0.4480 -1.3089
10173TIP3    H252011   0.602   5.630  10.856 -0.0475  1.1602  0.7601
10174TIP3   OH252012   0.450   5.945  12.786  0.4046  0.2435 -0.1409
10174TIP3    H152013   0.540   5.913  12.784  0.2349 -0.3372  0.9446
10174TIP3    H252014   0.401   5.877  12.832 -0.0731  1.8103  1.7729
10175TIP3   OH252015   4.302   2.416  13.162  1.1083 -0.4559  0.2076
10175TIP3    H152016   4.312   2.511  13.154 -1.0354 -0.3033 -1.7576
10175TIP3    H252017   4.318   2.383  13.074 -0.3155 -1.6339  0.3461
10176TIP3   OH252018   5.249   0.582  15.912 -0.0424  0.4590  0.1458
10176TIP3    H152019   5.307   0.647  15.872  1.5665 -0.6468  0.5384
10176TIP3    H252020   5.237   0.516  15.845  1.9596 -0.9703  1.0734
10177TIP3   OH252021   6.450   5.074  14.198 -0.3819  0.6121 -0.2094
10177TIP3    H152022   6.496   5.153  14.225  1.4965 -0.6556  0.4920
10177TIP3    H252023   6.403   5.046  14.277  1.3275 -0.5233  0.4630
10178TIP3   OH252024   1.058   0.898   3.303  0.2252  0.4570  0.0417
10178TIP3    H152025   0.981   0.909   3.247  0.6725  0.2409 -0.6386
10178TIP3    H252026   1.052   0.968   3.367 -0.1493  0.8976 -0.4690
10179TIP3   OH252027   0.855   5.449   5.389  0.3333 -0.0998 -0.4586
10179TIP3    H152028   0.941   5.459   5.347  1.2864 -3.2767  0.4782
10179TIP3    H252029   0.828   5.360   5.368 -3.1285  0.9857 -1.2208
10180TIP3   OH252030   1.617   5.474  15.377  0.3667  0.5038 -0.5780
10180TIP3    H152031   1.582   5.434  15.296 -1.9107 -2.4878  1.6252
10180TIP3    H252032   1.709   5.448  15.379  0.4722  0.6594 -2.1920
10181TIP3   OH252033   1.383   0.645   2.494  0.6566 -0.1303 -0.0251
10181TIP3    H152034   1.429   0.723   2.523  0.4633  0.5092 -1.3875
10181TIP3    H252035   1.291   0.672   2.487 -0.2182 -1.5891  3.4398
10182TIP3   OH252036   0.427   3.796  14.058 -0.1225  0.5140 -0.4055
10182TIP3    H152037   0.513   3.829  14.030  0.0095 -0.8307 -1.7100
10182TIP3    H252038   0.383   3.873  14.095  1.0927  1.5531 -1.0183
10183TIP3   OH252039   2.279   2.259  15.940  0.7220  0.3684 -0.0800
10183TIP3    H152040   2.272   2.352  15.917  2.2599  0.1911 -1.4228
10183TIP3    H252041   2.285   2.259  16.036 -3.1755  1.3376  0.3175
10184TIP3   OH252042   0.353   1.307  10.188  1.0601  0.4848  0.4775
10184TIP3    H152043   0.416   1.248  10.146  0.6489  0.0707  0.4390
10184TIP3    H252044   0.316   1.255  10.260 -1.0733 -0.1760 -1.0041
10185TIP3   OH252045   4.682   4.188   5.401 -0.0517 -0.4882  0.5764
10185TIP3    H152046   4.668   4.281   5.384 -2.2418 -1.1461 -1.9741
10185TIP3    H252047   4.647   4.173   5.488  1.6296  1.2673  1.6263
10186TIP3   OH252048   6.267   5.397  11.247  0.2931  0.1700  0.4686
10186TIP3    H152049   6.257   5.302  11.256  1.3472  0.1483  1.7658
10186TIP3    H252050   6.215   5.420  11.171 -1.1750 -1.2456  0.9985
10187TIP3   OH252051   0.783   5.540   5.075 -0.1650 -0.3686 -0.4861
10187TIP3    H152052   0.724   5.570   5.007  0.1568 -0.6139 -0.8766
10187TIP3    H252053   0.738   5.560   5.157 -0.6745 -0.3341 -0.7761
10188TIP3   OH252054   6.157   1.804  11.069  0.5409  0.0509  0.0185
10188TIP3    H152055   6.181   1.799  11.161 -0.0602 -0.1529  0.1697
10188TIP3    H252056   6.127   1.894  11.057 -0.9083 -0.3618  0.4179
10189TIP3   OH252057   0.764   5.891  11.756 -0.8191 -0.6330  0.2266
10189TIP3    H152058   0.762   5.842  11.674 -1.0819 -0.9977  0.4472
10189TIP3    H252059   0.735   5.828  11.822  0.2991 -0.6274  0.7445
10190TIP3   OH252060   0.171   4.612   2.313  0.0474  0.2374 -0.2572
10190TIP3    H152061   0.105   4.623   2.382 -1.7664  0.1526 -1.9009
10190TIP3    H252062   0.154   4.683   2.252 -0.7640 -1.7059 -2.4195
10191TIP3   OH252063   3.123   3.708  17.146 -0.0928  0.0681  0.4774
10191TIP3    H152064   3.112   3.795  17.108  0.6411 -0.5472 -1.2721
10191TIP3    H252065   3.159   3.724  17.233  0.0643  1.5100  0.1726
10192TIP3   OH252066   3.565   4.791   3.753  0.1288  0.0422 -0.4849
10192TIP3    H152067   3.617   4.871   3.757  0.7009 -0.2348 -1.7762
10192TIP3    H252068   3.476   4.819   3.775  0.4613  0.8966 -0.1882
10193TIP3   OH252069   5.208   6.606   0.283 -0.0945  0.2311  0.0469
10193TIP3    H152070   5.261   6.556   0.221 -1.2050 -1.3476  0.3052
10193TIP3    H252071   5.270   6.636   0.349  0.4495 -2.0633  0.6533
10194TIP3   OH252072   1.959   2.596   4.134  0.2129  0.2019 -0.0503
10194TIP3    H152073   1.871   2.615   4.100 -0.1734 -0.6915  0.4019
10194TIP3    H252074   2.012   2.671   4.107 -0.6355  0.6486 -0.5302
10195TIP3   OH252075   2.974   2.836  16.677  0.2251 -0.3255  0.0964
10195TIP3    H152076   3.041   2.774  16.706 -0.3558 -1.8182 -1.5998
10195TIP3    H252077   2.928   2.791  16.606 -0.4692  1.9015 -0.9723
10196TIP3   OH252078   3.066   5.146   3.135  0.6789  0.2610  0.2110
10196TIP3    H152079   3.073   5.076   3.200  2.8209  0.6562  0.4887
10196TIP3    H252080   3.121   5.217   3.170  0.7918  1.0037 -1.3794
10197TIP3   OH252081   3.467   2.710  12.475  0.7773 -0.0816 -0.1769
10197TIP3    H152082   3.480   2.803  12.462  0.1563 -0.1624 -1.5401
10197TIP3    H252083   3.482   2.671  12.389 -3.0497 -0.7484 -0.7108
10198TIP3   OH252084   6.290   1.318  16.465  0.3266  0.6984  0.5519
10198TIP3    H152085   6.227   1.294  16.533 -0.6771 -0.8277 -0.8420
10198TIP3    H252086   6.352   1.246  16.463  0.4773  0.8395  0.0007
10199TIP3   OH252087   0.232   3.299   5.407 -0.1707  0.3461 -0.2071
10199TIP3    H152088   0.214   3.378   5.459 -1.5478 -0.9458  1.4003
10199TIP3    H252089   0.167   3.303   5.337  0.5351  1.1973 -0.8452
10200TIP3   OH252090   1.953   1.042   4.385  0.0119 -0.0729  0.0282
10200TIP3    H152091   2.047   1.056   4.380 -0.2194  1.4192 -0.4934
10200TIP3    H252092   1.914   1.128   4.371 -1.4211 -0.5112  1.0201
10201TIP3   OH252093   2.707   4.934  16.941 -0.1743  0.3314 -0.2539
10201TIP3    H152094   2.660   4.912  16.861 -1.2413  0.2104  0.3788
10201TIP3    H252095   2.655   4.893  17.011 -0.1120  1.7015  0.6225
10202TIP3   OH252096   5.260   6.760   5.313 -0.3288 -0.5220 -0.1289
10202TIP3    H152097   5.285   6.846   5.347 -1.1118 -0.5979  0.6574
10202TIP3    H252098   5.343   6.713   5.305 -0.0808 -0.4012  1.4064
10203TIP3   OH252099   5.441   5.433   4.801 -0.0029  0.5058 -0.0603
10203TIP3    H152100   5.452   5.467   4.890 -0.9821  1.5904 -0.3339
10203TIP3    H252101   5.410   5.343   4.813  0.6139  0.3861  0.6846
10204TIP3   OH252102   2.455   2.659   0.809 -0.0773 -0.0705  0.1975
10204TIP3    H152103   2.428   2.666   0.900 -1.2562 -2.0596  0.0665
10204TIP3    H252104   2.505   2.739   0.792 -1.9710  1.5613  1.8240
10205TIP3   OH252105   0.718   6.688   1.578 -0.2817  0.9790  0.4361
10205TIP3    H152106   0.751   6.756   1.519 -0.7774  2.0822  1.4004
10205TIP3    H252107   0.643   6.651   1.532  0.2173  0.7893 -0.2602
10206TIP3   OH252108   2.983   4.291  11.316  0.2371 -0.3469 -0.1276
10206TIP3    H152109   2.949   4.358  11.258  1.4476 -0.4545 -0.9858
10206TIP3    H252110   2.977   4.210  11.266 -2.0664 -1.1009  1.2165
10207TIP3   OH252111   3.310   0.035   2.120 -0.7832  0.2897 -0.9006
10207TIP3    H152112   3.261   0.094   2.177  0.8186  0.7867  0.0162
10207TIP3    H252113   3.372  -0.010   2.178 -2.2621 -2.7313 -1.4510
10208TIP3   OH252114   4.470   6.453  15.319 -0.5560  0.0238  1.0500
10208TIP3    H152115   4.421   6.389  15.370  0.7718 -0.8764  1.2353
10208TIP3    H252116   4.530   6.493  15.382 -0.7882  0.8636  0.7523
10209TIP3   OH252117   3.114   4.930   4.042  0.7211  0.2573 -0.1301
10209TIP3    H152118   3.153   4.903   4.125  0.1471 -1.0504 -0.2584
10209TIP3    H252119   3.022   4.948   4.063  0.5582 -0.1460 -0.4858
10210TIP3   OH252120   5.791   1.331   4.557 -0.4014 -0.4325 -0.7665
10210TIP3    H152121   5.800   1.309   4.464 -1.1854  0.4468 -1.0767
10210TIP3    H252122   5.785   1.427   4.558  1.7348 -0.2497  0.4077
10211TIP3   OH252123   5.693   0.712  10.865 -0.3109  0.0047 -0.2156
10211TIP3    H152124   5.643   0.790  10.840  1.4507  0.2523 -3.5671
10211TIP3    H252125   5.784   0.741  10.868  0.0789 -1.1774  2.2976
10212TIP3   OH252126   5.755   1.967   4.629  0.0167  0.1368 -0.3081
10212TIP3    H152127   5.810   1.922   4.564 -0.3748 -2.0185  0.7549
10212TIP3    H252128   5.814   2.028   4.673  0.5292  0.8607 -1.9432
10213TIP3   OH252129   0.912   4.639  14.440  0.6851  0.1721  0.4806
10213TIP3    H152130   0.879   4.610  14.354 -0.1785  0.6887  0.6220
10213TIP3    H252131   0.999   4.601  14.446  1.0421  0.6992 -0.9283
10214TIP3   OH252132   2.547   1.179  13.967 -1.1080  0.5749  0.0419
10214TIP3    H152133   2.593   1.227  14.035 -2.8521  1.5366  0.6061
10214TIP3    H252134   2.491   1.118  14.015  0.2345 -1.2671 -0.6446
10215TIP3   OH252135   1.999   4.824  14.882 -0.3729 -0.2908  0.2038
10215TIP3    H152136   1.972   4.812  14.973 -4.7491 -0.6327 -0.8921
10215TIP3    H252137   2.016   4.918  14.874 -1.3460 -0.0222  1.0941
10216TIP3   OH252138   1.545   5.203  15.113 -0.0218 -0.1624  0.1360
10216TIP3    H152139   1.500   5.286  15.121 -0.9876 -0.7128  0.5039
10216TIP3    H252140   1.501   5.158  15.040 -0.1341 -0.7349  0.5463
10217TIP3   OH252141   6.821   3.675  13.475  0.0004  0.6808 -0.1366
10217TIP3    H152142   6.837   3.760  13.516 -0.0202  0.2874  0.7007
10217TIP3    H252143   6.905   3.651  13.436 -0.3426  1.7095 -1.6013
10218TIP3   OH252144   0.793   1.914   5.386 -0.3710 -0.1688  0.0529
10218TIP3    H152145   0.842   1.864   5.452 -1.2325  0.0358  0.8791
10218TIP3    H252146   0.769   1.995   5.430  1.2269  1.1379 -1.3660
10219TIP3   OH252147   0.283   4.902   6.666 -0.1175 -0.1539 -0.3566
10219TIP3    H152148   0.210   4.872   6.611 -0.4687 -0.4439  0.2603
10219TIP3    H252149   0.272   4.997   6.670  0.6894  0.0337 -1.8756
10220TIP3   OH252150   5.560   4.112   1.068  0.2208  0.3487  0.1646
10220TIP3    H152151   5.571   4.034   1.123  0.4434  0.0753 -0.2597
10220TIP3    H252152   5.631   4.106   1.005 -0.8719 -0.1239 -1.0658
10221TIP3   OH252153   0.272   1.173  15.369  0.1273 -0.4764 -0.9308
10221TIP3    H152154   0.225   1.219  15.439 -0.7725 -1.0281 -1.1700
10221TIP3    H252155   0.297   1.242  15.308 -0.5891 -0.2073 -0.9265
10222TIP3   OH252156   0.983   0.065  13.812 -0.3632  0.0875  0.8218
10222TIP3    H152157   1.055   0.108  13.766  0.1347  0.0521  1.5487
10222TIP3    H252158   0.992   0.095  13.902 -2.9120  2.2747  0.4549
10223TIP3   OH252159   2.210   6.273  12.511  0.0322  0.0779  1.0049
10223TIP3    H152160   2.262   6.340  12.468  2.9373 -2.8591 -0.4817
10223TIP3    H252161   2.220   6.292  12.605  4.2320 -0.4231  0.8527
10224TIP3   OH252162   2.181   5.183  14.048 -0.5058 -0.2673  0.4756
10224TIP3    H152163   2.186   5.166  14.142 -1.3811  0.5867  0.6953
10224TIP3    H252164   2.202   5.099  14.007 -1.8079 -1.1094  1.4533
10225TIP3   OH252165   2.044   2.369   1.778 -0.0730 -0.0482 -0.1804
10225TIP3    H152166   2.069   2.402   1.865 -0.8027  1.2417 -0.4420
10225TIP3    H252167   2.027   2.275   1.792  2.8777 -0.5954  0.4145
10226TIP3   OH252168   3.702   2.977   5.182  0.3539 -0.1252  0.3519
10226TIP3    H152169   3.758   2.907   5.147 -0.6264 -1.3669  1.1940
10226TIP3    H252170   3.729   2.986   5.273  0.8358  0.9853  0.1099
10227TIP3   OH252171   1.080   3.279   3.106  0.3178 -0.3998 -0.9064
10227TIP3    H152172   1.023   3.352   3.131  0.7169  0.7846 -3.2446
10227TIP3    H252173   1.019   3.208   3.086 -0.1721 -0.1609 -0.3135
10228TIP3   OH252174   4.684   2.167  11.198  0.0992 -0.5119  0.5499
10228TIP3    H152175   4.706   2.142  11.108 -1.9766  0.7147 -0.3718
10228TIP3    H252176   4.700   2.261  11.201  1.1639 -0.6935  1.8525
10229TIP3   OH252177   4.311   5.188  15.531 -0.4862  0.1851 -0.5934
10229TIP3    H152178   4.276   5.229  15.610  0.7395  0.2377 -0.0651
10229TIP3    H252179   4.352   5.259  15.483  1.5535 -0.3323  0.2722
10230TIP3   OH252180   4.516   5.566  14.822 -0.2677  0.2142  0.0869
10230TIP3    H152181   4.472   5.647  14.795 -0.7971  0.5470  1.7801
10230TIP3    H252182   4.608   5.590  14.830 -0.7618  1.5124  3.2661
10231TIP3   OH252183   5.341   1.249   2.342 -0.2859 -0.9308 -0.0581
10231TIP3    H152184   5.427   1.263   2.382 -0.1895  1.4509 -0.8850
10231TIP3    H252185   5.297   1.334   2.350 -2.7756 -2.2087  0.7310
10232TIP3   OH252186   3.024   5.159  15.207 -0.4565 -0.7491  0.3037
10232TIP3    H152187   3.052   5.126  15.292  0.0619  1.7626  1.2017
10232TIP3    H252188   3.074   5.240  15.195 -1.4823 -0.3500 -1.8004
10233TIP3   OH252189   3.515   2.809  16.191 -0.0458 -0.0688 -0.4602
10233TIP3    H152190   3.449   2.879  16.188 -0.5793 -0.5692 -0.6623
10233TIP3    H252191   3.526   2.783  16.100 -1.0209 -1.3159 -0.2449
10234TIP3   OH252192   6.158   0.558  12.062 -0.3604  0.2381 -0.5300
10234TIP3    H152193   6.121   0.502  11.994 -1.9876 -0.6560  1.0276
10234TIP3    H252194   6.217   0.500  12.111 -0.7617  0.3208  0.0570
10235TIP3   OH252195   6.708   0.268  14.058 -0.0737 -0.2001  0.2236
10235TIP3    H152196   6.768   0.210  14.104 -0.8751 -0.0615  1.4916
10235TIP3    H252197   6.750   0.354  14.061  0.3613 -0.3916 -0.2440
10236TIP3   OH252198   3.131   3.051  11.582  0.7196  0.0307  0.2328
10236TIP3    H152199   3.159   3.109  11.511  1.3737 -1.2530 -0.6067
10236TIP3    H252200   3.051   3.091  11.616 -0.7462 -0.3102 -2.5328
10237TIP3   OH252201   4.717   1.329   5.364  0.9264 -0.2736  0.4969
10237TIP3    H152202   4.664   1.300   5.289  0.4445 -0.4507  0.9016
10237TIP3    H252203   4.807   1.305   5.341  1.0406  1.2437 -0.8069
10238TIP3   OH252204   1.969   2.537   0.580 -0.5323  0.3575 -0.5323
10238TIP3    H152205   2.039   2.578   0.530 -1.2225  2.3319  0.0541
10238TIP3    H252206   1.909   2.608   0.601 -0.9767 -0.6481  1.9213
10239TIP3   OH252207   1.440   2.577  15.637 -0.0546 -0.0292 -0.0962
10239TIP3    H152208   1.493   2.654  15.656 -1.3073  1.4319 -2.1195
10239TIP3    H252209   1.376   2.573  15.709  0.3914  0.4554  0.3362
10240TIP3   OH252210   1.297   1.146   3.678  0.0989 -0.0622  0.1610
10240TIP3    H152211   1.219   1.136   3.733 -0.0593 -0.8122 -0.1972
10240TIP3    H252212   1.331   1.233   3.701 -1.0787  0.4550  0.0173
10241TIP3   OH252213   0.303   4.319  15.266  0.1042 -0.3598 -0.1541
10241TIP3    H152214   0.243   4.267  15.318 -0.5746 -0.2862 -0.8495
10241TIP3    H252215   0.297   4.407  15.302 -2.4116  0.3213 -2.0043
10242TIP3   OH252216   1.426   2.238  14.255  0.6015  0.2488  0.6576
10242TIP3    H152217   1.495   2.268  14.312  0.7802  3.2407 -0.9524
10242TIP3    H252218   1.436   2.290  14.175 -0.9843 -2.1366 -1.2506
10243TIP3   OH252219   1.930   2.348  12.993 -0.0182 -0.2725 -0.1297
10243TIP3    H152220   1.939   2.284  12.923  0.6001 -0.5135  0.1607
10243TIP3    H252221   1.838   2.345  13.017  0.2137 -1.9690  0.7142
10244TIP3   OH252222   6.273   2.757   3.273 -0.1684  0.2150 -0.0082
10244TIP3    H152223   6.310   2.700   3.205 -1.4859  0.5516 -1.0535
10244TIP3    H252224   6.230   2.697   3.334 -0.3261 -0.0105 -0.3359
10245TIP3   OH252225   6.063   5.279   4.689 -0.2973 -0.0360  0.1922
10245TIP3    H152226   6.063   5.299   4.595 -0.9045  0.1392  0.2226
10245TIP3    H252227   6.099   5.357   4.730  0.7988 -0.4531  0.0469
10246TIP3   OH252228   5.903   5.981   0.112 -0.3536  0.1519  0.2961
10246TIP3    H152229   5.993   6.012   0.112 -0.4537  0.4529 -0.0437
10246TIP3    H252230   5.906   5.898   0.160 -0.0200  0.5059  0.9054
10247TIP3   OH252231   1.433   5.354   3.051  0.4367  0.1281  0.1969
10247TIP3    H152232   1.447   5.310   3.135  0.4229  0.3841  0.3369
10247TIP3    H252233   1.514   5.339   3.002 -0.5307 -2.2515 -0.7891
10248TIP3   OH252234   6.254   1.689  12.767  0.3579  0.0087  0.1722
10248TIP3    H152235   6.196   1.698  12.843 -0.1038  1.4988 -0.3134
10248TIP3    H252236   6.336   1.732  12.794  1.0763 -1.5678  0.6443
10249TIP3   OH252237   1.860   4.660  16.390 -0.0686  0.3058  0.6697
10249TIP3    H152238   1.798   4.603  16.345 -0.4324  0.8114  0.5277
10249TIP3    H252239   1.879   4.614  16.472  0.4697 -0.5430  0.0969
10250TIP3   OH252240   4.132   6.000  13.769  1.3331  0.1258 -0.2896
10250TIP3    H152241   4.127   5.979  13.676  1.9413 -0.3151 -0.2316
10250TIP3    H252242   4.041   5.996  13.799  0.9663  1.4998 -1.1060
10251TIP3   OH252243   4.989   1.237  12.065 -0.3399 -0.3833 -0.1744
10251TIP3    H152244   5.016   1.147  12.045  1.3894 -0.3647  1.8067
10251TIP3    H252245   5.036   1.290  12.000  1.4388 -0.6787  0.8063
10252TIP3   OH252246   5.648   3.404  15.536 -0.3963 -0.3513 -0.2637
10252TIP3    H152247   5.627   3.480  15.591 -1.2516  0.1277 -1.2220
10252TIP3    H252248   5.674   3.336  15.598 -3.2854 -0.4941  0.9383
10253TIP3   OH252249   2.061   1.854  16.619 -0.4046 -0.0506 -0.3447
10253TIP3    H152250   2.093   1.796  16.550 -1.2064 -2.0313  0.8867
10253TIP3    H252251   1.991   1.904  16.577 -0.8148 -1.1541 -1.0213
10254TIP3   OH252252   3.079   3.242  12.587 -0.4352 -0.4190 -0.0660
10254TIP3    H152253   3.091   3.251  12.682  1.9963 -1.8491 -0.1560
10254TIP3    H252254   3.082   3.332  12.554  1.4602 -0.0428  0.9777
10255TIP3   OH252255   6.474   0.910   2.789  0.6714  0.0299  0.1365
10255TIP3    H152256   6.433   0.991   2.758 -0.6094 -0.4697  0.4619
10255TIP3    H252257   6.428   0.890   2.870  2.4993  0.1491  1.2632
10256TIP3   OH252258   5.180   3.866  12.226 -0.1017  0.2229 -0.4971
10256TIP3    H152259   5.177   3.771  12.233  0.2163  0.0513 -2.3496
10256TIP3    H252260   5.094   3.895  12.257 -0.4657 -0.7053 -0.6140
10257TIP3   OH252261   5.684   2.742   4.414 -0.2591 -0.3621 -0.7243
10257TIP3    H152262   5.628   2.807   4.455  0.7306 -0.3251  0.6404
10257TIP3    H252263   5.747   2.793   4.363  0.6472 -0.1792  0.5098
10258TIP3   OH252264   5.125   1.121  17.126 -0.9654 -0.2978 -0.6102
10258TIP3    H152265   5.188   1.049  17.118 -0.6301 -0.0968  0.1869
10258TIP3    H252266   5.179   1.199  17.138 -1.3547 -0.0430 -0.5090
10259TIP3   OH252267   2.868   5.296   0.851 -0.0936  0.2214  0.1890
10259TIP3    H152268   2.882   5.358   0.780  0.1766 -0.6536 -0.5507
10259TIP3    H252269   2.902   5.340   0.929  0.3988  0.8661 -0.3797
10260TIP3   OH252270   3.532   5.060   6.367 -0.2459  0.1857  0.1444
10260TIP3    H152271   3.493   5.102   6.290 -0.2284  2.9684  1.5233
10260TIP3    H252272   3.513   5.120   6.439  1.0085 -1.5903  2.0559
10261TIP3   OH252273   6.448   0.844  13.600 -0.0206  0.1062  0.1356
10261TIP3    H152274   6.432   0.760  13.557  3.2673  0.2652 -1.7605
10261TIP3    H252275   6.473   0.903  13.528  2.2700  1.3617  1.8202
10262TIP3   OH252276   3.728   5.595   0.783 -0.4852  0.4095  0.2246
10262TIP3    H152277   3.754   5.557   0.867  2.1881  0.9079 -0.2617
10262TIP3    H252278   3.655   5.653   0.804 -0.5730 -0.2792  2.0026
10263TIP3   OH252279   1.906   4.864  13.896 -0.3338 -0.0855  0.1314
10263TIP3    H152280   1.959   4.927  13.848 -0.5557  2.8175  3.3565
10263TIP3    H252281   1.952   4.850  13.978 -1.1076 -3.0655  0.2005
10264TIP3   OH252282   5.990   3.988  11.111  0.1624 -0.2737  0.3138
10264TIP3    H152283   5.923   4.024  11.052  0.7074  0.2589  0.0101
10264TIP3    H252284   5.959   3.899  11.130 -0.7343  0.0259  0.3450
10265TIP3   OH252285   1.587   2.962  11.463 -0.3833 -0.2729  0.1339
10265TIP3    H152286   1.643   3.013  11.522 -1.3963  1.3340 -0.2259
10265TIP3    H252287   1.519   2.926  11.520  0.7613 -1.9177  0.5122
10266TIP3   OH252288   0.627   2.161   2.487 -0.2638 -0.0278  0.3009
10266TIP3    H152289   0.661   2.249   2.505 -0.3003  0.4349 -1.6078
10266TIP3    H252290   0.536   2.164   2.516 -0.5372  0.9002 -0.5730
10267TIP3   OH252291   1.500   4.254   4.497  0.0706  0.6840 -0.8182
10267TIP3    H152292   1.562   4.283   4.430  0.8310  2.3048  0.4993
10267TIP3    H252293   1.480   4.333   4.548 -1.2438 -0.2817  0.2619
10268TIP3   OH252294   1.196   4.861  13.776 -0.1951 -0.0927  0.1386
10268TIP3    H152295   1.132   4.932  13.775 -2.0118 -1.6244  0.7630
10268TIP3    H252296   1.242   4.871  13.859  0.2957  0.9374 -0.2447
10269TIP3   OH252297   5.213   5.119  15.564 -0.1854 -0.3018  0.4696
10269TIP3    H152298   5.188   5.072  15.644 -1.8267  2.0006  1.4110
10269TIP3    H252299   5.143   5.182  15.550  1.9684  2.0344 -0.5511
10270TIP3   OH252300   1.873   4.172   5.257 -0.0475 -0.0048 -0.9557
10270TIP3    H152301   1.909   4.241   5.313  2.5036 -2.2075  0.3840
10270TIP3    H252302   1.791   4.148   5.298  1.0685 -0.5630  1.0785
10271TIP3   OH252303   4.642   2.671  12.065 -0.4717  0.3982  0.1946
10271TIP3    H152304   4.729   2.709  12.069 -0.5284  0.4506  1.4082
10271TIP3    H252305   4.586   2.736  12.107 -1.0508  0.2498 -0.3389
10272TIP3   OH252306   5.143   5.895   1.816 -0.2200 -0.0636 -0.3478
10272TIP3    H152307   5.115   5.933   1.733  1.0408  0.5077 -0.5380
10272TIP3    H252308   5.175   5.969   1.868 -0.5297 -0.4790  0.4504
10273TIP3   OH252309   6.469   2.943  14.503 -0.0782  0.7197 -0.0096
10273TIP3    H152310   6.382   2.912  14.478  0.6048 -0.0803 -1.4901
10273TIP3    H252311   6.503   2.874  14.559  0.5359 -0.1591 -1.4245
10274TIP3   OH252312   3.891   1.000  11.698 -0.1492 -0.7080  0.1831
10274TIP3    H152313   3.946   0.928  11.666 -0.3874 -0.3285 -1.1384
10274TIP3    H252314   3.815   0.999  11.640 -0.5434  0.0984  0.6727
10275TIP3   OH252315   1.902   0.671  16.260 -0.2405  0.2771  0.6709
10275TIP3    H152316   1.886   0.711  16.346 -0.2519 -0.8869  1.2277
10275TIP3    H252317   1.979   0.615  16.273 -0.8860 -0.7496  0.2177
10276TIP3   OH252318   1.508   1.838   1.251 -0.0321  0.1172  0.0949
10276TIP3    H152319   1.592   1.793   1.247 -0.7912 -1.2941 -0.6314
10276TIP3    H252320   1.443   1.768   1.260 -1.2548  1.0595 -0.9523
10277TIP3   OH252321   1.273   6.467  16.085  0.2519 -0.3833 -0.3668
10277TIP3    H152322   1.300   6.445  15.996  0.3736 -0.7218 -0.2447
10277TIP3    H252323   1.209   6.400  16.108 -1.6757  1.0969 -1.1241
10278TIP3   OH252324   0.760   6.536   0.622 -0.4270  0.1510 -0.1507
10278TIP3    H152325   0.845   6.492   0.617 -1.5082 -1.8956 -2.4595
10278TIP3    H252326   0.779   6.620   0.664  2.8408  0.0677 -1.2249
10279TIP3   OH252327   4.181   2.854   1.633  0.4060 -0.1502 -0.3476
10279TIP3    H152328   4.120   2.885   1.567  1.6448  0.2591 -1.3336
10279TIP3    H252329   4.261   2.834   1.585  0.2825 -3.2169  0.4667
10280TIP3   OH252330   1.655   1.084   2.710  0.4519  0.3232 -0.1347
10280TIP3    H152331   1.672   1.001   2.665  0.8788  0.0221  0.5612
10280TIP3    H252332   1.696   1.073   2.796  0.5083  1.2569 -0.0356
10281TIP3   OH252333   4.609   3.442   4.722 -0.1241 -0.5982 -0.0271
10281TIP3    H152334   4.517   3.428   4.743 -0.6427  0.0294 -1.7138
10281TIP3    H252335   4.622   3.536   4.734  0.2598 -0.6642  0.0890
10282TIP3   OH252336   6.335   3.206   3.164 -0.0135 -0.3314 -0.4280
10282TIP3    H152337   6.348   3.267   3.237 -0.4535 -1.3342  0.5232
10282TIP3    H252338   6.406   3.226   3.103  1.7183 -0.8994  1.2959
10283TIP3   OH252339   3.874   5.924  14.937 -0.6034 -0.6694  0.1658
10283TIP3    H152340   3.851   5.832  14.925 -0.3657 -1.0197  2.0683
10283TIP3    H252341   3.799   5.963  14.982 -1.0682  0.3130 -1.3659
10284TIP3   OH252342   3.426   1.432   1.481  0.2264 -0.3616  0.4904
10284TIP3    H152343   3.433   1.523   1.455 -0.7223  0.0137  1.4930
10284TIP3    H252344   3.513   1.395   1.462  0.6052  0.7232  0.0439
10285TIP3   OH252345   0.815   5.664   0.664 -0.3837  0.8890 -0.3675
10285TIP3    H152346   0.736   5.677   0.612  0.8679 -0.3770 -2.7251
10285TIP3    H252347   0.874   5.734   0.637  1.4612 -1.5406 -3.2715
10286TIP3   OH252348   1.891   3.132  11.273 -0.1771  0.9718 -0.1242
10286TIP3    H152349   1.804   3.102  11.248 -0.0495 -0.9180  1.4372
10286TIP3    H252350   1.875   3.194  11.344 -0.2781  1.0229 -0.1914
10287TIP3   OH252351   6.536   6.697   5.356  0.8391 -0.6504  0.3321
10287TIP3    H152352   6.621   6.662   5.382  1.4830 -0.4693 -1.3389
10287TIP3    H252353   6.557   6.776   5.305 -0.3472 -0.4476  0.1116
10288TIP3   OH252354   2.918   5.070  13.384 -0.2755 -0.1581 -0.2088
10288TIP3    H152355   2.869   5.013  13.325  0.7543 -1.3698  0.0815
10288TIP3    H252356   2.969   5.127  13.326 -0.2121 -0.5057 -0.4995
10289TIP3   OH252357   3.958   2.754  12.204  0.1594 -0.0251  0.2956
10289TIP3    H152358   4.041   2.738  12.248  0.6389  1.3958 -0.0574
10289TIP3    H252359   3.910   2.671  12.213  0.2689  0.1327  3.3350
10290TIP3   OH252360   3.256   2.459   4.725  0.3840 -0.1092 -0.4793
10290TIP3    H152361   3.314   2.429   4.794  0.2797 -0.0101 -0.3477
10290TIP3    H252362   3.170   2.422   4.747 -0.0179  1.1991  0.3273
10291TIP3   OH252363   0.750   2.089  16.662  0.2299 -0.5435 -0.2078
10291TIP3    H152364   0.726   2.124  16.748  0.8946 -2.3421  0.7679
10291TIP3    H252365   0.762   1.995  16.677 -0.1978 -1.0031 -2.4092
10292TIP3   OH252366   1.299   2.279   4.639 -0.5737 -0.3599 -0.3543
10292TIP3    H152367   1.282   2.350   4.578  0.4927  0.0996 -0.1562
10292TIP3    H252368   1.299   2.200   4.586 -0.5397 -0.0646 -0.7969
10293TIP3   OH252369   0.898   3.477   4.707 -0.1368  0.0781 -0.6928
10293TIP3    H152370   0.962   3.547   4.720 -2.2937  2.3253 -1.4436
10293TIP3    H252371   0.876   3.449   4.796  2.1150 -1.0654 -0.4232
10294TIP3   OH252372   4.867   6.511  11.793 -0.1486  0.1251 -0.1642
10294TIP3    H152373   4.916   6.525  11.875  0.9833  1.3134 -0.9947
10294TIP3    H252374   4.930   6.467  11.736 -1.0526 -1.0229 -0.2897
10295TIP3   OH252375   5.284   4.122   4.160  0.1277 -0.2835 -0.4499
10295TIP3    H152376   5.276   4.213   4.131  3.0803 -0.4783 -2.4233
10295TIP3    H252377   5.272   4.071   4.079 -1.3644 -1.6833  0.6032
10296TIP3   OH252378   5.838   3.498   5.530 -0.7403 -0.0286  0.1505
10296TIP3    H152379   5.919   3.528   5.572 -0.2206 -1.4481  0.2010
10296TIP3    H252380   5.849   3.524   5.438 -0.6008  0.5104  0.3119
10297TIP3   OH252381   6.700   0.050   1.893 -0.8418 -0.3822  1.0759
10297TIP3    H152382   6.690   0.077   1.802  0.5445  0.3072  1.0914
10297TIP3    H252383   6.769  -0.017   1.890 -1.7550 -1.3737  1.4730
10298TIP3   OH252384   0.476   4.735   3.724 -0.2110  0.5528  0.0618
10298TIP3    H152385   0.492   4.830   3.723 -0.1591  0.5420 -0.3847
10298TIP3    H252386   0.430   4.718   3.642  1.3143 -0.0741 -0.6834
10299TIP3   OH252387   2.708   3.345  13.443  0.1976 -0.2564 -0.0620
10299TIP3    H152388   2.708   3.249  13.437  1.4993 -0.2673 -0.0984
10299TIP3    H252389   2.663   3.364  13.525  0.4310 -0.9312  0.2340
10300TIP3   OH252390   2.781   1.773   4.992 -0.4420  0.3980  0.2754
10300TIP3    H152391   2.696   1.740   5.022  1.3491 -1.7123  3.7097
10300TIP3    H252392   2.805   1.839   5.057  0.0649  1.9066 -1.3819
10301TIP3   OH252393   2.760   0.565  14.294  0.1683  0.2772 -0.4188
10301TIP3    H152394   2.768   0.614  14.376  0.8844 -0.8790  0.2401
10301TIP3    H252395   2.851   0.546  14.269 -0.0817 -0.3510 -0.8669
10302TIP3   OH252396   1.988   3.458   4.750 -0.0459  0.0969  0.0118
10302TIP3    H152397   1.940   3.453   4.668  1.1557 -0.1960 -0.6971
10302TIP3    H252398   2.004   3.367   4.775 -0.4711  0.1812  0.6304
10303TIP3   OH252399   3.525   4.027  14.225  0.1755  0.1262 -0.1205
10303TIP3    H152400   3.600   4.030  14.165  0.4767 -1.5847  0.1014
10303TIP3    H252401   3.473   4.103  14.202  0.2202 -0.5172 -2.6682
10304TIP3   OH252402   2.782   3.254   5.267 -0.8525  0.0505 -0.2363
10304TIP3    H152403   2.740   3.170   5.250 -1.8283  0.7457 -1.3980
10304TIP3    H252404   2.850   3.260   5.200  1.1095 -0.9984  1.5324
10305TIP3   OH252405   2.968   6.346   2.178 -0.1046 -0.6592 -0.6810
10305TIP3    H152406   3.000   6.271   2.127  0.1352  0.4293 -2.1848
10305TIP3    H252407   2.881   6.319   2.209  0.8073 -2.3450  0.6041
10306TIP3   OH252408   5.903   0.979  11.650  0.4354  0.3155  0.1997
10306TIP3    H152409   5.991   0.995  11.685  1.1537 -0.3195 -1.2274
10306TIP3    H252410   5.913   0.902  11.593 -1.5696 -1.3711  1.9382
10307TIP3   OH252411   0.745   1.115   2.385 -0.4501 -0.3670  0.1117
10307TIP3    H152412   0.745   1.180   2.455  1.5341  0.9638 -1.0116
10307TIP3    H252413   0.833   1.077   2.387 -0.8102 -1.3198 -0.7704
10308TIP3   OH252414   1.576   4.849  12.792  0.0227 -0.0673  0.5239
10308TIP3    H152415   1.498   4.903  12.778 -0.4667 -0.4862  1.5406
10308TIP3    H252416   1.648   4.900  12.755 -0.7052  0.3904 -0.3073
10309TIP3   OH252417   4.174   2.753   2.724 -0.5824 -0.3456  0.1922
10309TIP3    H152418   4.120   2.820   2.767  0.0246  0.6154 -0.4906
10309TIP3    H252419   4.250   2.743   2.781 -1.6787 -2.1187  1.4563
10310TIP3   OH252420   2.496   1.126  11.153 -0.1936 -0.4179  0.3019
10310TIP3    H152421   2.406   1.115  11.121  0.0998 -0.3104 -0.5968
10310TIP3    H252422   2.487   1.145  11.246 -1.3157  2.8110 -0.3323
10311TIP3   OH252423   1.940   3.797  14.035 -0.2774  0.2886  0.2263
10311TIP3    H152424   1.886   3.742  14.093 -0.2914 -0.1912 -0.2286
10311TIP3    H252425   1.902   3.783  13.948 -0.6398  1.4719  0.1727
10312TIP3   OH252426   6.237   3.150  12.828  0.0639  0.1482  0.0722
10312TIP3    H152427   6.249   3.055  12.839 -2.7359 -0.3708 -0.4926
10312TIP3    H252428   6.261   3.167  12.737  0.6831  0.0095  0.2067
10313TIP3   OH252429   1.407   5.089   4.070 -0.6191  0.0428 -0.2925
10313TIP3    H152430   1.467   5.020   4.041  0.3919 -0.0057  1.7100
10313TIP3    H252431   1.322   5.062   4.036  0.1807 -0.7928 -1.7726
10314TIP3   OH252432   4.197   6.044   2.007  0.1964  0.3097 -0.8306
10314TIP3    H152433   4.251   6.058   2.085 -0.8132 -0.4871  0.0399
10314TIP3    H252434   4.217   5.954   1.980 -2.0454 -0.7184  0.6535
10315TIP3   OH252435   2.899   1.503   6.320 -0.1255  0.2751 -0.4593
10315TIP3    H152436   2.910   1.593   6.291  2.9459 -0.3266 -1.6366
10315TIP3    H252437   2.960   1.494   6.393 -0.2776 -0.8726 -0.4504
10316TIP3   OH252438   5.996   3.491  11.145 -0.3081  0.3460 -0.2266
10316TIP3    H152439   5.955   3.550  11.081 -0.5235  1.2590  0.7272
10316TIP3    H252440   6.020   3.548  11.218  1.8639 -0.3303 -0.3641
10317TIP3   OH252441   6.421   6.359  11.094 -0.3069 -0.7117  0.1677
10317TIP3    H152442   6.383   6.446  11.076 -0.3323 -0.4123  1.5544
10317TIP3    H252443   6.449   6.327  11.008 -2.0929 -0.1849 -0.6463
10318TIP3   OH252444   0.998   0.814  13.320  0.2190 -0.3450  0.1313
10318TIP3    H152445   0.970   0.816  13.412 -0.4281 -0.1061 -0.0620
10318TIP3    H252446   1.086   0.852  13.321  0.4728 -0.9261  0.7337
10319TIP3   OH252447   4.582   4.133   0.072 -0.5155 -0.7360 -0.3696
10319TIP3    H152448   4.548   4.076   0.140 -0.9326 -1.3871 -1.1177
10319TIP3    H252449   4.546   4.220   0.093  0.0665 -0.7377  0.7281
10320TIP3   OH252450   5.680   6.774  10.949 -0.1860  0.0893 -1.0666
10320TIP3    H152451   5.726   6.690  10.942  0.6716  0.5028 -0.6328
10320TIP3    H252452   5.611   6.759  11.014 -0.2238 -0.3625 -1.2137
10321TIP3   OH252453   4.658   5.239  16.973 -0.7565  0.3023  0.3727
10321TIP3    H152454   4.667   5.218  16.880 -1.1203 -1.1300  0.6419
10321TIP3    H252455   4.706   5.169  17.018  0.5392  1.6841  1.2465
10322TIP3   OH252456   0.459   0.680   4.790 -0.1778 -0.0577 -0.4399
10322TIP3    H152457   0.495   0.601   4.829 -0.6964  0.1056  0.3938
10322TIP3    H252458   0.535   0.734   4.770  0.0700  0.3482  1.4346
10323TIP3   OH252459   4.580   1.682  13.341 -0.3941  0.1986  0.7068
10323TIP3    H152460   4.536   1.709  13.422 -3.2581  1.5748 -1.1495
10323TIP3    H252461   4.510   1.678  13.276  1.9393  0.2300 -1.9851
10324TIP3   OH252462   4.950   4.689   5.383 -0.6408 -0.3671  0.1487
10324TIP3    H152463   5.015   4.619   5.394  0.5175  0.4855 -1.0178
10324TIP3    H252464   4.947   4.732   5.469  0.1156 -0.5969  0.3000
10325TIP3   OH252465   6.138   1.455  16.027  0.4050 -0.1697  0.4149
10325TIP3    H152466   6.085   1.455  16.107  1.3582 -0.4354  1.0552
10325TIP3    H252467   6.175   1.367  16.023 -0.0058 -0.3155 -0.5852
10326TIP3   OH252468   0.897   6.017  11.413 -0.3648  0.2811 -0.3497
10326TIP3    H152469   0.869   6.052  11.497  2.2032 -2.0392  1.6282
10326TIP3    H252470   0.950   6.087  11.374  0.8521  0.3592  1.3636
10327TIP3   OH252471   5.043   3.028   1.808  0.5130  0.8221  0.3791
10327TIP3    H152472   5.133   3.002   1.788  0.5204  2.0405 -1.4522
10327TIP3    H252473   5.018   3.083   1.734 -1.1525  1.9295  1.7116
10328TIP3   OH252474   5.853   5.698  17.009 -0.1008 -0.1498 -0.9469
10328TIP3    H152475   5.898   5.664  16.932 -0.3402 -0.6087 -0.8931
10328TIP3    H252476   5.875   5.636  17.078  1.9333  1.4490 -0.0615
10329TIP3   OH252477   1.279   0.816  14.956  0.3397  0.3579  0.3769
10329TIP3    H152478   1.188   0.786  14.948  0.6742 -0.4370 -0.8944
10329TIP3    H252479   1.324   0.773  14.883  1.7206  0.8150  0.9301
10330TIP3   OH252480   2.878   0.431   5.248  0.2899  0.1312  0.0739
10330TIP3    H152481   2.934   0.448   5.173 -0.5169 -1.2159 -0.8820
10330TIP3    H252482   2.902   0.343   5.278 -0.8246 -0.1962  0.0621
10331TIP3   OH252483   6.758   2.417   1.421 -0.4086 -0.4539 -0.3302
10331TIP3    H152484   6.768   2.511   1.409 -1.1360 -0.4296 -0.8219
10331TIP3    H252485   6.817   2.378   1.357  0.5474 -0.3463  0.4637
10332TIP3   OH252486   5.873   3.920   6.259  0.5334  0.1685 -0.5055
10332TIP3    H152487   5.871   4.012   6.288 -1.3600  0.3764 -1.1283
10332TIP3    H252488   5.823   3.874   6.327  2.1767 -0.5824  0.2414
10333TIP3   OH252489   0.669   5.884  16.769 -0.0662 -0.4543  0.0078
10333TIP3    H152490   0.699   5.827  16.697 -0.0325 -0.8155  0.3050
10333TIP3    H252491   0.732   5.868  16.840 -0.3880 -0.4679  0.2897
10334TIP3   OH252492   2.055   0.876  14.680 -0.0156 -0.0039 -0.1643
10334TIP3    H152493   2.083   0.954  14.632  0.5602  0.7091  1.2853
10334TIP3    H252494   2.053   0.806  14.614  1.0984  0.8640 -1.1465
10335TIP3   OH252495   0.926   0.678   3.915 -0.5939 -0.3947 -0.2429
10335TIP3    H152496   0.876   0.656   3.837 -2.2215  2.3019 -0.1020
10335TIP3    H252497   0.869   0.653   3.988 -0.7972  0.6625 -0.0256
10336TIP3   OH252498   4.033   2.665   2.012 -0.1760  0.2521 -0.3426
10336TIP3    H152499   4.057   2.626   1.928  0.0783 -1.2808  0.4128
10336TIP3    H252500   4.041   2.593   2.075 -1.0803  1.1886  0.8772
10337TIP3   OH252501   3.437   4.601   3.997 -0.0466  0.2194  0.4845
10337TIP3    H152502   3.457   4.539   3.926 -0.1739  0.3318  0.3506
10337TIP3    H252503   3.356   4.568   4.036 -1.3639  1.5092 -0.9985
10338TIP3   OH252504   2.410   4.011  11.762  0.2937 -0.0816 -0.0634
10338TIP3    H152505   2.380   3.920  11.769 -0.1444  0.1584  1.7099
10338TIP3    H252506   2.480   4.018  11.826  0.5152  0.7681 -0.3862
10339TIP3   OH252507   5.300   0.978   3.200  0.1206 -0.3837 -0.3289
10339TIP3    H152508   5.364   1.050   3.205 -1.3526  0.9282  0.3356
10339TIP3    H252509   5.293   0.947   3.291 -0.7020 -0.0427 -0.2726
10340TIP3   OH252510   0.245   2.138  13.328 -0.5800  0.2792  0.2044
10340TIP3    H152511   0.270   2.229  13.342 -2.2964  0.8797 -0.4099
10340TIP3    H252512   0.288   2.114  13.245  0.7627  0.1441  0.9050
10341TIP3   OH252513   1.864   0.561   0.416  0.0919  0.2744 -0.2415
10341TIP3    H152514   1.776   0.587   0.390  0.1234  0.1375 -0.4807
10341TIP3    H252515   1.890   0.628   0.479 -0.1130  0.4152 -0.3035
10342TIP3   OH252516   5.005   4.763  13.160 -0.2648 -0.3270  0.0296
10342TIP3    H152517   5.015   4.858  13.159 -0.5193 -0.2985  0.1980
10342TIP3    H252518   5.090   4.730  13.188  0.3806 -0.2322 -1.6571
10343TIP3   OH252519   2.134   1.829   5.324  0.5875 -0.1754  0.3772
10343TIP3    H152520   2.071   1.827   5.396  0.8895  0.6484  0.6737
10343TIP3    H252521   2.087   1.789   5.251 -0.0859 -0.0904  0.7541
10344TIP3   OH252522   4.156   2.220   5.645 -0.5255 -0.7126 -0.3092
10344TIP3    H152523   4.127   2.153   5.583 -3.8061  0.8554 -0.6788
10344TIP3    H252524   4.128   2.187   5.731 -0.4604 -0.6744 -0.2735
10345TIP3   OH252525   6.434   6.121   0.821 -0.2715 -0.1462 -0.2733
10345TIP3    H152526   6.529   6.109   0.819 -0.2203  0.3326 -0.9085
10345TIP3    H252527   6.403   6.079   0.741 -0.9176 -2.8367  1.2864
10346TIP3   OH252528   0.038   1.578  11.285  0.9221  0.8010  0.6849
10346TIP3    H152529   0.019   1.658  11.332 -0.0336  0.2473  1.2780
10346TIP3    H252530  -0.046   1.532  11.281  1.6961 -0.7572  1.4854
10347TIP3   OH252531   4.515   6.797  14.686 -0.2239 -0.2753 -0.6577
10347TIP3    H152532   4.537   6.879  14.731 -0.0188 -0.4017 -0.5290
10347TIP3    H252533   4.599   6.754  14.672 -0.0963  0.4288 -2.4688
10348TIP3   OH252534   3.555   2.148  14.586  0.1931  0.1198 -0.4481
10348TIP3    H152535   3.531   2.056  14.574 -0.1636  0.0074  0.9603
10348TIP3    H252536   3.630   2.145  14.647  2.1254  0.6195 -2.6438
10349TIP3   OH252537   6.580   6.187   1.610 -0.1528 -0.0807  0.0895
10349TIP3    H152538   6.549   6.115   1.556 -0.5445 -0.0384  0.2558
10349TIP3    H252539   6.664   6.157   1.645 -0.7425 -0.8159  0.8880
10350TIP3   OH252540   4.784   3.261  16.994 -0.3103  0.5030 -0.5291
10350TIP3    H152541   4.799   3.219  16.909 -0.7889 -1.8421  0.4661
10350TIP3    H252542   4.695   3.236  17.018  0.0368  0.6132  0.9401
10351TIP3   OH252543   4.051   5.547   3.891  0.2983 -0.6504  0.3303
10351TIP3    H152544   4.056   5.611   3.821  1.2215 -0.7130  0.3198
10351TIP3    H252545   4.099   5.588   3.964 -1.4377 -0.1766  1.2745
10352TIP3   OH252546   4.878   2.142   1.584  0.5224  0.3210  0.0140
10352TIP3    H152547   4.808   2.139   1.518 -0.0991  0.2523  0.6581
10352TIP3    H252548   4.942   2.204   1.548  1.0939 -1.0641 -1.4938
10353TIP3   OH252549   5.682   3.876  13.710 -0.1000 -0.6135  0.3129
10353TIP3    H152550   5.703   3.833  13.793 -0.3152  2.8137  2.3051
10353TIP3    H252551   5.761   3.866  13.657  0.6603 -1.4403  1.5494
10354TIP3   OH252552   4.356   5.896  16.184  0.4980  0.4344 -0.2788
10354TIP3    H152553   4.418   5.885  16.113  1.1378 -1.5621  0.5304
10354TIP3    H252554   4.403   5.947  16.250  1.9585 -2.4104  1.0133
10355TIP3   OH252555   1.796   1.656  12.679 -0.7727  0.1082 -0.4680
10355TIP3    H152556   1.740   1.733  12.687 -2.1189 -0.7582 -1.3082
10355TIP3    H252557   1.737   1.585  12.654  0.4965 -1.1328 -0.0624
10356TIP3   OH252558   1.232   5.630  16.680 -0.8220 -0.3716  0.4965
10356TIP3    H152559   1.284   5.674  16.747  0.8018 -1.8050  0.2422
10356TIP3    H252560   1.297   5.591  16.621 -2.1790  0.7636 -1.9081
10357TIP3   OH252561   6.442   6.419   1.648 -0.2659 -0.0932 -0.2927
10357TIP3    H152562   6.457   6.328   1.623  2.2995 -0.3260  1.6866
10357TIP3    H252563   6.459   6.422   1.742 -2.9396  1.9666  0.2516
10358TIP3   OH252564   5.758   5.183   4.985 -0.6204 -0.1182  0.3989
10358TIP3    H152565   5.698   5.142   4.923 -0.1702  0.6858 -0.6036
10358TIP3    H252566   5.754   5.276   4.964 -0.4639  0.1758  1.6015
10359TIP3   OH252567   0.241   5.071   6.129 -0.7918 -0.3016  0.8853
10359TIP3    H152568   0.240   5.089   6.223 -0.7528  0.1544  0.7973
10359TIP3    H252569   0.161   5.111   6.096 -1.4624 -1.5461  0.9179
10360TIP3   OH252570   1.290   5.001  13.002  0.1053 -0.5645  0.2695
10360TIP3    H152571   1.342   4.990  12.922  0.4319  0.0409  0.3935
10360TIP3    H252572   1.281   5.096  13.012  1.0847 -0.5842  1.5972
10361TIP3   OH252573   3.634   6.600  13.033 -0.0521 -0.3502  0.7652
10361TIP3    H152574   3.594   6.669  13.086 -0.2986  0.7400 -0.7661
10361TIP3    H252575   3.563   6.539  13.016 -0.6267  0.5894 -0.3422
10362TIP3   OH252576   0.579   6.437   3.677 -0.4835 -0.2504 -0.0607
10362TIP3    H152577   0.642   6.450   3.606 -0.7551 -1.0041 -0.4428
10362TIP3    H252578   0.498   6.478   3.646 -0.4999 -0.2626 -0.0345
10363TIP3   OH252579   5.008   6.180  16.222  0.0619 -0.5465 -0.0664
10363TIP3    H152580   4.988   6.127  16.145  0.6869  0.0394 -0.6513
10363TIP3    H252581   4.926   6.223  16.245 -0.5066 -1.8984  0.5390
10364TIP3   OH252582   2.274   1.753   1.048 -0.1612 -0.1756 -0.5412
10364TIP3    H152583   2.215   1.776   1.120 -0.9860 -0.5074 -1.0938
10364TIP3    H252584   2.309   1.667   1.073  0.3573  0.1744 -0.0503
10365TIP3   OH252585   5.359   1.178   5.778  0.3642  0.0375  0.2421
10365TIP3    H152586   5.445   1.139   5.759 -0.9029 -3.2160  0.5179
10365TIP3    H252587   5.376   1.236   5.852  2.7873  1.8690 -1.5657
10366TIP3   OH252588   1.673   6.610   1.467 -0.0096 -0.1920 -0.6339
10366TIP3    H152589   1.654   6.696   1.429  1.4213 -0.2117 -1.4668
10366TIP3    H252590   1.613   6.602   1.541  0.3389  1.8421 -0.0827
10367TIP3   OH252591   6.494   1.515  16.377 -0.2332 -0.6057 -0.4440
10367TIP3    H152592   6.475   1.573  16.303  0.2973 -1.6323 -1.4231
10367TIP3    H252593   6.410   1.478  16.402 -0.7982  1.5220  1.0510
10368TIP3   OH252594   5.614   0.066   2.590  0.1353  0.3712  0.5634
10368TIP3    H152595   5.657   0.151   2.583  0.4127  0.0806 -2.2601
10368TIP3    H252596   5.676   0.005   2.550 -1.6176 -0.5396 -0.8572
10369TIP3   OH252597   3.009   0.684   0.156  0.2546  0.0292  0.2176
10369TIP3    H152598   2.930   0.682   0.209 -0.8678  0.7965 -1.3554
10369TIP3    H252599   3.076   0.720   0.214 -1.0726  1.4263  0.9293
10370TIP3   OH252600   5.884   3.817   5.182 -0.5508  0.0743  0.3931
10370TIP3    H152601   5.845   3.823   5.269  1.7518  1.7181  1.3952
10370TIP3    H252602   5.824   3.867   5.126 -1.1535  0.4601  1.3577
10371TIP3   OH252603   0.037   6.152  12.973 -0.2120  0.0407  0.7388
10371TIP3    H152604   0.089   6.124  12.898  0.8062  1.2070  0.9741
10371TIP3    H252605   0.054   6.087  13.041  0.8445  0.3222  0.7607
10372TIP3   OH252606   4.364   6.271  14.975  0.4131  0.4955  0.2440
10372TIP3    H152607   4.294   6.281  14.911  0.3540  2.1409  0.5251
10372TIP3    H252608   4.445   6.284  14.924  0.5875 -1.6773 -0.1357
10373TIP3   OH252609   0.230   1.826   1.188  0.3790 -0.0721 -0.2006
10373TIP3    H152610   0.262   1.739   1.165 -0.3639 -1.1299  2.3321
10373TIP3    H252611   0.309   1.875   1.211  0.6345 -1.1462  1.4130
10374TIP3   OH252612   3.622   5.872  12.619 -0.2942  0.3664 -0.7418
10374TIP3    H152613   3.659   5.937  12.561  0.5560 -0.1031 -0.7384
10374TIP3    H252614   3.643   5.788  12.578 -1.0693  0.0726 -0.5708
10375TIP3   OH252615   5.930   6.672  15.128  0.8072 -0.1777  0.3834
10375TIP3    H152616   5.979   6.718  15.196  0.3790 -0.0637  0.6158
10375TIP3    H252617   5.842   6.709  15.132  0.6652 -0.4719  0.0536
10376TIP3   OH252618   2.776   0.029  15.633  0.7075 -0.0247  0.5372
10376TIP3    H152619   2.844  -0.019  15.679 -0.3139 -2.0589  0.0624
10376TIP3    H252620   2.699  -0.029  15.637 -1.0873  2.2593  1.2507
10377TIP3   OH252621   2.649   4.110  14.227  0.1012  0.2799 -0.5777
10377TIP3    H152622   2.695   4.081  14.306 -0.4787  1.6128  0.2969
10377TIP3    H252623   2.556   4.103  14.249 -0.1068 -0.6143 -1.6482
10378TIP3   OH252624   6.594   0.014   2.755  0.6540 -0.1907  0.0906
10378TIP3    H152625   6.536  -0.015   2.685  1.3562 -0.0620 -0.5632
10378TIP3    H252626   6.598  -0.060   2.815 -0.4753 -0.0636  0.3488
10379TIP3   OH252627   5.888   3.686  15.650 -0.0320 -0.5652 -0.1620
10379TIP3    H152628   5.802   3.646  15.645 -0.9340  1.0345  1.4717
10379TIP3    H252629   5.877   3.774  15.613  1.0307 -0.5315 -0.4492
10380TIP3   OH252630   4.702   6.748   3.495  0.0465 -0.0861  0.1453
10380TIP3    H152631   4.706   6.767   3.589  1.2658  0.0123  0.0870
10380TIP3    H252632   4.708   6.834   3.453 -0.9303 -0.0939 -0.0281
10381TIP3   OH252633   3.121   5.046   5.145 -0.0994 -0.4973  0.3660
10381TIP3    H152634   3.075   5.118   5.186 -2.5706 -2.5016  1.4100
10381TIP3    H252635   3.175   5.009   5.214  0.9415  0.1593 -0.0864
10382TIP3   OH252636   0.935   6.445  13.975 -0.1562 -0.5051 -0.7589
10382TIP3    H152637   0.990   6.470  14.049  0.4860 -4.2610  0.2161
10382TIP3    H252638   0.975   6.487  13.900  1.7633 -0.0353  0.4646
10383TIP3   OH252639   4.906   4.786  10.799 -0.2174  0.3357 -0.4716
10383TIP3    H152640   4.978   4.741  10.843 -1.1970 -1.2751 -0.4374
10383TIP3    H252641   4.870   4.844  10.866  1.1286  1.2880 -0.5382
10384TIP3   OH252642   1.709   0.363   6.467 -0.3494 -0.4942  0.4466
10384TIP3    H152643   1.787   0.391   6.420  0.0069  0.9488  1.8111
10384TIP3    H252644   1.645   0.432   6.451 -0.7578 -0.7926  0.7582
10385TIP3   OH252645   3.879   5.205  14.607 -0.1714  0.1280  0.4409
10385TIP3    H152646   3.922   5.122  14.585 -1.2775 -0.6111  1.0015
10385TIP3    H252647   3.852   5.241  14.522  0.0901 -0.1983  0.2164
10386TIP3   OH252648   2.340   0.711   3.848  0.3242 -0.0532  0.6844
10386TIP3    H152649   2.249   0.741   3.861 -0.3106 -2.1239  1.3430
10386TIP3    H252650   2.339   0.619   3.873  2.2649 -0.5788 -0.9356
10387TIP3   OH252651   5.143   2.910   2.078 -0.1500 -0.0872 -0.6831
10387TIP3    H152652   5.227   2.947   2.103 -0.9512  0.0442  2.1920
10387TIP3    H252653   5.138   2.827   2.126 -1.3450 -0.4626 -1.4021
10388TIP3   OH252654   1.321   2.455  11.841  0.6046 -0.3532 -0.6347
10388TIP3    H152655   1.257   2.519  11.811  0.4879  0.1336  0.6113
10388TIP3    H252656   1.393   2.462  11.779  0.9831  1.6132 -0.0160
10389TIP3   OH252657   3.484   3.459   3.608 -0.9118 -0.0884  0.1772
10389TIP3    H152658   3.536   3.427   3.682  1.5646  0.0365 -1.4070
10389TIP3    H252659   3.491   3.555   3.615 -1.9784 -0.0336  0.6288
10390TIP3   OH252660   3.688   3.842  13.111 -0.8875 -0.4821  0.2312
10390TIP3    H152661   3.618   3.906  13.126 -1.1312 -0.9818  1.3215
10390TIP3    H252662   3.675   3.815  13.020 -0.6056  1.1995 -0.3440
10391TIP3   OH252663   0.304   0.333  14.569 -0.2060 -1.0662  0.1161
10391TIP3    H152664   0.212   0.313  14.584 -0.0481 -0.4798  2.1832
10391TIP3    H252665   0.349   0.302  14.648  1.5884 -2.4295 -1.3239
10392TIP3   OH252666   6.225   1.770  15.641  0.2185  0.7492 -0.2341
10392TIP3    H152667   6.221   1.834  15.712  1.7724 -0.0706  0.6558
10392TIP3    H252668   6.158   1.705  15.663  0.1479  0.9235  0.0694
10393TIP3   OH252669   3.708   2.583   0.171  0.1137 -0.4257  0.1169
10393TIP3    H152670   3.712   2.594   0.266  1.5803  1.3989 -0.1099
10393TIP3    H252671   3.654   2.656   0.140 -2.1688 -2.1807 -0.3525
10394TIP3   OH252672   1.171   4.466   3.371 -0.5354 -0.7470  0.1556
10394TIP3    H152673   1.166   4.463   3.275  1.4883 -3.1726  0.0200
10394TIP3    H252674   1.084   4.440   3.400 -0.6651 -1.8246 -1.0873
10395TIP3   OH252675   6.519   4.013   3.711  0.0740  0.4924  0.1442
10395TIP3    H152676   6.515   4.034   3.804 -0.5318  1.6173 -0.1241
10395TIP3    H252677   6.568   4.084   3.671  0.8581 -0.2878 -0.3221
10396TIP3   OH252678   0.864   4.535  10.452  0.0821  0.0238  0.0947
10396TIP3    H152679   0.807   4.575  10.387 -0.4475 -0.6728  0.1253
10396TIP3    H252680   0.880   4.605  10.517 -0.2478  0.3932 -0.2211
10397TIP3   OH252681   4.517   3.447  12.438  0.3673  0.5716  0.4541
10397TIP3    H152682   4.593   3.488  12.396  1.2502  0.0516  1.4811
10397TIP3    H252683   4.537   3.354  12.436 -2.2749 -0.1015 -3.1789
10398TIP3   OH252684   3.736   3.994  11.732  0.5841 -0.1195 -0.1543
10398TIP3    H152685   3.818   3.956  11.701  0.4240 -0.5971  0.0045
10398TIP3    H252686   3.741   3.988  11.827  0.2655 -0.3584 -0.1522
10399TIP3   OH252687   5.643   5.906  14.042 -0.1072  0.1051  0.6238
10399TIP3    H152688   5.656   5.813  14.063 -0.0747 -0.0335  0.0038
10399TIP3    H252689   5.713   5.951  14.090 -0.5016 -0.1255  1.4214
10400TIP3   OH252690   5.895   5.173   6.210 -0.0906 -0.1800 -0.0593
10400TIP3    H152691   5.928   5.085   6.194 -1.7877 -0.7044 -0.9758
10400TIP3    H252692   5.837   5.163   6.286  0.3733  0.3338  0.3702
10401TIP3   OH252693   5.626   4.147   6.057 -0.2394  0.7938  0.1380
10401TIP3    H152694   5.687   4.101   6.000  1.5536  4.1615 -0.9312
10401TIP3    H252695   5.681   4.190   6.122 -1.5448  2.7854  0.0172
10402TIP3   OH252696   0.074   0.062  11.900  0.2692  0.3359 -0.1834
10402TIP3    H152697   0.154   0.113  11.889  0.4680  0.3866  1.2748
10402TIP3    H252698   0.061   0.059  11.995  0.9545 -3.3690 -0.0853
10403TIP3   OH252699   4.085   6.003   2.763  0.8411 -0.2147  0.0066
10403TIP3    H152700   4.006   5.967   2.721  2.0802 -0.6844 -2.0778
10403TIP3    H252701   4.077   6.098   2.750  1.1151 -0.3366 -1.2349
10404TIP3   OH252702   4.663   2.040   0.578 -0.1074 -0.1627 -0.1694
10404TIP3    H152703   4.688   2.033   0.486  0.1844  0.0217 -0.1081
10404TIP3    H252704   4.634   1.952   0.602 -1.6137  0.1240 -0.8359
10405TIP3   OH252705   6.240   6.357   0.251  0.3506 -0.0810  0.6884
10405TIP3    H152706   6.216   6.320   0.336  1.9277 -0.1001  1.1487
10405TIP3    H252707   6.323   6.401   0.266  1.1693 -0.9206 -1.0686
10406TIP3   OH252708   5.010   1.773  13.263 -0.1983 -0.2606 -0.0816
10406TIP3    H152709   5.068   1.801  13.191  0.0350  0.0110  0.2065
10406TIP3    H252710   4.922   1.783  13.228 -0.0721 -1.5563 -0.8521
10407TIP3   OH252711   4.773   5.938   4.276 -0.2331 -0.7944  0.2586
10407TIP3    H152712   4.709   5.871   4.254  0.6999 -1.4018 -0.6869
10407TIP3    H252713   4.748   5.968   4.364 -1.5994 -1.2399  0.0421
10408TIP3   OH252714   5.773   1.909  15.386  0.5780  0.0531  0.0751
10408TIP3    H152715   5.717   1.837  15.357 -0.2441  1.2563 -1.5035
10408TIP3    H252716   5.862   1.875  15.379  0.3941 -0.0531 -3.1995
10409TIP3   OH252717   0.571   5.972  17.117 -0.5859 -0.6819 -0.2677
10409TIP3    H152718   0.609   5.931  17.040  1.4619 -1.6421  1.1608
10409TIP3    H252719   0.605   6.062  17.117 -1.0483 -0.5002 -0.7467
10410TIP3   OH252720   2.568   6.179  15.062 -0.2835 -0.3553 -0.1602
10410TIP3    H152721   2.630   6.108  15.050 -0.8010 -1.0578  1.1503
10410TIP3    H252722   2.588   6.216  15.147 -0.4246  0.6837 -0.5568
10411TIP3   OH252723   5.131   6.211  15.371  0.2809  0.7365 -0.9412
10411TIP3    H152724   5.180   6.262  15.306  0.6757  0.9042 -0.5169
10411TIP3    H252725   5.055   6.266  15.392 -0.1938  0.3924 -1.7395
10412TIP3   OH252726   5.208   4.112  13.169 -0.2735  0.1668 -0.3054
10412TIP3    H152727   5.163   4.029  13.155  1.3167 -0.8951  0.4815
10412TIP3    H252728   5.240   4.137  13.082 -1.7809  0.6255 -0.7625
10413TIP3   OH252729   3.995   5.789   5.551 -0.1229 -0.2331 -0.0468
10413TIP3    H152730   4.047   5.747   5.482 -1.3188 -3.5425  0.8862
10413TIP3    H252731   3.920   5.826   5.505 -0.0930 -0.9687 -0.7040
10414TIP3   OH252732   0.691   1.772  15.004  0.3329  1.0773 -0.3103
10414TIP3    H152733   0.723   1.706  14.942 -0.3546  0.8774 -0.4589
10414TIP3    H252734   0.742   1.757  15.083 -0.8593 -0.6719  0.1922
10415TIP3   OH252735   4.929   3.276  13.857 -0.0303  0.5679 -0.1313
10415TIP3    H152736   5.005   3.333  13.867  1.5376 -1.5718  1.1658
10415TIP3    H252737   4.964   3.187  13.863 -2.6198 -0.5398  0.5188
10416TIP3   OH252738   0.642   0.094  14.798  0.3162  0.6147  0.1969
10416TIP3    H152739   0.554   0.120  14.826  0.5827  1.5634  0.1988
10416TIP3    H252740   0.688   0.177  14.785  1.0018  0.1393 -0.4800
10417TIP3   OH252741   6.726   4.369   3.373  0.2554 -0.0538  0.0925
10417TIP3    H152742   6.799   4.381   3.312 -1.2772  1.1479 -1.5948
10417TIP3    H252743   6.654   4.339   3.319 -0.9272  0.2122  1.4599
10418TIP3   OH252744   1.769   0.475  12.593  0.0660  0.2144 -0.1349
10418TIP3    H152745   1.696   0.486  12.654 -0.1914  0.3794 -0.4696
10418TIP3    H252746   1.847   0.492  12.645 -0.1617  0.4838  0.1193
10419TIP3   OH252747   5.815   6.791   5.173  0.2355  0.2290 -0.3918
10419TIP3    H152748   5.784   6.713   5.220  0.1484  0.3397 -0.2652
10419TIP3    H252749   5.737   6.844   5.161 -0.1766 -0.7507 -2.5395
10420TIP3   OH252750   4.882   4.891   4.588  0.2250  0.0191  0.0795
10420TIP3    H152751   4.964   4.843   4.581 -0.0819 -0.2674 -3.2206
10420TIP3    H252752   4.816   4.830   4.554 -1.2360  0.5593  1.7993
10421TIP3   OH252753   0.288   0.681   2.801  0.3270  0.2069 -0.3664
10421TIP3    H152754   0.253   0.642   2.721 -0.5350  1.4641 -0.6320
10421TIP3    H252755   0.274   0.615   2.869 -3.5189  0.9253 -0.2410
10422TIP3   OH252756   3.820   3.163   5.679 -0.0038 -0.1013  0.3984
10422TIP3    H152757   3.740   3.157   5.731  0.5768  0.1269  1.3413
10422TIP3    H252758   3.875   3.224   5.727  0.2255  0.7887 -0.9349
10423TIP3   OH252759   2.292   2.203   5.260 -0.0367 -0.5264  0.0604
10423TIP3    H152760   2.342   2.280   5.288 -0.4504  0.3155 -1.3922
10423TIP3    H252761   2.217   2.201   5.319  0.4794 -0.3951  0.7340
10424TIP3   OH252762   4.154   1.644  13.274 -0.0029  0.1061  0.2977
10424TIP3    H152763   4.156   1.571  13.336 -2.3842  1.0620  1.6192
10424TIP3    H252764   4.235   1.635  13.224  0.9805 -1.9531  2.1073
10425TIP3   OH252765   0.881   3.726  14.786 -0.0992  0.4899  0.2660
10425TIP3    H152766   0.861   3.743  14.693  0.7881  0.9813  0.1544
10425TIP3    H252767   0.898   3.813  14.823  1.5957  0.1322  0.3918
10426TIP3   OH252768   2.969   5.743  11.181 -0.1801 -0.3521  0.5447
10426TIP3    H152769   2.990   5.829  11.144  0.3607 -0.4613  0.5882
10426TIP3    H252770   2.879   5.727  11.154 -0.3238  0.2770  0.6307
10427TIP3   OH252771   5.683   5.014   0.043  0.2440 -0.2134  0.3562
10427TIP3    H152772   5.764   4.978   0.007  1.0779  1.2710  0.6614
10427TIP3    H252773   5.659   4.954   0.114 -0.1112 -1.8405 -1.0768
10428TIP3   OH252774   5.982   2.834   5.835 -0.1845 -0.5274  0.1233
10428TIP3    H152775   6.064   2.807   5.793  1.6503 -0.4246  3.3452
10428TIP3    H252776   5.991   2.928   5.848 -1.8694 -0.0901 -1.4564
10429TIP3   OH252777   2.613   0.373   5.196  0.5244 -0.3218 -0.8498
10429TIP3    H152778   2.694   0.422   5.180 -0.1841  1.8000  1.4721
10429TIP3    H252779   2.643   0.285   5.221  2.1751  0.5805  0.5922
10430TIP3   OH252780   6.237   4.369  13.849  0.3101  0.3447  0.1384
10430TIP3    H152781   6.255   4.449  13.897  0.7275 -1.7196  3.7876
10430TIP3    H252782   6.145   4.376  13.823  0.7114  2.5141 -0.8855
10431TIP3   OH252783   2.720   3.494   5.868  0.4781 -0.0295 -0.1396
10431TIP3    H152784   2.700   3.558   5.936  1.6607  1.4341 -1.1089
10431TIP3    H252785   2.765   3.545   5.800  1.1195 -1.8279 -1.1152
10432TIP3   OH252786   2.466   5.599   2.759  0.0464  0.3942 -0.6151
10432TIP3    H152787   2.397   5.608   2.693  0.4262 -1.5780 -1.3494
10432TIP3    H252788   2.426   5.549   2.829 -0.0224  1.5340  0.1846
10433TIP3   OH252789   1.072   6.567   3.174 -0.5989  0.1897 -0.0443
10433TIP3    H152790   1.140   6.634   3.173  0.0422 -0.4128  0.8846
10433TIP3    H252791   1.094   6.512   3.249 -1.5957 -0.5618 -0.2763
10434TIP3   OH252792   4.467   2.686  15.568  0.2006 -0.1211  0.3192
10434TIP3    H152793   4.458   2.603  15.521 -0.9539 -0.8439  1.7236
10434TIP3    H252794   4.561   2.704  15.566  0.7752 -2.5070  1.6222
10435TIP3   OH252795   0.306   1.559   2.741  0.2437  0.4483  0.4629
10435TIP3    H152796   0.262   1.559   2.656 -0.2672 -1.2649  0.6712
10435TIP3    H252797   0.290   1.646   2.777 -1.2337  0.5476 -0.3528
10436TIP3   OH252798   6.752   1.451  13.288 -0.1000 -0.4405 -0.7604
10436TIP3    H152799   6.667   1.476  13.324  0.7878 -0.5291  1.5095
10436TIP3    H252800   6.736   1.366  13.247 -0.7992 -1.1743  0.9619
10437TIP3   OH252801   4.441   0.384  16.468  0.3514  0.0751 -0.7335
10437TIP3    H152802   4.523   0.405  16.423 -0.5790  0.6334 -2.2643
10437TIP3    H252803   4.414   0.300  16.430 -0.5531  0.6524 -1.4023
10438TIP3   OH252804   4.095   5.660   2.640  0.2135 -0.3740 -0.2663
10438TIP3    H152805   4.171   5.601   2.637  1.1651  0.8396 -1.6446
10438TIP3    H252806   4.127   5.741   2.600 -1.4720  0.5879  0.2766
10439TIP3   OH252807   6.687   0.472  11.204 -0.0133 -0.0377 -0.1563
10439TIP3    H152808   6.697   0.529  11.280  1.0085 -0.2218 -0.1410
10439TIP3    H252809   6.616   0.412  11.228  0.6012 -0.3833  0.8453
10440TIP3   OH252810   2.136   5.591  12.350  0.0916 -0.6076  0.6187
10440TIP3    H152811   2.202   5.621  12.412  0.6782  1.2633 -0.8256
10440TIP3    H252812   2.053   5.598  12.398  0.4426  1.5564  1.0092
10441TIP3   OH252813   0.662   4.193  12.437 -0.7040 -0.0781 -0.2239
10441TIP3    H152814   0.663   4.247  12.515  1.2961  0.3625 -0.4917
10441TIP3    H252815   0.578   4.212  12.395 -0.5565  1.9307  0.2960
10442TIP3   OH252816   6.414   5.228  14.619  0.2314 -0.2537  0.4840
10442TIP3    H152817   6.438   5.257  14.707  1.3300 -0.4959  0.2769
10442TIP3    H252818   6.450   5.295  14.561  1.0598 -0.9951  0.1240
10443TIP3   OH252819   1.680   3.436   0.420  0.4555 -0.9654  0.2562
10443TIP3    H152820   1.735   3.398   0.352 -0.8464 -2.7177  0.1326
10443TIP3    H252821   1.626   3.500   0.375 -0.4468 -2.1660 -0.4126
10444TIP3   OH252822   1.580   2.611   6.369 -0.1925  0.7414 -0.0185
10444TIP3    H152823   1.648   2.661   6.324 -1.5688  1.1739 -1.7314
10444TIP3    H252824   1.557   2.541   6.308 -0.7269  0.1202  0.8732
10445TIP3   OH252825   0.696   1.542  16.085  0.7564 -0.0840 -0.4060
10445TIP3    H152826   0.702   1.491  16.004  2.6244  0.2499 -0.5121
10445TIP3    H252827   0.785   1.544  16.119  0.4740  1.8998  0.3465
10446TIP3   OH252828   3.823   4.482   4.324  0.0509  0.0800  0.0510
10446TIP3    H152829   3.897   4.436   4.363 -1.2384 -1.3141  0.9899
10446TIP3    H252830   3.767   4.413   4.290 -1.6401  0.9485  0.9105
10447TIP3   OH252831   4.221   0.568   1.617  0.3512  0.3852  0.3953
10447TIP3    H152832   4.130   0.542   1.634  0.1021  1.6450  1.1472
10447TIP3    H252833   4.242   0.629   1.688  1.7065  0.3210  0.0831
10448TIP3   OH252834   2.026   0.086   4.976  0.4917 -0.2787 -0.0529
10448TIP3    H152835   2.010   0.168   5.023 -1.3101 -0.0511 -0.9844
10448TIP3    H252836   1.943   0.038   4.982 -1.0091  0.9755 -5.2871
10449TIP3   OH252837   1.527   2.552   6.690  0.0526  0.6299  0.3548
10449TIP3    H152838   1.567   2.465   6.696 -0.6509  0.2458 -0.3858
10449TIP3    H252839   1.453   2.549   6.750 -1.2772 -0.0406 -1.2264
10450TIP3   OH252840   5.463   3.530   0.133 -0.4159  0.3743  0.2531
10450TIP3    H152841   5.404   3.595   0.095 -1.3064 -1.0803 -0.9812
10450TIP3    H252842   5.406   3.470   0.182 -0.1106 -1.3305 -1.3519
10451TIP3   OH252843   0.426   0.340  10.823 -0.5548  0.2003 -0.2117
10451TIP3    H152844   0.476   0.321  10.743 -1.0938 -1.5100 -0.1953
10451TIP3    H252845   0.335   0.327  10.798 -0.7529 -0.0422  0.5895
10452TIP3   OH252846   5.730   4.286  16.992 -0.0244 -0.1124 -0.0610
10452TIP3    H152847   5.721   4.314  17.083 -2.1322  1.3765 -0.6470
10452TIP3    H252848   5.769   4.361  16.948  1.5380 -1.0392 -0.3452
10453TIP3   OH252849   0.044   0.242   1.348  0.5601 -0.9807  0.3819
10453TIP3    H152850   0.003   0.174   1.295  0.2803 -0.0690 -0.6024
10453TIP3    H252851   0.065   0.199   1.431 -1.8639 -1.6209  0.7199
10454TIP3   OH252852   3.733   0.377   0.398  0.0652 -0.0545  0.2768
10454TIP3    H152853   3.678   0.411   0.469  0.2210  0.7449  0.0218
10454TIP3    H252854   3.683   0.304   0.363 -0.2546 -0.1354  0.8745
10455TIP3   OH252855   0.620   2.425  14.882  0.1472 -0.2994 -0.3725
10455TIP3    H152856   0.555   2.476  14.834 -0.2248  0.8478  1.2537
10455TIP3    H252857   0.571   2.385  14.954  0.9795 -0.5918  0.0426
10456TIP3   OH252858   1.211   2.120  17.025  0.0489  0.0166 -0.3879
10456TIP3    H152859   1.125   2.117  16.984  0.0955  2.2498 -0.8102
10456TIP3    H252860   1.272   2.102  16.953 -0.0260 -0.1424 -0.4102
10457TIP3   OH252861   2.775   0.863  16.008 -0.3929 -0.0857  0.0853
10457TIP3    H152862   2.688   0.876  16.046  0.9550  0.7163  3.2432
10457TIP3    H252863   2.823   0.813  16.074  1.3290 -1.3616 -1.9785
10458TIP3   OH252864   1.312   5.137  11.382 -0.0557 -0.0981 -0.0002
10458TIP3    H152865   1.238   5.160  11.326 -0.1410  1.1242  0.6017
10458TIP3    H252866   1.317   5.041  11.376  1.0280  0.0033 -3.5267
10459TIP3   OH252867   6.653   0.752  15.855  0.1541  0.2409  0.2832
10459TIP3    H152868   6.612   0.669  15.831 -0.8468  0.2487  1.8084
10459TIP3    H252869   6.722   0.764  15.790  0.4701 -1.8996  0.1342
10460TIP3   OH252870   3.653   6.522   1.855 -0.1723 -0.0963 -0.2242
10460TIP3    H152871   3.611   6.562   1.931  0.0675  0.7675 -0.5319
10460TIP3    H252872   3.590   6.532   1.784  0.1239  0.2819 -0.4424
10461TIP3   OH252873   3.371   1.757   1.013 -0.1105 -0.2329  0.4648
10461TIP3    H152874   3.350   1.789   0.925  3.7238 -0.6178 -0.7806
10461TIP3    H252875   3.404   1.834   1.059  2.5929 -0.8786 -0.2237
10462TIP3   OH252876   1.956   4.174   6.532  0.4761  0.1789  0.3662
10462TIP3    H152877   1.919   4.109   6.473  0.6364  0.4196 -0.0069
10462TIP3    H252878   2.051   4.158   6.529  0.7492  1.8131 -1.4462
10463TIP3   OH252879   4.626   1.908  13.800  0.6916  0.1927 -0.2348
10463TIP3    H152880   4.586   1.977  13.852  0.0589 -0.1252 -0.2988
10463TIP3    H252881   4.719   1.932  13.796  0.7524  0.1988  1.0468
10464TIP3   OH252882   1.556   3.827  13.547  0.0834  0.2340 -0.4549
10464TIP3    H152883   1.604   3.747  13.525  2.2814  1.3665 -0.0380
10464TIP3    H252884   1.604   3.865  13.620 -2.1287  0.9289  0.7290
10465TIP3   OH252885   3.276   5.437  13.337  0.6257  0.1798  0.1101
10465TIP3    H152886   3.322   5.375  13.394  0.7082 -0.2597 -0.4284
10465TIP3    H252887   3.330   5.443  13.259  0.7617  1.1592  0.2684
10466TIP3   OH252888   0.293   0.696  16.352 -0.4037 -0.2512 -0.4554
10466TIP3    H152889   0.346   0.672  16.276 -3.1957 -0.7890 -2.3762
10466TIP3    H252890   0.302   0.621  16.412  1.6999  0.1105 -0.2482
10467TIP3   OH252891   5.942   2.905   1.810  0.4506  0.2354  0.2137
10467TIP3    H152892   5.972   2.821   1.844 -1.2642 -0.3577  0.3434
10467TIP3    H252893   5.919   2.956   1.887 -0.0970  0.1982  0.0767
10468TIP3   OH252894   1.198   3.795  12.281 -0.0044 -0.1947 -0.2662
10468TIP3    H152895   1.174   3.824  12.369 -1.1144 -0.2191 -0.5376
10468TIP3    H252896   1.152   3.712  12.270 -0.8016  0.3453 -1.2576
10469TIP3   OH252897   6.598   2.177  12.995  0.1526 -0.0461 -0.2123
10469TIP3    H152898   6.653   2.240  12.949 -0.9626 -0.2457 -1.9281
10469TIP3    H252899   6.535   2.231  13.043  0.7166  0.1449  0.3395
10470TIP3   OH252900   0.478   1.045  11.881 -0.1567 -0.4833 -0.1677
10470TIP3    H152901   0.448   0.968  11.928 -0.1826  0.0456  0.6948
10470TIP3    H252902   0.420   1.050  11.804 -1.0547 -0.5435  0.4907
10471TIP3   OH252903   5.933   0.306  11.648 -0.3661 -0.0165  0.6429
10471TIP3    H152904   5.948   0.380  11.707  0.5506  0.5160 -0.2250
10471TIP3    H252905   5.877   0.341  11.579 -0.6429 -0.3799  0.6760
10472TIP3   OH252906   5.937   6.213   3.900  0.5797 -0.2296  0.5418
10472TIP3    H152907   5.881   6.156   3.954 -0.4674 -0.7609 -1.0343
10472TIP3    H252908   6.022   6.212   3.945  0.2611 -2.1129  1.2182
10473TIP3   OH252909   1.172   2.794   5.041 -0.0201 -0.0723 -0.2220
10473TIP3    H152910   1.262   2.826   5.039  0.1210 -0.5073 -1.7366
10473TIP3    H252911   1.177   2.704   5.010 -0.8687 -0.4185  0.5920
10474TIP3   OH252912   3.293   6.305  15.257  0.1132  0.1489  0.3602
10474TIP3    H152913   3.270   6.342  15.172  0.6753 -0.6121 -0.1350
10474TIP3    H252914   3.324   6.379  15.309 -1.4596  0.8421  0.3558
10475TIP3   OH252915   0.324   6.327   0.925 -0.2140  0.4617 -0.1960
10475TIP3    H152916   0.269   6.279   0.987 -0.7167  0.8462 -0.3355
10475TIP3    H252917   0.412   6.292   0.938 -0.0619  1.3713  1.6162
10476TIP3   OH252918   1.461   3.186   0.334  0.1847  0.7866 -0.7571
10476TIP3    H152919   1.497   3.249   0.272  0.3403  0.2356 -1.2359
10476TIP3    H252920   1.536   3.157   0.385  0.1318  0.9022 -0.6120
10477TIP3   OH252921   2.678   6.228  16.023  0.7546  0.0076  0.1284
10477TIP3    H152922   2.628   6.152  16.053 -1.0434  1.7963  2.0102
10477TIP3    H252923   2.685   6.217  15.929 -1.5907 -1.2988  0.0441
10478TIP3   OH252924   1.116   2.527  15.182 -0.1979  0.5576  0.1794
10478TIP3    H152925   1.101   2.591  15.252 -0.7439 -1.5008  2.0654
10478TIP3    H252926   1.030   2.514  15.143 -0.4781 -0.4141  1.0942
10479TIP3   OH252927   2.109   6.409  15.189 -0.2902 -0.1639  0.4357
10479TIP3    H152928   2.162   6.487  15.170  1.5661 -1.3132  0.5903
10479TIP3    H252929   2.072   6.426  15.276  2.0425 -0.3762  1.5463
10480TIP3   OH252930   1.361   4.156  16.144 -0.2284  0.0248 -0.0620
10480TIP3    H152931   1.401   4.081  16.101 -0.1548  0.1947 -0.2918
10480TIP3    H252932   1.297   4.189  16.081  2.0407  2.1721 -1.3842
10481TIP3   OH252933   1.116   3.785  14.423 -0.5895  0.2986  0.6082
10481TIP3    H152934   1.084   3.695  14.415  1.9852 -0.8344  1.6504
10481TIP3    H252935   1.069   3.820  14.499 -0.0814 -0.9864  1.5632
10482TIP3   OH252936   6.642   3.124  14.460 -0.1804 -0.3719 -0.1225
10482TIP3    H152937   6.577   3.058  14.485 -0.1707 -1.0079 -1.6685
10482TIP3    H252938   6.590   3.193  14.419  0.1151 -1.0630 -1.7254
10483TIP3   OH252939   6.599   4.580  16.990  0.2405  0.2183  0.0491
10483TIP3    H152940   6.587   4.552  16.899 -0.5907  2.0052 -0.4346
10483TIP3    H252941   6.659   4.654  16.984  0.9547 -0.2546  1.0855
10484TIP3   OH252942   0.954   1.974   0.499  1.0641 -0.6344  0.1083
10484TIP3    H152943   1.022   2.025   0.544 -0.3611  1.3156  0.1423
10484TIP3    H252944   0.872   2.001   0.540 -0.3008  0.9654 -3.2891
10485TIP3   OH252945   3.072   6.595   5.864 -0.3572  0.3735 -0.6628
10485TIP3    H152946   3.145   6.575   5.922  0.0855 -0.8760 -1.6206
10485TIP3    H252947   3.002   6.624   5.923 -0.1212 -1.4193  0.5825
10486TIP3   OH252948   1.258   3.496   0.001 -0.2619  0.6469 -0.1157
10486TIP3    H152949   1.199   3.495   0.076 -1.0396  1.8312 -0.6738
10486TIP3    H252950   1.261   3.588  -0.025 -1.7498  0.0149 -2.8614
10487TIP3   OH252951   4.617   3.090  15.359  0.4076 -0.2378  0.6895
10487TIP3    H152952   4.566   3.009  15.353 -0.9836  0.6415  0.1839
10487TIP3    H252953   4.556   3.154  15.395  0.9013  1.0602 -0.7127
10488TIP3   OH252954   1.244   2.671   2.079  0.0235  0.2437 -0.0360
10488TIP3    H152955   1.298   2.628   2.145 -1.4180  0.2297  1.1704
10488TIP3    H252956   1.299   2.672   2.001  2.1359  1.0184  1.3529
10489TIP3   OH252957   2.723   1.005   0.774  0.8414 -0.4458 -0.3582
10489TIP3    H152958   2.709   1.096   0.745 -0.6576 -0.3406  0.5894
10489TIP3    H252959   2.806   1.008   0.821  0.6726  0.5184 -0.0793
10490TIP3   OH252960   2.839   0.092   4.358 -0.0170  0.4065  0.2750
10490TIP3    H152961   2.834   0.001   4.332 -1.2772  0.9618 -1.6436
10490TIP3    H252962   2.835   0.090   4.454  0.1660 -1.5231  0.2830
10491TIP3   OH252963   6.098   2.617  14.958  0.0510 -0.1029  0.4849
10491TIP3    H152964   6.131   2.676  14.890 -1.5355  1.6182  1.1254
10491TIP3    H252965   6.007   2.601  14.933  0.0692 -1.1941  1.0674
10492TIP3   OH252966   2.874   0.463   4.192  0.2962 -0.1448 -0.3623
10492TIP3    H152967   2.823   0.536   4.157  1.4483  0.8604 -0.0112
10492TIP3    H252968   2.813   0.389   4.192 -0.9428  0.8412 -0.5879
10493TIP3   OH252969   2.341   6.713   0.966  0.1277 -0.3624 -0.1997
10493TIP3    H152970   2.359   6.622   0.990  0.1266 -0.9020 -2.0478
10493TIP3    H252971   2.369   6.719   0.875 -0.7438  1.2390 -0.3930
10494TIP3   OH252972   2.882   4.030   1.298 -0.1608 -0.0243  0.1940
10494TIP3    H152973   2.897   3.974   1.222  1.0566  1.0017 -0.3698
10494TIP3    H252974   2.890   4.119   1.263 -2.1030  0.5224  1.0513
10495TIP3   OH252975   0.166   6.364  17.004 -0.7060  0.2093 -0.3386
10495TIP3    H152976   0.083   6.378  16.958 -0.6659 -2.0695 -1.2049
10495TIP3    H252977   0.232   6.406  16.949 -1.2790  2.6882  0.7193
10496TIP3   OH252978   1.880   2.761  11.996  0.4351 -0.0313 -0.0949
10496TIP3    H152979   1.818   2.760  11.922 -1.3943 -1.2313  1.3544
10496TIP3    H252980   1.940   2.689  11.977 -0.2374 -0.5605 -0.2632
10497TIP3   OH252981   1.182   6.036  15.720  0.2472  0.0221  0.1543
10497TIP3    H152982   1.267   5.993  15.728  0.3227  0.3421  1.3395
10497TIP3    H252983   1.197   6.111  15.663  0.4116 -0.7537 -0.8521
10498TIP3   OH252984   1.506   1.447   4.746  0.3239  0.4640 -0.1353
10498TIP3    H152985   1.579   1.426   4.806  0.6125  1.5835 -0.0793
10498TIP3    H252986   1.430   1.404   4.786  1.1294 -1.8238 -0.8545
10499TIP3   OH252987   5.791   5.852  13.332  0.1949  0.1073  0.1489
10499TIP3    H152988   5.742   5.862  13.414 -1.1132 -0.5307 -0.5288
10499TIP3    H252989   5.828   5.939  13.316 -0.2616  0.4643  0.9731
10500TIP3   OH252990   1.601   2.976   5.401  0.0867  0.5213  0.5005
10500TIP3    H152991   1.632   3.004   5.315 -1.9626  0.6769 -0.2396
10500TIP3    H252992   1.672   3.000   5.461  0.6720  2.3551 -0.8490
10501TIP3   OH252993   0.737   5.231  13.508  0.1462 -0.0031  0.4120
10501TIP3    H152994   0.753   5.158  13.449 -0.8502  0.5953 -0.6512
10501TIP3    H252995   0.823   5.256  13.540  0.5364 -1.3716  0.4740
10502TIP3   OH252996   6.179   5.588  17.132  0.2305  0.0667 -0.8148
10502TIP3    H152997   6.154   5.675  17.162 -0.8053 -0.0196 -1.3831
10502TIP3    H252998   6.100   5.536  17.140  1.4081 -1.5238  1.8460
10503TIP3   OH252999   0.485   1.783  13.759 -0.0797 -0.1543  0.4857
10503TIP3    H153000   0.517   1.701  13.721 -0.7536 -0.8105  1.3048
10503TIP3    H253001   0.390   1.777  13.752 -0.1197  0.7315  0.2089
10504TIP3   OH253002   5.089   2.650   3.544  0.1333  0.0805  0.2207
10504TIP3    H153003   5.021   2.711   3.513 -0.6906 -1.1755 -0.5079
10504TIP3    H253004   5.163   2.666   3.485 -0.1601  0.2195 -0.1175
10505TIP3   OH253005   5.973   1.077   6.136  0.1358  0.0396 -0.2446
10505TIP3    H153006   5.922   0.997   6.130 -0.8274  0.5875  0.2626
10505TIP3    H253007   6.062   1.048   6.154 -0.0687 -0.9306 -0.7517
10506TIP3   OH253008   3.072   2.530  14.047  0.2736 -0.1995  0.2742
10506TIP3    H153009   3.123   2.604  14.015  0.2060 -0.3029 -0.0711
10506TIP3    H253010   3.050   2.479  13.969 -1.3034  0.4374  0.2514
10507TIP3   OH253011   5.149   0.681   1.353  0.2929 -0.8122  0.3511
10507TIP3    H153012   5.241   0.701   1.368 -0.3062  1.3138  1.7567
10507TIP3    H253013   5.134   0.699   1.261  0.8686  0.9483  0.5643
10508TIP3   OH253014   3.864   6.490  11.235  0.1918  0.2955 -0.2157
10508TIP3    H153015   3.847   6.583  11.247 -2.4662 -0.0462 -0.6656
10508TIP3    H253016   3.873   6.480  11.140  1.3606  0.1947 -0.1048
10509TIP3   OH253017   6.757   5.850   0.517 -0.0379 -0.1559  0.0276
10509TIP3    H153018   6.719   5.810   0.438 -0.8982 -0.7316  0.7260
10509TIP3    H253019   6.807   5.779   0.557 -0.3220 -0.1069  0.4652
10510TIP3   OH253020   3.398   2.155  15.231  0.1183  0.1312  0.0937
10510TIP3    H153021   3.482   2.110  15.243  1.4170  2.1542 -0.8506
10510TIP3    H253022   3.339   2.087  15.197  1.2845 -1.3903  0.9780
10511TIP3   OH253023   4.471   1.158  12.762  0.4021 -0.1063 -0.0248
10511TIP3    H153024   4.489   1.064  12.754  0.4354 -0.1093  0.0980
10511TIP3    H253025   4.555   1.197  12.786  0.5565  0.0435 -0.7811
10512TIP3   OH253026   1.275   5.147  12.411  0.2969 -0.0203  0.2039
10512TIP3    H153027   1.306   5.119  12.325 -1.1320 -0.7057 -0.1208
10512TIP3    H253028   1.236   5.068  12.449 -2.8301  1.1675 -0.2583
10513TIP3   OH253029   6.417   5.369  13.763 -0.0952  0.3029 -0.1567
10513TIP3    H153030   6.402   5.389  13.671  1.2112  1.6445 -0.1070
10513TIP3    H253031   6.330   5.379  13.803 -1.1608 -2.4748 -1.5411
10514TIP3   OH253032   3.611   1.313   2.394  0.0171  0.2669 -0.3433
10514TIP3    H153033   3.529   1.360   2.385 -0.1760 -0.3242 -1.8695
10514TIP3    H253034   3.673   1.361   2.338  1.3120  1.8851  2.2540
10515TIP3   OH253035   4.130   0.852  10.601  0.1495  0.1979  0.0109
10515TIP3    H153036   4.139   0.943  10.631 -1.8176  0.6293 -0.5293
10515TIP3    H253037   4.197   0.842  10.534  0.4016  1.2453  0.0841
10516TIP3   OH253038   5.147   3.586   0.675 -0.0852 -0.1135 -0.2209
10516TIP3    H153039   5.200   3.576   0.754 -0.3666 -0.0461 -0.0179
10516TIP3    H253040   5.065   3.540   0.696 -0.5380  0.7271 -0.1067
10517TIP3   OH253041   5.649   2.656   4.145  0.0568  0.5909  0.2124
10517TIP3    H153042   5.618   2.728   4.202 -0.0031  0.2468  0.6193
10517TIP3    H253043   5.680   2.700   4.066  0.1719  1.0799  0.5258
10518TIP3   OH253044   2.128   2.242  10.974 -1.0704 -0.1692  0.4213
10518TIP3    H153045   2.054   2.302  10.987 -0.3048  0.8083  0.4371
10518TIP3    H253046   2.201   2.284  11.019 -0.0658 -0.1896 -1.0872
10519TIP3   OH253047   1.030   5.114  14.444  0.3184  0.0255 -0.5206
10519TIP3    H153048   0.947   5.160  14.442  0.5061  0.4595  0.9005
10519TIP3    H253049   1.009   5.027  14.478  0.5667  0.4438  0.7364
10520TIP3   OH253050   1.691   2.794   5.753  0.4114 -0.6490 -0.4411
10520TIP3    H153051   1.738   2.876   5.762  1.7346 -1.2767 -1.2923
10520TIP3    H253052   1.719   2.759   5.669  0.4748 -2.3294  0.2240
10521TIP3   OH253053   3.707   1.487  13.432 -0.3176  0.1676  0.0335
10521TIP3    H153054   3.714   1.536  13.514 -0.7689  0.7775 -0.2905
10521TIP3    H253055   3.635   1.528  13.385  0.6355  0.5625 -1.1608
10522TIP3   OH253056   4.838   0.581   3.314  0.0197  0.8987 -0.3680
10522TIP3    H153057   4.911   0.642   3.314 -0.8305  1.9637 -1.6712
10522TIP3    H253058   4.774   0.621   3.373  1.1618 -0.9831  2.3525
10523TIP3   OH253059   6.443   0.434   1.228 -0.0128 -0.8927  0.2590
10523TIP3    H153060   6.501   0.510   1.241  0.3278 -1.0749 -0.1707
10523TIP3    H253061   6.369   0.450   1.286  0.0450 -0.2153  0.1491
10524TIP3   OH253062   5.081   4.969   0.055 -0.0034 -0.1571 -0.2421
10524TIP3    H153063   5.014   5.037   0.049 -0.3945 -0.6327 -1.5936
10524TIP3    H253064   5.151   4.999  -0.003  0.2900 -0.3953 -0.0137
10525TIP3   OH253065   4.751   3.943  14.624 -0.0366 -0.1512  0.0437
10525TIP3    H153066   4.718   3.853  14.622 -1.1144  0.2029  1.2554
10525TIP3    H253067   4.707   3.986  14.551  0.1651 -0.4861 -0.2820
10526TIP3   OH253068   3.266   1.344   5.452 -0.1031  0.2410  0.3952
10526TIP3    H153069   3.352   1.313   5.426 -0.3625  1.0125 -1.5689
10526TIP3    H253070   3.282   1.431   5.488 -0.0476  0.4168 -0.0425
10527TIP3   OH253071   4.356   0.059  13.158  0.4108 -0.0401 -0.5147
10527TIP3    H153072   4.300   0.041  13.083 -0.1417 -0.0887 -0.0998
10527TIP3    H253073   4.391  -0.027  13.183 -0.1223 -0.1608 -0.1656
10528TIP3   OH253074   0.216   4.663  12.612  0.3935 -0.2911 -0.3453
10528TIP3    H153075   0.227   4.641  12.704  0.8757  0.4181 -0.2254
10528TIP3    H253076   0.149   4.732  12.612  2.4586  1.8565 -0.2021
10529TIP3   OH253077   6.023   5.527  15.472  0.1567  0.2703 -0.0599
10529TIP3    H153078   5.957   5.483  15.525 -0.3238  0.9778 -0.0565
10529TIP3    H253079   6.003   5.502  15.382  1.1557 -1.1742  0.0906
10530TIP3   OH253080   5.918   5.548   1.010  0.5565 -0.7527  0.0042
10530TIP3    H153081   5.988   5.539   1.074  0.3680  0.0430  0.3414
10530TIP3    H253082   5.958   5.523   0.927  1.5513  0.6429  0.0216
10531TIP3   OH253083   4.840   6.577   2.792 -0.9837  0.0780 -0.0562
10531TIP3    H153084   4.816   6.667   2.771 -2.2247  0.2521  1.8535
10531TIP3    H253085   4.778   6.551   2.860  0.4072 -1.6360  0.6426
10532TIP3   OH253086   6.573   4.048   4.607 -1.3713  0.1907 -0.3578
10532TIP3    H153087   6.554   4.035   4.514  3.5364 -3.6442 -1.2510
10532TIP3    H253088   6.555   3.963   4.647  1.1160  0.2403  1.0794
10533TIP3   OH253089   2.721   6.317  11.263 -0.0886  0.7751  0.5370
10533TIP3    H153090   2.660   6.373  11.214 -0.0957  0.2285 -0.0929
10533TIP3    H253091   2.738   6.243  11.204  0.4722  0.4682  1.0769
10534TIP3   OH253092   1.375   2.893  13.744 -0.3139  0.4394  0.1749
10534TIP3    H153093   1.367   2.959  13.812  2.2310  2.1952 -1.0871
10534TIP3    H253094   1.454   2.916  13.697  0.7874 -3.5830 -0.3275
10535TIP3   OH253095   1.779   2.329   5.091  0.4840  0.2830 -0.5197
10535TIP3    H153096   1.766   2.262   5.159 -3.3339 -0.5033 -1.7794
10535TIP3    H253097   1.779   2.412   5.139  1.7972 -0.3705  0.7169
10536TIP3   OH253098   6.758   4.318   1.412 -0.0184 -0.4267 -0.0240
10536TIP3    H153099   6.736   4.236   1.369  0.1289  1.0495 -3.1659
10536TIP3    H253100   6.850   4.333   1.391  0.4128 -0.1718  1.8540
10537TIP3   OH253101   1.944   3.454   2.155 -0.0550  0.3857  0.2849
10537TIP3    H153102   1.868   3.396   2.149 -0.9362  1.6108 -0.8216
10537TIP3    H253103   1.924   3.512   2.229  1.0674 -0.9675  1.7446
10538TIP3   OH253104   1.038   0.392  16.613  0.8177  0.2277 -0.5905
10538TIP3    H153105   0.951   0.393  16.572 -0.8768 -0.6704  2.6049
10538TIP3    H253106   1.077   0.476  16.589 -2.2096  2.0045  0.1910
10539TIP3   OH253107   1.625   0.559  15.145 -0.0587 -0.0406  0.2147
10539TIP3    H153108   1.708   0.546  15.190  1.3064 -0.8308 -2.3547
10539TIP3    H253109   1.616   0.655  15.138 -0.3439  0.1074  2.1029
10540TIP3   OH253110   6.719   0.509   2.448 -0.0349  0.3148 -0.6023
10540TIP3    H153111   6.644   0.469   2.492  0.4242 -0.1923 -0.2575
10540TIP3    H253112   6.790   0.446   2.461 -0.4268 -1.0385 -4.0765
10541TIP3   OH253113   1.379   2.929  11.652 -0.1353 -0.2635  0.2718
10541TIP3    H153114   1.407   2.940  11.743 -1.3928 -0.4584  0.7115
10541TIP3    H253115   1.355   2.837  11.645  0.6298 -0.4159 -0.4760
10542TIP3   OH253116   4.749   2.694   1.138  0.2252  0.4541  0.4089
10542TIP3    H153117   4.730   2.717   1.046  0.1110 -0.5252  0.1790
10542TIP3    H253118   4.663   2.691   1.180  0.0115 -1.6533 -0.0797
10543TIP3   OH253119   1.666   4.345   3.487 -0.1086  0.4160  0.0109
10543TIP3    H153120   1.672   4.440   3.485 -1.7412  0.6231  1.8985
10543TIP3    H253121   1.578   4.325   3.455  0.8708 -0.6543 -2.2708
10544TIP3   OH253122   5.503   3.020  13.596  0.3851  0.7112  0.0278
10544TIP3    H153123   5.451   2.960  13.650 -0.6057 -0.3414 -1.9872
10544TIP3    H253124   5.587   3.026  13.641 -0.1380 -0.6871  1.2966
10545TIP3   OH253125   6.155   6.545   3.033 -0.5208  0.5421  0.0317
10545TIP3    H153126   6.119   6.457   3.043  1.0494 -0.1954 -0.3958
10545TIP3    H253127   6.125   6.593   3.110  2.4265 -1.7765  2.8875
10546TIP3   OH253128   5.822   3.388   1.721 -0.3814 -0.1144 -0.0006
10546TIP3    H153129   5.809   3.446   1.646 -3.3127 -1.3987 -0.6640
10546TIP3    H253130   5.828   3.446   1.797 -0.5670  1.1330 -0.9202
10547TIP3   OH253131   0.713   0.902  12.104 -0.3322  0.1830  0.2273
10547TIP3    H153132   0.621   0.883  12.125 -0.9969  1.8196 -1.0810
10547TIP3    H253133   0.720   0.997  12.111  1.1506  0.1181 -0.1972
10548TIP3   OH253134   3.905   3.282   4.058 -0.9893  0.2539  0.3404
10548TIP3    H153135   3.939   3.204   4.015 -0.9920  0.2708  0.3071
10548TIP3    H253136   3.978   3.314   4.111 -1.6874 -1.0465  2.1515
10549TIP3   OH253137   4.177   2.925   4.479  0.6066  0.0391  0.1122
10549TIP3    H153138   4.104   2.863   4.480  1.5553 -1.1162  1.3100
10549TIP3    H253139   4.136   3.011   4.480 -0.7522 -0.5749  2.0224
10550TIP3   OH253140   6.214   4.124  13.479 -0.0699  0.0719 -0.0854
10550TIP3    H153141   6.279   4.147  13.545 -1.4568 -0.5647  1.5710
10550TIP3    H253142   6.165   4.205  13.465 -1.6950 -0.4726  1.9749
10551TIP3   OH253143   6.155   0.818  11.229  0.2906 -0.8652 -0.3483
10551TIP3    H153144   6.094   0.795  11.158  1.4284  0.0240 -1.6814
10551TIP3    H253145   6.239   0.781  11.201  0.7518 -0.5157  0.5489
10552TIP3   OH253146   6.604   0.954   1.325  0.0937  0.1301  0.2227
10552TIP3    H153147   6.529   0.995   1.282  0.0530  0.8740  0.9856
10552TIP3    H253148   6.567   0.884   1.378  0.0212  0.0078  0.0126
10553TIP3   OH253149   0.759   5.785  11.498  0.1800  0.4613 -0.7863
10553TIP3    H153150   0.741   5.731  11.420  1.7354  0.3527 -1.1078
10553TIP3    H253151   0.805   5.862  11.463 -2.2726  2.2030 -0.3678
10554TIP3   OH253152   6.739   1.129   3.109  0.2392 -0.4641  0.2500
10554TIP3    H153153   6.693   1.067   3.166 -0.4762  0.9476  1.2677
10554TIP3    H253154   6.819   1.150   3.156 -0.4408  0.8484  0.8738
10555TIP3   OH253155   6.703   5.990  12.800  0.0607 -0.2434  0.6040
10555TIP3    H153156   6.672   6.072  12.839  0.9194  0.1184  0.5340
10555TIP3    H253157   6.796   6.004  12.785  0.0140 -0.8611 -0.3452
10556TIP3   OH253158   5.239   5.920   3.333 -0.5188  0.0916  0.0587
10556TIP3    H153159   5.264   5.828   3.331  0.2148  0.2965 -1.3157
10556TIP3    H253160   5.276   5.953   3.415  0.4577 -0.5081 -0.1216
10557TIP3   OH253161   5.813   4.103   1.902 -0.2190  0.3051 -0.0789
10557TIP3    H153162   5.746   4.065   1.959 -0.4354 -0.0805 -0.5825
10557TIP3    H253163   5.871   4.151   1.962 -0.3946 -0.1569  0.4703
10558TIP3   OH253164   1.481   0.492  11.327 -0.0359  0.6827 -0.1931
10558TIP3    H153165   1.423   0.474  11.401 -0.2291  0.9010 -0.2862
10558TIP3    H253166   1.562   0.522  11.367 -0.6148  2.2076 -0.0642
10559TIP3   OH253167   2.097   4.736   4.747  1.1086  0.3400  0.2017
10559TIP3    H153168   2.103   4.829   4.771  0.2068  0.2594  0.7834
10559TIP3    H253169   2.035   4.734   4.675 -1.8332 -0.1455  2.5551
10560TIP3   OH253170   3.573   4.181   4.323 -0.2676  0.1948  0.6853
10560TIP3    H153171   3.608   4.095   4.348  0.8008  0.6091  0.6910
10560TIP3    H253172   3.534   4.216   4.403  1.4441  0.7122  1.3554
10561TIP3   OH253173   2.503   4.304   5.686  0.2572  0.0080 -0.2417
10561TIP3    H153174   2.482   4.328   5.596 -1.0368 -0.6819 -0.1488
10561TIP3    H253175   2.478   4.381   5.737 -0.9832 -0.3396 -0.2757
10562TIP3   OH253176   5.473   6.343  12.277  0.4115  0.1416  0.0968
10562TIP3    H153177   5.528   6.266  12.293 -1.5639 -1.2640  0.4925
10562TIP3    H253178   5.448   6.373  12.364 -2.1797 -1.3818 -0.0161
10563TIP3   OH253179   3.895   6.764  10.839 -0.2651  0.5012 -0.4761
10563TIP3    H153180   3.823   6.806  10.793 -2.1723 -1.0046  0.9540
10563TIP3    H253181   3.900   6.676  10.801  0.9215  0.5960 -0.6034
10564TIP3   OH253182   4.754   3.014  11.810  0.3802  0.4470  0.1023
10564TIP3    H153183   4.814   2.939  11.814 -1.4442 -1.3205 -2.4170
10564TIP3    H253184   4.785   3.066  11.737 -0.8336 -0.2746 -0.9708
10565TIP3   OH253185   0.629   2.294   1.304  0.8492  0.1593 -0.0047
10565TIP3    H153186   0.593   2.327   1.386  1.1552  0.4130  0.0292
10565TIP3    H253187   0.608   2.200   1.304  1.2122  0.0764  0.5531
10566TIP3   OH253188   0.146   5.576   2.988 -0.5486 -0.2839 -0.2144
10566TIP3    H153189   0.084   5.511   2.954 -1.2227 -0.0469  0.5182
10566TIP3    H253190   0.190   5.610   2.910 -1.7853 -0.0237 -0.8319
10567TIP3   OH253191   0.328   4.151   1.634  0.5867  0.0887 -0.3599
10567TIP3    H153192   0.290   4.124   1.551  0.4487  0.8118 -0.5333
10567TIP3    H253193   0.380   4.075   1.662  1.6615  0.2782 -1.7254
10568TIP3   OH253194   3.563   3.590   2.060  0.4257  0.0061  0.4389
10568TIP3    H153195   3.565   3.629   2.148  1.3164 -0.7973  0.7849
10568TIP3    H253196   3.624   3.517   2.065 -1.9515 -2.1226  0.1016
10569TIP3   OH253197   1.161   4.681   5.179 -0.6632  0.1508  0.2790
10569TIP3    H153198   1.135   4.755   5.235  0.3822  0.6965  0.0638
10569TIP3    H253199   1.094   4.678   5.110 -1.1482  0.3902  0.7306
10570TIP3   OH253200   2.296   2.292  14.185  0.2438  0.3910 -0.7153
10570TIP3    H153201   2.315   2.344  14.263 -0.3677 -1.0149  0.4274
10570TIP3    H253202   2.213   2.249  14.205  0.7721 -1.0935 -1.5500
10571TIP3   OH253203   3.658   6.460  11.585  0.1269 -0.2345  0.5330
10571TIP3    H153204   3.578   6.419  11.616 -0.8284  1.6022  0.6627
10571TIP3    H253205   3.725   6.433  11.648 -0.6851 -0.7237  1.2063
10572TIP3   OH253206   4.476   1.764  16.530 -0.4403  0.7603  0.0929
10572TIP3    H153207   4.439   1.852  16.536 -0.8564  0.5252  1.1861
10572TIP3    H253208   4.527   1.754  16.610 -1.8427 -0.6206  0.8791
10573TIP3   OH253209   5.969   0.551  15.096 -0.0536  0.5092  0.1441
10573TIP3    H153210   5.898   0.534  15.159 -1.2529  0.0312 -1.2867
10573TIP3    H253211   6.046   0.512  15.137 -0.8503  0.0127  1.2247
10574TIP3   OH253212   2.466   0.151  15.952  0.4496 -0.0919  0.0775
10574TIP3    H153213   2.421   0.181  16.031 -0.0989 -0.6615 -0.0086
10574TIP3    H253214   2.431   0.206  15.882 -0.9231 -1.2292 -0.1616
10575TIP3   OH253215   6.771   2.483   3.900  0.1856  0.0981  0.3182
10575TIP3    H153216   6.805   2.568   3.870 -0.3536 -0.0150 -0.6486
10575TIP3    H253217   6.847   2.425   3.900  0.7082  0.7364  1.6740
10576TIP3   OH253218   0.140   1.024   0.218  0.1400  0.0742  0.1219
10576TIP3    H153219   0.125   1.116   0.196 -0.7232 -0.2023 -0.4989
10576TIP3    H253220   0.127   1.019   0.313 -0.1098  0.5334  0.1140
10577TIP3   OH253221   0.005   3.807   0.149 -0.2481 -0.1367  0.0672
10577TIP3    H153222   0.066   3.878   0.168  1.0411 -1.1328 -0.1967
10577TIP3    H253223  -0.053   3.804   0.226 -0.0491  0.9010  0.2746
10578TIP3   OH253224   2.485   4.922  16.745 -0.4463 -0.3841  0.7009
10578TIP3    H153225   2.550   4.885  16.685  0.3368 -1.6759  2.2880
10578TIP3    H253226   2.404   4.877  16.722 -0.8819  1.2530 -1.3079
10579TIP3   OH253227   5.163   3.122  11.912 -0.2969 -0.5974 -0.6239
10579TIP3    H153228   5.081   3.168  11.930 -0.3558 -1.7571  3.0970
10579TIP3    H253229   5.230   3.189  11.918 -0.5167 -0.4650  3.2517
10580TIP3   OH253230   3.482   6.035   1.650  0.4283 -0.1003 -0.3614
10580TIP3    H153231   3.554   6.089   1.619 -0.6140  0.7970 -1.2765
10580TIP3    H253232   3.503   5.947   1.620  2.2926 -0.3368  1.4009
10581TIP3   OH253233   0.730   1.080  15.710 -0.4031  0.0107 -0.2075
10581TIP3    H153234   0.717   1.167  15.673 -2.4359  0.4982  1.4445
10581TIP3    H253235   0.641   1.048  15.728  0.3452 -0.4180  3.5429
10582TIP3   OH253236   3.664   3.769   0.652  0.2649 -0.2018  0.2361
10582TIP3    H153237   3.640   3.786   0.743 -2.4183 -1.4270 -0.1453
10582TIP3    H253238   3.670   3.856   0.612 -0.5797  0.2868  1.1365
10583TIP3   OH253239   3.067   6.095   3.366 -0.2598  0.3475 -0.4549
10583TIP3    H153240   2.985   6.073   3.324 -0.5444 -0.2530  0.3896
10583TIP3    H253241   3.128   6.026   3.339 -0.7554 -0.7195  1.0016
10584TIP3   OH253242   3.349   4.765  16.688 -0.2541  0.1898 -0.0001
10584TIP3    H153243   3.426   4.806  16.727 -0.5346  0.0504  0.7240
10584TIP3    H253244   3.341   4.681  16.733 -2.2404  1.2092  1.7426
10585TIP3   OH253245   0.574   6.398  16.105 -0.3112 -0.3018 -0.2638
10585TIP3    H153246   0.616   6.456  16.042 -0.9213 -0.9373 -1.2674
10585TIP3    H253247   0.490   6.440  16.123 -1.0553 -1.2104 -1.5284
10586TIP3   OH253248   5.145   3.406  17.145  0.5716  0.0592  0.2921
10586TIP3    H153249   5.137   3.467  17.219 -0.2209 -0.5436  0.7319
10586TIP3    H253250   5.125   3.459  17.068  0.4814  0.4972  0.6133
10587TIP3   OH253251   1.244   2.291  13.018 -0.2329 -0.4238  0.9466
10587TIP3    H153252   1.155   2.256  13.027 -0.1234 -0.7178  0.8718
10587TIP3    H253253   1.274   2.301  13.108 -0.5690  0.2606  0.9913
10588TIP3   OH253254   2.695   6.573   0.880  0.1019 -0.0296 -0.5814
10588TIP3    H153255   2.617   6.588   0.827 -0.3479  3.6333  0.8489
10588TIP3    H253256   2.665   6.517   0.952 -0.1435 -1.9279 -2.0751
10589TIP3   OH253257   5.908   2.545  16.012 -0.3221 -0.3129  0.0765
10589TIP3    H153258   5.906   2.526  16.106  1.1921 -0.5926  0.0829
10589TIP3    H253259   5.823   2.585  15.994  0.9274  4.3030  2.5566
10590TIP3   OH253260   3.589   3.757   6.184 -0.3331 -0.2569  0.7831
10590TIP3    H153261   3.585   3.741   6.278 -1.7536  1.3147  1.0426
10590TIP3    H253262   3.682   3.770   6.165 -0.1982  1.5776  2.4124
10591TIP3   OH253263   6.042   1.150  15.443 -0.0393  0.3458  0.0639
10591TIP3    H153264   6.088   1.068  15.461  0.6632  1.0914  1.8422
10591TIP3    H253265   6.109   1.218  15.453 -0.1403  1.1066 -3.1136
10592TIP3   OH253266   5.531   5.390  10.924 -0.1067 -0.2643 -0.3369
10592TIP3    H153267   5.459   5.412  10.865 -0.9501  0.5140  0.9425
10592TIP3    H253268   5.599   5.455  10.904 -1.1564  1.2831  0.8520
10593TIP3   OH253269   1.928   6.453  13.282 -0.1946  0.6966 -0.0762
10593TIP3    H153270   1.913   6.365  13.316  1.4618  0.5525  0.3178
10593TIP3    H253271   2.003   6.445  13.224  0.3325  1.9493  0.3954
10594TIP3   OH253272   5.909   6.599   5.653  0.3574 -0.1142  0.0017
10594TIP3    H153273   5.865   6.597   5.568  0.6660 -2.5428 -0.1689
10594TIP3    H253274   5.846   6.641   5.711  0.0927  1.5094 -1.3569
10595TIP3   OH253275   6.336   6.543  13.964 -0.2460  0.5665  0.4072
10595TIP3    H153276   6.352   6.597  13.886  0.8894 -1.5124 -0.8982
10595TIP3    H253277   6.296   6.464  13.929  2.2841 -1.3707  1.6139
10596TIP3   OH253278   1.689   5.584  16.791  0.0531 -0.9492 -0.1848
10596TIP3    H153279   1.647   5.517  16.847 -2.2729 -0.7149 -1.5255
10596TIP3    H253280   1.706   5.539  16.709 -1.8466  0.1241 -1.2223
10597TIP3   OH253281   3.388   5.618   5.848 -0.0064  0.0218  0.7794
10597TIP3    H153282   3.404   5.712   5.843 -0.7612  0.2174  1.7563
10597TIP3    H253283   3.299   5.610   5.881 -0.0435 -1.0397  0.4675
10598TIP3   OH253284   0.421   5.779   4.152 -0.2551 -0.2996  0.1166
10598TIP3    H153285   0.348   5.812   4.100 -1.2072 -1.5569  0.6007
10598TIP3    H253286   0.424   5.836   4.229  0.6504  1.0669 -0.8784
10599TIP3   OH253287   4.927   4.667   1.839 -0.0792 -0.5412  0.0391
10599TIP3    H153288   5.012   4.710   1.833 -1.3190  1.9722 -0.9922
10599TIP3    H253289   4.925   4.607   1.764  0.9784 -1.1099  0.4384
10600TIP3   OH253290   0.214   0.334  13.701  0.5806 -0.0022  0.2476
10600TIP3    H153291   0.265   0.331  13.782  1.4157 -0.0861 -0.2800
10600TIP3    H253292   0.254   0.269  13.644 -0.4707 -0.4835  0.0225
10601TIP3   OH253293   0.319   6.756   5.374  0.0729 -0.2211  0.3297
10601TIP3    H153294   0.251   6.711   5.424  1.0621 -1.4762  0.5949
10601TIP3    H253295   0.336   6.698   5.299  0.2944  0.4745 -0.1713
10602TIP3   OH253296   5.771   0.156   2.987 -0.0270 -0.0897  0.5604
10602TIP3    H153297   5.717   0.214   2.933  0.0575 -0.6525 -0.1446
10602TIP3    H253298   5.856   0.156   2.945  0.3741  0.3584  1.3574
10603TIP3   OH253299   2.279   6.488  16.706 -0.2321 -0.7903  0.2452
10603TIP3    H153300   2.364   6.494  16.749 -0.5941 -1.4689  1.0773
10603TIP3    H253301   2.251   6.579  16.696  0.7954 -0.5393 -0.4851
10604TIP3   OH253302   4.625   2.953   3.623  0.4781  0.0916 -0.3837
10604TIP3    H153303   4.631   2.860   3.603 -1.0584 -0.8500  2.9398
10604TIP3    H253304   4.571   2.989   3.552 -1.8761 -2.2885  0.0331
10605TIP3   OH253305   2.176   2.706  16.207  0.2035 -0.1980 -0.2644
10605TIP3    H153306   2.263   2.666  16.202  0.2883 -0.0241 -0.1972
10605TIP3    H253307   2.162   2.721  16.300  1.2472  2.2567 -0.4480
10606TIP3   OH253308   1.837   3.510   3.626  0.0924  0.2897 -0.0133
10606TIP3    H153309   1.745   3.507   3.652 -0.0299  0.0733 -0.4731
10606TIP3    H253310   1.842   3.579   3.560 -0.2128 -1.3438 -1.8175
10607TIP3   OH253311   1.164   2.964  15.765  0.2472 -0.1463  0.0327
10607TIP3    H153312   1.131   2.927  15.848  1.0833  0.8803  0.8495
10607TIP3    H253313   1.148   3.058  15.773 -0.4488 -0.1293 -1.3581
10608TIP3   OH253314   3.203   0.098   4.606  0.1056 -0.3053  0.8051
10608TIP3    H153315   3.137   0.144   4.659 -0.1141  1.4834 -0.8991
10608TIP3    H253316   3.174   0.007   4.606 -1.7271  0.2210  1.0862
10609TIP3   OH253317   1.714   3.564  12.044 -0.1948  0.7004  0.2836
10609TIP3    H153318   1.776   3.517  12.099 -1.1263  0.5748  1.2585
10609TIP3    H253319   1.764   3.586  11.965  1.0395  0.5063  0.9851
10610TIP3   OH253320   4.023   4.356  16.518  0.2863 -0.0665 -0.3275
10610TIP3    H153321   3.962   4.309  16.575  0.8179 -1.1277 -0.6143
10610TIP3    H253322   4.086   4.290  16.490  0.9423  0.7792 -0.9051
10611TIP3   OH253323   1.211   2.497  16.859  0.2666 -0.1701 -0.2134
10611TIP3    H153324   1.204   2.591  16.843  1.4769 -0.1082 -0.5068
10611TIP3    H253325   1.128   2.460  16.828 -2.3830  1.2941  4.2508
10612TIP3   OH253326   3.929   4.510   2.064 -0.0276  0.2474  0.3350
10612TIP3    H153327   4.012   4.464   2.069  0.2705  0.5509 -1.1970
10612TIP3    H253328   3.872   4.464   2.126  0.8006 -0.9954  0.2141
10613TIP3   OH253329   0.536   6.116  16.059  0.0498  0.1295  0.8366
10613TIP3    H153330   0.585   6.197  16.071  0.4359 -0.1052  0.8962
10613TIP3    H253331   0.549   6.069  16.142 -0.4140  0.1370  0.9130
10614TIP3   OH253332   4.088   5.344  10.780 -0.6131 -0.6419 -0.4420
10614TIP3    H153333   4.095   5.420  10.721 -1.8567 -0.2917 -0.1491
10614TIP3    H253334   4.058   5.380  10.863  0.5923 -1.2185  0.2789
10615TIP3   OH253335   2.839   1.614   3.580 -0.6405  0.5293 -0.2835
10615TIP3    H153336   2.778   1.643   3.512  0.3667  2.0224 -0.5979
10615TIP3    H253337   2.803   1.650   3.661 -0.3406  1.1553 -0.4262
10616TIP3   OH253338   1.498   2.485   4.494 -0.2546  0.1850  0.1253
10616TIP3    H153339   1.493   2.401   4.450  0.3809 -0.6384  1.5547
10616TIP3    H253340   1.409   2.520   4.490 -0.7426 -1.0000  0.3782
10617TIP3   OH253341   5.545   0.498  10.669  0.1937  0.3364  0.0554
10617TIP3    H153342   5.604   0.445  10.615 -0.2587  0.2579 -0.3715
10617TIP3    H253343   5.536   0.580  10.620  0.9533  0.8498  0.7520
10618TIP3   OH253344   2.598   1.413   2.989  0.1925 -0.0334  0.2046
10618TIP3    H153345   2.606   1.496   3.037  0.0869  0.0476  0.0808
10618TIP3    H253346   2.680   1.367   3.008  0.5298  0.3724 -0.2538
10619TIP3   OH253347   3.685   1.669   2.976  1.1244 -0.2031 -0.3901
10619TIP3    H153348   3.613   1.716   2.933  0.1089 -0.9632  0.4164
10619TIP3    H253349   3.741   1.641   2.905  0.5885  0.3451 -1.0525
10620TIP3   OH253350   6.498   3.734  13.837  0.1996 -0.0222 -0.0073
10620TIP3    H153351   6.478   3.681  13.914  0.3502 -0.4212 -0.2407
10620TIP3    H253352   6.427   3.798  13.833 -0.6524 -0.9492 -0.3938
10621TIP3   OH253353   3.315   1.296  13.010  0.4330 -0.4258  0.0379
10621TIP3    H153354   3.284   1.242  12.938 -1.8514 -1.8131  1.9115
10621TIP3    H253355   3.403   1.264  13.028  0.1595 -1.6235 -0.6841
10622TIP3   OH253356   5.445   2.809   4.784  0.2411  0.6857 -0.4486
10622TIP3    H153357   5.484   2.847   4.705  0.2877  3.8482  0.9722
10622TIP3    H253358   5.364   2.859   4.798 -1.0232 -1.4063  0.2593
10623TIP3   OH253359   6.366   6.143  13.127  0.0870 -0.4062 -0.4216
10623TIP3    H153360   6.415   6.151  13.046 -0.5363  1.0928 -0.6713
10623TIP3    H253361   6.297   6.079  13.108 -1.3861  1.4749 -1.7985
10624TIP3   OH253362   5.331   3.136  12.567  0.9551 -0.0157  0.1525
10624TIP3    H153363   5.376   3.115  12.486  1.1638 -0.9887  0.5057
10624TIP3    H253364   5.380   3.088  12.635  0.9659  1.0039  0.8950
10625TIP3   OH253365   0.778   1.094   1.148  0.3782 -0.0121 -0.0778
10625TIP3    H153366   0.702   1.129   1.101  0.5615  1.7512  0.8304
10625TIP3    H253367   0.842   1.166   1.145  1.4868 -0.9530  0.3695
10626TIP3   OH253368   2.264   6.653   2.822  0.6201  0.1840 -0.0141
10626TIP3    H153369   2.208   6.586   2.861 -1.7856  0.7777 -2.1694
10626TIP3    H253370   2.221   6.736   2.844  0.6352  0.6609 -1.6604
10627TIP3   OH253371   1.243   4.557  16.910 -0.0078 -0.3040  0.0904
10627TIP3    H153372   1.291   4.615  16.851 -0.4650  0.2707  0.2725
10627TIP3    H253373   1.236   4.606  16.991  1.1717 -1.3316  0.8555
10628TIP3   OH253374   0.594   5.041   4.619 -0.1506 -0.1709  0.2338
10628TIP3    H153375   0.521   5.049   4.558  1.2003 -0.4884 -1.5117
10628TIP3    H253376   0.634   5.128   4.620  1.3372 -0.7650 -1.4086
10629TIP3   OH253377   0.859   1.203   3.675 -0.4269  0.2071 -0.0187
10629TIP3    H153378   0.863   1.152   3.755 -1.1293  1.0449  0.5785
10629TIP3    H253379   0.778   1.254   3.683  1.7648  3.9619  1.0367
10630TIP3   OH253380   4.994   6.058  10.550  0.1636 -0.5763  0.3770
10630TIP3    H153381   5.060   5.988  10.552  0.9125  0.1168  0.8340
10630TIP3    H253382   4.914   6.016  10.581  0.4427 -1.3793  0.0456
10631TIP3   OH253383   4.106   5.691   2.251  0.1537  0.0193  0.1613
10631TIP3    H153384   4.075   5.632   2.183 -0.7343  0.5249  0.1078
10631TIP3    H253385   4.030   5.707   2.306  0.6995  0.1207  0.9130
10632TIP3   OH253386   4.542   0.016   0.256 -0.5664 -0.0968 -0.4280
10632TIP3    H153387   4.621  -0.023   0.294 -0.3975  1.7245  1.2267
10632TIP3    H253388   4.570   0.052   0.172  0.0150 -0.6870 -0.4923
10633TIP3   OH253389   5.123   2.171   4.755  0.3008  0.0453  0.0976
10633TIP3    H153390   5.058   2.100   4.751 -1.9176  1.9597 -0.3493
10633TIP3    H253391   5.201   2.130   4.792 -1.6958 -2.0111  2.4128
10634TIP3   OH253392   4.298   3.301   5.374  0.2621 -0.2745  0.6073
10634TIP3    H153393   4.393   3.301   5.389  0.1172 -1.2948  1.6965
10634TIP3    H253394   4.264   3.236   5.435 -1.3029  0.9690  1.1220
10635TIP3   OH253395   3.598   5.181  11.248  0.2973  0.3462 -0.0218
10635TIP3    H153396   3.541   5.166  11.172  1.7943  1.3030 -1.4167
10635TIP3    H253397   3.548   5.147  11.322 -1.0923 -0.9883 -1.4615
10636TIP3   OH253398   3.023   1.520   1.636 -0.0873 -0.2416  0.2078
10636TIP3    H153399   3.086   1.449   1.653 -1.2641 -1.5093 -0.5432
10636TIP3    H253400   2.937   1.478   1.644 -0.8653  1.4662  1.2580
10637TIP3   OH253401   4.943   5.842   1.072  0.7639 -0.1008 -0.5560
10637TIP3    H153402   5.013   5.795   1.028  0.4814 -1.4492  0.3649
10637TIP3    H253403   4.987   5.914   1.117  1.5587 -0.8382 -0.1171
10638TIP3   OH253404   3.298   0.425  16.734  0.2552 -0.2986 -0.6716
10638TIP3    H153405   3.389   0.449  16.751  0.5540 -0.5579 -1.8111
10638TIP3    H253406   3.274   0.475  16.656 -0.4408 -0.5595 -0.6334
10639TIP3   OH253407   2.246   3.475   1.651  0.5757 -0.2958  0.9550
10639TIP3    H153408   2.171   3.416   1.663  0.2702  0.2055  1.5686
10639TIP3    H253409   2.315   3.440   1.707  0.6703 -0.5353  0.6897
10640TIP3   OH253410   5.252   4.772   1.162  0.4536  0.0054 -0.6746
10640TIP3    H153411   5.166   4.788   1.123  0.3997  1.1735 -0.1230
10640TIP3    H253412   5.274   4.683   1.136 -0.0756  0.3414 -2.4201
10641TIP3   OH253413   6.773   2.727  15.687 -0.1866  0.2628 -0.0353
10641TIP3    H153414   6.734   2.649  15.727  3.3255 -1.4048  0.4474
10641TIP3    H253415   6.765   2.795  15.754 -1.7214 -0.1308  0.2178
10642TIP3   OH253416   5.285   4.517   2.731  0.0675 -0.3194 -0.4871
10642TIP3    H153417   5.281   4.605   2.768 -0.2075  0.2339 -1.7784
10642TIP3    H253418   5.366   4.515   2.680 -0.0384 -0.7378 -0.6494
10643TIP3   OH253419   3.707   0.951   4.783 -0.3972  0.7525  0.0529
10643TIP3    H153420   3.720   1.006   4.861  1.9247 -0.1208  0.3678
10643TIP3    H253421   3.632   0.896   4.805  0.5840  0.0953  1.9654
10644TIP3   OH253422   3.991   1.805  14.963 -0.1218  0.4625  0.3645
10644TIP3    H153423   3.971   1.898  14.972 -1.5488  0.2775 -0.4735
10644TIP3    H253424   4.038   1.782  15.043  1.6498  2.2319 -0.0896
10645TIP3   OH253425   2.834   1.565   5.779  0.0300 -0.0218 -0.5143
10645TIP3    H153426   2.809   1.620   5.853 -0.2771  0.5464 -1.0293
10645TIP3    H253427   2.757   1.563   5.723 -0.4827 -2.1642  0.1599
10646TIP3   OH253428   5.417   5.482  12.558 -0.3202  0.2298 -0.5829
10646TIP3    H153429   5.365   5.403  12.549  1.8710 -1.2634 -1.0579
10646TIP3    H253430   5.412   5.505  12.650  0.6052 -1.6751 -0.0235
10647TIP3   OH253431   5.360   2.941   3.139  0.3312  0.2355 -0.3372
10647TIP3    H153432   5.293   2.991   3.187  0.1780 -0.4415  0.1755
10647TIP3    H253433   5.323   2.929   3.052  0.4829  1.2292 -0.5509
10648TIP3   OH253434   2.718   6.823   6.132 -0.4399 -0.0879 -0.2310
10648TIP3    H153435   2.714   6.760   6.205 -1.9183 -0.5707 -0.6898
10648TIP3    H253436   2.649   6.886   6.152 -0.2108  0.3282 -0.7438
10649TIP3   OH253437   5.910   3.296  12.691 -0.5712  0.0793  0.4605
10649TIP3    H153438   5.827   3.265  12.729 -1.2310  1.3321  0.0806
10649TIP3    H253439   5.911   3.390  12.710  1.3427 -0.1058  1.5105
10650TIP3   OH253440   5.267   2.276   4.507  0.1227 -0.5156 -0.0169
10650TIP3    H153441   5.355   2.248   4.483  0.7928  0.4939  1.1167
10650TIP3    H253442   5.246   2.225   4.585 -0.1867 -0.5623 -0.1290
10651TIP3   OH253443   3.263   4.739  10.802 -0.1521  0.0636  0.3246
10651TIP3    H153444   3.292   4.772  10.887 -0.8890  1.8706 -0.0555
10651TIP3    H253445   3.343   4.732  10.750  0.0742  1.1317  0.5002
10652TIP3   OH253446   2.647   0.833  14.129  0.2377 -0.1208 -0.1221
10652TIP3    H153447   2.663   0.743  14.099 -0.0437 -0.0709 -0.4222
10652TIP3    H253448   2.733   0.864  14.159  0.1349 -0.8780  1.0440
10653TIP3   OH253449   4.210   5.266   2.023 -0.0749 -0.8268 -0.3526
10653TIP3    H153450   4.133   5.210   2.021 -0.6102 -0.1729  0.8529
10653TIP3    H253451   4.242   5.259   2.113 -1.0584  1.9209  0.3202
10654TIP3   OH253452   0.115   5.097   0.278 -0.0400  0.1099 -0.3535
10654TIP3    H153453   0.079   5.181   0.249  1.3266  0.9360  0.2121
10654TIP3    H253454   0.064   5.031   0.230 -1.7631  1.2029 -0.1172
10655TIP3   OH253455   5.445   1.636  16.285  0.1230 -0.2579  0.1417
10655TIP3    H153456   5.446   1.693  16.209  1.8410 -0.9230 -0.3788
10655TIP3    H253457   5.503   1.563  16.262  1.1141 -0.2135  2.2542
10656TIP3   OH253458   3.065   2.612  10.468 -0.7386  0.6955 -0.4984
10656TIP3    H153459   2.992   2.622  10.529 -1.4791  0.1021 -1.2774
10656TIP3    H253460   3.034   2.551  10.402  0.6769 -0.0736 -0.5135
10657TIP3   OH253461   5.356   3.627   5.565 -0.1548  0.3183  0.1506
10657TIP3    H153462   5.398   3.569   5.629  0.2860  0.4486 -0.0201
10657TIP3    H253463   5.317   3.567   5.502  0.4279  0.1996 -0.1087
10658TIP3   OH253464   2.987   0.921   6.509 -0.4145  0.5328  0.2910
10658TIP3    H153465   3.005   0.905   6.416  1.5416  1.8554  0.3852
10658TIP3    H253466   2.893   0.910   6.517 -0.4814 -0.7956 -1.5999
10659TIP3   OH253467   0.018   3.537   5.914 -0.6919 -0.4505  0.4260
10659TIP3    H153468   0.077   3.589   5.968  1.0614 -1.8257 -0.0776
10659TIP3    H253469  -0.034   3.602   5.865  1.3326  0.8453 -0.1206
10660TIP3   OH253470   5.928   2.101  14.494  0.3511 -0.2718  0.2504
10660TIP3    H153471   5.840   2.136  14.485  0.4105 -0.4636 -1.4465
10660TIP3    H253472   5.985   2.173  14.468  0.5445 -0.9462 -1.3776
10661TIP3   OH253473   0.647   4.398  12.664 -0.4833 -0.6756 -0.2672
10661TIP3    H153474   0.553   4.383  12.669 -1.0418  1.3179 -2.7210
10661TIP3    H253475   0.661   4.484  12.703  0.5044 -1.3382  0.9145
10662TIP3   OH253476   2.114   6.307  10.867 -0.0340 -0.3680 -0.0704
10662TIP3    H153477   2.153   6.267  10.789  2.2571 -1.8627  1.6981
10662TIP3    H253478   2.173   6.378  10.890  0.9013 -1.6814  1.7936
10663TIP3   OH253479   4.633   6.621   1.598  0.1854  0.3247  0.0032
10663TIP3    H153480   4.677   6.667   1.527 -2.4222  0.1497 -1.8409
10663TIP3    H253481   4.607   6.691   1.658 -0.8470  0.9230 -1.1111
10664TIP3   OH253482   0.260   1.952  14.480  0.1554 -0.0900 -0.1611
10664TIP3    H153483   0.216   1.873  14.449 -1.0423  0.1919  0.7580
10664TIP3    H253484   0.199   2.023  14.461  0.1954  0.3118  1.1317
10665TIP3   OH253485   2.947   1.607   4.730  0.4027 -0.2504 -0.5078
10665TIP3    H153486   3.028   1.659   4.731  0.4044 -0.2575 -0.2646
10665TIP3    H253487   2.911   1.617   4.818  0.7820 -1.2635 -0.2241
10666TIP3   OH253488   0.380   4.015   0.720 -0.8438 -0.3507  0.0250
10666TIP3    H153489   0.429   4.027   0.639 -0.5277  1.8626  0.4786
10666TIP3    H253490   0.323   4.092   0.725 -0.1195  0.1239  2.3555
10667TIP3   OH253491   3.304   1.179  10.868 -0.1327  0.0357 -0.1876
10667TIP3    H153492   3.338   1.141  10.949  0.6558  1.5536  0.2338
10667TIP3    H253493   3.221   1.134  10.853  0.9830 -2.2118 -0.0484
10668TIP3   OH253494   4.319   6.417  12.133 -0.1323  0.1409 -0.3373
10668TIP3    H153495   4.328   6.406  12.228 -1.5873  0.5558 -0.1244
10668TIP3    H253496   4.229   6.390  12.115 -0.2456  1.1859 -1.4295
10669TIP3   OH253497   3.003   4.048   4.640 -0.3758 -0.6050 -0.7379
10669TIP3    H153498   2.926   4.078   4.592  0.7377  1.2084 -1.4716
10669TIP3    H253499   3.008   3.954   4.620 -1.7117 -0.5181 -1.6332
10670TIP3   OH253500   1.478   2.593   5.520  0.3944 -0.3190  0.0863
10670TIP3    H153501   1.552   2.636   5.476  1.2667 -1.5831  0.2570
10670TIP3    H253502   1.451   2.656   5.588  1.0853  0.3095 -0.2074
10671TIP3   OH253503   2.565   1.826  10.710 -0.4424 -0.2097 -0.5917
10671TIP3    H153504   2.660   1.817  10.719 -0.1966  0.1495 -2.4350
10671TIP3    H253505   2.553   1.917  10.683 -1.5173  0.3811  1.6899
10672TIP3   OH253506   1.581   4.313  16.620  0.3056  0.7352 -0.2715
10672TIP3    H153507   1.500   4.262  16.616  0.0466  0.9424  1.5072
10672TIP3    H253508   1.565   4.389  16.565 -0.4265  0.4094 -0.5156
10673TIP3   OH253509   3.263   6.764  12.086 -0.2638  0.0461  0.0049
10673TIP3    H153510   3.287   6.696  12.022  0.2707  1.0756 -0.9193
10673TIP3    H253511   3.298   6.732  12.169  0.9139 -0.3246 -0.6091
10674TIP3   OH253512   4.446   6.366   3.581 -0.5891  0.6762 -0.0708
10674TIP3    H153513   4.394   6.446   3.574 -2.9630 -0.7134  0.4865
10674TIP3    H253514   4.382   6.295   3.574  1.0106 -1.1610  2.2040
10675TIP3   OH253515   0.998   2.040  12.027 -0.8209 -0.1415  0.7002
10675TIP3    H153516   1.039   2.028  11.942 -1.9120  0.7877  0.0045
10675TIP3    H253517   1.063   2.088  12.078 -1.4231  2.4726 -0.8001
10676TIP3   OH253518   1.073   6.274  12.836  0.4159  0.1205 -0.3161
10676TIP3    H153519   1.164   6.303  12.849  0.1651  0.5887  0.4385
10676TIP3    H253520   1.050   6.307  12.749  1.1971 -0.6223 -0.8263
10677TIP3   OH253521   5.283   6.336   5.528 -0.2516  0.7603  0.2316
10677TIP3    H153522   5.234   6.417   5.513 -0.9393  0.7733  2.2342
10677TIP3    H253523   5.366   6.348   5.481  0.0183  2.9992  1.1723
10678TIP3   OH253524   1.192   0.995  14.265 -0.1508  0.2136 -0.0288
10678TIP3    H153525   1.269   0.939  14.274  0.6499  0.4378 -3.7311
10678TIP3    H253526   1.220   1.079  14.301  0.4979 -0.3435  0.8119
10679TIP3   OH253527   6.330   5.625   1.294 -0.3469 -0.3624 -0.2926
10679TIP3    H153528   6.383   5.641   1.216 -0.0724 -0.6769 -0.1776
10679TIP3    H253529   6.339   5.704   1.347  1.5517 -1.1051  0.5928
10680TIP3   OH253530   6.075   5.200  16.951 -0.5567 -0.2283  0.1402
10680TIP3    H153531   6.125   5.171  16.874 -2.9697 -0.8413 -1.3050
10680TIP3    H253532   6.074   5.124  17.009 -0.0747 -0.3030  0.0541
10681TIP3   OH253533   5.020   4.271   1.209  0.0519 -0.5061 -0.2441
10681TIP3    H153534   5.051   4.352   1.169  0.6582 -1.7871 -2.4974
10681TIP3    H253535   5.058   4.272   1.297  1.7809  0.6704 -0.9622
10682TIP3   OH253536   3.851   5.866   1.634  0.2391  0.6768 -0.1224
10682TIP3    H153537   3.780   5.928   1.648  1.2403  1.3741  2.6130
10682TIP3    H253538   3.886   5.849   1.722  1.7622 -1.6813 -1.0684
10683TIP3   OH253539   0.298   2.935   3.508  1.1877 -0.0377  0.2368
10683TIP3    H153540   0.383   2.978   3.521  0.7818  1.0080 -0.4526
10683TIP3    H253541   0.244   2.967   3.579  1.4948 -1.1022  0.9781
10684TIP3   OH253542   3.120   0.509  13.113 -0.0214  0.2084 -0.5255
10684TIP3    H153543   3.188   0.500  13.046 -1.5087  1.3295 -2.2752
10684TIP3    H253544   3.044   0.543  13.066 -1.5629 -0.2215  1.5139
10685TIP3   OH253545   6.233   6.695  11.286 -0.5738 -0.6067  0.0029
10685TIP3    H153546   6.182   6.723  11.362  0.2721 -0.2732  0.4559
10685TIP3    H253547   6.190   6.614  11.258 -2.0200  0.2213 -0.3104
10686TIP3   OH253548   3.827   3.461  14.038 -0.2530  0.3309 -0.2654
10686TIP3    H153549   3.801   3.455  14.130 -1.3605 -2.8732 -0.6570
10686TIP3    H253550   3.902   3.402  14.031 -0.7713 -0.2057 -1.5397
10687TIP3   OH253551   5.257   5.237   5.043 -0.4568  0.2359  0.4490
10687TIP3    H153552   5.334   5.276   5.085 -0.2027 -0.0377  0.2463
10687TIP3    H253553   5.290   5.155   5.005 -1.0376 -0.3040  1.0930
10688TIP3   OH253554   1.250   4.690   4.524  0.2913  0.1316  0.3569
10688TIP3    H153555   1.171   4.745   4.519  0.6416  0.5989 -0.2770
10688TIP3    H253556   1.266   4.679   4.618  0.8766  2.1251  0.5409
10689TIP3   OH253557   3.404   2.643   4.977  0.2255  0.7218  0.5201
10689TIP3    H153558   3.385   2.705   4.906  0.3541 -0.1818 -0.3404
10689TIP3    H253559   3.434   2.564   4.931  2.4478  0.8196  1.6475
10690TIP3   OH253560   5.141   1.160   3.632 -0.1409 -0.2958 -1.2689
10690TIP3    H153561   5.117   1.096   3.565 -1.1390 -1.3406  0.0125
10690TIP3    H253562   5.151   1.108   3.712  0.2983  0.9935 -0.4507
10691TIP3   OH253563   1.715   6.604  12.216 -0.4216  0.0362  0.0326
10691TIP3    H153564   1.678   6.573  12.133  0.1637 -1.4181  0.2772
10691TIP3    H253565   1.714   6.527  12.272  0.0908  0.7648  1.0685
10692TIP3   OH253566   4.166   1.569  14.110 -0.1294 -0.0001 -0.2043
10692TIP3    H153567   4.217   1.638  14.069 -1.5740  1.1099 -0.2282
10692TIP3    H253568   4.097   1.550  14.046 -1.2501  0.3692  0.8541
10693TIP3   OH253569   0.576   0.313  16.305  0.2386  0.1507 -0.0664
10693TIP3    H153570   0.526   0.277  16.378 -0.3407 -0.9219 -0.9596
10693TIP3    H253571   0.561   0.407  16.309 -1.2236 -0.0780  0.1544
10694TIP3   OH253572   1.054   0.074  13.468 -0.0019  0.4229 -0.5765
10694TIP3    H153573   1.111  -0.003  13.469 -0.7224 -0.1405 -1.4370
10694TIP3    H253574   1.090   0.131  13.536  0.9353 -0.3842 -0.3699
10695TIP3   OH253575   6.384   3.063  15.848  0.5194  0.0135  0.1540
10695TIP3    H153576   6.312   3.000  15.855 -0.7345  1.2741 -0.8300
10695TIP3    H253577   6.343   3.148  15.866  1.9581  0.6683  0.4416
10696TIP3   OH253578   4.272   5.425  14.865  0.0369 -0.0493 -0.6777
10696TIP3    H153579   4.366   5.444  14.860  0.3270 -1.7119 -2.7675
10696TIP3    H253580   4.230   5.510  14.852  1.2633  0.4745 -1.3709
10697TIP3   OH253581   1.698   3.272   2.095 -0.2543  0.0243  0.1314
10697TIP3    H153582   1.664   3.197   2.046  0.5990  0.8269 -1.7877
10697TIP3    H253583   1.639   3.344   2.072  0.8692  0.6953 -0.7360
10698TIP3   OH253584   6.642   2.263  10.971  0.4828  0.3368 -0.2104
10698TIP3    H153585   6.708   2.332  10.969 -0.5284  1.3129 -0.9733
10698TIP3    H253586   6.561   2.306  10.946 -0.2300 -1.0809 -0.4667
10699TIP3   OH253587   5.026   6.008   5.064  0.1656  0.4376  0.5200
10699TIP3    H153588   4.969   6.018   5.140 -2.2522 -0.2120 -1.0859
10699TIP3    H253589   5.076   5.928   5.082 -1.6771 -0.7347  0.7223
10700TIP3   OH253590   3.218   1.638   1.441 -0.5771 -0.1398  0.1379
10700TIP3    H153591   3.176   1.720   1.418 -2.4199 -1.1998 -0.4612
10700TIP3    H253592   3.169   1.604   1.515  2.0505  0.6687  2.4402
10701TIP3   OH253593   5.055   3.008   3.574  0.1256  0.1883  0.8419
10701TIP3    H153594   5.017   2.953   3.642 -0.6499  1.3312  1.3677
10701TIP3    H253595   4.980   3.034   3.520  0.6485 -0.2135 -0.0916
10702TIP3   OH253596   0.453   4.269  14.060  0.0275  0.4147 -0.7492
10702TIP3    H153597   0.397   4.281  13.984 -0.3903  1.7515 -0.2760
10702TIP3    H253598   0.509   4.347  14.061  0.7732 -0.1095 -0.2972
10703TIP3   OH253599   2.628   6.059   5.017  0.1014 -0.8876 -0.3657
10703TIP3    H153600   2.629   6.042   5.111  0.1260  0.1022 -0.1762
10703TIP3    H253601   2.539   6.040   4.989 -0.6232  1.1787  0.3409
10704TIP3   OH253602   0.456   2.553   1.703 -0.9186  0.0030  0.4805
10704TIP3    H153603   0.418   2.587   1.784  1.5032  2.3768  0.7472
10704TIP3    H253604   0.385   2.560   1.639 -2.5877 -1.0306  2.0942
10705TIP3   OH253605   3.836   5.424   0.309  0.8159  0.2974  0.1475
10705TIP3    H153606   3.922   5.421   0.352  0.1763  1.7763  1.6060
10705TIP3    H253607   3.834   5.509   0.265  0.7673 -0.4774 -1.4122
10706TIP3   OH253608   5.382   2.528  12.712 -0.1501 -0.3144  0.0772
10706TIP3    H153609   5.410   2.439  12.689  0.2488 -0.0435 -0.4979
10706TIP3    H253610   5.461   2.570  12.745 -0.7805 -0.8206  2.4295
10707TIP3   OH253611   6.657   0.539   0.838 -0.2818 -0.1247  0.5898
10707TIP3    H153612   6.667   0.525   0.744  0.3878  1.9937  0.2857
10707TIP3    H253613   6.740   0.579   0.865 -1.3715  1.6485  1.5536
10708TIP3   OH253614   5.407   3.246  15.025 -0.2014 -0.0434 -0.4468
10708TIP3    H153615   5.482   3.262  15.082 -0.6323 -2.0833  0.7915
10708TIP3    H253616   5.437   3.180  14.962 -0.7443 -0.3641 -0.3779
10709TIP3   OH253617   6.375   2.061  12.835 -0.4774  0.4442  0.0625
10709TIP3    H153618   6.387   2.101  12.748 -0.6375 -1.3728 -0.8488
10709TIP3    H253619   6.454   2.083  12.883  0.8225 -0.6711 -1.4581
10710TIP3   OH253620   3.507   0.945  13.292 -0.2987 -0.1223 -0.3800
10710TIP3    H153621   3.595   0.938  13.254 -0.1435 -0.5998  0.0594
10710TIP3    H253622   3.517   1.005  13.366  0.1799 -1.9860  1.1433
10711TIP3   OH253623   3.607   2.697  12.221 -0.4877  0.1979 -0.0152
10711TIP3    H153624   3.687   2.644  12.219  0.2159  1.2623 -0.5357
10711TIP3    H253625   3.625   2.766  12.284 -0.7599  0.8150 -0.6029
10712TIP3   OH253626   2.402   3.180   3.288 -0.0939  0.4064  0.8559
10712TIP3    H153627   2.454   3.101   3.274 -0.7532 -0.0918  1.1500
10712TIP3    H253628   2.315   3.157   3.255 -0.8699  0.2376  2.8831
10713TIP3   OH253629   1.077   2.867  12.817  0.2641 -0.2098 -0.0380
10713TIP3    H153630   1.058   2.783  12.774 -0.0468 -0.2046  0.0872
10713TIP3    H253631   0.995   2.916  12.812  0.4270  0.0612 -0.0499
10714TIP3   OH253632   0.420   5.885  15.936 -0.1819 -1.1075  0.8080
10714TIP3    H153633   0.439   5.853  15.848 -1.6551 -0.2837  0.1547
10714TIP3    H253634   0.456   5.973  15.938 -0.3734 -1.0318  0.9461
10715TIP3   OH253635   4.971   6.000  14.262  0.3335  0.0362  0.1788
10715TIP3    H153636   4.924   5.928  14.304 -0.3725  0.7115  0.5614
10715TIP3    H253637   4.969   6.071  14.326 -0.7145  1.0665 -0.9534
10716TIP3   OH253638   4.511   1.825   0.378 -1.0878 -0.3435 -0.6983
10716TIP3    H153639   4.506   1.741   0.424 -1.8930  1.4035  2.7228
10716TIP3    H253640   4.448   1.881   0.423 -1.4706  1.8135 -3.6362
10717TIP3   OH253641   6.110   3.115  16.472  0.2886  0.6535 -0.4067
10717TIP3    H153642   6.147   3.028  16.458  1.4065  1.1686 -0.7816
10717TIP3    H253643   6.079   3.142  16.385 -0.1728  0.5798 -0.2661
10718TIP3   OH253644   0.664   4.012   5.348  0.4456 -0.1779 -0.4230
10718TIP3    H153645   0.755   4.037   5.366  0.0695  2.0375 -1.3236
10718TIP3    H253646   0.618   4.095   5.337 -1.2181 -1.2668 -2.2782
10719TIP3   OH253647   1.068   3.533  10.984 -0.2699 -0.4155  0.4679
10719TIP3    H153648   1.094   3.612  10.937 -3.7777  0.6167 -0.0254
10719TIP3    H253649   1.098   3.547  11.073  0.0962  0.9957  0.1531
10720TIP3   OH253650   1.239   4.116  14.765 -0.6372  0.8372  0.5279
10720TIP3    H153651   1.256   4.186  14.828 -0.5204  1.9440 -0.6879
10720TIP3    H253652   1.307   4.051  14.782 -1.7152  0.1831  2.7662
10721TIP3   OH253653   1.437   6.186  13.985  0.3014  0.0024 -0.2845
10721TIP3    H153654   1.506   6.213  14.045  1.6156 -0.9117 -1.3392
10721TIP3    H253655   1.381   6.264  13.976  3.1770  2.0589 -2.1804
10722TIP3   OH253656   2.724   1.664  11.299  0.3136 -0.2585 -0.4377
10722TIP3    H153657   2.640   1.621  11.309  0.0390  0.5390  0.8415
10722TIP3    H253658   2.752   1.686  11.388  1.0147  1.0956 -0.9549
10723TIP3   OH253659   5.997   1.347   3.259  0.2800 -0.2668 -0.3747
10723TIP3    H153660   6.024   1.390   3.178 -1.1231  0.4150 -0.5056
10723TIP3    H253661   5.960   1.417   3.313  0.1963 -0.8932  0.4012
10724TIP3   OH253662   0.111   4.127  11.512  0.2741 -0.3597  0.1108
10724TIP3    H153663   0.168   4.173  11.573 -0.3985  0.2283  0.3173
10724TIP3    H253664   0.128   4.035  11.528  0.0081 -0.2237  1.3120
10725TIP3   OH253665   0.451   0.112  15.832 -0.3913  0.1329  0.1703
10725TIP3    H153666   0.372   0.060  15.846 -0.1957  0.3827  2.4777
10725TIP3    H253667   0.421   0.190  15.786 -1.1928 -0.5109 -0.4393
10726TIP3   OH253668   1.283   3.240  13.166 -0.1364 -0.3141 -0.3981
10726TIP3    H153669   1.338   3.174  13.209 -1.4688 -0.1545  1.6773
10726TIP3    H253670   1.222   3.268  13.234 -1.5257  0.9264 -2.0835
10727TIP3   OH253671   4.185   6.392  15.493 -0.8029  0.3404 -0.1643
10727TIP3    H153672   4.162   6.392  15.586  3.3401  0.3533  1.0795
10727TIP3    H253673   4.231   6.309  15.480  2.7999  2.2600 -0.8377
10728TIP3   OH253674   3.185   1.512   1.200 -0.0578 -0.2017 -0.3916
10728TIP3    H153675   3.251   1.551   1.258 -0.4262 -0.6877  0.3650
10728TIP3    H253676   3.104   1.514   1.250 -0.8007  1.0140 -1.5771
10729TIP3   OH253677   4.438   3.404   2.913  0.2060 -0.6101 -0.3249
10729TIP3    H153678   4.464   3.469   2.978  0.6169 -1.4096  0.3389
10729TIP3    H253679   4.363   3.359   2.953  1.6217 -2.3781  0.4853
10730TIP3   OH253680   0.172   1.435  10.598  0.4081  0.2648  0.6865
10730TIP3    H153681   0.195   1.347  10.566  0.9209  0.6011  0.1062
10730TIP3    H253682   0.252   1.468  10.638  0.4642  0.7786  0.1738
10731TIP3   OH253683   4.192   0.846   3.918  0.7915  0.2394  0.6861
10731TIP3    H153684   4.208   0.828   4.011  0.1998  0.2951  0.8059
10731TIP3    H253685   4.098   0.830   3.907  0.8808  0.1093  0.0667
10732TIP3   OH253686   6.570   4.877   1.632 -0.2225 -0.0672 -0.2090
10732TIP3    H153687   6.536   4.900   1.545 -2.0590 -3.9993 -0.7271
10732TIP3    H253688   6.665   4.871   1.619 -0.0479  2.6971 -0.9488
10733TIP3   OH253689   3.943   0.444   3.502 -0.2412  0.2633 -0.2137
10733TIP3    H153690   4.022   0.484   3.466 -1.1221  0.0621 -2.5697
10733TIP3    H253691   3.897   0.409   3.425 -0.5244 -3.4853  1.4288
10734TIP3   OH253692   0.498   3.397  13.108 -0.0077 -0.5309  0.3208
10734TIP3    H153693   0.560   3.344  13.058 -0.4001 -0.3338 -0.3788
10734TIP3    H253694   0.546   3.420  13.188  0.2129 -1.8287  0.5913
10735TIP3   OH253695   6.263   6.163  15.672  0.1646 -0.4421 -0.3937
10735TIP3    H153696   6.272   6.071  15.696 -0.8559 -0.1805  1.1258
10735TIP3    H253697   6.266   6.210  15.755 -2.1796  0.6410 -0.8481
10736TIP3   OH253698   4.230   5.095  10.746 -0.7383 -0.4404  0.1780
10736TIP3    H153699   4.204   5.048  10.667 -1.0182 -1.2161  0.7199
10736TIP3    H253700   4.178   5.176  10.745  1.5682  1.1625 -2.0750
10737TIP3   OH253701   3.230   6.156   3.613 -0.6056 -0.4053  0.4824
10737TIP3    H153702   3.193   6.084   3.562 -4.0132  0.4721  1.4463
10737TIP3    H253703   3.289   6.114   3.676 -1.7503 -2.2690  0.3841
10738TIP3   OH253704   1.220   2.901  13.048  0.0038 -0.3276  0.4742
10738TIP3    H153705   1.283   2.831  13.064  0.3656 -0.7147 -2.2211
10738TIP3    H253706   1.168   2.871  12.974 -0.8349  1.6044  0.2061
10739TIP3   OH253707   6.175   6.116  16.156  0.1686 -0.1232  0.2087
10739TIP3    H153708   6.163   6.195  16.209  1.2285 -0.1122  0.4497
10739TIP3    H253709   6.120   6.050  16.199  0.6322  0.0212  1.0264
10740TIP3   OH253710   1.085   0.183   1.510  0.1730  0.3000  0.0004
10740TIP3    H153711   1.179   0.166   1.503  0.6830  2.8502 -0.4395
10740TIP3    H253712   1.074   0.222   1.597 -0.4957 -0.0860  0.0950
10741TIP3   OH253713   1.729   3.569   6.171 -0.5675 -0.0300 -0.2635
10741TIP3    H153714   1.813   3.557   6.216 -1.4013  2.2361  2.1939
10741TIP3    H253715   1.673   3.499   6.203 -0.2549 -0.2373 -0.1733
10742TIP3   OH253716   6.435   3.482  15.416  0.7450  0.1507 -0.7644
10742TIP3    H153717   6.393   3.521  15.340 -0.3032  2.0269  0.6788
10742TIP3    H253718   6.432   3.388  15.400 -1.6313  0.3687 -1.9717
10743TIP3   OH253719   0.033   0.567  15.089 -0.0476  0.6237  0.0413
10743TIP3    H153720   0.056   0.479  15.120  2.6625  1.6550  1.3269
10743TIP3    H253721   0.009   0.555  14.998 -3.3966 -1.8753  1.0383
10744TIP3   OH253722   1.707   2.898  16.733 -0.8064  0.4093  0.0141
10744TIP3    H153723   1.611   2.902  16.737 -0.7296  1.1438  2.0224
10744TIP3    H253724   1.728   2.934  16.647 -2.3604 -0.8433 -0.9503
10745TIP3   OH253725   0.695   3.102   5.672 -0.2657  0.1585  0.2590
10745TIP3    H153726   0.713   3.196   5.666 -1.8981  0.5370  0.8172
10745TIP3    H253727   0.732   3.076   5.757 -1.6761  0.7844  1.1001
10746TIP3   OH253728   4.349   0.876  12.761  0.2344 -0.1749  0.1942
10746TIP3    H153729   4.366   0.813  12.692  2.2295  0.3435  0.1660
10746TIP3    H253730   4.408   0.851  12.832  0.3955  1.0887  0.5345
10747TIP3   OH253731   2.429   0.740   4.099 -0.0760 -0.2057 -0.0264
10747TIP3    H153732   2.425   0.747   4.004 -0.0023 -0.3439 -0.0394
10747TIP3    H253733   2.380   0.660   4.119 -1.9465  0.9234  0.2090
10748TIP3   OH253734   0.322   1.304   5.534  0.0199  0.0224  0.2573
10748TIP3    H153735   0.278   1.386   5.556  1.8845  0.4853  2.6886
10748TIP3    H253736   0.298   1.244   5.604  1.5162 -0.3713  0.4565
10749TIP3   OH253737   0.835   3.960  15.482 -0.2506 -0.1351 -0.2884
10749TIP3    H153738   0.842   3.868  15.506  1.5670  0.2820  1.0013
10749TIP3    H253739   0.925   3.993  15.486 -0.4631  1.1194 -3.2832
10750TIP3   OH253740   5.035   4.026  11.081 -0.1538  0.8991  0.1888
10750TIP3    H153741   4.985   4.019  10.999  0.4523 -1.3352 -0.0791
10750TIP3    H253742   4.969   4.027  11.150 -0.7586 -2.6991 -0.1179
10751TIP3   OH253743   2.373   2.490   4.500  0.0743 -0.3826  0.2989
10751TIP3    H153744   2.331   2.564   4.456  0.7055 -1.0041 -1.4102
10751TIP3    H253745   2.313   2.467   4.570 -1.7145 -0.2733 -1.1314
10752TIP3   OH253746   6.320   1.166   3.492  0.3590  0.1602  0.2813
10752TIP3    H153747   6.329   1.233   3.559  4.2102  0.5969 -0.4919
10752TIP3    H253748   6.344   1.209   3.410  1.4853 -1.7321 -0.4604
10753TIP3   OH253749   0.327   2.563  16.528 -0.0697 -0.4098  0.3027
10753TIP3    H153750   0.317   2.549  16.434 -0.7784  0.1215  0.2875
10753TIP3    H253751   0.339   2.657  16.538 -3.8617  0.1705  0.9755
10754TIP3   OH253752   4.037   5.052   0.297 -0.1388  0.6958  0.0581
10754TIP3    H153753   4.011   5.083   0.384  0.1351  2.6200 -0.5071
10754TIP3    H253754   4.112   5.106   0.273  2.2992 -2.3795  0.1648
10755TIP3   OH253755   5.210   3.491   4.281 -0.1677 -0.4131 -0.5983
10755TIP3    H153756   5.152   3.415   4.283  0.8806 -1.2438  1.8153
10755TIP3    H253757   5.172   3.553   4.344 -0.2971  0.5473 -1.5808
10756TIP3   OH253758   2.946   3.815   5.415 -0.0355  0.2916 -0.6319
10756TIP3    H153759   2.973   3.815   5.323 -1.8208 -0.3476 -1.2037
10756TIP3    H253760   2.987   3.736   5.452  0.2126  0.2268 -1.0384
10757TIP3   OH253761   0.130   2.850  17.059  0.0461  0.8141  0.8153
10757TIP3    H153762   0.168   2.778  17.008 -0.8182  0.2550  0.9505
10757TIP3    H253763   0.083   2.903  16.995  0.3043  1.0131  0.7884
10758TIP3   OH253764   5.828   3.513   3.907 -0.5181 -0.3944  0.2225
10758TIP3    H153765   5.836   3.452   3.980 -0.8353 -0.3668  0.2790
10758TIP3    H253766   5.766   3.579   3.937 -0.1802 -0.0395  0.1622
10759TIP3   OH253767   6.828   4.415   6.139 -0.3148  0.1730 -0.0706
10759TIP3    H153768   6.863   4.410   6.050  0.7825 -0.4725  0.3692
10759TIP3    H253769   6.846   4.504   6.168  0.1299  0.1319 -0.2024
10760TIP3   OH253770   6.835   5.315   0.662  0.2255  0.5469 -0.1568
10760TIP3    H153771   6.741   5.329   0.650  0.7109  3.6094 -1.6288
10760TIP3    H253772   6.842   5.255   0.736 -2.8606 -0.7303 -0.7517
10761TIP3   OH253773   1.300   6.691   0.287 -0.5180 -0.0945 -0.6467
10761TIP3    H153774   1.286   6.598   0.270  2.0307 -0.4451 -1.1486
10761TIP3    H253775   1.376   6.693   0.345 -0.7528  1.6758 -0.3576
10762TIP3   OH253776   2.322   2.405  11.570  0.0935  0.2555  0.1461
10762TIP3    H153777   2.351   2.367  11.653  0.3742  0.5044  0.1637
10762TIP3    H253778   2.334   2.499  11.582  0.1530  0.2900 -0.1866
10763TIP3   OH253779   4.661   3.973  16.829  0.3991  0.1117  0.5191
10763TIP3    H153780   4.648   3.881  16.804 -1.1142  0.8589 -1.7873
10763TIP3    H253781   4.578   3.999  16.867  1.1481  0.3133  2.0821
10764TIP3   OH253782   0.195   2.427   3.963 -0.1030  0.3593  0.0774
10764TIP3    H153783   0.239   2.432   3.878 -0.3687  1.7642  0.0140
10764TIP3    H253784   0.257   2.468   4.024 -0.4211  0.4242  0.3563
10765TIP3   OH253785   0.851   0.158  10.785 -0.0516 -0.3879  0.4300
10765TIP3    H153786   0.915   0.174  10.717  0.3624 -0.0177  0.8969
10765TIP3    H253787   0.786   0.101  10.744  0.7269 -1.0184  0.0425
10766TIP3   OH253788   4.932   5.036  14.530 -0.0673  0.0966 -0.0803
10766TIP3    H153789   4.861   4.981  14.496  1.6173 -2.1830 -0.1928
10766TIP3    H253790   4.906   5.055  14.620 -1.8184  1.2147 -0.7689
10767TIP3   OH253791   2.045   1.199   5.534  0.2883 -0.0367 -0.1668
10767TIP3    H153792   2.120   1.240   5.577  0.0880  0.0067  0.1452
10767TIP3    H253793   2.078   1.170   5.449  1.2805 -2.0786  0.8487
10768TIP3   OH253794   0.792   0.073   1.438 -0.0874  0.0848  0.0181
10768TIP3    H153795   0.776   0.167   1.451 -0.0840 -0.0814  1.3500
10768TIP3    H253796   0.883   0.060   1.465 -0.3270 -0.4277  0.6053
10769TIP3   OH253797   3.288   5.657  14.086  0.2957 -0.1828 -0.5933
10769TIP3    H153798   3.252   5.681  14.001  2.1535 -0.2608 -1.4520
10769TIP3    H253799   3.353   5.725  14.104  0.2488 -0.4207  0.5737
10770TIP3   OH253800   4.542   1.423  13.922 -0.3205 -0.2384 -0.1276
10770TIP3    H153801   4.515   1.515  13.922 -1.6378 -0.5867 -1.1135
10770TIP3    H253802   4.577   1.408  13.835 -2.9516 -1.3694 -1.1097
10771TIP3   OH253803   2.718   2.734   0.522  0.5401  0.0201 -0.4816
10771TIP3    H153804   2.810   2.738   0.497  0.1025 -1.0694 -2.4737
10771TIP3    H253805   2.709   2.650   0.567  0.5342  0.1651 -0.2105
10772TIP3   OH253806   2.523   3.656  16.439  0.2647 -0.0890 -0.1969
10772TIP3    H153807   2.584   3.719  16.401  2.3619 -1.3060  0.9867
10772TIP3    H253808   2.517   3.680  16.531  0.3588 -1.0349  0.0722
10773TIP3   OH253809   5.083   3.585   2.089 -0.1239 -0.0049  0.2846
10773TIP3    H153810   5.050   3.655   2.033  1.0527 -0.7121 -1.4065
10773TIP3    H253811   5.159   3.622   2.132  0.6614 -0.2756 -0.8191
10774TIP3   OH253812   5.733   4.307   2.788  0.3467 -0.5996  0.1629
10774TIP3    H153813   5.651   4.335   2.827 -0.2132  1.7996 -2.4192
10774TIP3    H253814   5.795   4.376   2.809  0.2589  0.3091 -2.1936
10775TIP3   OH253815   6.814   3.689  14.058  0.2037  0.0970  0.0727
10775TIP3    H153816   6.893   3.666  14.008 -0.0352 -0.0169 -0.2546
10775TIP3    H253817   6.833   3.776  14.094 -0.3983  1.0794 -1.8537
10776TIP3   OH253818   4.282   4.542   3.969  0.6295 -0.0437 -0.1561
10776TIP3    H153819   4.189   4.564   3.957  0.6908  0.0436 -0.4977
10776TIP3    H253820   4.317   4.615   4.021  0.3682 -0.3972  0.5142
10777TIP3   OH253821   6.524   3.411   1.917  0.1531  0.0417 -0.3570
10777TIP3    H153822   6.528   3.360   1.998  2.3610  0.9178  0.1664
10777TIP3    H253823   6.564   3.353   1.852 -1.3094 -0.5280 -0.7896
10778TIP3   OH253824   2.572   1.095   5.040 -0.2265 -0.2291  0.2155
10778TIP3    H153825   2.632   1.021   5.052  0.2918 -0.0723 -1.2625
10778TIP3    H253826   2.568   1.108   4.946 -0.2875  1.6465  0.4409
10779TIP3   OH253827   3.560   2.910   1.292 -0.2473  0.4426 -0.3082
10779TIP3    H153828   3.530   2.873   1.375  2.5265  0.5357  0.8403
10779TIP3    H253829   3.585   3.000   1.314 -0.4665  0.8159 -1.5146
10780TIP3   OH253830   5.188   3.769   5.329 -0.0614  0.3383  0.2869
10780TIP3    H153831   5.248   3.835   5.294 -0.3693  0.1391 -0.6572
10780TIP3    H253832   5.241   3.718   5.390 -0.2291  2.4695  2.3552
10781TIP3   OH253833   1.912   1.550  10.618 -0.0423 -0.2698 -0.2875
10781TIP3    H153834   1.935   1.477  10.675  0.9115 -0.7025 -1.2046
10781TIP3    H253835   1.841   1.595  10.664 -1.8166 -2.7264 -0.4529
10782TIP3   OH253836   1.514   1.388   2.233 -0.5182 -0.6821  0.1629
10782TIP3    H153837   1.489   1.370   2.324  0.1947 -1.1137  0.2826
10782TIP3    H253838   1.562   1.471   2.237 -1.8840  0.1404 -0.0650
10783TIP3   OH253839   5.831   2.895  12.567 -0.0350  0.1896  0.3970
10783TIP3    H153840   5.780   2.817  12.544 -0.7632  0.9252 -0.5687
10783TIP3    H253841   5.791   2.926  12.649 -0.4568  0.1655  0.2030
10784TIP3   OH253842   1.398   1.117  15.276  0.1726 -1.0895 -0.3605
10784TIP3    H153843   1.324   1.093  15.220  0.0606 -1.1632 -0.1799
10784TIP3    H253844   1.422   1.205  15.247 -0.9159 -0.4656  0.5508
10785TIP3   OH253845   5.442   1.041  12.581  0.0589  0.5471 -0.3666
10785TIP3    H153846   5.492   1.014  12.658  1.2893  0.5749 -1.1167
10785TIP3    H253847   5.439   1.137  12.587  0.5710  0.5819 -0.5837
10786TIP3   OH253848   0.359   1.319   0.752 -0.1482  0.4511  0.5493
10786TIP3    H153849   0.309   1.317   0.834  1.1311  1.5171  1.4105
10786TIP3    H253850   0.335   1.239   0.707 -0.9254 -0.1459  1.9637
10787TIP3   OH253851   2.821   4.425  14.947 -0.6304  0.1397  0.2486
10787TIP3    H153852   2.799   4.346  14.996 -1.3662  0.4556  0.4417
10787TIP3    H253853   2.745   4.440  14.891 -0.2401  0.3781 -0.2222
10788TIP3   OH253854   3.273   0.629  14.276 -0.4469  0.5213  0.0639
10788TIP3    H153855   3.336   0.698  14.257 -2.5224  1.9257 -2.2837
10788TIP3    H253856   3.212   0.669  14.338 -0.2664 -0.0813  0.6371
10789TIP3   OH253857   0.961   1.356  13.167 -0.1462 -0.4732  0.0919
10789TIP3    H153858   1.048   1.393  13.183 -1.0811  1.9685 -0.0629
10789TIP3    H253859   0.978   1.276  13.118  2.0888 -1.1290  1.8067
10790TIP3   OH253860   0.635   0.845  11.295  0.5874 -0.3386  0.2130
10790TIP3    H153861   0.579   0.768  11.289 -0.4089  0.3333  0.7451
10790TIP3    H253862   0.614   0.885  11.379  0.3743  1.0609 -0.4664
10791TIP3   OH253863   0.039   3.935  15.398 -0.5468 -0.1234 -0.3591
10791TIP3    H153864   0.014   3.851  15.361  0.4002 -1.5436  2.0136
10791TIP3    H253865   0.005   3.934  15.488  2.3572  0.4754  0.8998
10792TIP3   OH253866   3.972   6.446  14.482 -0.4136  0.1587 -0.3917
10792TIP3    H153867   3.928   6.363  14.461  2.0693 -1.4840  0.3846
10792TIP3    H253868   3.952   6.462  14.574 -0.1855 -0.0924 -0.2950
10793TIP3   OH253869   1.455   1.595  13.125 -0.4199 -0.0195  0.2700
10793TIP3    H153870   1.513   1.577  13.052  0.2632 -1.3754  1.1129
10793TIP3    H253871   1.484   1.680  13.158  0.9678 -0.5619  0.5253
10794TIP3   OH253872   4.998   4.569  14.003 -0.0126  0.0250 -0.4397
10794TIP3    H153873   5.037   4.484  13.980  0.8690  0.5674 -1.0125
10794TIP3    H253874   5.058   4.633  13.965 -0.1612  0.9210  0.7911
10795TIP3   OH253875   2.366   6.466  11.849  0.9477 -0.0966 -0.3879
10795TIP3    H153876   2.410   6.402  11.905 -1.0406 -0.7319  0.5460
10795TIP3    H253877   2.276   6.435  11.843 -0.0391  2.4739 -0.1266
10796TIP3   OH253878   0.931   5.378   4.827  0.4877 -0.3010 -0.1122
10796TIP3    H153879   0.914   5.388   4.921  0.5495 -0.3874 -0.0919
10796TIP3    H253880   0.926   5.467   4.792 -1.6542 -0.4750 -0.3833
10797TIP3   OH253881   5.267   2.131   4.153 -0.0969 -0.2236 -0.2439
10797TIP3    H153882   5.239   2.201   4.212 -2.6451  0.1921 -1.8003
10797TIP3    H253883   5.336   2.085   4.201 -0.8603  1.1138  2.3090
10798TIP3   OH253884   1.581   0.202   1.785 -0.5234  0.1276  0.6674
10798TIP3    H153885   1.518   0.177   1.853  0.3272 -0.2691  1.3253
10798TIP3    H253886   1.587   0.297   1.792 -3.7201  0.6819 -1.7978
10799TIP3   OH253887   2.620   0.133  16.843 -0.2231 -0.8008  0.4226
10799TIP3    H153888   2.654   0.127  16.932  2.2925  0.9785 -0.3100
10799TIP3    H253889   2.681   0.082  16.790 -2.1282 -2.4957 -0.2560
10800TIP3   OH253890   2.773   5.031  11.951  0.1846  0.4938  0.4497
10800TIP3    H153891   2.787   5.099  12.016  0.9002  2.3969 -1.5883
10800TIP3    H253892   2.720   5.073  11.883 -1.1517 -1.6330  0.0649
10801TIP3   OH253893   0.253   5.276  14.775  0.4636 -0.1502 -0.3179
10801TIP3    H153894   0.250   5.181  14.767 -2.3717 -0.2294  0.5120
10801TIP3    H253895   0.268   5.307  14.686  0.8945 -1.3544 -0.6803
10802TIP3   OH253896   5.310   0.112  10.902  0.2648  0.3906  0.0964
10802TIP3    H153897   5.334   0.159  10.823 -0.1888 -1.3718 -1.1607
10802TIP3    H253898   5.312   0.019  10.877 -1.6957 -0.1468  1.6156
10803TIP3   OH253899   1.980   6.272   4.888 -0.2537 -0.1591  0.7991
10803TIP3    H153900   1.987   6.193   4.942 -0.0159  0.9798  2.5541
10803TIP3    H253901   1.890   6.272   4.856 -0.3532 -0.9805  1.0568
10804TIP3   OH253902   3.270   6.577  15.370 -0.0522 -0.0972 -0.0560
10804TIP3    H153903   3.296   6.632  15.296 -0.1483 -1.8205 -1.4519
10804TIP3    H253904   3.187   6.614  15.400  0.3705  1.0887 -0.3126
10805TIP3   OH253905   2.265   6.687   0.150 -0.2205  0.4951 -0.0965
10805TIP3    H153906   2.334   6.709   0.213 -2.2164  0.0694  2.4219
10805TIP3    H253907   2.198   6.754   0.164 -1.6703 -0.8782 -0.1497
10806TIP3   OH253908   0.979   5.533   2.547  0.2066 -0.3956 -0.0923
10806TIP3    H153909   1.060   5.561   2.504  0.2305  1.7706  1.1805
10806TIP3    H253910   0.974   5.439   2.532  3.8772 -0.9707  1.2301
10807TIP3   OH253911   0.907   2.097  12.352  0.0507  0.0666  0.2179
10807TIP3    H153912   0.965   2.173  12.348  0.9008 -0.5732  0.0529
10807TIP3    H253913   0.858   2.108  12.434 -0.6192  1.3285 -0.3296
10808TIP3   OH253914   0.264   3.007   4.614  0.1851 -0.3918 -0.3456
10808TIP3    H153915   0.328   2.981   4.547  1.0002  0.0373  0.2546
10808TIP3    H253916   0.194   2.942   4.606  0.4626 -0.5966 -1.3301
10809TIP3   OH253917   4.940   2.050  14.928 -0.5304 -0.3333 -0.0082
10809TIP3    H153918   4.912   2.138  14.903 -0.0127 -0.5764 -1.5396
10809TIP3    H253919   4.894   1.992  14.867 -1.1197 -1.1780  1.1885
10810TIP3   OH253920   6.273   0.772   0.545  0.2849  0.0877 -0.2898
10810TIP3    H153921   6.217   0.694   0.539 -0.1473  0.2950  0.7493
10810TIP3    H253922   6.234   0.834   0.484  1.1254 -0.7853 -1.7549
10811TIP3   OH253923   4.620   3.134   4.685  0.5156  0.0321  0.1966
10811TIP3    H153924   4.659   3.217   4.657 -0.0112  0.4118  0.5564
10811TIP3    H253925   4.527   3.144   4.663  0.6069 -0.8465 -0.6396
10812TIP3   OH253926   4.239   1.469   1.394 -0.3570  0.2661  0.1604
10812TIP3    H153927   4.234   1.560   1.366 -1.9471  0.6331  1.4620
10812TIP3    H253928   4.202   1.419   1.321  1.2595  0.5504 -0.8911
10813TIP3   OH253929   0.881   2.862  16.978  0.4219 -0.5199  0.0955
10813TIP3    H153930   0.788   2.843  16.964  0.5131 -1.7041  0.9259
10813TIP3    H253931   0.901   2.931  16.915 -0.2870 -2.3231 -2.2455
10814TIP3   OH253932   4.001   4.489   4.647 -0.5466  0.2729 -0.2601
10814TIP3    H153933   3.984   4.573   4.603 -2.3920 -0.8967 -1.9551
10814TIP3    H253934   4.096   4.488   4.660 -0.1132  1.4479 -2.7463
10815TIP3   OH253935   2.723   3.421   0.423 -0.0673 -0.6789 -0.5900
10815TIP3    H153936   2.745   3.437   0.514  0.2544 -1.9300 -0.4298
10815TIP3    H253937   2.785   3.354   0.394 -0.1433 -0.2779 -1.7397
10816TIP3   OH253938   1.589   4.824   0.259 -0.0976 -0.2849 -0.1188
10816TIP3    H153939   1.507   4.794   0.298  0.0675 -1.7164 -0.7914
10816TIP3    H253940   1.590   4.919   0.273 -1.9172 -0.2292 -0.2037
10817TIP3   OH253941   6.831   6.777   4.036 -0.7404 -0.2162 -0.1791
10817TIP3    H153942   6.814   6.850   4.096 -1.5815  0.2511 -0.9629
10817TIP3    H253943   6.867   6.818   3.957  0.0362 -0.7877 -0.1356
10818TIP3   OH253944   4.717   4.687   4.812 -0.1548  0.3185 -0.0926
10818TIP3    H153945   4.812   4.679   4.805 -0.2079 -0.5440  0.0223
10818TIP3    H253946   4.704   4.761   4.871  0.4428  0.5003 -0.1777
10819TIP3   OH253947   6.741   0.407   3.542  0.8701  0.5334  0.4400
10819TIP3    H153948   6.750   0.314   3.522 -0.9591  0.8434 -2.3126
10819TIP3    H253949   6.818   0.448   3.503  0.4418  0.4227 -0.5432
10820TIP3   OH253950   5.987   1.101  10.086  0.7912  0.5071 -0.0230
10820TIP3    H153951   6.081   1.112  10.072  0.7787  0.9354  0.2324
10820TIP3    H253952   5.967   1.157  10.161  0.1888  1.0408 -0.5686
10821TIP3   OH253953   2.162   1.698   0.060  0.1808  0.1774 -0.9439
10821TIP3    H153954   2.067   1.693   0.072  0.1994  1.6183  0.0936
10821TIP3    H253955   2.175   1.771  -0.000  0.6240 -0.2300 -1.3486
10822TIP3   OH253956   3.292   4.080  12.711  0.6846  0.1923 -0.4808
10822TIP3    H153957   3.372   4.030  12.726  0.0225 -0.3157  1.8692
10822TIP3    H253958   3.234   4.020  12.664  0.4786 -0.7323  0.8936
10823TIP3   OH253959   2.982   5.688   4.717  0.0277  0.1912  0.1199
10823TIP3    H153960   3.055   5.706   4.777  0.6033  1.3288 -0.8741
10823TIP3    H253961   2.912   5.656   4.774  0.6117  1.0533  1.3870
10824TIP3   OH253962   5.233   1.836  15.252 -0.1715  0.3474  0.2122
10824TIP3    H153963   5.253   1.743  15.242 -0.2221  0.1936  1.3924
10824TIP3    H253964   5.140   1.843  15.230 -0.5609 -0.1618  1.6195
10825TIP3   OH253965   2.544   2.335  12.351  0.5431  0.6899  0.0402
10825TIP3    H153966   2.541   2.300  12.440  1.1287 -0.2512 -0.2905
10825TIP3    H253967   2.453   2.333  12.322  0.3870  0.7231  0.5135
10826TIP3   OH253968   3.282   1.433   4.220 -0.1521  0.5020  0.0154
10826TIP3    H153969   3.364   1.482   4.225 -0.3913  0.7825  2.0157
10826TIP3    H253970   3.261   1.430   4.127  1.8365  0.8947 -0.4852
10827TIP3   OH253971   5.470   3.896   4.971 -0.2026 -0.1757 -0.0974
10827TIP3    H153972   5.454   3.847   4.891 -1.2617  1.3581 -0.8814
10827TIP3    H253973   5.408   3.969   4.967  1.7453  1.6308  0.6476
10828TIP3   OH253974   4.941   1.688   5.385 -0.6948  0.0271 -0.5158
10828TIP3    H153975   4.862   1.668   5.436  0.7344 -0.6660  1.5454
10828TIP3    H253976   4.964   1.605   5.344  0.3914 -0.4712  1.0267
10829TIP3   OH253977   1.142   5.592   3.135 -0.4925 -0.1686  0.2769
10829TIP3    H153978   1.165   5.541   3.213 -1.5828 -0.8291  0.1895
10829TIP3    H253979   1.197   5.670   3.140  1.2973 -1.3739  0.3670
10830TIP3   OH253980   2.315   3.917   5.850 -0.7060 -0.4140 -0.9765
10830TIP3    H153981   2.391   3.946   5.900  0.6604  0.8915 -3.6015
10830TIP3    H253982   2.253   3.885   5.916  1.4371  0.0126  1.3775
10831TIP3   OH253983   6.311   3.623  16.547 -0.4530  0.0420 -0.1067
10831TIP3    H153984   6.332   3.580  16.464 -1.9998  0.6396 -0.8505
10831TIP3    H253985   6.358   3.706  16.544  0.6333 -0.5397  0.2741
10832TIP3   OH253986   3.969   3.954   4.174  0.4494  0.3820  0.3970
10832TIP3    H153987   3.929   4.040   4.185 -0.4770 -0.1312  1.2210
10832TIP3    H253988   3.967   3.915   4.261  0.3173 -0.6922 -0.0649
10833TIP3   OH253989   5.723   1.815  11.048 -0.0659 -0.3077  0.3854
10833TIP3    H153990   5.751   1.881  10.984 -0.4141 -0.5916 -0.0721
10833TIP3    H253991   5.686   1.745  10.994  2.3846 -1.9438  0.6920
10834TIP3   OH253992   3.311   4.989  12.738 -0.6066  0.4089 -0.1057
10834TIP3    H153993   3.407   4.989  12.742 -0.5568 -1.5634 -0.4918
10834TIP3    H253994   3.284   4.934  12.811 -1.4113  0.1126 -0.6159
10835TIP3   OH253995   1.891   1.401  11.613  0.0852  0.5168  0.0545
10835TIP3    H153996   1.819   1.459  11.636 -0.6539 -0.3683  0.0236
10835TIP3    H253997   1.854   1.339  11.551  1.0577  0.4612 -0.5063
10836TIP3   OH253998   2.359   0.627  17.086 -0.4593  0.2176  0.0470
10836TIP3    H153999   2.351   0.680  17.165  0.1628 -0.1887  0.3991
10836TIP3    H254000   2.295   0.557  17.098 -0.1414 -0.0302  0.3613
10837TIP3   OH254001   0.174   2.474  12.977 -0.1097  0.1633 -0.4734
10837TIP3    H154002   0.236   2.435  13.039  1.2932 -1.3170 -2.6621
10837TIP3    H254003   0.214   2.459  12.891 -2.3617  1.3826 -1.8130
10838TIP3   OH254004   0.321   1.200   4.698  0.2425 -0.4457  0.5357
10838TIP3    H154005   0.358   1.213   4.611 -0.1722  0.2879  0.4544
10838TIP3    H254006   0.368   1.261   4.754  0.6073 -1.0187  0.8608
10839TIP3   OH254007   4.040   5.495  15.915 -0.7417 -0.1014  0.0747
10839TIP3    H154008   4.105   5.562  15.935  0.7641 -1.3252 -0.4690
10839TIP3    H254009   4.030   5.446  15.996 -1.2755  0.3243  0.2656
10840TIP3   OH254010   6.425   5.724   1.033  0.0158  0.4897 -0.9990
10840TIP3    H154011   6.520   5.729   1.023  0.2009  0.5673  0.6163
10840TIP3    H254012   6.401   5.641   0.991  1.4287 -1.9225  2.5586
10841TIP3   OH254013   4.284   5.155  12.370 -0.0064  0.0450 -0.5817
10841TIP3    H154014   4.317   5.222  12.310  2.9372 -0.8401 -0.1027
10841TIP3    H254015   4.251   5.205  12.445 -3.4917  1.1434 -2.6560
10842TIP3   OH254016   0.316   1.317   5.257 -0.1341 -0.1040 -0.4678
10842TIP3    H154017   0.304   1.298   5.350  2.9427 -0.5030 -0.0523
10842TIP3    H254018   0.349   1.407   5.255 -2.4895  0.8252 -1.4497
10843TIP3   OH254019   6.544   3.219   2.970  0.0112 -0.2124  0.1008
10843TIP3    H154020   6.592   3.252   2.895 -0.3313  0.9373  0.3515
10843TIP3    H254021   6.606   3.164   3.018  0.8611  0.6903  0.0556
10844TIP3   OH254022   6.223   2.534  13.462 -0.2028 -0.2870 -0.1794
10844TIP3    H154023   6.222   2.619  13.505  0.2520  0.1696 -1.0262
10844TIP3    H254024   6.236   2.471  13.532 -1.2681  0.2838  0.5457
10845TIP3   OH254025   0.183   1.769   0.557  0.2049  0.0075  0.3202
10845TIP3    H154026   0.233   1.820   0.495 -1.5698  0.1795 -1.0546
10845TIP3    H254027   0.157   1.831   0.625  1.4037  0.0127  0.7908
10846TIP3   OH254028   5.438   1.312   3.669 -0.6108 -0.1476  0.3838
10846TIP3    H154029   5.362   1.260   3.643  0.5598 -1.9991  0.4277
10846TIP3    H254030   5.407   1.402   3.669 -2.5902 -0.7717 -0.3175
10847TIP3   OH254031   6.425   4.092   4.329  0.1312  0.9463  0.5109
10847TIP3    H154032   6.441   4.171   4.380  0.8066  0.5120  0.9902
10847TIP3    H254033   6.349   4.113   4.275  0.9037  2.2794 -0.1189
10848TIP3   OH254034   2.209   2.929  12.692  0.7609  0.0499  0.4560
10848TIP3    H154035   2.260   2.971  12.622  1.0784  1.3110  1.3921
10848TIP3    H254036   2.264   2.857  12.722 -0.5270 -2.2630 -2.3348
10849TIP3   OH254037   4.724   6.008   0.858 -0.4095  0.3594 -0.0573
10849TIP3    H154038   4.703   5.958   0.937 -0.3042  1.5755  0.7755
10849TIP3    H254039   4.754   6.093   0.891 -0.5540  0.9640 -1.4146
10850TIP3   OH254040   3.903   2.317   0.886 -0.0875 -0.0028  0.0501
10850TIP3    H154041   3.816   2.349   0.908  0.1824  0.4600  0.4544
10850TIP3    H254042   3.951   2.319   0.969 -0.4995 -2.9352  0.4843
10851TIP3   OH254043   5.892   5.019  13.534  0.2403  0.5895 -0.3109
10851TIP3    H154044   5.802   4.985  13.534  0.2708  0.4795  0.4983
10851TIP3    H254045   5.884   5.107  13.571  0.7778 -0.4212  2.4905
10852TIP3   OH254046   0.323   3.410   0.503 -0.1203 -0.7953  0.1145
10852TIP3    H154047   0.277   3.338   0.459 -0.1157 -1.4559  1.1535
10852TIP3    H254048   0.333   3.380   0.594 -0.6213  0.7498  0.7171
10853TIP3   OH254049   1.036   5.237   3.626 -0.0769 -0.6233 -0.2187
10853TIP3    H154050   0.988   5.303   3.576  2.0017  1.5052  0.3830
10853TIP3    H254051   0.987   5.228   3.708 -1.9360 -2.0313 -1.4042
10854TIP3   OH254052   5.588   5.197  10.613 -0.2654  0.5106  0.1260
10854TIP3    H154053   5.596   5.132  10.543 -1.6672 -0.3480  0.7170
10854TIP3    H254054   5.607   5.281  10.571  2.2744 -0.2762 -0.5221
10855TIP3   OH254055   2.770   1.478   1.879  0.2535 -0.0981 -0.3454
10855TIP3    H154056   2.740   1.487   1.970  0.7982  0.9734 -0.2623
10855TIP3    H254057   2.864   1.463   1.886  0.4784  1.0261 -0.7583
10856TIP3   OH254058   6.149   1.692  16.972  0.1801 -0.0527  0.2151
10856TIP3    H154059   6.186   1.779  16.992 -0.9814  0.5423 -0.1560
10856TIP3    H254060   6.198   1.662  16.896  1.0856 -0.0587  0.7781
10857TIP3   OH254061   0.687   5.531   2.458 -0.0547  0.4204  0.4744
10857TIP3    H154062   0.781   5.530   2.475  0.0564 -0.6917 -0.1395
10857TIP3    H254063   0.650   5.465   2.516  0.0323 -1.6802 -1.6827
10858TIP3   OH254064   5.657   2.182  11.014 -0.1322  0.0163 -0.2213
10858TIP3    H154065   5.712   2.180  11.093  0.4451  1.4272 -0.5650
10858TIP3    H254066   5.719   2.176  10.942 -0.3613  1.9964 -0.6220
10859TIP3   OH254067   1.144   1.459  16.640 -0.4280 -0.3643  0.1409
10859TIP3    H154068   1.097   1.433  16.561  0.2307  0.7233 -0.6380
10859TIP3    H254069   1.158   1.377  16.688 -1.9449 -0.8729 -0.2345
10860TIP3   OH254070   0.059   1.455   4.914 -0.3340 -0.1865  0.2494
10860TIP3    H154071   0.099   1.477   4.998 -1.0715  0.4688  0.4520
10860TIP3    H254072   0.114   1.499   4.849 -0.5006  0.3981  0.4949
10861TIP3   OH254073   3.125   1.058   2.348  0.5187  0.1279 -0.7692
10861TIP3    H154074   3.157   0.977   2.386 -0.0500  0.2406 -0.0274
10861TIP3    H254075   3.096   1.110   2.423 -3.2825 -0.7583 -1.4240
10862TIP3   OH254076   2.859   2.393   4.565  0.2037 -0.2741 -0.7353
10862TIP3    H154077   2.871   2.349   4.649  1.9347 -0.9737 -1.2908
10862TIP3    H254078   2.943   2.381   4.520  0.2729  2.4331 -1.4940
10863TIP3   OH254079   3.610   0.395  13.672 -0.0891  0.4172  0.0291
10863TIP3    H154080   3.692   0.442  13.685 -0.6016  1.5780 -0.7684
10863TIP3    H254081   3.556   0.419  13.747  1.1373 -2.3842  1.9686
10864TIP3   OH254082   5.768   6.160   6.093  0.5675 -0.1681  0.1411
10864TIP3    H154083   5.821   6.081   6.084  0.6205 -0.0960 -0.1926
10864TIP3    H254084   5.800   6.219   6.025  0.4618  0.1041  0.3262
10865TIP3   OH254085   2.583   4.491  11.588 -0.2587 -0.2994  0.5219
10865TIP3    H154086   2.676   4.467  11.590 -0.2927 -0.4033  1.0877
10865TIP3    H254087   2.576   4.554  11.517 -0.0279 -1.4102 -0.5116
10866TIP3   OH254088   3.043   2.530   2.141 -0.0091  0.2053  0.4376
10866TIP3    H154089   2.998   2.545   2.058  1.4920 -0.8536 -0.6267
10866TIP3    H254090   3.075   2.440   2.135  3.1929  1.2138  0.6015
10867TIP3   OH254091   6.137   4.088   5.222 -0.4004 -0.0050 -0.1175
10867TIP3    H154092   6.101   4.157   5.166 -2.0954 -0.6860  0.0535
10867TIP3    H254093   6.086   4.094   5.303  0.6731 -0.3026  0.5923
10868TIP3   OH254094   5.414   0.300  13.162 -0.5715 -0.1772  0.3285
10868TIP3    H154095   5.321   0.300  13.141 -0.2358  0.0280 -1.2298
10868TIP3    H254096   5.429   0.385  13.204 -1.3291 -0.7691  1.8866
10869TIP3   OH254097   5.281   5.356   0.536  0.1899 -0.3283 -0.3396
10869TIP3    H154098   5.230   5.407   0.599  1.2422 -1.2843  1.3544
10869TIP3    H254099   5.337   5.421   0.492  1.2425  0.0933  1.5108
10870TIP3   OH254100   1.627   1.981   1.950  0.5698  0.1021  0.0590
10870TIP3    H154101   1.559   2.038   1.987  1.0544  0.8372 -0.1627
10870TIP3    H254102   1.679   1.954   2.026  0.4627  0.1259  0.1412
10871TIP3   OH254103   3.154   0.855   0.643  0.1406 -0.7894  0.5308
10871TIP3    H154104   3.088   0.801   0.687  0.5684 -0.3405  1.7701
10871TIP3    H254105   3.158   0.934   0.697 -1.1145  0.9100 -1.7000
10872TIP3   OH254106   3.632   3.517  13.864 -0.4809  0.0809  0.5810
10872TIP3    H154107   3.712   3.493  13.912 -0.8309 -0.6480  0.8025
10872TIP3    H254108   3.661   3.529  13.774 -0.2653 -1.0570  0.4823
10873TIP3   OH254109   4.635   1.050  12.056  0.4995 -0.3549  0.5574
10873TIP3    H154110   4.726   1.048  12.027  0.3170 -0.3395 -0.0212
10873TIP3    H254111   4.633   1.117  12.125  0.6736  0.5453 -0.2905
10874TIP3   OH254112   2.947   5.159   2.885 -0.0001 -0.0422 -0.0056
10874TIP3    H154113   2.982   5.079   2.847 -0.4994 -0.1370 -0.2747
10874TIP3    H254114   2.947   5.143   2.979 -0.5660 -0.5594 -0.0873
10875TIP3   OH254115   6.557   0.796  15.069  0.2038 -0.3951  0.0819
10875TIP3    H154116   6.481   0.846  15.040  1.0248  1.8084  1.4689
10875TIP3    H254117   6.590   0.843  15.146  1.7415 -2.4643  0.8153
10876TIP3   OH254118   2.855   3.074  14.115 -0.1606 -0.3434 -0.8219
10876TIP3    H154119   2.772   3.090  14.071 -0.1930 -1.5474 -1.2461
10876TIP3    H254120   2.913   3.042  14.045  0.8533  1.0021 -0.6565
10877TIP3   OH254121   3.093   2.794   1.523  0.6215  0.1454  0.0646
10877TIP3    H154122   3.118   2.846   1.599 -0.6509  1.2558 -0.2416
10877TIP3    H254123   3.003   2.820   1.504  0.6603 -0.6500 -1.3731
10878TIP3   OH254124   6.120   3.982   5.751  0.2884  0.7664 -0.0635
10878TIP3    H154125   6.179   3.979   5.826  0.5770  0.0559 -0.3053
10878TIP3    H254126   6.157   3.919   5.689 -0.6076  0.4680 -0.3091
10879TIP3   OH254127   5.461   3.736  13.527  0.2882  0.6765  0.4788
10879TIP3    H154128   5.532   3.684  13.565  2.6288  2.9356 -0.4992
10879TIP3    H254129   5.448   3.699  13.440  0.7985  0.6823  0.3935
10880TIP3   OH254130   3.075   1.937  12.138  0.5112  0.1168 -0.1089
10880TIP3    H154131   3.076   1.939  12.042  1.4965 -0.8510 -0.1407
10880TIP3    H254132   3.138   2.004  12.164 -0.6484  1.2413 -0.0823
10881TIP3   OH254133   6.224   5.492   6.750 -0.2625 -0.0219 -0.3411
10881TIP3    H154134   6.231   5.411   6.799 -3.0724  0.6996  1.5135
10881TIP3    H254135   6.143   5.482   6.699  0.1583  1.0336 -1.2521
10882TIP3   OH254136   0.525   4.055  13.602  0.3406 -0.1896 -0.0196
10882TIP3    H154137   0.464   3.985  13.626 -0.8471  0.1884 -1.6983
10882TIP3    H254138   0.602   4.041  13.657 -1.9558  0.4621  3.7010
10883TIP3   OH254139   5.672   5.674   2.176 -0.0975 -0.2885 -0.0693
10883TIP3    H154140   5.714   5.657   2.091 -2.7077  1.3654 -1.8388
10883TIP3    H254141   5.726   5.741   2.217 -0.9988  2.0746 -2.4445
10884TIP3   OH254142   0.129   2.119  10.561 -0.6398 -0.2613  0.5204
10884TIP3    H154143   0.193   2.182  10.596 -1.7127  1.3109 -0.2113
10884TIP3    H254144   0.055   2.123  10.621 -1.2628  0.2021 -0.2553
10885TIP3   OH254145   5.313   4.364   6.256  0.4596  0.4971  0.4567
10885TIP3    H154146   5.308   4.337   6.347 -0.0785  0.8330  0.5316
10885TIP3    H254147   5.400   4.404   6.247 -0.3288  2.5890  1.4308
10886TIP3   OH254148   5.273   1.631  13.741  0.1277  0.0475 -0.9682
10886TIP3    H154149   5.225   1.571  13.683 -0.6079 -1.4112  1.0315
10886TIP3    H254150   5.293   1.707  13.686  0.0506 -1.5133 -3.2872
10887TIP3   OH254151   0.722   6.375  15.848 -0.8937 -0.1811  0.3224
10887TIP3    H154152   0.661   6.304  15.828 -1.0895 -0.1874  0.9166
10887TIP3    H254153   0.808   6.341  15.826 -0.9568 -0.7133  0.8733
10888TIP3   OH254154   6.805   3.126   3.603 -0.1292 -0.1601  0.1998
10888TIP3    H154155   6.715   3.147   3.627 -0.3300  0.0233 -0.6897
10888TIP3    H254156   6.848   3.211   3.590  0.7565 -0.1710  2.6013
10889TIP3   OH254157   5.109   0.945   6.662  0.5562  0.1100 -0.0389
10889TIP3    H154158   5.050   0.884   6.618 -1.4424  0.4076  2.0054
10889TIP3    H254159   5.172   0.890   6.707  1.2802 -0.2555 -1.4538
10890TIP3   OH254160   6.495   4.184  15.573  0.1407  0.0708  0.2746
10890TIP3    H154161   6.429   4.120  15.545 -1.5998  3.0449 -3.2554
10890TIP3    H254162   6.448   4.242  15.633  0.8255 -0.0850  0.9871
10891TIP3   OH254163   0.726   4.578  15.371 -0.6048  0.0652  0.4148
10891TIP3    H154164   0.819   4.572  15.394 -0.0738  1.3088 -1.1900
10891TIP3    H254165   0.689   4.637  15.436  0.2958  1.5308 -0.3639
10892TIP3   OH254166   6.576   4.543   0.211  0.1545 -0.0567 -0.1278
10892TIP3    H154167   6.654   4.573   0.257 -0.1422  3.4861 -1.6083
10892TIP3    H254168   6.504   4.560   0.272  0.2515 -0.6056  0.1460
10893TIP3   OH254169   5.750   2.559  14.109 -0.3905  0.0530 -0.0437
10893TIP3    H154170   5.809   2.621  14.153 -1.6298  0.3245  1.3319
10893TIP3    H254171   5.796   2.476  14.113  0.3460  0.4584  0.0999
10894TIP3   OH254172   3.305   1.991   0.260  0.1818 -0.3771  0.1719
10894TIP3    H154173   3.353   2.024   0.185 -0.9810 -3.1673 -1.9745
10894TIP3    H254174   3.362   1.925   0.299 -0.7198 -1.7796 -0.7702
10895TIP3   OH254175   6.328   5.396  15.742  0.6032  0.0873 -0.4292
10895TIP3    H154176   6.407   5.341  15.748  1.1052  0.8388 -0.0072
10895TIP3    H254177   6.289   5.373  15.658  1.8054  0.4215 -1.0921
10896TIP3   OH254178   2.203   4.265  15.640 -0.0876  0.1458  0.2147
10896TIP3    H154179   2.272   4.218  15.685  0.3420  1.1716  0.6737
10896TIP3    H254180   2.190   4.344  15.693 -0.8177  0.5119 -0.4879
10897TIP3   OH254181   6.311   0.455   3.218 -0.2014  0.0400 -0.6936
10897TIP3    H154182   6.370   0.519   3.179 -1.5640  1.1646 -1.0087
10897TIP3    H254183   6.348   0.370   3.194  0.8194  0.7025 -1.5741
10898TIP3   OH254184   2.317   3.038  13.891 -0.0626  0.5312 -0.0613
10898TIP3    H154185   2.233   3.082  13.898  1.1064  2.6450  2.5115
10898TIP3    H254186   2.381   3.109  13.895  1.8713 -1.1604  0.8421
10899TIP3   OH254187   4.094   2.254   3.784  0.2081 -0.4696  0.5249
10899TIP3    H154188   4.018   2.241   3.727  0.7594 -2.3518  0.1385
10899TIP3    H254189   4.100   2.173   3.836  1.3065  0.0837  1.3065
10900TIP3   OH254190   3.871   1.825  13.301 -1.1506 -0.1924 -0.1404
10900TIP3    H154191   3.939   1.785  13.355 -0.4710  0.8433 -0.1939
10900TIP3    H254192   3.827   1.886  13.361 -0.9969  0.2824 -0.5051
10901TIP3   OH254193   3.529   2.187  13.078 -0.9540 -0.1189 -0.4098
10901TIP3    H154194   3.522   2.264  13.134  0.4537  0.3899 -0.8904
10901TIP3    H254195   3.621   2.185  13.052 -0.3671 -3.2676  1.4482
10902TIP3   OH254196   4.858   0.911   2.284  0.2053 -0.1666  0.1663
10902TIP3    H154197   4.915   0.838   2.310  0.2475 -0.8011 -1.5507
10902TIP3    H254198   4.874   0.922   2.190 -0.9674  1.0228  0.0682
10903TIP3   OH254199   0.174   4.913   2.499  0.0100 -0.4326  0.0663
10903TIP3    H154200   0.143   5.001   2.519 -0.3899 -0.4106 -0.6322
10903TIP3    H254201   0.266   4.914   2.526  0.0784  0.2761 -0.1590
10904TIP3   OH254202   1.868   5.832   6.258  0.0108  0.8933  0.8777
10904TIP3    H154203   1.790   5.818   6.312  0.1746  1.1945  1.2045
10904TIP3    H254204   1.881   5.927   6.261 -0.2606  0.9656 -0.1046
10905TIP3   OH254205   1.410   1.137   3.031 -0.4808 -0.3802 -0.4271
10905TIP3    H154206   1.396   1.156   2.938 -0.8377 -1.3158 -0.5766
10905TIP3    H254207   1.327   1.163   3.073 -0.7096 -0.9497 -0.5268
10906TIP3   OH254208   1.383   1.455   1.651 -0.7967 -0.4861  0.2885
10906TIP3    H154209   1.455   1.431   1.709  0.5032  1.7214 -0.3090
10906TIP3    H254210   1.422   1.460   1.564 -1.5920  0.9451 -0.0206
10907TIP3   OH254211   5.159   0.007   4.010  0.4133  0.2939 -0.7973
10907TIP3    H154212   5.083  -0.049   4.024  1.5983 -0.8788  1.4450
10907TIP3    H254213   5.128   0.095   4.028 -0.0361 -0.3617  2.0794
10908TIP3   OH254214   6.118   1.920   1.829  0.5834 -0.1056  0.3521
10908TIP3    H154215   6.042   1.930   1.887  0.0048  0.6627 -0.5205
10908TIP3    H254216   6.183   1.980   1.864 -0.3601  1.6147 -0.7342
10909TIP3   OH254217   2.302   6.480   5.407  0.0961 -0.7260  0.0104
10909TIP3    H154218   2.338   6.430   5.480 -0.1728  1.8001  2.0416
10909TIP3    H254219   2.225   6.430   5.379  2.5978 -3.9958 -1.6002
10910TIP3   OH254220   5.143   5.199   0.335 -0.0375  0.3664 -0.7081
10910TIP3    H154221   5.171   5.227   0.248 -4.0002  1.0251 -2.0004
10910TIP3    H254222   5.214   5.225   0.393  1.6429  2.3051 -3.4061
10911TIP3   OH254223   5.596   5.324   1.183 -0.1118  0.3097  0.4473
10911TIP3    H154224   5.610   5.258   1.115  1.5414  0.6489  0.4163
10911TIP3    H254225   5.551   5.277   1.253  0.6012 -0.7323  0.2333
10912TIP3   OH254226   4.443   6.305  13.649  0.9124  0.0948  0.6507
10912TIP3    H154227   4.406   6.241  13.711  1.9718  0.2481  1.4777
10912TIP3    H254228   4.385   6.381  13.656 -1.0470 -1.1189 -1.1958
10913TIP3   OH254229   1.815   0.433   6.217 -0.0961  0.0078 -0.2121
10913TIP3    H154230   1.877   0.468   6.153 -0.1790 -1.7195 -1.3250
10913TIP3    H254231   1.729   0.458   6.184 -0.1694 -1.3283 -1.1467
10914TIP3   OH254232   2.047   0.824   3.016  0.0394  0.1850  0.2611
10914TIP3    H154233   2.104   0.891   2.979 -0.4743  0.6532  0.2963
10914TIP3    H254234   2.082   0.808   3.104  0.0593  0.5488  0.3229
10915TIP3   OH254235   2.356   6.251   0.321 -0.3410  0.2002  0.3343
10915TIP3    H154236   2.290   6.314   0.292  0.2659  1.5906  1.7602
10915TIP3    H254237   2.440   6.298   0.311  0.0373  0.1118  2.4420
10916TIP3   OH254238   5.116   3.926  14.341 -0.0831  0.0832  0.4099
10916TIP3    H154239   5.081   3.932  14.430  0.8059 -2.0939  0.9782
10916TIP3    H254240   5.077   3.999  14.294  0.2588  1.9584  2.8640
10917TIP3   OH254241   1.977   4.175   5.851 -0.3121  0.0896 -0.0010
10917TIP3    H154242   2.039   4.180   5.778  2.5598 -0.3360  2.2042
10917TIP3    H254243   1.989   4.258   5.898  1.0157 -1.2167  2.1669
10918TIP3   OH254244   3.553   5.453   0.076  0.0404  0.4887 -0.6564
10918TIP3    H154245   3.576   5.510   0.003  3.5895 -0.6595 -0.6285
10918TIP3    H254246   3.540   5.512   0.150 -0.0782  1.4325 -1.4078
10919TIP3   OH254247   4.239   1.642   0.267  0.2623  0.0591  0.0161
10919TIP3    H154248   4.234   1.736   0.286  2.6747  0.1647  0.4938
10919TIP3    H254249   4.154   1.608   0.292 -0.2365  1.9118  1.0627
10920TIP3   OH254250   1.059   5.385  16.814  0.1900  0.2028 -0.7555
10920TIP3    H154251   1.060   5.429  16.899  0.7544 -1.1417 -0.0308
10920TIP3    H254252   1.082   5.453  16.751 -0.8255  1.3684  0.0801
10921TIP3   OH254253   6.693   4.713   4.522 -0.1901 -0.5205  0.0938
10921TIP3    H154254   6.720   4.626   4.549  1.5275  0.0867  0.4267
10921TIP3    H254255   6.775   4.759   4.502 -1.0262  1.1193  0.2477
10922TIP3   OH254256   6.113   5.462   3.336 -0.2466 -0.5555  0.1018
10922TIP3    H154257   6.071   5.539   3.374  0.7670 -0.2919  0.7192
10922TIP3    H254258   6.206   5.486   3.328 -0.1975 -1.0926 -1.3012
10923TIP3   OH254259   2.179   0.523  14.948 -0.3177 -0.3887 -0.5258
10923TIP3    H154260   2.258   0.562  14.911  0.6372 -0.7790  1.0159
10923TIP3    H254261   2.116   0.595  14.954  0.2831  0.1647 -0.7780
10924TIP3   OH254262   1.536   6.565   4.631 -0.6471 -0.3573 -0.6669
10924TIP3    H154263   1.469   6.634   4.629 -0.0338  0.2874  0.2941
10924TIP3    H254264   1.488   6.485   4.609 -1.5321  0.2394 -0.9895
10925TIP3   OH254265   3.795   5.237  12.867 -0.4217  0.0063 -0.3599
10925TIP3    H154266   3.780   5.235  12.961 -1.3723  0.9421 -0.4770
10925TIP3    H254267   3.847   5.158  12.849 -0.5654 -0.3813  0.8787
10926TIP3   OH254268   1.026   0.212   1.246  0.4928  0.0285 -0.3479
10926TIP3    H154269   1.044   0.206   1.340  0.4443 -0.7459 -0.3745
10926TIP3    H254270   1.048   0.124   1.213 -0.4728 -0.0195 -0.8808
10927TIP3   OH254271   2.013   2.397  14.036  0.0695  0.2206  0.1257
10927TIP3    H154272   1.999   2.400  14.130 -1.8662 -0.2762 -0.1096
10927TIP3    H254273   2.099   2.355  14.026 -0.1059 -0.5736  1.6501
10928TIP3   OH254274   0.749   0.980   0.570  0.1393  0.6149  0.3945
10928TIP3    H154275   0.715   1.041   0.635  0.7274  0.0060  1.2877
10928TIP3    H254276   0.673   0.929   0.542 -0.1308  0.9452  0.5223
10929TIP3   OH254277   3.785   2.867  14.906  0.4211 -0.1278 -0.3142
10929TIP3    H154278   3.805   2.945  14.855 -0.6772  1.4232  1.5106
10929TIP3    H254279   3.857   2.858  14.968  0.0443  0.0631  0.1617
10930TIP3   OH254280   3.715   4.017   1.438  0.2851 -0.3774 -0.2784
10930TIP3    H154281   3.672   4.081   1.381  0.0446  1.0690  1.4626
10930TIP3    H254282   3.643   3.963   1.472  0.3577 -0.8024 -0.7812
10931TIP3   OH254283   2.071   6.007  14.044 -0.5133  0.1780 -0.7810
10931TIP3    H154284   2.146   6.064  14.025  0.0640 -0.5573 -0.7497
10931TIP3    H254285   2.012   6.062  14.095 -0.3504  1.0048 -1.4696
10932TIP3   OH254286   2.637   3.109   4.726  0.1862  0.4793 -0.0264
10932TIP3    H154287   2.659   3.024   4.763  0.3506  0.8510  0.7515
10932TIP3    H254288   2.554   3.095   4.681 -0.4426  0.1912  1.1869
10933TIP3   OH254289   1.416   4.367  14.609 -0.0806  0.5828 -0.4541
10933TIP3    H154290   1.394   4.438  14.670 -1.4506 -0.7698  0.7323
10933TIP3    H254291   1.339   4.361  14.552  0.5409  0.8242 -1.3259
10934TIP3   OH254292   4.860   4.172  14.952 -0.2384  0.2587  0.0760
10934TIP3    H154293   4.877   4.195  14.861  1.1731 -0.8436  0.0267
10934TIP3    H254294   4.830   4.081  14.948 -0.0869  0.1764  0.7057
10935TIP3   OH254295   2.370   4.109   0.653 -0.8590 -0.1681  0.2783
10935TIP3    H154296   2.392   4.021   0.682 -0.9406 -0.2128  0.2083
10935TIP3    H254297   2.446   4.137   0.601 -1.0794 -0.4279 -0.1935
10936TIP3   OH254298   4.314   4.270   4.507  0.1478  0.0884  0.4041
10936TIP3    H154299   4.335   4.341   4.568  1.4015 -0.3840  0.5522
10936TIP3    H254300   4.347   4.301   4.423  1.0771 -0.4701  0.5481
10937TIP3   OH254301   0.124   6.002  14.410 -0.2863  0.1783 -0.0959
10937TIP3    H154302   0.054   5.938  14.415 -0.4545  0.4375  1.2060
10937TIP3    H254303   0.113   6.044  14.325 -1.0475 -0.5232 -0.3506
10938TIP3   OH254304   2.227   3.353  16.448 -0.4301  0.4245 -0.0999
10938TIP3    H154305   2.171   3.285  16.411 -1.3948  0.2184  1.6270
10938TIP3    H254306   2.192   3.435  16.413 -0.2814  0.1424 -0.9231
10939TIP3   OH254307   6.425   1.912  15.547  0.0254  0.2449 -0.4056
10939TIP3    H154308   6.404   1.953  15.463 -1.1796  0.3058 -0.0823
10939TIP3    H254309   6.351   1.853  15.564  0.6832 -0.4278  0.1940
10940TIP3   OH254310   1.666   4.413   2.611 -0.4842  0.4356 -0.1021
10940TIP3    H154311   1.656   4.508   2.618  1.3344  0.5928  0.8298
10940TIP3    H254312   1.655   4.394   2.517  3.1958  2.1575 -1.0650
10941TIP3   OH254313   1.893   5.471   3.139 -0.8578  0.3701  0.6063
10941TIP3    H154314   1.874   5.484   3.046 -0.6544  0.1603  0.5349
10941TIP3    H254315   1.809   5.485   3.182 -1.2206 -0.6750  0.2802
10942TIP3   OH254316   0.767   1.567  15.541 -0.2990 -0.2899 -0.4248
10942TIP3    H154317   0.711   1.644  15.555 -1.6022 -0.9837 -1.6282
10942TIP3    H254318   0.832   1.573  15.611 -1.5985  0.7971  0.7781
10943TIP3   OH254319   3.335   2.742   4.217 -0.2033  0.3608 -0.1214
10943TIP3    H154320   3.353   2.719   4.308 -1.4320 -3.9806 -0.7506
10943TIP3    H254321   3.243   2.769   4.217 -0.7828 -1.5032 -0.2604
10944TIP3   OH254322   5.429   2.023  15.303 -0.0012 -0.0239  0.8171
10944TIP3    H154323   5.510   2.011  15.253 -1.1044  1.5476 -1.5192
10944TIP3    H254324   5.374   1.948  15.278 -0.2837  0.3840  0.1863
10945TIP3   OH254325   2.310   1.361  13.310  0.3075 -0.2313 -0.5395
10945TIP3    H154326   2.233   1.324  13.354 -0.9981  0.2698 -2.3061
10945TIP3    H254327   2.352   1.414  13.378 -1.4515  0.2757  0.2278
10946TIP3   OH254328   3.021   4.010   4.340  0.8256  0.0482 -0.2121
10946TIP3    H154329   3.057   3.953   4.271  1.3769  0.1700 -0.0323
10946TIP3    H254330   3.097   4.056   4.375  0.6464 -0.5014  0.9370
10947TIP3   OH254331   3.912   1.434   5.231 -0.1015 -0.0442  0.5222
10947TIP3    H154332   3.986   1.382   5.263 -2.2260 -2.8389  1.3437
10947TIP3    H254333   3.925   1.438   5.136  1.0724 -0.5193  0.6375
10948TIP3   OH254334   4.357   3.638  15.739  0.7117 -0.3047 -0.4784
10948TIP3    H154335   4.360   3.727  15.773 -1.7797  0.0029 -0.8981
10948TIP3    H254336   4.275   3.602  15.773  1.3470 -2.2200 -0.8583
10949TIP3   OH254337   1.635   6.785   5.456  0.0551 -0.1149 -0.5965
10949TIP3    H154338   1.597   6.872   5.445 -1.7412 -0.7449  0.2266
10949TIP3    H254339   1.581   6.728   5.402  0.6118 -0.8704 -0.3805
10950TIP3   OH254340   1.121   0.459   2.904  0.2012 -0.2816 -0.1905
10950TIP3    H154341   1.157   0.392   2.846  1.1700 -0.7618  0.9281
10950TIP3    H254342   1.135   0.542   2.858  1.3342 -0.6169 -0.4660
10951TIP3   OH254343   2.920   5.535  10.658  0.3429 -0.4342 -0.5903
10951TIP3    H154344   2.978   5.491  10.720 -0.3904 -1.5023 -0.6364
10951TIP3    H254345   2.841   5.481  10.657 -0.0030  0.0692 -1.7734
10952TIP3   OH254346   3.992   1.832  11.428 -0.2899 -0.0369  0.6897
10952TIP3    H154347   3.902   1.838  11.396 -0.1250  2.0894  0.4824
10952TIP3    H254348   3.987   1.774  11.504 -1.4541 -1.5469 -0.4883
10953TIP3   OH254349   0.991   0.705   4.403 -0.3345  0.6350  0.1396
10953TIP3    H154350   0.999   0.612   4.427 -2.1717  0.2608 -0.5556
10953TIP3    H254351   0.899   0.716   4.379  0.2150  2.2284 -1.4698
10954TIP3   OH254352   1.106   5.606   6.589  0.4647 -0.3463  0.2100
10954TIP3    H154353   1.012   5.593   6.582  0.5958 -1.2958  0.0610
10954TIP3    H254354   1.121   5.694   6.554 -0.4648  0.1895  1.1129
10955TIP3   OH254355   0.484   1.299   3.403 -0.4989 -0.3076 -0.3628
10955TIP3    H154356   0.512   1.256   3.323  0.0203 -0.1933 -0.2456
10955TIP3    H254357   0.419   1.240   3.441 -1.5521  0.1461 -1.4060
10956TIP3   OH254358   3.718   4.841   0.038  0.4288  0.2442 -0.5513
10956TIP3    H154359   3.649   4.875  -0.019 -2.5070 -1.8130  1.5483
10956TIP3    H254360   3.734   4.752   0.006  1.7503  0.5071 -0.6652
10957TIP3   OH254361   5.336   5.349   3.131  0.4329 -0.6412  0.0129
10957TIP3    H154362   5.419   5.361   3.178  0.3443  2.1425 -0.3710
10957TIP3    H254363   5.363   5.332   3.040  0.5483 -1.6181  0.2108
10958TIP3   OH254364   0.650   1.051  16.000  0.1229 -0.8258 -0.5112
10958TIP3    H154365   0.659   1.103  16.080 -0.8874 -1.2388 -0.1131
10958TIP3    H254366   0.736   1.055  15.959  1.0775 -1.6901  1.2748
10959TIP3   OH254367   6.835   5.050   6.475 -0.7172 -0.7547  0.3751
10959TIP3    H154368   6.830   4.988   6.401  4.0240 -1.1336  0.0073
10959TIP3    H254369   6.808   5.134   6.438 -2.3712 -1.6671 -0.5873
10960TIP3   OH254370   3.484   0.321  11.597 -0.3367 -0.3083  0.0177
10960TIP3    H154371   3.464   0.275  11.516  0.3618 -1.8555  0.6874
10960TIP3    H254372   3.539   0.260  11.647 -0.8905  0.5222  1.7387
10961TIP3   OH254373   2.175   2.159   2.581 -0.2066  0.2252  0.2941
10961TIP3    H154374   2.250   2.100   2.587 -0.0567  0.5071  1.4878
10961TIP3    H254375   2.103   2.112   2.624  0.1240  1.1958  1.9940
10962TIP3   OH254376   1.476   2.964   6.481  0.4152  0.4162 -0.0408
10962TIP3    H154377   1.558   2.994   6.443 -0.6942  1.4797 -1.7500
10962TIP3    H254378   1.418   3.040   6.474 -1.6631 -1.2075 -1.8532
10963TIP3   OH254379   6.653   4.918   1.337 -0.1080  0.0514  0.4776
10963TIP3    H154380   6.692   4.922   1.249  0.3597  1.8293  0.7172
10963TIP3    H254381   6.564   4.887   1.322  0.4876 -1.3274 -0.4117
10964TIP3   OH254382   5.684   2.170   1.074 -0.1657 -0.2283  0.3352
10964TIP3    H154383   5.726   2.085   1.061  2.4475  1.2332 -1.8789
10964TIP3    H254384   5.748   2.222   1.122 -0.5600  1.2637 -0.6784
10965TIP3   OH254385   3.785   1.446   2.225 -0.3080 -0.1934 -0.1087
10965TIP3    H154386   3.854   1.505   2.255 -0.5274 -0.0730  0.1620
10965TIP3    H254387   3.739   1.496   2.157 -1.5122  0.5978  1.2257
10966TIP3   OH254388   6.362   3.544   2.321 -0.1565 -0.3876 -0.2209
10966TIP3    H154389   6.341   3.502   2.404  1.5921 -1.8728 -0.4706
10966TIP3    H254390   6.392   3.473   2.264 -0.0231  0.7828 -1.6901
10967TIP3   OH254391   1.683   6.742  15.552 -0.1187 -0.5444  0.3984
10967TIP3    H154392   1.695   6.674  15.619 -1.2075 -0.9093  0.2428
10967TIP3    H254393   1.598   6.781  15.573  0.0531  0.1143 -0.0973
10968TIP3   OH254394   0.631   3.456   3.743  0.2712  0.3029  0.1707
10968TIP3    H154395   0.648   3.520   3.812  2.0639 -0.4319  0.4764
10968TIP3    H254396   0.714   3.410   3.731 -0.4855 -0.8280 -1.2256
10969TIP3   OH254397   5.954   0.699  13.087  0.0364 -0.2272 -0.0398
10969TIP3    H154398   5.979   0.622  13.036 -2.9709 -1.5710  0.2956
10969TIP3    H254399   5.905   0.754  13.025 -0.2605  0.0229  0.4117
10970TIP3   OH254400   5.162   0.423  10.887 -0.0832  0.6259  0.1192
10970TIP3    H154401   5.075   0.385  10.875 -0.6043  1.8862 -0.2559
10970TIP3    H254402   5.185   0.457  10.800  1.5357 -1.1446 -0.2204
10971TIP3   OH254403   0.616   5.577  11.136  0.3495 -0.5498 -0.5158
10971TIP3    H154404   0.675   5.522  11.187 -0.0820 -0.2864  0.2895
10971TIP3    H254405   0.543   5.595  11.195  0.7437  1.3599 -0.5446
10972TIP3   OH254406   0.539   2.667   1.246  0.1722  0.6502  0.1160
10972TIP3    H154407   0.499   2.588   1.282 -1.2424  0.4314 -1.8145
10972TIP3    H254408   0.511   2.737   1.305  1.5789 -0.2476  1.9469
10973TIP3   OH254409   4.995   3.919  13.464 -0.5343  1.1458 -0.0885
10973TIP3    H154410   4.990   4.008  13.499 -1.4976  0.2938  2.1298
10973TIP3    H254411   5.062   3.876  13.517 -1.2366  0.1103 -0.0132
10974TIP3   OH254412   1.277   1.711  11.543  0.5235  0.0746  0.2297
10974TIP3    H154413   1.215   1.709  11.616  1.8345 -1.2132  1.3766
10974TIP3    H254414   1.258   1.631  11.494 -0.7738  1.2455 -1.2702
10975TIP3   OH254415   3.859   4.914   0.659 -0.7885  0.6289  0.1406
10975TIP3    H154416   3.797   4.851   0.696 -0.2255  0.8397  1.4865
10975TIP3    H254417   3.910   4.863   0.596 -0.0690 -0.4012  1.5071
10976TIP3   OH254418   2.012   1.094  13.209 -0.1236  0.6601  0.1610
10976TIP3    H154419   2.040   1.174  13.164  0.7373 -0.0332 -0.5514
10976TIP3    H254420   1.989   1.033  13.138  0.5224 -0.1870  0.6726
10977TIP3   OH254421   2.468   3.828  12.718  0.2429 -0.2485  0.3929
10977TIP3    H154422   2.483   3.897  12.653 -2.9225  0.3086  0.0631
10977TIP3    H254423   2.547   3.828  12.772  0.9142  2.7636 -0.3864
10978TIP3   OH254424   5.972   0.694   4.783  0.0082 -0.2052 -0.5071
10978TIP3    H154425   5.981   0.609   4.827  1.3041  0.2367  0.1309
10978TIP3    H254426   6.042   0.747   4.820  0.7701  0.3866 -2.6804
10979TIP3   OH254427   4.402   4.114   2.811  0.0920  0.3436  0.4450
10979TIP3    H154428   4.406   4.102   2.906  1.8189  0.0654  0.3745
10979TIP3    H254429   4.410   4.209   2.798  0.4626  0.3269  0.5559
10980TIP3   OH254430   5.223   6.620  13.699 -0.0075 -0.1752  0.0498
10980TIP3    H154431   5.203   6.692  13.640 -1.7574 -0.0663  0.7164
10980TIP3    H254432   5.140   6.599  13.740  0.9022 -1.1250  1.5010
10981TIP3   OH254433   5.356   0.035   6.699 -0.0051  0.3947 -0.6941
10981TIP3    H154434   5.262   0.021   6.703  0.0187  0.4452  0.2500
10981TIP3    H254435   5.394  -0.046   6.733  0.2532  0.8618  0.1556
10982TIP3   OH254436   3.366   0.769   2.226 -0.3427 -0.1024 -0.4321
10982TIP3    H154437   3.335   0.859   2.213 -1.9893 -0.4934  0.4590
10982TIP3    H254438   3.438   0.759   2.165 -0.1701  1.8084 -0.5955
10983TIP3   OH254439   6.617   1.733  14.472  0.3155  0.3174 -0.0727
10983TIP3    H154440   6.652   1.644  14.481 -2.2701 -0.8269 -0.3767
10983TIP3    H254441   6.526   1.720  14.445  0.0604  3.0981 -0.8535
10984TIP3   OH254442   2.837   5.966  16.384 -0.1483 -0.5576  0.0740
10984TIP3    H154443   2.770   5.902  16.363  0.5422 -1.6627  1.0527
10984TIP3    H254444   2.803   6.012  16.461 -0.2782 -0.3215 -0.1240
10985TIP3   OH254445   2.289   1.500  14.344 -0.8910 -0.0276 -0.4300
10985TIP3    H154446   2.244   1.467  14.422 -0.4525  0.5295  0.0709
10985TIP3    H254447   2.265   1.439  14.275 -0.6142 -1.0370  0.3296
10986TIP3   OH254448   5.534   2.732   0.632  1.0809  0.3500  0.0713
10986TIP3    H154449   5.483   2.695   0.704  0.6615 -0.2447 -0.5191
10986TIP3    H254450   5.568   2.814   0.667  2.4486 -0.7929  1.5705
10987TIP3   OH254451   0.158   3.253  16.979  0.2161  0.2084 -0.5574
10987TIP3    H154452   0.200   3.339  16.974  0.0513  0.3193 -0.0735
10987TIP3    H254453   0.209   3.206  17.045 -1.4439  0.9312  1.3227
10988TIP3   OH254454   0.122   3.151   5.611  0.3414  0.4513  0.3917
10988TIP3    H154455   0.095   3.071   5.566 -2.0456  0.3269  1.8856
10988TIP3    H254456   0.161   3.205   5.542 -0.3776 -0.9403 -1.1724
10989TIP3   OH254457   6.307   1.606  12.199  0.2819  0.1830 -0.4232
10989TIP3    H154458   6.248   1.542  12.159 -0.1632 -0.5898  1.3284
10989TIP3    H254459   6.256   1.687  12.202 -0.3520 -0.2304  0.2083
10990TIP3   OH254460   1.614   1.015  11.604 -0.2415 -0.2877  0.1534
10990TIP3    H154461   1.553   0.942  11.601  0.2088 -0.7133  0.8519
10990TIP3    H254462   1.595   1.066  11.526 -0.5030 -1.2074 -0.4061
10991TIP3   OH254463   3.394   0.410   3.090 -0.4759  0.7303 -0.0704
10991TIP3    H154464   3.431   0.402   3.178  0.3214  0.9657 -0.3651
10991TIP3    H254465   3.463   0.376   3.033 -1.8918 -1.5997 -0.4728
10992TIP3   OH254466   2.940   5.873   5.816  0.4750 -0.3071 -0.4531
10992TIP3    H154467   2.847   5.894   5.811 -0.0627 -2.4785 -0.8630
10992TIP3    H254468   2.985   5.952   5.787 -1.2369  0.7933 -0.2250
10993TIP3   OH254469   6.286   6.765   2.845  0.5052  0.2087  0.2118
10993TIP3    H154470   6.376   6.759   2.877  0.1721 -2.0433  0.9136
10993TIP3    H254471   6.271   6.682   2.801 -1.2232  0.5675  0.0641
10994TIP3   OH254472   6.316   5.454   1.518  0.1626 -0.2691 -0.2132
10994TIP3    H154473   6.222   5.465   1.531  0.1970 -1.1091  0.9776
10994TIP3    H254474   6.342   5.526   1.461 -1.2911 -0.3294 -0.9794
10995TIP3   OH254475   4.677   3.763   2.231  0.5785  0.6211  0.3329
10995TIP3    H154476   4.665   3.850   2.269  0.0738 -0.0443  1.7701
10995TIP3    H254477   4.691   3.779   2.138 -4.5158  2.0315 -0.4878
10996TIP3   OH254478   0.474   5.803   2.053 -0.2675  0.3197 -0.0542
10996TIP3    H154479   0.416   5.863   2.100 -0.1945  1.0126 -0.8278
10996TIP3    H254480   0.530   5.766   2.121 -0.5830  0.8227  0.4882
10997TIP3   OH254481   3.319   2.106   5.016 -0.1064  0.2177  0.7168
10997TIP3    H154482   3.323   2.012   5.001  0.5401  0.4983 -1.0453
10997TIP3    H254483   3.295   2.114   5.109  1.2496 -1.6681  1.2818
10998TIP3   OH254484   4.645   4.439   1.557 -0.0953  0.0674  0.3002
10998TIP3    H154485   4.598   4.507   1.510  0.0790 -0.7098 -1.0515
10998TIP3    H254486   4.588   4.362   1.552 -0.4504  0.1696  2.1056
10999TIP3   OH254487   2.591   5.118  13.603 -0.1530 -0.1468  0.5458
10999TIP3    H154488   2.573   5.070  13.522  0.3199 -0.8197  0.8321
10999TIP3    H254489   2.678   5.157  13.589 -0.8970  1.3965 -0.0335
11000TIP3   OH254490   6.506   6.388   1.910 -0.0300 -0.2134  0.5129
11000TIP3    H154491   6.511   6.459   1.974 -1.1437 -0.9189  1.4362
11000TIP3    H254492   6.521   6.308   1.961  3.3117 -0.5966 -0.8469
11001TIP3   OH254493   5.101   1.807  12.415  0.2573  0.9024  0.2369
11001TIP3    H154494   5.079   1.881  12.472  0.9862 -0.5610  2.5405
11001TIP3    H254495   5.025   1.749  12.421  0.2620  0.8218 -0.4470
11002TIP3   OH254496   0.763   4.259   0.895 -0.0717 -0.0831  0.0453
11002TIP3    H154497   0.735   4.220   0.978  0.1492 -0.9132 -0.2595
11002TIP3    H254498   0.755   4.354   0.909  1.7141 -0.1254  1.6347
11003TIP3   OH254499   6.838   2.773  12.782 -0.6267 -0.2160  0.0684
11003TIP3    H154500   6.910   2.786  12.843 -0.8592 -1.8239  0.7456
11003TIP3    H254501   6.878   2.733  12.705 -0.7277 -0.7465  0.2879
11004TIP3   OH254502   1.445   5.836  11.746  0.3555 -0.2006 -0.4574
11004TIP3    H154503   1.374   5.820  11.807  0.0939  0.1935 -0.6532
11004TIP3    H254504   1.407   5.819  11.660  0.8404 -1.1781 -0.4923
11005TIP3   OH254505   0.939   0.966  15.858  0.2216 -0.4113 -0.2698
11005TIP3    H154506   0.878   1.008  15.797 -0.2177 -1.0340 -0.2672
11005TIP3    H254507   1.026   0.993  15.828 -0.0178 -0.2378 -0.8158
11006TIP3   OH254508   4.649   6.695  14.012 -0.0734  0.0960  0.1315
11006TIP3    H154509   4.606   6.693  14.098  0.2147  2.5415  0.3955
11006TIP3    H254510   4.670   6.787  13.998  1.6954 -0.5257 -1.6924
11007TIP3   OH254511   0.514   4.797  13.559 -0.0528 -0.1884  0.3919
11007TIP3    H154512   0.607   4.800  13.580  0.2662  1.7054 -1.0062
11007TIP3    H254513   0.483   4.887  13.572 -1.8456 -0.8945  1.3657
11008TIP3   OH254514   1.906   5.539  16.341  0.3180 -0.4251  0.4784
11008TIP3    H154515   1.894   5.467  16.279 -0.4743  0.8096 -0.8517
11008TIP3    H254516   1.948   5.608  16.290 -1.1491  0.9519  1.0522
11009TIP3   OH254517   2.301   4.069   3.959 -0.0660 -0.1866 -0.0496
11009TIP3    H154518   2.258   4.106   4.036  0.3152 -0.9917  0.5696
11009TIP3    H254519   2.275   4.126   3.887 -1.5478 -0.1953  0.4357
11010TIP3   OH254520   6.533   0.673   4.178  0.4604 -0.1406 -0.1513
11010TIP3    H154521   6.492   0.621   4.109  0.7811  2.2518 -2.2756
11010TIP3    H254522   6.624   0.645   4.178  0.4047 -0.3297 -0.5074
11011TIP3   OH254523   6.133   6.538   5.959 -0.5356 -0.4849  0.2510
11011TIP3    H154524   6.051   6.497   5.932 -1.1986 -0.0483  1.5296
11011TIP3    H254525   6.167   6.481   6.027 -1.1987  0.7645  1.6750
11012TIP3   OH254526   3.789   4.694   0.995 -0.1657 -0.0048  0.2279
11012TIP3    H154527   3.777   4.754   0.921 -0.2454  0.6199  0.7330
11012TIP3    H254528   3.719   4.719   1.056  1.3102  1.1071  1.5573
11013TIP3   OH254529   2.471   5.178  14.434  0.3951 -0.3165  0.7916
11013TIP3    H154530   2.408   5.206  14.500  2.0690  1.8328  1.5986
11013TIP3    H254531   2.426   5.192  14.350 -0.4452  0.5126  1.3633
11014TIP3   OH254532   2.882   4.335  16.619 -0.0379  0.0394  0.4527
11014TIP3    H154533   2.884   4.240  16.630  0.5578  0.2137  2.1707
11014TIP3    H254534   2.958   4.354  16.563  1.3821 -0.3059  2.1877
11015TIP3   OH254535   2.170   4.031  13.034 -0.1721  0.6408  0.4413
11015TIP3    H154536   2.220   3.983  13.101 -0.3306 -0.2331 -0.0514
11015TIP3    H254537   2.202   4.121  13.040  2.1611 -0.0427 -0.4626
11016TIP3   OH254538   1.727   3.208   4.538  0.5010  0.3634 -0.4218
11016TIP3    H154539   1.778   3.183   4.461  0.4753 -1.3538  0.0704
11016TIP3    H254540   1.643   3.163   4.526  0.7910 -0.6221  0.9708
11017TIP3   OH254541   1.895   4.479  11.005  0.2057  0.0333  0.0725
11017TIP3    H154542   1.965   4.425  10.967 -1.1612 -2.3469  0.7228
11017TIP3    H254543   1.938   4.526  11.077  2.2362  2.6838 -2.6433
11018TIP3   OH254544   2.112   4.015  15.134 -0.1867  0.2681  0.3070
11018TIP3    H154545   2.195   3.996  15.091 -0.0697 -2.4930  1.5150
11018TIP3    H254546   2.053   4.042  15.064  0.7553 -1.3014 -1.1497
11019TIP3   OH254547   4.390   0.782   1.022  0.6324  0.5061 -0.2232
11019TIP3    H154548   4.334   0.846   0.979 -1.6053 -0.2016  1.4110
11019TIP3    H254549   4.379   0.702   0.970 -0.1375  0.3013  0.2318
11020TIP3   OH254550   1.040   1.824  13.557 -0.3344 -0.1813  0.4748
11020TIP3    H154551   0.961   1.781  13.590  0.4984  0.7610  4.1852
11020TIP3    H254552   1.007   1.904  13.516 -1.4220 -0.5439  0.6041
11021TIP3   OH254553   4.554   5.577  13.687  0.5166  0.3777  0.0425
11021TIP3    H154554   4.470   5.611  13.656 -0.4528 -0.7755  1.2512
11021TIP3    H254555   4.566   5.617  13.773  1.4785  0.9233 -0.3336
11022TIP3   OH254556   0.873   3.988   1.437  0.0719  0.0743  0.3768
11022TIP3    H154557   0.881   3.957   1.528 -0.1482 -2.0985 -0.2843
11022TIP3    H254558   0.947   3.948   1.392 -1.6580 -1.6787 -1.0651
11023TIP3   OH254559   5.397   1.709   1.489 -0.3662  0.4680  0.0739
11023TIP3    H154560   5.438   1.630   1.524  0.7823  0.1239 -1.9055
11023TIP3    H254561   5.303   1.692   1.494 -0.1807 -0.3475  1.1125
11024TIP3   OH254562   3.772   1.223   4.328  0.1585 -0.3080  0.3214
11024TIP3    H154563   3.826   1.285   4.280 -0.8898  0.4019  0.0188
11024TIP3    H254564   3.780   1.249   4.420  0.5529 -0.3912  0.3121
11025TIP3   OH254565   5.777   2.159  13.345  0.0230 -0.2612 -0.2240
11025TIP3    H154566   5.756   2.165  13.438 -1.2588  1.5493 -0.5837
11025TIP3    H254567   5.734   2.079  13.316 -1.1327  0.1154  0.3786
11026TIP3   OH254568   2.084   2.805   3.991 -0.3521 -0.7236  0.1197
11026TIP3    H154569   2.167   2.829   3.950 -0.7854 -2.4215 -1.9530
11026TIP3    H254570   2.021   2.804   3.918 -2.0517 -0.1154  1.5207
11027TIP3   OH254571   0.288   3.840  11.997 -0.1011  0.3071  0.1983
11027TIP3    H154572   0.349   3.863  11.927 -0.9838  2.0302 -0.0384
11027TIP3    H254573   0.344   3.808  12.068  0.9090 -0.0477 -0.7357
11028TIP3   OH254574   0.934   4.122   1.900 -0.0555  0.2503  0.6475
11028TIP3    H154575   0.986   4.045   1.926 -0.5541 -0.3410 -0.0835
11028TIP3    H254576   0.957   4.137   1.809  1.0520  1.8180  1.1385
11029TIP3   OH254577   0.226   1.035  12.120  0.1833  0.4451  0.0648
11029TIP3    H154578   0.277   1.111  12.091 -1.3265  0.9408 -1.4138
11029TIP3    H254579   0.175   1.009  12.044 -1.5254 -0.2427  1.3684
11030TIP3   OH254580   4.385   2.105   3.167 -0.0152  0.1544 -0.1408
11030TIP3    H154581   4.477   2.086   3.182 -0.5204 -2.6407  0.0557
11030TIP3    H254582   4.383   2.197   3.140  2.6986  0.5438  0.6851
11031TIP3   OH254583   6.561   3.467  12.291  0.1032  0.3242  0.6221
11031TIP3    H154584   6.600   3.396  12.343 -0.4757 -0.3521  0.1538
11031TIP3    H254585   6.590   3.547  12.335  0.8466 -0.1913  1.1098
11032TIP3   OH254586   1.873   5.623  10.397  0.0895 -0.5366 -0.1318
11032TIP3    H154587   1.920   5.706  10.385  0.7698 -0.9319 -0.2807
11032TIP3    H254588   1.791   5.635  10.349 -0.6574  0.7002  1.3584
11033TIP3   OH254589   0.413   6.579   5.183  0.3648  0.6374 -0.0300
11033TIP3    H154590   0.418   6.510   5.250 -3.6120 -0.5055 -0.6496
11033TIP3    H254591   0.399   6.532   5.101  0.8396  2.1405 -1.0149
11034TIP3   OH254592   6.749   3.441   4.614 -0.1286  0.0467  0.2701
11034TIP3    H154593   6.711   3.529   4.620  0.0226  0.1848 -0.6458
11034TIP3    H254594   6.833   3.454   4.569  0.2480 -0.4665  0.8187
11035TIP3   OH254595   5.031   0.979  13.476  0.1764 -0.3666  0.8648
11035TIP3    H154596   4.959   0.923  13.503  0.8398 -1.9450 -0.5269
11035TIP3    H254597   5.107   0.921  13.469  0.9920  0.7616 -0.2108
11036TIP3   OH254598   6.748   1.925   4.924  0.1556 -0.2747 -1.1167
11036TIP3    H154599   6.656   1.905   4.908 -1.3274  0.5413  4.3082
11036TIP3    H254600   6.789   1.839   4.937 -1.2323 -0.6692  1.4181
11037TIP3   OH254601   4.289   1.260   5.104 -0.2134  0.2114 -0.1730
11037TIP3    H154602   4.234   1.269   5.181  0.0333  0.5573 -0.0355
11037TIP3    H254603   4.262   1.331   5.046  0.2937  0.5741  0.0251
11038TIP3   OH254604   5.333   0.130   0.489  0.4371  0.6680 -0.0500
11038TIP3    H154605   5.288   0.084   0.560  1.4910  0.2022  0.3343
11038TIP3    H254606   5.354   0.216   0.526  2.3576 -0.1086  0.7837
11039TIP3   OH254607   0.732   5.731   1.579  0.0966 -0.0001  0.1866
11039TIP3    H154608   0.639   5.724   1.597 -0.2822  1.8345 -0.8104
11039TIP3    H254609   0.774   5.731   1.665 -0.5713 -3.0136  0.6089
11040TIP3   OH254610   1.949   2.677   0.987 -0.2285 -0.1477 -0.2084
11040TIP3    H154611   1.968   2.601   0.933 -0.1423  0.1237 -0.5597
11040TIP3    H254612   1.956   2.752   0.928  1.8402  0.3435  0.5650
11041TIP3   OH254613   1.739   1.643   3.803 -0.2887 -0.0347 -0.0283
11041TIP3    H154614   1.760   1.684   3.719 -0.3707 -0.8417 -0.4538
11041TIP3    H254615   1.768   1.552   3.793 -2.4304 -0.7886 -0.0588
11042TIP3   OH254616   1.687   1.911   4.497  0.1671 -0.2672 -0.0239
11042TIP3    H154617   1.603   1.943   4.531 -1.0364 -0.4952 -2.5622
11042TIP3    H254618   1.683   1.816   4.507  0.1208 -0.2799 -0.1671
11043TIP3   OH254619   5.808   5.402  16.564 -0.0951 -0.3744  0.2281
11043TIP3    H154620   5.745   5.333  16.589  0.4230 -1.6566 -1.7636
11043TIP3    H254621   5.870   5.404  16.637 -2.1470  0.6284  2.0480
11044TIP3   OH254622   6.501   1.736   2.212  0.0247  0.0681 -0.1389
11044TIP3    H154623   6.491   1.829   2.192  1.0647  0.8993  2.6173
11044TIP3    H254624   6.421   1.714   2.260 -1.1835 -1.1118 -2.5325
11045TIP3   OH254625   4.541   5.571  11.409  0.1155  0.7840  0.2577
11045TIP3    H154626   4.493   5.492  11.434 -2.4043  1.4674 -1.9113
11045TIP3    H254627   4.598   5.543  11.338 -0.0001  0.7155  0.1912
11046TIP3   OH254628   4.183   3.285  12.381 -0.9076  0.5255  0.0070
11046TIP3    H154629   4.194   3.202  12.335 -0.3919  1.1691 -1.0729
11046TIP3    H254630   4.266   3.330  12.371 -1.4452  1.5204 -0.1381
11047TIP3   OH254631   5.222   5.260  16.270 -0.4450 -0.8654  0.1500
11047TIP3    H154632   5.253   5.292  16.185 -0.8789  0.2295  0.3947
11047TIP3    H254633   5.164   5.187  16.248  0.5356 -1.5054 -0.4120
11048TIP3   OH254634   5.450   6.471  16.242 -0.1525  0.1528  0.1875
11048TIP3    H154635   5.361   6.466  16.277 -0.8737 -0.8391 -1.7047
11048TIP3    H254636   5.439   6.476  16.147  1.7954  0.8950 -0.0424
11049TIP3   OH254637   4.064   6.721   0.636 -0.0064  0.1331 -0.2004
11049TIP3    H154638   4.027   6.699   0.550 -1.0899 -1.4470  0.5992
11049TIP3    H254639   3.995   6.772   0.679  0.9118  1.7505 -0.5722
11050TIP3   OH254640   3.253   2.573   0.234 -0.2300 -0.0504 -0.1371
11050TIP3    H154641   3.337   2.527   0.233  0.3475  0.8523 -3.1263
11050TIP3    H254642   3.188   2.505   0.219  0.0432 -0.5792  0.9547
11051TIP3   OH254643   2.795   1.378   6.102 -0.1076 -0.4734  0.1529
11051TIP3    H154644   2.705   1.365   6.131  0.4743 -0.4732  2.0961
11051TIP3    H254645   2.835   1.429   6.172  1.0529  0.7782 -1.3445
11052TIP3   OH254646   2.379   0.826   0.574 -0.1820 -0.1592 -0.4208
11052TIP3    H154647   2.363   0.892   0.642 -0.5486 -0.1535 -0.5108
11052TIP3    H254648   2.293   0.811   0.534 -0.1751 -0.9758 -0.1469
11053TIP3   OH254649   2.490   3.625  14.997 -0.5526  0.1426 -0.5400
11053TIP3    H154650   2.516   3.638  14.905 -0.6708 -0.9165 -0.7353
11053TIP3    H254651   2.546   3.554  15.027  0.1086  1.0601  0.4956
11054TIP3   OH254652   2.575   2.123   3.278 -0.1507  0.2217 -0.0540
11054TIP3    H154653   2.607   2.192   3.220  2.5188  0.4699  1.5037
11054TIP3    H254654   2.516   2.168   3.338 -1.2589  0.3769 -1.2234
11055TIP3   OH254655   6.139   6.745   5.628 -0.8094 -0.4003  0.3604
11055TIP3    H154656   6.055   6.700   5.641 -0.8669 -0.6545 -0.7913
11055TIP3    H254657   6.167   6.769   5.716 -1.2210 -1.8959  0.9245
11056TIP3   OH254658   0.370   4.861   1.808  0.7631  0.2939 -0.0401
11056TIP3    H154659   0.450   4.834   1.851  1.6919  2.7261 -0.0837
11056TIP3    H254660   0.398   4.893   1.722 -0.7149 -1.8620 -1.4325
11057TIP3   OH254661   1.453   3.688   3.032  0.0491  0.5306 -0.3068
11057TIP3    H154662   1.411   3.656   2.952  1.5748  0.8947 -1.3051
11057TIP3    H254663   1.545   3.662   3.023  0.4060  1.2577  0.9744
11058TIP3   OH254664   2.697   0.695  14.855  0.4822 -0.0391  0.4651
11058TIP3    H154665   2.668   0.716  14.943 -0.4719 -0.7198  0.3292
11058TIP3    H254666   2.779   0.742  14.845 -0.1581  1.2779  1.1707
11059TIP3   OH254667   4.502   5.737  12.106 -0.6330  0.9353 -0.0794
11059TIP3    H154668   4.422   5.789  12.107 -0.2735  1.4873  0.3045
11059TIP3    H254669   4.572   5.800  12.091 -0.3388  0.3505 -1.2392
11060TIP3   OH254670   3.136   1.216  16.262 -0.0548  0.0347  0.2370
11060TIP3    H154671   3.099   1.142  16.214 -0.0462  0.6892 -0.8227
11060TIP3    H254672   3.222   1.230  16.222  0.1890  0.2482  0.8224
11061TIP3   OH254673   0.084   4.969  11.549  0.2571  0.0132  0.0169
11061TIP3    H154674   0.110   5.061  11.559 -0.3399 -0.0118  2.3113
11061TIP3    H254675  -0.007   4.973  11.520  0.2099  0.1576  0.1833
11062TIP3   OH254676   5.649   2.160  16.563  0.3513  0.9301 -0.0762
11062TIP3    H154677   5.596   2.239  16.564 -2.3025 -0.7034 -1.1286
11062TIP3    H254678   5.719   2.178  16.501 -2.1677  1.4040 -3.0484
11063TIP3   OH254679   5.036   2.904  11.403 -0.1029  0.2776 -0.5057
11063TIP3    H154680   5.122   2.917  11.363  0.4709 -2.3055 -0.3253
11063TIP3    H254681   4.976   2.898  11.329  0.1592  0.3597 -0.7283
11064TIP3   OH254682   3.807   5.514   3.292 -0.0004 -0.0312  0.2323
11064TIP3    H154683   3.826   5.480   3.205  2.4486  1.5672  0.0655
11064TIP3    H254684   3.815   5.438   3.350 -2.0278 -1.1917 -0.8742
11065TIP3   OH254685   5.069   1.135   3.273  0.1734 -0.5320  0.3675
11065TIP3    H154686   4.998   1.075   3.251 -0.2197  0.4372 -1.1226
11065TIP3    H254687   5.145   1.100   3.226 -0.1322  0.2907 -0.7617
11066TIP3   OH254688   1.720   5.885  11.762  0.1395  0.2189  0.0425
11066TIP3    H154689   1.624   5.887  11.765  0.1691  0.4612  2.8049
11066TIP3    H254690   1.743   5.956  11.701 -1.3976  0.0336 -0.8084
11067TIP3   OH254691   0.411   6.227  14.903 -0.3123 -0.3943  0.4496
11067TIP3    H154692   0.430   6.157  14.965  2.2864  0.7884  1.1378
11067TIP3    H254693   0.446   6.306  14.944 -2.9358  1.3337 -0.3867
11068TIP3   OH254694   4.302   1.514  13.734 -0.1011 -0.1845  0.5829
11068TIP3    H154695   4.352   1.578  13.786 -0.2118 -1.3900  2.2503
11068TIP3    H254696   4.210   1.532  13.756 -0.1327 -0.8895  1.0799
11069TIP3   OH254697   5.314   4.052  11.889 -0.2752 -0.0998 -0.0476
11069TIP3    H154698   5.355   4.037  11.804  0.3926 -0.3344  0.3091
11069TIP3    H254699   5.387   4.067  11.949 -0.6285 -1.6550  0.8333
11070TIP3   OH254700   2.352   3.588  16.840  0.1433  0.0242  0.0147
11070TIP3    H154701   2.334   3.499  16.809 -1.0721  0.3314 -0.2024
11070TIP3    H254702   2.268   3.619  16.874  0.9981  0.3695  1.9580
11071TIP3   OH254703   5.626   1.251   4.761 -0.2242  0.3942 -0.5419
11071TIP3    H154704   5.685   1.293   4.824  0.1355 -0.3032 -0.3964
11071TIP3    H254705   5.659   1.279   4.675 -1.1653  1.9372 -0.4245
11072TIP3   OH254706   0.085   6.087   4.944  0.1587  0.3915  0.3797
11072TIP3    H154707   0.004   6.131   4.968 -0.4479 -1.4972  2.1242
11072TIP3    H254708   0.084   6.005   4.994  1.3004 -1.5492 -2.4944
11073TIP3   OH254709   2.578   5.081   1.266  0.1347 -0.1788 -0.5429
11073TIP3    H154710   2.528   5.093   1.185 -1.0938 -0.4765  0.1402
11073TIP3    H254711   2.647   5.146   1.262  0.1221 -0.2185 -1.8485
11074TIP3   OH254712   4.254   5.522   6.371  0.2870  0.5025 -0.4461
11074TIP3    H154713   4.327   5.460   6.380  0.9848  0.5857 -4.0625
11074TIP3    H254714   4.294   5.608   6.376  0.0621  0.5823 -0.0328
11075TIP3   OH254715   3.039   6.638  14.843  0.2658 -0.3292  0.2163
11075TIP3    H154716   2.996   6.692  14.775  1.2614 -0.4902 -0.5705
11075TIP3    H254717   2.969   6.584  14.878 -0.1647 -0.7215 -1.1698
11076TIP3   OH254718   1.781   2.309  14.957 -0.2067 -0.3920  0.1512
11076TIP3    H154719   1.746   2.221  14.941  1.2779 -0.5868 -2.5725
11076TIP3    H254720   1.828   2.301  15.041  2.3669 -3.1057 -1.3583
11077TIP3   OH254721   1.380   0.634   5.340  0.8368  0.0784  0.1014
11077TIP3    H154722   1.403   0.697   5.408  1.1001 -0.2356  0.3033
11077TIP3    H254723   1.338   0.687   5.272  1.9847  0.6398 -0.1987
11078TIP3   OH254724   2.310   1.524   2.555  0.1536  0.2013  0.0595
11078TIP3    H154725   2.220   1.494   2.568 -0.4341  2.1331  0.6899
11078TIP3    H254726   2.358   1.485   2.629 -0.3355 -0.1144  0.2213
11079TIP3   OH254727   5.217   3.446   5.364 -0.1500  0.4724  0.2466
11079TIP3    H154728   5.304   3.453   5.324  1.0635 -2.8359  1.9417
11079TIP3    H254729   5.162   3.408   5.295  0.5703 -0.2993  0.0749
11080TIP3   OH254730   5.927   0.590   1.163  0.0002  0.3195  0.5189
11080TIP3    H154731   6.020   0.572   1.151 -0.0291  0.2334  0.4239
11080TIP3    H254732   5.888   0.504   1.177  0.1034  0.4425  1.6905
11081TIP3   OH254733   4.502   1.410   5.822 -0.9144 -0.2294  0.2671
11081TIP3    H154734   4.510   1.440   5.731  0.6378  2.6531  1.2535
11081TIP3    H254735   4.431   1.346   5.819 -0.6337 -0.5799 -3.0307
11082TIP3   OH254736   2.105   5.237  13.027 -0.1918  0.6987  0.3072
11082TIP3    H154737   2.135   5.190  13.106  0.2042  0.9838  0.3276
11082TIP3    H254738   2.020   5.196  13.006 -0.6073  1.0476  1.2485
11083TIP3   OH254739   2.892   3.975  15.788 -0.1781 -0.0323 -0.1856
11083TIP3    H154740   2.857   3.904  15.841 -0.3477 -1.0441 -1.6004
11083TIP3    H254741   2.899   3.938  15.700  0.0680  1.5953 -0.8838
11084TIP3   OH254742   6.619   1.487  15.038 -0.1810  0.4519  0.1526
11084TIP3    H154743   6.628   1.581  15.055 -0.5051  0.2789  1.3880
11084TIP3    H254744   6.532   1.477  15.000 -0.2194  0.6239  0.1961
11085TIP3   OH254745   4.534   0.870  12.959  0.2737 -0.0526 -0.5201
11085TIP3    H154746   4.578   0.926  13.023  0.5014  0.5674 -1.2032
11085TIP3    H254747   4.588   0.875  12.881 -1.7027  1.9438 -1.8900
11086TIP3   OH254748   3.744   5.701   5.444  0.6142  0.3434 -0.0305
11086TIP3    H154749   3.814   5.703   5.379 -0.9358 -1.5820 -1.9242
11086TIP3    H254750   3.755   5.617   5.488  1.4628  1.4978  2.0778
11087TIP3   OH254751   0.538   0.583  15.410  0.2545 -0.2238  0.0254
11087TIP3    H154752   0.577   0.643  15.346  2.0176 -0.6388  0.6374
11087TIP3    H254753   0.488   0.521  15.357 -0.1265  0.7273 -0.7609
11088TIP3   OH254754   3.029   0.706   3.698 -0.2756 -0.3319 -0.1752
11088TIP3    H154755   3.110   0.752   3.720 -0.7797  0.0257  1.0440
11088TIP3    H254756   3.048   0.614   3.712 -0.4074 -0.1590  1.3067
11089TIP3   OH254757   2.230   0.737  12.709  0.2279  0.8624 -0.4260
11089TIP3    H154758   2.242   0.759  12.617 -1.0097 -1.9380 -1.3778
11089TIP3    H254759   2.277   0.654  12.720  0.6091  1.2832  1.5899
11090TIP3   OH254760   4.321   3.420  12.076 -0.3094  0.1145  0.3411
11090TIP3    H154761   4.262   3.386  12.009  0.0062 -1.3844  0.7862
11090TIP3    H254762   4.311   3.515  12.070 -2.9986 -0.0594  0.6134
11091TIP3   OH254763   3.792   5.105  14.067  0.1520 -0.0902 -0.7346
11091TIP3    H154764   3.844   5.156  14.003 -0.4416  2.4561  0.6655
11091TIP3    H254765   3.720   5.163  14.090 -0.8567 -1.8166  0.6501
11092TIP3   OH254766   4.318   1.061   4.886 -0.1270  0.2213 -0.1372
11092TIP3    H154767   4.331   0.971   4.914  0.0061  0.1864 -0.3106
11092TIP3    H254768   4.313   1.111   4.967 -1.4556 -0.1079  0.0057
11093TIP3   OH254769   3.314   3.482   0.893 -0.0373  0.2076  0.1214
11093TIP3    H154770   3.290   3.494   0.985 -1.6235  0.0049 -0.2317
11093TIP3    H254771   3.311   3.571   0.856  1.5965  0.4273  0.4661
11094TIP3   OH254772   0.599   4.783  13.900 -0.3733 -0.1681  0.2120
11094TIP3    H154773   0.691   4.794  13.878 -0.7047 -1.6580 -2.2923
11094TIP3    H254774   0.577   4.859  13.954  2.7371 -0.7063  2.4785
11095TIP3   OH254775   6.329   5.109   4.590  0.3982  0.4079 -0.0822
11095TIP3    H154776   6.248   5.120   4.541  1.4483  2.7698 -1.4620
11095TIP3    H254777   6.333   5.016   4.610 -1.2285 -0.2620 -2.4830
11096TIP3   OH254778   0.380   5.353   2.869  0.6241 -0.0888  0.6564
11096TIP3    H154779   0.340   5.418   2.811 -0.4144 -2.6841 -1.7745
11096TIP3    H254780   0.305   5.307   2.908  1.2281 -1.7591 -0.0546
11097TIP3   OH254781   6.237   5.878  13.347 -0.3142  0.1176 -0.2390
11097TIP3    H154782   6.261   5.834  13.266  0.9215  0.1241  0.1004
11097TIP3    H254783   6.317   5.921  13.376 -0.9452  0.7978  0.5614
11098TIP3   OH254784   3.377   4.054  11.829 -0.1312  0.3601  0.1648
11098TIP3    H154785   3.409   4.042  11.740  0.6360  0.5839  0.4077
11098TIP3    H254786   3.287   4.083  11.818 -0.4291 -0.7450 -0.5222
11099TIP3   OH254787   1.674   0.353   2.520  0.4641 -0.6941 -0.0693
11099TIP3    H154788   1.695   0.410   2.594 -0.6855 -0.7922  0.3525
11099TIP3    H254789   1.633   0.411   2.455  0.6776 -0.7646 -0.2692
11100TIP3   OH254790   6.314   2.727   4.019  0.6257  0.2567  0.1073
11100TIP3    H154791   6.292   2.707   4.110  0.4868  2.9315  0.7648
11100TIP3    H254792   6.380   2.662   3.995  0.5260 -0.6297  2.0378
11101TIP3   OH254793   5.944   5.584   4.987 -0.2646  0.0112 -0.1265
11101TIP3    H154794   5.984   5.659   5.032  0.1215 -1.5589  2.3479
11101TIP3    H254795   6.011   5.516   4.989  0.1417  0.0573 -4.1011
11102TIP3   OH254796   6.227   6.652   1.750  0.5251  0.0257 -0.3537
11102TIP3    H154797   6.168   6.619   1.819 -0.4904  0.9530 -0.7440
11102TIP3    H254798   6.287   6.710   1.796 -0.7005  1.3340 -0.3313
11103TIP3   OH254799   1.096   5.680  12.850 -0.5736 -0.4581  0.5827
11103TIP3    H154800   1.090   5.614  12.918  0.0508 -0.0918  1.0051
11103TIP3    H254801   1.072   5.762  12.893 -0.8375 -0.3271  0.1929
11104TIP3   OH254802   6.192   6.128  11.993 -0.5514  0.0522  0.6823
11104TIP3    H154803   6.205   6.038  12.025  2.4676  0.1131 -0.0594
11104TIP3    H254804   6.112   6.123  11.941 -0.7975 -2.0554  1.1389
11105TIP3   OH254805   0.359   3.503   5.046 -0.0321 -0.9534  0.1260
11105TIP3    H154806   0.310   3.584   5.037  0.1268 -0.6858  1.4382
11105TIP3    H254807   0.292   3.434   5.049 -0.1829 -0.8397 -0.6472
11106TIP3   OH254808   1.243   5.979  15.275  0.4739 -0.1876  0.1884
11106TIP3    H154809   1.295   6.053  15.306 -0.0001 -0.5469  1.9646
11106TIP3    H254810   1.169   6.019  15.228  1.4645  0.3597 -0.9593
11107TIP3   OH254811   4.121   6.757   2.271 -0.2411 -0.4465  0.4486
11107TIP3    H154812   4.121   6.850   2.293  1.7618 -0.3061  0.1054
11107TIP3    H254813   4.048   6.746   2.211 -0.1442  1.0315  0.0256
11108TIP3   OH254814   3.987   0.790  16.252 -0.3452 -0.0675 -0.4228
11108TIP3    H154815   3.917   0.734  16.217  0.4267 -2.0749  1.0578
11108TIP3    H254816   4.020   0.837  16.175 -1.4271 -1.2164 -1.6474
11109TIP3   OH254817   0.764   5.482   3.593 -0.3292 -0.4818  0.8452
11109TIP3    H154818   0.716   5.563   3.575  0.2024 -0.6279 -1.6156
11109TIP3    H254819   0.856   5.506   3.578 -0.2251 -1.6581 -0.6952
11110TIP3   OH254820   3.088   4.476  15.444  0.5204 -0.0297  0.6640
11110TIP3    H154821   3.103   4.539  15.514  4.4786  0.2786 -0.2337
11110TIP3    H254822   3.129   4.395  15.476 -1.7228 -1.2953  0.5151
11111TIP3   OH254823   0.259   3.902  15.102  0.0114 -0.0854  0.4548
11111TIP3    H154824   0.272   3.945  15.186  0.3354  1.3221 -0.2862
11111TIP3    H254825   0.305   3.818  15.110  4.1930  1.9325  0.1346
11112TIP3   OH254826   3.996   6.719  16.552 -0.6533  0.1455 -0.0702
11112TIP3    H154827   4.025   6.780  16.620 -2.3681  0.8860  0.0674
11112TIP3    H254828   3.927   6.767  16.506 -1.3609 -1.3423 -0.6106
11113TIP3   OH254829   5.095   0.113   1.708 -0.2536  0.1651  0.1929
11113TIP3    H154830   5.147   0.177   1.756 -1.5845  1.3189  0.1493
11113TIP3    H254831   5.155   0.078   1.642  0.1183  2.5111 -0.8108
11114TIP3   OH254832   2.503   6.316   4.369  0.6150  0.1365  0.1574
11114TIP3    H154833   2.421   6.266   4.374  1.1030 -0.6070  0.9741
11114TIP3    H254834   2.562   6.259   4.319  0.4712  0.9221 -0.9385
11115TIP3   OH254835   1.874   4.050   2.103 -0.2108  0.5404 -0.6270
11115TIP3    H154836   1.904   4.032   2.193  0.6919  2.0119 -0.6023
11115TIP3    H254837   1.780   4.036   2.106  0.0566 -1.4366  0.0274
11116TIP3   OH254838   3.023   1.106   5.520 -0.3468  0.0432 -0.1727
11116TIP3    H154839   3.093   1.169   5.502 -0.4756  0.6307  1.2507
11116TIP3    H254840   3.062   1.021   5.498  1.5058  0.1448  2.2195
11117TIP3   OH254841   3.581   4.965  12.796  0.2188 -0.2572 -0.6945
11117TIP3    H154842   3.644   5.000  12.733  1.6350 -0.3739  0.5963
11117TIP3    H254843   3.612   4.996  12.881 -1.0618 -0.9465  0.0559
11118TIP3   OH254844   0.748   0.835   3.378 -0.3708 -0.5390  0.3879
11118TIP3    H154845   0.755   0.924   3.411  0.2717 -1.2752  2.3512
11118TIP3    H254846   0.766   0.843   3.284  0.8343  1.2381  0.7239
11119TIP3   OH254847   6.460   0.237   0.459  0.3928  0.1866 -0.1518
11119TIP3    H154848   6.530   0.302   0.456  0.6441  0.0101  1.2343
11119TIP3    H254849   6.429   0.239   0.550 -1.4047  0.2571 -0.7298
11120TIP3   OH254850   3.675   3.512  11.317 -0.5355 -0.9221  0.3255
11120TIP3    H154851   3.762   3.549  11.297 -1.0058 -0.0536 -0.1915
11120TIP3    H254852   3.682   3.484  11.408 -0.0583  0.2214  0.6678
11121TIP3   OH254853   5.460   4.088  11.657  0.7177  0.5718  0.4588
11121TIP3    H154854   5.458   4.096  11.562  1.2055  1.1736  0.4922
11121TIP3    H254855   5.515   4.161  11.686  2.4076 -0.8680  1.0389
11122TIP3   OH254856   1.396   6.273  13.336 -0.0666 -0.4016  0.2583
11122TIP3    H154857   1.302   6.290  13.326 -0.2487 -1.1208  0.6675
11122TIP3    H254858   1.436   6.314  13.259 -0.2023  3.4809  2.0010
11123TIP3   OH254859   0.519   2.457   4.975 -0.3950 -0.3812 -0.1217
11123TIP3    H154860   0.475   2.410   5.046  0.5992 -1.1934 -0.0263
11123TIP3    H254861   0.523   2.393   4.904 -0.6830  0.1745 -0.6420
11124TIP3   OH254862   1.165   2.162   1.594 -0.9509  0.1060 -0.1363
11124TIP3    H154863   1.213   2.218   1.532  1.6002 -1.3984  0.3532
11124TIP3    H254864   1.153   2.079   1.547 -0.2773 -0.5666  0.8522
11125TIP3   OH254865   0.201   1.689  12.798 -0.4430  0.0938  0.3344
11125TIP3    H154866   0.118   1.674  12.844 -0.7901 -0.0820 -0.3308
11125TIP3    H254867   0.198   1.629  12.724  0.8800 -0.8914  1.0280
11126TIP3   OH254868   2.767   2.057  16.879 -0.3539 -0.4630 -0.4998
11126TIP3    H154869   2.858   2.077  16.902 -0.6419  0.6834 -0.3012
11126TIP3    H254870   2.715   2.096  16.949 -1.0542 -0.2255 -1.1394
11127TIP3   OH254871   0.527   4.543   5.438 -0.6676  0.4671 -0.0801
11127TIP3    H154872   0.580   4.486   5.382 -0.2843 -0.9434  1.6087
11127TIP3    H254873   0.437   4.515   5.423 -0.5042 -0.4285  0.5159
11128TIP3   OH254874   0.598   4.052   0.186  0.2865  0.1275 -0.4356
11128TIP3    H154875   0.654   3.976   0.196 -0.0128  0.0788  1.1725
11128TIP3    H254876   0.652   4.126   0.214  0.2600  0.3988 -1.0645
11129TIP3   OH254877   2.018   2.445  16.665 -0.2126  0.1283  0.0663
11129TIP3    H154878   1.995   2.503  16.593 -1.4674 -2.9218 -2.1986
11129TIP3    H254879   1.935   2.404  16.690  0.6934 -1.1691  1.0873
11130TIP3   OH254880   3.709   6.531   4.907  0.3781 -0.1733  0.5601
11130TIP3    H154881   3.760   6.571   4.977  0.0841  2.5077 -0.6260
11130TIP3    H254882   3.753   6.559   4.827 -2.6971  2.0688 -0.5064
11131TIP3   OH254883   1.666   1.331  12.876  0.0508 -0.0958 -0.0693
11131TIP3    H154884   1.574   1.353  12.861  0.1488  0.4843  0.1600
11131TIP3    H254885   1.706   1.413  12.906  0.4341 -0.5649  0.7409
11132TIP3   OH254886   3.593   3.716   6.459  0.1100 -0.6919 -0.1415
11132TIP3    H154887   3.670   3.681   6.505  0.3107 -0.9105 -0.6369
11132TIP3    H254888   3.557   3.781   6.519 -0.4838 -1.9872  0.9767
11133TIP3   OH254889   0.382   1.275  14.338  0.3641 -0.1515  0.4451
11133TIP3    H154890   0.420   1.339  14.278  0.4818 -0.0381  0.6387
11133TIP3    H254891   0.455   1.250  14.395  0.8610 -1.9649 -0.8735
11134TIP3   OH254892   1.075   1.644   0.458  0.3627 -0.4792 -0.4565
11134TIP3    H154893   1.010   1.648   0.389 -0.9970  0.1836  0.8059
11134TIP3    H254894   1.155   1.678   0.418 -0.3938 -0.0764 -1.6828
11135TIP3   OH254895   1.704   3.713   2.150 -0.3368  0.2266  0.4523
11135TIP3    H154896   1.621   3.677   2.119 -0.3775  0.5907  0.1283
11135TIP3    H254897   1.753   3.732   2.070 -0.0411  0.2432  0.6364
11136TIP3   OH254898   1.105   5.541   6.295 -0.2409  0.4776 -0.1119
11136TIP3    H154899   1.023   5.552   6.246 -0.2528 -0.4411 -0.3154
11136TIP3    H254900   1.086   5.577   6.382 -1.6844 -1.9169  0.6663
11137TIP3   OH254901   3.526   0.300  14.027 -0.4913 -0.0460 -0.3154
11137TIP3    H154902   3.499   0.380  13.982  1.4533  1.5220  1.0646
11137TIP3    H254903   3.612   0.322  14.065 -0.6174 -2.2551  1.4999
11138TIP3   OH254904   5.503   3.937  12.588 -0.5968  0.4937 -0.2122
11138TIP3    H154905   5.510   3.903  12.677 -1.2059  0.6702 -0.0915
11138TIP3    H254906   5.436   3.884  12.546  1.8719 -1.7540 -1.6239
11139TIP3   OH254907   6.735   5.841  16.846  0.0516  0.3596 -0.1620
11139TIP3    H154908   6.661   5.884  16.802 -0.3769 -1.8224 -1.7493
11139TIP3    H254909   6.811   5.894  16.822 -0.5589  0.7265 -1.3484
11140TIP3   OH254910   0.962   2.563   3.187  0.7082 -0.7909 -0.3248
11140TIP3    H154911   0.899   2.630   3.214  0.7685 -1.3024  1.2073
11140TIP3    H254912   0.969   2.573   3.092 -1.5452 -0.5847 -0.5336
11141TIP3   OH254913   3.679   2.464  10.321 -0.2299 -0.2348  0.1148
11141TIP3    H154914   3.736   2.500  10.253  0.4185  0.1752  0.8539
11141TIP3    H254915   3.702   2.371  10.324  0.1425 -0.1446  0.1484
11142TIP3   OH254916   6.664   3.915  15.554  0.2666 -0.3311 -0.4803
11142TIP3    H154917   6.646   3.974  15.481 -2.3875  0.4504  0.6880
11142TIP3    H254918   6.596   3.848  15.549  0.4469 -0.6476  0.8765
11143TIP3   OH254919   5.479   4.564   1.797 -0.2807  0.4945  0.2209
11143TIP3    H154920   5.416   4.567   1.725  1.3075  0.5624 -1.2359
11143TIP3    H254921   5.442   4.502   1.859 -0.8122 -1.0530 -1.5518
11144TIP3   OH254922   2.278   0.059  15.463  0.4656 -0.1214 -0.0784
11144TIP3    H154923   2.207   0.007  15.427  1.4655 -0.2773 -2.0028
11144TIP3    H254924   2.357   0.018  15.428  1.3506  1.7329 -0.3751
11145TIP3   OH254925   4.398   3.428  15.189  0.1595  0.6058 -0.1786
11145TIP3    H154926   4.486   3.462  15.206 -0.0888  0.9543  0.4252
11145TIP3    H254927   4.388   3.356  15.252  0.3335 -0.0054 -0.8292
11146TIP3   OH254928   2.655   3.016  16.560  0.6611  0.1084  0.4138
11146TIP3    H154929   2.596   2.979  16.496  1.0886 -0.8665  0.5665
11146TIP3    H254930   2.740   3.021  16.515  0.4883  1.5032  0.1917
11147TIP3   OH254931   2.779   2.031  15.682 -0.1628  0.1056  0.1614
11147TIP3    H154932   2.796   2.120  15.651  1.7445 -0.5018 -0.7195
11147TIP3    H254933   2.792   1.976  15.605  1.6451 -1.1653  1.2757
11148TIP3   OH254934   1.353   3.743  16.901 -0.0277  0.1363  0.2508
11148TIP3    H154935   1.293   3.755  16.975  1.5873  2.4709  1.2717
11148TIP3    H254936   1.437   3.722  16.941  0.6432  0.3984 -0.9748
11149TIP3   OH254937   2.492   4.215   0.309 -0.2638 -0.0898  0.3006
11149TIP3    H154938   2.490   4.134   0.259 -0.2783  0.3638 -0.4463
11149TIP3    H254939   2.503   4.284   0.244  0.0587  0.4920  0.9479
11150TIP3   OH254940   5.671   2.768   1.858 -0.5421 -0.2096  0.4892
11150TIP3    H154941   5.630   2.718   1.787  1.6018 -0.9775 -0.3033
11150TIP3    H254942   5.699   2.850   1.818 -1.4240  0.3875  1.0620
11151TIP3   OH254943   2.860   4.574   4.144 -0.1533  0.0480 -0.4874
11151TIP3    H154944   2.880   4.610   4.230 -0.3395 -0.0606 -0.3986
11151TIP3    H254945   2.865   4.479   4.156  0.6104  0.0435 -0.7855
11152TIP3   OH254946   4.351   4.635   4.399 -0.1472  0.5721 -0.5791
11152TIP3    H154947   4.403   4.712   4.375 -0.0514 -0.0471 -2.5441
11152TIP3    H254948   4.260   4.661   4.383 -0.1542  0.4630 -0.7230
11153TIP3   OH254949   0.981   1.483   2.828  0.4445  0.1520 -0.5011
11153TIP3    H154950   0.946   1.472   2.739 -1.5076  3.5467 -0.3505
11153TIP3    H254951   0.910   1.526   2.876  1.9321 -0.3786  2.3697
11154TIP3   OH254952   6.406   4.621   0.015  0.1923 -0.5074 -0.7306
11154TIP3    H154953   6.461   4.593   0.088 -0.9110  0.6021  0.5709
11154TIP3    H254954   6.459   4.603  -0.063  1.6890 -1.0548  0.3635
11155TIP3   OH254955   3.961   5.510  14.345 -0.0917 -0.5184 -0.0563
11155TIP3    H154956   3.978   5.561  14.266  0.6861  2.2234  1.7534
11155TIP3    H254957   4.047   5.483  14.374 -0.3655 -1.3917 -0.0339
11156TIP3   OH254958   0.621   0.051  12.365 -0.2877  0.5990  0.2905
11156TIP3    H154959   0.593  -0.035  12.332 -0.8673  0.6766  0.5743
11156TIP3    H254960   0.712   0.059  12.336 -0.0018 -0.4215  0.8541
11157TIP3   OH254961   6.018   5.279   5.992 -0.5623 -0.3045  0.0475
11157TIP3    H154962   5.949   5.254   6.053 -1.9232  1.7164 -0.5629
11157TIP3    H254963   6.097   5.285   6.046 -1.5282  0.4595  1.4546
11158TIP3   OH254964   2.300   2.997   5.741 -0.5038 -0.2893  0.5245
11158TIP3    H154965   2.311   3.074   5.686 -0.0877 -0.2059  0.7209
11158TIP3    H254966   2.381   2.947   5.728  0.6621  0.8675  2.8658
11159TIP3   OH254967   3.781   2.942  10.767 -0.0482 -0.3373 -0.0703
11159TIP3    H154968   3.742   2.861  10.735 -0.9282  0.7319 -1.8707
11159TIP3    H254969   3.859   2.954  10.713 -0.2011  0.2676 -0.1647
11160TIP3   OH254970   1.200   4.452   2.095 -0.5604  0.3393 -0.4328
11160TIP3    H154971   1.253   4.426   2.170 -0.8299  1.1501  0.0450
11160TIP3    H254972   1.167   4.369   2.059 -0.3915 -0.0566  0.3115
11161TIP3   OH254973   4.333   4.630   5.034  0.0911  0.3688  0.1093
11161TIP3    H154974   4.268   4.561   5.047 -0.8976  1.1741 -0.3997
11161TIP3    H254975   4.397   4.591   4.974  1.3971 -1.2352  2.3911
11162TIP3   OH254976   0.495   3.767  15.336  0.2806 -0.3113  0.2487
11162TIP3    H154977   0.457   3.854  15.328 -0.8620 -0.8286 -0.2721
11162TIP3    H254978   0.588   3.782  15.351 -0.1318  1.0100  1.6890
11163TIP3   OH254979   1.006   1.037   1.699 -0.2955  0.1455 -0.0808
11163TIP3    H154980   1.004   0.960   1.642 -0.7500 -0.3494  0.5888
11163TIP3    H254981   0.928   1.028   1.754  0.5806  0.1595  1.2096
11164TIP3   OH254982   6.146   6.317   0.737 -0.2103 -0.1824 -0.5495
11164TIP3    H154983   6.113   6.292   0.823  1.0716  0.5509  0.1843
11164TIP3    H254984   6.112   6.406   0.723 -0.2926 -0.2419 -0.7298
11165TIP3   OH254985   2.043   0.501   2.262  0.3676  0.0019  0.5365
11165TIP3    H154986   2.039   0.591   2.230  1.7009 -0.6290 -1.6695
11165TIP3    H254987   2.131   0.472   2.239 -0.9138 -2.7225 -1.4376
11166TIP3   OH254988   0.151   0.055  16.697  0.1295  0.5763  0.1770
11166TIP3    H154989   0.134   0.026  16.786 -0.5372  0.6873  0.0943
11166TIP3    H254990   0.130  -0.022  16.643 -0.1838  0.7382  0.0658
11167TIP3   OH254991   2.913   5.807  12.910 -0.4835  0.2789  0.4901
11167TIP3    H154992   2.985   5.767  12.862  0.3839  2.5023 -0.2029
11167TIP3    H254993   2.842   5.814  12.846  0.1491  1.8409 -0.0921
11168TIP3   OH254994   5.539   4.780   2.340 -0.4513 -0.6491 -0.3395
11168TIP3    H154995   5.525   4.860   2.290 -2.0347 -0.5379  0.2389
11168TIP3    H254996   5.458   4.731   2.331  0.1525 -1.7682  0.0944
11169TIP3   OH254997   6.608   2.901  15.866  1.2962  0.2642 -0.4948
11169TIP3    H154998   6.661   2.973  15.901 -1.2604  1.2642  1.6607
11169TIP3    H254999   6.527   2.943  15.837  1.0188 -1.3905 -2.2770
11170TIP3   OH255000   3.991   2.222  15.568 -0.1145 -0.1891  0.2791
11170TIP3    H155001   4.081   2.201  15.545 -0.4234 -3.0685  1.3190
11170TIP3    H255002   3.987   2.318  15.564  2.1963 -0.0731 -2.4470
11171TIP3   OH255003   6.392   5.499  14.179 -0.4366 -0.0063  0.9947
11171TIP3    H155004   6.335   5.567  14.143 -1.5702 -1.1196  0.5914
11171TIP3    H255005   6.334   5.446  14.234  0.0804 -1.4542  0.2077
11172TIP3   OH255006   0.123   5.380  15.926 -0.5707  0.4771 -0.0655
11172TIP3    H155007   0.108   5.373  15.832  0.2482  0.7894 -0.2245
11172TIP3    H255008   0.057   5.443  15.955 -2.3797 -1.3365 -0.0125
11173TIP3   OH255009   4.101   2.525  16.329  0.5446 -0.8900 -0.1766
11173TIP3    H155010   4.013   2.503  16.359  0.0594  0.5812 -0.4547
11173TIP3    H255011   4.154   2.449  16.353 -1.0091 -2.3137 -1.0642
11174TIP3   OH255012   1.607   0.018   3.509  0.1915  0.2519 -0.2436
11174TIP3    H155013   1.589  -0.043   3.581 -2.0549  1.2530  0.1348
11174TIP3    H255014   1.549   0.093   3.526  1.4834  1.6626 -1.7227
11175TIP3   OH255015   1.300   6.664  13.770 -0.1616 -0.2025  0.4124
11175TIP3    H155016   1.327   6.724  13.839  1.1912 -0.9280  0.5640
11175TIP3    H255017   1.374   6.603  13.762  0.4042  0.7196 -2.6695
11176TIP3   OH255018   0.200   1.470   0.515 -0.1190  0.1629 -0.0919
11176TIP3    H155019   0.292   1.455   0.491 -0.6319  0.4624 -2.4919
11176TIP3    H255020   0.197   1.564   0.536 -0.0515  0.4036 -1.0829
11177TIP3   OH255021   1.978   1.060  12.217 -0.7935 -0.1503  0.3245
11177TIP3    H155022   2.011   1.038  12.130 -1.6475 -2.1869  0.4621
11177TIP3    H255023   1.980   0.978  12.265 -2.0386  0.5615  1.6701
11178TIP3   OH255024   6.047   5.097  15.934  0.0249  0.1996 -0.1589
11178TIP3    H155025   6.074   5.180  15.975 -0.0103  0.9577 -1.5898
11178TIP3    H255026   5.961   5.078  15.972 -0.3356  1.2679 -0.3864
11179TIP3   OH255027   1.486   1.962  13.908 -0.0674  0.0623  0.1353
11179TIP3    H155028   1.476   1.969  14.003  0.0257 -1.6159  0.2878
11179TIP3    H255029   1.543   1.887  13.895  2.8112  2.2556 -1.1542
11180TIP3   OH255030   6.316   3.150   4.246  0.2284  0.8176 -0.2066
11180TIP3    H155031   6.360   3.167   4.330 -0.0945 -0.0562  0.1462
11180TIP3    H255032   6.223   3.157   4.265  0.1585  2.5000 -0.9229
11181TIP3   OH255033   0.104   5.702   0.889  0.4025  0.5783 -0.3832
11181TIP3    H155034   0.171   5.764   0.920  0.6025 -0.8824  2.3658
11181TIP3    H255035   0.154   5.630   0.852  0.2913  0.4231 -0.2321
11182TIP3   OH255036   5.680   2.449  11.606 -0.0587 -0.3757  0.0862
11182TIP3    H155037   5.643   2.527  11.565  1.6250  0.4485  0.0359
11182TIP3    H255038   5.612   2.382  11.596 -1.8032  1.2067  0.6586
11183TIP3   OH255039   2.437   4.860   3.143 -0.1094  0.3388  0.7369
11183TIP3    H155040   2.494   4.847   3.068 -0.7493  2.7716 -0.2737
11183TIP3    H255041   2.496   4.894   3.211  0.1511  0.0022  0.6792
11184TIP3   OH255042   4.667   2.212  16.165  0.1463 -0.3519  0.0646
11184TIP3    H155043   4.681   2.196  16.258  0.9479 -0.9800 -0.1571
11184TIP3    H255044   4.739   2.269  16.139  0.1218 -0.4639 -0.2487
11185TIP3   OH255045   2.370   3.818  10.832 -0.4287  0.1273  0.6236
11185TIP3    H155046   2.422   3.749  10.874 -2.4252 -0.6546  1.9565
11185TIP3    H255047   2.334   3.776  10.754 -0.2574  0.2173  0.4947
11186TIP3   OH255048   3.954   6.512  15.431  0.2801 -0.0254 -0.1706
11186TIP3    H155049   3.927   6.425  15.403 -0.2706 -0.1092  0.5953
11186TIP3    H255050   4.037   6.498  15.477 -0.3806 -0.3308  0.9858
11187TIP3   OH255051   4.116   0.601   4.734  0.3312  0.3370  0.2496
11187TIP3    H155052   4.047   0.622   4.797  1.1762  2.6724  0.4957
11187TIP3    H255053   4.136   0.684   4.692  1.6783 -0.6613 -1.2006
11188TIP3   OH255054   2.561   0.214   2.813 -0.1248  0.1284 -0.2093
11188TIP3    H155055   2.534   0.151   2.880  0.1108 -3.2829 -3.0513
11188TIP3    H255056   2.487   0.216   2.752  0.8655  0.7206 -1.4167
11189TIP3   OH255057   5.578   6.501  12.094 -0.4229 -0.3496  0.3703
11189TIP3    H155058   5.541   6.437  12.155 -2.1402 -1.5237 -1.7405
11189TIP3    H255059   5.631   6.449  12.034  1.0287  0.7417  0.6565
11190TIP3   OH255060   4.828   1.245  15.776 -0.2344 -0.5561 -0.0622
11190TIP3    H155061   4.801   1.335  15.759 -2.1383 -0.7947  1.2766
11190TIP3    H255062   4.867   1.248  15.863  0.8683 -0.8499 -0.5254
11191TIP3   OH255063   1.260   1.859   3.430  0.3104  0.0053 -0.1723
11191TIP3    H155064   1.226   1.938   3.471 -0.3200 -0.3542 -0.0058
11191TIP3    H255065   1.191   1.830   3.371  1.0126  0.2471 -1.1586
11192TIP3   OH255066   5.491   2.031   4.279 -0.2100  0.6332  0.1688
11192TIP3    H155067   5.510   2.051   4.370 -0.5950  0.3970  0.3037
11192TIP3    H255068   5.443   1.948   4.282 -0.4226  0.7400 -0.2298
11193TIP3   OH255069   1.872   1.562  10.985  0.1623  0.3692  0.4216
11193TIP3    H155070   1.860   1.552  11.079  1.6609 -1.1525  0.4935
11193TIP3    H255071   1.853   1.475  10.949  0.8045  0.6078 -0.5306
11194TIP3   OH255072   5.313   4.026   3.388 -0.0451 -0.1241  0.3677
11194TIP3    H155073   5.286   3.955   3.447 -1.6497  1.4359  1.5948
11194TIP3    H255074   5.345   3.981   3.310 -1.4667 -2.1925  0.8987
11195TIP3   OH255075   4.547   3.342   6.228 -0.2547 -0.2852 -0.5907
11195TIP3    H155076   4.572   3.250   6.235 -0.7539 -0.6059 -2.4125
11195TIP3    H255077   4.630   3.389   6.223  0.0193 -0.4946  1.4449
11196TIP3   OH255078   6.227   0.143  16.955  0.4609 -0.0064  0.0592
11196TIP3    H155079   6.132   0.148  16.941  0.3735 -1.8273 -0.3511
11196TIP3    H255080   6.256   0.234  16.955 -0.9422  0.5534 -2.4147
11197TIP3   OH255081   4.747   5.738  15.473  0.2186  0.6069 -0.4313
11197TIP3    H155082   4.668   5.701  15.433  0.9690 -1.4710 -0.1266
11197TIP3    H255083   4.806   5.755  15.399  0.4572 -0.3442 -0.4701
11198TIP3   OH255084   0.096   6.099   2.099 -0.1939 -0.5086 -0.4446
11198TIP3    H155085   0.097   6.186   2.058 -0.0554  0.5732  1.7077
11198TIP3    H255086   0.184   6.090   2.137 -1.3146  0.1387  2.5976
11199TIP3   OH255087   4.669   6.786   3.203  0.1330 -0.3015 -0.0139
11199TIP3    H155088   4.665   6.790   3.107 -0.9369  0.3052  0.0391
11199TIP3    H255089   4.613   6.858   3.232  0.0739 -0.7666  1.0728
11200TIP3   OH255090   1.372   2.325  10.290  0.0179  0.0600 -0.4819
11200TIP3    H155091   1.440   2.343  10.226  1.2937  3.1966  1.5033
11200TIP3    H255092   1.388   2.234  10.317  1.8548 -0.0728 -1.7980
11201TIP3   OH255093   6.824   2.184   1.587  0.2639 -0.3030  0.5309
11201TIP3    H155094   6.845   2.249   1.520 -0.2497 -2.5075 -1.9387
11201TIP3    H255095   6.900   2.182   1.644 -0.1479  3.1653  1.4160
11202TIP3   OH255096   0.687   3.000   6.200  0.1957  0.0785 -0.4095
11202TIP3    H155097   0.616   3.013   6.136  1.3363  0.5514 -1.6188
11202TIP3    H255098   0.724   3.087   6.212  0.8253 -0.2329 -0.0770
11203TIP3   OH255099   4.528   5.106   4.034  0.3873  0.1113  0.4795
11203TIP3    H155100   4.538   5.013   4.053 -0.3598  0.1247  0.9799
11203TIP3    H255101   4.583   5.149   4.100 -0.8468  0.0893  1.5532
11204TIP3   OH255102   3.930   5.950  10.838  0.0161 -0.8969 -0.1427
11204TIP3    H155103   3.967   5.863  10.822  2.4608  0.0830 -0.1667
11204TIP3    H255104   3.966   6.004  10.768  0.7847  0.7219  1.4387
11205TIP3   OH255105   2.997   4.945   3.602 -0.2906 -0.1877 -0.0509
11205TIP3    H155106   2.918   4.999   3.613 -0.1521  0.2863 -1.1536
11205TIP3    H255107   3.068   4.999   3.637 -0.1251  0.4761 -1.3235
11206TIP3   OH255108   4.307   3.365  12.837  0.1474 -0.2086  0.0520
11206TIP3    H155109   4.281   3.359  12.929  0.4557 -1.8186  0.0682
11206TIP3    H255110   4.383   3.307  12.831  1.4564  1.5222 -0.7822
11207TIP3   OH255111   4.803   0.386   0.033  0.2379  0.4635 -0.0529
11207TIP3    H155112   4.887   0.402   0.076 -0.0236  1.1957  0.2084
11207TIP3    H255113   4.824   0.387  -0.061  0.2141  2.8080 -0.0943
11208TIP3   OH255114   4.975   3.402  15.475  0.1058 -0.5581 -0.1699
11208TIP3    H155115   4.935   3.449  15.402  1.0903 -1.3026 -1.2293
11208TIP3    H255116   5.069   3.421  15.467  0.1439  0.0626  1.4494
11209TIP3   OH255117   2.588   6.434   2.008 -0.3533  0.0436  0.5281
11209TIP3    H155118   2.501   6.412   2.041  0.1385 -2.9769  0.0824
11209TIP3    H255119   2.579   6.430   1.913  0.7407 -2.9495  0.4494
11210TIP3   OH255120   2.120   1.205  14.701  0.1083 -0.3501  0.1962
11210TIP3    H155121   2.148   1.129  14.651  1.6927  1.1505 -1.3398
11210TIP3    H255122   2.186   1.215  14.769  0.5908  0.3191 -0.3539
11211TIP3   OH255123   0.362   6.760   4.429  0.1147  0.1115  0.6883
11211TIP3    H155124   0.423   6.731   4.362  0.1399  0.6039  0.4960
11211TIP3    H255125   0.282   6.782   4.381  0.1297  0.4547  0.8150
11212TIP3   OH255126   0.637   4.298   3.668  0.1633 -0.0198  0.2142
11212TIP3    H155127   0.649   4.271   3.759 -2.5408 -0.0945  0.6185
11212TIP3    H255128   0.649   4.217   3.617  1.3644 -0.0361  0.4870
11213TIP3   OH255129   5.949   2.981   6.454  0.0434 -0.0545  0.2376
11213TIP3    H155130   5.953   2.901   6.506  0.1596  0.6622  1.3870
11213TIP3    H255131   5.926   3.049   6.518  1.1252  1.0174 -0.4731
11214TIP3   OH255132   5.763   1.315   2.744  0.0219 -0.3711  0.2375
11214TIP3    H155133   5.742   1.241   2.801 -0.7091  0.3922  1.0129
11214TIP3    H255134   5.723   1.390   2.788  0.1331  0.3743 -0.8883
11215TIP3   OH255135   2.698   6.072   0.885 -0.0677  0.0770  0.1916
11215TIP3    H155136   2.725   5.996   0.834 -1.8428 -1.0876  0.8757
11215TIP3    H255137   2.626   6.110   0.834  1.1760  1.7192 -0.4480
11216TIP3   OH255138   3.409   2.883  11.165  0.3014  0.0415 -0.1036
11216TIP3    H155139   3.452   2.934  11.233  1.7419  0.1007 -0.9966
11216TIP3    H255140   3.315   2.893  11.181  0.6059  0.6444  1.4041
11217TIP3   OH255141   1.711   2.880  14.630 -0.5360  0.5927  0.4861
11217TIP3    H155142   1.674   2.793  14.643 -1.4791  1.0711  1.1293
11217TIP3    H255143   1.675   2.909  14.546 -1.8817  1.1512  1.2179
11218TIP3   OH255144   5.958   4.497  15.621 -0.6462 -0.5121  0.4356
11218TIP3    H155145   6.019   4.429  15.590  0.1215  0.2499  0.2296
11218TIP3    H255146   5.882   4.489  15.563  0.8024  0.9607 -1.8439
11219TIP3   OH255147   0.605   6.796  13.128 -0.2039 -0.1701 -0.0008
11219TIP3    H155148   0.681   6.739  13.142 -0.3241 -0.5699 -0.9244
11219TIP3    H255149   0.574   6.816  13.217  0.9468 -0.0330  0.3867
11220TIP3   OH255150   2.328   6.438   3.798  0.0817  0.1994  0.1717
11220TIP3    H155151   2.291   6.514   3.843  2.2126  0.6002  1.3816
11220TIP3    H255152   2.415   6.466   3.772  0.4405 -1.4384 -0.5009
11221TIP3   OH255153   0.964   5.595  10.984 -0.0227  0.2128  0.0177
11221TIP3    H155154   1.038   5.627  11.036  0.2384  1.0169 -0.8261
11221TIP3    H255155   0.953   5.504  11.012  1.4881 -0.0164 -0.0458
11222TIP3   OH255156   4.523   2.632  13.141  0.5344  0.4732  0.0168
11222TIP3    H155157   4.544   2.707  13.084 -1.1935  0.7943 -0.2472
11222TIP3    H255158   4.607   2.590  13.158  1.2208  0.9452 -1.9927
11223TIP3   OH255159   4.458   3.528  15.523  0.2625  0.4500  0.2993
11223TIP3    H155160   4.425   3.576  15.599  0.1305 -1.1660  1.2867
11223TIP3    H255161   4.459   3.594  15.453 -1.0302  1.6104  1.3045
11224TIP3   OH255162   2.111   1.356  16.320  0.5441  0.3530  0.2665
11224TIP3    H155163   2.135   1.447  16.339 -0.1728  0.4142  0.9138
11224TIP3    H255164   2.036   1.339  16.376  0.2522 -0.4316 -0.3477
11225TIP3   OH255165   4.963   2.422  14.612 -0.3438 -0.3036 -0.0908
11225TIP3    H155166   4.931   2.348  14.664  2.1111 -1.2857  0.1781
11225TIP3    H255167   5.043   2.450  14.656 -0.1211  1.1931 -1.3471
11226TIP3   OH255168   4.785   5.411  13.627 -0.0972 -0.3496 -0.3718
11226TIP3    H155169   4.692   5.431  13.638 -0.3443 -1.1369 -0.9380
11226TIP3    H255170   4.800   5.417  13.533  0.4610 -0.1025 -0.2714
11227TIP3   OH255171   1.271   5.625   5.017  0.2952  0.0563 -0.2010
11227TIP3    H155172   1.274   5.720   5.028  0.6815  0.1252 -0.8281
11227TIP3    H255173   1.196   5.596   5.070  1.3715  0.4623  1.5939
11228TIP3   OH255174   2.666   2.833   4.560  0.0792 -0.0245  0.1930
11228TIP3    H155175   2.748   2.860   4.601  0.1116  0.9277 -0.4417
11228TIP3    H255176   2.673   2.738   4.551  1.4120  0.1167 -0.4628
11229TIP3   OH255177   1.390   0.666  13.728 -0.1232  0.3635 -0.0879
11229TIP3    H155178   1.342   0.726  13.785 -2.7038 -1.0363 -0.6508
11229TIP3    H255179   1.341   0.584  13.732 -0.0000 -0.0512 -3.6747
11230TIP3   OH255180   6.164   2.434   3.671 -0.1897  0.4515 -0.3780
11230TIP3    H155181   6.257   2.455   3.663  0.4148 -2.2632 -1.6237
11230TIP3    H255182   6.154   2.400   3.760  0.2474 -0.1234 -0.5405
11231TIP3   OH255183   0.376   4.027   3.596 -0.6709 -0.2055  0.4623
11231TIP3    H155184   0.329   4.108   3.577  1.0176  0.8387  0.4673
11231TIP3    H255185   0.399   4.033   3.688  0.6111 -0.0284  0.1518
11232TIP3   OH255186   3.626   2.440   5.160 -0.4941 -0.0709 -0.1100
11232TIP3    H155187   3.536   2.409   5.164 -0.4408 -0.9815 -3.2399
11232TIP3    H255188   3.678   2.370   5.200 -1.0630  0.2788  1.3220
11233TIP3   OH255189   3.238   4.004   3.912 -0.3950 -0.2810 -0.4297
11233TIP3    H155190   3.228   4.013   3.818 -2.2146  1.3721 -0.1545
11233TIP3    H255191   3.332   3.995   3.926 -0.0132  0.2779 -2.3368
11234TIP3   OH255192   4.470   3.422  15.910  0.4298  0.0829  0.0334
11234TIP3    H155193   4.416   3.432  15.989 -0.3694  0.3041 -0.5201
11234TIP3    H255194   4.407   3.429  15.838  1.2293  0.4869 -0.6378
11235TIP3   OH255195   5.145   0.744  16.295  0.4983  0.1038  0.2898
11235TIP3    H155196   5.068   0.688  16.286  0.1872  0.6042 -0.2223
11235TIP3    H255197   5.216   0.693  16.256 -0.2749  1.0669 -2.6886
11236TIP3   OH255198   3.288   4.405   4.810 -0.0505  0.5042  0.2909
11236TIP3    H155199   3.306   4.311   4.815  2.9626  0.9813 -0.1980
11236TIP3    H255200   3.262   4.429   4.899  2.5721 -0.2369  1.3403
11237TIP3   OH255201   0.623   5.200   0.132  0.5675 -0.3395 -0.2387
11237TIP3    H155202   0.706   5.246   0.124  0.6714 -0.5837 -0.5740
11237TIP3    H255203   0.620   5.170   0.223  1.1690 -0.9392 -0.4061
11238TIP3   OH255204   5.954   0.296  12.084 -0.7416  0.2775  0.1433
11238TIP3    H155205   6.032   0.301  12.029 -0.6308  0.0613  0.2786
11238TIP3    H255206   5.988   0.284  12.173 -0.9152  0.9683  0.3034
11239TIP3   OH255207   6.264   4.668  12.077  0.3580  0.1481 -0.1323
11239TIP3    H155208   6.178   4.628  12.093  0.5772 -0.6734 -0.9268
11239TIP3    H255209   6.291   4.700  12.163 -0.2475 -0.6011  0.3550
11240TIP3   OH255210   6.335   6.569   1.457  0.2951  0.6949  0.6882
11240TIP3    H155211   6.368   6.510   1.389  0.0674  1.6173 -0.2516
11240TIP3    H255212   6.381   6.543   1.536 -0.0206 -0.9364  0.3719
11241TIP3   OH255213   2.482   0.233   5.648 -0.2713 -0.2180 -0.3191
11241TIP3    H155214   2.390   0.246   5.672 -0.5071 -1.4423 -0.4992
11241TIP3    H255215   2.503   0.309   5.594 -0.7087  0.8661  0.9544
11242TIP3   OH255216   2.943   3.823  12.890 -0.1821  0.1446 -0.5502
11242TIP3    H155217   3.012   3.806  12.825  0.2216 -1.6199  0.2845
11242TIP3    H255218   2.989   3.862  12.964 -0.2199 -0.1864 -0.3499
11243TIP3   OH255219   5.818   3.162  15.903 -0.6080  0.1718 -0.6187
11243TIP3    H155220   5.747   3.164  15.967  0.2119  0.9390  0.3046
11243TIP3    H255221   5.834   3.069  15.886 -1.4540 -0.0145 -0.4140
11244TIP3   OH255222   3.468   5.250   5.755 -0.0059 -0.1583  0.2186
11244TIP3    H155223   3.479   5.289   5.842 -1.7460  0.9146  0.0054
11244TIP3    H255224   3.448   5.324   5.698 -1.1448 -1.0876 -0.6435
11245TIP3   OH255225   4.315   4.684   0.670 -0.0348 -0.7600  0.4966
11245TIP3    H155226   4.227   4.707   0.642 -0.5306  0.0780  2.5658
11245TIP3    H255227   4.363   4.767   0.671  0.5610 -1.0904  0.1762
11246TIP3   OH255228   6.086   6.436  10.275 -0.3361  0.9476  0.3107
11246TIP3    H155229   5.994   6.413  10.266 -0.0713  0.6157 -2.2764
11246TIP3    H255230   6.086   6.528  10.302 -1.5355  1.9882 -2.7838
11247TIP3   OH255231   2.720   0.660  12.773 -0.2700 -0.0490  0.4291
11247TIP3    H155232   2.689   0.748  12.793 -0.1620 -0.0708  0.6955
11247TIP3    H255233   2.659   0.602  12.819  0.1004 -0.0939  0.8746
11248TIP3   OH255234   3.586   2.744  10.986  0.4653 -0.3651 -0.1366
11248TIP3    H155235   3.598   2.769  10.895  2.1792  0.5282  0.2742
11248TIP3    H255236   3.518   2.803  11.019 -0.0315 -0.5731 -0.7787
11249TIP3   OH255237   0.371   2.456  12.381  0.2193 -0.1573 -0.2738
11249TIP3    H155238   0.343   2.546  12.366  0.1318 -0.0337  0.5950
11249TIP3    H255239   0.467   2.461  12.384  0.3256 -0.3945 -2.0457
11250TIP3   OH255240   1.805   5.884   3.990 -0.3905 -0.2975  0.5461
11250TIP3    H155241   1.787   5.808   3.934 -0.6678 -0.4731  0.8719
11250TIP3    H255242   1.754   5.868   4.069 -1.5419  0.8787  0.0766
11251TIP3   OH255243   5.467   1.262  11.610 -0.0361  0.2147 -0.8818
11251TIP3    H155244   5.448   1.210  11.688  0.0357 -1.6407 -2.0365
11251TIP3    H255245   5.403   1.334  11.613  0.2824  0.4715  1.0999
11252TIP3   OH255246   0.755   1.576   5.590 -0.7969 -0.4733  0.4800
11252TIP3    H155247   0.693   1.590   5.662  0.1474 -0.5307  1.3187
11252TIP3    H255248   0.794   1.490   5.609  1.9929  0.9680  1.8709
11253TIP3   OH255249   2.153   6.838  12.056 -0.7572  0.2797  0.9250
11253TIP3    H155250   2.245   6.848  12.031 -0.6984  0.2105  1.1121
11253TIP3    H255251   2.141   6.744  12.066 -1.2548  0.1471 -0.6121
11254TIP3   OH255252   4.688   6.717  15.858  0.1117 -0.0923 -0.0763
11254TIP3    H155253   4.610   6.742  15.810  0.2233  1.7948  0.6352
11254TIP3    H255254   4.655   6.681  15.940 -0.0663  2.0538  0.8574
11255TIP3   OH255255   2.381   0.613  15.182 -0.1012  0.1135 -0.0619
11255TIP3    H155256   2.354   0.547  15.246  1.2279  1.1152  1.6326
11255TIP3    H255257   2.340   0.694  15.213  1.3044  0.7948  0.0869
11256TIP3   OH255258   4.432   5.084   6.077 -0.0912  0.0986 -0.3120
11256TIP3    H155259   4.432   5.128   6.162 -1.8457 -2.1243  0.9504
11256TIP3    H255260   4.495   5.013   6.087  0.3220  0.3226 -1.2041
11257TIP3   OH255261   2.099   3.202  15.297 -0.0334  0.0072 -0.6712
11257TIP3    H155262   2.091   3.288  15.255  1.4172  0.8672  0.6657
11257TIP3    H255263   2.053   3.213  15.381  1.5372  0.0601  0.2294
11258TIP3   OH255264   1.255   1.824  12.399  0.3740  0.3757  0.4502
11258TIP3    H155265   1.163   1.808  12.375  0.6677 -1.6269  0.4510
11258TIP3    H255266   1.284   1.892  12.338 -1.1684  1.2503  0.6428
11259TIP3   OH255267   5.302   5.987   2.640  0.1892 -0.4155 -0.9222
11259TIP3    H155268   5.386   5.960   2.677 -0.2328 -1.2170 -0.4993
11259TIP3    H255269   5.271   5.910   2.592 -1.8261 -1.3865  1.6750
11260TIP3   OH255270   2.110   3.878  15.562 -0.4117 -0.6101 -0.0238
11260TIP3    H155271   2.087   3.909  15.650 -2.1608 -2.4604  0.2537
11260TIP3    H255272   2.205   3.883  15.559 -0.3023 -0.5252  1.9919
11261TIP3   OH255273   1.283   6.016   5.031  0.3188 -0.1205  0.1975
11261TIP3    H155274   1.343   6.051   5.096  0.1077 -0.3230  0.5075
11261TIP3    H255275   1.210   5.981   5.083  1.2855 -2.5704  0.0396
11262TIP3   OH255276   2.064   6.518  15.711  0.5829  0.7341  0.2012
11262TIP3    H155277   2.158   6.504  15.703  0.0918 -2.4515 -1.5302
11262TIP3    H255278   2.033   6.446  15.766 -0.9038  1.5965  0.5694
11263TIP3   OH255279   1.404   0.734   3.498 -0.6376  0.0501 -0.2807
11263TIP3    H155280   1.413   0.785   3.578  0.1031 -0.4670 -0.0277
11263TIP3    H255281   1.316   0.754   3.466 -1.9486 -1.6369  1.9952
11264TIP3   OH255282   6.591   6.194  15.928  0.3567  0.3866  0.2253
11264TIP3    H155283   6.527   6.151  15.985  1.3983 -1.2403  0.2284
11264TIP3    H255284   6.667   6.136  15.929  1.2539  1.4719 -1.0406
11265TIP3   OH255285   6.564   6.143  17.033 -0.4786 -0.6602  0.0950
11265TIP3    H155286   6.524   6.181  17.111 -0.9197 -0.1445 -0.3735
11265TIP3    H255287   6.635   6.088  17.067 -1.8099 -1.9025  0.9614
11266TIP3   OH255288   0.763   0.372  11.227 -0.1864  0.4832  0.4307
11266TIP3    H155289   0.748   0.349  11.135  1.3399  1.4014 -0.0958
11266TIP3    H255290   0.803   0.294  11.266  1.3335  0.8477 -0.3208
11267TIP3   OH255291   0.554   1.749   0.022  0.1079 -0.3983  0.0777
11267TIP3    H155292   0.597   1.729   0.105 -0.7444  0.3769  0.7283
11267TIP3    H255293   0.462   1.727   0.037  0.0502 -0.8630 -0.8799
11268TIP3   OH255294   1.841   1.674   1.509  0.1379 -0.2657 -0.3629
11268TIP3    H155295   1.893   1.649   1.433  1.0552 -1.0686  0.4983
11268TIP3    H255296   1.840   1.769   1.508 -0.6303 -0.2631 -1.8703
11269TIP3   OH255297   1.923   2.533   3.065 -0.3001 -0.2930 -0.4575
11269TIP3    H155298   1.849   2.517   3.123 -1.2189 -2.3245 -2.0306
11269TIP3    H255299   2.000   2.504   3.115 -0.3607  2.4985  1.4616
11270TIP3   OH255300   5.012   0.092  16.392  0.1172 -0.0190  0.3550
11270TIP3    H155301   5.080   0.160  16.391  0.3283 -0.2262 -0.8565
11270TIP3    H255302   4.934   0.136  16.425  0.3177  0.7632 -0.1842
11271TIP3   OH255303   5.224   1.231   0.932 -0.3550  0.1314 -0.2666
11271TIP3    H155304   5.226   1.291   0.858 -0.6785  0.3857 -0.0715
11271TIP3    H255305   5.205   1.287   1.008  1.4629  0.1112  0.2466
11272TIP3   OH255306   5.246   4.680   0.850  0.0047  0.0890  0.3903
11272TIP3    H155307   5.309   4.631   0.902  1.3411  0.3247 -0.9235
11272TIP3    H255308   5.284   4.682   0.762 -2.3616 -0.6437 -0.7142
11273TIP3   OH255309   3.284   1.525  13.797  0.1932 -0.3143  0.5335
11273TIP3    H155310   3.207   1.535  13.741  0.3458  1.8500  0.6185
11273TIP3    H255311   3.272   1.440  13.839 -1.6677 -0.4511 -0.1686
11274TIP3   OH255312   2.834   1.740   5.318 -0.1115 -0.9220  0.1238
11274TIP3    H155313   2.740   1.751   5.333 -0.2843 -1.1956 -0.7041
11274TIP3    H255314   2.841   1.667   5.257  0.6031 -0.5367 -0.2818
11275TIP3   OH255315   2.933   5.913   2.934  0.5089  0.0435  0.1336
11275TIP3    H155316   2.950   5.823   2.905  1.0448 -0.0262  0.6571
11275TIP3    H255317   2.935   5.965   2.854  1.4393 -0.2278 -0.0258
11276TIP3   OH255318   3.011   0.637  13.321  0.1298 -0.3491 -0.4210
11276TIP3    H155319   2.936   0.599  13.368 -0.0139  0.7901  0.2839
11276TIP3    H255320   3.020   0.581  13.243 -1.7262 -0.2745 -0.7421
11277TIP3   OH255321   3.587   0.982   1.285  0.3188  0.2116  0.7175
11277TIP3    H155322   3.542   0.976   1.201  1.6030  1.4569 -0.1257
11277TIP3    H255323   3.518   0.980   1.350 -0.7902  0.2039 -0.4231
11278TIP3   OH255324   0.532   5.329  14.573  0.7501  0.0988  0.2477
11278TIP3    H155325   0.556   5.420  14.591 -0.0230  0.4510 -0.4481
11278TIP3    H255326   0.454   5.335  14.518  0.3850 -0.9969  0.6223
11279TIP3   OH255327   4.164   1.987   0.658 -0.3236  0.2203 -0.0037
11279TIP3    H155328   4.131   2.000   0.746 -0.0614 -1.0242  0.2989
11279TIP3    H255329   4.164   2.074   0.619  0.0548  0.8707  1.3916
11280TIP3   OH255330   0.563   5.279   3.730  0.2128  0.0841  0.2966
11280TIP3    H155331   0.561   5.336   3.654 -0.2548 -1.2961 -0.7684
11280TIP3    H255332   0.513   5.326   3.797  1.4735  1.7536  0.1066
11281TIP3   OH255333   1.555   6.561   2.567  0.1632 -0.1797  0.5053
11281TIP3    H155334   1.598   6.490   2.519  0.5528  0.0134  0.5676
11281TIP3    H255335   1.603   6.566   2.650  0.2456  0.2733  0.4290
11282TIP3   OH255336   4.591   4.704   5.259  0.0521  0.2387 -0.1319
11282TIP3    H155337   4.508   4.657   5.269  0.3385 -0.2188  0.1391
11282TIP3    H255338   4.574   4.791   5.296 -0.7284  0.6556 -1.4115
11283TIP3   OH255339   4.141   6.807  16.283 -0.4062  0.1894  0.1674
11283TIP3    H155340   4.113   6.764  16.364 -0.8532 -0.6792 -0.4284
11283TIP3    H255341   4.064   6.804  16.227  0.7242 -1.9939 -1.4014
11284TIP3   OH255342   1.029   5.621   4.514 -0.2564 -0.3917 -0.0071
11284TIP3    H155343   1.051   5.544   4.567 -0.4870 -0.0628  0.5734
11284TIP3    H255344   1.079   5.693   4.553  0.2428 -0.3106 -0.7730
11285TIP3   OH255345   1.600   3.002  13.659 -0.2498 -0.2779 -0.3966
11285TIP3    H155346   1.668   3.017  13.725 -0.3932  0.5055 -0.4163
11285TIP3    H255347   1.648   2.980  13.580  0.0384  1.0506 -0.6188
11286TIP3   OH255348   1.355   0.147   3.396 -0.3522  0.3069  0.0220
11286TIP3    H155349   1.445   0.158   3.365 -0.5957 -0.1022 -0.8587
11286TIP3    H255350   1.314   0.232   3.382  0.2311  0.8804  1.6111
11287TIP3   OH255351   0.973   1.503  16.363 -0.5157  0.3727 -0.4744
11287TIP3    H155352   0.905   1.555  16.407 -1.3646 -0.1297 -1.1625
11287TIP3    H255353   1.016   1.564  16.304  0.0424  0.8412  0.4014
11288TIP3   OH255354   2.649   0.113   5.200 -0.0041  0.1015 -0.5616
11288TIP3    H155355   2.589   0.049   5.237 -1.8787  1.7034 -0.6654
11288TIP3    H255356   2.663   0.084   5.110  1.0914 -1.4149  0.0523
11289TIP3   OH255357   5.820   3.747  15.923  0.5982  0.4571  0.3028
11289TIP3    H155358   5.854   3.712  15.840 -0.1375 -1.7615  0.8611
11289TIP3    H255359   5.819   3.841  15.910  1.3462  0.2355 -1.8903
11290TIP3   OH255360   4.836   3.706   5.894 -0.1112  0.2067 -0.6600
11290TIP3    H155361   4.816   3.672   5.807  3.0811  1.3835 -1.9766
11290TIP3    H255362   4.909   3.653   5.925 -1.5011 -0.5189  1.6003
11291TIP3   OH255363   0.952   1.551  15.051 -0.3108 -0.0232 -0.1019
11291TIP3    H155364   0.921   1.566  15.140 -1.4761  0.2513 -0.5434
11291TIP3    H255365   0.974   1.639  15.018  1.0057 -0.2149  0.2172
11292TIP3   OH255366   5.943   1.191  13.785  0.2096  0.0293 -0.9012
11292TIP3    H155367   6.037   1.172  13.785  0.5036  1.0705  1.5627
11292TIP3    H255368   5.937   1.284  13.808 -1.3728 -0.7313  2.4540
11293TIP3   OH255369   0.804   5.098  12.064  0.0844 -0.4282  0.6933
11293TIP3    H155370   0.838   5.185  12.041 -1.2249 -0.3944 -1.2995
11293TIP3    H255371   0.883   5.045  12.078  1.0238  0.1541 -1.8227
11294TIP3   OH255372   4.464   4.229   1.490 -0.3317  0.3110  0.3531
11294TIP3    H155373   4.413   4.148   1.495 -1.2050  0.8759  0.8684
11294TIP3    H255374   4.438   4.269   1.407  0.0846  0.0674  0.1079
11295TIP3   OH255375   1.634   6.147   1.326 -0.2814  0.2648 -0.1370
11295TIP3    H155376   1.566   6.085   1.300  0.8239 -1.2169  0.3923
11295TIP3    H255377   1.655   6.195   1.246  1.2025 -2.3820 -1.4865
11296TIP3   OH255378   2.291   6.438  12.771  0.2330 -0.0669  0.4443
11296TIP3    H155379   2.299   6.532  12.755  0.5148 -0.0241  0.8086
11296TIP3    H255380   2.374   6.402  12.740 -0.9910 -0.6221 -2.5040
11297TIP3   OH255381   3.815   1.788  17.055  0.6353 -0.0550  0.1327
11297TIP3    H155382   3.735   1.759  17.012  2.1325 -4.5735 -0.0824
11297TIP3    H255383   3.797   1.780  17.149  0.1298  1.4422  0.1988
11298TIP3   OH255384   5.882   2.896  12.303 -0.4308  0.3023 -0.4898
11298TIP3    H155385   5.895   2.914  12.396 -0.9290 -1.4101 -0.0588
11298TIP3    H255386   5.819   2.962  12.274 -0.4573  0.6972  0.4435
11299TIP3   OH255387   1.132   0.466  13.473 -0.2298  0.1195  0.0813
11299TIP3    H155388   1.070   0.399  13.445 -0.0306  0.3787 -1.0442
11299TIP3    H255389   1.078   0.537  13.507 -0.4313 -0.7431  1.6711
11300TIP3   OH255390   5.153   4.930  13.413  0.0102 -0.1071 -0.4736
11300TIP3    H155391   5.146   4.838  13.391  0.4360  0.1178 -1.5978
11300TIP3    H255392   5.179   4.973  13.332 -1.0157  1.1295 -0.1729
11301TIP3   OH255393   2.572   4.126  17.020 -0.3135 -0.5705 -0.3717
11301TIP3    H155394   2.614   4.127  17.106 -1.1113  1.6304  0.0579
11301TIP3    H255395   2.478   4.129  17.039 -0.4842  0.8107 -1.2806
11302TIP3   OH255396   1.274   0.215  16.592 -0.1589  0.2962 -0.2406
11302TIP3    H155397   1.180   0.231  16.588 -0.3296 -0.8154 -0.9224
11302TIP3    H255398   1.312   0.302  16.608 -1.2723  0.7870 -0.1561
11303TIP3   OH255399   4.667   5.984  12.156 -0.2677 -0.7492 -0.1957
11303TIP3    H155400   4.669   6.000  12.251 -0.4028  0.0894 -0.3294
11303TIP3    H255401   4.579   6.012  12.129  0.2168  0.2637 -0.7755
11304TIP3   OH255402   3.484   0.461   1.244  0.0010 -0.3156 -0.5157
11304TIP3    H155403   3.574   0.493   1.258  0.7689 -1.6694 -2.0598
11304TIP3    H255404   3.437   0.490   1.322  1.2931  2.1051 -0.5245
11305TIP3   OH255405   3.404   4.738  16.424  0.1066 -0.5333  0.3878
11305TIP3    H155406   3.496   4.712  16.435 -0.4716 -3.7718 -1.2421
11305TIP3    H255407   3.371   4.749  16.513  1.9108  0.2513  1.0070
11306TIP3   OH255408   5.732   2.995  13.767  0.6996 -0.6462 -0.3180
11306TIP3    H155409   5.664   2.942  13.808 -1.0041  0.6663 -1.2995
11306TIP3    H255410   5.746   3.067  13.829  0.0045 -0.0485 -0.8484
11307TIP3   OH255411   2.269   4.629  17.035 -0.2828 -0.3438 -0.1526
11307TIP3    H155412   2.232   4.717  17.031  2.2372  0.8871  1.2516
11307TIP3    H255413   2.316   4.619  16.953 -2.8967 -1.6570 -1.6433
11308TIP3   OH255414   6.567   4.686  15.070 -0.4326  0.2328  0.2793
11308TIP3    H155415   6.620   4.692  15.149 -1.0636 -0.6727  0.7952
11308TIP3    H255416   6.628   4.662  15.001  0.0048  0.2559  0.6570
11309TIP3   OH255417   4.389   3.725  16.145  0.3721 -0.3942 -0.1232
11309TIP3    H155418   4.364   3.689  16.230  1.8490 -0.8393  0.1613
11309TIP3    H255419   4.455   3.663  16.111 -0.9285 -0.8114 -2.0821
11310TIP3   OH255420   0.168   1.847   1.805 -0.3304 -0.3522 -0.2582
11310TIP3    H155421   0.202   1.896   1.731 -1.7481 -0.2943 -0.9028
11310TIP3    H255422   0.118   1.776   1.766  1.5588 -2.2982  0.6579
11311TIP3   OH255423   5.711   3.571  12.170 -0.3163 -0.5801  0.2241
11311TIP3    H155424   5.663   3.590  12.090  0.6746  1.0627 -0.0234
11311TIP3    H255425   5.667   3.623  12.237 -0.1055 -0.6346  0.4058
11312TIP3   OH255426   4.092   4.889  13.825  0.4574  0.1743  0.1615
11312TIP3    H155427   4.061   4.902  13.735 -2.6761  1.0858  1.2211
11312TIP3    H255428   4.063   4.800  13.847  0.0818  0.4154  0.6556
11313TIP3   OH255429   6.320   1.157   1.914  0.0710  0.4222 -0.0529
11313TIP3    H155430   6.410   1.181   1.892  0.0905  0.8060  0.4510
11313TIP3    H255431   6.327   1.109   1.996 -0.0616 -0.5959 -0.6122
11314TIP3   OH255432   4.679   4.869   1.376 -0.2885  0.0338  0.7747
11314TIP3    H155433   4.599   4.871   1.428 -2.3712  1.7576 -2.1515
11314TIP3    H255434   4.664   4.801   1.311 -0.4976  1.8793 -1.2378
11315TIP3   OH255435   5.586   2.566  11.900  0.1090 -0.2223 -0.2978
11315TIP3    H155436   5.558   2.479  11.926  0.2508 -0.3415 -0.5506
11315TIP3    H255437   5.545   2.581  11.815 -2.6695  1.2563  1.1267
11316TIP3   OH255438   0.130   6.199   3.129  1.3115 -0.0747  0.0594
11316TIP3    H155439   0.209   6.164   3.090  1.0272  0.6335 -1.2130
11316TIP3    H255440   0.067   6.203   3.057 -0.2018 -1.4502  1.2038
11317TIP3   OH255441   2.443   6.509  14.617 -0.0037 -0.0544  0.3046
11317TIP3    H155442   2.481   6.531  14.531 -0.5596  2.4405  0.6357
11317TIP3    H255443   2.516   6.470  14.665 -0.0164 -2.9027 -1.6667
11318TIP3   OH255444   4.400   0.073   4.375 -0.7713  0.1315  0.3378
11318TIP3    H155445   4.328   0.040   4.429 -1.7132  0.5039 -0.6522
11318TIP3    H255446   4.457  -0.003   4.363 -1.0096 -0.1832  1.1017
11319TIP3   OH255447   4.820   5.867  13.851  0.3410 -0.0843  0.3462
11319TIP3    H155448   4.791   5.957  13.860  1.1963  0.8045 -3.6577
11319TIP3    H255449   4.914   5.870  13.871  0.5785  0.1804 -0.7414
11320TIP3   OH255450   5.116   2.513   3.214  0.4816  0.4993  0.4516
11320TIP3    H155451   5.067   2.596   3.218 -1.2670 -0.5051  1.2045
11320TIP3    H255452   5.122   2.485   3.305  0.7756 -0.3649  0.1717
11321TIP3   OH255453   4.437   2.881  15.363  0.0646 -0.0812  0.1485
11321TIP3    H155454   4.431   2.791  15.334  1.5185  0.1194 -0.8944
11321TIP3    H255455   4.396   2.882  15.449 -2.3882 -1.1556 -0.9213
11322TIP3   OH255456   6.765   1.744   5.294  0.5295  0.4444  0.5730
11322TIP3    H155457   6.778   1.792   5.376  0.2174  3.5794 -1.0656
11322TIP3    H255458   6.705   1.798   5.244 -0.4323 -2.1036 -1.2387
11323TIP3   OH255459   4.680   5.875   5.610  1.0722 -1.2795  0.1772
11323TIP3    H155460   4.669   5.966   5.583 -0.7903 -1.3254  0.6338
11323TIP3    H255461   4.728   5.833   5.538  1.4347 -0.0845 -0.2915
11324TIP3   OH255462   3.394   0.691   4.133  0.4560  0.2544 -0.2178
11324TIP3    H155463   3.433   0.649   4.209  0.4269 -0.7300 -0.7365
11324TIP3    H255464   3.302   0.704   4.157  0.5073  0.2011  0.0099
11325TIP3   OH255465   5.671   3.207  12.866  0.1397  0.0321 -0.8295
11325TIP3    H155466   5.589   3.171  12.833  0.8216 -1.1036 -1.3932
11325TIP3    H255467   5.668   3.191  12.961  0.0529 -0.7736 -0.9580
11326TIP3   OH255468   1.209   0.039  14.427  0.1537 -0.5679  0.0852
11326TIP3    H155469   1.133   0.025  14.483  0.9638 -0.9126  1.1389
11326TIP3    H255470   1.240   0.126  14.449 -0.1492 -0.2693 -0.6269
11327TIP3   OH255471   6.507   6.812   1.400 -0.2026 -0.0489  0.3798
11327TIP3    H155472   6.439   6.868   1.363  0.1583 -0.8384 -1.5611
11327TIP3    H255473   6.461   6.733   1.429 -0.2704 -0.0824  0.1784
11328TIP3   OH255474   5.902   3.516   5.225  0.1231  0.0581 -0.2601
11328TIP3    H155475   5.862   3.437   5.190  1.8507 -0.7081 -0.6214
11328TIP3    H255476   5.856   3.588   5.182 -0.1001 -0.7965 -1.4991
11329TIP3   OH255477   1.428   1.531   5.449 -0.9203  0.3450  0.7235
11329TIP3    H155478   1.362   1.590   5.412 -0.1935 -1.0594 -3.3361
11329TIP3    H255479   1.399   1.443   5.425  2.6285 -0.3081 -2.1207
11330TIP3   OH255480   0.498   2.871  15.947  0.2582  0.0989  0.3597
11330TIP3    H155481   0.403   2.865  15.932  0.0316  0.2784  1.6441
11330TIP3    H255482   0.534   2.800  15.894 -0.6994 -0.6717  0.6969
11331TIP3   OH255483   3.951   3.927  13.125 -0.1889  0.7075 -0.4514
11331TIP3    H155484   3.860   3.947  13.149 -1.0411 -0.3120 -2.5280
11331TIP3    H255485   3.953   3.938  13.030  1.6753 -0.0163 -0.5331
11332TIP3   OH255486   6.184   3.235   3.904 -0.4277  0.3835 -0.5212
11332TIP3    H155487   6.226   3.150   3.889 -1.1182 -0.3088  1.1532
11332TIP3    H255488   6.135   3.252   3.824 -0.1246 -0.7191 -0.9567
11333TIP3   OH255489   2.907   6.085   4.107  0.3659 -0.1736  0.6532
11333TIP3    H155490   2.948   6.131   4.034 -1.2417  1.5114  0.7119
11333TIP3    H255491   2.937   5.995   4.100  1.6738  0.3498 -0.9956
11334TIP3   OH255492   5.451   2.842   1.588 -0.0407  0.2421  1.0328
11334TIP3    H155493   5.483   2.758   1.621 -2.8835 -0.1033  3.3252
11334TIP3    H255494   5.509   2.907   1.629  1.4925 -0.5058  0.1274
11335TIP3   OH255495   4.242   6.622   0.156 -1.2263  0.0514 -0.9097
11335TIP3    H155496   4.329   6.595   0.127 -0.5784  0.0448  0.8961
11335TIP3    H255497   4.181   6.565   0.109 -0.2299 -0.3136 -1.7847
11336TIP3   OH255498   6.679   5.101   4.072  0.3292 -0.4896  0.0793
11336TIP3    H155499   6.754   5.061   4.028 -1.4975 -4.3349  0.0544
11336TIP3    H255500   6.706   5.108   4.164  1.2830 -0.2774 -0.2146
11337TIP3   OH255501   4.316   1.683   3.783  0.0690 -0.1378 -0.0080
11337TIP3    H155502   4.334   1.746   3.713  0.3640 -0.9080 -0.6446
11337TIP3    H255503   4.222   1.692   3.799  0.1896  0.7836  0.2342
11338TIP3   OH255504   1.456   1.828   1.777  0.3775 -0.5938 -0.0525
11338TIP3    H155505   1.487   1.855   1.864 -1.3074  1.0648  0.1080
11338TIP3    H255506   1.524   1.770   1.744  2.3688  0.8854  1.2467
11339TIP3   OH255507   4.870   4.409   4.039 -0.1100  0.2361 -0.8840
11339TIP3    H155508   4.779   4.434   4.026 -1.0001 -2.4494 -0.5543
11339TIP3    H255509   4.894   4.447   4.123 -1.3835 -0.0922 -0.3504
11340TIP3   OH255510   2.423   1.804  17.036 -0.3130  0.4823  0.2093
11340TIP3    H155511   2.485   1.732  17.019  0.1626  0.6592  1.1519
11340TIP3    H255512   2.359   1.797  16.965 -0.9518 -1.6121  0.9058
11341TIP3   OH255513   3.236   6.411  11.488 -0.1623  0.3396 -0.2391
11341TIP3    H155514   3.239   6.317  11.467 -0.5883  0.1758  0.4010
11341TIP3    H255515   3.145   6.436  11.472 -0.1951  0.4979  0.1830
11342TIP3   OH255516   0.958   1.017  14.885  0.0332  0.2285 -0.0152
11342TIP3    H155517   0.971   1.109  14.910 -1.1958  0.2512  0.5796
11342TIP3    H255518   0.875   1.016  14.838  0.9045 -0.3049 -1.6030
11343TIP3   OH255519   5.208   4.361   5.722  0.3249  0.0252  0.1277
11343TIP3    H155520   5.284   4.331   5.773  0.3882 -0.2199 -0.1094
11343TIP3    H255521   5.218   4.318   5.637  0.6039  0.9930 -0.3382
11344TIP3   OH255522   6.332   0.340   2.902 -0.5126  0.1497 -0.6928
11344TIP3    H155523   6.385   0.418   2.918  2.4432 -1.7309 -0.6364
11344TIP3    H255524   6.345   0.286   2.980 -2.3108 -0.5384 -0.8281
11345TIP3   OH255525   0.753   2.834   0.425 -0.6872  0.0704 -0.4813
11345TIP3    H155526   0.671   2.786   0.414 -0.3521 -0.8457  0.7524
11345TIP3    H255527   0.775   2.822   0.518  0.7053  0.5204 -0.7271
11346TIP3   OH255528   5.156   2.950   4.845 -0.6035  0.1460 -0.3901
11346TIP3    H155529   5.074   2.972   4.889 -1.3977  0.5342 -2.0196
11346TIP3    H255530   5.155   3.000   4.764  0.9723 -0.3179 -0.7379
11347TIP3   OH255531   4.099   0.991   5.818 -0.3733  0.3254  0.1969
11347TIP3    H155532   4.175   1.010   5.763 -0.4745 -0.7975 -0.3532
11347TIP3    H255533   4.050   1.073   5.821 -0.5332  0.3408 -1.6771
11348TIP3   OH255534   2.017   5.765   0.087 -0.3609  0.3916 -0.2428
11348TIP3    H155535   2.051   5.833   0.029  1.1948 -0.0373  0.1277
11348TIP3    H255536   2.088   5.702   0.095 -0.4925  0.4538  2.1797
11349TIP3   OH255537   3.175   5.736   1.847 -0.2129 -0.3672  0.5018
11349TIP3    H155538   3.132   5.717   1.764 -0.3911 -0.9680  0.7220
11349TIP3    H255539   3.206   5.826   1.838  2.2918 -1.2856 -1.3352
11350TIP3   OH255540   5.019   3.051   1.212  0.2088 -0.0807 -0.1777
11350TIP3    H155541   5.011   3.145   1.226  0.6015 -0.1994  0.9046
11350TIP3    H255542   5.001   3.040   1.119  0.9702  1.1574 -0.4983
11351TIP3   OH255543   1.244   3.472   0.459 -0.1165  0.7426  0.2626
11351TIP3    H155544   1.265   3.398   0.516 -0.2016  1.2760  1.0051
11351TIP3    H255545   1.162   3.507   0.495 -1.3074 -0.1469 -1.4339
11352TIP3   OH255546   5.259   3.891  11.220 -0.0991  0.2717  0.2099
11352TIP3    H155547   5.181   3.921  11.174  0.4717 -0.3662 -1.2382
11352TIP3    H255548   5.288   3.814  11.170  1.0366  0.0670  1.1443
11353TIP3   OH255549   3.498   5.949   4.834 -0.0651  0.2852  0.1018
11353TIP3    H155550   3.542   6.015   4.780  1.5573 -0.6008  0.2736
11353TIP3    H255551   3.471   5.882   4.772  1.7089 -0.6844  0.3204
11354TIP3   OH255552   6.037   5.113  15.390 -0.4158  0.4036 -0.2503
11354TIP3    H155553   6.054   5.057  15.465 -4.0634  0.5403  0.8845
11354TIP3    H255554   6.071   5.199  15.415  2.9050 -0.5540 -0.9669
11355TIP3   OH255555   0.473   5.093   0.990  0.2808 -0.1718 -0.2224
11355TIP3    H155556   0.392   5.144   0.990  0.8874  0.8460  0.9839
11355TIP3    H255557   0.522   5.127   0.915  0.3967  0.5484  0.1756
11356TIP3   OH255558   2.299   1.198  14.913 -0.2598  0.9818  0.3097
11356TIP3    H155559   2.279   1.282  14.955 -0.0640  0.7963  0.7795
11356TIP3    H255560   2.295   1.134  14.984 -0.3937  0.5927 -0.0440
11357TIP3   OH255561   1.156   2.702   1.680 -0.6331  0.0132 -0.5169
11357TIP3    H155562   1.110   2.751   1.612 -2.3165 -0.6338  0.0954
11357TIP3    H255563   1.094   2.634   1.706  1.6574 -2.7093 -1.5542
11358TIP3   OH255564   5.308   1.853  14.933  0.2702  0.5292 -0.4399
11358TIP3    H155565   5.372   1.823  14.869  0.5694  0.2296 -0.0043
11358TIP3    H255566   5.269   1.772  14.968 -0.6085  0.7121 -0.9580
11359TIP3   OH255567   5.391   3.831   2.655  0.5939  0.3507  0.3309
11359TIP3    H155568   5.318   3.873   2.701  0.0138 -0.5762  0.2705
11359TIP3    H255569   5.439   3.784   2.723  0.5024  0.0709  0.2049
11360TIP3   OH255570   5.480   2.087  11.845 -0.1821  0.2253  0.0214
11360TIP3    H155571   5.510   2.032  11.918 -0.4216  0.9984  0.7161
11360TIP3    H255572   5.439   2.025  11.784  1.2796 -0.6189 -0.1442
11361TIP3   OH255573   1.155   0.897   4.522 -0.1932  0.3375 -0.1922
11361TIP3    H155574   1.220   0.857   4.580 -0.0152  0.3975 -0.3500
11361TIP3    H255575   1.098   0.824   4.497  0.4387  0.0693 -0.8935
11362TIP3   OH255576   1.559   3.279  11.690 -0.3519 -0.1551  0.6502
11362TIP3    H155577   1.532   3.251  11.777 -0.1726  2.4775  1.6551
11362TIP3    H255578   1.500   3.352  11.669 -0.1801 -0.5169 -1.3163
11363TIP3   OH255579   1.444   2.907  16.061 -0.0492 -0.6406  0.6113
11363TIP3    H155580   1.417   2.817  16.083 -0.9840 -1.5852 -3.5199
11363TIP3    H255581   1.508   2.896  15.991 -0.0597  1.9309  0.1090
11364TIP3   OH255582   4.093   1.134   2.657 -0.3469 -0.1876  0.6929
11364TIP3    H155583   4.044   1.195   2.602 -0.0562  0.5214  1.1946
11364TIP3    H255584   4.026   1.085   2.704 -0.6153  1.2311  1.8637
11365TIP3   OH255585   2.286   2.089  16.537 -0.8208 -0.0654  0.9258
11365TIP3    H155586   2.289   2.151  16.610 -2.0119  1.5796 -0.3188
11365TIP3    H255587   2.296   2.003  16.577  0.0550  0.8768  2.8311
11366TIP3   OH255588   5.797   0.304  13.474 -0.0889 -0.1642  0.0845
11366TIP3    H155589   5.733   0.276  13.408  0.9812 -1.8706 -0.2853
11366TIP3    H255590   5.781   0.246  13.548  1.1552 -0.7610 -0.0971
11367TIP3   OH255591   0.940   1.844  14.085  0.9804 -0.2094  0.0640
11367TIP3    H155592   0.855   1.844  14.040  0.5471  0.2658  0.8642
11367TIP3    H255593   1.004   1.863  14.017  0.2922  0.8927 -0.2848
11368TIP3   OH255594   1.153   4.367  16.579  0.2729  0.0542 -0.5849
11368TIP3    H155595   1.111   4.387  16.662  1.4728 -0.8613  0.2705
11368TIP3    H255596   1.203   4.286  16.595  0.8400  0.0640 -2.0765
11369TIP3   OH255597   1.073   5.920  17.056  0.1276 -0.6121 -0.9761
11369TIP3    H155598   1.100   5.957  17.140 -1.5808  0.7956 -0.9904
11369TIP3    H255599   1.130   5.844  17.044  0.8514 -0.4720  1.1339
11370TIP3   OH255600   0.894   3.265  12.092 -0.1815 -0.5788 -0.5029
11370TIP3    H155601   0.876   3.193  12.031 -1.0972  0.5527 -1.6184
11370TIP3    H255602   0.963   3.316  12.049 -0.1039 -0.3319 -0.0926
11371TIP3   OH255603   3.756   4.665  12.234 -0.0840  0.0296 -0.1686
11371TIP3    H155604   3.775   4.751  12.197  1.2401 -0.0095  0.3657
11371TIP3    H255605   3.732   4.682  12.325  1.2713 -0.2195  0.2626
11372TIP3   OH255606   2.891   5.945   0.398 -0.3895  0.5935 -0.1561
11372TIP3    H155607   2.877   6.034   0.365  0.6448  0.5058 -0.8628
11372TIP3    H255608   2.928   5.897   0.324 -1.8223 -0.6968 -0.0683
11373TIP3   OH255609   6.366   3.522  12.823 -0.0039 -0.4474 -0.1763
11373TIP3    H155610   6.322   3.540  12.740  0.4904 -0.9802 -0.5586
11373TIP3    H255611   6.372   3.608  12.866  0.8110  0.0283 -1.2167
11374TIP3   OH255612   2.177   5.267  11.891  0.1593  0.4220  0.4572
11374TIP3    H155613   2.103   5.209  11.910 -0.0856  1.1544  1.9164
11374TIP3    H255614   2.194   5.312  11.974  1.4263  1.2017 -0.1907
11375TIP3   OH255615   1.523   5.600  10.853  0.2046  0.3254  0.2282
11375TIP3    H155616   1.547   5.554  10.773  0.7978 -0.1016  0.6319
11375TIP3    H255617   1.560   5.687  10.843 -1.4123  0.9366 -0.7860
11376TIP3   OH255618   0.369   6.806   2.905 -0.7082  0.6268  0.0269
11376TIP3    H155619   0.450   6.771   2.867 -1.3835  0.2205 -1.0855
11376TIP3    H255620   0.317   6.728   2.925  0.0611  0.7575  2.8987
11377TIP3   OH255621   0.123   4.910   4.345 -0.0066  0.7025  0.4148
11377TIP3    H155622   0.053   4.861   4.302 -1.1202  0.9101  1.8983
11377TIP3    H255623   0.135   4.865   4.429 -0.2174  2.2061  1.2918
11378TIP3   OH255624   4.106   4.815  12.289 -0.4565  0.1881 -0.2155
11378TIP3    H155625   4.076   4.749  12.226 -2.3800  0.9795 -0.2223
11378TIP3    H255626   4.201   4.808  12.288 -0.4182 -0.1198 -2.9352
11379TIP3   OH255627   5.159   1.359  11.389  0.0181  0.3833 -0.1046
11379TIP3    H155628   5.232   1.402  11.344 -0.3180 -0.8276 -1.9185
11379TIP3    H255629   5.169   1.266  11.368 -1.8093  0.1346 -0.0415
11380TIP3   OH255630   3.396   0.837   5.127 -0.2584 -0.7354  0.5748
11380TIP3    H155631   3.400   0.743   5.144  2.5845 -0.6717  0.7381
11380TIP3    H255632   3.414   0.845   5.034 -1.6617 -0.3829  0.3209
11381TIP3   OH255633   4.573   1.576   2.068  0.2945  0.0289 -0.2833
11381TIP3    H155634   4.525   1.621   1.999 -0.8980 -1.2069 -0.3109
11381TIP3    H255635   4.563   1.632   2.145 -0.1844  0.3840 -0.5981
11382TIP3   OH255636   0.200   4.736  12.290 -0.2025 -0.3407  0.2750
11382TIP3    H155637   0.280   4.759  12.243  1.0392 -0.4513  2.2393
11382TIP3    H255638   0.129   4.773  12.237  1.2074  0.7773 -0.9025
11383TIP3   OH255639   4.964   3.846   3.854 -0.1413 -0.0153  0.9716
11383TIP3    H155640   4.879   3.822   3.891 -0.8252  0.6173 -0.1518
11383TIP3    H255641   4.992   3.768   3.806 -0.1844 -0.1534  1.1701
11384TIP3   OH255642   5.324   4.271  16.073  0.6243 -0.6881 -0.5018
11384TIP3    H155643   5.265   4.299  16.143  0.2196  0.2248 -1.1764
11384TIP3    H255644   5.405   4.249  16.117  0.9830  1.6066  0.1332
11385TIP3   OH255645   4.638   4.896  11.515 -0.3290 -0.3810 -0.2325
11385TIP3    H155646   4.703   4.827  11.524  0.7078  0.6415  0.5513
11385TIP3    H255647   4.594   4.878  11.432  0.2631 -1.6708 -0.2828
11386TIP3   OH255648   0.374   1.183   4.147  0.3529  0.6180  0.0459
11386TIP3    H155649   0.365   1.278   4.145  0.7999  0.6621 -0.1368
11386TIP3    H255650   0.286   1.149   4.135  0.4315  0.9972 -1.8081
11387TIP3   OH255651   3.517   6.023  11.592 -0.4172  0.0800  0.0449
11387TIP3    H155652   3.555   5.987  11.671 -0.5926 -0.2982 -0.0429
11387TIP3    H255653   3.524   5.953  11.527  1.3712  0.9733 -0.8072
11388TIP3   OH255654   1.053   5.239   0.037 -0.2429  0.2334 -0.1881
11388TIP3    H155655   1.080   5.243   0.129 -0.8838 -0.3325  0.0325
11388TIP3    H255656   1.132   5.261  -0.012 -0.4485  2.9580  0.5368
11389TIP3   OH255657   5.875   1.878  16.859 -0.1252  0.4016 -0.1705
11389TIP3    H155658   5.901   1.888  16.768  1.7583  1.9299  0.4755
11389TIP3    H255659   5.958   1.871  16.907 -1.0083  1.6918  1.6352
11390TIP3   OH255660   0.012   4.370   2.527  0.1660 -0.4494  0.3266
11390TIP3    H155661  -0.064   4.312   2.519  0.0492 -0.1090 -1.2915
11390TIP3    H255662  -0.025   4.456   2.550  0.2560 -0.7239  1.6041
11391TIP3   OH255663   6.820   2.337  13.226 -0.3966 -0.0219  0.4235
11391TIP3    H155664   6.791   2.409  13.169 -3.2779 -0.2978  1.3602
11391TIP3    H255665   6.769   2.261  13.196  0.8489 -1.1037  0.9739
11392TIP3   OH255666   5.694   1.697   5.288 -0.4425  0.2825 -0.1267
11392TIP3    H155667   5.719   1.724   5.376 -0.3540  0.3411 -0.1701
11392TIP3    H255668   5.691   1.601   5.292 -0.7000  0.2972  0.0115
11393TIP3   OH255669   4.102   0.164   2.491  0.2879 -0.4648 -0.1630
11393TIP3    H155670   4.007   0.159   2.480  0.0129 -0.3648  1.7614
11393TIP3    H255671   4.120   0.256   2.508  0.5357 -0.6861  0.8396
11394TIP3   OH255672   3.291   4.527   2.858 -0.3754  0.7078 -0.0207
11394TIP3    H155673   3.300   4.573   2.775 -2.2405  0.8402 -0.1910
11394TIP3    H255674   3.225   4.577   2.907  0.4970  0.4920  1.4383
11395TIP3   OH255675   1.203   0.718  13.091  0.0037 -0.1784 -0.4467
11395TIP3    H155676   1.135   0.661  13.127  0.2504 -1.8968 -2.5357
11395TIP3    H255677   1.195   0.707  12.996  2.1035  0.9017 -0.7935
11396TIP3   OH255678   5.093   1.414  15.227 -0.2298  0.1073  0.3493
11396TIP3    H155679   5.085   1.380  15.316 -1.6794  1.3284  0.7248
11396TIP3    H255680   5.005   1.406  15.190  0.1663  0.3770 -0.6805
11397TIP3   OH255681   5.801   2.525  14.663  0.2264  0.0536 -0.2613
11397TIP3    H155682   5.783   2.601  14.717  0.2367  2.3357 -3.2068
11397TIP3    H255683   5.725   2.468  14.676  0.3472  0.3758  2.2173
11398TIP3   OH255684   5.689   1.508  15.027 -0.5070 -0.3007 -0.4143
11398TIP3    H155685   5.762   1.569  15.012 -1.4722  1.4810  1.6516
11398TIP3    H255686   5.658   1.528  15.115 -2.8223 -1.7528 -0.8139
11399TIP3   OH255687   3.227   5.820   5.656  0.1930 -0.4546 -0.2772
11399TIP3    H155688   3.173   5.892   5.688 -1.3849 -1.7610  0.1092
11399TIP3    H255689   3.313   5.834   5.696  0.0175  1.3741 -0.4810
11400TIP3   OH255690   3.830   6.279  12.305  0.4804  0.7154  0.1315
11400TIP3    H155691   3.864   6.214  12.244  0.8459  0.0786  0.9860
11400TIP3    H255692   3.759   6.322  12.258  0.0692 -0.4804 -0.3739
11401TIP3   OH255693   5.105   0.446  16.587  0.0779 -0.0044 -0.1024
11401TIP3    H155694   5.121   0.353  16.570  0.1215  0.3711 -2.3655
11401TIP3    H255695   5.169   0.470  16.654  0.2637 -1.5115  0.3001
11402TIP3   OH255696   2.610   2.476   6.180  0.0129  0.7466  0.1680
11402TIP3    H155697   2.618   2.566   6.149  0.8539  1.1548  1.4734
11402TIP3    H255698   2.603   2.484   6.275  0.3208 -0.5702  0.3231
11403TIP3   OH255699   2.289   0.619  13.394 -0.1446  0.0618  0.2856
11403TIP3    H155700   2.303   0.663  13.310  1.5326  1.0877  1.0356
11403TIP3    H255701   2.194   0.613  13.403 -0.3457 -0.6095 -1.9264
11404TIP3   OH255702   1.927   6.038  10.713  0.3056 -0.4387 -0.2187
11404TIP3    H155703   1.977   6.091  10.774  0.9607 -1.6387  0.3233
11404TIP3    H255704   1.835   6.053  10.737  0.3670  1.6221 -1.1030
11405TIP3   OH255705   0.443   5.017   4.104  0.1810 -0.7869  0.4207
11405TIP3    H155706   0.466   5.109   4.116 -1.8358 -0.0913 -0.4711
11405TIP3    H255707   0.508   4.968   4.155  1.9127  1.0567  0.1046
11406TIP3   OH255708   1.382   6.323   2.221 -0.6249  0.3019 -0.0395
11406TIP3    H155709   1.303   6.311   2.274  0.2240 -0.6565  1.0795
11406TIP3    H255710   1.410   6.234   2.199  0.3511  0.6063 -0.0820
11407TIP3   OH255711   0.294   0.330   3.250  0.4170 -0.4122  0.3120
11407TIP3    H155712   0.368   0.318   3.191  0.4654  0.6472  0.1463
11407TIP3    H255713   0.313   0.271   3.323  1.7066  0.2286  0.5305
11408TIP3   OH255714   3.160   3.161   2.956  0.0516 -0.4140 -0.2617
11408TIP3    H155715   3.205   3.239   2.925 -3.5804  1.2670 -1.8745
11408TIP3    H255716   3.119   3.188   3.039  0.0424 -1.1026 -0.0352
11409TIP3   OH255717   5.589   6.416  14.567  0.4796  0.3691  0.1958
11409TIP3    H155718   5.594   6.320  14.569 -0.6735  0.2749 -0.7145
11409TIP3    H255719   5.637   6.443  14.645  0.4242 -0.9648  0.7308
11410TIP3   OH255720   2.362   6.462   1.067  0.0426  0.3201  0.3898
11410TIP3    H155721   2.346   6.475   1.160  0.0838  0.0799  0.4302
11410TIP3    H255722   2.279   6.428   1.033 -0.0609  0.6699  0.2864
11411TIP3   OH255723   2.579   6.195  15.750 -0.3692 -0.0291  0.2360
11411TIP3    H155724   2.564   6.196  15.655 -0.9127 -0.7487  0.3043
11411TIP3    H255725   2.524   6.124  15.782  0.4213 -0.3247  0.9942
11412TIP3   OH255726   4.571   5.480   0.663 -0.1214  0.4728 -0.4480
11412TIP3    H155727   4.614   5.467   0.578 -0.7778  0.3743 -0.7705
11412TIP3    H255728   4.511   5.553   0.648  1.0135  1.6348  0.4035
11413TIP3   OH255729   1.021   4.549  12.161  0.4407  0.4375 -0.0816
11413TIP3    H155730   0.991   4.493  12.089 -0.0596 -0.0858  0.5246
11413TIP3    H255731   1.052   4.488  12.228  0.1273  0.8870  0.4827
11414TIP3   OH255732   0.790   5.395  13.011 -1.2035 -0.5269  0.0563
11414TIP3    H155733   0.714   5.384  13.069 -0.5385  1.7662  1.4616
11414TIP3    H255734   0.799   5.489  13.000  0.2158 -0.8188 -1.8074
11415TIP3   OH255735   6.205   3.207  12.028  0.0005 -0.1335  0.1088
11415TIP3    H155736   6.115   3.227  12.055 -0.4247 -2.4578  0.6570
11415TIP3    H255737   6.255   3.205  12.110  0.5980  1.2050 -0.1984
11416TIP3   OH255738   0.077   0.275  15.132 -0.7568  0.3623  0.0555
11416TIP3    H155739   0.040   0.213  15.070 -2.2898 -1.7082  2.8756
11416TIP3    H255740   0.151   0.229  15.171 -1.3694  0.6079  1.5570
11417TIP3   OH255741   2.064   4.260   5.036 -0.2317  0.1608 -0.3318
11417TIP3    H155742   2.003   4.279   5.107  0.9089  1.5982  0.3226
11417TIP3    H255743   2.015   4.279   4.956 -0.6895  1.1617  0.1725
11418TIP3   OH255744   0.832   0.581   5.797  0.1668  0.8076 -0.5507
11418TIP3    H155745   0.920   0.619   5.793 -0.2399  2.0995  1.4166
11418TIP3    H255746   0.834   0.522   5.872 -0.9384  1.6978  0.2071
11419TIP3   OH255747   2.739   1.531   1.582 -0.0792 -0.2549  0.1728
11419TIP3    H155748   2.667   1.591   1.562  0.3063 -0.1458 -0.9210
11419TIP3    H255749   2.726   1.509   1.675 -0.7154  0.8382  0.3621
11420TIP3   OH255750   6.324   4.297   5.504 -0.2488 -0.1551 -0.0118
11420TIP3    H155751   6.324   4.205   5.530 -2.6364 -0.2036  0.0702
11420TIP3    H255752   6.369   4.298   5.419  0.0730 -1.3558  0.1362
11421TIP3   OH255753   6.189   2.289  11.858  0.3166  0.5818  0.4747
11421TIP3    H155754   6.154   2.249  11.778 -1.2539  2.1887  0.2904
11421TIP3    H255755   6.122   2.273  11.924  1.2790 -0.1002  1.3219
11422TIP3   OH255756   0.647   4.851   0.247 -0.1015  0.0131  0.0320
11422TIP3    H155757   0.576   4.837   0.185 -1.7318  0.1242  1.7859
11422TIP3    H255758   0.642   4.944   0.269 -1.1578 -0.4859  2.1179
11423TIP3   OH255759   6.152   0.223  12.628 -0.3622 -0.1042 -0.0417
11423TIP3    H155760   6.114   0.237  12.541  0.4955  1.2562 -0.2321
11423TIP3    H255761   6.127   0.301  12.678 -0.9470 -0.9248  0.9987
11424TIP3   OH255762   6.479   2.493  13.358 -0.1853 -0.2021 -0.0624
11424TIP3    H155763   6.398   2.492  13.410  0.2268  0.8503  0.6558
11424TIP3    H255764   6.470   2.570  13.302  0.7797  0.5970  0.8354
11425TIP3   OH255765   4.710   4.073  12.809  0.0100  0.0919 -0.2242
11425TIP3    H155766   4.646   4.020  12.858  0.3447  0.4443  0.6026
11425TIP3    H255767   4.795   4.044  12.842  0.3470 -0.9933 -1.9326
11426TIP3   OH255768   6.003   2.040  13.027  0.3434  0.3952  0.4702
11426TIP3    H155769   6.038   1.962  12.984  0.9105  0.1008  1.4225
11426TIP3    H255770   5.924   2.062  12.978  0.2680 -0.6886  0.0909
11427TIP3   OH255771   3.538   6.320  11.941  0.3632  0.3020 -0.7288
11427TIP3    H155772   3.617   6.268  11.927  0.3015  0.0456 -0.1782
11427TIP3    H255773   3.509   6.345  11.854 -0.5643 -2.0405 -1.1529
11428TIP3   OH255774   6.563   6.069  13.875  0.4841 -0.4328  0.2351
11428TIP3    H155775   6.518   6.027  13.948 -0.8178  0.5526  0.0523
11428TIP3    H255776   6.617   6.137  13.916 -1.2979  1.0410  0.2501
11429TIP3   OH255777   6.362   3.214  14.025  0.4137 -0.0469  0.1479
11429TIP3    H155778   6.367   3.184  13.934 -1.0167 -1.2703  0.4257
11429TIP3    H255779   6.427   3.162  14.071 -0.3000 -0.9519  0.1670
11430TIP3   OH255780   5.059   3.644   2.762 -0.0950  0.5000  0.3326
11430TIP3    H155781   5.060   3.577   2.694 -0.7586  1.3368 -0.5351
11430TIP3    H255782   4.999   3.609   2.829 -0.0930  0.0352  0.0966
11431TIP3   OH255783   4.723   6.378  11.318  0.1410  0.4187  0.2620
11431TIP3    H155784   4.750   6.287  11.316  1.9706  0.9349 -2.0535
11431TIP3    H255785   4.642   6.381  11.267  1.1417  0.3521 -1.3751
11432TIP3   OH255786   0.366   4.317   1.048 -0.0705  0.1238 -0.9669
11432TIP3    H155787   0.389   4.365   1.127 -1.8397 -0.6246  0.0645
11432TIP3    H255788   0.307   4.376   1.000  0.7095  0.4302 -1.5749
11433TIP3   OH255789   1.917   5.158   4.593  0.6525 -0.5909  0.1177
11433TIP3    H155790   1.915   5.236   4.537  0.4784  0.3211  1.3544
11433TIP3    H255791   1.995   5.170   4.648 -0.9309  0.1965  2.3342
11434TIP3   OH255792   4.687   3.562   4.423 -0.4637 -0.2832  0.3045
11434TIP3    H155793   4.711   3.499   4.490 -0.5588 -0.8027 -0.1407
11434TIP3    H255794   4.592   3.550   4.412  0.0135 -2.5986 -2.2726
11435TIP3   OH255795   5.490   6.551   4.082 -0.5215  0.5344  0.3157
11435TIP3    H155796   5.443   6.467   4.081  0.1382  0.1491  1.1608
11435TIP3    H255797   5.420   6.617   4.083 -1.0438 -0.0141  0.7575
11436TIP3   OH255798   0.841   2.257   5.109  0.2723 -0.1332  0.6243
11436TIP3    H155799   0.895   2.194   5.157 -0.8391 -1.1567  0.5812
11436TIP3    H255800   0.902   2.328   5.087  1.5688 -1.1711  0.6818
11437TIP3   OH255801   6.784   2.068   0.382  0.0705  0.1505  0.2903
11437TIP3    H155802   6.849   2.004   0.354 -0.4706 -0.4304  0.3260
11437TIP3    H255803   6.733   2.085   0.302 -0.1099  0.1417  0.4034
11438TIP3   OH255804   5.049   0.222   5.852 -0.1043  0.0884 -0.2132
11438TIP3    H155805   4.990   0.231   5.927  1.1818 -0.3929  0.9111
11438TIP3    H255806   5.038   0.132   5.823 -1.0404  0.4446 -1.0118
11439TIP3   OH255807   5.626   2.060   5.254 -0.2498 -0.1963  0.5812
11439TIP3    H155808   5.620   2.156   5.261 -2.7496 -0.3214  1.0295
11439TIP3    H255809   5.591   2.028   5.337  0.5466 -1.5297  0.4251
11440TIP3   OH255810   4.392   0.827   2.368 -0.1826 -0.0440 -0.3710
11440TIP3    H155811   4.472   0.837   2.419 -1.5202  0.6645  1.7632
11440TIP3    H255812   4.350   0.913   2.371 -1.5979 -0.6951 -0.3534
11441TIP3   OH255813   3.842   4.761   1.951  0.3757 -0.0294 -1.1608
11441TIP3    H155814   3.884   4.676   1.969  1.2417  0.5475 -0.3762
11441TIP3    H255815   3.816   4.756   1.859  1.3995 -0.7395 -1.4293
11442TIP3   OH255816   2.482   2.569   2.041 -0.4848 -0.2970 -0.2316
11442TIP3    H155817   2.484   2.475   2.028  0.4923 -0.2476 -0.4761
11442TIP3    H255818   2.401   2.585   2.089  0.5763 -1.5390  2.1214
11443TIP3   OH255819   4.767   2.117   2.123 -0.1393 -0.2923 -0.4526
11443TIP3    H155820   4.828   2.112   2.197  0.6815 -0.1838 -1.1024
11443TIP3    H255821   4.732   2.206   2.127 -0.6605 -0.5157  0.2253
11444TIP3   OH255822   6.102   5.041   5.841  0.1250 -0.3052 -0.4299
11444TIP3    H155823   6.067   5.124   5.874  0.7932 -0.3803  0.5230
11444TIP3    H255824   6.031   4.978   5.854  0.6708 -0.5379  1.8339
11445TIP3   OH255825   0.782   2.584  14.656 -0.0992  0.1893 -0.0884
11445TIP3    H155826   0.748   2.597  14.745  0.6395  0.8252  0.1079
11445TIP3    H255827   0.816   2.669  14.630  2.5215 -0.6551  0.2389
11446TIP3   OH255828   3.030   5.398   5.745  0.1702 -0.4771  0.1800
11446TIP3    H155829   3.085   5.472   5.774  1.9838 -0.7696 -2.1707
11446TIP3    H255830   3.090   5.324   5.742 -0.0328 -0.6615 -3.1486
11447TIP3   OH255831   6.656   1.691  13.511 -0.3184  0.3524  0.1069
11447TIP3    H155832   6.600   1.768  13.502 -0.1119  0.4319 -0.6071
11447TIP3    H255833   6.733   1.711  13.457  0.6965  0.5017  1.5583
11448TIP3   OH255834   1.282   1.586   3.133  0.2946  0.3442  0.6726
11448TIP3    H155835   1.204   1.640   3.149  0.8882  1.1442  0.8966
11448TIP3    H255836   1.281   1.569   3.039 -1.0442 -1.0463  0.8923
11449TIP3   OH255837   5.218   6.363  13.077  0.6627 -0.5363  0.5347
11449TIP3    H155838   5.238   6.330  12.989 -0.6154  0.5680 -0.2171
11449TIP3    H255839   5.278   6.436  13.089 -0.5385  0.6403 -0.3249
11450TIP3   OH255840   5.654   2.357   0.252  0.2149 -0.3101 -0.4698
11450TIP3    H155841   5.621   2.316   0.172  0.4048 -0.6416 -0.3812
11450TIP3    H255842   5.730   2.304   0.276  1.5088  1.1168 -1.2896
11451TIP3   OH255843   3.381   3.155  12.773  0.1998  0.5220  0.1620
11451TIP3    H155844   3.354   3.080  12.721  1.8046 -1.3671  1.8974
11451TIP3    H255845   3.313   3.164  12.840  0.3458  0.1870  0.3561
11452TIP3   OH255846   4.166   1.583   5.714 -0.0499  0.0260  0.7313
11452TIP3    H155847   4.071   1.592   5.719  0.0778  1.0053  1.9226
11452TIP3    H255848   4.199   1.635   5.787  1.4302  0.1236  0.0399
11453TIP3   OH255849   1.232   2.309   5.321 -0.4439 -0.3007  0.1144
11453TIP3    H155850   1.275   2.394   5.310  0.7484 -0.9215 -0.1314
11453TIP3    H255851   1.189   2.293   5.237 -1.0443  0.2449  0.3055
11454TIP3   OH255852   1.995   6.077  16.139 -0.1899 -0.2720  0.7384
11454TIP3    H155853   1.991   6.169  16.162  0.1115 -0.4714  1.6425
11454TIP3    H255854   1.912   6.059  16.095  0.5076  0.8517 -1.1655
11455TIP3   OH255855   2.065   6.153   1.133  0.1275  0.1287  0.2242
11455TIP3    H155856   2.069   6.248   1.142 -0.5437  0.1733  0.0794
11455TIP3    H255857   2.135   6.132   1.071  1.3593  0.3460  1.4740
11456TIP3   OH255858   2.167   1.969   0.654  0.2827 -0.0479 -0.1876
11456TIP3    H155859   2.160   2.018   0.572 -0.9460  1.7494  0.9288
11456TIP3    H255860   2.208   2.029   0.715 -0.3974 -0.7341  0.9884
11457TIP3   OH255861   4.292   2.277  11.664  0.2904  0.4406 -0.6875
11457TIP3    H155862   4.265   2.244  11.749  0.7488  0.7974 -0.3937
11457TIP3    H255863   4.257   2.214  11.601 -1.1816  0.8702 -0.3353
11458TIP3   OH255864   5.206   4.253   5.465 -0.8924  0.3170 -0.2300
11458TIP3    H155865   5.134   4.242   5.403 -0.6507  1.2224 -0.6839
11458TIP3    H255866   5.285   4.236   5.414 -0.7693 -1.3132  0.4153
11459TIP3   OH255867   3.668   2.375  14.769 -0.2002  0.1184 -0.3651
11459TIP3    H155868   3.717   2.439  14.820  1.5199 -0.6037 -1.0053
11459TIP3    H255869   3.625   2.319  14.834 -0.5829  1.0644  0.2107
11460TIP3   OH255870   1.231   6.185   5.275 -0.9456  0.3647 -0.5551
11460TIP3    H155871   1.227   6.102   5.322  0.0831 -0.3244 -1.6265
11460TIP3    H255872   1.144   6.194   5.236 -1.4146  0.3505  0.4483
11461TIP3   OH255873   1.012   5.684  11.302 -0.6628 -0.5428  0.4701
11461TIP3    H155874   1.093   5.694  11.352 -1.1709 -1.1365  1.4354
11461TIP3    H255875   1.020   5.748  11.231  0.6588 -0.6094  0.5237
11462TIP3   OH255876   5.873   0.529  11.488  0.3783  0.4162 -0.1515
11462TIP3    H155877   5.918   0.567  11.563 -1.2453  0.0746  1.0409
11462TIP3    H255878   5.810   0.596  11.462  0.9497  0.5440 -1.2702
11463TIP3   OH255879   1.297   2.949   3.144 -0.3743 -0.1717 -0.0293
11463TIP3    H155880   1.249   3.016   3.094 -0.9508 -0.5739 -0.0204
11463TIP3    H255881   1.342   2.998   3.213 -1.0139  0.1778  0.1441
11464TIP3   OH255882   3.850   2.075  15.391  0.1329  0.3160  0.2303
11464TIP3    H155883   3.900   2.000  15.357  0.0150  0.6192 -0.6404
11464TIP3    H255884   3.898   2.101  15.470  0.8273  0.0264 -0.0809
11465TIP3   OH255885   3.788   3.377   2.474  0.4129 -0.2091 -0.1723
11465TIP3    H155886   3.790   3.342   2.563  0.3275 -1.2854 -0.5791
11465TIP3    H255887   3.851   3.449   2.475  1.1048 -0.8048  0.5204
11466TIP3   OH255888   5.679   2.793   0.063 -0.3761  0.3717  0.0153
11466TIP3    H155889   5.630   2.722   0.021  2.1796 -1.6018  0.1706
11466TIP3    H255890   5.675   2.774   0.156 -1.2717  1.5682  0.2486
11467TIP3   OH255891   2.155   4.090   1.288  0.2130  0.0104  0.3322
11467TIP3    H155892   2.136   4.088   1.382 -2.2157  1.8863 -0.0425
11467TIP3    H255893   2.142   4.181   1.263 -1.2312 -0.7972 -2.1939
11468TIP3   OH255894   2.962   4.229  12.712 -0.0292  0.0819 -0.1501
11468TIP3    H155895   3.003   4.192  12.791 -0.7792 -1.5670 -0.4824
11468TIP3    H255896   3.035   4.254  12.656  0.8133 -4.5202 -1.5516
11469TIP3   OH255897   1.434   3.981  14.924 -0.7106  0.4326 -0.3189
11469TIP3    H155898   1.502   3.915  14.913 -0.2334  0.9356 -0.3695
11469TIP3    H255899   1.378   3.946  14.994  0.6760  0.8936  1.0679
11470TIP3   OH255900   2.088   2.237   5.083 -0.5001  0.0525 -0.2087
11470TIP3    H155901   2.163   2.209   5.134 -0.4418  1.1531  0.3506
11470TIP3    H255902   2.125   2.284   5.008 -0.6132  0.5887  0.0624
11471TIP3   OH255903   2.334   1.215   2.042 -0.0242  0.5274 -0.4128
11471TIP3    H155904   2.395   1.217   1.968  0.1457  1.3169 -0.2585
11471TIP3    H255905   2.389   1.218   2.120 -0.2289  0.4716 -0.2634
11472TIP3   OH255906   0.492   3.650   2.245 -0.2348  0.1270  0.1365
11472TIP3    H155907   0.524   3.728   2.289 -1.6260  1.2151 -0.6838
11472TIP3    H255908   0.436   3.607   2.310 -1.4444  1.1705 -0.1599
11473TIP3   OH255909   4.750   2.335  16.736  0.1061 -0.5365 -0.2080
11473TIP3    H155910   4.656   2.324  16.725 -0.3027  2.5536 -0.6151
11473TIP3    H255911   4.786   2.324  16.648  0.0912 -1.2852 -0.1255
11474TIP3   OH255912   1.509   3.689  16.025  0.3997  0.1314  0.3550
11474TIP3    H155913   1.430   3.648  16.060  0.5078  0.0245  0.4753
11474TIP3    H255914   1.556   3.721  16.102  0.6526 -0.1268  0.3107
11475TIP3   OH255915   5.463   4.696  14.359  0.3353 -0.3665  0.2473
11475TIP3    H155916   5.497   4.774  14.315  1.9964 -0.7855  0.7124
11475TIP3    H255917   5.537   4.635  14.360  0.2910 -0.5323  3.2278
11476TIP3   OH255918   1.605   5.861  12.068  0.0423 -0.0293 -0.5825
11476TIP3    H155919   1.571   5.946  12.041 -1.1381 -0.7456 -1.4961
11476TIP3    H255920   1.624   5.816  11.985  1.5066 -0.3386 -0.1025
11477TIP3   OH255921   5.403   0.974  13.927  0.5331  0.1536 -0.1963
11477TIP3    H155922   5.378   1.043  13.866 -0.9942  1.1946  1.4866
11477TIP3    H255923   5.322   0.923  13.939  1.0100 -0.4864  0.3681
11478TIP3   OH255924   6.187   1.863  16.467 -0.0250  0.2613 -0.7315
11478TIP3    H155925   6.266   1.901  16.428 -0.9786  1.8032 -1.2314
11478TIP3    H255926   6.166   1.789  16.410  2.0096 -1.3445  0.4145
11479TIP3   OH255927   6.089   2.149   4.125 -0.2247 -0.1621 -0.3559
11479TIP3    H155928   6.180   2.131   4.151 -0.1218  1.3240  0.4680
11479TIP3    H255929   6.060   2.070   4.080  1.7960 -0.3289 -1.4819
11480TIP3   OH255930   5.937   2.857  16.598 -0.2707 -0.7231  0.1790
11480TIP3    H155931   5.989   2.833  16.521  0.0462  1.3066 -0.3223
11480TIP3    H255932   6.002   2.888  16.662 -0.7238  1.9417 -0.4955
11481TIP3   OH255933   1.531   6.518  13.836  0.0451 -0.0525  0.2099
11481TIP3    H155934   1.616   6.481  13.813 -0.3157 -0.9146  0.2189
11481TIP3    H255935   1.506   6.471  13.916 -1.5793 -1.6748 -1.1665
11482TIP3   OH255936   0.516   4.534   0.053  0.5052  0.0497 -0.5546
11482TIP3    H155937   0.485   4.622   0.030 -0.7913  0.0881  1.0859
11482TIP3    H255938   0.445   4.476   0.027  1.1487 -0.4650 -1.1826
11483TIP3   OH255939   1.212   3.748   4.038  0.7963  0.6034  0.1584
11483TIP3    H155940   1.122   3.720   4.051  1.3532 -1.7168 -0.4560
11483TIP3    H255941   1.261   3.706   4.109  1.7760 -0.6590 -1.1991
11484TIP3   OH255942   3.063   5.312   3.527 -0.0582 -0.6106 -0.1591
11484TIP3    H155943   3.020   5.379   3.472  1.0757  0.3447  0.0858
11484TIP3    H255944   3.143   5.290   3.480  0.6295 -0.2257  0.8038
11485TIP3   OH255945   6.770   3.448   5.584  0.7745 -0.1001 -0.2070
11485TIP3    H155946   6.861   3.466   5.608  1.5959 -1.5872 -1.9762
11485TIP3    H255947   6.767   3.459   5.489 -0.5002 -1.5424 -0.3803
11486TIP3   OH255948   6.575   2.747   5.385 -0.0802  0.6832  0.2540
11486TIP3    H155949   6.519   2.760   5.309  0.7047  0.6577 -0.3385
11486TIP3    H255950   6.592   2.836   5.418  1.5351  0.8882 -1.0492
11487TIP3   OH255951   2.809   2.487  14.349 -0.4710 -0.3925 -0.6115
11487TIP3    H155952   2.746   2.547  14.308  0.0401  2.0447  1.8425
11487TIP3    H255953   2.886   2.541  14.364  0.7389 -2.2273  0.0667
11488TIP3   OH255954   5.530   4.267   4.729 -0.0613 -0.1062 -0.2215
11488TIP3    H155955   5.583   4.229   4.659 -0.7695  0.3132 -0.9969
11488TIP3    H255956   5.586   4.262   4.807  0.7448 -0.5453 -0.8156
11489TIP3   OH255957   4.999   1.925   4.720  0.5296 -0.3538  0.0760
11489TIP3    H155958   4.957   1.853   4.766  1.3091 -1.2664 -0.5873
11489TIP3    H255959   4.926   1.980   4.689 -0.1069 -1.1573  0.1137
11490TIP3   OH255960   3.679   5.102   5.750 -0.4835  0.2643 -0.1866
11490TIP3    H155961   3.662   5.117   5.843  0.4888  1.4608 -0.1820
11490TIP3    H255962   3.602   5.137   5.705 -0.5665  0.4814  0.1260
11491TIP3   OH255963   4.337   1.924   1.491  0.3082  0.3877 -0.0514
11491TIP3    H155964   4.325   2.011   1.454 -2.9090  1.0745  2.1758
11491TIP3    H255965   4.414   1.933   1.548  0.8210  1.3652 -0.8744
11492TIP3   OH255966   2.737   4.965  13.805 -0.0993 -0.0874  0.1908
11492TIP3    H155967   2.692   5.036  13.759  1.0671  0.8312  0.4131
11492TIP3    H255968   2.812   5.007  13.847  0.7451 -1.4830  0.1618
11493TIP3   OH255969   5.984   0.463   4.503 -0.4780 -0.3596  0.3821
11493TIP3    H155970   6.028   0.536   4.547 -0.2001 -0.4503  0.2505
11493TIP3    H255971   6.043   0.438   4.433  0.8938 -2.7061  2.2263
11494TIP3   OH255972   2.647   6.564   2.359 -0.0493  0.3426 -0.0389
11494TIP3    H155973   2.728   6.538   2.403  0.3356  0.2515 -0.7745
11494TIP3    H255974   2.669   6.647   2.317 -0.5575  0.6711  0.3382
11495TIP3   OH255975   2.415   5.142   1.756 -0.0165 -0.0812 -0.0181
11495TIP3    H155976   2.462   5.162   1.837  2.1000 -1.5843 -0.8015
11495TIP3    H255977   2.339   5.092   1.784 -0.8177  1.7111  1.2151
11496TIP3   OH255978   4.413   4.306  12.075  0.1760  0.1639  0.3858
11496TIP3    H155979   4.396   4.310  11.981  1.2923 -1.1691  0.0864
11496TIP3    H255980   4.496   4.259  12.082  0.9749  1.7085  1.9695
11497TIP3   OH255981   6.131   6.535  16.268  0.3098  0.3755  0.5307
11497TIP3    H155982   6.103   6.445  16.281 -0.8912  0.6887  0.2262
11497TIP3    H255983   6.071   6.587  16.322 -0.6305  1.1855 -1.2271
11498TIP3   OH255984   4.546   2.099  13.096  0.5630  0.2792  0.2244
11498TIP3    H155985   4.537   2.010  13.061 -1.9050  0.5098  0.1144
11498TIP3    H255986   4.591   2.147  13.027  0.6130 -0.5536 -0.3444
11499TIP3   OH255987   1.703   5.349   6.701 -0.7393  0.1822  0.4397
11499TIP3    H155988   1.717   5.258   6.677  1.7252  0.8494 -1.0266
11499TIP3    H255989   1.608   5.360   6.701 -1.0553 -2.1018 -0.3486
11500TIP3   OH255990   5.960   3.982  12.068  0.4155 -0.2670 -0.2855
11500TIP3    H155991   6.001   3.936  12.141  0.5303  2.5840  1.5707
11500TIP3    H255992   5.867   3.985  12.090  0.1295 -1.0790 -1.2870
11501TIP3   OH255993   6.718   6.106   0.849  0.3402 -0.3814  0.0566
11501TIP3    H155994   6.732   6.181   0.907 -0.9832  0.0330 -0.1233
11501TIP3    H255995   6.806   6.081   0.821  0.9688 -0.1839  1.7123
11502TIP3   OH255996   4.352   6.664  12.049 -0.0400  0.2862 -0.5444
11502TIP3    H155997   4.264   6.682  12.017 -0.7709 -1.9698  0.0119
11502TIP3    H255998   4.343   6.584  12.102  2.0027  1.0122  1.0714
11503TIP3   OH255999   6.622   1.465  11.111 -0.5111  0.0399 -0.3501
11503TIP3    H156000   6.618   1.370  11.126 -0.6521  0.1175  0.1131
11503TIP3    H256001   6.694   1.476  11.049  0.1202 -0.2923  0.2983
11504TIP3   OH256002   5.052   2.894   1.423  0.3529 -0.0025  0.7157
11504TIP3    H156003   5.013   2.955   1.360 -0.3810 -2.0410 -0.9116
11504TIP3    H256004   5.144   2.923   1.431 -0.2039  1.8764  0.8039
11505TIP3   OH256005   5.883   2.392  15.229  0.6065 -0.4355 -0.6256
11505TIP3    H156006   5.805   2.347  15.261  1.3297 -0.4937  1.1496
11505TIP3    H256007   5.941   2.322  15.199  0.0311 -0.3952 -1.8937
11506TIP3   OH256008   6.763   3.663   5.273  0.2729  0.0248 -0.3558
11506TIP3    H156009   6.786   3.713   5.351 -0.5390 -1.7967  1.1458
11506TIP3    H256010   6.708   3.591   5.305  0.9752 -1.5632 -2.4041
11507TIP3   OH256011   5.604   3.033   3.710 -0.1074  0.2792 -0.0421
11507TIP3    H156012   5.689   3.005   3.675 -1.1557 -2.7539 -0.4954
11507TIP3    H256013   5.623   3.061   3.800  1.5026  0.7359 -0.4988
11508TIP3   OH256014   4.447   0.826   4.986 -0.2597 -0.1026 -0.0621
11508TIP3    H156015   4.526   0.879   4.994 -1.2718  1.3169  0.9223
11508TIP3    H256016   4.451   0.791   4.897  1.2429  0.3166 -0.1800
11509TIP3   OH256017   3.173   2.069  13.337  0.4213  0.1580  0.3876
11509TIP3    H156018   3.123   2.086  13.258  0.3706  0.4022  0.4692
11509TIP3    H256019   3.231   2.145  13.345 -0.1456  0.5357  1.0233
11510TIP3   OH256020   4.308   4.835   3.822  0.5617  0.1963  0.2772
11510TIP3    H156021   4.283   4.756   3.774 -0.9509  0.3585  0.7539
11510TIP3    H256022   4.365   4.804   3.892  1.6500 -0.2049 -0.7496
11511TIP3   OH256023   5.105   6.700  12.617  0.0113  0.0997  0.1195
11511TIP3    H156024   5.138   6.616  12.583  0.8795  0.5473 -0.1656
11511TIP3    H256025   5.065   6.742  12.541  0.5886  0.4336 -0.0033
11512TIP3   OH256026   5.225   6.299   2.071  0.3213  0.0572 -0.0325
11512TIP3    H156027   5.225   6.209   2.104 -1.9815 -0.1521 -0.4039
11512TIP3    H256028   5.173   6.295   1.990 -1.5256  2.0087  0.9576
11513TIP3   OH256029   6.238   3.833  13.377  0.4819 -0.5083  0.0646
11513TIP3    H156030   6.228   3.920  13.416  1.8110  0.1472 -0.9682
11513TIP3    H256031   6.311   3.794  13.425  0.1962 -0.8679  0.2049
11514TIP3   OH256032   5.189   3.814  11.921 -0.0441 -0.5177 -0.6547
11514TIP3    H156033   5.205   3.798  12.014 -1.1126 -1.9054 -0.6884
11514TIP3    H256034   5.221   3.904  11.907  0.3268 -0.3571  0.9890
11515TIP3   OH256035   6.386   5.808   2.251 -0.0916  0.5961  0.0613
11515TIP3    H156036   6.368   5.731   2.305 -0.6907 -0.1366 -1.1527
11515TIP3    H256037   6.411   5.876   2.314  0.1436 -0.4918  1.1785
11516TIP3   OH256038   1.870   0.312  15.122  0.3283 -0.4047  0.2379
11516TIP3    H156039   1.846   0.245  15.058 -0.9961  1.1870 -1.0181
11516TIP3    H256040   1.965   0.302  15.133  0.0816 -2.8136  0.5438
11517TIP3   OH256041   1.519   3.707   6.106  0.2761 -0.8246  0.8857
11517TIP3    H156042   1.604   3.670   6.129  0.9829  1.3618  2.0702
11517TIP3    H256043   1.493   3.758   6.183 -1.6220 -0.5816  0.1469
11518TIP3   OH256044   4.687   2.852  14.278  0.8297  0.1975 -0.3955
11518TIP3    H156045   4.617   2.809  14.231 -0.2213  1.2485  0.1371
11518TIP3    H256046   4.750   2.783  14.298 -0.6353 -1.0231  0.1677
11519TIP3   OH256047   2.716   3.015  12.142  0.7084 -0.2503  0.0628
11519TIP3    H156048   2.774   3.063  12.202 -0.3839  0.4610  0.5781
11519TIP3    H256049   2.633   3.063  12.146 -0.3718 -2.0797  0.4705
11520TIP3   OH256050   2.020   3.620  15.514 -0.1996  0.1443  0.8780
11520TIP3    H156051   1.975   3.627  15.429  0.3775  0.7515  0.6125
11520TIP3    H256052   2.048   3.710  15.533  0.8284 -0.2133  1.0812
11521TIP3   OH256053   1.053   1.895   3.242 -0.2277 -0.3186 -0.1458
11521TIP3    H156054   1.077   1.892   3.149  1.2960 -0.0880  0.2010
11521TIP3    H256055   1.058   1.988   3.265 -1.8746 -0.2105 -0.1106
11522TIP3   OH256056   2.257   5.570  17.121 -0.3974 -0.3570  0.0983
11522TIP3    H156057   2.322   5.628  17.083  1.3653 -0.7186  2.3380
11522TIP3    H256058   2.299   5.484  17.123 -0.7266 -0.5222  1.9580
11523TIP3   OH256059   6.584   3.008   4.766  0.7491  0.0840  0.3061
11523TIP3    H156060   6.578   3.103   4.775 -0.4174 -0.0651  1.3947
11523TIP3    H256061   6.676   2.988   4.785  0.8325  0.9235  0.8233
11524TIP3   OH256062   4.008   1.788  10.619  0.2028  0.0274  0.6843
11524TIP3    H156063   3.956   1.856  10.576 -1.4619  0.0417  2.5687
11524TIP3    H256064   4.088   1.833  10.645  0.2418  0.5878 -0.3556
11525TIP3   OH256065   0.683   2.599   2.311  0.1772 -0.4103  0.4503
11525TIP3    H156066   0.693   2.685   2.352 -0.4852 -0.1641  0.1066
11525TIP3    H256067   0.717   2.538   2.376 -1.4461 -0.0847  1.6715
11526TIP3   OH256068   6.546   3.230   0.892  0.3066  0.2702 -0.3871
11526TIP3    H156069   6.464   3.253   0.850  0.7657  0.0483 -1.4335
11526TIP3    H256070   6.573   3.148   0.850  0.3285 -0.4610  0.9906
11527TIP3   OH256071   5.955   2.950   6.175 -0.3063  0.2163  0.3813
11527TIP3    H156072   5.913   2.874   6.136  0.4816  0.0417 -0.1483
11527TIP3    H256073   5.931   2.947   6.268 -1.8712  0.4134 -0.0015
11528TIP3   OH256074   2.699   1.738  12.201  0.0157 -0.3769 -0.2698
11528TIP3    H156075   2.741   1.801  12.142 -2.0626 -1.4334 -3.1234
11528TIP3    H256076   2.643   1.792  12.257  0.5874  0.5383 -0.5430
11529TIP3   OH256077   6.305   2.618  10.451 -0.3731  0.5078  0.6982
11529TIP3    H156078   6.227   2.583  10.408  0.2218  0.1158 -0.0726
11529TIP3    H256079   6.371   2.624  10.382  0.8322 -0.8543  1.6763
11530TIP3   OH256080   2.712   4.680   1.771  0.5864  0.1826  0.3014
11530TIP3    H156081   2.644   4.634   1.722 -0.4899  0.9360  1.0334
11530TIP3    H256082   2.770   4.611   1.803 -0.9803 -0.7065  1.3574
11531TIP3   OH256083   4.563   1.988   1.611  0.6875  0.4763 -0.2557
11531TIP3    H156084   4.605   2.054   1.556 -0.6711  1.9627  0.4030
11531TIP3    H256085   4.559   2.028   1.697 -2.0496  0.4595 -0.2904
11532TIP3   OH256086   2.380   1.946   5.279 -0.4917  0.0171  0.0226
11532TIP3    H156087   2.348   2.033   5.257 -1.2735 -0.3761 -0.4316
11532TIP3    H256088   2.301   1.893   5.291 -0.0324 -0.5933  0.4605
11533TIP3   OH256089   4.400   4.048  14.583 -0.1027  0.0567 -0.1077
11533TIP3    H156090   4.323   4.088  14.543  0.4539  1.2331 -0.0402
11533TIP3    H256091   4.379   3.955  14.587 -1.7026  0.4086  0.3331
11534TIP3   OH256092   0.633   6.617  14.408 -0.8555 -0.4669 -0.6717
11534TIP3    H156093   0.585   6.692  14.444  0.4906  0.4914 -0.7754
11534TIP3    H256094   0.620   6.547  14.473 -0.6702  0.4153  0.3523
11535TIP3   OH256095   5.437   0.175  15.662  0.1669  0.3536  0.8396
11535TIP3    H156096   5.455   0.151  15.571 -0.7883  2.9966 -0.1479
11535TIP3    H256097   5.347   0.147  15.677  0.3412 -0.1285  1.0141
11536TIP3   OH256098   6.102   5.066  13.064  0.4841 -0.4952  0.4555
11536TIP3    H156099   6.110   5.070  13.159  1.5118 -1.6158  0.4451
11536TIP3    H256100   6.173   5.008  13.037  0.8099  0.5658 -1.0868
11537TIP3   OH256101   4.483   4.034  11.628 -0.5933  0.1001  0.1521
11537TIP3    H156102   4.573   4.021  11.598 -0.0221 -0.0200  1.7855
11537TIP3    H256103   4.453   4.113  11.584  0.0053 -0.3231 -1.0525
11538TIP3   OH256104   3.157   6.227   5.043 -0.1649  0.9119  0.0354
11538TIP3    H156105   3.203   6.303   5.008 -2.4427  2.7561  0.7926
11538TIP3    H256106   3.080   6.218   4.987  0.3307 -1.2607 -0.3969
11539TIP3   OH256107   5.882   3.973  16.194 -0.1543 -0.3942 -0.6383
11539TIP3    H156108   5.833   4.014  16.265  0.4782  1.6068 -1.2890
11539TIP3    H256109   5.908   3.887  16.229  0.9624  0.8780  1.9318
11540TIP3   OH256110   1.372   4.225   1.916 -0.2363  0.8287  0.2062
11540TIP3    H156111   1.459   4.222   1.876 -0.7670  2.9460 -1.2600
11540TIP3    H256112   1.312   4.215   1.843 -1.3708 -2.6236  1.3940
11541TIP3   OH256113   3.580   4.168  11.945  0.5067  0.0484 -0.3009
11541TIP3    H156114   3.515   4.106  11.911  0.8557 -0.2390 -0.4554
11541TIP3    H256115   3.622   4.121  12.016 -0.5791  0.8352  0.9157
11542TIP3   OH256116   6.312   4.135   0.485  0.3918  0.1137  0.0129
11542TIP3    H156117   6.284   4.106   0.398 -2.9962 -0.1951  1.0341
11542TIP3    H256118   6.261   4.215   0.500 -0.2016 -0.6016  2.1945
11543TIP3   OH256119   1.617   3.825  15.241 -0.0057 -0.1130  0.0293
11543TIP3    H156120   1.699   3.801  15.284  0.3690 -1.2603 -1.2635
11543TIP3    H256121   1.549   3.777  15.288  0.5052 -2.1436 -1.1698
11544TIP3   OH256122   5.356   3.030  13.344  0.2793  0.2773 -0.5378
11544TIP3    H156123   5.267   2.995  13.343  0.0530  0.8325 -0.4141
11544TIP3    H256124   5.380   3.030  13.437 -0.1107  1.3788 -0.4167
11545TIP3   OH256125   0.503   0.066  10.586 -0.0562  0.6328 -0.0398
11545TIP3    H156126   0.420   0.048  10.630  0.1243 -0.8587 -0.2709
11545TIP3    H256127   0.479   0.075  10.494  0.1580 -0.9517 -0.2748
11546TIP3   OH256128   6.420   6.643   0.255 -0.4012  0.4103  0.4863
11546TIP3    H156129   6.336   6.686   0.270 -0.1486  1.0897 -0.0474
11546TIP3    H256130   6.479   6.713   0.230  0.1427 -0.1759  0.1067
11547TIP3   OH256131   5.449   1.566   1.176 -0.5231 -0.0000 -0.2957
11547TIP3    H156132   5.443   1.645   1.228 -1.9860  0.6635 -1.3823
11547TIP3    H256133   5.445   1.494   1.239  1.1354  0.7618  0.7255
11548TIP3   OH256134   5.193   2.676  14.268  0.1282  0.4415 -0.2950
11548TIP3    H156135   5.270   2.714  14.311 -0.2579  0.7796  0.1155
11548TIP3    H256136   5.177   2.595  14.316  0.5944  0.0493 -0.7852
11549TIP3   OH256137   5.666   0.531  17.012 -0.1406  0.0892  0.3627
11549TIP3    H156138   5.711   0.470  16.953  0.1711  0.1125  0.5734
11549TIP3    H256139   5.731   0.550  17.080  0.7216  2.6609 -1.0405
11550TIP3   OH256140   1.898   2.639  14.393  0.1734 -0.8192  0.3706
11550TIP3    H156141   1.903   2.735  14.391  0.7477 -0.8502 -1.2248
11550TIP3    H256142   1.833   2.618  14.326 -1.5037 -1.5050  2.1212
11551TIP3   OH256143   3.320   3.774  15.603 -0.1910  1.6632  0.2045
11551TIP3    H156144   3.259   3.701  15.598  0.8543  0.7813  0.1402
11551TIP3    H256145   3.349   3.776  15.694  1.4646  0.5792 -0.2696
11552TIP3   OH256146   6.301   2.386   0.893 -0.5087  0.5601 -0.3775
11552TIP3    H156147   6.221   2.351   0.854  0.4795 -0.4382 -1.6260
11552TIP3    H256148   6.287   2.480   0.897 -0.6785  0.7691 -3.2926
11553TIP3   OH256149   2.832   0.831  11.869  0.2500 -0.4077  0.1500
11553TIP3    H156150   2.832   0.817  11.964  1.4635  0.1265  0.2422
11553TIP3    H256151   2.825   0.744  11.832 -0.7545 -0.5903  0.7238
11554TIP3   OH256152   3.819   6.520  15.943 -0.0883 -0.6469 -0.6862
11554TIP3    H156153   3.729   6.511  15.912  0.4344 -0.4302 -2.3562
11554TIP3    H256154   3.834   6.443  15.998 -1.3594 -0.5496 -0.1768
11555TIP3   OH256155   6.838   2.121  15.867 -0.3804 -0.3923 -0.2075
11555TIP3    H156156   6.871   2.209  15.886  1.8187 -1.0621 -0.7276
11555TIP3    H256157   6.911   2.063  15.886 -2.3380 -2.3756  1.9569
11556TIP3   OH256158   3.502   6.228   2.970  0.4388  0.0319 -0.8938
11556TIP3    H156159   3.562   6.287   2.924  1.3140  0.0651  0.2690
11556TIP3    H256160   3.431   6.284   3.001  0.9478  0.3703 -0.3371
11557TIP3   OH256161   0.375   3.134  11.740 -0.0420 -0.0739 -0.0757
11557TIP3    H156162   0.355   3.134  11.833 -1.6558  0.3095 -0.3795
11557TIP3    H256163   0.289   3.122  11.698  0.6979 -0.6223 -1.4947
11558TIP3   OH256164   2.254   1.942   1.981 -0.4427  0.2659 -0.0906
11558TIP3    H156165   2.272   1.869   1.922 -1.2585 -0.0862  0.0900
11558TIP3    H256166   2.220   1.902   2.061 -2.4386  0.9007 -0.5737
11559TIP3   OH256167   0.179   1.198  16.230 -0.1963  0.3790  0.4716
11559TIP3    H156168   0.219   1.116  16.258  0.6704  1.0183  1.1664
11559TIP3    H256169   0.087   1.189  16.255 -0.4625 -0.9937 -0.8941
11560TIP3   OH256170   5.554   0.811  15.600  0.5771  0.1916 -0.1148
11560TIP3    H156171   5.474   0.834  15.648  0.8830 -0.6237  0.8202
11560TIP3    H256172   5.527   0.807  15.508 -0.7775 -1.2731  0.2953
11561TIP3   OH256173   6.454   0.955  13.016 -0.4147  0.2012  0.4200
11561TIP3    H156174   6.457   1.050  13.012  2.2210  0.1597 -1.7784
11561TIP3    H256175   6.480   0.927  12.929 -2.5754 -2.6064  0.5266
11562TIP3   OH256176   2.953   0.520   3.513  0.0913  0.2082  0.1986
11562TIP3    H156177   3.027   0.489   3.461 -0.5690 -0.3198 -0.4325
11562TIP3    H256178   2.967   0.615   3.519  1.0049  0.0701  0.3875
11563TIP3   OH256179   4.689   6.455  12.378  0.2309  1.1174  0.1433
11563TIP3    H156180   4.747   6.517  12.335  0.9846 -0.2103 -0.8395
11563TIP3    H256181   4.605   6.464  12.332  0.3974  1.2626 -0.1339
11564TIP3   OH256182   6.448   1.299   3.002  0.4419  0.0524  0.6078
11564TIP3    H156183   6.485   1.381   3.033  0.1365  0.8476 -1.0009
11564TIP3    H256184   6.368   1.288   3.053  0.6246  0.6126  1.0280
11565TIP3   OH256185   6.576   0.750   0.149  0.1429 -0.3758  0.4631
11565TIP3    H156186   6.571   0.773   0.242 -3.0088 -1.0368  0.5730
11565TIP3    H256187   6.561   0.833   0.103 -0.1538 -0.3419  0.6144
11566TIP3   OH256188   0.118   3.396  11.615  0.6822 -0.4376 -0.5834
11566TIP3    H156189   0.064   3.368  11.541 -0.5505 -1.9205  0.7989
11566TIP3    H256190   0.133   3.316  11.666  1.7340  0.4879  0.6329
11567TIP3   OH256191   0.858   2.702  14.182  0.6943 -0.5064  0.4197
11567TIP3    H156192   0.787   2.674  14.241 -1.0473 -1.6418 -2.0266
11567TIP3    H256193   0.850   2.798  14.180 -0.6319 -0.5980  0.3723
11568TIP3   OH256194   5.206   0.909   4.201 -0.1859 -0.1198 -0.2606
11568TIP3    H156195   5.295   0.893   4.169  0.0892  1.3038 -0.2721
11568TIP3    H256196   5.205   1.002   4.224 -1.4376 -0.3007  0.5097
11569TIP3   OH256197   1.751   2.680   5.500 -0.0140 -0.0766 -0.2602
11569TIP3    H156198   1.836   2.721   5.479  0.3647 -0.5735  0.2971
11569TIP3    H256199   1.773   2.602   5.550 -0.8050 -0.2692 -0.1980
11570TIP3   OH256200   6.511   0.861  11.449  0.2030  0.7164  0.3483
11570TIP3    H156201   6.471   0.823  11.371  3.1375  0.1957 -1.0785
11570TIP3    H256202   6.478   0.809  11.522  1.2498 -2.2659 -1.1475
11571TIP3   OH256203   6.625   6.594   3.459  0.7065  0.0146  0.8604
11571TIP3    H156204   6.600   6.575   3.549  0.2987 -0.4153  0.6542
11571TIP3    H256205   6.609   6.513   3.411  0.7092  0.3111  0.3520
11572TIP3   OH256206   5.725   1.374   1.410  0.1123 -0.4268  0.5806
11572TIP3    H156207   5.639   1.350   1.377  0.8947 -0.5495 -1.5047
11572TIP3    H256208   5.774   1.291   1.412  1.4542  0.1763 -2.4084
11573TIP3   OH256209   1.779   0.812   4.806  0.0503 -0.2737  0.1144
11573TIP3    H156210   1.748   0.824   4.717 -0.6110 -0.1838  0.3505
11573TIP3    H256211   1.816   0.723   4.806  1.4178  0.2656 -0.6188
11574TIP3   OH256212   2.141   5.292   5.317  0.3267 -0.2906 -0.0868
11574TIP3    H156213   2.146   5.344   5.237 -1.3120  1.2619  0.7380
11574TIP3    H256214   2.091   5.214   5.292  0.1033  0.0275 -0.6569
11575TIP3   OH256215   2.831   4.515  12.609 -0.3875  0.2009 -0.1853
11575TIP3    H156216   2.884   4.460  12.551 -0.5916 -1.5651  1.2225
11575TIP3    H256217   2.887   4.531  12.685 -1.7731 -1.7358  1.3442
11576TIP3   OH256218   0.245   2.381   3.006  0.3042  0.5227  0.4952
11576TIP3    H156219   0.185   2.452   3.029  0.9898  0.5471  2.3740
11576TIP3    H256220   0.263   2.337   3.089  2.8597  0.4873 -0.0020
11577TIP3   OH256221   3.148   3.549   4.550 -0.3832 -0.4062  0.3590
11577TIP3    H156222   3.066   3.571   4.594 -0.2476  0.4229  0.2244
11577TIP3    H256223   3.187   3.480   4.603 -2.3155 -2.5985 -0.8893
11578TIP3   OH256224   6.487   4.433  16.188  0.3044  0.8192 -0.0350
11578TIP3    H156225   6.416   4.369  16.197  0.2162  1.0800  1.3489
11578TIP3    H256226   6.470   4.474  16.103 -0.3686 -0.1032 -0.3748
11579TIP3   OH256227   6.653   0.539  11.708  0.0050  0.6077  0.3249
11579TIP3    H156228   6.746   0.561  11.701  0.4519 -0.4700  2.1980
11579TIP3    H256229   6.640   0.467  11.646  0.1988  1.2921 -0.5344
11580TIP3   OH256230   1.564   6.288  14.204 -0.0186  0.1547 -0.5296
11580TIP3    H156231   1.552   6.311  14.296  0.2815 -0.8364 -0.2232
11580TIP3    H256232   1.639   6.227  14.204 -0.8748 -0.9524 -1.2353
11581TIP3   OH256233   5.309   2.495  10.379 -0.2397 -0.5601 -0.1208
11581TIP3    H156234   5.237   2.557  10.368  1.4504  1.1139 -3.6040
11581TIP3    H256235   5.362   2.532  10.449 -0.4361  0.7389 -0.6247
11582TIP3   OH256236   4.165   2.268  15.877  0.4659  0.0014  0.1330
11582TIP3    H156237   4.259   2.268  15.857  0.2485 -0.6606 -0.9912
11582TIP3    H256238   4.146   2.179  15.905  0.0305 -0.0823 -0.4067
11583TIP3   OH256239   2.659   1.419  14.109  0.6873  0.0075 -0.5107
11583TIP3    H156240   2.669   1.489  14.173  0.6133 -1.9071  1.7299
11583TIP3    H256241   2.571   1.432  14.073  0.9440  1.4374 -0.6678
11584TIP3   OH256242   2.895   1.250  15.290  0.0379  0.4224  0.2132
11584TIP3    H156243   2.968   1.310  15.296  1.3077 -1.1105  0.8035
11584TIP3    H256244   2.877   1.223  15.380  0.3693 -1.0513 -0.1330
11585TIP3   OH256245   3.317   3.563   4.326 -0.0064  0.4216 -0.0098
11585TIP3    H156246   3.257   3.580   4.399 -0.6269  2.1976 -0.8771
11585TIP3    H256247   3.398   3.606   4.352  0.1688  0.0021  0.1501
11586TIP3   OH256248   1.876   6.798   1.136 -0.1728 -0.2422 -0.0087
11586TIP3    H156249   1.915   6.719   1.098 -3.5573 -2.1743  0.1566
11586TIP3    H256250   1.918   6.806   1.222  2.1540 -0.1869 -1.0702
11587TIP3   OH256251   2.232   0.025  11.600  0.3968  0.0785  0.0745
11587TIP3    H156252   2.197   0.109  11.570  1.2707  0.4640  0.0937
11587TIP3    H256253   2.195  -0.039  11.540 -2.0267  0.1573  1.3328
11588TIP3   OH256254   2.395   0.623  10.672 -0.0629  0.2875  0.2169
11588TIP3    H156255   2.314   0.629  10.724 -0.3000  0.0795 -0.1248
11588TIP3    H256256   2.377   0.555  10.607  0.0387  0.9145 -0.4793
11589TIP3   OH256257   2.328   1.411  11.774 -0.9544 -0.2818 -0.1837
11589TIP3    H156258   2.375   1.449  11.700  0.7314  1.0197  1.4802
11589TIP3    H256259   2.260   1.476  11.795 -0.2135  0.2627  0.5727
11590TIP3   OH256260   6.566   2.141   0.182  1.0062 -0.2256  0.4114
11590TIP3    H156261   6.540   2.232   0.193 -2.2634 -0.9798  0.0844
11590TIP3    H256262   6.516   2.093   0.248  1.1778 -1.9661 -0.6481
11591TIP3   OH256263   2.790   4.784  12.549  0.7111 -0.3589  0.0508
11591TIP3    H156264   2.730   4.750  12.483 -0.4962  0.7902  0.5074
11591TIP3    H256265   2.814   4.708  12.601 -0.6873 -0.8033  0.0949
11592TIP3   OH256266   3.138   3.079  15.026 -0.3241 -0.6163 -0.3968
11592TIP3    H156267   3.190   3.119  15.096 -1.8382  0.7475  0.0030
11592TIP3    H256268   3.105   2.998  15.064  0.5344 -0.9158 -0.2630
11593TIP3   OH256269   1.988   4.000   4.462 -0.3373  0.4236 -0.2084
11593TIP3    H156270   1.977   3.964   4.549  1.4569  2.6924  1.0867
11593TIP3    H256271   1.905   3.983   4.417 -1.7648  0.2671  2.3407
11594TIP3   OH256272   4.457   0.497  15.153  0.2155 -0.0277 -0.0629
11594TIP3    H156273   4.476   0.531  15.241 -1.3373 -2.2911  1.2473
11594TIP3    H256274   4.394   0.559  15.116  1.5477  1.4288  0.0042
11595TIP3   OH256275   0.686   0.406  13.560 -0.7143 -0.1141  0.1848
11595TIP3    H156276   0.696   0.463  13.637 -1.6878  0.7579 -0.3027
11595TIP3    H256277   0.627   0.336  13.589  1.5547 -1.7264  1.1988
11596TIP3   OH256278   1.207   4.517  15.682 -0.3967 -0.4083  0.1503
11596TIP3    H156279   1.231   4.603  15.717  0.0679 -0.9891  1.3297
11596TIP3    H256280   1.220   4.525  15.588 -1.4347  1.1500  0.1019
11597TIP3   OH256281   1.246   1.046   1.553  0.2692 -0.3390 -0.5121
11597TIP3    H156282   1.319   1.027   1.611  1.9468 -3.3422 -3.3144
11597TIP3    H256283   1.171   1.058   1.612  2.2027 -1.1458  2.3059
11598TIP3   OH256284   4.256   1.899  10.690  0.3534  0.3423  0.3596
11598TIP3    H156285   4.325   1.868  10.632 -0.7184 -2.6818  0.5163
11598TIP3    H256286   4.296   1.899  10.777  0.9658  1.5625  0.1064
11599TIP3   OH256287   3.296   1.026   5.353 -0.0043 -0.2181  0.1941
11599TIP3    H156288   3.383   1.033   5.394  0.4164 -0.4240 -0.6306
11599TIP3    H256289   3.250   0.960   5.404 -0.0376  0.5810  1.2448
11600TIP3   OH256290   3.492   2.026  14.845 -0.2128  0.0125  0.0389
11600TIP3    H156291   3.574   1.995  14.884 -0.5765 -0.2480  0.6098
11600TIP3    H256292   3.471   2.105  14.894  0.0474  0.4613 -0.5632
11601TIP3   OH256293   1.700   5.937  13.721 -0.4342 -0.6917 -0.2628
11601TIP3    H156294   1.770   5.874  13.737 -0.4811 -1.0087 -1.2135
11601TIP3    H256295   1.621   5.894  13.752 -0.1283 -0.0051  1.5795
11602TIP3   OH256296   3.527   2.764   0.032 -0.3288  0.3469  0.0025
11602TIP3    H156297   3.434   2.748   0.050 -0.0809 -0.1181  0.9417
11602TIP3    H256298   3.536   2.747  -0.062 -1.0596 -0.2486  0.0276
11603TIP3   OH256299   6.681   3.676  12.452 -0.6583 -0.1918 -0.7182
11603TIP3    H156300   6.653   3.763  12.480 -0.3786  0.3149 -1.9454
11603TIP3    H256301   6.710   3.633  12.533 -1.4068  0.6086  0.0012
11604TIP3   OH256302   1.956   2.825  11.558 -0.3518 -0.6616  0.0210
11604TIP3    H156303   1.929   2.761  11.624 -0.5124 -0.0819  0.5204
11604TIP3    H256304   1.883   2.829  11.497  0.2619 -2.0651 -0.8674
11605TIP3   OH256305   3.935   2.935   1.425  0.2423 -1.1317 -0.2022
11605TIP3    H156306   3.906   2.934   1.334 -1.1602  0.4678  0.1875
11605TIP3    H256307   3.855   2.925   1.476  0.5744  1.1399  0.8827
11606TIP3   OH256308   5.569   3.046  11.992  0.0713 -0.2972 -0.2668
11606TIP3    H156309   5.545   3.121  12.045 -0.1052 -0.3241 -0.3094
11606TIP3    H256310   5.645   3.075  11.941  0.6843 -0.4879  0.5091
11607TIP3   OH256311   5.574   4.059  17.096  0.1391  0.0271  0.3861
11607TIP3    H156312   5.597   4.106  17.175 -3.1672  1.6158  0.5495
11607TIP3    H256313   5.608   4.113  17.025 -0.3060  0.6580  0.6522
11608TIP3   OH256314   0.385   6.478   4.924 -0.4765  0.3744  0.1627
11608TIP3    H156315   0.344   6.548   4.874 -1.8883 -1.4888 -1.4315
11608TIP3    H256316   0.345   6.398   4.890  1.5022 -1.2631  1.4865
11609TIP3   OH256317   5.561   6.153  11.074 -0.4565  0.1625 -0.1083
11609TIP3    H156318   5.628   6.095  11.110 -0.9951 -0.7773 -0.5967
11609TIP3    H256319   5.486   6.142  11.133  0.2620  2.3406  1.3263
11610TIP3   OH256320   1.949   3.056  16.595 -0.3987  0.4346  0.3562
11610TIP3    H156321   1.947   3.103  16.511  0.0626  0.4410  0.3461
11610TIP3    H256322   1.970   3.123  16.660 -0.3034  0.3462  0.4163
11611TIP3   OH256323   6.312   4.638   6.183 -0.2558  0.3847  0.4876
11611TIP3    H156324   6.333   4.597   6.099 -1.3440  0.7203  0.0317
11611TIP3    H256325   6.218   4.655   6.178 -0.0511  1.8060  1.1659
11612TIP3   OH256326   3.654   2.403   3.802  0.0370 -0.6960 -0.4083
11612TIP3    H156327   3.614   2.466   3.742 -1.8069 -0.9628  0.4807
11612TIP3    H256328   3.602   2.323   3.790  0.9876 -1.3961  0.0322
11613TIP3   OH256329   6.189   1.692   4.552 -0.3205  0.2412  0.7143
11613TIP3    H156330   6.130   1.647   4.491  1.7503  0.2980 -1.5033
11613TIP3    H256331   6.131   1.742   4.609 -2.5286  3.0237 -3.4311
11614TIP3   OH256332   3.003   5.547   5.137  0.8629  0.1534 -0.0181
11614TIP3    H156333   2.980   5.531   5.046  0.2868  1.5103 -0.1370
11614TIP3    H256334   3.049   5.467   5.165 -2.4545 -2.0269 -0.2814
11615TIP3   OH256335   1.570   3.926  12.401  0.9631 -0.4310  0.5566
11615TIP3    H156336   1.636   3.990  12.375  0.0492 -0.6966 -2.7791
11615TIP3    H256337   1.490   3.977  12.412  0.8926 -0.6097  0.8911
11616TIP3   OH256338   3.179   0.084   1.449 -0.2535 -0.1390 -0.2719
11616TIP3    H156339   3.222   0.086   1.535  1.3932  2.7531 -1.0096
11616TIP3    H256340   3.101   0.137   1.460 -0.5825 -0.6032 -0.3387
11617TIP3   OH256341   2.219   2.576   4.772  0.3430  0.2023 -0.1428
11617TIP3    H156342   2.139   2.537   4.737  0.7571  0.2024 -1.1136
11617TIP3    H256343   2.196   2.602   4.862 -0.4694 -0.6245 -0.0978
11618TIP3   OH256344   2.975   2.232   5.428 -0.2792 -0.0540 -0.0844
11618TIP3    H156345   2.967   2.307   5.486  0.9216 -1.8475  2.5842
11618TIP3    H256346   2.959   2.156   5.484  0.8367 -1.9042 -2.1102
11619TIP3   OH256347   1.741   1.469  15.578 -0.1786 -0.1969  0.3647
11619TIP3    H156348   1.755   1.563  15.578 -1.6452  0.0494 -0.8850
11619TIP3    H256349   1.775   1.439  15.493 -0.0351 -0.7566  0.6104
11620TIP3   OH256350   4.137   1.721   3.225  0.2204 -0.2990 -0.7980
11620TIP3    H156351   4.166   1.693   3.311  0.2271 -1.8233 -1.2757
11620TIP3    H256352   4.049   1.755   3.239  0.4147 -0.0539 -0.1238
11621TIP3   OH256353   1.994   1.568   5.661 -0.4002 -0.1877  0.1947
11621TIP3    H156354   2.024   1.547   5.573  1.0307  2.6361 -0.0946
11621TIP3    H256355   1.911   1.615   5.647 -0.2942  0.0521  0.3725
11622TIP3   OH256356   6.216   6.311  11.305 -0.2905  0.8607  0.0946
11622TIP3    H156357   6.290   6.329  11.247 -0.6495  0.0083 -0.6546
11622TIP3    H256358   6.139   6.342  11.257 -0.5731  0.3176  0.1921
11623TIP3   OH256359   6.374   6.574  11.887  0.0628 -0.1769  0.2399
11623TIP3    H156360   6.304   6.512  11.906  0.1014 -0.9465 -1.8006
11623TIP3    H256361   6.360   6.597  11.794  0.6819  2.0704  0.6325
11624TIP3   OH256362   0.143   6.749   3.254  0.3246 -0.0272  0.2995
11624TIP3    H156363   0.162   6.839   3.228 -0.6575  0.0832 -0.0533
11624TIP3    H256364   0.223   6.720   3.298  0.6825  0.9883  0.3488
11625TIP3   OH256365   0.861   5.043   4.373 -0.2166  0.0336  0.2714
11625TIP3    H156366   0.898   4.959   4.347 -0.7632 -0.4203  0.9325
11625TIP3    H256367   0.936   5.102   4.378  0.2076 -0.4858  0.1039
11626TIP3   OH256368   2.997   1.273   0.197  0.6205 -0.5986 -0.0756
11626TIP3    H156369   3.076   1.293   0.247  0.6327  0.3683 -0.4604
11626TIP3    H256370   2.977   1.183   0.220 -0.0864  0.1570  2.6466
11627TIP3   OH256371   2.460   1.854   1.306  0.3747  0.1259  0.3076
11627TIP3    H156372   2.497   1.798   1.237 -2.0651 -1.1234 -0.1244
11627TIP3    H256373   2.482   1.809   1.387 -1.4018 -1.4847 -0.0283
11628TIP3   OH256374   2.261   2.997  13.057 -0.4811 -0.1991 -0.4998
11628TIP3    H156375   2.292   2.911  13.029 -2.3003 -0.4440 -1.9965
11628TIP3    H256376   2.330   3.058  13.031  0.6967 -1.1490  0.3171
11629TIP3   OH256377   3.932   3.712  12.154 -0.0404 -0.5217  0.3374
11629TIP3    H156378   3.849   3.679  12.119 -0.3407 -0.2391  0.7631
11629TIP3    H256379   3.992   3.638  12.148 -1.0213 -1.6059  2.4097
11630TIP3   OH256380   2.510   6.804  15.389  0.3446 -0.1474  0.1973
11630TIP3    H156381   2.520   6.726  15.334  0.5968 -0.8147  1.1700
11630TIP3    H256382   2.530   6.774  15.477 -1.2797  0.6243  0.8616
11631TIP3   OH256383   5.695   3.583  16.112  0.4838 -0.1279 -0.0050
11631TIP3    H156384   5.621   3.612  16.059  0.8197  0.7035 -0.0325
11631TIP3    H256385   5.771   3.623  16.071  0.6795  1.1122  1.4977
11632TIP3   OH256386   2.378   5.804   4.351 -0.0350  0.2115 -1.2600
11632TIP3    H156387   2.360   5.858   4.428  1.3309  1.2572 -1.6225
11632TIP3    H256388   2.462   5.836   4.318  2.1989 -3.7837 -0.0911
11633TIP3   OH256389   2.953   5.074  12.821 -0.3792 -0.0314 -0.0496
11633TIP3    H156390   2.891   5.096  12.890  1.4796 -1.2225  2.1321
11633TIP3    H256391   3.010   5.008  12.859  2.8553  1.6604 -1.5336
11634TIP3   OH256392   2.602   4.797  11.660 -0.1812 -0.6865  0.1693
11634TIP3    H156393   2.608   4.888  11.633  1.1377 -0.9722 -0.5990
11634TIP3    H256394   2.516   4.768  11.629 -0.3566  0.1209 -0.1205
11635TIP3   OH256395   2.901   5.422  15.259 -0.3726  0.1586 -0.1019
11635TIP3    H156396   2.966   5.436  15.327  0.6954 -1.4088 -0.7430
11635TIP3    H256397   2.826   5.382  15.304  0.2191 -0.6055  0.2289
11636TIP3   OH256398   4.035   4.969  14.875  0.0677 -0.0197  0.3154
11636TIP3    H156399   4.088   5.039  14.837  0.7908 -1.1636 -0.8707
11636TIP3    H256400   3.950   5.009  14.889  0.0902  0.7956 -1.5295
11637TIP3   OH256401   3.263   2.932  12.623  0.0828 -0.1221 -0.5241
11637TIP3    H156402   3.171   2.956  12.612  0.0577  0.5342  0.9057
11637TIP3    H256403   3.260   2.838  12.640 -0.3921 -0.0092  0.0776
11638TIP3   OH256404   3.609   1.352  11.289 -0.5992 -0.5421  0.8754
11638TIP3    H156405   3.687   1.369  11.342 -0.5832  1.9333  0.2138
11638TIP3    H256406   3.544   1.414  11.322 -0.9676  0.2169 -1.1197
11639TIP3   OH256407   3.070   0.491   0.418 -0.8704  0.4564 -0.3130
11639TIP3    H156408   2.976   0.504   0.431 -0.5561  2.0307  0.7033
11639TIP3    H256409   3.106   0.579   0.420  0.7574 -0.1969  0.3149
11640TIP3   OH256410   1.381   1.302  11.516  0.3914  0.7700  0.2975
11640TIP3    H156411   1.338   1.217  11.520  1.0051  0.4657  0.4057
11640TIP3    H256412   1.415   1.317  11.604  2.4538 -0.0115 -0.3083
11641TIP3   OH256413   5.828   3.142  14.234 -0.0095 -0.4396  0.2520
11641TIP3    H156414   5.871   3.217  14.276  1.0010  0.0886 -1.6348
11641TIP3    H256415   5.892   3.071  14.239 -0.2934 -0.6863  0.4861
11642TIP3   OH256416   0.691   1.269   2.171  0.0758  0.7804  0.5433
11642TIP3    H156417   0.634   1.331   2.217  0.1247  0.1570  1.4561
11642TIP3    H256418   0.701   1.196   2.231  0.4469  0.1098 -0.3149
11643TIP3   OH256419   3.757   3.530  17.018  0.3012 -0.0951  0.2048
11643TIP3    H156420   3.737   3.541  17.111 -0.2571  0.7720  0.0008
11643TIP3    H256421   3.709   3.452  16.992  0.4394 -0.3298  0.6374
11644TIP3   OH256422   2.279   1.280   4.461  0.6445 -0.4621  0.1463
11644TIP3    H156423   2.315   1.349   4.406 -0.8994  0.4111  0.1959
11644TIP3    H256424   2.329   1.286   4.542  0.7309  0.4102  0.0383
11645TIP3   OH256425   2.509   2.251  14.985 -0.4190  0.3903  0.6765
11645TIP3    H156426   2.475   2.297  14.908 -0.8196 -0.3651  0.3904
11645TIP3    H256427   2.604   2.248  14.972 -0.3954  1.0844  0.6751
11646TIP3   OH256428   4.310   2.370  12.399  0.2844 -0.4016  0.1178
11646TIP3    H156429   4.260   2.395  12.477  1.4091 -2.5841  1.6322
11646TIP3    H256430   4.259   2.298  12.361  0.9418 -0.9242  0.2157
11647TIP3   OH256431   1.609   0.108  15.264  0.5299 -0.2642  0.0501
11647TIP3    H156432   1.704   0.101  15.272  0.5987 -1.0880 -1.1190
11647TIP3    H256433   1.577   0.019  15.277 -0.1034  0.0313  0.5812
11648TIP3   OH256434   6.559   2.768   2.243 -0.1805  0.3691  0.1881
11648TIP3    H156435   6.646   2.729   2.238 -0.7606 -0.8075 -1.1012
11648TIP3    H256436   6.563   2.842   2.183  0.2956  1.1141  1.1042
11649TIP3   OH256437   0.219   6.295  11.373  0.7439 -0.3386 -0.9574
11649TIP3    H156438   0.293   6.259  11.422  0.2951 -1.3650 -1.0049
11649TIP3    H256439   0.156   6.223  11.368 -0.2336  0.4837 -0.9823
11650TIP3   OH256440   3.593   3.988   2.398  0.0197  0.2507  0.2136
11650TIP3    H156441   3.672   3.995   2.451  2.2108 -1.4597 -2.5078
11650TIP3    H256442   3.569   4.078   2.377  0.2881  0.8477  2.3380
11651TIP3   OH256443   2.020   4.910  10.481 -0.3314  0.0519 -0.7570
11651TIP3    H156444   1.993   4.853  10.408  1.8381 -0.2373 -1.4010
11651TIP3    H256445   2.090   4.862  10.524  1.5866  2.1814 -1.3239
11652TIP3   OH256446   2.523   0.500   4.316 -0.1916 -0.1558  0.4647
11652TIP3    H156447   2.560   0.458   4.239 -1.6652 -1.4331  0.4140
11652TIP3    H256448   2.541   0.440   4.388 -0.3698  0.1965  0.8121
11653TIP3   OH256449   1.411   5.073   1.290 -0.3354  0.2324 -0.2228
11653TIP3    H156450   1.450   4.989   1.311  0.4254  0.7034  0.2732
11653TIP3    H256451   1.408   5.075   1.194 -0.7047 -0.5075 -0.2310
11654TIP3   OH256452   2.712   5.067   0.140  0.0469 -0.5173 -0.0143
11654TIP3    H156453   2.717   4.978   0.105 -0.8026 -0.5993  0.0339
11654TIP3    H256454   2.685   5.120   0.065 -1.0425 -0.5722  0.3175
11655TIP3   OH256455   4.588   2.684   1.706  0.1605  0.0538 -0.2130
11655TIP3    H156456   4.664   2.719   1.752  1.2300 -1.4711 -0.7259
11655TIP3    H256457   4.600   2.589   1.709 -1.1605 -0.1794 -1.2516
11656TIP3   OH256458   5.676   4.931  11.358 -0.0267  0.5021 -0.0330
11656TIP3    H156459   5.721   4.861  11.406  0.9228 -0.0976 -1.6994
11656TIP3    H256460   5.694   5.010  11.408  0.6400 -0.1509  0.7770
11657TIP3   OH256461   4.864   5.152   5.872  0.0186 -0.1501  0.0333
11657TIP3    H156462   4.805   5.187   5.805  0.1571 -1.1840 -0.6515
11657TIP3    H256463   4.880   5.062   5.845  2.2196  0.2076 -0.0326
11658TIP3   OH256464   2.409   2.277   4.094 -0.3354 -0.3990  0.2005
11658TIP3    H156465   2.388   2.364   4.061 -0.2158 -0.7630 -0.8966
11658TIP3    H256466   2.457   2.235   4.022  2.3074 -0.3254  1.7706
11659TIP3   OH256467   0.329   2.610   4.147  0.0851 -0.1938  0.3459
11659TIP3    H156468   0.270   2.680   4.178 -0.1213 -0.3820  0.3817
11659TIP3    H256469   0.416   2.639   4.175  0.4473  1.5243 -2.1932
11660TIP3   OH256470   6.669   0.141  15.664  0.2596  0.3747 -0.0056
11660TIP3    H156471   6.678   0.210  15.599  2.0662  2.4246  2.2481
11660TIP3    H256472   6.744   0.084  15.650 -0.6633 -0.5933 -1.1923
11661TIP3   OH256473   0.160   1.246  14.169  0.1754  0.5780  0.0621
11661TIP3    H156474   0.214   1.258  14.247  0.1075 -1.3281  0.4629
11661TIP3    H256475   0.208   1.289  14.099  1.1892  0.6805  0.8071
11662TIP3   OH256476   5.355   1.846   4.143 -0.4902  0.1810  0.0824
11662TIP3    H156477   5.319   1.928   4.110  1.9729  0.9978 -0.8162
11662TIP3    H256478   5.355   1.788   4.067 -0.8000 -0.1467  0.3287
11663TIP3   OH256479   4.055   1.635  16.981  0.5968  0.0840 -0.4807
11663TIP3    H156480   4.019   1.570  16.920  0.8303  0.2247 -0.7681
11663TIP3    H256481   3.981   1.692  17.001  0.2905 -0.4801  0.0629
11664TIP3   OH256482   6.550   2.590   2.000  0.3205  0.5197  0.1033
11664TIP3    H156483   6.551   2.663   1.938  0.3902 -0.1660 -0.7302
11664TIP3    H256484   6.632   2.544   1.983  0.2423  0.2054  0.5707
11665TIP3   OH256485   1.257   5.009  15.106 -0.3205  0.1742 -0.3899
11665TIP3    H156486   1.286   5.038  15.020  1.1423  0.7930  0.2847
11665TIP3    H256487   1.214   5.086  15.144  2.2680  1.1477  0.8206
11666TIP3   OH256488   5.151   2.589  16.341  0.1393  0.4712 -0.1654
11666TIP3    H156489   5.127   2.680  16.356  1.2671  0.9653 -1.1098
11666TIP3    H256490   5.117   2.570  16.253 -1.0859 -0.4063  0.4697
11667TIP3   OH256491   0.203   0.916  12.870 -0.0882  0.0037  0.1613
11667TIP3    H156492   0.227   0.881  12.784 -2.0779 -0.4071 -0.2879
11667TIP3    H256493   0.275   0.890  12.927  1.4308  0.5504 -1.4213
11668TIP3   OH256494   0.144   1.738  15.687  0.5849  0.1184 -0.3856
11668TIP3    H156495   0.207   1.759  15.757  0.5776  0.4785 -0.4863
11668TIP3    H256496   0.159   1.646  15.668 -0.9185 -0.6236  1.6411
11669TIP3   OH256497   0.248   0.672  13.644 -0.5694 -0.5870  0.3493
11669TIP3    H156498   0.154   0.682  13.637 -0.6291 -0.8112  0.7531
11669TIP3    H256499   0.260   0.587  13.687 -0.1712 -0.8042 -0.1754
11670TIP3   OH256500   3.399   5.967   6.179 -0.3880  0.5291 -0.2685
11670TIP3    H156501   3.444   5.883   6.190 -0.4917  0.4097 -0.7302
11670TIP3    H256502   3.465   6.032   6.202  0.1606  0.3682 -1.3198
11671TIP3   OH256503   0.921   6.585   4.913 -0.0145  0.4066 -0.0124
11671TIP3    H156504   0.895   6.498   4.885  0.7746 -0.3213  1.4062
11671TIP3    H256505   0.839   6.626   4.942 -0.4559  0.3132 -1.1025
11672TIP3   OH256506   2.226   4.611  14.084  0.5519 -0.6840 -0.0249
11672TIP3    H156507   2.278   4.646  14.012 -0.1531  1.7941  0.5746
11672TIP3    H256508   2.172   4.542  14.044  2.0776 -1.2263 -1.2485
11673TIP3   OH256509   6.628   2.146  17.070  0.1086  0.0702 -0.7588
11673TIP3    H156510   6.610   2.130  17.163 -0.5432 -0.4957 -0.9741
11673TIP3    H256511   6.581   2.227  17.050 -0.0080  0.0256 -0.6679
11674TIP3   OH256512   0.825   2.088   1.642 -0.2594  0.1222  0.0059
11674TIP3    H156513   0.812   2.142   1.564  0.9177  0.0561 -0.2604
11674TIP3    H256514   0.785   2.003   1.620  0.0305  0.1179 -0.5179
11675TIP3   OH256515   0.481   3.332  16.198 -0.1225  0.0422  0.0443
11675TIP3    H156516   0.394   3.369  16.182 -0.0754  0.5837  0.9431
11675TIP3    H256517   0.533   3.361  16.123 -0.8056 -0.6110 -0.6957
11676TIP3   OH256518   0.017   2.396  10.870  0.7314 -0.5084  0.1634
11676TIP3    H156519   0.082   2.328  10.888  0.5625 -0.5443  0.6514
11676TIP3    H256520   0.021   2.454  10.946  0.7389 -0.0727 -0.1643
11677TIP3   OH256521   2.601   4.727   3.548  0.0334 -0.5733  0.4961
11677TIP3    H156522   2.684   4.757   3.510 -0.4924  1.5029  0.8606
11677TIP3    H256523   2.607   4.752   3.640 -1.4642  0.7622  0.2759
11678TIP3   OH256524   1.744   4.536  17.066  0.0925  0.5293 -0.3206
11678TIP3    H156525   1.766   4.445  17.082  0.1028  0.2072 -2.0194
11678TIP3    H256526   1.683   4.534  16.993 -0.9300  1.8096  0.4504
11679TIP3   OH256527   5.100   6.079   5.983 -0.0941 -0.6376 -0.1298
11679TIP3    H156528   5.145   6.123   5.911 -2.9495 -1.8145 -2.8484
11679TIP3    H256529   5.095   5.988   5.956 -2.3248 -0.8989  0.9491
11680TIP3   OH256530   3.356   6.642  11.609  0.2433  0.5039  0.1803
11680TIP3    H156531   3.408   6.675  11.536 -0.2797 -0.2507 -0.5450
11680TIP3    H256532   3.328   6.555  11.581 -1.0223  0.7044  0.7567
11681TIP3   OH256533   0.771   1.914  12.165 -0.3571  0.0689  1.0155
11681TIP3    H156534   0.731   1.982  12.218 -0.6756  0.4881  0.2511
11681TIP3    H256535   0.853   1.953  12.134  0.1750 -0.4269  1.7610
11682TIP3   OH256536   2.091   2.364   5.956  0.2192 -0.3370 -0.6916
11682TIP3    H156537   2.176   2.408   5.950 -0.4006  1.2094  0.8657
11682TIP3    H256538   2.112   2.271   5.954  2.2532 -0.0714  1.9493
11683TIP3   OH256539   4.836   0.289  16.502 -0.4822 -0.1544 -0.2998
11683TIP3    H156540   4.779   0.332  16.438  0.0132 -0.0855 -0.7059
11683TIP3    H256541   4.802   0.317  16.587 -0.2507  0.9341 -0.5523
11684TIP3   OH256542   4.961   0.158  17.060 -0.3522 -0.2064 -0.8217
11684TIP3    H156543   5.001   0.077  17.092 -0.4774 -0.1867 -0.6166
11684TIP3    H256544   5.015   0.183  16.985  0.8659  0.5608  0.2686
11685TIP3   OH256545   4.610   6.134   3.574  0.4846  0.2750 -0.0897
11685TIP3    H156546   4.550   6.209   3.580  0.6290  0.5212 -1.2843
11685TIP3    H256547   4.643   6.139   3.484  3.3482  0.9540  0.9145
11686TIP3   OH256548   4.862   5.474  16.762 -0.1395 -0.3367  0.4007
11686TIP3    H156549   4.783   5.527  16.756 -0.7836 -1.4346 -1.7586
11686TIP3    H256550   4.903   5.481  16.675  0.6530 -1.9875  0.6036
11687TIP3   OH256551   2.912   4.905   2.133  0.1994 -0.2531  0.0122
11687TIP3    H156552   2.903   4.818   2.094  1.9984 -2.1549  3.2917
11687TIP3    H256553   2.823   4.931   2.156 -0.5151 -0.5338 -2.2626
11688TIP3   OH256554   0.198   3.845   5.688 -0.6876  0.0471 -0.0831
11688TIP3    H156555   0.244   3.838   5.771 -1.8267  0.0334  0.5761
11688TIP3    H256556   0.259   3.809   5.623 -0.5432 -1.8784  1.0383
11689TIP3   OH256557   1.360   4.754   5.569 -0.0399 -0.0734 -0.2377
11689TIP3    H156558   1.301   4.678   5.574  1.2436 -1.1767 -1.1084
11689TIP3    H256559   1.305   4.824   5.533 -1.5380 -0.2257  1.5816
11690TIP3   OH256560   3.541   3.485   4.014  0.5312 -0.5331 -0.6805
11690TIP3    H156561   3.539   3.437   4.097  1.9529  0.1341 -0.2218
11690TIP3    H256562   3.607   3.439   3.962 -0.6783 -1.2291 -1.6576
11691TIP3   OH256563   1.443   3.135  15.215  0.3076 -0.2418 -0.7442
11691TIP3    H156564   1.507   3.151  15.284  1.2097 -0.8504 -1.4391
11691TIP3    H256565   1.396   3.057  15.243  0.0775  0.0143 -0.4003
11692TIP3   OH256566   5.402   2.221   1.739  0.0777 -0.6497 -0.5838
11692TIP3    H156567   5.417   2.252   1.649 -1.6400 -0.5611 -0.8740
11692TIP3    H256568   5.434   2.131   1.738  3.2750  0.3437 -0.2741
11693TIP3   OH256569   2.914   1.508   2.581 -0.1825  0.3435  0.1306
11693TIP3    H156570   2.885   1.481   2.668  0.6379  0.1574  0.3510
11693TIP3    H256571   2.956   1.430   2.545  1.0012  0.9229  0.2363
11694TIP3   OH256572   2.187   3.246  14.065 -0.4404 -0.5598 -0.2625
11694TIP3    H156573   2.234   3.310  14.013 -2.5861  1.3065 -0.0372
11694TIP3    H256574   2.251   3.215  14.129  0.9548  0.4723 -1.1156
11695TIP3   OH256575   2.453   3.528   2.872  0.4988 -0.3295 -0.3274
11695TIP3    H156576   2.471   3.567   2.786 -1.0697 -0.4173 -0.7313
11695TIP3    H256577   2.473   3.597   2.935 -0.0794  0.3752 -0.8947
11696TIP3   OH256578   1.519   2.268   2.632 -0.2412 -0.3136 -0.5252
11696TIP3    H156579   1.560   2.319   2.701  1.4210 -1.2850 -0.7584
11696TIP3    H256580   1.501   2.331   2.563 -1.3918  0.5581  0.5223
11697TIP3   OH256581   4.569   6.698  10.588  0.1270 -0.0912  0.3036
11697TIP3    H156582   4.497   6.635  10.592  0.4059 -0.3711  1.6846
11697TIP3    H256583   4.529   6.780  10.562 -0.1236 -0.9660 -2.4200
11698TIP3   OH256584   1.220   6.223   1.101 -0.2763  0.1485 -0.6555
11698TIP3    H156585   1.301   6.272   1.091  0.9419 -1.5377  0.3966
11698TIP3    H256586   1.225   6.154   1.034  0.4844 -1.5788  1.0826
11699TIP3   OH256587   5.775   0.306  16.588  0.3879  0.0576  0.2261
11699TIP3    H156588   5.843   0.269  16.531  1.9726  0.4415  1.8037
11699TIP3    H256589   5.696   0.257  16.565  1.0498 -0.0704 -2.0103
11700TIP3   OH256590   6.225   6.041   2.849 -0.0754  0.5611 -0.0684
11700TIP3    H156591   6.282   5.965   2.861 -0.5151  0.0275 -1.1482
11700TIP3    H256592   6.141   6.015   2.888 -0.0181  0.7723  0.1986
11701TIP3   OH256593   1.513   0.589  16.629  0.1616  0.6864 -0.0394
11701TIP3    H156594   1.465   0.521  16.675  1.0914 -0.2162 -0.3598
11701TIP3    H256595   1.493   0.575  16.537  0.2415  0.9474 -0.0976
11702TIP3   OH256596   1.506   2.648   2.150  0.2792 -0.0052 -0.2016
11702TIP3    H156597   1.559   2.712   2.198 -0.3363  1.6386 -1.6034
11702TIP3    H256598   1.464   2.699   2.081 -1.7271 -1.6000 -0.2413
11703TIP3   OH256599   6.081   6.597   1.239 -0.2133 -0.1041  0.2061
11703TIP3    H156600   6.150   6.594   1.173  1.1774 -2.0577  1.6690
11703TIP3    H256601   6.031   6.517   1.226 -0.7050  0.1074  0.7244
11704TIP3   OH256602   6.516   4.297  11.541  0.2370  0.1771  0.1561
11704TIP3    H156603   6.449   4.302  11.473  0.2205  0.2384  0.1763
11704TIP3    H256604   6.500   4.373  11.596 -0.2537 -0.3156  0.7010
11705TIP3   OH256605   1.503   6.681  11.287  0.1133  0.1541 -0.0546
11705TIP3    H156606   1.477   6.657  11.199  1.2407  1.3200 -0.7434
11705TIP3    H256607   1.492   6.601  11.339 -1.8862 -0.1879 -0.9138
11706TIP3   OH256608   2.475   2.363  16.756  0.0032 -0.0522 -0.7803
11706TIP3    H156609   2.407   2.431  16.750  1.2223  1.5131  1.4882
11706TIP3    H256610   2.459   2.321  16.841  2.1347  0.7834  0.1209
11707TIP3   OH256611   2.330   5.279   2.697  0.4463  0.2470 -0.3240
11707TIP3    H156612   2.234   5.278   2.695  0.4414  0.2178 -0.1088
11707TIP3    H256613   2.352   5.324   2.779  0.6174  0.3488 -0.4234
11708TIP3   OH256614   1.610   1.020   3.523 -0.0102  0.6643  0.4973
11708TIP3    H156615   1.527   0.990   3.560 -0.0872 -1.3892 -1.1314
11708TIP3    H256616   1.671   0.949   3.543  0.1763 -0.0711 -2.2381
11709TIP3   OH256617   0.364   2.133  16.337 -0.5574 -0.0238  0.0333
11709TIP3    H156618   0.272   2.110  16.324 -0.5327  1.0934 -2.6878
11709TIP3    H256619   0.400   2.060  16.387 -2.5224 -1.3347 -0.3622
11710TIP3   OH256620   3.394   4.702  13.751  0.4359 -0.1029 -0.4064
11710TIP3    H156621   3.411   4.795  13.741  2.1210 -0.5144 -1.8463
11710TIP3    H256622   3.331   4.681  13.682  0.6023 -0.1552 -0.5436
11711TIP3   OH256623   1.625   5.377  14.663  0.1806  0.0337 -0.7530
11711TIP3    H156624   1.587   5.397  14.749 -0.1844 -2.6188 -0.2032
11711TIP3    H256625   1.622   5.460  14.616  0.2670  1.5675  1.7327
11712TIP3   OH256626   5.609   1.012   1.376 -0.1315  0.2146  0.8107
11712TIP3    H156627   5.518   1.028   1.403 -1.0366 -1.6392 -0.8947
11712TIP3    H256628   5.648   0.965   1.450 -0.8388  0.2349  1.2067
11713TIP3   OH256629   2.757   3.142   4.072  0.6465  0.1942 -0.1818
11713TIP3    H156630   2.837   3.133   4.122  0.6438  0.2901 -0.1608
11713TIP3    H256631   2.762   3.229   4.033 -0.3556  1.0024  1.4098
11714TIP3   OH256632   4.675   2.333  15.650  0.4658 -0.7563  0.2126
11714TIP3    H156633   4.583   2.363  15.651  0.1325 -1.2082 -3.3547
11714TIP3    H256634   4.669   2.238  15.659  0.6932 -0.7076  0.9337
11715TIP3   OH256635   5.853   4.919   5.862  0.2083 -0.3669 -0.3911
11715TIP3    H156636   5.768   4.949   5.893 -0.0517 -0.8507 -0.6152
11715TIP3    H256637   5.844   4.824   5.855  1.6176 -0.7939  2.1760
11716TIP3   OH256638   5.226   5.753   4.012 -0.5890  0.2018  0.0319
11716TIP3    H156639   5.152   5.697   3.987 -0.8151  1.1931 -1.6380
11716TIP3    H256640   5.213   5.833   3.963 -0.4678  1.9357  2.6300
11717TIP3   OH256641   1.143   3.324  11.941 -0.3276  0.0330 -0.1636
11717TIP3    H156642   1.129   3.260  11.870 -1.0409  0.0792 -0.0752
11717TIP3    H256643   1.130   3.409  11.899  2.3268  0.2660 -0.6985
11718TIP3   OH256644   1.935   4.876   4.541  0.5365 -0.5408  0.4496
11718TIP3    H156645   1.933   4.961   4.587 -0.4312  0.7980 -1.9009
11718TIP3    H256646   1.883   4.890   4.462  2.3182 -2.6390 -1.2214
11719TIP3   OH256647   2.909   3.872   1.088 -0.1841  0.4430  0.3393
11719TIP3    H156648   2.853   3.874   1.010 -0.1852  2.2504  0.3252
11719TIP3    H256649   2.997   3.857   1.053  0.2071  3.6340 -0.3960
11720TIP3   OH256650   2.917   4.118   2.610  0.1143  0.2704 -0.0901
11720TIP3    H156651   2.860   4.139   2.684 -1.9811  0.0014 -1.5654
11720TIP3    H256652   2.937   4.203   2.571 -1.6807  0.2036 -1.2472
11721TIP3   OH256653   4.317   5.461   1.846 -0.3322 -0.1869 -0.5284
11721TIP3    H156654   4.315   5.397   1.918  0.7848 -0.1553 -0.4428
11721TIP3    H256655   4.226   5.482   1.830 -0.7101 -1.6464 -0.4141
11722TIP3   OH256656   0.960   1.847   1.361  0.1652 -0.0189  0.9375
11722TIP3    H156657   0.906   1.832   1.283  1.7573 -0.1010 -0.2177
11722TIP3    H256658   0.955   1.941   1.376 -0.4049 -0.0458  0.9110
11723TIP3   OH256659   5.085   3.830   4.182  0.0009 -0.7743  0.0436
11723TIP3    H156660   5.050   3.901   4.236  1.0257 -0.9909  1.0367
11723TIP3    H256661   5.016   3.763   4.182 -0.6045 -0.1656 -0.1542
11724TIP3   OH256662   6.669   3.216   5.055  0.0344 -0.5408 -0.2392
11724TIP3    H156663   6.684   3.207   4.960  0.8291  2.4978 -0.5096
11724TIP3    H256664   6.576   3.237   5.062  0.0450 -0.4475 -0.3723
11725TIP3   OH256665   2.883   4.597  11.330 -0.4056 -0.3568  0.4252
11725TIP3    H156666   2.898   4.577  11.422 -1.4745  0.4395  0.7968
11725TIP3    H256667   2.793   4.629  11.327  0.2100  1.4312 -0.5914
11726TIP3   OH256668   2.616   4.468  14.792  0.0527 -0.1768  0.0027
11726TIP3    H156669   2.598   4.393  14.736 -0.8075 -1.1567  1.5112
11726TIP3    H256670   2.538   4.524  14.784 -0.2004 -0.4628  0.4247
11727TIP3   OH256671   5.962   3.534   3.452  0.0487 -0.1982 -0.4365
11727TIP3    H156672   6.029   3.551   3.386  0.5708  1.0893  0.3865
11727TIP3    H256673   5.907   3.612   3.451 -0.7212 -0.7247 -0.2401
11728TIP3   OH256674   0.043   2.543  16.963  0.2355  0.3716 -0.3087
11728TIP3    H156675   0.136   2.565  16.956  0.6380 -1.0036  0.2855
11728TIP3    H256676   0.039   2.450  16.941 -0.8242  0.1308  0.7953
11729TIP3   OH256677   6.248   1.114  14.961  0.3522  0.2263 -0.3228
11729TIP3    H156678   6.212   1.067  15.036  0.4287  0.8561  0.1113
11729TIP3    H256679   6.327   1.064  14.937 -0.9575 -1.3889 -1.5239
11730TIP3   OH256680   4.478   4.720   2.803 -0.4780  0.9493 -0.0074
11730TIP3    H156681   4.552   4.696   2.859 -0.5716 -0.2523 -0.3653
11730TIP3    H256682   4.501   4.805   2.766  0.6417  0.6610  0.0176
11731TIP3   OH256683   1.729   4.920   5.546 -1.0883  0.0010 -0.1558
11731TIP3    H156684   1.818   4.886   5.553 -1.6272 -1.2099  1.3091
11731TIP3    H256685   1.679   4.873   5.613 -3.1978 -0.4907 -1.9429
11732TIP3   OH256686   5.580   6.459  16.667  0.2448  0.2510 -0.1094
11732TIP3    H156687   5.534   6.414  16.739  0.2865  0.1986 -0.1154
11732TIP3    H256688   5.669   6.425  16.671 -0.0244 -0.5672 -0.8744
11733TIP3   OH256689   5.695   0.588  15.697  0.3711  0.3046  0.2588
11733TIP3    H156690   5.678   0.669  15.650 -0.1336 -0.2568 -0.5486
11733TIP3    H256691   5.617   0.535  15.682 -0.0618  0.3250  2.2153
11734TIP3   OH256692   3.674   1.630   5.558 -0.2299 -0.2431 -0.4585
11734TIP3    H156693   3.652   1.682   5.480  0.4204  0.1914 -0.3592
11734TIP3    H256694   3.698   1.695   5.624  3.6981 -0.6793 -1.2658
11735TIP3   OH256695   3.470   0.349  12.807 -0.0432 -0.5030 -0.0038
11735TIP3    H156696   3.408   0.281  12.833  0.2391 -0.6969  0.1687
11735TIP3    H256697   3.516   0.312  12.731  1.1961 -1.1549  1.0306
11736TIP3   OH256698   0.679   5.361  16.288  0.2410  0.4913 -0.2478
11736TIP3    H156699   0.679   5.340  16.195  1.2123 -0.2850 -0.0835
11736TIP3    H256700   0.620   5.295  16.327  0.9423 -0.0805 -0.1349
11737TIP3   OH256701   2.771   6.442  11.494  0.3019 -0.2942 -0.3508
11737TIP3    H156702   2.680   6.452  11.524  0.8273  1.2219  0.8979
11737TIP3    H256703   2.764   6.421  11.401 -1.3430 -1.8558  0.0706
11738TIP3   OH256704   3.337   4.840  15.134  0.0029 -0.3556  0.1703
11738TIP3    H156705   3.393   4.770  15.101  2.1300  1.8052 -1.1159
11738TIP3    H256706   3.278   4.859  15.062  0.9376  0.6216 -0.3707
11739TIP3   OH256707   0.085   3.663   1.367 -0.3485 -0.9522 -0.3130
11739TIP3    H156708   0.007   3.697   1.323 -0.3522 -2.3735 -1.4716
11739TIP3    H256709   0.106   3.730   1.433 -1.4468  0.3446 -1.2153
11740TIP3   OH256710   0.274   2.121  12.142 -0.3344 -0.0481  0.2934
11740TIP3    H156711   0.336   2.177  12.096  1.4348 -0.8585  1.5593
11740TIP3    H256712   0.229   2.073  12.072  0.3414  0.6808 -0.6773
11741TIP3   OH256713   0.476   3.934   5.145  0.0289 -0.2197 -0.6963
11741TIP3    H156714   0.552   3.965   5.195 -0.6642  1.2003 -0.4994
11741TIP3    H256715   0.401   3.956   5.199 -0.5992 -0.5819 -1.4104
11742TIP3   OH256716   0.278   1.673   4.482  0.5259  0.2004  0.1670
11742TIP3    H156717   0.277   1.744   4.418  0.1058 -1.0662 -1.2988
11742TIP3    H256718   0.353   1.619   4.458 -0.7698 -1.3718 -0.5464
11743TIP3   OH256719   1.708   0.514   2.736  0.5862  0.3179 -0.2608
11743TIP3    H156720   1.668   0.562   2.809  1.0661 -2.3575  1.9351
11743TIP3    H256721   1.795   0.490   2.769  1.2195 -0.0930 -2.1530
11744TIP3   OH256722   3.135   0.292   3.449  0.2731  0.4891  0.3996
11744TIP3    H156723   3.154   0.288   3.355 -0.7871  0.7145  0.1639
11744TIP3    H256724   3.048   0.253   3.457  1.4901 -2.2419  1.6737
11745TIP3   OH256725   4.677   0.570  12.723  0.3072  0.4922 -0.5650
11745TIP3    H156726   4.731   0.504  12.766 -0.8089  0.3054  0.6067
11745TIP3    H256727   4.740   0.628  12.680  1.6915  1.8091  2.8572
11746TIP3   OH256728   3.459   6.536  14.891  0.2649 -0.5578 -0.6109
11746TIP3    H156729   3.491   6.607  14.945  0.6725 -1.1488 -0.0624
11746TIP3    H256730   3.527   6.523  14.825  0.3771 -0.7024 -0.4675
11747TIP3   OH256731   4.705   3.524  15.748  0.7985 -0.1119 -0.4057
11747TIP3    H156732   4.635   3.540  15.684 -0.2859 -0.0020  0.7755
11747TIP3    H256733   4.659   3.500  15.828  2.1150  0.4631  0.5496
11748TIP3   OH256734   2.803   2.243   0.183  0.1023  0.1613  0.2732
11748TIP3    H156735   2.798   2.239   0.278 -0.5221 -0.0779  0.2320
11748TIP3    H256736   2.757   2.324   0.160  0.2843  0.2386  0.1779
11749TIP3   OH256737   5.642   0.608  16.199  0.4464 -0.6585 -0.2358
11749TIP3    H156738   5.712   0.642  16.143  0.3122 -1.2768 -0.7815
11749TIP3    H256739   5.650   0.513  16.192  0.2957 -0.7419  0.6349
11750TIP3   OH256740   4.192   6.031  15.993  0.0114 -0.4105 -0.1224
11750TIP3    H156741   4.248   6.019  16.070 -0.1250 -3.1752 -0.3299
11750TIP3    H256742   4.249   6.071  15.928  0.0167  2.3895  1.4648
11751TIP3   OH256743   4.655   6.135  13.626 -0.0376 -0.0900 -0.0950
11751TIP3    H156744   4.579   6.191  13.641  0.5681  1.1252 -1.3158
11751TIP3    H256745   4.618   6.052  13.596 -0.9122  0.0504  0.5516
11752TIP3   OH256746   6.071   1.767  12.976  0.0101  0.1204 -0.3185
11752TIP3    H156747   5.986   1.728  13.000 -1.1437  2.3931 -0.4689
11752TIP3    H256748   6.126   1.751  13.053 -1.2006  0.3849  0.6575
11753TIP3   OH256749   5.916   1.911  10.001 -0.5254 -0.0446  0.3068
11753TIP3    H156750   5.988   1.948   9.951 -2.1322  2.2311 -0.4778
11753TIP3    H256751   5.936   1.932  10.092  0.1878 -0.1652  0.1829
11754TIP3   OH256752   4.953   4.212   5.280 -0.0483  0.4434 -0.2798
11754TIP3    H156753   4.874   4.226   5.332 -0.1034 -1.4647  0.2449
11754TIP3    H256754   4.967   4.294   5.233 -0.3719  2.0545  2.2514
11755TIP3   OH256755   2.736   4.070  14.516  0.4788 -0.6511  0.7198
11755TIP3    H156756   2.821   4.028  14.529  0.3991 -0.4752  1.9247
11755TIP3    H256757   2.673   4.001  14.535  0.3569 -0.3676  1.3897
11756TIP3   OH256758   0.150   1.552  13.168 -0.0288  0.7749  0.0841
11756TIP3    H156759   0.063   1.514  13.175  0.2189  0.3177  0.8008
11756TIP3    H256760   0.203   1.485  13.127  0.1163  0.8332  0.1748
11757TIP3   OH256761   6.760   0.483   0.575 -0.0762 -0.3401  0.0524
11757TIP3    H156762   6.758   0.410   0.513  0.3835  0.1913 -0.6052
11757TIP3    H256763   6.813   0.550   0.532 -0.2192  0.2640  0.7833
11758TIP3   OH256764   1.436   0.782  11.958  0.2782 -0.3214 -0.0598
11758TIP3    H156765   1.378   0.749  11.889 -1.8886  1.5346  0.7489
11758TIP3    H256766   1.489   0.707  11.983 -1.4351 -2.0010 -1.2031
11759TIP3   OH256767   6.679   5.819   0.891 -0.1655  0.1825  0.1618
11759TIP3    H156768   6.772   5.797   0.903  0.1185  1.0281 -0.4090
11759TIP3    H256769   6.671   5.907   0.927 -0.9632 -0.2236  1.0402
11760TIP3   OH256770   2.657   5.648  13.462 -0.2281  0.0276  0.8107
11760TIP3    H156771   2.710   5.599  13.400  0.1744  0.8053  0.5240
11760TIP3    H256772   2.689   5.620  13.548 -0.1235 -0.3339  0.6548
11761TIP3   OH256773   6.412   0.609   0.947  0.1610 -0.1617 -0.6543
11761TIP3    H156774   6.501   0.592   0.917  0.3684  0.4666 -0.4071
11761TIP3    H256775   6.378   0.674   0.886 -0.0507 -0.2317 -0.6118
11762TIP3   OH256776   3.043   3.712   0.633 -0.0751 -0.2775 -0.0763
11762TIP3    H156777   2.961   3.694   0.679  0.6881 -0.0329  1.4336
11762TIP3    H256778   3.017   3.762   0.556 -1.1626  1.9603  1.6405
11763TIP3   OH256779   6.546   0.420  14.221 -0.5708 -0.3868  0.1896
11763TIP3    H156780   6.587   0.347  14.175  1.1721  0.0250  1.0098
11763TIP3    H256781   6.463   0.433  14.176 -1.0103 -2.9731  0.1290
11764TIP3   OH256782   1.791   2.283  16.721  0.2859  0.4041 -0.7053
11764TIP3    H156783   1.742   2.207  16.753 -1.0118  1.7546  0.6643
11764TIP3    H256784   1.758   2.297  16.632 -0.2366  0.0021 -0.5818
11765TIP3   OH256785   5.450   0.495  15.605  0.1219 -0.0507 -0.1952
11765TIP3    H156786   5.442   0.481  15.511  1.1687  0.8667 -0.4372
11765TIP3    H256787   5.400   0.423  15.644  1.0716 -1.4399 -1.4208
11766TIP3   OH256788   3.122   5.567  14.935 -0.0595  0.1791 -0.2373
11766TIP3    H156789   3.071   5.634  14.888  0.3416  0.0431 -0.8826
11766TIP3    H256790   3.144   5.608  15.019 -1.2888  0.2174  0.0885
11767TIP3   OH256791   3.993   2.045   0.882 -0.8681  0.0736 -0.1922
11767TIP3    H156792   3.932   2.010   0.817  0.2261  0.3125 -1.3890
11767TIP3    H256793   3.963   2.135   0.897  0.1630  0.8101 -2.1319
11768TIP3   OH256794   6.435   1.052  15.692 -0.3375 -0.1501  0.4583
11768TIP3    H156795   6.476   0.985  15.747  1.3204 -0.7602 -1.4036
11768TIP3    H256796   6.440   1.132  15.744  0.9575 -0.7413  1.2936
11769TIP3   OH256797   6.476   4.850   4.687  0.0218  0.2086 -0.7919
11769TIP3    H156798   6.508   4.799   4.612  0.8420 -1.3724  0.5591
11769TIP3    H256799   6.551   4.901   4.716 -0.1630  0.4574 -0.7436
11770TIP3   OH256800   3.172   1.431  16.461 -0.1763  0.1472  0.0146
11770TIP3    H156801   3.257   1.470  16.439 -0.6147  0.4987 -1.1233
11770TIP3    H256802   3.160   1.362  16.396 -0.3806 -0.4772  0.7039
11771TIP3   OH256803   1.322   6.368   4.330 -0.3358 -0.3016  0.2512
11771TIP3    H156804   1.362   6.284   4.307 -1.2717 -1.5127  2.6524
11771TIP3    H256805   1.385   6.434   4.301  0.9435 -1.8693 -0.7155
11772TIP3   OH256806   3.711   1.435  15.458 -0.0872 -0.1588 -0.0975
11772TIP3    H156807   3.707   1.360  15.518 -1.8430  0.2279  0.3141
11772TIP3    H256808   3.781   1.490  15.493  0.5728 -1.1231  0.1508
11773TIP3   OH256809   2.019   4.919   1.635  0.1954 -0.2128  0.3244
11773TIP3    H156810   2.074   4.996   1.619 -1.8606  1.4297  0.6941
11773TIP3    H256811   1.956   4.919   1.563 -1.6541  0.2190  1.8665
11774TIP3   OH256812   5.744   0.209   5.352  0.1210 -0.4008 -0.2696
11774TIP3    H156813   5.787   0.129   5.384  0.7439 -0.2991 -0.8162
11774TIP3    H256814   5.793   0.280   5.393 -0.5956 -0.2964  0.4190
11775TIP3   OH256815   4.435   1.788   0.931 -0.1048 -1.1084 -0.0911
11775TIP3    H156816   4.417   1.865   0.984 -0.3491 -0.3859 -1.1823
11775TIP3    H256817   4.494   1.735   0.984 -1.0608 -0.8535  1.2545
11776TIP3   OH256818   2.687   3.839  16.282  0.2044 -0.1065 -0.7469
11776TIP3    H156819   2.773   3.881  16.283  0.8095 -1.2835 -0.2663
11776TIP3    H256820   2.642   3.877  16.207  1.3238  0.2181 -1.2773
11777TIP3   OH256821   3.619   4.649   3.371 -0.7481 -0.9920 -0.0562
11777TIP3    H156822   3.594   4.681   3.285 -1.1207  1.1046  0.7883
11777TIP3    H256823   3.537   4.628   3.415 -1.0068  2.5605  1.4522
11778TIP3   OH256824   0.992   2.887   1.229 -0.8407  0.4795 -0.2950
11778TIP3    H156825   1.012   2.921   1.142 -1.4303  1.9621  0.1190
11778TIP3    H256826   0.954   2.801   1.212  0.2109  0.2028 -1.4162
11779TIP3   OH256827   3.606   2.217   3.091  0.3915  0.1071 -0.1734
11779TIP3    H156828   3.628   2.310   3.082 -0.0519  0.3994  1.4763
11779TIP3    H256829   3.513   2.213   3.068 -0.2453  0.5334  2.1071
11780TIP3   OH256830   5.512   2.767  14.612  0.2680 -0.4538  0.5465
11780TIP3    H156831   5.517   2.760  14.517  1.2835 -0.4847  0.5881
11780TIP3    H256832   5.420   2.783  14.630  0.0545 -0.4954 -0.4375
11781TIP3   OH256833   1.611   2.227   4.490 -0.2039  0.2791  0.6067
11781TIP3    H156834   1.524   2.188   4.499  0.3046 -1.8376 -2.0657
11781TIP3    H256835   1.669   2.168   4.538 -0.1806  1.7852  2.5375
11782TIP3   OH256836   0.579   4.828  10.826 -0.9269  0.3900 -0.1025
11782TIP3    H156837   0.559   4.907  10.876  3.8864  3.0293 -1.7116
11782TIP3    H256838   0.559   4.851  10.736 -0.4491 -0.5835 -0.4689
11783TIP3   OH256839   0.752   2.020  10.488  0.0576 -0.4916 -0.0933
11783TIP3    H156840   0.805   2.099  10.478  0.2022 -0.6879 -0.9630
11783TIP3    H256841   0.816   1.949  10.499 -0.0680 -0.5148  0.5492
11784TIP3   OH256842   4.662   0.728  15.617  0.4522  0.2709 -0.1580
11784TIP3    H156843   4.584   0.732  15.671 -0.2528 -2.6630 -0.7962
11784TIP3    H256844   4.718   0.798  15.651 -1.2060  0.5343  2.2856
11785TIP3   OH256845   1.511   4.495   4.624 -0.2297  0.1946  0.4984
11785TIP3    H156846   1.506   4.516   4.717 -0.5251 -0.8024  0.7190
11785TIP3    H256847   1.525   4.579   4.581 -0.6110  0.7324  1.4044
11786TIP3   OH256848   3.807   0.989   4.220  0.8327  0.0384  0.1974
11786TIP3    H156849   3.803   1.075   4.261 -0.8812  0.8068 -1.4332
11786TIP3    H256850   3.725   0.947   4.244  2.7786 -2.4586  3.4016
11787TIP3   OH256851   5.761   4.196  13.506  0.2419  0.9258 -0.4416
11787TIP3    H156852   5.694   4.139  13.468  1.9171 -0.5947 -1.2836
11787TIP3    H256853   5.814   4.223  13.431  0.7514  1.8774  0.2355
11788TIP3   OH256854   2.817   0.262   2.303 -0.0277  0.0459 -0.2603
11788TIP3    H156855   2.865   0.345   2.300 -1.9679  1.2115 -1.4247
11788TIP3    H256856   2.811   0.241   2.396  2.6555 -0.1718 -0.0549
11789TIP3   OH256857   4.560   4.078  14.835  0.5021 -0.3921 -0.6532
11789TIP3    H156858   4.497   4.087  14.764 -0.0654 -0.3467 -0.1557
11789TIP3    H256859   4.592   3.989  14.829 -0.0927 -0.6187 -0.5225
11790TIP3   OH256860   1.685   0.803   2.222 -0.3678 -0.2344  0.0810
11790TIP3    H156861   1.779   0.795   2.210 -0.6788 -0.3626 -3.0329
11790TIP3    H256862   1.675   0.855   2.302  2.2728 -1.2511  1.1641
11791TIP3   OH256863   5.960   5.789  15.014  0.3101  0.3093  0.6086
11791TIP3    H156864   5.987   5.847  14.942  0.1274  0.4603  0.6612
11791TIP3    H256865   6.040   5.740  15.036 -0.0929 -1.1570 -0.9922
11792TIP3   OH256866   3.587   5.834   3.722 -0.0958 -0.1384  0.5037
11792TIP3    H156867   3.648   5.872   3.659 -0.8262 -0.7016 -0.5765
11792TIP3    H256868   3.525   5.784   3.668 -1.0446 -0.2187  1.6343
11793TIP3   OH256869   6.790   5.811   4.146  0.1811  0.1157 -0.2785
11793TIP3    H156870   6.871   5.792   4.100 -0.8169  0.2054 -2.1800
11793TIP3    H256871   6.816   5.864   4.221  1.9603 -0.6849 -0.2958
11794TIP3   OH256872   5.096   6.736   6.703  0.0766 -0.9369  0.1458
11794TIP3    H156873   5.136   6.672   6.645  0.0502 -0.5231 -0.3357
11794TIP3    H256874   5.004   6.709   6.708  0.2499 -1.4633  0.6759
11795TIP3   OH256875   5.259   5.672  13.859  0.4152 -0.1077 -0.0637
11795TIP3    H156876   5.267   5.584  13.896 -0.3850  0.2431  1.0113
11795TIP3    H256877   5.191   5.663  13.791  1.2908 -0.5789 -0.9077
11796TIP3   OH256878   5.250   6.623  15.298 -0.2925 -0.4687 -0.1981
11796TIP3    H156879   5.204   6.703  15.272  0.0923  0.0985  0.8125
11796TIP3    H256880   5.217   6.604  15.387  1.6275  0.1336  0.6846
11797TIP3   OH256881   3.027   5.518  15.493  0.0872  0.6710  0.3724
11797TIP3    H156882   2.963   5.589  15.501 -0.2077  0.6142 -1.2032
11797TIP3    H256883   3.106   5.560  15.459  0.9260  0.7324  2.2634
11798TIP3   OH256884   1.479   3.657  15.421 -0.0986  0.4180 -0.0099
11798TIP3    H156885   1.411   3.595  15.445 -0.1013 -0.0316 -1.1098
11798TIP3    H256886   1.561   3.609  15.437 -0.0069  1.0951  1.6825
11799TIP3   OH256887   2.549   2.070   6.738  0.1922  0.2290 -0.1344
11799TIP3    H156888   2.493   2.127   6.686 -0.6492 -0.4888 -0.0286
11799TIP3    H256889   2.492   2.036   6.807  1.4732  1.9103  1.9145
11800TIP3   OH256890   5.915   4.734   1.729 -0.1235  0.2767 -0.1744
11800TIP3    H156891   5.832   4.709   1.772 -0.0853  0.9098  0.2799
11800TIP3    H256892   5.888   4.782   1.651 -0.1833  0.8718  0.2116
11801TIP3   OH256893   5.489   6.815  16.759  0.2502 -0.0284 -0.5421
11801TIP3    H156894   5.453   6.775  16.680 -1.0573 -2.4745  1.1643
11801TIP3    H256895   5.413   6.853  16.803  0.8517  0.6656 -0.0788
11802TIP3   OH256896   1.560   5.228  14.118 -0.2487 -0.0162  0.6601
11802TIP3    H156897   1.508   5.148  14.108 -0.1685  0.1028 -0.9105
11802TIP3    H256898   1.526   5.269  14.198 -0.7665 -1.2578  1.0989
11803TIP3   OH256899   0.411   5.677   6.231 -0.1708 -0.5199  0.5415
11803TIP3    H156900   0.400   5.687   6.326  0.3976  2.9760  0.3976
11803TIP3    H256901   0.441   5.763   6.202  0.8337 -1.8208 -2.6959
11804TIP3   OH256902   5.219   3.445   2.439 -0.2698 -0.5902 -0.3814
11804TIP3    H156903   5.277   3.505   2.392 -0.9968  0.5734  0.1468
11804TIP3    H256904   5.179   3.391   2.371  1.3947 -1.4159 -0.7510
11805TIP3   OH256905   2.676   2.898   2.163 -0.6426 -0.4164 -0.3283
11805TIP3    H156906   2.712   2.982   2.190 -2.4337  0.1976  0.2849
11805TIP3    H256907   2.602   2.921   2.107 -0.1339 -1.6321 -1.5722
11806TIP3   OH256908   1.690   2.766   3.884 -0.2932 -0.6356 -0.1373
11806TIP3    H156909   1.772   2.755   3.837  0.0254  1.3012 -0.1162
11806TIP3    H256910   1.716   2.778   3.975 -0.3686  1.9810 -0.3858
11807TIP3   OH256911   5.992   3.247  16.688 -0.4143  0.0164  0.4864
11807TIP3    H156912   5.983   3.191  16.611 -0.1796 -0.8887  1.1036
11807TIP3    H256913   5.922   3.312  16.679 -0.1598  0.1356 -0.6670
11808TIP3   OH256914   1.638   0.510   0.210 -0.5449  0.4350  0.3195
11808TIP3    H156915   1.584   0.587   0.192  0.4609  1.0782 -0.0365
11808TIP3    H256916   1.659   0.475   0.124  0.3172  0.7039  0.4161
11809TIP3   OH256917   1.253   4.709  17.146  0.1243  0.3680 -0.0530
11809TIP3    H156918   1.306   4.707  17.225 -1.4926  2.7033  1.2255
11809TIP3    H256919   1.163   4.717  17.177 -0.9151 -1.9126 -2.1425
11810TIP3   OH256920   5.880   3.968  14.311 -0.4963 -0.0957  0.5108
11810TIP3    H156921   5.863   3.904  14.242  1.1303 -0.3999  0.3572
11810TIP3    H256922   5.802   4.024  14.311 -1.1614 -0.9830 -0.5676
11811TIP3   OH256923   3.200   2.503  14.978  0.1700 -0.1087 -0.5451
11811TIP3    H156924   3.131   2.563  15.007 -2.4839 -2.0009 -2.4646
11811TIP3    H256925   3.250   2.483  15.058 -1.9200  0.8254  1.0818
11812TIP3   OH256926   6.613   3.973  14.342  0.2714 -0.2931  0.3856
11812TIP3    H156927   6.528   3.937  14.317  1.3277 -0.6566 -3.3242
11812TIP3    H256928   6.664   3.898  14.372  1.0154 -1.2945 -2.9923
11813TIP3   OH256929   3.816   3.351  14.667  0.1461  0.2901  0.0977
11813TIP3    H156930   3.726   3.317  14.664  0.2234 -0.5025  3.0707
11813TIP3    H256931   3.812   3.436  14.624 -1.5905 -0.5458 -1.5001
11814TIP3   OH256932   6.106   0.629  15.532  0.0085  0.2490  0.0882
11814TIP3    H156933   6.100   0.687  15.608  0.6751 -0.2039  0.4949
11814TIP3    H256934   6.154   0.553  15.564 -0.1795 -0.1853 -0.6495
11815TIP3   OH256935   0.366   6.074   5.957  0.7790 -0.0769 -0.1546
11815TIP3    H156936   0.379   6.161   5.993  1.2417  0.0818 -0.6881
11815TIP3    H256937   0.453   6.045   5.932  0.4945 -0.2276 -1.0152
11816TIP3   OH256938   1.321   4.321  12.248  0.0985  0.1200  0.0123
11816TIP3    H156939   1.236   4.324  12.292  0.2430  0.0995  0.2962
11816TIP3    H256940   1.378   4.376  12.302  0.2457  0.1985 -0.2209
11817TIP3   OH256941   4.595   0.272  15.267  0.6085 -0.0057 -0.4718
11817TIP3    H156942   4.530   0.231  15.211  0.8302 -1.0892  0.0480
11817TIP3    H256943   4.606   0.360  15.230  0.5061 -0.5713 -1.8967
11818TIP3   OH256944   2.744   1.362  16.008 -0.1617 -0.1445  0.0747
11818TIP3    H156945   2.727   1.417  15.931 -0.5911  0.9852  0.9541
11818TIP3    H256946   2.677   1.388  16.071  1.2524  0.2194  1.4846
11819TIP3   OH256947   0.449   4.274  12.290  0.3490  0.5083  0.2777
11819TIP3    H156948   0.426   4.271  12.197  2.0158  0.2419 -0.1584
11819TIP3    H256949   0.410   4.356  12.322 -1.0565  0.1358 -0.3977
11820TIP3   OH256950   3.364   2.685   3.845  0.0413  0.1823 -0.2698
11820TIP3    H156951   3.449   2.693   3.802  0.3616 -0.6088  0.1875
11820TIP3    H256952   3.326   2.772   3.841  1.4437  0.8705  0.6798
11821TIP3   OH256953   1.083   0.219  10.555 -0.1222 -0.0540 -0.2233
11821TIP3    H156954   1.123   0.200  10.470 -2.4293  0.1002 -1.4210
11821TIP3    H256955   1.062   0.312  10.552 -0.9923 -0.2260  0.1556
11822TIP3   OH256956   1.683   4.489  11.342 -0.4439  0.0280  0.2270
11822TIP3    H156957   1.711   4.490  11.433 -2.3731 -0.1868  0.8583
11822TIP3    H256958   1.733   4.418  11.302 -2.0197 -2.2414  1.9930
11823TIP3   OH256959   4.843   6.494  12.730  0.3665 -0.2262  0.1741
11823TIP3    H156960   4.905   6.439  12.684  1.6284  0.7848  0.5824
11823TIP3    H256961   4.813   6.441  12.804  0.4569 -0.8656 -0.2504
11824TIP3   OH256962   3.350   3.757   2.571  0.6799 -0.0624 -0.5053
11824TIP3    H156963   3.337   3.748   2.477 -0.4727 -0.4426 -0.3336
11824TIP3    H256964   3.347   3.851   2.588  1.6739  0.0573 -0.9330
11825TIP3   OH256965   6.531   0.292   1.569  0.0759  0.1140 -0.3240
11825TIP3    H156966   6.597   0.362   1.563  0.6098 -0.2114  1.4190
11825TIP3    H256967   6.573   0.217   1.527 -0.5980  0.8275 -2.4487
11826TIP3   OH256968   4.726   1.114   2.926  0.2241 -0.3767  0.2021
11826TIP3    H156969   4.682   1.160   2.998  1.0899  0.4931  0.2041
11826TIP3    H256970   4.660   1.111   2.856 -0.0876  0.2545  0.4587
11827TIP3   OH256971   4.511   5.914  15.895 -0.0212 -0.3467 -0.3765
11827TIP3    H156972   4.546   5.849  15.833  0.2929  0.1374 -0.7131
11827TIP3    H256973   4.499   5.993  15.843  1.6958  0.5369  0.4917
11828TIP3   OH256974   3.237   5.627   0.875  1.0103  0.1328  0.1393
11828TIP3    H156975   3.297   5.585   0.937  2.9362 -1.3691 -2.5218
11828TIP3    H256976   3.196   5.554   0.829  0.3007  1.1908 -0.9558
11829TIP3   OH256977   3.015   3.619   4.309 -0.2715 -0.3537 -0.3285
11829TIP3    H156978   3.067   3.573   4.375  1.5039  0.1869 -1.2798
11829TIP3    H256979   3.024   3.566   4.230 -2.3637 -0.9892 -0.2102
11830TIP3   OH256980   2.497   2.745  12.142 -0.1044  0.4462  0.1841
11830TIP3    H156981   2.533   2.800  12.211 -0.2081 -0.8637  1.3317
11830TIP3    H256982   2.573   2.709  12.097  0.0362 -0.4412  1.0808
11831TIP3   OH256983   1.555   2.377  14.040 -0.5814  0.1965  0.0847
11831TIP3    H156984   1.590   2.310  13.981 -0.1282  1.6558 -1.3767
11831TIP3    H256985   1.468   2.397  14.005 -1.1045 -0.2998  1.0852
11832TIP3   OH256986   5.999   6.437  11.620 -0.7506 -0.6403  0.1928
11832TIP3    H156987   6.015   6.492  11.696  2.1161 -1.0534 -0.0108
11832TIP3    H256988   5.968   6.497  11.553  0.8039  0.4908  0.4393
11833TIP3   OH256989   6.685   1.585  14.074  0.1099 -0.2705  0.6949
11833TIP3    H156990   6.767   1.567  14.120 -0.3986  0.7709  2.0750
11833TIP3    H256991   6.709   1.647  14.005  0.1900  1.8824  2.5385
11834TIP3   OH256992   3.909   4.231  16.993  0.0105 -0.4617 -0.0433
11834TIP3    H156993   3.927   4.226  17.086  1.3417 -1.3694 -0.3192
11834TIP3    H256994   3.814   4.218  16.986 -0.0331 -0.9178  1.1457
11835TIP3   OH256995   3.102   1.416   0.962  0.2251  0.1349 -0.4934
11835TIP3    H156996   3.133   1.433   1.050 -0.2425  2.4463 -0.7068
11835TIP3    H256997   3.178   1.380   0.916  1.3883  1.7378  0.0826
11836TIP3   OH256998   2.443   1.426   4.296  0.1472  0.1527 -0.4040
11836TIP3    H156999   2.438   1.455   4.205  0.6935  0.7669 -0.2454
11836TIP3    H257000   2.478   1.501   4.343  0.1244 -0.2546  0.2754
11837TIP3   OH257001   6.746   5.654   1.113 -0.8650  0.1751  0.1641
11837TIP3    H157002   6.746   5.567   1.073  0.0130  0.6424 -0.9035
11837TIP3    H257003   6.795   5.709   1.051 -1.6200  1.4870  0.6942
11838TIP3   OH257004   6.418   2.099   6.012 -0.2725 -0.4055 -0.0942
11838TIP3    H157005   6.338   2.151   6.003 -0.5918 -0.5809  1.4630
11838TIP3    H257006   6.393   2.027   6.070  0.0889 -2.4764 -2.3549
11839TIP3   OH257007   0.443   4.709   4.981 -0.0415  0.1565  0.3509
11839TIP3    H157008   0.537   4.717   4.964 -0.1801  0.8123 -0.1520
11839TIP3    H257009   0.426   4.615   4.978  0.1705  0.1236 -2.0558
11840TIP3   OH257010   5.159   4.441   1.866 -0.1816  0.1561  0.0387
11840TIP3    H157011   5.142   4.508   1.933 -3.4283  0.2645 -0.7313
11840TIP3    H257012   5.193   4.490   1.792  0.9849  0.4003  0.7159
11841TIP3   OH257013   0.083   1.288  17.009 -0.3192  0.8376  0.5586
11841TIP3    H157014   0.017   1.220  16.995 -0.9055  1.2589  1.2400
11841TIP3    H257015   0.161   1.255  16.964 -1.2568  0.7828 -1.0967
11842TIP3   OH257016   1.415   2.135   2.111 -0.0887  0.1143  0.0697
11842TIP3    H157017   1.449   2.211   2.159 -1.7451  1.3249 -0.5757
11842TIP3    H257018   1.363   2.173   2.040 -3.9850 -1.4764  1.7854
11843TIP3   OH257019   1.891   4.190   0.886 -0.0169 -0.0182 -0.9405
11843TIP3    H157020   1.827   4.175   0.817  0.8486 -0.3007 -1.7060
11843TIP3    H257021   1.896   4.107   0.933  1.2758 -0.6993 -2.1867
11844TIP3   OH257022   3.771   2.294   0.590  0.6616 -0.0424 -0.6825
11844TIP3    H157023   3.680   2.320   0.602  0.7795  0.1399 -0.1346
11844TIP3    H257024   3.813   2.314   0.674  0.7534 -2.0553 -0.1946
11845TIP3   OH257025   6.346   1.072   1.299 -0.7980  0.0263  0.7573
11845TIP3    H157026   6.313   1.006   1.238  2.6144 -0.8793 -0.3634
11845TIP3    H257027   6.290   1.064   1.376 -2.3904 -2.0423 -0.4927
11846TIP3   OH257028   5.863   1.455  13.876 -0.1825 -0.7204 -0.0793
11846TIP3    H157029   5.932   1.502  13.924 -2.0340  0.9154  1.1536
11846TIP3    H257030   5.788   1.457  13.936 -1.5793 -1.6297 -1.7346
11847TIP3   OH257031   6.306   2.307  15.918  0.1180  0.3844 -0.3577
11847TIP3    H157032   6.266   2.270  15.997  1.1871  1.6058  0.8043
11847TIP3    H257033   6.368   2.240  15.889 -0.8538 -0.4142 -0.6613
11848TIP3   OH257034   4.697   6.040   0.007 -0.1499  0.5028  0.2692
11848TIP3    H157035   4.665   6.102   0.073 -0.6235  0.5483  0.0030
11848TIP3    H257036   4.648   5.959   0.024  0.8910 -0.0001  0.9918
11849TIP3   OH257037   3.003   6.237  15.756 -0.1725  0.5894  0.2984
11849TIP3    H157038   3.084   6.246  15.706 -0.5079 -2.5603 -1.1145
11849TIP3    H257039   2.944   6.301  15.718  0.2381 -0.3272 -2.0859
11850TIP3   OH257040   5.174   0.706  12.479 -0.3567  0.0739 -0.6081
11850TIP3    H157041   5.262   0.695  12.442 -0.0330 -2.1340  0.5878
11850TIP3    H257042   5.181   0.783  12.536  1.1336 -0.6241  0.2296
11851TIP3   OH257043   1.904   1.797   1.764 -0.0185 -0.5175 -0.0669
11851TIP3    H157044   1.871   1.755   1.685 -1.0491 -0.3951  0.2818
11851TIP3    H257045   1.835   1.784   1.829 -0.4996  1.8931  0.0022
11852TIP3   OH257046   3.159   6.504  16.957 -0.2356  0.0759  0.3905
11852TIP3    H157047   3.172   6.486  16.864 -2.3033 -2.0544  0.4243
11852TIP3    H257048   3.098   6.577  16.960  0.6784  0.8797  0.1428
11853TIP3   OH257049   6.360   2.786   2.423  0.2169  0.6246  0.5069
11853TIP3    H157050   6.437   2.770   2.369 -0.0938  1.3108 -0.1642
11853TIP3    H257051   6.286   2.775   2.363 -0.0845  2.5410  0.4652
11854TIP3   OH257052   6.590   5.853   3.944  0.0082  0.1388 -0.2339
11854TIP3    H157053   6.654   5.825   4.009 -0.0873 -0.0833 -0.2355
11854TIP3    H257054   6.533   5.914   3.991  0.4057  0.5776 -0.3129
11855TIP3   OH257055   2.188   1.664   3.881 -0.2321  0.3572  0.0963
11855TIP3    H157056   2.108   1.613   3.868  0.4343 -0.1848 -2.2104
11855TIP3    H257057   2.165   1.752   3.851 -0.0652  0.2884 -0.2326
11856TIP3   OH257058   0.543   4.726  12.250  0.9679  0.2515 -0.1633
11856TIP3    H157059   0.524   4.745  12.342  4.8885  0.7817  0.7135
11856TIP3    H257060   0.587   4.641  12.251  0.8783  0.1629 -1.5992
11857TIP3   OH257061   1.795   0.771  16.481  0.6459  0.2447  0.2885
11857TIP3    H157062   1.707   0.798  16.456  0.6678  0.0786  0.0203
11857TIP3    H257063   1.788   0.749  16.574  0.3196 -0.1104  0.1810
11858TIP3   OH257064   3.543   0.432  12.034 -0.0087  0.2814 -0.1971
11858TIP3    H157065   3.595   0.434  11.953  0.3592  0.0151  0.0297
11858TIP3    H257066   3.586   0.495  12.092 -0.7032  1.0167 -0.4597
11859TIP3   OH257067   5.002   6.571   2.130 -0.1179 -0.0520  0.0839
11859TIP3    H157068   5.024   6.661   2.152  0.6368 -0.9137  3.2966
11859TIP3    H257069   4.914   6.576   2.092  0.1558  2.0696 -0.3573
11860TIP3   OH257070   5.191   1.210  16.594 -0.2425 -0.2695 -0.9188
11860TIP3    H157071   5.133   1.198  16.670 -0.4596  0.0727 -1.0282
11860TIP3    H257072   5.206   1.305  16.590  1.7194 -0.4850  0.1376
11861TIP3   OH257073   4.361   6.580   2.257 -0.3816 -0.4651  0.5661
11861TIP3    H157074   4.428   6.551   2.319  1.0079 -0.9772 -1.0802
11861TIP3    H257075   4.288   6.608   2.311  0.4356 -1.6978  2.3989
11862TIP3   OH257076   3.635   2.351  11.977  0.2086 -0.1656  0.5067
11862TIP3    H157077   3.643   2.295  12.054 -1.4039  1.8113  2.2465
11862TIP3    H257078   3.673   2.435  12.004  0.4112  0.3255 -1.1635
11863TIP3   OH257079   4.849   3.391   6.029 -0.0737 -0.2771 -0.3333
11863TIP3    H157080   4.806   3.468   6.067  0.8217 -0.4182  1.0185
11863TIP3    H257081   4.942   3.403   6.050  0.3520 -0.7814 -1.7974
11864TIP3   OH257082   0.026   3.011   0.642  0.2074 -0.5310 -0.0565
11864TIP3    H157083  -0.012   2.963   0.715  1.2844 -0.9286  0.2632
11864TIP3    H257084   0.020   3.103   0.668 -1.7279 -0.4586 -0.6100
11865TIP3   OH257085   1.903   1.178   0.750 -0.3595  0.0321  0.5012
11865TIP3    H157086   1.997   1.192   0.764 -0.1475  0.8895 -1.4261
11865TIP3    H257087   1.875   1.127   0.826  1.4080  0.7612  1.7195
11866TIP3   OH257088   2.637   5.413   1.409  0.2707  0.5518  0.4182
11866TIP3    H157089   2.709   5.362   1.373 -0.2967 -0.1377  0.2492
11866TIP3    H257090   2.680   5.479   1.465  1.1807  1.7120 -1.5427
11867TIP3   OH257091   6.226   4.687  15.360 -0.0054  0.6994  0.6145
11867TIP3    H157092   6.162   4.621  15.333  0.8319  0.1102  0.0226
11867TIP3    H257093   6.186   4.771  15.336 -0.3774  0.3205 -0.1148
11868TIP3   OH257094   3.094   0.288   2.530 -0.1335 -0.0879  0.2620
11868TIP3    H157095   3.113   0.197   2.553 -0.9194 -0.8767 -1.9556
11868TIP3    H257096   3.045   0.322   2.604 -1.2869 -1.9995  0.4319
11869TIP3   OH257097   0.120   0.876  15.863  0.7963 -0.4444  0.4698
11869TIP3    H157098   0.094   0.791  15.827  1.7162 -1.0836  1.2703
11869TIP3    H257099   0.155   0.923  15.787  2.5966 -1.7307  0.4131
11870TIP3   OH257100   6.537   5.169  12.758 -0.0472  0.3707 -0.1788
11870TIP3    H157101   6.535   5.230  12.684  0.8106 -0.0952 -0.6042
11870TIP3    H257102   6.622   5.126  12.751 -0.1973 -0.0991  0.7494
11871TIP3   OH257103   2.073   1.044   3.922 -0.3861  0.1082  0.0291
11871TIP3    H157104   2.000   1.066   3.865 -0.3196  0.9739  0.2557
11871TIP3    H257105   2.128   1.123   3.922  0.3415 -0.3865  0.1726
11872TIP3   OH257106   0.042   5.679   1.753 -0.2547 -0.3319  0.4780
11872TIP3    H157107   0.019   5.587   1.741  0.3241 -0.2693 -1.5927
11872TIP3    H257108  -0.000   5.723   1.679 -0.0610  0.9812  1.1312
11873TIP3   OH257109   3.195   5.680   2.499 -0.0928  0.6750  0.0079
11873TIP3    H157110   3.223   5.715   2.415  1.7396  0.9132  0.6838
11873TIP3    H257111   3.276   5.665   2.547 -1.1229  1.2968  2.0367
11874TIP3   OH257112   4.834   0.941  13.966  0.0777 -0.1103 -0.0217
11874TIP3    H157113   4.752   0.893  13.952  0.4795 -0.8090 -0.0266
11874TIP3    H257114   4.844   0.944  14.061  0.3423 -0.5520 -0.0306
11875TIP3   OH257115   0.033   0.078   5.284  0.5104  0.0138  0.2276
11875TIP3    H157116  -0.044   0.024   5.303 -1.4430  1.0711 -3.5639
11875TIP3    H257117   0.076   0.032   5.212  1.5279  1.1472  0.0913
11876TIP3   OH257118   2.935   5.973  11.667 -0.2257 -0.0075 -0.4794
11876TIP3    H157119   2.905   5.928  11.588 -0.2640 -0.4654 -0.2069
11876TIP3    H257120   3.024   6.001  11.646 -0.2288 -0.1442 -0.6803
11877TIP3   OH257121   0.450   1.261  16.036  0.6445  0.1345 -0.5323
11877TIP3    H157122   0.479   1.271  16.126 -1.9906  2.0966  0.2312
11877TIP3    H257123   0.512   1.312  15.984  1.5967 -0.1845  0.2668
11878TIP3   OH257124   5.171   2.252  12.743 -0.5490 -0.1503 -0.2598
11878TIP3    H157125   5.262   2.238  12.770 -0.3843  1.3049  0.0395
11878TIP3    H257126   5.153   2.343  12.767 -2.3002 -0.6027  0.3007
11879TIP3   OH257127   3.791   6.389   4.167 -0.1167  0.3436  0.2259
11879TIP3    H157128   3.775   6.295   4.160  0.4779  0.2452  0.1266
11879TIP3    H257129   3.757   6.426   4.085 -0.2773  0.2082  0.2312
11880TIP3   OH257130   4.359   0.786   4.475 -0.4556 -0.2215  0.1675
11880TIP3    H157131   4.402   0.705   4.502 -1.7434 -1.9318 -2.4707
11880TIP3    H257132   4.265   0.765   4.478 -0.8717  1.5355  0.4143
11881TIP3   OH257133   6.731   4.571  14.874 -0.2162 -0.4511 -0.0000
11881TIP3    H157134   6.772   4.590  14.790 -1.4464 -0.7277 -0.6904
11881TIP3    H257135   6.800   4.528  14.925  1.0459  1.1879 -0.2509
11882TIP3   OH257136   0.452   0.883  13.012  0.1797  0.3746 -0.5349
11882TIP3    H157137   0.490   0.819  13.072  2.0738  1.6785 -0.2398
11882TIP3    H257138   0.440   0.962  13.065  1.4458  1.4082 -1.7214
11883TIP3   OH257139   5.846   2.907   3.597  0.0154 -0.2959 -0.3502
11883TIP3    H157140   5.909   2.836   3.607 -0.0436 -0.2116  0.7240
11883TIP3    H257141   5.896   2.979   3.560  0.7729  0.0272  1.2018
11884TIP3   OH257142   1.633   6.105   6.461 -0.4613 -0.4112 -0.2481
11884TIP3    H157143   1.595   6.182   6.419  0.2433  0.7289  1.1017
11884TIP3    H257144   1.727   6.115   6.448 -0.0826  0.6899  2.5738
11885TIP3   OH257145   3.961   5.978   1.353 -0.0212  0.5376  0.1299
11885TIP3    H157146   3.950   5.885   1.370  0.4115  0.4078 -0.3042
11885TIP3    H257147   3.998   6.013   1.434 -0.7436  0.4460  0.5131
11886TIP3   OH257148   5.530   1.999  13.047  0.1174 -0.2526  0.7519
11886TIP3    H157149   5.605   2.021  12.992  0.3810  0.0333  1.2203
11886TIP3    H257150   5.460   2.056  13.017  0.8389  1.4002  2.0630
11887TIP3   OH257151   0.936   5.935  12.767  0.0040 -0.1361  0.0965
11887TIP3    H157152   1.022   5.934  12.726 -0.0962  1.0573 -0.1935
11887TIP3    H257153   0.954   5.932  12.861  0.2329 -2.9782  0.0528
11888TIP3   OH257154   5.018   3.255  15.817 -0.8044 -0.6309  0.5066
11888TIP3    H157155   4.949   3.215  15.764 -2.5910  2.2346  0.4986
11888TIP3    H257156   5.057   3.321  15.760  1.2608 -1.4163  0.9138
11889TIP3   OH257157   0.372   5.718  11.049 -0.5284 -0.4383 -0.8824
11889TIP3    H157158   0.340   5.747  10.963 -1.5947 -2.1349 -1.0985
11889TIP3    H257159   0.415   5.635  11.032  0.0842 -0.3342  0.1094
11890TIP3   OH257160   6.531   2.436  14.976 -0.3968 -0.2430 -0.3619
11890TIP3    H157161   6.453   2.458  15.027 -0.1798 -0.7401  0.1893
11890TIP3    H257162   6.557   2.518  14.934  0.3671  0.5696  1.5985
11891TIP3   OH257163   4.748   0.201  16.110  0.1789 -0.1676 -0.1778
11891TIP3    H157164   4.732   0.111  16.139 -3.2197  1.0305  2.3868
11891TIP3    H257165   4.841   0.216  16.128  0.3387 -2.5285  1.4136
11892TIP3   OH257166   5.475   6.163  16.165 -0.3664 -0.1833  0.1938
11892TIP3    H157167   5.487   6.089  16.225 -1.2161  0.7282  1.5169
11892TIP3    H257168   5.383   6.158  16.139 -0.0660 -0.4259 -0.8726
11893TIP3   OH257169   2.701   2.136   3.967  0.8558 -0.8062  0.2840
11893TIP3    H157170   2.726   2.196   4.037  1.3008 -0.1138 -0.4456
11893TIP3    H257171   2.728   2.181   3.887 -2.1328 -0.2973 -0.5689
11894TIP3   OH257172   1.707   3.481  16.046 -0.1150 -0.0578  0.4853
11894TIP3    H157173   1.664   3.444  16.123  0.8573 -1.2006  0.5011
11894TIP3    H257174   1.652   3.556  16.022 -1.6732 -1.0001  0.9526
11895TIP3   OH257175   2.351   3.177  11.083  0.0515 -0.5926 -0.2707
11895TIP3    H157176   2.408   3.106  11.114 -1.1689 -2.1002 -1.3090
11895TIP3    H257177   2.278   3.178  11.145 -1.1217 -1.9087 -1.5585
11896TIP3   OH257178   1.418   4.742  15.668 -0.1719 -0.0366 -0.2183
11896TIP3    H157179   1.466   4.714  15.590  0.2031  1.5499 -0.5899
11896TIP3    H257180   1.484   4.743  15.737 -0.0808  0.3731 -0.3112
11897TIP3   OH257181   2.120   2.939  13.506 -0.4109 -0.5770  0.1292
11897TIP3    H157182   2.153   3.026  13.528 -0.0523 -1.1628  2.1361
11897TIP3    H257183   2.092   2.946  13.415  0.1446  1.4653  0.0669
11898TIP3   OH257184   1.866   3.162  13.474  0.5051  0.3944  0.1352
11898TIP3    H157185   1.837   3.071  13.474  1.1486  0.1871  0.1156
11898TIP3    H257186   1.823   3.201  13.397  0.7001 -0.0411 -0.1949
11899TIP3   OH257187   0.287   2.151  10.200  0.0205 -0.1628 -0.0440
11899TIP3    H157188   0.340   2.151  10.121  1.1500 -0.4989  0.6829
11899TIP3    H257189   0.278   2.058  10.223 -2.8093 -0.3057 -1.3628
11900TIP3   OH257190   5.353   3.805   0.025  0.3337 -0.2862  1.0934
11900TIP3    H157191   5.263   3.824   0.001  0.7270  1.7104  1.0625
11900TIP3    H257192   5.398   3.792  -0.058 -0.1000 -2.5233  1.1247
11901TIP3   OH257193   4.694   3.763   3.985 -0.2206 -0.2564  0.9008
11901TIP3    H157194   4.624   3.791   3.926 -2.1119 -1.6829  2.3488
11901TIP3    H257195   4.714   3.841   4.036  0.5698  0.6557 -0.7105
11902TIP3   OH257196   4.293   3.113  11.740  0.5163  0.1481  0.6537
11902TIP3    H157197   4.365   3.143  11.685  1.3212 -0.3414  1.4368
11902TIP3    H257198   4.220   3.101  11.678  0.7298  1.7782  0.0311
11903TIP3   OH257199   4.110   5.725  10.820  0.0749 -1.0865 -0.3850
11903TIP3    H157200   4.138   5.675  10.743  3.1701 -1.6248  0.9262
11903TIP3    H257201   4.089   5.659  10.885 -0.5416 -0.6416 -0.1307
11904TIP3   OH257202   2.555   0.434   3.176 -0.5793 -0.2255 -0.4714
11904TIP3    H157203   2.520   0.522   3.165  0.8152  0.3599 -0.3933
11904TIP3    H257204   2.496   0.378   3.126 -1.2940  0.7940 -0.7879
11905TIP3   OH257205   3.841   3.429  16.506 -0.2283 -0.3282 -0.0052
11905TIP3    H157206   3.921   3.480  16.519  0.6941 -1.9940  1.2059
11905TIP3    H257207   3.861   3.372  16.432 -1.0808  0.6572 -1.0372
11906TIP3   OH257208   6.690   6.539   2.174  0.4110 -0.2740  0.2424
11906TIP3    H157209   6.746   6.612   2.200  1.7150 -1.6123  1.3293
11906TIP3    H257210   6.628   6.529   2.246  0.0758 -0.1054 -0.0176
11907TIP3   OH257211   5.528   5.786  11.493 -0.5502 -0.1134  0.3737
11907TIP3    H157212   5.618   5.770  11.523  0.6610  0.3576 -2.5945
11907TIP3    H257213   5.488   5.699  11.490 -0.8640 -0.1538  3.3932
11908TIP3   OH257214   5.649   5.519   0.990 -0.2408 -0.0294 -0.5696
11908TIP3    H157215   5.740   5.524   1.019  0.2828  0.2098 -2.1334
11908TIP3    H257216   5.611   5.446   1.040  0.9791 -0.5065 -0.3143
11909TIP3   OH257217   4.836   1.444   2.085  0.0554 -0.1689  0.0627
11909TIP3    H157218   4.850   1.497   2.165  1.2048  0.4305 -0.5054
11909TIP3    H257219   4.752   1.474   2.052  0.2153  0.5913  0.3080
11910TIP3   OH257220   2.549   0.675  10.958  0.3406 -0.0671  0.4755
11910TIP3    H157221   2.579   0.733  11.028  1.0728 -1.3473  1.2609
11910TIP3    H257222   2.471   0.718  10.924 -1.1275 -0.2670  3.2976
11911TIP3   OH257223   3.510   3.913  10.656  0.5194  0.2900 -0.2940
11911TIP3    H157224   3.503   3.937  10.748 -0.6347  1.2037 -0.6011
11911TIP3    H257225   3.591   3.954  10.626 -0.3719  2.1062 -0.2892
11912TIP3   OH257226   0.419   3.550  11.554 -0.5611 -0.0053 -0.3767
11912TIP3    H157227   0.502   3.596  11.565 -0.1630 -0.9442  0.7643
11912TIP3    H257228   0.378   3.552  11.640 -0.7042 -1.4016 -0.3817
11913TIP3   OH257229   6.217   3.508  12.259 -0.0995 -0.5330  0.1898
11913TIP3    H157230   6.141   3.558  12.229 -0.4360 -1.1440  0.0118
11913TIP3    H257231   6.286   3.530  12.196 -0.2911 -0.4103  0.0210
11914TIP3   OH257232   6.759   6.086   6.153  0.3318  0.0551  0.2941
11914TIP3    H157233   6.746   6.015   6.215  0.4327  0.4158  0.7294
11914TIP3    H257234   6.813   6.047   6.083  0.8355 -0.1508  0.7877
11915TIP3   OH257235   3.421   5.083  15.535  0.3977 -0.7957 -0.2286
11915TIP3    H157236   3.514   5.072  15.518  0.1864 -0.8846 -1.3588
11915TIP3    H257237   3.388   4.994  15.547  0.7077 -0.6975  1.6717
11916TIP3   OH257238   0.057   4.229  13.017 -0.3168 -0.4262 -0.0813
11916TIP3    H157239   0.050   4.230  12.921 -0.7151 -2.0584 -0.1138
11916TIP3    H257240   0.148   4.252  13.035 -0.4049  0.5577 -0.8077
11917TIP3   OH257241   2.856   1.934  13.086  0.2028  0.0465 -0.8423
11917TIP3    H157242   2.850   1.940  13.181 -0.4696  1.3015 -0.9421
11917TIP3    H257243   2.789   1.870  13.061  0.2630 -0.1570 -0.4902
11918TIP3   OH257244   3.000   0.564   2.861 -0.1255  0.3802 -0.0756
11918TIP3    H157245   3.079   0.566   2.806 -0.1991 -0.6615 -0.2518
11918TIP3    H257246   2.960   0.479   2.842 -2.3902  1.6401 -1.5180
11919TIP3   OH257247   5.858   5.307  11.492 -0.0087 -0.2319  0.1441
11919TIP3    H157248   5.852   5.362  11.414  1.8701 -0.1271  0.0435
11919TIP3    H257249   5.880   5.367  11.563 -1.0160 -0.4363  0.6593
11920TIP3   OH257250   5.906   6.373  10.738 -0.3603 -0.2415  0.3224
11920TIP3    H157251   5.865   6.288  10.723  0.7840 -0.6598 -0.5589
11920TIP3    H257252   5.990   6.352  10.778  0.2815  0.4164 -0.6502
11921TIP3   OH257253   6.105   6.667   3.260 -0.2198  0.1490  0.2103
11921TIP3    H157254   6.037   6.599   3.264  1.4602 -1.8469 -2.1080
11921TIP3    H257255   6.132   6.680   3.351 -1.5775 -1.2408  0.8586
11922TIP3   OH257256   4.088   0.771  11.641  0.0701  0.0630  0.1176
11922TIP3    H157257   4.157   0.744  11.700 -1.0576 -1.1033  0.9542
11922TIP3    H257258   4.131   0.781  11.556  1.9938  3.0614  1.2901
11923TIP3   OH257259   1.291   4.705   2.053 -0.7646  0.0701  0.2217
11923TIP3    H157260   1.254   4.617   2.055  1.5702 -0.9654  0.5639
11923TIP3    H257261   1.261   4.746   2.134 -2.4584 -0.1076 -0.2766
11924TIP3   OH257262   3.353   0.219   1.749  0.4691  0.0072  0.3743
11924TIP3    H157263   3.353   0.290   1.684  1.2132 -0.9321 -0.6889
11924TIP3    H257264   3.445   0.193   1.756  0.4492  0.2877  2.0557
11925TIP3   OH257265   3.338   5.566  12.721 -0.4323  0.1835 -0.2108
11925TIP3    H157266   3.340   5.471  12.704 -2.4319  0.2906 -1.3540
11925TIP3    H257267   3.331   5.606  12.634  0.1541  1.3716  0.2733
11926TIP3   OH257268   5.523   1.784   5.955  0.5636  0.1743  0.2462
11926TIP3    H157269   5.550   1.873   5.980  2.0324 -0.1115 -0.2019
11926TIP3    H257270   5.548   1.729   6.029  0.8053 -0.0305  0.0178
11927TIP3   OH257271   6.456   5.783   2.774 -0.2611  0.2555  0.0631
11927TIP3    H157272   6.412   5.728   2.709  0.2271 -0.0103 -0.0505
11927TIP3    H257273   6.479   5.722   2.845  0.1497  0.3344  0.0046
11928TIP3   OH257274   0.193   5.314  16.796 -0.0039 -0.3107  0.0703
11928TIP3    H157275   0.195   5.401  16.836 -0.8905 -0.2518  0.0105
11928TIP3    H257276   0.119   5.270  16.838 -0.4047 -0.5528 -0.8796
11929TIP3   OH257277   4.990   2.831  12.384 -0.4264  0.5080  0.1106
11929TIP3    H157278   5.044   2.752  12.373  0.0753  0.7513  0.7408
11929TIP3    H257279   4.901   2.797  12.397 -0.1524  0.0064  0.7818
11930TIP3   OH257280   0.386   0.806   5.545 -0.1281  0.1592 -0.1286
11930TIP3    H157281   0.415   0.865   5.615  2.6892 -0.5539 -0.5606
11930TIP3    H257282   0.415   0.849   5.465  2.4325 -1.8703 -0.4330
11931TIP3   OH257283   2.506   2.743   5.180 -0.3197  0.4044  0.3179
11931TIP3    H157284   2.570   2.693   5.131  1.6020  1.3938  1.6962
11931TIP3    H257285   2.468   2.679   5.242 -1.3996 -0.3933 -1.1075
11932TIP3   OH257286   2.226   3.903  16.558  0.0311  0.2685  0.1660
11932TIP3    H157287   2.240   3.860  16.473 -3.0692 -0.8622  0.0831
11932TIP3    H257288   2.263   3.842  16.622  1.5116  0.6616 -0.2869
11933TIP3   OH257289   6.086   3.059  12.582 -0.0812  0.1466 -0.0274
11933TIP3    H157290   6.169   3.100  12.559  0.6743 -0.5051  1.3944
11933TIP3    H257291   6.035   3.129  12.623  0.7620  0.0030  1.3558
11934TIP3   OH257292   4.419   3.316   0.835  0.3805  0.7677 -0.2692
11934TIP3    H157293   4.376   3.396   0.865  3.9194  1.8413  2.6952
11934TIP3    H257294   4.502   3.346   0.796  0.3534 -1.3448 -2.2097
11935TIP3   OH257295   0.318   0.861  13.900 -0.5668  0.7011 -0.6178
11935TIP3    H157296   0.334   0.830  13.989 -2.4702 -0.1568 -0.5263
11935TIP3    H257297   0.373   0.939  13.891 -0.3190  0.7835  1.2877
11936TIP3   OH257298   1.526   5.070   2.858  0.1811  0.4457  0.2919
11936TIP3    H157299   1.448   5.107   2.899  0.8274  2.7040 -0.3926
11936TIP3    H257300   1.535   5.117   2.776  1.0350 -1.3560 -0.7088
11937TIP3   OH257301   5.395   0.170  14.496 -0.4523 -0.1199  0.2771
11937TIP3    H157302   5.329   0.192  14.562 -0.1058  1.1389  0.2297
11937TIP3    H257303   5.345   0.147  14.418 -0.8733 -1.8951  1.0291
11938TIP3   OH257304   4.053   1.582  13.835  0.1295 -0.6085  0.0896
11938TIP3    H157305   3.992   1.510  13.822 -1.4855  0.1198  2.8044
11938TIP3    H257306   3.999   1.660  13.833  1.6748  0.5122 -1.6063
11939TIP3   OH257307   6.417   0.248  13.035 -0.0136 -0.6377 -0.7610
11939TIP3    H157308   6.376   0.223  12.953 -0.5223 -0.2915 -0.6164
11939TIP3    H257309   6.498   0.293  13.009  0.2345 -1.2346 -1.0450
11940TIP3   OH257310   1.860   6.111  15.904 -0.2570 -0.3794  0.1234
11940TIP3    H157311   1.887   6.166  15.831  2.1650  1.0215  1.9587
11940TIP3    H257312   1.930   6.046  15.912 -0.0826 -0.0341  1.6434
11941TIP3   OH257313   4.982   4.979  13.802 -0.2372 -0.0863  0.2029
11941TIP3    H157314   4.991   5.041  13.730 -1.9944 -1.1170 -0.9823
11941TIP3    H257315   4.923   5.022  13.864  2.7665  1.6241  2.1042
11942TIP3   OH257316   4.452   4.842  13.603  0.3693 -0.2332  0.6703
11942TIP3    H157317   4.428   4.910  13.666  0.9392  0.1472  0.4825
11942TIP3    H257318   4.485   4.890  13.527 -0.2864 -0.6919  0.0904
11943TIP3   OH257319   1.814   5.858  16.928  0.7556  0.3120  0.9003
11943TIP3    H157320   1.865   5.933  16.960  2.0132 -0.0993 -0.0659
11943TIP3    H257321   1.810   5.799  17.003  1.1800  0.6268  1.1799
11944TIP3   OH257322   6.632   1.380  15.320  0.0315  0.1755  0.4040
11944TIP3    H157323   6.585   1.305  15.357  0.9850 -1.0134 -0.7025
11944TIP3    H257324   6.585   1.401  15.239 -1.3415  2.0179  1.5872
11945TIP3   OH257325   1.145   1.520  14.264  0.2038 -0.3663 -0.1249
11945TIP3    H157326   1.169   1.548  14.353 -0.6629 -0.3218  0.1102
11945TIP3    H257327   1.156   1.599  14.211 -0.4581 -0.0576  0.1848
11946TIP3   OH257328   6.380   6.012   0.576  0.8144 -0.0909 -0.2020
11946TIP3    H157329   6.433   6.087   0.548  1.7263 -0.3183  0.8471
11946TIP3    H257330   6.320   5.997   0.503  1.2060  1.1026 -0.8034
11947TIP3   OH257331   4.471   1.640  16.950 -0.0708 -0.6490  0.7622
11947TIP3    H157332   4.408   1.637  17.022  0.2647 -0.8532  1.0476
11947TIP3    H257333   4.555   1.657  16.992  0.1014 -0.6119  0.4037
11948TIP3   OH257334   6.589   1.876  11.230  0.3033 -0.2672  0.4026
11948TIP3    H157335   6.666   1.826  11.258 -0.1144  0.2342  2.6517
11948TIP3    H257336   6.619   1.967  11.234 -0.1415 -0.1223  0.3977
11949TIP3   OH257337   3.048   3.953   3.315 -0.0403  0.2711  0.4464
11949TIP3    H157338   3.012   4.013   3.249 -0.2535  0.7086  0.9516
11949TIP3    H257339   3.125   3.915   3.273 -0.3156  0.3486 -0.1516
11950TIP3   OH257340   2.667   6.790  11.642  0.1166 -0.3194  0.5624
11950TIP3    H157341   2.709   6.762  11.723  1.6921 -0.3002 -0.2214
11950TIP3    H257342   2.737   6.790  11.576 -1.0199  0.1035 -0.7059
11951TIP3   OH257343   5.913   3.784  15.153  0.3067 -0.0274  0.2447
11951TIP3    H157344   5.980   3.799  15.086  0.7039  2.1956  1.0590
11951TIP3    H257345   5.963   3.763  15.232 -0.1752 -3.1784 -0.1823
11952TIP3   OH257346   4.427   3.318  13.198 -0.2301 -0.3627 -0.0606
11952TIP3    H157347   4.354   3.379  13.191 -0.8600 -1.2020 -1.1085
11952TIP3    H257348   4.409   3.267  13.277  0.9896  1.6255  1.5980
11953TIP3   OH257349   6.364   4.422   0.553  0.3024  0.0868  0.1090
11953TIP3    H157350   6.381   4.501   0.501 -0.2850  1.2464  1.5988
11953TIP3    H257351   6.450   4.390   0.578  0.6749 -1.2484 -2.5666
11954TIP3   OH257352   3.871   6.029  13.907  0.5344  0.7730  0.4428
11954TIP3    H157353   3.848   5.989  13.991 -0.3508  0.8504  0.2504
11954TIP3    H257354   3.819   6.109  13.903 -0.7087 -0.0374 -0.8602
11955TIP3   OH257355   2.834   4.575   0.759  0.3281  0.3946  0.5862
11955TIP3    H157356   2.813   4.513   0.829 -0.6875  0.4901  0.3806
11955TIP3    H257357   2.901   4.632   0.797  0.3138  0.0001  1.2246
11956TIP3   OH257358   0.851   2.152  10.127 -0.2400  0.3477 -0.6452
11956TIP3    H157359   0.825   2.238  10.092 -0.3146  0.7556  0.3817
11956TIP3    H257360   0.770   2.102  10.128 -0.8232  1.2183  1.3987
11957TIP3   OH257361   0.529   2.988   2.524  0.2082  0.4363 -0.4136
11957TIP3    H157362   0.533   3.066   2.579 -0.9300  0.4370 -0.2993
11957TIP3    H257363   0.492   2.921   2.581  0.1965  0.0996 -0.8152
11958TIP3   OH257364   3.576   4.965  11.855  0.2199  0.1124 -0.1160
11958TIP3    H157365   3.517   4.964  11.930 -0.4614 -0.1788 -0.6442
11958TIP3    H257366   3.647   4.905  11.879 -0.3075 -0.4513  0.0514
11959TIP3   OH257367   4.488   2.536  10.182 -0.2569  0.1532  0.0382
11959TIP3    H157368   4.455   2.455  10.141 -1.4965 -0.1557  1.5378
11959TIP3    H257369   4.413   2.596  10.180 -0.5135 -0.0118  2.1254
11960TIP3   OH257370   2.069   3.477  16.703 -0.0648  0.0035 -0.2633
11960TIP3    H157371   2.065   3.388  16.738  0.0733  0.3023  0.5224
11960TIP3    H257372   2.102   3.466  16.614 -2.3163 -0.9713 -1.0547
11961TIP3   OH257373   5.136   4.770  13.904  0.3693  0.1893  0.1660
11961TIP3    H157374   5.077   4.831  13.859  0.2358 -1.0647 -1.4407
11961TIP3    H257375   5.188   4.731  13.834  0.2813 -1.7247  1.1102
11962TIP3   OH257376   3.124   1.199   0.486 -0.3081  0.0048  0.4402
11962TIP3    H157377   3.043   1.152   0.507 -0.1633 -0.4111  0.0781
11962TIP3    H257378   3.107   1.289   0.514 -0.5135 -0.3008  1.3326
11963TIP3   OH257379   1.745   0.385   5.468  0.2764 -0.8062  0.1079
11963TIP3    H157380   1.703   0.434   5.538 -0.5806 -2.9266  1.1916
11963TIP3    H257381   1.839   0.402   5.479  0.2031 -1.4563  2.1199
11964TIP3   OH257382   3.022   1.376  14.304  0.2128  0.6226  0.0722
11964TIP3    H157383   3.115   1.366  14.327  0.3160 -0.2616 -0.6431
11964TIP3    H257384   2.978   1.394  14.387  0.9851  0.7782  0.4595
11965TIP3   OH257385   3.469   6.437   3.831  0.0736  0.3928  0.0997
11965TIP3    H157386   3.432   6.377   3.767  0.8052 -1.2093  1.1101
11965TIP3    H257387   3.501   6.511   3.780  1.5360 -1.2885 -1.5173
11966TIP3   OH257388   3.875   2.356  15.993 -0.0949 -0.3509 -0.0303
11966TIP3    H157389   3.918   2.297  16.055 -2.3200 -1.2054  0.8078
11966TIP3    H257390   3.905   2.444  16.019  1.6616 -0.9197  0.0078
11967TIP3   OH257391   4.423   3.136  16.451 -0.1165 -0.0890 -0.4796
11967TIP3    H157392   4.378   3.081  16.386 -0.9297 -0.4012  0.3162
11967TIP3    H257393   4.492   3.079  16.486  0.6784  0.2600 -1.4300
11968TIP3   OH257394   0.017   2.712  11.668  0.5856 -0.2402 -0.4396
11968TIP3    H157395  -0.041   2.788  11.660  0.8663  0.0948  0.5514
11968TIP3    H257396  -0.029   2.654  11.728  0.6395 -0.6036 -0.7470
11969TIP3   OH257397   3.106   3.544   3.533  0.8033 -0.3828  0.0123
11969TIP3    H157398   3.044   3.544   3.460 -2.5897  0.1083  2.6486
11969TIP3    H257399   3.145   3.632   3.531 -0.9748  0.4506  0.0533
11970TIP3   OH257400   4.191   2.357  14.708 -0.2673  0.3171 -0.0655
11970TIP3    H157401   4.160   2.436  14.664 -1.6041 -0.2405 -0.1700
11970TIP3    H257402   4.244   2.312  14.643  1.4874  1.6653  0.3590
11971TIP3   OH257403   1.476   0.871   1.198 -0.2257 -0.2487  0.0328
11971TIP3    H157404   1.427   0.797   1.163  0.0189  0.2085 -1.3286
11971TIP3    H257405   1.550   0.830   1.243  0.3908 -0.8527 -1.4401
11972TIP3   OH257406   0.275   4.577   1.753  0.8505 -0.3897 -0.2940
11972TIP3    H157407   0.345   4.552   1.813  1.2983 -1.9974 -1.4097
11972TIP3    H257408   0.238   4.657   1.790  2.6672 -0.0182  0.8145
11973TIP3   OH257409   1.775   3.017  14.218 -0.2718 -0.0647  0.3530
11973TIP3    H157410   1.817   2.968  14.146  0.0008  0.9827 -0.2236
11973TIP3    H257411   1.685   3.028  14.189 -0.0988  0.5744  0.0549
11974TIP3   OH257412   3.672   3.933  16.358  0.4784 -0.0654 -0.0772
11974TIP3    H157413   3.660   3.840  16.379  0.2309  0.1095  0.5729
11974TIP3    H257414   3.767   3.945  16.357  0.5088 -0.2951 -0.0378
11975TIP3   OH257415   2.545   5.920   3.720 -0.3888  0.1381 -0.5978
11975TIP3    H157416   2.482   5.984   3.687 -0.1814  1.2240  1.0323
11975TIP3    H257417   2.500   5.878   3.793  0.1533 -0.2885 -0.5023
11976TIP3   OH257418   5.792   4.364  15.093  0.1684 -0.3974  0.3729
11976TIP3    H157419   5.831   4.327  15.014 -0.3497 -1.4903  0.6151
11976TIP3    H257420   5.707   4.397  15.065 -0.0622 -0.8851  0.4901
11977TIP3   OH257421   3.781   4.224  14.250 -0.1918 -0.1823 -0.1457
11977TIP3    H157422   3.796   4.138  14.210  0.3921 -0.8721  1.4735
11977TIP3    H257423   3.862   4.245  14.295 -1.4134 -0.3996  2.3261
11978TIP3   OH257424   2.824   2.236   5.067  0.2715  0.6329  0.2836
11978TIP3    H157425   2.847   2.319   5.108  0.5604  1.3773 -1.3076
11978TIP3    H257426   2.858   2.169   5.127 -0.6547  1.6264  1.9772
11979TIP3   OH257427   4.600   0.828   2.689  0.0667  0.3674  0.0831
11979TIP3    H157428   4.646   0.750   2.660 -1.1944 -0.5717  0.5356
11979TIP3    H257429   4.662   0.900   2.673  0.6336 -0.4908 -1.9021
11980TIP3   OH257430   2.737   2.651   1.706  0.1313 -0.7790  0.3442
11980TIP3    H157431   2.768   2.735   1.672  1.6317 -1.0304  1.0373
11980TIP3    H257432   2.643   2.665   1.721  0.0322  0.2709 -1.0107
11981TIP3   OH257433   4.056   5.673   4.550 -0.2565  0.1595  0.2086
11981TIP3    H157434   4.018   5.608   4.610 -1.0310  0.7856  0.4101
11981TIP3    H257435   4.148   5.649   4.545  0.1430  0.8871  2.7278
11982TIP3   OH257436   5.456   2.760  12.334  0.0207  0.2593  0.4855
11982TIP3    H157437   5.438   2.851  12.358  0.6414  0.1128  1.5566
11982TIP3    H257438   5.507   2.766  12.254  1.8294  0.9601  1.6253
11983TIP3   OH257439   6.140   6.421   1.897  0.3288 -0.5634 -0.2677
11983TIP3    H157440   6.063   6.434   1.952  1.6188 -0.1493  1.5083
11983TIP3    H257441   6.171   6.334   1.918  1.3730 -0.0490  0.3932
11984TIP3   OH257442   2.251   4.972   2.162  0.2522  0.6149 -0.0527
11984TIP3    H157443   2.198   5.028   2.218 -1.0514 -1.0882  0.5202
11984TIP3    H257444   2.265   4.892   2.214  3.2770  0.8981 -0.2607
11985TIP3   OH257445   2.373   3.800  12.101 -0.3363  0.4555  0.0920
11985TIP3    H157446   2.389   3.773  12.011 -2.2368  1.7199 -0.6755
11985TIP3    H257447   2.293   3.753  12.127  0.6727 -0.6093  1.4979
11986TIP3   OH257448   5.343   1.200  10.656 -0.1804 -0.1482  0.2484
11986TIP3    H157449   5.410   1.154  10.604 -1.5779 -2.7740  0.6172
11986TIP3    H257450   5.393   1.263  10.708  1.7997 -0.8107 -0.7242
11987TIP3   OH257451   2.210   0.564  11.343  0.1423  0.2829 -0.7078
11987TIP3    H157452   2.137   0.561  11.404 -0.0488 -0.9840 -0.9638
11987TIP3    H257453   2.172   0.596  11.261  0.1065  0.6250 -0.5602
11988TIP3   OH257454   0.193   6.043   4.127  0.0358 -0.6708  0.0671
11988TIP3    H157455   0.121   6.087   4.081  0.1875  2.0616  2.1954
11988TIP3    H257456   0.253   6.017   4.057 -0.3805  2.0398 -1.4495
11989TIP3   OH257457   4.500   1.705  15.148  0.2744 -0.8210  0.2121
11989TIP3    H157458   4.511   1.621  15.103 -2.5416 -0.6605 -0.9605
11989TIP3    H257459   4.581   1.716  15.197  0.9102 -4.0224  0.1078
11990TIP3   OH257460   4.546   2.670   0.317  0.5293  0.0210 -0.0373
11990TIP3    H157461   4.546   2.584   0.359  0.2249  0.3899  0.7248
11990TIP3    H257462   4.454   2.693   0.308  0.6284  0.7980  0.8583
11991TIP3   OH257463   4.106   3.364  15.127  0.2539 -0.4951  0.6910
11991TIP3    H157464   4.131   3.386  15.037  0.3185  0.4359  0.9228
11991TIP3    H257465   4.189   3.366  15.176 -0.1568  2.4875  1.4399
11992TIP3   OH257466   5.279   0.237   3.494 -0.0551  0.3903  0.2404
11992TIP3    H157467   5.318   0.286   3.567 -1.3296  2.3854 -0.3310
11992TIP3    H257468   5.265   0.303   3.427 -2.9265 -0.5184 -0.1662
11993TIP3   OH257469   5.016   1.228  13.634 -0.2968  0.0154 -0.2045
11993TIP3    H157470   5.032   1.153  13.577  0.8614 -0.2173  0.3993
11993TIP3    H257471   4.930   1.211  13.671 -1.2615  0.3664 -2.1494
11994TIP3   OH257472   2.625   3.590  16.892 -0.1467 -0.0516  0.0376
11994TIP3    H157473   2.633   3.671  16.942 -1.5561  0.7562 -0.9870
11994TIP3    H257474   2.532   3.583  16.871  0.2821 -0.6649 -1.9288
11995TIP3   OH257475   6.784   5.861  13.969 -0.3873  0.2635 -0.4973
11995TIP3    H157476   6.697   5.899  13.982 -0.4690 -0.7777  2.9221
11995TIP3    H257477   6.784   5.782  14.023  2.8093  0.4140 -0.0869
11996TIP3   OH257478   5.195   0.453   2.305  0.1770  0.0175 -0.3729
11996TIP3    H157479   5.227   0.363   2.302 -0.8184 -0.3860  0.6515
11996TIP3    H257480   5.232   0.494   2.227  0.5437 -1.3034 -0.9132
11997TIP3   OH257481   3.867   0.193   1.105 -0.3282 -0.1158 -0.4413
11997TIP3    H157482   3.909   0.265   1.152 -1.0966  0.9584 -1.3565
11997TIP3    H257483   3.788   0.174   1.156 -0.1315 -0.3138 -0.2062
11998TIP3   OH257484   6.052   4.660   3.203 -0.7903  0.8077  0.4960
11998TIP3    H157485   6.088   4.639   3.117  0.1593 -0.1145  1.1014
11998TIP3    H257486   5.976   4.715   3.184  0.3746  2.0295 -0.8642
11999TIP3   OH257487   6.147   2.158   1.672 -0.2692  0.3926 -0.2105
11999TIP3    H157488   6.156   2.065   1.691 -0.9898  0.5544  1.0593
11999TIP3    H257489   6.063   2.182   1.711  0.6101  1.8939  0.8857
12000TIP3   OH257490   4.370   5.595  14.205  0.5088 -0.7014  0.0592
12000TIP3    H157491   4.442   5.632  14.257 -0.7831  4.3788 -1.1725
12000TIP3    H257492   4.291   5.616  14.255 -0.4668  0.4219 -1.8150
12001TIP3   OH257493   1.704   5.681  10.203  0.2988 -0.1186 -0.4283
12001TIP3    H157494   1.654   5.756  10.235 -0.4447 -0.8181  0.0867
12001TIP3    H257495   1.789   5.717  10.181 -0.1939  0.9675 -0.6277
12002TIP3   OH257496   3.187   1.048  16.025 -0.8197  0.2440  0.3770
12002TIP3    H157497   3.171   1.063  15.932 -1.1189  0.6479  0.4927
12002TIP3    H257498   3.198   0.953  16.033  2.6384  0.4339 -0.6271
12003TIP3   OH257499   3.869   5.540   1.316 -0.1144  0.4758  0.1371
12003TIP3    H157500   3.943   5.569   1.262  1.2377  1.0189  2.1624
12003TIP3    H257501   3.880   5.445   1.323 -0.4998  0.3552 -0.7988
12004TIP3   OH257502   2.032   3.163   4.868  0.1746 -0.1152  0.3515
12004TIP3    H157503   2.052   3.154   4.961 -0.8352 -0.2959  0.5735
12004TIP3    H257504   1.947   3.118   4.858  0.0452  0.3095 -0.5605
12005TIP3   OH257505   1.321   1.459  14.002  0.0807 -0.0188 -0.2068
12005TIP3    H157506   1.275   1.543  14.007  2.1343  1.2859 -1.6837
12005TIP3    H257507   1.271   1.408  13.937  0.2593  1.0810 -1.2412
12006TIP3   OH257508   1.491   0.393  17.035  0.0335 -0.2472 -0.0035
12006TIP3    H157509   1.440   0.401  16.954 -1.8905 -1.6175  0.9675
12006TIP3    H257510   1.522   0.482  17.053 -0.3948  0.2802 -1.6840
12007TIP3   OH257511   5.925   3.136   5.311  0.0440  0.5344 -0.3476
12007TIP3    H157512   5.985   3.206   5.287  0.9265  0.0166  0.2505
12007TIP3    H257513   5.891   3.103   5.228  0.6987  0.7542 -0.7088
12008TIP3   OH257514   1.146   5.702  14.100 -0.3169 -0.4104  0.0713
12008TIP3    H157515   1.116   5.791  14.083  0.4642 -0.4831 -1.8744
12008TIP3    H257516   1.097   5.675  14.178  0.3445  2.1257  1.4578
12009TIP3   OH257517   3.834   1.455   2.861 -0.4379  0.3546  0.0932
12009TIP3    H157518   3.903   1.478   2.799  0.4450  0.2287  1.0084
12009TIP3    H257519   3.834   1.359   2.861 -0.0179  0.3531  0.7366
12010TIP3   OH257520   2.289   5.506   4.830 -0.1871 -0.3091 -0.0980
12010TIP3    H157521   2.375   5.467   4.812 -0.1385  0.7575 -2.6843
12010TIP3    H257522   2.307   5.573   4.896  0.1640 -2.7194  2.4578
12011TIP3   OH257523   6.705   5.472   0.364  0.0471 -0.2772 -0.0639
12011TIP3    H157524   6.719   5.377   0.364  1.6115 -0.0803  0.4076
12011TIP3    H257525   6.782   5.508   0.408 -1.7752  1.0641  2.3165
12012TIP3   OH257526   4.262   5.772  14.009  0.4644 -0.6924  0.0924
12012TIP3    H157527   4.345   5.773  14.057  1.3662  1.9796 -1.3235
12012TIP3    H257528   4.288   5.779  13.917 -1.2927 -2.7619 -0.6350
12013TIP3   OH257529   4.448   0.875   1.964  0.2522 -0.1655 -0.2659
12013TIP3    H157530   4.398   0.950   1.932  0.1111  0.1377  0.6180
12013TIP3    H257531   4.492   0.840   1.887  0.0309  0.6074 -0.7553
12014TIP3   OH257532   5.979   5.585   4.677  0.0910 -0.3389  0.0031
12014TIP3    H157533   5.936   5.651   4.732 -0.6992 -0.0444 -0.9515
12014TIP3    H257534   6.072   5.609   4.680 -0.2673  1.3599 -1.0114
12015TIP3   OH257535   2.518   5.328  12.369  0.3433 -0.1571 -0.0214
12015TIP3    H157536   2.574   5.275  12.425  0.3044  0.3665  0.5204
12015TIP3    H257537   2.458   5.266  12.329 -1.9498 -0.2012  3.1862
12016TIP3   OH257538   6.560   0.964  16.028 -0.3797 -0.5046 -0.0234
12016TIP3    H157539   6.546   0.919  15.944 -0.0738  0.0267 -0.3681
12016TIP3    H257540   6.528   0.903  16.094 -0.9033 -0.8103 -0.5516
12017TIP3   OH257541   0.596   4.591   0.946  0.3477  0.5075  0.8982
12017TIP3    H157542   0.570   4.682   0.961 -0.3867  0.6153 -0.7538
12017TIP3    H257543   0.518   4.540   0.967 -0.7362  0.6687 -2.1795
12018TIP3   OH257544   2.319   1.175   4.757 -0.0556  0.0249  0.2759
12018TIP3    H157545   2.270   1.184   4.839 -0.5606 -0.5069  0.0353
12018TIP3    H257546   2.407   1.204   4.779  0.4280 -2.2102  1.6161
12019TIP3   OH257547   5.778   0.802  16.019 -0.3146  0.0023 -0.0076
12019TIP3    H157548   5.705   0.836  16.070  2.0502  3.3786  1.4057
12019TIP3    H257549   5.757   0.826  15.929 -2.0113 -1.3219 -0.0307
12020TIP3   OH257550   0.372   0.907   5.277  0.5133  0.1534 -0.3542
12020TIP3    H157551   0.305   0.961   5.236  1.3514  0.2783 -1.6609
12020TIP3    H257552   0.453   0.931   5.230  1.5165  0.1993  1.3325
12021TIP3   OH257553   2.781   0.482   0.023 -0.4940 -0.0408 -0.8630
12021TIP3    H157554   2.821   0.428  -0.046  0.3306  0.3608 -0.7076
12021TIP3    H257555   2.854   0.509   0.078 -1.0859  0.0676 -0.1183
12022TIP3   OH257556   2.073   5.232   1.989 -0.2442 -0.3703 -0.1108
12022TIP3    H157557   2.101   5.149   1.951 -0.4968 -0.6178  0.2478
12022TIP3    H257558   2.119   5.238   2.073  0.4856  0.2820 -0.5402
12023TIP3   OH257559   3.928   4.702   6.041 -0.0013 -0.3932 -0.2707
12023TIP3    H157560   4.021   4.709   6.060  0.2479 -0.4820 -1.3619
12023TIP3    H257561   3.888   4.774   6.090  0.1727 -2.2281  2.7562
12024TIP3   OH257562   6.519   5.861  14.055 -0.0187 -0.5736  0.3163
12024TIP3    H157563   6.484   5.905  14.133  0.8270 -0.1468  0.4690
12024TIP3    H257564   6.448   5.804  14.026  0.0120 -1.5747  2.0383
12025TIP3   OH257565   1.961   1.495  12.961 -0.3419  0.0204  0.3523
12025TIP3    H157566   1.918   1.457  13.038  0.1002  0.8383  1.0247
12025TIP3    H257567   1.942   1.588  12.967 -1.1604 -0.0251 -1.1102
12026TIP3   OH257568   4.669   3.810   0.712 -0.7173 -0.3931  0.2593
12026TIP3    H157569   4.696   3.883   0.767  0.2269 -0.3992 -0.1677
12026TIP3    H257570   4.722   3.819   0.632 -1.6259 -0.7248 -0.3979
12027TIP3   OH257571   0.609   4.742  14.784  0.8957  0.1109 -0.0778
12027TIP3    H157572   0.703   4.726  14.792  1.1480  1.0863 -0.9000
12027TIP3    H257573   0.570   4.655  14.783  1.8369 -0.3244 -0.3434
12028TIP3   OH257574   0.036   6.241  11.759  0.2808  0.6679 -0.0462
12028TIP3    H157575  -0.018   6.190  11.698 -0.3240  1.1150  0.1027
12028TIP3    H257576   0.122   6.200  11.756  0.1962  0.5478 -1.0328
12029TIP3   OH257577   4.122   3.818  11.256 -0.0936  0.5969  0.1803
12029TIP3    H157578   4.196   3.865  11.220  0.9985 -0.0241  1.5127
12029TIP3    H257579   4.158   3.770  11.331 -1.8064  0.1615  0.7760
12030TIP3   OH257580   4.287   1.196  12.530 -0.3743  0.3564  0.0113
12030TIP3    H157581   4.366   1.236  12.568  0.0689 -1.1519  0.7899
12030TIP3    H257582   4.267   1.123  12.589 -0.4250 -1.3013 -1.9409
12031TIP3   OH257583   4.293   5.241  16.198 -0.2350 -0.2692 -0.2511
12031TIP3    H157584   4.232   5.315  16.193 -1.3424 -1.2018 -0.9929
12031TIP3    H257585   4.265   5.182  16.129  0.5167 -1.4811  0.4429
12032TIP3   OH257586   5.581   2.868  13.255 -0.3042 -0.0282  0.2555
12032TIP3    H157587   5.608   2.799  13.315  0.5528 -1.0238 -1.2270
12032TIP3    H257588   5.500   2.903  13.294  0.0729 -0.8123  1.8226
12033TIP3   OH257589   5.071   1.098  11.612 -0.1435 -0.0057  0.2672
12033TIP3    H157590   5.160   1.065  11.602  0.4782  1.2806  1.3144
12033TIP3    H257591   5.039   1.109  11.522  1.1174  0.4553 -0.1437
12034TIP3   OH257592   2.210   0.422   4.464 -0.1538 -0.2031  0.2939
12034TIP3    H157593   2.142   0.355   4.450 -0.2664 -0.4358  1.8253
12034TIP3    H257594   2.272   0.381   4.525  0.8186  0.3975 -0.2667
12035TIP3   OH257595   3.114   1.435   4.856  0.3510 -0.2728  0.1284
12035TIP3    H157596   3.027   1.475   4.862 -0.0691 -0.8721 -1.3942
12035TIP3    H257597   3.162   1.491   4.796  0.4175 -0.9039 -0.4277
12036TIP3   OH257598   0.526   5.012   3.639 -0.3681  0.5078 -0.0461
12036TIP3    H157599   0.535   5.102   3.670  0.2453  0.6042 -0.4737
12036TIP3    H257600   0.604   4.998   3.585 -0.1540 -0.4757  0.4966
12037TIP3   OH257601   6.038   1.724   3.124  0.1345  0.7271  0.6431
12037TIP3    H157602   6.094   1.741   3.199 -0.1133  3.1897  0.3373
12037TIP3    H257603   6.080   1.770   3.051 -1.5336  1.5078  0.1179
12038TIP3   OH257604   4.534   1.523   5.022  0.2301  0.0045 -0.3134
12038TIP3    H157605   4.481   1.567   4.955  0.0340  1.0275  0.4823
12038TIP3    H257606   4.599   1.474   4.973  1.3377  2.2803 -1.2973
12039TIP3   OH257607   3.322   2.236   1.238  0.5581 -0.0277 -0.6982
12039TIP3    H157608   3.289   2.247   1.328  0.4898  0.1819 -0.7485
12039TIP3    H257609   3.293   2.315   1.192  0.2696 -0.3081 -1.0024
12040TIP3   OH257610   2.048   5.687   3.198 -0.2849 -0.3965 -0.3694
12040TIP3    H157611   2.135   5.682   3.238 -0.9036  1.5442  1.3810
12040TIP3    H257612   2.038   5.603   3.153  2.3032 -0.8533 -0.2799
12041TIP3   OH257613   4.679   1.483  15.770  0.1299 -0.1386  0.0552
12041TIP3    H157614   4.627   1.441  15.839  0.7908  0.4472  0.9225
12041TIP3    H257615   4.615   1.535  15.720 -0.1285  0.5552  1.0885
12042TIP3   OH257616   6.632   4.735  16.706  0.0738  0.2616 -0.0504
12042TIP3    H157617   6.706   4.694  16.661  0.5516 -0.2978  1.1861
12042TIP3    H257618   6.558   4.676  16.688  0.4809 -0.5020  0.6744
12043TIP3   OH257619   0.013   5.586   2.537  0.6978  0.0581 -0.2868
12043TIP3    H157620   0.065   5.592   2.457  1.2414 -0.1382  0.0505
12043TIP3    H257621   0.030   5.669   2.582  1.9303 -0.6278  0.5534
12044TIP3   OH257622   4.998   2.383   1.182 -0.2982  0.7290 -0.0477
12044TIP3    H157623   4.979   2.466   1.225 -2.2380  0.8169 -0.9427
12044TIP3    H257624   4.983   2.400   1.089 -1.0543 -0.6728 -0.2204
12045TIP3   OH257625   2.770   6.712   2.611 -0.3725  0.0295  0.4022
12045TIP3    H157626   2.676   6.699   2.606 -0.4503  0.7258 -0.2695
12045TIP3    H257627   2.808   6.636   2.567 -0.6601  0.1371 -0.0401
12046TIP3   OH257628   0.019   2.609  11.403 -0.3872  0.5432  0.1017
12046TIP3    H157629  -0.044   2.663  11.355 -1.0014  1.1783  1.5570
12046TIP3    H257630   0.036   2.658  11.484  2.1361  0.4856 -0.3082
12047TIP3   OH257631   6.607   6.432  11.292 -0.4117  0.5702 -0.4036
12047TIP3    H157632   6.558   6.400  11.215 -3.1812  1.5533  0.8046
12047TIP3    H257633   6.600   6.362  11.356  2.5751 -0.5809 -1.1831
12048TIP3   OH257634   5.104   2.070  13.861 -0.2571  0.5821  0.0908
12048TIP3    H157635   5.141   2.113  13.938  0.0803  0.4111  0.0242
12048TIP3    H257636   5.179   2.032  13.816 -0.6459 -0.8652  0.6229
12049TIP3   OH257637   1.508   6.644   4.937 -0.2944 -0.2741  0.1666
12049TIP3    H157638   1.541   6.566   4.892 -0.1309 -0.5606  0.7851
12049TIP3    H257639   1.413   6.635   4.935 -0.4402  0.8775 -2.2139
12050TIP3   OH257640   6.134   0.669   6.494 -0.0845 -0.1227 -0.5756
12050TIP3    H157641   6.160   0.614   6.568  0.1524  0.3563 -0.2956
12050TIP3    H257642   6.125   0.608   6.421  1.6779 -0.3344 -0.6568
12051TIP3   OH257643   3.882   3.505   1.379  0.1830 -0.2911  0.1088
12051TIP3    H157644   3.869   3.474   1.289 -0.4745  1.4323 -0.4210
12051TIP3    H257645   3.920   3.430   1.425 -1.2471 -1.8459 -1.1295
12052TIP3   OH257646   2.609   3.867   1.789  0.8714  0.0156  0.3021
12052TIP3    H157647   2.566   3.798   1.738  2.9526 -0.3667 -1.0646
12052TIP3    H257648   2.672   3.906   1.728  0.3432  2.6175  1.2791
12053TIP3   OH257649   1.832   5.753  15.969 -0.0520  0.4764  0.0941
12053TIP3    H157650   1.778   5.678  15.991  0.6557 -0.1905 -0.4090
12053TIP3    H257651   1.874   5.777  16.051  1.1685 -0.8577 -0.1159
12054TIP3   OH257652   1.229   4.155   4.583  0.0492  0.2277 -0.1613
12054TIP3    H157653   1.204   4.234   4.630  0.2092  0.8860 -1.1445
12054TIP3    H257654   1.273   4.187   4.504 -1.8384 -0.7774 -1.7076
12055TIP3   OH257655   0.285   3.157  12.007  0.1384 -0.2656 -0.3796
12055TIP3    H157656   0.372   3.185  12.037  0.1042 -0.3117 -0.2350
12055TIP3    H257657   0.275   3.069  12.042 -1.0953  0.7312  2.0048
12056TIP3   OH257658   6.393   5.713  12.892  0.5473 -0.4979 -0.4380
12056TIP3    H157659   6.456   5.751  12.831  0.0762 -0.4952 -0.9187
12056TIP3    H257660   6.348   5.645  12.842 -0.5085  0.1531 -0.3843
12057TIP3   OH257661   4.202   3.464  16.008 -0.3485 -0.0042  0.2244
12057TIP3    H157662   4.156   3.535  15.964  0.5710  0.6275  0.2696
12057TIP3    H257663   4.161   3.384  15.974 -1.9902  0.5443  0.8326
12058TIP3   OH257664   3.577   2.766  10.698  0.1360  0.4384  0.0697
12058TIP3    H157665   3.484   2.769  10.675 -0.2702  0.1822  1.5859
12058TIP3    H257666   3.622   2.760  10.614 -1.2990 -1.1782 -0.6483
12059TIP3   OH257667   4.124   1.290  15.472 -0.2256 -0.8633 -0.3090
12059TIP3    H157668   4.164   1.224  15.415  0.3865 -1.1377  0.4275
12059TIP3    H257669   4.055   1.243  15.518  0.1897 -0.9917  0.1918
12060TIP3   OH257670   5.035   1.708   5.674 -0.2016 -0.7299 -0.1907
12060TIP3    H157671   5.065   1.791   5.710 -1.8934 -0.6965  1.2533
12060TIP3    H257672   5.052   1.716   5.580  1.2597  0.5198  0.1233
12061TIP3   OH257673   2.886   1.010   4.339  0.2074  0.0804  0.6049
12061TIP3    H157674   2.795   0.983   4.338 -0.1716  1.3229  0.0984
12061TIP3    H257675   2.935   0.931   4.316 -0.6778 -0.7585  1.5394
12062TIP3   OH257676   3.799   5.738  17.131 -0.0052  0.6856 -0.5147
12062TIP3    H157677   3.789   5.830  17.109 -1.2376  1.3433  2.3328
12062TIP3    H257678   3.756   5.729  17.217  0.7589 -2.3681 -0.3370
12063TIP3   OH257679   3.578   0.090   2.510 -0.0606  0.9204 -0.1842
12063TIP3    H157680   3.660   0.137   2.490  0.1653  0.4551 -0.3672
12063TIP3    H257681   3.606   0.004   2.540 -0.5003  0.3833 -1.2425
12064TIP3   OH257682   5.520   4.556  16.983 -0.4497  0.3812  0.3621
12064TIP3    H157683   5.611   4.579  17.003  0.3683 -1.3065 -1.1055
12064TIP3    H257684   5.486   4.631  16.934  0.2846  0.8417  0.5465
12065TIP3   OH257685   0.722   4.619   3.656 -0.3456  0.3023  0.7335
12065TIP3    H157686   0.631   4.639   3.679 -1.2069 -0.3267 -1.8284
12065TIP3    H257687   0.759   4.584   3.737 -1.2400  3.8483  2.9181
12066TIP3   OH257688   6.553   1.757   0.945 -0.4052  0.6219  0.4643
12066TIP3    H157689   6.504   1.814   0.885 -0.7807  0.7390  0.8773
12066TIP3    H257690   6.636   1.803   0.960 -1.1305  1.6187  1.6525
12067TIP3   OH257691   3.576   5.345   5.081  0.1218 -0.1578 -0.3449
12067TIP3    H157692   3.655   5.294   5.098 -0.9829 -1.4207  1.4164
12067TIP3    H257693   3.603   5.436   5.089  1.4084 -0.5732  0.2311
12068TIP3   OH257694   5.344   3.157  10.622 -0.1886  0.0220  0.4420
12068TIP3    H157695   5.398   3.155  10.543 -1.0045 -1.6275 -0.1014
12068TIP3    H257696   5.364   3.242  10.661 -1.3978  1.8875 -2.6401
12069TIP3   OH257697   4.874   1.094  14.577 -0.0440  0.2271 -0.2243
12069TIP3    H157698   4.873   1.010  14.531  0.1125 -1.7900  3.0883
12069TIP3    H257699   4.957   1.094  14.625 -0.9607  1.2631  1.4849
12070TIP3   OH257700   0.354   3.073  16.313  0.3470 -0.3601 -0.3911
12070TIP3    H157701   0.306   3.084  16.231  0.1870 -2.4619 -0.6308
12070TIP3    H257702   0.424   3.138  16.308  0.7595 -0.8960 -2.5367
12071TIP3   OH257703   3.216   5.329   1.395 -0.3758  0.3592 -0.3600
12071TIP3    H157704   3.178   5.416   1.381  0.1604  0.8392  0.9488
12071TIP3    H257705   3.140   5.271   1.403 -0.8037  1.0211  0.5647
12072TIP3   OH257706   6.359   1.824  13.832 -0.5842  0.4474  0.0681
12072TIP3    H157707   6.380   1.906  13.787 -0.5871  0.3257 -0.1597
12072TIP3    H257708   6.266   1.809  13.813 -0.1236 -0.6523 -1.6303
12073TIP3   OH257709   4.465   1.406  16.441 -0.0114  0.4964 -0.3323
12073TIP3    H157710   4.439   1.442  16.356 -1.3256  1.2609  0.3638
12073TIP3    H257711   4.405   1.446  16.504 -0.4811 -1.6599  0.7027
12074TIP3   OH257712   3.770   3.418  10.482 -0.2448 -0.0590 -0.9197
12074TIP3    H157713   3.794   3.510  10.474 -0.8906  0.3477  1.1654
12074TIP3    H257714   3.680   3.414  10.449 -0.3286  0.1327 -0.7213
12075TIP3   OH257715   3.867   2.022  16.925 -0.5155 -0.5325 -0.3941
12075TIP3    H157716   3.851   1.939  16.969 -1.7913 -0.1295 -0.0475
12075TIP3    H257717   3.886   2.084  16.997 -1.1384 -0.1998 -0.5018
12076TIP3   OH257718   1.651   4.058  15.504  0.8085 -0.6530 -0.4317
12076TIP3    H157719   1.702   4.139  15.497 -0.4207  0.4695  2.1531
12076TIP3    H257720   1.715   3.989  15.489  3.3239  0.6559  2.8573
12077TIP3   OH257721   2.229   4.702   4.185  0.2647  0.3339 -0.0561
12077TIP3    H157722   2.284   4.676   4.259  1.5416  0.1344 -1.0553
12077TIP3    H257723   2.282   4.686   4.108 -1.4862 -0.5747 -1.1270
12078TIP3   OH257724   1.101   0.658  14.606  0.0785 -0.1345  0.1218
12078TIP3    H157725   1.130   0.748  14.615 -0.5202  0.0504  0.2485
12078TIP3    H257726   1.075   0.632  14.695  1.8367 -0.9979  0.4220
12079TIP3   OH257727   6.541   0.971   3.382  0.3380  0.3818 -0.0787
12079TIP3    H157728   6.582   1.009   3.459 -0.5183  0.1148  0.5257
12079TIP3    H257729   6.449   0.997   3.388  0.0727 -0.4122 -0.5107
12080TIP3   OH257730   5.862   2.978   5.074 -0.6870 -0.3305 -0.3211
12080TIP3    H157731   5.874   2.991   4.980  1.3274  2.4749  0.2136
12080TIP3    H257732   5.946   2.942   5.104 -0.5870  0.6853  0.6620
12081TIP3   OH257733   2.926   3.154   2.057  0.9305  0.4192  0.0664
12081TIP3    H157734   2.910   3.248   2.059 -1.1169  0.1366  0.0720
12081TIP3    H257735   2.949   3.131   2.147  0.9036  0.8370  0.1810
12082TIP3   OH257736   1.249   3.182   2.601  0.1676  0.0185 -0.2674
12082TIP3    H157737   1.318   3.188   2.667 -0.8073  0.0399  0.7965
12082TIP3    H257738   1.265   3.099   2.556  0.6947 -0.1288  0.1879
12083TIP3   OH257739   2.944   4.115   5.362  0.2838  0.2017  0.6323
12083TIP3    H157740   2.966   4.176   5.433 -1.1294  0.5679  0.7909
12083TIP3    H257741   2.871   4.063   5.397 -0.7005  0.6525 -0.6707
12084TIP3   OH257742   5.343   4.115   6.408 -0.7595  0.7373  0.1172
12084TIP3    H157743   5.323   4.101   6.316 -1.8149  0.4544  0.3670
12084TIP3    H257744   5.258   4.136   6.447 -0.3942  0.4532  1.0966
12085TIP3   OH257745   6.165   1.283  10.681 -0.3121 -0.5688 -0.7114
12085TIP3    H157746   6.165   1.361  10.735  0.6480 -0.8866 -0.2245
12085TIP3    H257747   6.072   1.266  10.663 -0.6021 -0.0469  0.2310
12086TIP3   OH257748   3.643   5.525   2.321  0.1059 -0.4326 -0.0685
12086TIP3    H157749   3.597   5.451   2.280  0.5241 -0.1351 -1.1060
12086TIP3    H257750   3.644   5.504   2.414  1.3489 -2.3841 -0.4735
12087TIP3   OH257751   1.783   4.162  13.132  0.1029  0.6310  0.4419
12087TIP3    H157752   1.849   4.155  13.202  0.2823  1.0123  0.3148
12087TIP3    H257753   1.814   4.235  13.078  0.4413 -0.2244 -0.5395
12088TIP3   OH257754   1.055   1.239  15.055  0.0395 -0.2303  0.3339
12088TIP3    H157755   1.145   1.242  15.022  0.0042 -1.0508  0.1591
12088TIP3    H257756   1.059   1.184  15.133 -0.1955  0.2885  0.7204
12089TIP3   OH257757   5.821   3.258  16.342  0.4474  0.9915 -0.1530
12089TIP3    H157758   5.791   3.217  16.423 -0.8536  0.3689 -0.9337
12089TIP3    H257759   5.843   3.185  16.284  1.4727  1.4317 -0.3587
12090TIP3   OH257760   6.777   0.352   6.108 -0.4337  0.5478  0.4216
12090TIP3    H157761   6.869   0.373   6.092 -0.7447  0.6507 -1.5578
12090TIP3    H257762   6.732   0.435   6.094 -0.9534  0.2064  0.0520
12091TIP3   OH257763   0.736   0.608  12.232  0.2835  0.5925  0.5545
12091TIP3    H157764   0.698   0.696  12.231 -1.1136  0.0237  0.6135
12091TIP3    H257765   0.714   0.572  12.146  0.4371  0.1434  0.7031
12092TIP3   OH257766   1.298   6.297   0.505  0.3712  0.4709  0.1319
12092TIP3    H157767   1.318   6.388   0.526  0.6553  0.4019  0.1676
12092TIP3    H257768   1.227   6.302   0.441 -0.0039  0.7017  0.5591
12093TIP3   OH257769   4.383   1.760  14.822 -0.3389  0.5412 -0.4860
12093TIP3    H157770   4.432   1.758  14.740  1.4889 -2.2240  0.5216
12093TIP3    H257771   4.306   1.705  14.806  0.4595 -0.7128 -0.1747
12094TIP3   OH257772   2.211   6.154  15.295 -0.8092 -0.7235  0.3662
12094TIP3    H157773   2.241   6.112  15.215  1.4979 -0.6887  1.1388
12094TIP3    H257774   2.209   6.248  15.274  2.2326 -0.4204  0.9382
12095TIP3   OH257775   4.648   1.642   1.045  0.2069  0.7447  0.1042
12095TIP3    H157776   4.675   1.609   1.131 -0.8093 -0.6871 -0.0802
12095TIP3    H257777   4.624   1.564   0.996 -1.3549  1.6905 -0.7266
12096TIP3   OH257778   2.397   6.356   3.063 -0.2225  0.2270 -0.2358
12096TIP3    H157779   2.361   6.331   3.148  2.5001 -0.4117  0.8262
12096TIP3    H257780   2.323   6.350   3.003 -1.9675 -0.4572  1.8570
12097TIP3   OH257781   0.463   3.949   3.140  0.2268  0.3645 -0.0295
12097TIP3    H157782   0.542   3.948   3.194  0.5845 -0.9399 -0.5257
12097TIP3    H257783   0.394   3.917   3.199  0.4240 -0.1515 -0.0752
12098TIP3   OH257784   3.195   0.029  13.063 -0.3756 -0.3865  0.0956
12098TIP3    H157785   3.197   0.023  13.158 -0.0077  1.7316  0.2808
12098TIP3    H257786   3.141  -0.045  13.035 -1.2607 -0.5265  2.0118
12099TIP3   OH257787   1.375   4.072  15.485  0.2453 -0.5657 -0.1033
12099TIP3    H157788   1.470   4.080  15.497  0.1370 -0.1388  0.5125
12099TIP3    H257789   1.364   4.055  15.392  0.7814  2.2482 -0.7818
12100TIP3   OH257790   6.158   5.283  11.939  0.0715 -0.0132 -0.0508
12100TIP3    H157791   6.113   5.294  11.855  0.0539  2.0034  0.1789
12100TIP3    H257792   6.097   5.317  12.004  0.4512 -0.7335  0.7105
12101TIP3   OH257793   3.125   5.423   0.701 -0.5992 -0.1235 -0.2218
12101TIP3    H157794   3.124   5.331   0.674 -0.3085  0.5753 -2.8977
12101TIP3    H257795   3.069   5.468   0.637  0.1234  1.7256  0.3670
12102TIP3   OH257796   0.629   0.936   1.371  1.0464  0.1025 -0.2218
12102TIP3    H157797   0.561   1.003   1.369  0.0822 -0.8558 -1.5124
12102TIP3    H257798   0.661   0.932   1.281  0.2210 -1.9690 -0.4989
12103TIP3   OH257799   5.771   6.234   1.856 -0.3999 -0.1014  0.4579
12103TIP3    H157800   5.779   6.317   1.809 -1.3063 -0.3572 -0.1682
12103TIP3    H257801   5.762   6.259   1.948 -1.3057  0.5243  0.2071
12104TIP3   OH257802   0.976   1.066   4.623  0.0663  0.1829  0.4461
12104TIP3    H157803   1.046   1.004   4.601 -1.7147 -1.4510 -1.0621
12104TIP3    H257804   0.958   1.050   4.716 -0.1436 -1.3835  0.1596
12105TIP3   OH257805   6.772   1.445   5.517 -0.3949 -0.0663  0.0323
12105TIP3    H157806   6.721   1.514   5.561  0.8597  1.9803 -1.5024
12105TIP3    H257807   6.826   1.493   5.454 -1.6064 -2.7314 -3.2908
12106TIP3   OH257808   0.548   2.877  13.963 -0.0820  0.3444  0.1515
12106TIP3    H157809   0.470   2.836  13.999  1.8940 -1.9439  2.2362
12106TIP3    H257810   0.572   2.822  13.888 -1.2815  2.0211 -1.5546
12107TIP3   OH257811   5.990   6.082   1.798  0.1237  0.5040 -0.6337
12107TIP3    H157812   5.931   6.148   1.834 -0.4533  0.8459 -2.1197
12107TIP3    H257813   6.078   6.118   1.811 -0.1817  1.5114 -1.3080
12108TIP3   OH257814   4.867   0.866  11.592 -0.1612  0.0833  0.2510
12108TIP3    H157815   4.850   0.958  11.612  1.6201  0.5142 -0.1107
12108TIP3    H257816   4.938   0.841  11.650  1.8692  0.0203 -2.1152
12109TIP3   OH257817   3.404   1.132   1.050  0.1422 -0.1659  0.2434
12109TIP3    H157818   3.435   1.195   0.986 -0.5846 -0.8469 -0.7967
12109TIP3    H257819   3.426   1.047   1.013 -1.8720 -0.6340  0.0348
12110TIP3   OH257820   2.707   1.787   3.831 -0.1800  0.2154  0.0522
12110TIP3    H157821   2.636   1.764   3.891  0.1669 -1.9841 -0.3216
12110TIP3    H257822   2.787   1.780   3.884  0.0497 -0.8359 -0.4244
12111TIP3   OH257823   2.197   5.515   4.260  0.0608  0.3862  0.1558
12111TIP3    H157824   2.111   5.475   4.275 -0.4225  1.1597 -0.4740
12111TIP3    H257825   2.180   5.585   4.197  1.6625 -1.4928 -2.5795
12112TIP3   OH257826   3.431   1.672   1.869  0.6015 -0.3761 -0.4958
12112TIP3    H157827   3.342   1.691   1.842  0.1455 -1.1159  0.4313
12112TIP3    H257828   3.453   1.742   1.930  0.7083 -0.1265 -0.8163
12113TIP3   OH257829   4.118   5.459  16.219 -0.2312 -0.2319  0.1012
12113TIP3    H157830   4.090   5.435  16.307  0.8315  0.5204  0.6691
12113TIP3    H257831   4.117   5.555  16.218  0.6927 -0.2093 -0.3703
12114TIP3   OH257832   2.839   2.781   5.876 -0.3016 -0.2866  0.3915
12114TIP3    H157833   2.886   2.761   5.795 -2.5422 -0.2312 -0.9913
12114TIP3    H257834   2.877   2.864   5.905  1.0008 -0.6400 -0.2089
12115TIP3   OH257835   1.540   6.044   3.752 -0.2392  0.0252 -0.2454
12115TIP3    H157836   1.626   6.023   3.714 -0.2883  1.6131 -1.3028
12115TIP3    H257837   1.480   6.044   3.677 -0.9740 -0.0636  0.3337
12116TIP3   OH257838   0.624   3.731  11.785 -0.0361 -0.2751 -0.3085
12116TIP3    H157839   0.687   3.719  11.715  1.8950  0.5427  1.1959
12116TIP3    H257840   0.560   3.793  11.750  1.3599  0.7766 -1.0727
12117TIP3   OH257841   3.222   5.057   4.445  0.4989  0.5894 -0.2162
12117TIP3    H157842   3.167   5.015   4.379 -0.0711 -1.8262  1.6117
12117TIP3    H257843   3.304   5.076   4.400 -0.2852  0.1785 -1.9054
12118TIP3   OH257844   6.341   1.310   5.177  0.4476 -0.0023  0.3929
12118TIP3    H157845   6.424   1.321   5.224  0.4098  1.6796  0.1500
12118TIP3    H257846   6.360   1.339   5.088 -0.2976  0.0008  0.2305
12119TIP3   OH257847   3.644   3.352  13.087  0.3668  0.1845 -0.0462
12119TIP3    H157848   3.709   3.285  13.066 -1.3582 -1.7485  0.3626
12119TIP3    H257849   3.577   3.305  13.136 -1.9107  1.7816 -1.4064
12120TIP3   OH257850   4.417   3.280   4.219 -0.3989 -0.3678 -0.2091
12120TIP3    H157851   4.391   3.298   4.128  1.4243  0.3888 -0.6138
12120TIP3    H257852   4.475   3.205   4.213  0.5858  0.3503  0.1864
12121TIP3   OH257853   0.907   4.931   1.119  0.1359 -0.6672  0.4645
12121TIP3    H157854   0.981   4.971   1.166  0.2786  0.5856 -0.7804
12121TIP3    H257855   0.833   4.942   1.179  0.0872  1.8486  0.0520
12122TIP3   OH257856   3.285   2.435   5.753  0.3568  0.1047  0.2551
12122TIP3    H157857   3.353   2.396   5.807  1.1500  0.1104 -0.7109
12122TIP3    H257858   3.206   2.432   5.808  0.3415 -2.9088  0.2452
12123TIP3   OH257859   3.419   0.465  10.900  0.7517 -0.0202 -0.3522
12123TIP3    H157860   3.498   0.435  10.855  1.5387  1.5126 -0.0637
12123TIP3    H257861   3.445   0.472  10.992 -0.9795 -3.5980  0.5882
12124TIP3   OH257862   4.414   3.151  15.669  0.0511  0.1906  0.3234
12124TIP3    H157863   4.372   3.067  15.652 -0.2863  0.6822 -1.5698
12124TIP3    H257864   4.480   3.133  15.735 -0.5409 -1.3939  0.5175
12125TIP3   OH257865   3.699   6.298  12.821 -0.0822  0.0727 -0.2203
12125TIP3    H157866   3.648   6.263  12.894 -3.4895 -0.3489 -2.5423
12125TIP3    H257867   3.674   6.390  12.816  0.7664  0.3047 -0.3784
12126TIP3   OH257868   6.601   5.471   5.816  0.0429  0.2945  0.2900
12126TIP3    H157869   6.645   5.494   5.735  1.2265  2.4576  1.4636
12126TIP3    H257870   6.637   5.386   5.840  0.5912  0.2098 -0.7845
12127TIP3   OH257871   1.112   0.718  12.235  0.3658 -0.3808  0.1987
12127TIP3    H157872   1.168   0.667  12.294 -0.1536 -0.8205  0.3192
12127TIP3    H257873   1.038   0.746  12.290 -1.4642 -2.9415 -0.7676
12128TIP3   OH257874   1.212   2.266  15.127 -0.3909 -0.2737  0.0024
12128TIP3    H157875   1.257   2.226  15.202  1.4309  1.2695 -0.1903
12128TIP3    H257876   1.185   2.352  15.158 -2.8200 -0.9418 -0.0830
12129TIP3   OH257877   0.087   0.858   0.866  0.0687  0.7378  0.0259
12129TIP3    H157878   0.151   0.845   0.935  1.2423 -2.1524 -1.4460
12129TIP3    H257879   0.003   0.835   0.905  0.5249  0.4470  0.8396
12130TIP3   OH257880   0.390   5.830  11.943 -0.2762 -0.1005  0.0192
12130TIP3    H157881   0.457   5.884  11.986 -0.9061  1.5228 -0.9385
12130TIP3    H257882   0.309   5.850  11.990 -0.4433 -0.6024 -0.0476
12131TIP3   OH257883   6.047   3.714   4.066 -0.2727  0.5055  0.1496
12131TIP3    H157884   6.104   3.643   4.096  2.4157  1.3252 -2.5093
12131TIP3    H257885   5.996   3.675   3.994 -0.4643  0.7166  0.1690
12132TIP3   OH257886   4.756   3.732   5.265  0.1941 -0.1015 -0.1367
12132TIP3    H157887   4.794   3.806   5.313 -0.4403 -0.3926  0.8286
12132TIP3    H257888   4.822   3.663   5.271  0.0670 -0.1807  0.4484
12133TIP3   OH257889   6.807   0.810  14.453 -0.4099 -0.2759  0.1089
12133TIP3    H157890   6.770   0.872  14.516  0.8073  0.9940 -0.3872
12133TIP3    H257891   6.863   0.863  14.397 -1.0761 -1.4526 -1.7638
12134TIP3   OH257892   5.709   3.373   4.725  0.2635  0.0993  0.0531
12134TIP3    H157893   5.779   3.368   4.791  1.5589 -2.8222 -1.3542
12134TIP3    H257894   5.746   3.428   4.656  1.3839 -1.6652 -0.8135
12135TIP3   OH257895   3.010   3.147   4.183  0.0788  0.0605 -0.0419
12135TIP3    H157896   3.100   3.180   4.174 -0.4286  1.1731 -1.4348
12135TIP3    H257897   3.009   3.104   4.268  1.3763  1.8218  0.9427
12136TIP3   OH257898   2.522   1.668  15.975  0.0281  0.2509 -0.1682
12136TIP3    H157899   2.568   1.700  16.052 -0.0401 -1.2460  0.5125
12136TIP3    H257900   2.484   1.747  15.936 -0.1588  1.0025  1.4629
12137TIP3   OH257901   4.931   2.409   0.062  0.1703  0.1696  0.5316
12137TIP3    H157902   4.866   2.479   0.073  1.5102  1.4713  0.4939
12137TIP3    H257903   4.912   2.348   0.133 -0.2839  1.1995  1.3299
12138TIP3   OH257904   0.152   5.652  11.540  0.7752 -0.2018 -0.2240
12138TIP3    H157905   0.088   5.720  11.518  0.4001 -0.9076 -1.4244
12138TIP3    H257906   0.100   5.573  11.552  1.3879 -0.7637 -1.1242
12139TIP3   OH257907   0.753   6.069  16.259  1.1942  0.2620 -0.1722
12139TIP3    H157908   0.829   6.116  16.226  0.7280  0.9113 -0.3260
12139TIP3    H257909   0.711   6.129  16.320  1.4224 -0.5111  0.7701
12140TIP3   OH257910   4.210   0.683   1.856  0.1759 -0.2216 -0.3259
12140TIP3    H157911   4.161   0.761   1.831  0.5133  0.1281  0.0775
12140TIP3    H257912   4.215   0.688   1.951  0.2574 -0.7007 -0.3048
12141TIP3   OH257913   6.413   2.547   0.487  0.6098 -0.2133 -0.0199
12141TIP3    H157914   6.385   2.627   0.442 -0.8184 -0.2808  0.6870
12141TIP3    H257915   6.468   2.579   0.559  1.6100 -0.0137 -0.8420
12142TIP3   OH257916   4.287   4.743   5.921 -0.0064 -0.3255  0.1604
12142TIP3    H157917   4.244   4.762   6.003  0.0809 -1.8133  0.5774
12142TIP3    H257918   4.358   4.683   5.944  0.7364  0.1327 -0.8413
12143TIP3   OH257919   1.639   6.156   2.980  0.1516 -0.1121 -0.0837
12143TIP3    H157920   1.629   6.168   2.886 -0.6938 -2.5315 -0.3712
12143TIP3    H257921   1.564   6.201   3.018  0.6109  1.0591 -0.4985
12144TIP3   OH257922   3.036   3.524   4.056 -0.5146 -0.4212  0.7623
12144TIP3    H157923   2.985   3.470   3.995  0.4254 -1.8230  1.1672
12144TIP3    H257924   3.051   3.606   4.009 -0.8610 -1.0030 -0.4009
12145TIP3   OH257925   2.579   4.282   4.956 -0.4000 -0.2554 -0.3016
12145TIP3    H157926   2.672   4.259   4.958 -0.5686 -1.2252 -2.1080
12145TIP3    H257927   2.536   4.214   5.009 -0.1077  0.2120  0.5604
12146TIP3   OH257928   6.274   0.722  15.025 -0.3048 -0.8154  0.1275
12146TIP3    H157929   6.256   0.774  15.103 -2.1708 -1.5285  0.2362
12146TIP3    H257930   6.234   0.771  14.954  3.4569  1.0809 -0.9030
12147TIP3   OH257931   3.404   5.592  13.704 -0.4531 -0.0702 -0.5427
12147TIP3    H157932   3.407   5.618  13.612 -0.1300  2.2290  0.0684
12147TIP3    H257933   3.369   5.668  13.750 -1.1848 -1.3855  1.1850
12148TIP3   OH257934   5.275   4.385   2.147  0.0289  0.2068  0.0316
12148TIP3    H157935   5.351   4.370   2.092  0.0366 -1.2272  0.3847
12148TIP3    H257936   5.309   4.383   2.236  0.0310  2.5920  0.1362
12149TIP3   OH257937   4.842   6.230   5.682 -0.3220 -0.0634 -0.1276
12149TIP3    H157938   4.854   6.158   5.744 -2.3005  0.3728  0.8203
12149TIP3    H257939   4.823   6.306   5.737 -0.1110  0.7853 -1.2040
12150TIP3   OH257940   4.510   2.236   2.923 -0.2240  0.0594 -0.2315
12150TIP3    H157941   4.580   2.281   2.876  0.7077 -2.0043 -0.9251
12150TIP3    H257942   4.481   2.299   2.989  0.0155  2.1934 -2.0344
12151TIP3   OH257943   0.369   3.965  16.691 -0.0411 -0.3455  0.1149
12151TIP3    H157944   0.409   3.879  16.699  0.0470 -0.2193  1.2105
12151TIP3    H257945   0.426   4.013  16.632  0.1839 -0.8845 -0.1046
12152TIP3   OH257946   0.293   0.515  16.074  1.6307 -0.5232  0.1729
12152TIP3    H157947   0.366   0.556  16.028  1.6625 -0.3163  0.4081
12152TIP3    H257948   0.315   0.422  16.074 -0.4957 -1.2959 -4.2097
12153TIP3   OH257949   5.494   2.317  12.007 -0.6111 -0.3052 -0.4288
12153TIP3    H157950   5.497   2.270  11.924  1.6322  1.0224 -1.1743
12153TIP3    H257951   5.508   2.250  12.074  0.1425 -1.0421 -1.3039
12154TIP3   OH257952   1.422   5.902   0.629 -0.2864  0.0088  0.0665
12154TIP3    H157953   1.466   5.987   0.623  0.9257 -0.3523  2.4520
12154TIP3    H257954   1.469   5.847   0.566  1.3139  0.2250  1.0009
12155TIP3   OH257955   1.193   6.668  10.969  0.3227 -0.0494  0.0668
12155TIP3    H157956   1.215   6.756  10.937 -1.7359  0.4431 -0.1670
12155TIP3    H257957   1.181   6.616  10.890 -1.8751  0.4132  0.0197
12156TIP3   OH257958   2.010   4.575  11.496 -0.0395  0.1697 -0.1287
12156TIP3    H157959   1.986   4.654  11.447  1.1733  1.4052  1.1821
12156TIP3    H257960   2.055   4.520  11.432  1.2242  1.5995 -0.5335
12157TIP3   OH257961   2.780   2.304  14.840  0.1770 -0.2089  0.6970
12157TIP3    H157962   2.759   2.275  14.751 -1.0779  1.3701  0.4251
12157TIP3    H257963   2.875   2.316  14.840 -0.0248  1.9868 -1.1956
12158TIP3   OH257964   5.761   0.936   3.254 -0.0692  0.2180 -0.5170
12158TIP3    H157965   5.698   0.896   3.314 -0.3638 -0.1587 -1.0683
12158TIP3    H257966   5.768   1.027   3.284  1.2921 -0.4372  1.3120
12159TIP3   OH257967   1.702   0.529   5.935  0.3148 -0.3359 -0.3165
12159TIP3    H157968   1.659   0.536   6.020 -1.9639 -1.5997 -1.2958
12159TIP3    H257969   1.683   0.612   5.892 -0.3242 -0.5183 -0.3851
12160TIP3   OH257970   4.856   5.269  15.811 -0.2680 -0.4000  0.1817
12160TIP3    H157971   4.873   5.316  15.894 -0.1935 -0.2190  0.0656
12160TIP3    H257972   4.905   5.187  15.820  1.2703  0.4062 -0.4257
12161TIP3   OH257973   5.421   2.446  14.329 -0.0100 -0.3092  0.0603
12161TIP3    H157974   5.373   2.425  14.409 -0.2950  0.8756  0.2173
12161TIP3    H257975   5.483   2.513  14.355  1.5335 -1.5848 -0.2207
12162TIP3   OH257976   2.283   2.324  13.896 -0.5465  0.0206  0.2868
12162TIP3    H157977   2.301   2.295  13.986  0.7332 -0.2628 -0.0511
12162TIP3    H257978   2.262   2.243  13.849 -1.4426  0.1950  0.3626
12163TIP3   OH257979   2.046   3.518  12.515  0.4059  0.8084 -0.2144
12163TIP3    H157980   2.101   3.536  12.591  0.9066  0.5868 -0.5207
12163TIP3    H257981   1.961   3.494  12.552  1.0938 -0.8877  0.3351
12164TIP3   OH257982   6.799   5.549   4.431  0.6833 -0.1171 -0.6368
12164TIP3    H157983   6.732   5.521   4.369  1.0497 -2.2474 -0.1308
12164TIP3    H257984   6.763   5.529   4.517  1.3975  0.0015 -0.3033
12165TIP3   OH257985   4.281   0.689  15.044 -0.4196  0.1936  0.1988
12165TIP3    H157986   4.228   0.746  14.988 -0.2582  0.4128  0.2677
12165TIP3    H257987   4.301   0.742  15.121  0.9287  0.5445 -0.3626
12166TIP3   OH257988   0.193   3.755   4.263  0.3020 -0.3710  0.4342
12166TIP3    H157989   0.176   3.737   4.171  0.3305 -1.4255  0.6282
12166TIP3    H257990   0.288   3.763   4.269  0.4854 -2.2250  0.6774
12167TIP3   OH257991   0.319   2.153  11.397 -0.8726 -0.3604 -0.1876
12167TIP3    H157992   0.287   2.242  11.380 -0.2140  0.4709  2.4364
12167TIP3    H257993   0.294   2.104  11.319  0.1594  2.4473 -2.4679
12168TIP3   OH257994   5.016   1.296  15.990  0.2824  0.2806  0.2381
12168TIP3    H157995   4.995   1.384  16.022 -2.1548 -0.4882  0.9609
12168TIP3    H257996   5.034   1.246  16.069 -0.2995 -0.3356 -0.0154
12169TIP3   OH257997   0.446   5.249  16.324  0.6568 -0.5495 -0.0748
12169TIP3    H157998   0.444   5.237  16.229  1.3185  1.9913 -0.4704
12169TIP3    H257999   0.354   5.264  16.348  0.6202 -0.1608 -0.4580
12170TIP3   OH258000   3.254   5.583  12.450  0.1857 -0.3823 -0.3436
12170TIP3    H158001   3.200   5.638  12.394  2.0710 -0.2319 -2.1093
12170TIP3    H258002   3.223   5.494  12.433  0.2890 -0.2751 -1.1214
12171TIP3   OH258003   0.425   4.788  12.008 -0.3287 -0.3632  0.0159
12171TIP3    H158004   0.483   4.766  12.081 -2.3829 -2.6575  1.0807
12171TIP3    H258005   0.453   4.876  11.981  1.6095 -0.1297  2.4246
12172TIP3   OH258006   4.199   0.906   6.058  0.0067  0.5386 -0.0060
12172TIP3    H158007   4.139   0.935   5.989 -2.3465  0.2358  1.8003
12172TIP3    H258008   4.252   0.983   6.078 -3.1186  2.4769  1.6478
12173TIP3   OH258009   3.268   5.122  16.515 -0.0831  0.3912 -0.5158
12173TIP3    H158010   3.292   5.213  16.534 -0.8147  1.0069 -2.3049
12173TIP3    H258011   3.273   5.116  16.419  1.5216 -1.9158 -0.3714
12174TIP3   OH258012   1.768   1.485  16.778 -0.4449  0.0123  0.3571
12174TIP3    H158013   1.730   1.506  16.692 -1.8051 -0.9309  0.6929
12174TIP3    H258014   1.816   1.564  16.802 -0.3078  0.4190 -1.1220
12175TIP3   OH258015   6.172   2.193  12.326 -0.6735 -0.0429 -0.2389
12175TIP3    H158016   6.211   2.235  12.403  1.6595  1.5168 -2.1032
12175TIP3    H258017   6.243   2.140  12.289 -1.2297  0.4685 -2.1454
12176TIP3   OH258018   1.843   4.071  11.866 -1.2421  0.5277  0.5709
12176TIP3    H158019   1.761   4.027  11.890 -0.8444 -0.8211 -0.3940
12176TIP3    H258020   1.831   4.095  11.774 -1.0515  1.5456  0.8042
12177TIP3   OH258021   1.955   0.312  11.434 -0.3146 -0.5734 -0.3939
12177TIP3    H158022   1.927   0.292  11.344  0.6215 -2.2619 -0.3649
12177TIP3    H258023   1.881   0.285  11.489 -1.1974  1.1654 -0.6485
12178TIP3   OH258024   6.561   0.289   1.953  0.3630 -0.2717  0.2644
12178TIP3    H158025   6.631   0.240   1.994 -0.0096 -0.4163  0.7295
12178TIP3    H258026   6.599   0.322   1.871  0.4968 -1.6585 -0.2553
12179TIP3   OH258027   0.397   3.547   1.991  0.2089 -0.4041 -0.0825
12179TIP3    H158028   0.342   3.597   1.931  0.6809 -0.6545 -0.7402
12179TIP3    H258029   0.355   3.556   2.076 -0.6545 -0.3221 -0.5136
12180TIP3   OH258030   4.831   3.786   4.609  0.3959  0.3110 -0.5576
12180TIP3    H158031   4.884   3.753   4.682  0.0824  2.5387  0.7936
12180TIP3    H258032   4.741   3.759   4.631  0.2813  1.1067 -0.0030
12181TIP3   OH258033   1.027   0.694   1.142 -0.2839 -0.1618 -0.2916
12181TIP3    H158034   1.030   0.613   1.091 -1.2623 -0.3163 -0.1223
12181TIP3    H258035   0.969   0.674   1.215  2.0774 -0.3552  1.6423
12182TIP3   OH258036   4.584   3.892  10.886  0.3452  0.1537  0.0115
12182TIP3    H158037   4.625   3.958  10.830  1.9129  0.4926  1.4728
12182TIP3    H258038   4.517   3.940  10.934  0.4520  0.3419 -0.0260
12183TIP3   OH258039   6.579   2.417  16.953  0.6471 -0.3213 -0.1103
12183TIP3    H158040   6.502   2.451  16.997  1.4633  1.0391  0.3180
12183TIP3    H258041   6.653   2.455  17.000  1.5743 -0.7386 -1.1758
12184TIP3   OH258042   0.204   1.507  10.309 -0.0124  0.8144  0.0894
12184TIP3    H158043   0.254   1.457  10.243 -1.3123  0.5257 -0.7259
12184TIP3    H258044   0.219   1.460  10.391  0.8638  0.6099 -0.1741
12185TIP3   OH258045   1.234   2.719  14.167 -0.1448 -0.4633  0.2392
12185TIP3    H158046   1.165   2.703  14.102  0.4984  1.6217 -1.0645
12185TIP3    H258047   1.221   2.651  14.233 -2.9885 -0.6005 -0.3258
12186TIP3   OH258048   6.176   6.415  14.704  0.2229 -0.7811 -0.2559
12186TIP3    H158049   6.188   6.494  14.757 -3.4707  1.3228 -2.1531
12186TIP3    H258050   6.259   6.403  14.659  3.2185 -2.1071  4.8691
12187TIP3   OH258051   0.318   4.475  10.774 -0.0101 -0.0939  0.0056
12187TIP3    H158052   0.224   4.484  10.755 -0.7064 -0.7553  2.6368
12187TIP3    H258053   0.352   4.419  10.704 -1.8753 -0.9018 -0.3229
12188TIP3   OH258054   6.183   2.879   3.038 -0.6366  0.1261 -0.4404
12188TIP3    H158055   6.247   2.920   2.980 -0.7449  0.2319 -0.4867
12188TIP3    H258056   6.235   2.822   3.094 -0.5124  0.1390 -0.5396
12189TIP3   OH258057   1.709   0.038   4.364  0.6287 -0.1423 -0.2810
12189TIP3    H158058   1.760   0.063   4.287 -0.0529 -1.5305 -1.2364
12189TIP3    H258059   1.766  -0.023   4.412  0.4709 -0.4755 -0.5143
12190TIP3   OH258060   6.647   4.363  13.547  0.1732 -0.2214 -0.3972
12190TIP3    H158061   6.631   4.442  13.495 -1.2130 -1.1902 -1.5043
12190TIP3    H258062   6.622   4.388  13.636  0.2889  0.7486 -0.6211
12191TIP3   OH258063   4.563   2.799  17.051 -1.2834 -0.2240 -0.5445
12191TIP3    H158064   4.508   2.721  17.062 -1.7513  0.3102  1.2560
12191TIP3    H258065   4.507   2.871  17.079 -0.4322  0.6139 -0.9692
12192TIP3   OH258066   6.697   1.460   2.441  1.0104  0.2028 -0.4333
12192TIP3    H158067   6.686   1.398   2.369  0.0720  1.3221 -1.2950
12192TIP3    H258068   6.679   1.408   2.520 -1.8769 -0.2197 -1.2333
12193TIP3   OH258069   0.794   6.304  13.258 -0.3232 -0.1428 -0.1650
12193TIP3    H158070   0.733   6.324  13.187 -0.0701  0.2003 -0.2901
12193TIP3    H258071   0.869   6.264  13.213 -0.3888 -0.4241 -0.0286
12194TIP3   OH258072   6.612   2.867  11.711 -0.7736  0.1089 -0.4563
12194TIP3    H158073   6.566   2.919  11.777 -0.1284  1.7478 -1.2319
12194TIP3    H258074   6.571   2.893  11.628 -0.0729 -0.2195 -0.9147
12195TIP3   OH258075   3.943   4.383   0.428  0.0252  0.5821  0.0462
12195TIP3    H158076   4.018   4.324   0.412 -0.2984 -0.1090  0.9726
12195TIP3    H258077   3.887   4.371   0.351  0.2179  0.0581 -0.0220
12196TIP3   OH258078   6.650   1.029  13.976  0.0465 -0.3112  0.4207
12196TIP3    H158079   6.628   0.938  13.996 -0.2829 -0.6176 -1.1667
12196TIP3    H258080   6.596   1.051  13.900 -0.0566  1.3034  0.9253
12197TIP3   OH258081   0.583   2.049  13.410 -0.1004  0.1700 -0.1248
12197TIP3    H158082   0.534   1.968  13.407  0.7405 -0.3171 -1.2996
12197TIP3    H258083   0.634   2.050  13.329  2.6426  0.1283  1.4973
12198TIP3   OH258084   2.654   4.884   3.766 -0.6322  0.2419  0.2023
12198TIP3    H158085   2.693   4.836   3.839 -0.7678 -0.6771 -0.3159
12198TIP3    H258086   2.612   4.960   3.807  0.5794  0.5517  0.9064
12199TIP3   OH258087   5.242   0.920  16.900  0.2105 -0.8188 -0.6007
12199TIP3    H158088   5.204   0.893  16.984 -0.0484 -0.1512 -0.4954
12199TIP3    H258089   5.168   0.954  16.850  0.3902 -1.0693 -1.0426
12200TIP3   OH258090   4.923   0.340  15.727  0.2864 -0.2999  0.6090
12200TIP3    H158091   4.905   0.246  15.728  0.4346 -0.3837 -1.1628
12200TIP3    H258092   4.879   0.372  15.648  1.9902  0.7325  0.0344
12201TIP3   OH258093   1.784   0.387   4.617 -0.1032 -0.0112 -0.3488
12201TIP3    H158094   1.835   0.342   4.684 -0.7009 -0.5865 -0.2736
12201TIP3    H258095   1.850   0.430   4.562  0.3584  1.0363  0.9863
12202TIP3   OH258096   2.958   5.610   0.042  0.0091  0.5606 -0.3000
12202TIP3    H158097   2.869   5.647   0.048 -0.0169  0.6381 -1.0470
12202TIP3    H258098   2.987   5.634  -0.046  0.5769  0.0897 -0.2416
12203TIP3   OH258099   3.309   0.392   2.018 -0.4929  0.3589 -0.4762
12203TIP3    H158100   3.227   0.369   2.063  0.0013 -0.5273  0.0173
12203TIP3    H258101   3.318   0.325   1.950  1.0012 -1.0607  1.0159
12204TIP3   OH258102   3.043   3.441  12.374  0.0276  0.5990  0.3730
12204TIP3    H158103   3.094   3.496  12.433 -0.3480  0.8357  0.4831
12204TIP3    H258104   3.108   3.400  12.317  0.1484  3.6278 -1.8559
12205TIP3   OH258105   2.811   1.869   1.676  0.6422 -0.7122 -0.2047
12205TIP3    H158106   2.758   1.946   1.655 -0.3349 -2.2333 -4.2785
12205TIP3    H258107   2.886   1.874   1.616  2.7641 -1.0000  2.2451
12206TIP3   OH258108   2.418   3.320   3.554 -0.0901 -0.3087  0.0748
12206TIP3    H158109   2.401   3.268   3.475  0.6597 -0.1037 -0.2357
12206TIP3    H258110   2.456   3.402   3.520 -1.7474  0.6782  0.5109
12207TIP3   OH258111   1.210   6.505  10.757  0.2446  0.2871  0.3554
12207TIP3    H158112   1.161   6.559  10.696  1.1082  0.2819 -0.3613
12207TIP3    H258113   1.296   6.494  10.716  1.3830  1.5623  2.2646
12208TIP3   OH258114   5.538   5.421  11.795 -0.1425  0.1936  0.2891
12208TIP3    H158115   5.443   5.416  11.793 -0.1015 -0.6620 -2.2697
12208TIP3    H258116   5.558   5.512  11.772 -0.3450 -0.0848 -1.0401
12209TIP3   OH258117   6.242   0.731   4.536  0.0995  0.4729 -0.1570
12209TIP3    H158118   6.301   0.748   4.610 -2.6688  1.3242  2.0338
12209TIP3    H258119   6.238   0.636   4.530  2.1398  0.3907 -0.8035
12210TIP3   OH258120   4.491   4.143  16.609 -0.2717  0.2304  0.3745
12210TIP3    H158121   4.462   4.216  16.555  1.1652  1.4246  1.1030
12210TIP3    H258122   4.483   4.066  16.554 -1.1514  1.0513 -0.6737
12211TIP3   OH258123   4.247   3.841   0.812 -0.1644 -0.2243 -0.4501
12211TIP3    H158124   4.310   3.773   0.837 -0.4780 -0.3380  0.0575
12211TIP3    H258125   4.190   3.850   0.889  1.7393  2.8299  0.8295
12212TIP3   OH258126   6.789   0.435   2.906  0.0485  0.1892  0.0479
12212TIP3    H158127   6.734   0.429   2.984  1.0582 -0.1494  0.7474
12212TIP3    H258128   6.819   0.526   2.904  0.7806 -0.0285  0.6001
12213TIP3   OH258129   4.299   5.677   3.280  0.1281 -0.0440 -0.2625
12213TIP3    H158130   4.352   5.688   3.201  0.1239 -2.4937 -0.6838
12213TIP3    H258131   4.343   5.608   3.329  0.1685  1.4521  1.9834
12214TIP3   OH258132   1.400   3.494   0.988  0.0596  0.1073  0.2610
12214TIP3    H158133   1.373   3.566   1.045 -0.8668 -0.9657  1.2405
12214TIP3    H258134   1.480   3.461   1.027 -0.1985 -0.1836  0.5529
12215TIP3   OH258135   4.669   4.941  13.966 -0.4308  0.6122 -0.2847
12215TIP3    H158136   4.646   4.892  14.045 -1.8478  0.7189 -0.6066
12215TIP3    H258137   4.649   4.882  13.894 -0.4538  1.0143 -0.6121
12216TIP3   OH258138   3.740   3.386  11.872  0.3785  0.3560  0.2896
12216TIP3    H158139   3.771   3.456  11.929 -1.3269 -0.1530  1.9112
12216TIP3    H258140   3.646   3.381  11.888  0.4638 -2.4513  0.4061
12217TIP3   OH258141   3.275   1.245  11.773  0.2474 -0.2945 -0.2076
12217TIP3    H158142   3.183   1.218  11.768  0.2096  0.0504 -1.5915
12217TIP3    H258143   3.322   1.178  11.724  0.4534  0.7455 -1.4766
12218TIP3   OH258144   3.218   4.946   2.939  0.3813 -0.1349  0.4520
12218TIP3    H158145   3.302   4.992   2.942  0.5956 -0.4960  0.1387
12218TIP3    H258146   3.161   4.996   2.998  0.5756  0.5842  0.0469
12219TIP3   OH258147   3.990   4.150  12.254 -0.0385  0.1478 -0.0331
12219TIP3    H158148   4.012   4.238  12.223  0.4730 -0.1171 -0.4543
12219TIP3    H258149   4.070   4.100  12.238 -0.6429 -0.6251 -0.6983
12220TIP3   OH258150   3.727   6.785  12.635 -0.7217  0.2324 -0.5011
12220TIP3    H158151   3.793   6.850  12.660 -1.4669  0.1738  1.9229
12220TIP3    H258152   3.750   6.760  12.546  1.4470  1.5201 -0.3721
12221TIP3   OH258153   5.317   6.718  14.800 -0.0517  0.2301 -0.2706
12221TIP3    H158154   5.374   6.738  14.726  0.0648  2.0886  0.2637
12221TIP3    H258155   5.250   6.786  14.798  0.0429  0.4201  1.4055
12222TIP3   OH258156   4.434   3.951   0.242 -0.2726  0.0888  0.1139
12222TIP3    H158157   4.375   4.021   0.271 -1.2268 -0.4159 -0.5399
12222TIP3    H258158   4.419   3.880   0.304 -0.2977 -0.0120 -0.0077
12223TIP3   OH258159   2.892   5.539  15.859 -0.8428 -0.0664 -0.7367
12223TIP3    H158160   2.907   5.546  15.764  0.4859  0.4610 -0.5124
12223TIP3    H258161   2.873   5.629  15.887 -1.2324 -0.2206 -0.4957
12224TIP3   OH258162   0.688   3.389   5.351 -0.0018 -0.4306 -0.2069
12224TIP3    H158163   0.737   3.444   5.290  0.0504 -0.8138 -0.5203
12224TIP3    H258164   0.753   3.326   5.383 -0.0225 -0.2166  0.2679
12225TIP3   OH258165   0.378   0.042  12.982 -0.0085  0.5068  0.3020
12225TIP3    H158166   0.458   0.028  13.032  0.1611  0.0044 -0.1018
12225TIP3    H258167   0.408   0.059  12.893 -0.3077  1.4113  0.3635
12226TIP3   OH258168   6.692   3.767   3.857  0.0763  0.5718 -0.1069
12226TIP3    H158169   6.640   3.839   3.892 -1.0919 -0.1123 -0.3814
12226TIP3    H258170   6.633   3.692   3.859  0.9547 -0.1533 -0.7474
12227TIP3   OH258171   1.825   5.692  11.938  0.2968 -0.0781  0.0736
12227TIP3    H158172   1.817   5.604  11.902  2.2963  0.0559 -0.8512
12227TIP3    H258173   1.801   5.750  11.866 -0.5433  0.1555  0.5300
12228TIP3   OH258174   6.037   2.596   2.328 -0.3041  0.1635 -0.7011
12228TIP3    H158175   5.996   2.667   2.279 -0.3629  1.8303  1.5869
12228TIP3    H258176   6.127   2.627   2.343 -0.7564  0.5492  1.6094
12229TIP3   OH258177   4.183   2.724   5.305  0.1979 -0.4759 -0.1675
12229TIP3    H158178   4.220   2.636   5.307  0.2519 -0.4290  1.1543
12229TIP3    H258179   4.193   2.758   5.394  1.0232  1.2197 -0.8579
12230TIP3   OH258180   4.102   3.207  12.955 -0.6265 -0.4459  0.0979
12230TIP3    H158181   4.036   3.139  12.953 -0.8652 -0.2049 -0.1778
12230TIP3    H258182   4.091   3.255  12.873 -0.0925 -0.4216  0.0322
12231TIP3   OH258183   1.215   5.295  13.609  0.2299 -0.0764 -0.6838
12231TIP3    H158184   1.237   5.267  13.698  2.0137 -0.6477 -1.2552
12231TIP3    H258185   1.299   5.297  13.563 -0.4805  1.4990 -2.0141
12232TIP3   OH258186   5.167   0.822  11.419 -0.2028  0.2809 -0.0999
12232TIP3    H158187   5.138   0.731  11.415  1.8429 -0.3880 -2.0489
12232TIP3    H258188   5.232   0.829  11.349 -1.2631  3.6359 -0.9190
12233TIP3   OH258189   1.562   5.759  13.865  0.7163 -1.0230 -0.0528
12233TIP3    H158190   1.518   5.692  13.813 -0.6098  1.9533 -3.0949
12233TIP3    H258191   1.492   5.803  13.912  1.0391  0.4124 -0.8566
12234TIP3   OH258192   0.636   5.099   0.376  0.0509  0.3054 -0.9046
12234TIP3    H158193   0.564   5.123   0.433 -1.7179  1.7397 -3.5448
12234TIP3    H258194   0.715   5.119   0.427 -1.3564 -0.2830  1.6651
12235TIP3   OH258195   1.746   0.285   2.091 -0.8123  0.5727  0.3225
12235TIP3    H158196   1.796   0.209   2.122  2.9737  2.2337 -1.0354
12235TIP3    H258197   1.663   0.249   2.060  1.1011 -3.1969 -1.0629
12236TIP3   OH258198   3.542   4.232  13.885  0.1184  0.0079  0.4147
12236TIP3    H158199   3.627   4.188  13.887 -0.2654 -1.0697 -2.4842
12236TIP3    H258200   3.561   4.322  13.860  0.3377 -0.7151 -2.2253
12237TIP3   OH258201   1.908   3.845  15.836  0.3815 -0.5055 -0.4121
12237TIP3    H158202   1.829   3.891  15.865  1.1434 -1.1261  3.0031
12237TIP3    H258203   1.961   3.912  15.794 -2.1006 -0.1902 -3.4419
12238TIP3   OH258204   4.108   2.184  12.387  0.0902 -0.7473  0.0357
12238TIP3    H158205   4.027   2.172  12.437 -1.0779  1.4508 -1.1874
12238TIP3    H258206   4.090   2.145  12.302 -0.5881  1.7027 -1.0150
12239TIP3   OH258207   4.725   5.922  12.755 -0.3002  0.2597 -0.0406
12239TIP3    H158208   4.726   5.885  12.843  0.1463  0.8630  0.2163
12239TIP3    H258209   4.689   5.853  12.700  0.4020 -0.4952  0.4391
12240TIP3   OH258210   0.849   5.471  16.538 -0.8051 -0.1779 -0.3243
12240TIP3    H158211   0.810   5.466  16.451 -0.8111 -2.4658 -0.2512
12240TIP3    H258212   0.888   5.384  16.552  0.8315  0.7496  1.2128
12241TIP3   OH258213   6.835   3.660   3.367 -0.1092  0.0263  0.5645
12241TIP3    H158214   6.776   3.626   3.299 -0.8966  2.0752  0.1544
12241TIP3    H258215   6.779   3.713   3.423  1.0672  0.7213  1.1193
12242TIP3   OH258216   0.732   6.476   4.305 -0.3441  0.3762  0.4731
12242TIP3    H158217   0.756   6.506   4.392 -1.0118  0.0011  0.7935
12242TIP3    H258218   0.814   6.447   4.266  0.2727  2.2395  0.2847
12243TIP3   OH258219   6.739   3.781   5.829 -0.2309  0.3536 -0.2551
12243TIP3    H158220   6.672   3.777   5.897 -1.3490 -0.6896 -1.3557
12243TIP3    H258221   6.783   3.864   5.843 -0.9245  0.4915  1.2708
12244TIP3   OH258222   3.298   0.180  14.184  0.8575  0.7324  0.4629
12244TIP3    H158223   3.239   0.248  14.151  0.3894 -0.2840 -0.8830
12244TIP3    H258224   3.379   0.191  14.135  1.5533  1.6315  1.7571
12245TIP3   OH258225   1.358   6.140   6.007  0.3376 -0.4872 -0.4198
12245TIP3    H158226   1.296   6.068   5.994 -2.9095  2.1026 -0.2596
12245TIP3    H258227   1.347   6.165   6.099 -1.3085  2.4181 -1.3054
12246TIP3   OH258228   2.191   5.432   1.506 -0.3961  0.2896 -0.2920
12246TIP3    H158229   2.221   5.519   1.478 -0.7892  1.2065  1.9273
12246TIP3    H258230   2.265   5.394   1.553 -1.4150  1.1095  2.1369
12247TIP3   OH258231   1.206   5.330   1.170  0.2404 -0.0202 -0.1862
12247TIP3    H158232   1.244   5.341   1.257  0.8644 -2.7225 -0.0192
12247TIP3    H258233   1.257   5.259   1.130 -0.8473  0.2863 -2.2730
12248TIP3   OH258234   3.813   6.448   0.221  0.1241 -0.1764 -0.5200
12248TIP3    H158235   3.863   6.367   0.234  0.0983  0.0891  1.7186
12248TIP3    H258236   3.724   6.425   0.248  0.0812  0.5314 -0.0490
12249TIP3   OH258237   1.470   0.941   6.427 -0.4745  0.3826  0.0230
12249TIP3    H158238   1.474   0.904   6.515 -0.8175  1.1162  0.3609
12249TIP3    H258239   1.438   0.870   6.372  1.0264 -0.4938  0.2359
12250TIP3   OH258240   0.942   1.873   2.197  0.5779 -0.7365  0.3447
12250TIP3    H158241   0.996   1.932   2.250  0.0354 -0.7185  0.8917
12250TIP3    H258242   0.862   1.862   2.248 -0.0198 -0.6122 -0.5366
12251TIP3   OH258243   2.947   0.551   5.784  0.6489  0.2956  0.6926
12251TIP3    H158244   2.869   0.512   5.823  1.0283  0.6677  1.8593
12251TIP3    H258245   2.920   0.575   5.695 -0.8551  1.3109  1.3879
12252TIP3   OH258246   5.961   5.734  13.992  0.1462  0.4626 -0.7884
12252TIP3    H158247   5.890   5.741  13.928  1.1025  0.4262 -1.8811
12252TIP3    H258248   5.927   5.675  14.059 -0.3034 -0.8099 -2.0881
12253TIP3   OH258249   1.315   5.746   6.265  0.2166 -0.1214 -0.3868
12253TIP3    H158250   1.239   5.727   6.320  0.2720  0.2165 -0.1943
12253TIP3    H258251   1.333   5.663   6.220  0.8375 -0.7048  0.8939
12254TIP3   OH258252   5.004   4.093  11.406 -0.0746 -0.0195  0.8726
12254TIP3    H158253   5.035   4.183  11.418  0.1801 -0.0678  0.5612
12254TIP3    H258254   4.940   4.099  11.335  0.5939 -0.2301  0.2468
12255TIP3   OH258255   3.432   1.669   5.274  0.3115  0.3684 -0.0477
12255TIP3    H158256   3.498   1.600   5.277  0.6879  0.7513  0.7251
12255TIP3    H258257   3.353   1.625   5.243  0.9794 -0.0399 -1.2394
12256TIP3   OH258258   2.623   0.955   4.256 -0.2668 -0.6320  0.4279
12256TIP3    H158259   2.558   0.901   4.302 -1.7228  0.9942  0.3900
12256TIP3    H258260   2.603   0.942   4.163 -1.1396  0.5082  0.4304
12257TIP3   OH258261   5.392   2.109  13.466 -0.1114  0.5902 -0.2021
12257TIP3    H158262   5.315   2.102  13.523 -0.6329  1.3764 -0.7901
12257TIP3    H258263   5.362   2.160  13.391  0.8491  0.4581 -0.6949
12258TIP3   OH258264   3.303   5.017   5.390 -0.3749 -0.4700  0.4399
12258TIP3    H158265   3.331   5.075   5.319 -0.0177 -2.6098 -1.2533
12258TIP3    H258266   3.385   4.986   5.429 -0.5683  0.4456  1.6302
12259TIP3   OH258267   5.329   2.269   2.280  0.5433 -0.2690  0.3297
12259TIP3    H158268   5.344   2.363   2.291 -1.1916 -0.1178  2.0229
12259TIP3    H258269   5.235   2.262   2.263  0.3787 -1.7528  1.6322
12260TIP3   OH258270   3.169   2.327  17.063  0.4269  0.3024  0.5206
12260TIP3    H158271   3.081   2.349  17.032 -0.1211 -0.1697  1.7027
12260TIP3    H258272   3.183   2.237  17.032  0.3801  0.2716  0.5888
12261TIP3   OH258273   0.553   1.332   1.011  0.4560  0.4007  0.3532
12261TIP3    H158274   0.468   1.288   1.012  1.1351 -0.9892  1.4899
12261TIP3    H258275   0.599   1.295   0.935  0.8539 -0.5836  1.0426
12262TIP3   OH258276   6.324   4.341  16.935 -0.0354  0.5629 -1.0842
12262TIP3    H158277   6.389   4.314  16.870  0.7205  0.2076 -0.2003
12262TIP3    H258278   6.322   4.436  16.928  1.2872  0.6605 -0.4843
12263TIP3   OH258279   6.827   2.762  13.831 -0.4189  0.6446 -0.0963
12263TIP3    H158280   6.807   2.855  13.818  0.5708  0.8013 -0.6271
12263TIP3    H258281   6.892   2.761  13.901  0.9299  0.5226 -1.3098
12264TIP3   OH258282   2.204   1.016   0.170  0.3676  0.9347  0.0609
12264TIP3    H158283   2.251   1.078   0.114  1.1835  1.5075  1.3454
12264TIP3    H258284   2.112   1.036   0.155  0.4355 -0.4537 -2.7790
12265TIP3   OH258285   5.742   4.651   5.873  0.6729 -0.0880  0.2340
12265TIP3    H158286   5.706   4.592   5.806  0.2932  1.5130 -1.0407
12265TIP3    H258287   5.834   4.627   5.878  0.2131 -1.9181  1.0242
12266TIP3   OH258288   1.442   1.251   4.508  0.1205 -0.4338  0.3312
12266TIP3    H158289   1.471   1.283   4.593  2.5310  0.6583 -0.7998
12266TIP3    H258290   1.517   1.204   4.473 -0.4440  0.0085 -1.5950
12267TIP3   OH258291   3.134   0.468  15.419  0.0873  0.0312 -0.3980
12267TIP3    H158292   3.060   0.462  15.358 -1.0643 -3.4569  1.0618
12267TIP3    H258293   3.208   0.432  15.370  0.1833  0.9887 -0.9812
12268TIP3   OH258294   1.562   2.849   0.402  0.0526  0.3780 -1.0515
12268TIP3    H158295   1.519   2.880   0.322 -0.2424  0.7793 -0.7412
12268TIP3    H258296   1.611   2.925   0.433  0.6893  0.0389 -1.1917
12269TIP3   OH258297   4.912   6.461   4.170 -0.6620  0.0164 -0.6041
12269TIP3    H158298   4.941   6.372   4.189 -1.5467 -0.4344 -1.3278
12269TIP3    H258299   4.817   6.458   4.176 -0.8303  0.4405 -2.5389
12270TIP3   OH258300   3.892   1.291   4.563  0.3395 -0.1995  0.1894
12270TIP3    H158301   3.946   1.369   4.583  0.8291 -0.4847  0.0004
12270TIP3    H258302   3.932   1.221   4.615  0.4716 -0.5298 -0.3456
12271TIP3   OH258303   0.481   0.639   3.357 -0.3662  0.1596  0.1691
12271TIP3    H158304   0.435   0.716   3.323 -0.8177 -0.1015  0.1853
12271TIP3    H258305   0.508   0.666   3.445  1.2808  1.0276 -0.5608
12272TIP3   OH258306   3.009   3.731  16.419 -0.3508 -0.2226  0.3751
12272TIP3    H158307   3.100   3.740  16.390 -0.5509  2.9291  0.3530
12272TIP3    H258308   2.959   3.786  16.359 -2.1470 -1.0546  1.0366
12273TIP3   OH258309   0.907   6.065   4.575 -0.3745 -0.0934 -0.2334
12273TIP3    H158310   0.823   6.052   4.531  0.0302 -0.1000 -1.0224
12273TIP3    H258311   0.930   6.156   4.556 -0.3769  0.0285  0.3080
12274TIP3   OH258312   3.316   3.056   0.384  0.1109 -0.0702 -0.0639
12274TIP3    H158313   3.331   3.091   0.296  0.0490  1.1128  0.3746
12274TIP3    H258314   3.331   3.130   0.442 -2.7421 -0.0195  0.7497
12275TIP3   OH258315   3.964   2.050   5.471  0.2092 -0.1055 -0.0990
12275TIP3    H158316   3.881   2.005   5.485  0.5077 -1.1496 -1.5004
12275TIP3    H258317   4.001   2.009   5.393  1.5913  1.0093 -0.0701
12276TIP3   OH258318   5.975   5.326  13.114 -0.0504  0.4054 -0.4612
12276TIP3    H158319   5.995   5.261  13.047 -2.4317 -0.0227 -0.8199
12276TIP3    H258320   5.896   5.293  13.157  1.6647  0.3036  3.0612
12277TIP3   OH258321   4.443   6.187   5.097 -0.4060 -0.0269  0.8416
12277TIP3    H158322   4.476   6.275   5.079  0.6374 -0.4619  0.5295
12277TIP3    H258323   4.368   6.177   5.038  0.9972 -0.2448 -0.9853
12278TIP3   OH258324   5.223   3.933  15.939  0.8417 -0.7879  0.2642
12278TIP3    H158325   5.129   3.928  15.961  0.8035  0.2374  0.3606
12278TIP3    H258326   5.267   3.925  16.023  0.9088 -2.4056  0.1176
12279TIP3   OH258327   1.942   2.042   1.266 -0.8052 -0.2201 -0.2406
12279TIP3    H158328   2.031   2.008   1.267 -1.2729 -1.5498 -0.7013
12279TIP3    H258329   1.932   2.088   1.349  0.6676  0.9776 -0.6849
12280TIP3   OH258330   4.370   6.371  12.391  0.9443  0.1483 -0.5386
12280TIP3    H158331   4.389   6.427  12.466 -0.4765 -0.3701  0.2491
12280TIP3    H258332   4.321   6.297  12.428  1.0438 -0.6044 -1.8401
12281TIP3   OH258333   5.185   5.498   5.547 -0.1482  0.0642 -0.2168
12281TIP3    H158334   5.263   5.509   5.493 -0.4774  0.3273 -0.6401
12281TIP3    H258335   5.219   5.487   5.636  0.3251  1.1728 -0.2529
12282TIP3   OH258336   0.651   0.765  14.526 -0.2947  0.8122 -0.5631
12282TIP3    H158337   0.622   0.739  14.614  2.4346  1.3396  0.6040
12282TIP3    H258338   0.722   0.827  14.542  0.6405  0.5226 -3.1544
12283TIP3   OH258339   1.495   5.436   5.018  0.0960  0.4346 -0.0021
12283TIP3    H158340   1.560   5.449   4.949  0.6863 -2.1707 -0.0399
12283TIP3    H258341   1.420   5.489   4.991  1.2756  1.5281 -1.2616
12284TIP3   OH258342   2.976   2.692  16.317  0.7615 -0.3699 -0.1657
12284TIP3    H158343   2.979   2.739  16.233 -2.5915 -0.3789 -0.4347
12284TIP3    H258344   2.886   2.702  16.346  1.5246 -1.4332  2.8927
12285TIP3   OH258345   1.440   1.880  11.662  0.1650 -0.5417  0.1847
12285TIP3    H158346   1.364   1.924  11.702  0.3942  1.8248 -1.7825
12285TIP3    H258347   1.402   1.805  11.616 -0.8637  0.0074  0.1014
12286TIP3   OH258348   2.699   4.911  15.148  0.0341 -0.5481  0.0165
12286TIP3    H158349   2.747   4.875  15.223 -1.8551 -1.4455  0.8809
12286TIP3    H258350   2.618   4.859  15.145 -0.1882 -0.1697 -2.3365
12287TIP3   OH258351   1.519   6.343  14.464  0.0164  0.6834 -0.1088
12287TIP3    H158352   1.577   6.419  14.474  0.3773  0.2186  1.6135
12287TIP3    H258353   1.548   6.282  14.531 -0.1463 -1.0882 -1.5862
12288TIP3   OH258354   4.519   4.120   6.426 -0.4273  0.3911 -0.5361
12288TIP3    H158355   4.570   4.194   6.460  2.7789 -1.5497 -0.6933
12288TIP3    H258356   4.451   4.105   6.492  1.4589  0.8879  1.6480
12289TIP3   OH258357   2.476   1.896   4.932  0.1404  0.1386 -0.3447
12289TIP3    H158358   2.477   1.862   5.022 -2.7350  1.9910  0.5548
12289TIP3    H258359   2.449   1.822   4.879 -1.0925 -0.2942  0.8167
12290TIP3   OH258360   6.279   2.820   2.696  0.5353 -0.1667 -0.6984
12290TIP3    H158361   6.216   2.748   2.698  2.0777 -1.5578  0.2245
12290TIP3    H258362   6.319   2.813   2.609  0.0146  0.2033 -0.9742
12291TIP3   OH258363   5.583   3.323  15.272  0.6606  0.7452 -0.1193
12291TIP3    H158364   5.608   3.356  15.358  0.7426  0.0856  0.1199
12291TIP3    H258365   5.656   3.348  15.215  0.5244  1.3340 -0.0341
12292TIP3   OH258366   4.631   2.587   0.675  0.0404 -0.3078  0.6200
12292TIP3    H158367   4.636   2.492   0.681  0.3370 -0.2779  0.8645
12292TIP3    H258368   4.682   2.609   0.597 -1.4956 -0.4777 -0.4906
12293TIP3   OH258369   6.235   1.407  11.398 -0.0162 -0.1000  0.3073
12293TIP3    H158370   6.221   1.324  11.444  1.5613  0.1234  1.2422
12293TIP3    H258371   6.186   1.472  11.449 -0.1986 -0.2307  0.3020
12294TIP3   OH258372   4.841   1.225   1.876 -0.6850 -0.1125 -0.2183
12294TIP3    H158373   4.756   1.262   1.897 -0.0855  0.9745  0.3801
12294TIP3    H258374   4.904   1.289   1.910  0.3863 -1.4380  0.3683
12295TIP3   OH258375   2.043   4.326  14.499 -0.1402  0.5733 -0.1860
12295TIP3    H158376   1.970   4.359  14.551 -1.0233 -0.3792 -0.7804
12295TIP3    H258377   2.098   4.277  14.561 -1.1701 -0.5346 -0.1091
12296TIP3   OH258378   2.920   0.963   0.952  0.2074  0.4923  0.4826
12296TIP3    H158379   2.955   0.876   0.970 -1.1590  0.2895  2.4793
12296TIP3    H258380   2.969   1.021   1.011  1.6319  1.2629 -1.3544
12297TIP3   OH258381   4.747   6.435  14.237  0.1930  0.1211 -0.0313
12297TIP3    H158382   4.786   6.441  14.150  0.0765 -1.7982 -0.2652
12297TIP3    H258383   4.662   6.479  14.228  0.2974  0.1873 -0.8006
12298TIP3   OH258384   2.404   0.980  14.109  0.5780  0.1489  0.7215
12298TIP3    H158385   2.486   0.931  14.113 -0.5688 -1.7601  2.6915
12298TIP3    H258386   2.346   0.925  14.056  0.4859  1.4593 -0.6092
12299TIP3   OH258387   3.205   6.245  16.587  0.1949  0.3771  0.5447
12299TIP3    H158388   3.285   6.223  16.538  0.5960  3.7361 -0.5681
12299TIP3    H258389   3.235   6.303  16.657 -1.1192  0.3723  1.1437
12300TIP3   OH258390   1.213   2.573   1.095  0.0297 -0.3455  0.2149
12300TIP3    H158391   1.287   2.513   1.108  0.8942  0.7172  0.2809
12300TIP3    H258392   1.210   2.625   1.176 -0.2496  0.2049 -0.1455
12301TIP3   OH258393   4.740   4.243  16.985  0.4010 -0.2699  0.4507
12301TIP3    H158394   4.706   4.222  17.072  1.2183 -1.1738  0.5775
12301TIP3    H258395   4.817   4.297  17.003  0.8701 -0.8854  0.3258
12302TIP3   OH258396   2.365   6.711  13.527 -0.4071  0.3337 -0.2439
12302TIP3    H158397   2.440   6.702  13.468 -1.4048  0.9784 -1.6590
12302TIP3    H258398   2.357   6.805  13.540 -0.7715  0.2446  0.1772
12303TIP3   OH258399   3.598   3.153   5.859 -0.0247 -0.2470 -0.3304
12303TIP3    H158400   3.572   3.098   5.933  0.9032  0.3147  0.4306
12303TIP3    H258401   3.532   3.135   5.791 -1.3373 -0.2010  0.8871
12304TIP3   OH258402   0.490   5.478   4.500 -0.6007  0.0131 -0.0932
12304TIP3    H158403   0.430   5.481   4.426 -0.6574  0.5885 -0.0288
12304TIP3    H258404   0.500   5.570   4.527  1.7965  0.1889 -1.2994
12305TIP3   OH258405   1.278   5.145   2.932 -0.1848 -0.5751 -0.1810
12305TIP3    H158406   1.265   5.232   2.969 -2.1271 -0.3039 -1.3785
12305TIP3    H258407   1.268   5.086   3.007 -1.3854  0.1112  0.2321
12306TIP3   OH258408   6.776   2.061  14.754 -0.0867 -0.0436  0.5239
12306TIP3    H158409   6.745   2.151  14.761  0.7527  0.3225 -0.3227
12306TIP3    H258410   6.822   2.057  14.671  1.8879 -0.6293  1.5783
12307TIP3   OH258411   4.166   5.499  15.205 -0.2077 -0.5680  0.6118
12307TIP3    H158412   4.115   5.572  15.171  0.2504 -0.5692 -0.1123
12307TIP3    H258413   4.155   5.429  15.141 -0.2922 -0.9885  1.0769
12308TIP3   OH258414   4.325   1.568   2.677  0.1325  0.0150  0.3510
12308TIP3    H158415   4.316   1.480   2.714 -2.2524  0.3196  0.6449
12308TIP3    H258416   4.314   1.556   2.583 -0.1589 -0.0035  0.3872
12309TIP3   OH258417   4.735   4.356  14.501 -0.2234 -0.4618  0.0696
12309TIP3    H158418   4.805   4.412  14.469  0.7613 -2.0571 -0.7193
12309TIP3    H258419   4.697   4.317  14.422 -2.4234  0.7976  0.4406
12310TIP3   OH258420   0.184   5.202   5.475 -0.1115  0.2122 -0.1029
12310TIP3    H158421   0.258   5.264   5.476  0.4738 -0.4298 -1.2126
12310TIP3    H258422   0.107   5.257   5.462  0.3085  0.7981 -0.1846
12311TIP3   OH258423   5.036   3.604   3.439 -0.0620 -0.3716  0.4545
12311TIP3    H158424   4.955   3.559   3.465 -0.6080 -0.1671 -0.8350
12311TIP3    H258425   5.090   3.603   3.518 -1.0096 -1.2020  1.1165
12312TIP3   OH258426   1.755   5.689   0.805  0.6910 -0.0024 -0.0753
12312TIP3    H158427   1.756   5.623   0.874 -0.1185  1.8526  1.8221
12312TIP3    H258428   1.673   5.738   0.820  1.1213  1.2668 -1.5643
12313TIP3   OH258429   6.399   2.536   0.033 -0.2810  0.9859 -0.0603
12313TIP3    H158430   6.321   2.486   0.057 -0.8891  2.8599  2.1326
12313TIP3    H258431   6.463   2.513   0.100  0.9723 -0.1537 -1.5613
12314TIP3   OH258432   6.821   2.080   2.996 -0.3912 -0.6020  0.4301
12314TIP3    H158433   6.749   2.032   3.038 -1.7479 -0.0122 -1.1242
12314TIP3    H258434   6.867   2.123   3.069 -0.7696 -2.0634  1.5828
12315TIP3   OH258435   1.637   6.716   5.794  0.2791 -0.1765  0.1648
12315TIP3    H158436   1.621   6.682   5.882 -1.2641 -1.5921 -0.6024
12315TIP3    H258437   1.595   6.802   5.793 -0.5690 -0.5740  0.5484
12316TIP3   OH258438   1.380   5.106  12.158  0.6615 -0.1082 -0.6153
12316TIP3    H158439   1.333   5.070  12.083  0.1350  1.2531 -0.9504
12316TIP3    H258440   1.441   5.036  12.183 -1.2195 -1.7966 -0.4173
12317TIP3   OH258441   6.433   2.274  12.475  0.5952 -0.3101  0.4119
12317TIP3    H158442   6.433   2.189  12.432 -1.8266  0.0632 -0.5203
12317TIP3    H258443   6.468   2.335  12.410 -1.6320  0.0071 -0.5897
12318TIP3   OH258444   3.018   0.507  16.761  0.4586 -0.1354  0.0761
12318TIP3    H158445   3.103   0.463  16.769  0.8237  0.5767  0.2726
12318TIP3    H258446   3.037   0.598  16.785 -0.0347  0.3852 -1.3837
12319TIP3   OH258447   5.452   5.150   3.788  0.4363  0.4046 -0.7176
12319TIP3    H158448   5.371   5.119   3.747  0.3633 -1.1023  0.4483
12319TIP3    H258449   5.514   5.158   3.716 -0.6525  1.3108 -1.5924
12320TIP3   OH258450   3.786   2.202  15.771  0.0598 -0.1337  0.0455
12320TIP3    H158451   3.874   2.174  15.744 -0.0371 -0.3489 -0.0501
12320TIP3    H258452   3.802   2.271  15.835  0.3141 -0.9235  0.8560
12321TIP3   OH258453   1.947   4.405   2.659 -0.0380  0.5293  0.2134
12321TIP3    H158454   1.868   4.445   2.624  0.4755  0.8792 -0.5786
12321TIP3    H258455   1.932   4.311   2.653  0.1828  0.5742 -1.3284
12322TIP3   OH258456   5.646   4.883   2.580  0.1835 -0.0169 -1.1345
12322TIP3    H158457   5.590   4.839   2.515 -0.2815 -0.0469 -0.7196
12322TIP3    H258458   5.635   4.976   2.561 -0.0752 -0.0190 -1.0023
12323TIP3   OH258459   1.195   1.330  16.959 -0.0916  0.3656  0.4189
12323TIP3    H158460   1.281   1.371  16.954 -0.0681  0.5813  1.9808
12323TIP3    H258461   1.139   1.399  16.995 -0.4620 -0.3955  1.3254
12324TIP3   OH258462   2.774   3.417   0.706 -0.4980 -0.3993  0.1214
12324TIP3    H158463   2.723   3.483   0.754 -1.0221  1.3473 -2.6393
12324TIP3    H258464   2.864   3.433   0.734 -0.9045 -0.3815  1.5255
12325TIP3   OH258465   0.574   3.894   0.866 -0.0098 -0.4307  0.8972
12325TIP3    H158466   0.494   3.936   0.833 -0.7069 -1.8803  0.6815
12325TIP3    H258467   0.643   3.921   0.805 -0.1546  1.4005  1.4727
12326TIP3   OH258468   3.555   0.539  16.784  0.6061  0.4445  0.6249
12326TIP3    H158469   3.562   0.630  16.754 -1.0652  0.1348 -0.9098
12326TIP3    H258470   3.645   0.512  16.801  1.1261  2.4799  1.4667
12327TIP3   OH258471   1.460   5.302   1.892 -0.3598  0.3516  0.3163
12327TIP3    H158472   1.501   5.232   1.943  1.2882  1.6179  0.7888
12327TIP3    H258473   1.394   5.339   1.950 -0.0499  0.3133  0.6948
12328TIP3   OH258474   5.815   0.792   1.526 -0.4153  0.0186 -0.4236
12328TIP3    H158475   5.824   0.697   1.526 -1.6224 -0.1192  0.6769
12328TIP3    H258476   5.762   0.812   1.604  1.4382  1.7486  0.5116
12329TIP3   OH258477   0.400   1.577   5.224  0.2290  0.2550  0.1050
12329TIP3    H158478   0.473   1.629   5.258  0.4229 -0.0826  0.2142
12329TIP3    H258479   0.397   1.598   5.130  0.7642 -0.0776  0.0086
12330TIP3   OH258480   4.434   0.246   2.754  0.5256  0.4762  0.7669
12330TIP3    H158481   4.380   0.322   2.772  0.9414  1.2611 -1.1396
12330TIP3    H258482   4.432   0.236   2.659  2.1820 -0.6194  0.8018
12331TIP3   OH258483   5.815   4.525   4.013  0.0907  0.3041 -0.2796
12331TIP3    H158484   5.788   4.515   3.922  1.0298  0.7434 -0.6136
12331TIP3    H258485   5.910   4.536   4.009  0.0458  1.1988  0.6778
12332TIP3   OH258486   4.774   1.197  16.778 -0.0995  0.2119 -0.1169
12332TIP3    H158487   4.760   1.215  16.685 -0.5550  1.8496  0.2360
12332TIP3    H258488   4.701   1.140  16.802  0.1679 -0.4376 -0.8150
12333TIP3   OH258489   4.981   2.420  10.366  0.1264 -0.0081  0.0868
12333TIP3    H158490   4.923   2.467  10.307  0.4434  2.0196  1.2924
12333TIP3    H258491   4.967   2.461  10.451  2.2229 -0.4679  0.7196
12334TIP3   OH258492   5.322   6.666  12.316  0.5416  0.0134 -0.0873
12334TIP3    H158493   5.323   6.737  12.252  1.2680  0.2161  0.1370
12334TIP3    H258494   5.411   6.664  12.351 -0.6703  2.4170  3.6962
12335TIP3   OH258495   0.743   3.291   3.098  0.3425  0.0237  0.4996
12335TIP3    H158496   0.686   3.270   3.171 -1.1509  0.2404 -0.5718
12335TIP3    H258497   0.685   3.295   3.022  1.6234  1.1957 -0.4703
12336TIP3   OH258498   6.818   2.946   2.794 -0.0450  0.2854 -0.1876
12336TIP3    H158499   6.852   3.035   2.783 -0.2111  0.3762  0.0201
12336TIP3    H258500   6.838   2.924   2.885 -0.4156  0.2878 -0.1026
12337TIP3   OH258501   4.237   1.152   0.495  0.2374 -0.0641  0.2393
12337TIP3    H158502   4.322   1.121   0.527  0.8406  0.0002 -1.2475
12337TIP3    H258503   4.258   1.207   0.419 -1.1293 -0.0283 -0.1368
12338TIP3   OH258504   0.230   1.958  15.887 -0.0054  1.1581  0.5482
12338TIP3    H158505   0.284   2.037  15.890  0.2825  0.9929 -0.1154
12338TIP3    H258506   0.282   1.892  15.932  0.5785  0.8729 -0.5094
12339TIP3   OH258507   1.927   6.499  16.306 -1.0918 -0.1523 -0.5903
12339TIP3    H158508   1.905   6.525  16.396  0.0199 -2.4260  0.4138
12339TIP3    H258509   1.842   6.474  16.268 -1.3096 -1.4499  0.6578
12340TIP3   OH258510   6.114   3.743  16.017 -0.1636 -0.5884 -0.4984
12340TIP3    H158511   6.162   3.664  15.989 -1.8283 -2.2677  1.1425
12340TIP3    H258512   6.034   3.710  16.056 -0.7692  1.9444  0.5873
12341TIP3   OH258513   1.731   6.671   3.972 -0.7059 -0.6301 -0.7894
12341TIP3    H158514   1.639   6.696   3.961 -0.9360  0.0424  1.9382
12341TIP3    H258515   1.729   6.594   4.029  0.4239 -0.1202 -0.0175
12342TIP3   OH258516   0.984   0.584  15.141  0.4192 -0.4407  0.6698
12342TIP3    H158517   0.947   0.511  15.091  0.1506  0.1382  0.0182
12342TIP3    H258518   1.075   0.558  15.155  0.7147 -0.3014 -0.7706
12343TIP3   OH258519   6.472   1.363   6.044 -0.2492  0.0282 -1.1059
12343TIP3    H158520   6.485   1.318   6.127  1.1525  1.4353 -0.4945
12343TIP3    H258521   6.381   1.390   6.044  0.2139  1.8522  1.0182
12344TIP3   OH258522   3.128   4.923   4.855  0.2806  0.2378 -0.0253
12344TIP3    H158523   3.042   4.963   4.855  0.0655 -0.2029 -1.1633
12344TIP3    H258524   3.123   4.854   4.921 -0.0996  0.4763  0.1954
12345TIP3   OH258525   4.176   0.756  11.371  0.1831  0.1304  0.0389
12345TIP3    H158526   4.272   0.754  11.378  0.1787 -1.0605 -0.0117
12345TIP3    H258527   4.158   0.836  11.323  1.1106  0.7615  0.7002
12346TIP3   OH258528   3.251   2.331   4.199 -0.1544 -0.0139 -0.3160
12346TIP3    H158529   3.309   2.254   4.204 -0.9672 -0.7541 -1.5969
12346TIP3    H258530   3.305   2.398   4.156 -0.6289 -1.1889 -2.9675
12347TIP3   OH258531   3.204   4.240   2.802  0.3264  0.5261 -0.3462
12347TIP3    H158532   3.217   4.327   2.840  1.7670  0.6320 -0.9917
12347TIP3    H258533   3.110   4.233   2.790  0.1201  1.7225  0.3622
12348TIP3   OH258534   4.403   6.072   3.961 -0.3710 -0.5077  0.9761
12348TIP3    H158535   4.387   6.166   3.962 -1.4972 -0.6651  3.4682
12348TIP3    H258536   4.485   6.061   4.008 -0.2025 -0.7851  0.6259
12349TIP3   OH258537   2.935   1.154  12.943  0.2793 -0.0227 -0.1697
12349TIP3    H158538   2.993   1.218  12.984  0.2948 -0.0319 -0.1782
12349TIP3    H258539   2.951   1.073  12.991  0.7991 -0.2014 -0.6428
12350TIP3   OH258540   3.472   2.138  11.019  0.3177  0.1364  0.2809
12350TIP3    H158541   3.567   2.131  11.029  0.1593 -0.4066  1.6000
12350TIP3    H258542   3.445   2.198  11.090 -0.2351  0.9959 -0.6261
12351TIP3   OH258543   1.236   3.025  10.977 -0.3577  0.5609 -0.2701
12351TIP3    H158544   1.290   3.061  10.907 -0.1532  0.3486 -0.2227
12351TIP3    H258545   1.202   2.943  10.941 -0.1070  0.3613 -0.0557
12352TIP3   OH258546   5.574   4.898  16.269 -0.6556 -0.1788 -0.5087
12352TIP3    H158547   5.599   4.805  16.267 -1.1006 -0.5638  3.2098
12352TIP3    H258548   5.524   4.911  16.189  2.8091 -1.9721 -3.2743
12353TIP3   OH258549   2.204   3.409   3.997  0.8129  0.0313 -0.0854
12353TIP3    H158550   2.185   3.372   3.910 -1.5576 -2.0682  1.2001
12353TIP3    H258551   2.148   3.486   4.002  1.0013  0.1951 -0.4444
12354TIP3   OH258552   3.241   2.640   5.595 -0.2420  0.1168 -0.3447
12354TIP3    H158553   3.257   2.568   5.657 -1.0871 -1.0028 -1.3911
12354TIP3    H258554   3.182   2.699   5.642 -2.2243 -1.5507 -0.6176
12355TIP3   OH258555   3.776   1.595   3.372 -0.4517  0.5960  0.5229
12355TIP3    H158556   3.819   1.528   3.424 -0.0099  0.1934 -0.3303
12355TIP3    H258557   3.792   1.569   3.281 -1.8577  0.8474  0.1731
12356TIP3   OH258558   0.190   0.781  10.967  0.3246 -0.2734  0.0260
12356TIP3    H158559   0.251   0.804  10.896 -0.8563 -0.6681 -1.1656
12356TIP3    H258560   0.246   0.772  11.044  1.5905  0.6971 -0.7302
12357TIP3   OH258561   5.022   3.024   4.118  0.5627  0.4076 -0.4975
12357TIP3    H158562   4.999   2.938   4.153  0.5885 -0.1377 -1.7721
12357TIP3    H258563   5.077   3.006   4.042  0.5716  1.5447 -0.7862
12358TIP3   OH258564   6.481   1.021  14.898 -0.1508 -0.2693  0.6025
12358TIP3    H158565   6.462   1.062  14.814  0.1977  0.5144  0.8916
12358TIP3    H258566   6.563   1.062  14.926  0.6265 -1.7042  0.5614
12359TIP3   OH258567   5.448   4.415  14.289 -0.7962  0.8503 -0.2458
12359TIP3    H158568   5.403   4.366  14.358  0.2391 -2.7347 -1.9174
12359TIP3    H258569   5.530   4.444  14.330 -0.7387 -0.1630  0.3797
12360TIP3   OH258570   0.023   2.894   2.389  0.0547  0.1317 -0.0668
12360TIP3    H158571   0.051   2.985   2.392  0.4735 -0.0089  1.7676
12360TIP3    H258572  -0.056   2.891   2.445  2.6895 -1.3528  4.0761
12361TIP3   OH258573   2.583   6.483  11.091 -0.1138 -0.4171 -0.1494
12361TIP3    H158574   2.565   6.440  11.008  2.0736 -2.1449  0.1736
12361TIP3    H258575   2.632   6.562  11.068 -0.6625 -0.1844 -0.5394
12362TIP3   OH258576   5.911   2.606   4.495 -0.2333 -0.2146  0.5317
12362TIP3    H158577   5.891   2.600   4.588 -1.3651  0.2651  0.3318
12362TIP3    H258578   5.832   2.641   4.455  0.5539  0.4630 -0.4954
12363TIP3   OH258579   2.186   5.114   2.376  0.4417 -0.1212 -0.4414
12363TIP3    H158580   2.236   5.076   2.448  1.3995  1.4631 -0.2297
12363TIP3    H258581   2.215   5.206   2.372  0.2392 -0.1013 -2.6938
12364TIP3   OH258582   0.126   5.033  13.204  0.4151  0.0191 -0.1358
12364TIP3    H158583   0.161   4.947  13.227 -0.1841 -0.4167 -0.8178
12364TIP3    H258584   0.036   5.032  13.237  0.9652  1.0920  1.5068
12365TIP3   OH258585   6.208   4.581   5.212  0.0595 -0.5914 -0.6824
12365TIP3    H158586   6.192   4.619   5.299  0.8457 -1.6117 -0.0622
12365TIP3    H258587   6.289   4.621   5.182 -0.0109 -0.5206 -0.7776
12366TIP3   OH258588   1.780   3.006  16.265  0.2827  0.0617 -0.0946
12366TIP3    H158589   1.783   2.988  16.171  1.6098 -1.6077  0.2130
12366TIP3    H258590   1.839   3.080  16.277 -1.6959  1.8537 -0.8183
12367TIP3   OH258591   5.759   4.079   1.390  0.4852 -0.2267  0.1400
12367TIP3    H158592   5.797   4.109   1.472  2.1045 -0.4379 -0.4817
12367TIP3    H258593   5.834   4.067   1.332 -0.2676 -3.0454 -0.4204
12368TIP3   OH258594   6.157   0.501   5.393  0.4063  0.6908 -0.0509
12368TIP3    H158595   6.103   0.574   5.363  1.5720  1.6650  0.1477
12368TIP3    H258596   6.240   0.512   5.347  0.8319 -0.1179  0.5042
12369TIP3   OH258597   1.819   4.086   3.986  0.4457  0.1769 -0.4498
12369TIP3    H158598   1.811   4.130   3.902  1.7292  0.9273 -0.2039
12369TIP3    H258599   1.913   4.080   4.001  0.2430 -0.2508  0.7755
12370TIP3   OH258600   2.175   5.955   1.599  0.0854  0.3538 -0.1554
12370TIP3    H158601   2.090   5.939   1.639  0.4295  1.1996  0.9905
12370TIP3    H258602   2.157   5.964   1.506 -1.3806  2.3248  0.2492
12371TIP3   OH258603   4.161   2.028  16.931 -0.4757  0.3411  0.0614
12371TIP3    H158604   4.188   2.109  16.974 -0.6702  0.7527 -0.5704
12371TIP3    H258605   4.227   2.015  16.863  0.7439 -1.1598  1.4693
12372TIP3   OH258606   2.305   3.164  14.311  0.0579 -0.3713 -0.6328
12372TIP3    H158607   2.266   3.245  14.345 -0.8492 -0.9477 -0.2680
12372TIP3    H258608   2.355   3.128  14.384  0.8987  0.1220 -0.9551
12373TIP3   OH258609   2.905   5.884  13.376  0.0517  0.1737  0.1702
12373TIP3    H158610   2.906   5.833  13.295  0.7551 -1.2930  1.0580
12373TIP3    H258611   2.984   5.937  13.373 -2.3427  4.1232 -2.4098
12374TIP3   OH258612   6.063   4.869  11.893  0.7495 -1.1209 -0.4744
12374TIP3    H158613   6.001   4.870  11.967  1.1258 -1.1562 -0.1547
12374TIP3    H258614   6.144   4.903  11.930  1.2999 -2.3146 -0.5514
12375TIP3   OH258615   6.827   5.632  13.449  0.2693 -0.1747 -0.1257
12375TIP3    H158616   6.822   5.662  13.539 -0.0015  0.0919 -0.2264
12375TIP3    H258617   6.739   5.597  13.431 -0.8667  2.9597 -1.3841
12376TIP3   OH258618   6.438   5.259   5.426 -0.3312  0.3505 -0.0087
12376TIP3    H158619   6.363   5.272   5.368  1.8416  1.6623 -2.8144
12376TIP3    H258620   6.406   5.201   5.495 -4.3285  2.2540 -0.0149
12377TIP3   OH258621   3.331   1.575  11.859 -0.1805  0.0689  0.5231
12377TIP3    H158622   3.358   1.660  11.824  0.5412 -0.6509 -0.7433
12377TIP3    H258623   3.397   1.514  11.827 -1.5270 -1.2290  0.1196
12378TIP3   OH258624   1.320   1.117  16.706  0.1361  0.1149  0.8369
12378TIP3    H158625   1.286   1.118  16.796 -0.9038 -0.2931  0.4586
12378TIP3    H258626   1.332   1.024  16.686  2.3438  0.2436  1.2474
12379TIP3   OH258627   0.354   0.872   0.112 -0.0305 -0.0832  0.6630
12379TIP3    H158628   0.343   0.934   0.040  1.7349 -1.7444 -1.1506
12379TIP3    H258629   0.274   0.882   0.164 -0.8859  1.9463 -0.8809
12380TIP3   OH258630   1.999   1.544   4.193 -0.3171 -0.1938 -0.2476
12380TIP3    H158631   2.082   1.502   4.169 -0.3921 -0.3555 -0.2205
12380TIP3    H258632   1.997   1.625   4.141  0.4579  0.4577  0.6899
12381TIP3   OH258633   1.104   0.613   3.189 -0.3673  0.0548 -0.1734
12381TIP3    H158634   1.185   0.643   3.146 -0.2994 -1.3025 -1.0692
12381TIP3    H258635   1.044   0.687   3.180  0.5375  0.8192 -0.1475
12382TIP3   OH258636   6.250   6.138   1.296  0.4606  0.9237  0.6520
12382TIP3    H158637   6.300   6.118   1.217 -0.5216 -0.0279  0.2396
12382TIP3    H258638   6.159   6.125   1.270  0.1023  0.9869  1.8361
12383TIP3   OH258639   0.232   5.300   2.430  0.0773  1.0417  0.4565
12383TIP3    H158640   0.265   5.388   2.451 -1.6512  1.9937 -0.5362
12383TIP3    H258641   0.291   5.268   2.363  0.1420  1.8897  0.0884
12384TIP3   OH258642   1.515   5.251   3.296  0.2335  0.5894  0.1583
12384TIP3    H158643   1.437   5.268   3.349  0.3698 -0.8475  0.8648
12384TIP3    H258644   1.544   5.164   3.323  2.1504  1.1225 -0.0203
12385TIP3   OH258645   6.161   4.211  10.700 -0.3104 -0.1031 -0.1009
12385TIP3    H158646   6.096   4.281  10.702  0.7223  0.9046 -0.8424
12385TIP3    H258647   6.109   4.131  10.710 -1.7394  0.6292 -1.2181
12386TIP3   OH258648   5.316   5.142   4.033  0.6700  0.5771 -0.1061
12386TIP3    H158649   5.363   5.144   3.949  0.3069 -3.2309 -0.6012
12386TIP3    H258650   5.241   5.085   4.017 -1.5290  2.6568  1.9522
12387TIP3   OH258651   3.420   3.297   5.026 -0.0131  0.2818 -0.0817
12387TIP3    H158652   3.395   3.342   5.107  1.2357 -1.0500  1.0929
12387TIP3    H258653   3.353   3.322   4.963 -0.9006  1.5290  1.2937
12388TIP3   OH258654   0.522   5.658  14.914 -0.4274  0.0127  0.2405
12388TIP3    H158655   0.437   5.639  14.875  0.4919 -1.0350 -1.3413
12388TIP3    H258656   0.554   5.734  14.866 -0.1503 -0.0279  0.3597
12389TIP3   OH258657   4.347   1.375   0.388  0.2941 -0.2896  0.2030
12389TIP3    H158658   4.406   1.415   0.451  1.8207 -2.3071  0.1411
12389TIP3    H258659   4.323   1.446   0.328  2.0538  0.7443  0.6721
12390TIP3   OH258660   0.573   1.963  14.288  0.3539 -0.1509  0.7043
12390TIP3    H158661   0.533   2.038  14.331 -0.9095 -1.2028  1.4598
12390TIP3    H258662   0.663   1.961  14.320  0.2774  0.7804  1.0038
12391TIP3   OH258663   2.668   0.241  12.725  0.4474 -0.4410 -0.1422
12391TIP3    H158664   2.747   0.268  12.771  0.7159  1.0270 -1.3922
12391TIP3    H258665   2.599   0.296  12.762  0.2364 -0.8732  0.1083
12392TIP3   OH258666   5.149   2.145  14.668 -0.3572  0.6953  0.5801
12392TIP3    H158667   5.060   2.180  14.672 -1.1044 -0.9729 -0.5929
12392TIP3    H258668   5.138   2.050  14.669  1.5299  0.4291  2.2311
12393TIP3   OH258669   5.580   1.067  14.134  0.4560 -0.4490 -0.7139
12393TIP3    H158670   5.602   0.991  14.188  1.0913  0.6112  0.5831
12393TIP3    H258671   5.502   1.040  14.085  0.1519 -1.6420  0.3671
12394TIP3   OH258672   0.097   1.440   2.880  0.0227  0.2192 -0.4587
12394TIP3    H158673   0.181   1.443   2.834 -0.5737 -1.5527 -1.7986
12394TIP3    H258674   0.101   1.511   2.944  2.3975  0.3769 -0.7161
12395TIP3   OH258675   2.209   5.112  10.410  0.1302 -0.4556  0.2033
12395TIP3    H158676   2.156   5.036  10.434 -0.4510 -0.1152 -0.0014
12395TIP3    H258677   2.282   5.110  10.472  1.5303 -2.6517 -1.3552
12396TIP3   OH258678   5.951   6.012   1.552  0.4609  0.1431  0.1538
12396TIP3    H158679   5.962   6.046   1.641 -0.2341 -0.3521  0.4346
12396TIP3    H258680   6.040   6.011   1.516  0.9489 -0.8918  1.3028
12397TIP3   OH258681   5.576   3.877  11.192 -0.0289  0.5566  0.1882
12397TIP3    H158682   5.666   3.848  11.207 -0.4328 -0.9421 -0.1086
12397TIP3    H258683   5.559   3.855  11.100 -1.0102 -0.1376  0.5144
12398TIP3   OH258684   0.598   4.033  17.003 -0.1301  0.3753 -0.0947
12398TIP3    H158685   0.516   4.064  16.966 -0.1847  1.1220  0.6285
12398TIP3    H258686   0.579   4.019  17.095  0.4912  0.2990  0.0269
12399TIP3   OH258687   2.933   1.669  17.070  0.5073  0.3613 -0.1708
12399TIP3    H158688   2.846   1.693  17.102  0.3764  0.1849 -0.3948
12399TIP3    H258689   2.936   1.573  17.078  0.6531  0.3600 -0.2363
12400TIP3   OH258690   5.914   4.613  13.406 -0.4643 -0.2936 -0.3359
12400TIP3    H158691   5.916   4.676  13.334  0.6352  0.5609  0.4014
12400TIP3    H258692   5.829   4.628  13.448  0.2308  1.6013  0.5444
12401TIP3   OH258693   5.361   1.128  16.353 -0.4442 -0.3367 -0.0002
12401TIP3    H158694   5.381   1.035  16.362 -2.8271 -0.9446 -0.2969
12401TIP3    H258695   5.308   1.149  16.429  0.1074  0.8223  0.0907
12402TIP3   OH258696   5.564   4.601  11.743 -0.5761  0.1672 -0.3215
12402TIP3    H158697   5.551   4.692  11.719 -0.0438  0.5518  0.8040
12402TIP3    H258698   5.593   4.603  11.834 -0.2847 -1.1064 -0.3578
12403TIP3   OH258699   1.141   6.143   4.215  0.0588 -0.2567 -0.2864
12403TIP3    H158700   1.230   6.175   4.202 -1.1323  2.5259 -2.7619
12403TIP3    H258701   1.126   6.081   4.143 -0.4938  0.6043 -0.9383
12404TIP3   OH258702   2.202   2.987  16.150 -0.1788  0.2902 -0.0077
12404TIP3    H158703   2.180   2.897  16.174 -0.9527  0.8798  1.6672
12404TIP3    H258704   2.213   2.984  16.055 -2.5721 -1.1023 -0.3388
12405TIP3   OH258705   6.833   5.421   1.705 -0.4268  0.4334 -0.2418
12405TIP3    H158706   6.741   5.398   1.711 -0.2377 -0.1666  0.4500
12405TIP3    H258707   6.872   5.389   1.786  0.6048 -0.3434 -1.0065
12406TIP3   OH258708   4.376   0.759  13.687  0.0859 -0.1521 -0.4394
12406TIP3    H158709   4.312   0.707  13.638  1.0546 -0.6563 -1.2160
12406TIP3    H258710   4.453   0.762  13.630  0.1737  1.8940 -0.2947
12407TIP3   OH258711   5.185   0.872   2.078  0.0548  0.2103 -0.8131
12407TIP3    H158712   5.239   0.944   2.110 -0.3500  0.4720 -0.7223
12407TIP3    H258713   5.107   0.914   2.043 -0.8750 -0.2852  0.6088
12408TIP3   OH258714   0.944   2.168  14.331  0.3595  0.4331 -0.3992
12408TIP3    H158715   0.899   2.246  14.362  0.6692  0.1736  0.7192
12408TIP3    H258716   1.037   2.185  14.346  0.4280 -0.1575 -0.1151
12409TIP3   OH258717   6.420   2.433   4.250  0.0763  0.2135  0.4896
12409TIP3    H158718   6.328   2.460   4.250  0.2156  0.8283 -1.3944
12409TIP3    H258719   6.469   2.515   4.257  0.4880  0.0034  0.1022
12410TIP3   OH258720   2.710   4.574  10.470  0.4780 -0.0023 -0.0749
12410TIP3    H158721   2.631   4.624  10.490  0.6204  0.7385 -1.2885
12410TIP3    H258722   2.715   4.509  10.540 -0.7405  0.4759  0.4878
12411TIP3   OH258723   5.964   0.705   6.128 -0.2619 -0.3231  0.1844
12411TIP3    H158724   5.994   0.655   6.204  1.8152  0.5899  0.0311
12411TIP3    H258725   5.996   0.655   6.053  0.0386  0.1566 -0.0101
12412TIP3   OH258726   2.326   6.466  13.734  0.4481 -0.1082 -0.2482
12412TIP3    H158727   2.253   6.413  13.703 -0.2413 -1.0930  2.7192
12412TIP3    H258728   2.298   6.556  13.717 -1.0647 -0.5082 -0.0504
12413TIP3   OH258729   2.630   3.267  13.699  0.7327 -0.8120  0.3681
12413TIP3    H158730   2.677   3.341  13.737 -0.2848 -0.1092  0.2910
12413TIP3    H258731   2.538   3.295  13.697  0.4239 -1.8152 -0.2808
12414TIP3   OH258732   4.285   0.255  13.453  0.1906 -0.2991  0.5173
12414TIP3    H158733   4.295   0.165  13.422 -1.6501 -1.0945  2.0454
12414TIP3    H258734   4.207   0.253  13.509 -1.3984  2.7491 -1.3130
12415TIP3   OH258735   4.315   1.332   1.625 -0.0111 -0.7663 -0.4707
12415TIP3    H158736   4.315   1.397   1.555 -0.4311  0.8308  0.9314
12415TIP3    H258737   4.230   1.290   1.618  0.1763 -1.0204 -1.2660
12416TIP3   OH258738   2.639   1.696   0.854 -0.1721 -0.1613 -0.7853
12416TIP3    H158739   2.649   1.604   0.879 -1.2087 -0.0196  0.2313
12416TIP3    H258740   2.624   1.693   0.759 -1.8939 -1.1956 -0.5173
12417TIP3   OH258741   0.879   2.635  13.531 -0.1896 -0.3787  0.2095
12417TIP3    H158742   0.907   2.668  13.446 -1.2205 -0.5512 -0.2087
12417TIP3    H258743   0.903   2.543  13.530 -2.5076 -1.0259 -0.9565
12418TIP3   OH258744   0.911   5.862  12.413  0.4238 -0.1098 -0.3450
12418TIP3    H158745   0.972   5.918  12.366  0.5516  0.1247  0.0986
12418TIP3    H258746   0.966   5.812  12.474  0.3144 -0.7250 -0.7431
12419TIP3   OH258747   4.817   2.051  14.110 -0.0538 -0.5390  0.1281
12419TIP3    H158748   4.839   1.971  14.063 -1.7282 -1.2367  0.4872
12419TIP3    H258749   4.788   2.112  14.042 -2.6156 -1.5945  0.1819
12420TIP3   OH258750   6.643   1.441   1.667 -0.2070 -0.3718 -0.4415
12420TIP3    H158751   6.552   1.443   1.699  0.4613 -0.7816  1.6298
12420TIP3    H258752   6.635   1.421   1.573 -2.2983  0.9825 -0.6230
12421TIP3   OH258753   1.502   0.755   1.594  0.7437 -0.7962 -0.1811
12421TIP3    H158754   1.534   0.689   1.533  0.1507 -0.8179 -0.4837
12421TIP3    H258755   1.522   0.838   1.551 -1.6331 -0.8059 -1.5280
12422TIP3   OH258756   6.187   4.138  14.904  0.1976  0.3545  0.1141
12422TIP3    H158757   6.245   4.160  14.977  0.6673  0.9281 -0.4135
12422TIP3    H258758   6.211   4.049  14.880 -1.2550 -0.5454  1.8450
12423TIP3   OH258759   5.319   1.235  14.765  0.0522  0.2972 -0.2059
12423TIP3    H158760   5.376   1.293  14.816 -1.8693  1.1010  1.1803
12423TIP3    H258761   5.341   1.254  14.674  0.4385  2.2690  0.2372
12424TIP3   OH258762   4.479   2.737   1.178 -0.4123 -0.4404  0.5815
12424TIP3    H158763   4.427   2.720   1.100  0.3082  0.0373 -0.0148
12424TIP3    H258764   4.447   2.675   1.243  0.1342 -2.0139 -0.6056
12425TIP3   OH258765   4.912   4.008   4.482 -0.6730 -0.0695 -0.1077
12425TIP3    H158766   4.864   3.931   4.514 -1.4169  0.3204 -0.2721
12425TIP3    H258767   4.998   4.001   4.524 -1.2111 -0.2261  1.0152
12426TIP3   OH258768   4.010   4.709   5.760 -0.9082  0.0403  0.1751
12426TIP3    H158769   3.984   4.624   5.724 -0.2303  0.1610 -0.6116
12426TIP3    H258770   4.000   4.698   5.855 -0.9049 -0.8892  0.0757
12427TIP3   OH258771   1.371   5.171  10.916 -0.6285  0.5669  0.2765
12427TIP3    H158772   1.381   5.076  10.905 -1.1843  0.4264  0.9150
12427TIP3    H258773   1.406   5.188  11.003  3.5062  1.6157 -1.3492
12428TIP3   OH258774   5.019   0.418   1.493 -0.2425  0.7004 -0.4261
12428TIP3    H158775   5.060   0.365   1.425 -0.8498  0.5694 -0.7031
12428TIP3    H258776   4.933   0.377   1.506  0.6776 -0.6109  1.9824
12429TIP3   OH258777   0.034   2.892   5.142  0.5510 -0.3454  0.2262
12429TIP3    H158778   0.067   2.953   5.206 -1.1349 -0.5220  1.3256
12429TIP3    H258779  -0.041   2.849   5.185 -0.7038 -0.4010 -1.8554
12430TIP3   OH258780   5.701   4.734   4.368 -0.0400  0.1453 -0.2199
12430TIP3    H158781   5.791   4.759   4.389  0.5316 -2.2213  0.5267
12430TIP3    H258782   5.648   4.810   4.393  1.4121  0.3478  2.6836
12431TIP3   OH258783   4.013   6.223   3.690  0.2291  0.0760 -0.5208
12431TIP3    H158784   4.009   6.207   3.596  3.1442  1.7971 -1.0364
12431TIP3    H258785   4.064   6.150   3.725 -1.0977 -0.7213 -0.1489
12432TIP3   OH258786   3.506   2.840  15.811 -0.3329  0.1021 -0.2625
12432TIP3    H158787   3.586   2.789  15.822 -0.4130  0.0280 -0.0206
12432TIP3    H258788   3.537   2.928  15.790 -0.2003 -0.2259 -1.5353
12433TIP3   OH258789   5.900   4.477   4.260  0.3161 -0.2669  0.4682
12433TIP3    H158790   5.936   4.563   4.283 -1.9462  0.5598  1.1859
12433TIP3    H258791   5.866   4.489   4.171 -1.7736  0.2636  1.2729
12434TIP3   OH258792   5.019   6.600   2.453 -0.3303 -0.4828 -0.2750
12434TIP3    H158793   4.993   6.687   2.485  2.2056  0.5734 -0.8427
12434TIP3    H258794   5.108   6.588   2.486  0.6650 -1.3739 -3.0241
12435TIP3   OH258795   3.866   5.776  13.221 -0.5020 -0.2522  0.2429
12435TIP3    H158796   3.795   5.744  13.277 -1.3104 -0.5829 -0.9239
12435TIP3    H258797   3.856   5.871  13.222 -2.2898 -0.3501 -1.4911
12436TIP3   OH258798   5.893   4.796  12.103 -0.6246 -0.3237  0.0730
12436TIP3    H158799   5.928   4.707  12.105 -0.6826 -0.3523 -0.1297
12436TIP3    H258800   5.879   4.818  12.195 -0.4613 -0.4649  0.1340
12437TIP3   OH258801   6.057   4.735  14.922  0.2723  0.1364 -0.2750
12437TIP3    H158802   5.963   4.721  14.938  0.4985 -0.8841  0.3008
12437TIP3    H258803   6.087   4.783  15.000  0.1892  0.6804 -0.5731
12438TIP3   OH258804   4.926   6.430  15.036  0.1574 -0.0488 -0.4815
12438TIP3    H158805   4.950   6.520  15.057 -0.8958  0.4997 -1.5531
12438TIP3    H258806   4.831   6.430  15.035  0.1184 -1.3949  0.3345
12439TIP3   OH258807   2.300   1.503   1.353 -0.4000 -1.1677 -0.3684
12439TIP3    H158808   2.302   1.543   1.440  0.5478 -2.6321  0.3239
12439TIP3    H258809   2.388   1.519   1.317 -1.1077  0.3768 -1.5548
12440TIP3   OH258810   0.989   4.531  14.990  0.2566 -0.1471 -0.2676
12440TIP3    H158811   0.932   4.598  15.027 -0.8597 -0.6707 -0.9828
12440TIP3    H258812   1.078   4.560  15.012 -0.2946 -0.6490  3.1955
12441TIP3   OH258813   0.080   0.835   5.481  0.4741 -0.0540  0.3321
12441TIP3    H158814   0.074   0.814   5.574  0.9152  1.3206  0.6894
12441TIP3    H258815   0.174   0.849   5.466  0.4121 -0.2997 -0.3403
12442TIP3   OH258816   2.465   5.527  11.836 -0.0033  0.4365 -0.4195
12442TIP3    H158817   2.411   5.506  11.912 -0.6891 -0.0337 -1.0225
12442TIP3    H258818   2.459   5.449  11.780  2.5065 -0.2532  0.1509
12443TIP3   OH258819   6.352   5.088   0.805 -0.0283 -0.4034  0.4328
12443TIP3    H158820   6.290   5.096   0.733  0.8602 -2.0466 -0.5609
12443TIP3    H258821   6.303   5.044   0.874  0.1110 -2.1687 -0.5356
12444TIP3   OH258822   5.679   2.687  12.494 -0.0986 -0.1131  0.0611
12444TIP3    H158823   5.723   2.617  12.445 -1.7443 -1.3005  0.1692
12444TIP3    H258824   5.619   2.726  12.431 -1.1380 -0.6364  0.7027
12445TIP3   OH258825   4.453   6.241   5.562  0.4501  0.2221  0.1633
12445TIP3    H158826   4.510   6.306   5.521 -0.2172  0.3797 -0.5523
12445TIP3    H258827   4.405   6.291   5.628 -0.0961  0.4937 -0.4169
12446TIP3   OH258828   1.705   5.167   5.384  0.3355  0.0181  0.1932
12446TIP3    H158829   1.650   5.220   5.441  1.0871  0.0602  0.9000
12446TIP3    H258830   1.697   5.078   5.419  1.0935  0.1046  0.6204
12447TIP3   OH258831   4.726   4.609  13.966 -0.0056 -0.2627 -0.4123
12447TIP3    H158832   4.816   4.632  13.989 -0.7904  0.8023  1.9062
12447TIP3    H258833   4.711   4.651  13.881  1.5605 -0.1811 -0.6760
12448TIP3   OH258834   2.124   6.832   0.445  0.0809 -0.0272 -0.4557
12448TIP3    H158835   2.150   6.741   0.454  0.1221  0.0154 -0.1474
12448TIP3    H258836   2.029   6.831   0.459  0.1654  0.0590  0.1348
12449TIP3   OH258837   6.691   0.065   1.593 -0.2807 -0.4775 -0.2646
12449TIP3    H158838   6.640   0.004   1.541 -0.2933  0.1314 -0.9723
12449TIP3    H258839   6.782   0.044   1.572 -0.3000  0.3719 -1.2472
12450TIP3   OH258840   0.713   3.952   3.302 -0.2174  0.6454  0.6004
12450TIP3    H158841   0.807   3.969   3.304 -0.1273  0.2759 -0.3640
12450TIP3    H258842   0.699   3.884   3.368  0.3230  0.1053  0.1693
12451TIP3   OH258843   6.018   5.133   0.163 -0.2153 -0.8486 -0.3457
12451TIP3    H158844   6.040   5.041   0.179  0.7117 -0.7118 -0.7668
12451TIP3    H258845   5.965   5.132   0.083  1.4563 -0.8572 -1.4948
12452TIP3   OH258846   4.514   5.125   3.220  0.1154 -0.0361  0.4645
12452TIP3    H158847   4.590   5.183   3.218 -0.4645  0.8501  2.2105
12452TIP3    H258848   4.442   5.179   3.187  0.1636 -0.8230 -1.0290
12453TIP3   OH258849   6.753   6.042   3.795 -0.0888 -0.0628 -0.1206
12453TIP3    H158850   6.722   6.055   3.885  0.5954 -0.6629  0.2061
12453TIP3    H258851   6.765   6.131   3.761 -0.4069  0.1678  0.3595
12454TIP3   OH258852   2.897   4.954   5.554  0.8218  0.1651 -0.0403
12454TIP3    H158853   2.955   4.991   5.620  0.4058  0.1840  0.3234
12454TIP3    H258854   2.810   4.960   5.593  0.8890 -2.7729  0.8045
12455TIP3   OH258855   0.612   0.519  14.977 -0.6111  0.4781  0.5413
12455TIP3    H158856   0.522   0.494  14.998 -0.1899 -2.0353 -0.2398
12455TIP3    H258857   0.643   0.565  15.055 -2.4264  1.0260  0.9813
12456TIP3   OH258858   1.490   3.659   0.245 -0.0674 -0.5092 -0.2621
12456TIP3    H158859   1.398   3.649   0.267 -0.5557  1.2375 -1.3191
12456TIP3    H258860   1.511   3.749   0.268  1.3492 -0.8387 -0.1600
12457TIP3   OH258861   0.347   1.760   3.668  0.0344  0.2653 -0.4902
12457TIP3    H158862   0.346   1.667   3.645  0.2626  0.4333 -1.2136
12457TIP3    H258863   0.311   1.804   3.591 -0.2003  0.7655 -0.0987
12458TIP3   OH258864   4.560   3.672  17.124 -0.3263 -0.3710 -0.4669
12458TIP3    H158865   4.515   3.596  17.159  0.2017 -0.4931 -0.0339
12458TIP3    H258866   4.615   3.637  17.054 -0.2660 -0.3503 -0.4299
12459TIP3   OH258867   4.914   5.640  11.419  0.3211 -0.1579 -0.0236
12459TIP3    H158868   4.876   5.700  11.482  0.2684  0.6686 -0.8256
12459TIP3    H258869   4.981   5.691  11.374  1.1003 -1.0483  0.0906
12460TIP3   OH258870   2.551   5.754  12.957  0.0133  0.1416  0.5744
12460TIP3    H158871   2.598   5.797  12.886 -0.6655 -1.6573 -1.0582
12460TIP3    H258872   2.474   5.809  12.972 -0.7906 -0.3679 -1.3963
12461TIP3   OH258873   6.217   3.544  14.388  0.1888 -0.5256  0.5375
12461TIP3    H158874   6.270   3.620  14.365  0.6760 -0.1518  2.6408
12461TIP3    H258875   6.130   3.563  14.353  0.8012  0.0500 -0.7014
12462TIP3   OH258876   1.365   5.482  16.221  0.1734  0.5499 -0.0363
12462TIP3    H158877   1.457   5.484  16.196 -0.2139  1.5127 -1.5321
12462TIP3    H258878   1.318   5.502  16.140 -1.3838 -0.4033  0.5842
12463TIP3   OH258879   1.544   3.356  12.962  0.2858 -0.2763  0.2609
12463TIP3    H158880   1.637   3.365  12.984  0.1923 -1.9473  1.5510
12463TIP3    H258881   1.501   3.424  13.013  0.9671  2.1787 -2.2397
12464TIP3   OH258882   6.064   3.596   5.698 -0.6002 -0.4138  0.5814
12464TIP3    H158883   6.113   3.672   5.667 -0.2942 -0.4711  0.9123
12464TIP3    H258884   6.128   3.545   5.747 -0.8418 -0.8079  0.4919
12465TIP3   OH258885   0.078   2.252  12.628 -0.2432  0.0371  0.5427
12465TIP3    H158886  -0.009   2.271  12.593  0.0982  0.4714 -0.0843
12465TIP3    H258887   0.133   2.238  12.551 -0.0319 -1.5866  0.9409
12466TIP3   OH258888   2.063   2.107   1.849  0.0631 -0.1570 -0.0913
12466TIP3    H158889   2.012   2.035   1.888 -0.3016  1.2301  2.1796
12466TIP3    H258890   2.149   2.100   1.891  1.9018 -2.3604 -3.7432
12467TIP3   OH258891   3.656   3.042   0.306  0.6602  0.6855  0.3016
12467TIP3    H158892   3.746   3.074   0.306  0.5996  0.8649  0.9510
12467TIP3    H258893   3.650   2.987   0.228  1.2788  0.8154  0.1596
12468TIP3   OH258894   5.407   6.293   4.542 -0.9792  0.4681  0.7057
12468TIP3    H158895   5.446   6.359   4.485 -0.6451  0.7623  1.2559
12468TIP3    H258896   5.326   6.333   4.573 -0.1239  1.2094  2.1055
12469TIP3   OH258897   4.656   1.726  10.732 -0.3113  0.1447 -0.6467
12469TIP3    H158898   4.631   1.637  10.709 -0.3686 -0.6100  2.0186
12469TIP3    H258899   4.620   1.780  10.662  0.3369 -1.9574 -2.7116
12470TIP3   OH258900   0.477   5.207   6.120  0.2711 -0.0987 -0.0885
12470TIP3    H158901   0.483   5.268   6.194  0.1484  0.1042 -0.2454
12470TIP3    H258902   0.396   5.158   6.136  0.0287  0.2278 -0.3011
12471TIP3   OH258903   3.767   6.108  16.692 -0.2489 -0.4509 -0.0649
12471TIP3    H158904   3.841   6.126  16.750 -1.7314  1.0299  1.4992
12471TIP3    H258905   3.806   6.071  16.612  2.0689 -0.3294  0.9540
12472TIP3   OH258906   5.316   1.631  14.009 -0.1861 -0.4840  0.6709
12472TIP3    H158907   5.253   1.561  14.025  1.9670 -2.6450  0.2389
12472TIP3    H258908   5.307   1.652  13.916  0.1957 -1.3038  0.4411
12473TIP3   OH258909   1.894   0.883  11.196  0.6872  0.5412  0.1031
12473TIP3    H158910   1.890   0.907  11.103  0.9628 -1.6659 -0.5211
12473TIP3    H258911   1.828   0.815  11.207  1.7153 -0.3194  1.1634
12474TIP3   OH258912   3.162   2.104  16.398 -0.0789  0.2033  0.1919
12474TIP3    H158913   3.254   2.077  16.394 -0.6534 -1.7559 -1.5088
12474TIP3    H258914   3.150   2.161  16.322  0.1256  2.0366  1.4696
12475TIP3   OH258915   4.772   6.581   3.848  0.5754 -0.1163 -0.1156
12475TIP3    H158916   4.719   6.502   3.860  0.8503 -0.0724  1.6859
12475TIP3    H258917   4.819   6.566   3.766  0.9052 -2.0095  0.3717
12476TIP3   OH258918   1.578   2.396   1.814 -0.1326 -0.2746 -0.0163
12476TIP3    H158919   1.500   2.347   1.843 -0.4065  0.2839  0.2051
12476TIP3    H258920   1.646   2.329   1.806 -0.6185 -0.7659 -0.1622
12477TIP3   OH258921   6.343   5.406  11.506  0.2891  0.5538  0.1201
12477TIP3    H158922   6.256   5.385  11.541  0.5191  0.3069  0.5497
12477TIP3    H258923   6.325   5.444  11.420 -0.3334  1.8668  0.8024
12478TIP3   OH258924   5.058   3.588  13.132  0.0634  0.7367  0.5832
12478TIP3    H158925   5.044   3.493  13.126  0.7618  0.6180  0.7327
12478TIP3    H258926   5.026   3.622  13.049 -1.6779  0.5708  1.1491
12479TIP3   OH258927   3.418   4.794  14.425  0.0998  0.0181 -0.0535
12479TIP3    H158928   3.464   4.711  14.439 -0.4140 -0.1796  0.5594
12479TIP3    H258929   3.326   4.773  14.444 -0.0017  0.7752  0.3405
12480TIP3   OH258930   2.624   1.343  14.695 -0.4368 -0.7778  0.1785
12480TIP3    H158931   2.587   1.423  14.658  2.5283  0.0300 -1.3779
12480TIP3    H258932   2.633   1.362  14.788  1.1491  1.2213 -0.2940
12481TIP3   OH258933   5.509   4.954  13.209 -0.3570  0.1701  0.2279
12481TIP3    H158934   5.442   4.896  13.245 -0.3525 -0.2354 -0.3948
12481TIP3    H258935   5.461   5.034  13.185 -0.5685 -0.0084  0.0548
12482TIP3   OH258936   3.533   4.601  15.548 -0.7309 -0.1717  0.4364
12482TIP3    H158937   3.497   4.528  15.598  2.0758 -1.4043  0.8399
12482TIP3    H258938   3.544   4.567  15.459  0.6033 -0.2914  0.6280
12483TIP3   OH258939   3.062   3.589   5.522 -0.0489 -0.1590  0.1277
12483TIP3    H158940   3.020   3.504   5.532 -1.2348  0.5870  2.1202
12483TIP3    H258941   3.136   3.586   5.582 -2.1830  1.3525  3.1133
12484TIP3   OH258942   0.240   5.054   2.933 -0.1570 -0.7785 -0.1618
12484TIP3    H158943   0.288   5.052   2.849  0.3902 -1.1568  0.1524
12484TIP3    H258944   0.158   5.008   2.915 -0.5216  0.0860 -0.7744
12485TIP3   OH258945   3.966   2.944   1.993 -0.2176  0.0251 -0.2443
12485TIP3    H158946   3.935   2.963   2.082  1.1865 -1.2440  0.5748
12485TIP3    H258947   3.987   2.851   1.995  3.1173  0.6392 -0.7976
12486TIP3   OH258948   0.450   4.632   1.533  0.4262 -0.4306  0.1069
12486TIP3    H158949   0.370   4.660   1.577 -0.5206 -0.4540 -1.5008
12486TIP3    H258950   0.453   4.537   1.546 -0.9872 -0.7571 -1.5608
12487TIP3   OH258951   2.013   2.831   3.503 -0.0812  0.3190 -0.2045
12487TIP3    H158952   1.959   2.755   3.526 -1.0137  1.2058  0.6044
12487TIP3    H258953   2.071   2.842   3.578  0.9512 -0.3540 -0.8783
12488TIP3   OH258954   4.047   0.274  16.029 -0.2877 -0.0998  0.0089
12488TIP3    H158955   4.138   0.303  16.034  0.2023 -1.6444  0.6590
12488TIP3    H258956   4.052   0.187  15.989 -1.2692 -1.0448  1.8469
12489TIP3   OH258957   5.631   0.095   3.283  0.3334 -0.5293 -0.5213
12489TIP3    H158958   5.629   0.018   3.226  3.4645 -0.8619 -0.3366
12489TIP3    H258959   5.635   0.170   3.224  1.1119 -0.7394 -0.7410
12490TIP3   OH258960   2.257   5.641  12.812  0.3686  0.3069  0.1907
12490TIP3    H158961   2.266   5.724  12.859 -0.0025  0.8590 -0.6801
12490TIP3    H258962   2.225   5.579  12.877 -1.8335  1.4784  0.2927
12491TIP3   OH258963   1.109   2.459  11.191  0.4198 -0.0603  0.0570
12491TIP3    H158964   1.016   2.445  11.204  0.8516 -2.0834  1.6386
12491TIP3    H258965   1.121   2.554  11.199 -1.6021  0.3639 -1.3284
12492TIP3   OH258966   6.374   3.241  13.236 -0.0114 -0.4334 -0.3777
12492TIP3    H158967   6.279   3.234  13.251 -0.2340 -0.8572 -1.7629
12492TIP3    H258968   6.383   3.316  13.177  0.4507 -0.7545 -0.7208
12493TIP3   OH258969   5.641   1.122   4.220  0.0451 -0.5557 -0.2403
12493TIP3    H158970   5.600   1.196   4.265 -1.2340 -1.6322  0.4363
12493TIP3    H258971   5.709   1.092   4.280  1.6774  1.0259 -1.2184
12494TIP3   OH258972   0.883   6.586  17.017 -0.1424  0.2708  0.0482
12494TIP3    H158973   0.802   6.590  17.067 -0.5544 -1.0080 -0.4647
12494TIP3    H258974   0.855   6.583  16.925  0.3723 -1.6663 -0.0883
12495TIP3   OH258975   0.797   0.539   1.798  0.0449  0.3100 -0.3293
12495TIP3    H158976   0.782   0.598   1.724 -0.8247  0.1701 -0.2686
12495TIP3    H258977   0.886   0.560   1.827  0.1543  0.8174 -1.0043
12496TIP3   OH258978   2.786   2.171   1.528 -0.0584 -0.3020 -0.3614
12496TIP3    H158979   2.722   2.239   1.550 -1.1741 -1.7042  0.9965
12496TIP3    H258980   2.766   2.147   1.437 -0.8414 -0.0427 -0.2680
12497TIP3   OH258981   4.368   0.657  14.562 -0.7412 -0.6738  0.8311
12497TIP3    H158982   4.275   0.676  14.548 -0.3901  1.5060  1.1065
12497TIP3    H258983   4.387   0.585  14.502 -2.4103 -0.5864  0.1399
12498TIP3   OH258984   0.416   2.940   1.948 -0.6294 -0.0119 -0.1266
12498TIP3    H158985   0.409   2.862   2.002 -2.3576 -0.3859 -0.8266
12498TIP3    H258986   0.508   2.967   1.957  0.3702 -2.8177 -0.8116
12499TIP3   OH258987   1.500   0.658  14.806 -0.0758  0.1896  0.0965
12499TIP3    H158988   1.495   0.657  14.710 -1.0753 -2.0666  0.1173
12499TIP3    H258989   1.584   0.700  14.825  0.0311  0.8954 -1.7485
12500TIP3   OH258990   4.680   3.456   0.790 -0.8134 -0.0754 -0.5108
12500TIP3    H158991   4.769   3.451   0.826 -0.2226 -1.7972 -2.0225
12500TIP3    H258992   4.635   3.520   0.845  1.3248  0.7692  0.3724
12501TIP3   OH258993   6.603   2.982   2.067  0.3842  0.1825 -0.7627
12501TIP3    H158994   6.633   2.964   1.978 -0.5274  0.8152 -1.2173
12501TIP3    H258995   6.667   3.045   2.101 -0.6105  1.8826 -1.8909
12502TIP3   OH258996   2.002   6.231   0.052 -0.8638  0.0618  0.0323
12502TIP3    H158997   1.971   6.258   0.139 -0.8577 -0.0642  0.0737
12502TIP3    H258998   2.062   6.301   0.026 -1.2791  0.3745 -0.1024
12503TIP3   OH258999   2.357   4.359  14.437 -0.5274  0.2442  0.2034
12503TIP3    H159000   2.395   4.396  14.357 -0.8246 -0.0722 -0.0897
12503TIP3    H259001   2.280   4.311  14.406 -0.9965  0.6377  0.7602
12504TIP3   OH259002   2.981   0.892  13.392  0.4679 -0.2642  0.3073
12504TIP3    H159003   2.917   0.950  13.350  0.0778 -1.5366 -0.9350
12504TIP3    H259004   2.969   0.808  13.348  2.5332 -0.7168  0.5252
12505TIP3   OH259005   3.998   3.682   2.934 -0.3558 -0.5230 -0.1124
12505TIP3    H159006   4.028   3.728   2.855 -1.8285 -1.2434 -1.1381
12505TIP3    H259007   3.984   3.592   2.905  0.4943 -1.1553  1.3609
12506TIP3   OH259008   6.589   5.467  10.956 -0.1773  0.1292  0.1481
12506TIP3    H159009   6.640   5.419  11.022 -1.1628  0.0616  0.8906
12506TIP3    H259010   6.608   5.422  10.874  0.8243  0.0158  0.4200
12507TIP3   OH259011   2.949   1.896   4.749  0.4529  0.4522 -0.0573
12507TIP3    H159012   2.931   1.965   4.685  3.2146  1.6007  0.2461
12507TIP3    H259013   2.921   1.933   4.833 -1.4014 -0.3004 -0.2989
12508TIP3   OH259014   6.478   0.778   1.497 -0.3652 -0.5171  0.7309
12508TIP3    H159015   6.410   0.815   1.553  0.7248  1.6142  0.7562
12508TIP3    H259016   6.548   0.754   1.558  0.4853  1.0372  0.4300
12509TIP3   OH259017   5.116   6.796   3.482  0.3666  0.2231 -0.4880
12509TIP3    H159018   5.184   6.857   3.453 -1.4956  1.4722 -2.4750
12509TIP3    H259019   5.039   6.850   3.495 -0.9888 -1.4994 -1.0176
12510TIP3   OH259020   4.066   6.691   3.101 -0.2734 -0.4528 -0.6515
12510TIP3    H159021   4.126   6.697   3.027  1.1505 -0.2370  0.4659
12510TIP3    H259022   4.106   6.626   3.159 -1.2180 -0.4273  0.0614
12511TIP3   OH259023   3.240   5.803   0.409 -0.2681 -0.0545  0.1150
12511TIP3    H159024   3.206   5.770   0.491  1.1439 -2.9529 -0.3531
12511TIP3    H259025   3.335   5.793   0.415 -0.1105 -0.2132 -1.7950
12512TIP3   OH259026   6.339   6.451  14.469 -0.2161 -0.2809  0.0954
12512TIP3    H159027   6.292   6.417  14.393 -1.4627 -1.5018  1.3332
12512TIP3    H259028   6.423   6.404  14.468 -0.4522 -0.7033 -0.2219
12513TIP3   OH259029   3.690   2.477  16.310  0.2249  0.4019 -0.0442
12513TIP3    H159030   3.754   2.447  16.375 -0.0098  0.3495  0.1645
12513TIP3    H259031   3.743   2.501  16.234  0.3205 -2.7298 -1.0977
12514TIP3   OH259032   1.153   6.448  12.122 -0.0745  0.3697  0.2850
12514TIP3    H159033   1.091   6.381  12.152  1.4185 -0.5250  1.5204
12514TIP3    H259034   1.206   6.468  12.199  0.9858  1.3214 -0.6580
12515TIP3   OH259035   4.685   4.067  15.950 -0.3199  0.0620  0.0662
12515TIP3    H159036   4.777   4.082  15.972 -0.3262 -2.6993  2.5726
12515TIP3    H259037   4.684   3.984  15.902 -1.5879 -0.8542  1.5723
12516TIP3   OH259038   1.395   4.683  16.743  0.4697 -0.0496  0.4290
12516TIP3    H159039   1.309   4.712  16.711  0.2024 -1.2593  0.0050
12516TIP3    H259040   1.434   4.637  16.669  0.6059 -1.2935  1.2439
12517TIP3   OH259041   0.512   6.678   4.202  0.5853 -0.5645 -0.2040
12517TIP3    H159042   0.504   6.584   4.187  1.5341 -0.3482 -2.5610
12517TIP3    H259043   0.578   6.706   4.137  2.0476  1.3559  1.9733
12518TIP3   OH259044   4.917   2.846  16.094 -0.5950  0.2055  0.1114
12518TIP3    H159045   4.846   2.909  16.107 -1.3771 -0.4967 -0.6018
12518TIP3    H259046   4.952   2.830  16.181 -1.0294  0.9030  0.4179
12519TIP3   OH259047   3.700   5.598   5.079 -0.0654  0.0211 -0.3330
12519TIP3    H159048   3.658   5.671   5.125 -0.6303 -0.7793  0.4728
12519TIP3    H259049   3.754   5.639   5.011 -0.5067  1.1682 -0.0094
12520TIP3   OH259050   5.019   4.457  15.308  0.5110 -0.0272  0.4153
12520TIP3    H159051   5.043   4.443  15.399  0.3756  0.2886  0.5024
12520TIP3    H259052   5.007   4.369  15.272 -1.9083 -0.1805  1.3812
12521TIP3   OH259053   4.379   2.461   1.863 -0.3103 -0.6775 -0.2115
12521TIP3    H159054   4.392   2.496   1.951  0.5120 -0.4735 -0.4079
12521TIP3    H259055   4.381   2.538   1.806 -0.0373 -0.8883 -0.4899
12522TIP3   OH259056   5.614   1.186  14.418 -0.5826  0.3123 -0.1999
12522TIP3    H159057   5.638   1.104  14.461  2.4839  0.4906 -1.3277
12522TIP3    H259058   5.524   1.172  14.388 -0.3850 -2.3757  0.2004
12523TIP3   OH259059   4.890   3.429   2.224  0.4750  0.2326  0.5427
12523TIP3    H159060   4.947   3.503   2.201 -0.3631  1.6736  2.7543
12523TIP3    H259061   4.949   3.367   2.268  0.9250  0.1729 -0.1208
12524TIP3   OH259062   1.141   4.171  12.069  0.3961  0.0298  0.1723
12524TIP3    H159063   1.065   4.191  12.015 -0.6224 -0.7586  1.2587
12524TIP3    H259064   1.210   4.228  12.035 -0.9527  1.5300 -0.1849
12525TIP3   OH259065   1.483   0.912   4.692  0.1399 -0.3598  0.0265
12525TIP3    H159066   1.406   0.956   4.728 -0.4704 -1.7109  0.4584
12525TIP3    H259067   1.484   0.938   4.600 -1.3234 -0.9375 -0.1880
12526TIP3   OH259068   5.009   4.506   6.228  0.0618 -0.1757 -0.1489
12526TIP3    H159069   5.000   4.573   6.297 -0.0873  0.8587 -1.1381
12526TIP3    H259070   5.089   4.531   6.181  0.1658 -0.8743 -0.3581
12527TIP3   OH259071   0.760   0.580   3.715 -0.3379 -0.1745 -0.2084
12527TIP3    H159072   0.738   0.488   3.704  1.0600 -0.4159 -1.4402
12527TIP3    H259073   0.685   0.627   3.681 -1.3088 -0.8248  0.9615
12528TIP3   OH259074   3.349   3.026   3.449 -0.0434 -0.4342 -0.0945
12528TIP3    H159075   3.442   3.009   3.433  0.1451  0.7078 -0.2452
12528TIP3    H259076   3.334   2.995   3.539  0.7697  0.4631  0.3655
12529TIP3   OH259077   4.350   0.811   0.127 -0.1153 -0.4722 -0.0344
12529TIP3    H159078   4.260   0.829   0.157 -0.1616 -2.1964  0.9952
12529TIP3    H259079   4.405   0.842   0.199  0.2070  1.4038 -1.0439
12530TIP3   OH259080   0.064   6.667   2.356  0.3690  0.4454  0.5353
12530TIP3    H159081   0.124   6.605   2.396  2.2053  2.6129  1.3863
12530TIP3    H259082  -0.002   6.684   2.424  0.9011  0.7525  0.9825
12531TIP3   OH259083   2.019   6.545  12.564  0.1323 -0.7279 -0.8158
12531TIP3    H159084   1.953   6.597  12.518 -0.5296  0.7768  1.6598
12531TIP3    H259085   2.102   6.573  12.527 -0.3908  0.1415 -1.3672
12532TIP3   OH259086   5.412   0.002   3.468  0.4090 -0.7404 -0.2607
12532TIP3    H159087   5.496   0.025   3.428  0.1454 -0.3178 -0.5823
12532TIP3    H259088   5.358   0.081   3.458 -0.7615 -1.6949 -2.0011
12533TIP3   OH259089   4.393   4.334   5.672 -0.2931  0.1012 -0.8979
12533TIP3    H159090   4.360   4.388   5.600 -2.3993 -3.2199 -2.6842
12533TIP3    H259091   4.319   4.325   5.732  0.3524  0.0202 -0.0967
12534TIP3   OH259092   2.751   2.302  14.560  0.2593  0.9431 -0.6442
12534TIP3    H159093   2.704   2.375  14.520 -2.3674  0.0018  0.4989
12534TIP3    H259094   2.701   2.225  14.533  1.2706 -0.1432  0.5242
12535TIP3   OH259095   0.265   1.756  16.826 -0.0028 -0.5778  0.4250
12535TIP3    H159096   0.264   1.662  16.841  0.8759 -0.4863  1.1419
12535TIP3    H259097   0.256   1.766  16.731  0.1489 -1.3827  0.3208
12536TIP3   OH259098   6.727   5.249   5.898 -0.4116  0.8292  0.2056
12536TIP3    H159099   6.782   5.212   5.967 -1.2654  0.6305  0.7955
12536TIP3    H259100   6.728   5.183   5.828 -1.2718  0.0279  0.9203
12537TIP3   OH259101   0.533   1.017  12.436  0.5412 -0.5666 -0.9270
12537TIP3    H159102   0.624   1.028  12.463  0.4969  0.0797 -1.0217
12537TIP3    H259103   0.508   1.102  12.398 -1.9242  1.5808  4.4451
12538TIP3   OH259104   0.392   2.991  16.755  0.5161 -0.3750  0.2807
12538TIP3    H159105   0.388   3.080  16.719  0.4184 -1.0438 -1.4769
12538TIP3    H259106   0.308   2.952  16.731  0.5928 -0.9780  0.9712
12539TIP3   OH259107   3.077   1.046  11.494  0.0409  0.0570  0.3021
12539TIP3    H159108   3.035   1.035  11.409 -1.3962 -2.0069  1.2139
12539TIP3    H259109   3.029   1.118  11.536 -1.6777 -1.2897  0.7418
12540TIP3   OH259110   5.144   0.308   0.693  0.5169  0.1766 -0.3197
12540TIP3    H159111   5.113   0.385   0.742  1.5253 -0.2946  1.1431
12540TIP3    H259112   5.208   0.268   0.751  2.5949  0.1559 -2.4842
12541TIP3   OH259113   5.307   1.364  12.926  0.3867 -0.2047 -1.0578
12541TIP3    H159114   5.398   1.388  12.908  0.4096  2.8967  2.1766
12541TIP3    H259115   5.311   1.312  13.006 -0.6140 -1.2699 -1.6748
12542TIP3   OH259116   4.375   3.639   5.276 -0.2753 -0.7788  0.3091
12542TIP3    H159117   4.459   3.608   5.244  0.0052 -0.3449  0.6136
12542TIP3    H259118   4.339   3.690   5.203 -0.3443 -1.0887  0.1254
12543TIP3   OH259119   2.971   1.235  13.758  0.3105  0.1615 -0.3305
12543TIP3    H159120   2.940   1.162  13.812  2.2051 -0.5494 -0.1455
12543TIP3    H259121   3.043   1.273  13.808  0.1569  1.4019 -1.0050
12544TIP3   OH259122   6.097   0.937  12.981 -0.0462 -0.6882  0.2890
12544TIP3    H159123   6.094   0.841  12.988 -0.7023 -0.6812  0.1723
12544TIP3    H259124   6.119   0.953  12.889  1.2103 -0.7276  0.5675
12545TIP3   OH259125   0.899   4.146   2.826 -0.3201 -0.5335  0.0386
12545TIP3    H159126   0.891   4.068   2.770  1.9658 -0.2793 -0.7351
12545TIP3    H259127   0.895   4.220   2.764 -0.2788 -0.1368  0.5071
12546TIP3   OH259128   1.127   2.372   0.916 -0.4832  0.1276 -0.0018
12546TIP3    H159129   1.130   2.289   0.964 -0.6735  0.2644  0.2524
12546TIP3    H259130   1.174   2.433   0.972 -4.0860  1.3024  2.0558
12547TIP3   OH259131   5.248   6.209   5.062  0.1037 -0.0834  0.6723
12547TIP3    H159132   5.183   6.141   5.071  0.4186 -0.2330  2.0447
12547TIP3    H259133   5.218   6.262   4.988 -1.4234 -0.2989  1.1089
12548TIP3   OH259134   0.067   4.282   2.116  0.6050  0.5035 -0.0143
12548TIP3    H159135  -0.005   4.314   2.170  0.6892 -2.3772  2.0323
12548TIP3    H259136   0.025   4.233   2.045  0.3570 -2.1603  1.8100
12549TIP3   OH259137   2.229   6.319  14.580  0.3730 -0.5084  0.0356
12549TIP3    H159138   2.272   6.404  14.570 -1.4444  0.4294 -0.3015
12549TIP3    H259139   2.300   6.259  14.603  1.4803  1.4164  2.0788
12550TIP3   OH259140   0.263   6.526   4.562  0.1682  0.0289 -0.2860
12550TIP3    H159141   0.320   6.598   4.535 -0.2077  0.0593 -1.0266
12550TIP3    H259142   0.226   6.493   4.480  1.5204 -2.0089 -0.1312
12551TIP3   OH259143   0.887   2.140   3.397 -0.6535  0.0266  0.4741
12551TIP3    H159144   0.827   2.109   3.329 -1.0959  0.8614  0.4716
12551TIP3    H259145   0.875   2.078   3.469  0.1813 -1.1525 -0.3698
12552TIP3   OH259146   2.722   2.614  13.582  0.2592 -0.1544 -0.0159
12552TIP3    H159147   2.659   2.544  13.564  0.2496 -0.4893  1.1820
12552TIP3    H259148   2.683   2.693  13.545 -1.5216 -0.0945  1.8077
12553TIP3   OH259149   6.035   0.299  14.088 -0.0715 -0.3953  0.2173
12553TIP3    H159150   6.052   0.259  14.174  0.6069 -1.9493 -0.6023
12553TIP3    H259151   6.075   0.239  14.025 -1.8971 -0.1039 -1.3053
12554TIP3   OH259152   2.176   0.789  14.012  0.0802 -0.8991 -0.2875
12554TIP3    H159153   2.247   0.737  14.049 -0.6994 -2.1121 -0.4171
12554TIP3    H259154   2.097   0.738  14.031 -0.5179 -0.7747 -2.1667
12555TIP3   OH259155   2.693   3.930   0.927 -0.2769 -0.3314  0.3129
12555TIP3    H159156   2.601   3.903   0.924  0.0846 -1.5405 -0.9500
12555TIP3    H259157   2.690   4.024   0.910 -1.2183 -0.5961 -1.2290
12556TIP3   OH259158   1.490   4.491  12.967  0.7224  0.3366  0.1601
12556TIP3    H159159   1.436   4.437  13.024  0.7297 -0.4831 -0.5927
12556TIP3    H259160   1.434   4.566  12.945  0.3843  0.1797  0.4786
12557TIP3   OH259161   0.072   0.596  11.746 -0.4593  0.3959  0.4614
12557TIP3    H159162   0.082   0.661  11.676 -0.2448 -0.4451 -0.3065
12557TIP3    H259163   0.061   0.648  11.825 -1.6174  1.3762 -0.3085
12558TIP3   OH259164   5.010   4.236   6.175  0.8302 -0.3999 -0.3157
12558TIP3    H159165   5.090   4.244   6.123  1.0625 -1.0532 -0.0755
12558TIP3    H259166   5.001   4.320   6.219  1.6316 -0.4677 -0.0025
12559TIP3   OH259167   6.045   3.952  10.748 -0.1486  0.4587  0.3275
12559TIP3    H159168   6.064   3.877  10.804  1.2078  0.5274 -0.0007
12559TIP3    H259169   5.962   3.930  10.706  0.6470 -1.2845 -0.4231
12560TIP3   OH259170   2.870   5.401  16.944 -0.0276  0.7538 -0.4759
12560TIP3    H159171   2.932   5.475  16.950  0.1680  0.4917  1.4362
12560TIP3    H259172   2.911   5.333  16.997 -0.7233 -0.3715 -1.3662
12561TIP3   OH259173   6.308   3.245  16.613  0.0506 -0.0500 -0.0144
12561TIP3    H159174   6.335   3.234  16.704  0.9418  2.2432  0.0533
12561TIP3    H259175   6.214   3.230  16.614  0.0766 -0.2236  1.2556
12562TIP3   OH259176   1.545   5.429   4.578  0.0935 -0.0714  0.3926
12562TIP3    H159177   1.478   5.367   4.606  0.3742 -0.7177 -0.3413
12562TIP3    H259178   1.512   5.464   4.495  0.3205  0.1656  0.4000
12563TIP3   OH259179   0.926   5.376   3.368  0.0708 -0.3209  0.7567
12563TIP3    H159180   0.832   5.362   3.353 -0.0443  1.9043 -1.2469
12563TIP3    H259181   0.936   5.471   3.370  2.3640 -0.4964  0.3535
12564TIP3   OH259182   0.430   5.319   0.521  0.2267 -0.4416  0.3477
12564TIP3    H159183   0.395   5.277   0.443  0.0773 -0.8471  0.6260
12564TIP3    H259184   0.439   5.411   0.498  2.6097 -0.9444 -1.0250
12565TIP3   OH259185   4.673   4.861  16.679  0.1872  0.4741 -0.7893
12565TIP3    H159186   4.746   4.920  16.658  0.0502  1.1862  0.5977
12565TIP3    H259187   4.615   4.913  16.733  0.9375 -1.3766  2.0537
12566TIP3   OH259188   1.094   2.713  11.299  0.6996  0.0276  0.6989
12566TIP3    H159189   1.074   2.728  11.391  1.2921 -2.0357  1.2094
12566TIP3    H259190   1.048   2.783  11.253 -0.7984  0.2603  2.4321
12567TIP3   OH259191   0.921   5.669  14.768 -0.3212  0.0089 -0.6708
12567TIP3    H159192   0.878   5.591  14.732 -1.8588  0.3896  0.2405
12567TIP3    H259193   0.987   5.692  14.703 -1.3248 -0.7831 -2.0289
12568TIP3   OH259194   2.487   6.135   1.871 -0.5186  0.6685  0.4951
12568TIP3    H159195   2.548   6.069   1.838  1.3569  2.5803 -0.0580
12568TIP3    H259196   2.535   6.177   1.943 -1.6803  1.4238  0.8461
12569TIP3   OH259197   2.561   5.995  16.115 -0.3183  0.6838  0.0432
12569TIP3    H159198   2.580   5.912  16.160  0.1229  0.4130 -0.6317
12569TIP3    H259199   2.501   6.040  16.174  1.1506  0.8527  1.4742
12570TIP3   OH259200   1.690   2.004   2.710 -0.3909  0.6462  0.3578
12570TIP3    H159201   1.610   2.041   2.749  0.0674  0.7679  1.1964
12570TIP3    H259202   1.668   1.993   2.617 -1.9082 -0.7233  0.8192
12571TIP3   OH259203   1.386   0.876   5.530  0.0446 -0.3264 -0.0344
12571TIP3    H159204   1.403   0.818   5.604  0.0327  0.1774  0.3641
12571TIP3    H259205   1.317   0.934   5.560 -0.1031 -0.2474 -0.5136
12572TIP3   OH259206   1.217   6.347  13.886  0.0313  0.5298 -0.4682
12572TIP3    H159207   1.215   6.360  13.791  0.3413  1.9822 -0.3009
12572TIP3    H259208   1.173   6.263  13.900  2.5606 -1.2571 -2.1435
12573TIP3   OH259209   2.793   3.749   0.717  0.4467 -0.0556 -0.5394
12573TIP3    H159210   2.764   3.809   0.786 -2.0293 -2.2217  0.4745
12573TIP3    H259211   2.763   3.790   0.636 -0.3300  0.5893  0.0460
12574TIP3   OH259212   4.452   2.688  11.856  0.9550 -0.0658  0.4774
12574TIP3    H159213   4.440   2.780  11.881  1.2208 -0.1699  1.0198
12574TIP3    H259214   4.532   2.662  11.901  2.1079  0.0436 -1.3857
12575TIP3   OH259215   5.585   2.514   2.892  0.3694 -0.1699 -0.1355
12575TIP3    H159216   5.676   2.541   2.883  0.0581  0.5303 -1.4745
12575TIP3    H259217   5.556   2.555   2.974  0.9618  0.5099 -0.2575
12576TIP3   OH259218   6.202   2.089   0.581 -0.0147  0.2612 -0.0644
12576TIP3    H159219   6.242   2.174   0.601 -0.2248 -0.0979  2.1478
12576TIP3    H259220   6.161   2.063   0.663 -1.0383 -1.4095 -1.0708
12577TIP3   OH259221   4.240   0.923  16.987 -0.3296 -0.0072 -0.1894
12577TIP3    H159222   4.209   0.853  17.044 -0.5582 -0.0295 -0.3392
12577TIP3    H259223   4.325   0.893  16.955 -0.9439 -0.7606 -1.1869
12578TIP3   OH259224   0.198   4.635   5.949  0.1066  0.0042  0.3709
12578TIP3    H159225   0.125   4.648   6.010 -0.4105 -0.0552 -0.2177
12578TIP3    H259226   0.276   4.632   6.004 -0.3358  0.1037  1.0101
12579TIP3   OH259227   3.865   2.273   6.082  0.8800  0.1904 -0.5546
12579TIP3    H159228   3.876   2.324   6.163 -3.2063 -0.9922  1.0278
12579TIP3    H259229   3.845   2.184   6.113 -3.0863  0.1569 -2.5403
12580TIP3   OH259230   3.493   5.857   3.465  0.5288  0.0612 -0.3239
12580TIP3    H159231   3.530   5.787   3.410  1.3310  0.3219 -0.1275
12580TIP3    H259232   3.537   5.936   3.435 -0.8274  0.5975 -0.9720
12581TIP3   OH259233   3.362   2.081   2.027  0.3040  1.0381 -0.1731
12581TIP3    H159234   3.287   2.049   2.076  0.9707  3.3808  2.6784
12581TIP3    H259235   3.421   2.007   2.022 -0.3905  0.3299  1.4563
12582TIP3   OH259236   4.548   2.745  16.351  0.3044 -0.0222  0.1281
12582TIP3    H159237   4.480   2.795  16.306 -0.3609 -1.2505 -0.2795
12582TIP3    H259238   4.583   2.806  16.416  1.3808  1.8867 -2.0629
12583TIP3   OH259239   5.248   6.146  16.391  0.2568  0.5830 -0.0134
12583TIP3    H159240   5.157   6.131  16.364 -0.4965  1.3375  1.9503
12583TIP3    H259241   5.280   6.059  16.414  0.7102  0.0134 -2.5020
12584TIP3   OH259242   1.532   0.065  16.541  0.2293 -0.5038 -0.3444
12584TIP3    H159243   1.585   0.097  16.614 -1.4986 -1.0359  1.2026
12584TIP3    H259244   1.496   0.145  16.501  2.5015 -0.0880 -1.7708
12585TIP3   OH259245   3.699   6.616  15.436  0.6026 -0.0538  0.3807
12585TIP3    H159246   3.791   6.591  15.438  0.7697 -0.0653 -2.5100
12585TIP3    H259247   3.700   6.708  15.409 -0.2025 -0.3048 -0.5706
12586TIP3   OH259248   2.328   4.497  14.693  0.6451  0.4510 -0.0649
12586TIP3    H159249   2.249   4.545  14.670  0.1191 -0.2323  0.2673
12586TIP3    H259250   2.329   4.422  14.632 -0.0279 -0.6181  1.1974
12587TIP3   OH259251   6.214   1.728  14.705 -0.2471 -0.4851 -0.5375
12587TIP3    H159252   6.150   1.780  14.658  0.1255  1.9930  1.4635
12587TIP3    H259253   6.162   1.663  14.753 -0.6837 -2.4256 -3.3686
12588TIP3   OH259254   4.494   3.518  14.906  0.1317  0.0218  0.2631
12588TIP3    H159255   4.485   3.607  14.941  0.3508 -0.2264  0.9707
12588TIP3    H259256   4.461   3.462  14.976 -3.3838 -0.3327 -1.4425
12589TIP3   OH259257   4.588   1.221  14.116  0.8137 -0.0692  0.3760
12589TIP3    H159258   4.531   1.144  14.108  3.0915 -1.8316 -0.0040
12589TIP3    H259259   4.564   1.277  14.043 -1.4456  0.0136  1.1101
12590TIP3   OH259260   5.058   3.239   2.723  0.2656 -0.5970 -0.6543
12590TIP3    H159261   5.025   3.273   2.806  0.9132  0.6031 -0.8686
12590TIP3    H259262   4.992   3.176   2.694  0.7882 -2.2836  1.5609
12591TIP3   OH259263   0.693   6.044   5.154  0.3695  0.3174  0.0044
12591TIP3    H159264   0.702   6.035   5.249  1.4790  2.2832  0.1316
12591TIP3    H259265   0.648   6.127   5.141  0.0369 -0.0280 -1.1917
12592TIP3   OH259266   5.278   4.213   2.694 -0.6191 -0.4952 -0.1293
12592TIP3    H159267   5.281   4.292   2.640 -1.7192 -0.4051 -0.0668
12592TIP3    H259268   5.303   4.143   2.634 -2.2149 -0.4492 -0.8834
12593TIP3   OH259269   2.813   0.323  10.563  0.0171  0.4212  0.2601
12593TIP3    H159270   2.746   0.352  10.501 -0.8435  0.2446  1.0968
12593TIP3    H259271   2.860   0.254  10.516 -0.0401  0.9040 -0.5239
12594TIP3   OH259272   3.387   1.307   0.833  0.9301 -0.3392 -0.3546
12594TIP3    H159273   3.434   1.390   0.837  2.5574 -1.2501  0.5913
12594TIP3    H259274   3.405   1.273   0.746  0.3525  0.2162 -0.7029
12595TIP3   OH259275   2.368   4.804  14.230  0.1503  0.0173  0.2929
12595TIP3    H159276   2.347   4.712  14.213  0.4878 -0.1160  0.5903
12595TIP3    H259277   2.323   4.824  14.312 -1.9513  0.8230 -0.9855
12596TIP3   OH259278   6.007   0.938  15.070  0.1290 -0.7803 -0.0340
12596TIP3    H159279   5.922   0.964  15.033 -0.0632  0.5998  1.2373
12596TIP3    H259280   5.984   0.900  15.155  0.8538  3.7450  2.5062
12597TIP3   OH259281   1.052   0.790  13.858 -0.2832  0.0238 -0.0163
12597TIP3    H159282   1.008   0.705  13.855 -1.3175  0.5463 -0.0914
12597TIP3    H259283   1.134   0.773  13.905 -0.8535 -0.8569  0.6929
12598TIP3   OH259284   0.827   6.233   5.655 -0.1964 -0.2188 -0.7252
12598TIP3    H159285   0.916   6.266   5.645 -1.0338  2.5173 -0.2610
12598TIP3    H259286   0.803   6.256   5.745 -1.4162 -0.7408 -0.8971
12599TIP3   OH259287   3.870   5.752   2.352  1.1187 -0.0589 -0.0813
12599TIP3    H159288   3.795   5.700   2.326  1.2521 -0.8136  0.9875
12599TIP3    H259289   3.833   5.836   2.381  0.9509  0.7299 -2.3611
12600TIP3   OH259290   3.876   6.794   4.272 -0.0812 -0.1855  0.7690
12600TIP3    H159291   3.928   6.813   4.350 -1.2584 -0.0235  1.5542
12600TIP3    H259292   3.808   6.733   4.304 -1.2239  0.7165  0.1302
12601TIP3   OH259293   4.468   0.228   2.470  1.0691 -0.0899  0.7629
12601TIP3    H159294   4.546   0.274   2.440  0.8482 -0.2145 -0.0384
12601TIP3    H259295   4.399   0.255   2.408  0.8823 -1.2982  0.4125
12602TIP3   OH259296   6.812   2.675  16.095  0.0575 -0.4707  0.6121
12602TIP3    H159297   6.817   2.738  16.167  0.3937 -0.1845  0.3412
12602TIP3    H259298   6.879   2.704  16.033  0.4000 -1.2543  0.6066
12603TIP3   OH259299   0.687   3.394  15.998 -0.5480 -0.0433 -0.0641
12603TIP3    H159300   0.733   3.365  15.919 -0.4611 -0.6074  0.1927
12603TIP3    H259301   0.737   3.358  16.070  0.5142  2.1046  0.3499
12604TIP3   OH259302   6.013   6.209  12.674  0.3159  0.5557  0.3518
12604TIP3    H159303   5.994   6.184  12.583 -1.4400 -1.8224  1.2772
12604TIP3    H259304   5.973   6.295  12.684 -1.8901 -0.3129 -0.4349
12605TIP3   OH259305   6.480   0.037   4.577 -0.8208  0.5092  0.3486
12605TIP3    H159306   6.564   0.081   4.586 -1.7158  2.0480  1.6328
12605TIP3    H259307   6.416   0.107   4.576 -2.2689 -0.7024  1.8783
12606TIP3   OH259308   0.876   1.363  11.515  0.0387  0.5742  0.1521
12606TIP3    H159309   0.856   1.317  11.596 -0.8028  0.0433 -0.3433
12606TIP3    H259310   0.953   1.319  11.480 -1.6142 -1.5564 -1.0910
12607TIP3   OH259311   2.961   6.017  14.802 -0.1779 -0.0628 -0.1514
12607TIP3    H159312   3.049   6.046  14.779  0.8247 -0.9467  2.2528
12607TIP3    H259313   2.907   6.096  14.797  1.1200  0.8542 -0.0253
12608TIP3   OH259314   0.706   2.961  14.156 -0.0249  0.1723  0.4541
12608TIP3    H159315   0.674   3.051  14.158 -1.8036 -0.3750  3.1960
12608TIP3    H259316   0.645   2.915  14.098  0.8114  0.6583 -0.8498
12609TIP3   OH259317   4.770   2.673  12.383 -0.2603 -0.1832  0.1932
12609TIP3    H159318   4.699   2.610  12.367 -1.4049  1.1698 -0.3442
12609TIP3    H259319   4.724   2.756  12.398  1.2050  0.5488  0.7298
12610TIP3   OH259320   2.254   0.709   3.547 -0.8348 -0.4954  0.3786
12610TIP3    H159321   2.161   0.694   3.567 -0.8254  1.1803  1.9464
12610TIP3    H259322   2.300   0.634   3.584 -1.4522 -0.7305  0.6752
12611TIP3   OH259323   4.402   0.250  15.051 -0.5275 -0.4195 -0.4232
12611TIP3    H159324   4.309   0.242  15.073 -0.3037 -0.0508  0.7665
12611TIP3    H259325   4.426   0.339  15.078  0.2531 -0.6379 -0.3524
12612TIP3   OH259326   3.069   5.533  12.098  0.3343  0.0587  0.8474
12612TIP3    H159327   2.986   5.555  12.056 -0.7189 -0.6681  2.4599
12612TIP3    H259328   3.075   5.438  12.091  0.5941  0.0182  1.5109
12613TIP3   OH259329   1.826   5.410   4.489 -0.3370 -0.0747 -0.3827
12613TIP3    H159330   1.748   5.381   4.537  0.4527  0.1300  1.0948
12613TIP3    H259331   1.801   5.494   4.451 -0.9617 -0.1850 -0.2262
12614TIP3   OH259332   5.368   6.381  13.716 -0.1261 -0.0349  0.3478
12614TIP3    H159333   5.453   6.370  13.759  0.2540  1.2477 -0.0338
12614TIP3    H259334   5.336   6.465  13.749 -0.3035  0.4647 -1.0573
12615TIP3   OH259335   5.944   3.776  13.147  0.2100  0.0918  0.0549
12615TIP3    H159336   5.996   3.696  13.140 -1.1221 -1.1365  2.7231
12615TIP3    H259337   6.006   3.844  13.174  1.0023 -0.5064 -0.2234
12616TIP3   OH259338   5.089   3.502   1.796  0.0659  0.2874  0.9006
12616TIP3    H159339   5.026   3.480   1.865 -0.5476  2.0856  0.9621
12616TIP3    H259340   5.174   3.503   1.840  0.0035 -0.9808  1.0783
12617TIP3   OH259341   3.316   1.824  14.185  0.0754 -0.7371 -0.0383
12617TIP3    H159342   3.342   1.770  14.260  2.4295 -2.3549 -1.8568
12617TIP3    H259343   3.249   1.773  14.140 -1.1939  0.1442  0.7911
12618TIP3   OH259344   4.817   5.081   6.391  0.0167  0.2719  0.0331
12618TIP3    H159345   4.726   5.079   6.421 -0.1107 -0.5742 -0.3997
12618TIP3    H259346   4.863   5.019   6.448  0.3212  0.6583  0.2186
12619TIP3   OH259347   6.345   2.995  15.355  0.7598  0.5429  0.3939
12619TIP3    H159348   6.314   2.910  15.386  0.9628  0.0551 -0.6942
12619TIP3    H259349   6.440   2.991  15.366  0.8191  0.4215 -0.1519
12620TIP3   OH259350   0.468   3.289   0.198 -0.3500  0.0510  0.5294
12620TIP3    H159351   0.434   3.234   0.269 -1.5103  1.3111  0.9959
12620TIP3    H259352   0.560   3.264   0.190 -0.5182 -1.0047  1.6306
12621TIP3   OH259353   3.916   5.499   1.040  0.4537  0.2617  0.1499
12621TIP3    H159354   4.000   5.540   1.020 -0.0837  2.0046  1.2539
12621TIP3    H259355   3.922   5.412   1.000  3.1315 -0.0507  1.0067
12622TIP3   OH259356   6.781   3.969  13.038 -0.4142  0.2378 -0.2166
12622TIP3    H159357   6.845   3.954  13.108  0.5213  0.2921 -1.0394
12622TIP3    H259358   6.772   4.064  13.035 -0.0376  0.2664 -0.5259
12623TIP3   OH259359   4.764   6.355  15.597 -0.4782 -0.1547  0.3920
12623TIP3    H159360   4.759   6.297  15.521 -0.9694  0.4221 -0.0334
12623TIP3    H259361   4.780   6.297  15.671 -1.1452 -0.8485  0.0065
12624TIP3   OH259362   4.668   6.661  12.621 -0.1795 -0.3465 -0.0978
12624TIP3    H159363   4.586   6.614  12.603 -1.1643 -0.0239  2.9047
12624TIP3    H259364   4.727   6.593  12.653 -0.1080 -0.2143  0.0518
12625TIP3   OH259365   6.827   0.617  10.350  0.5480  0.3383 -0.0173
12625TIP3    H159366   6.818   0.680  10.421  1.6334 -0.9740  1.3353
12625TIP3    H259367   6.892   0.554  10.381  0.0903 -1.0171 -1.6408
12626TIP3   OH259368   6.708   3.949  13.816 -0.0263 -0.8685 -0.1701
12626TIP3    H159369   6.690   3.987  13.902  0.6331 -1.2272  0.1326
12626TIP3    H259370   6.637   3.885  13.803  0.1967 -1.2364  0.3718
12627TIP3   OH259371   1.364   4.116  12.445 -0.3121  0.1938  0.1882
12627TIP3    H159372   1.406   4.192  12.484  2.3571 -0.0041 -1.9430
12627TIP3    H259373   1.305   4.152  12.379 -0.3400  0.4517  0.3536
12628TIP3   OH259374   1.993   5.872   0.828 -0.0121  0.5093 -0.1598
12628TIP3    H159375   1.915   5.864   0.772  0.0442  0.6133 -0.2543
12628TIP3    H259376   2.027   5.783   0.835 -0.4244  0.3861  0.2924
12629TIP3   OH259377   3.110   6.348   0.343  0.2117  0.2005  0.6046
12629TIP3    H159378   3.083   6.349   0.251  0.4556  1.5877  0.5294
12629TIP3    H259379   3.162   6.269   0.352  0.4408  0.2089 -0.5292
12630TIP3   OH259380   6.326   3.224  11.253 -0.0229 -0.5142  0.6382
12630TIP3    H159381   6.280   3.144  11.226 -1.6122  0.4502  0.3602
12630TIP3    H259382   6.354   3.206  11.343 -0.5993 -1.2734  0.6767
12631TIP3   OH259383   5.612   6.007   1.813 -0.1146 -0.0186 -0.0297
12631TIP3    H159384   5.673   5.940   1.785 -0.2822 -0.9126  1.6511
12631TIP3    H259385   5.662   6.089   1.809  0.4381 -0.3844 -0.9549
12632TIP3   OH259386   5.869   4.329   4.516 -0.4273  0.3880  0.5811
12632TIP3    H159387   5.893   4.371   4.434  1.5595  1.3826  1.6012
12632TIP3    H259388   5.784   4.288   4.498  0.5057 -0.5377 -2.3278
12633TIP3   OH259389   2.082   0.324  12.948  0.3392  0.5593 -0.0251
12633TIP3    H159390   2.150   0.323  13.015 -1.8153  1.5160  2.3660
12633TIP3    H259391   2.059   0.232  12.934  0.4353  0.3640  1.0291
12634TIP3   OH259392   3.783   0.449  14.149  0.8856 -0.7145  0.2322
12634TIP3    H159393   3.698   0.492  14.149  0.2385 -1.9114  0.9519
12634TIP3    H259394   3.839   0.506  14.202  0.6277  0.2378 -0.5020
12635TIP3   OH259395   0.616   6.716   3.174  0.4483  0.3463  0.3110
12635TIP3    H159396   0.592   6.627   3.151 -0.1713  0.8411 -1.1112
12635TIP3    H259397   0.708   6.711   3.200 -0.3388 -1.1676  3.2309
12636TIP3   OH259398   3.695   4.918  15.859 -0.3166 -0.0581 -0.1803
12636TIP3    H159399   3.705   4.893  15.768 -0.8334 -0.0032 -0.2547
12636TIP3    H259400   3.602   4.935  15.870 -0.0345  1.6731 -0.0967
12637TIP3   OH259401   4.693   2.915  16.483 -0.1958  0.1724 -0.1320
12637TIP3    H159402   4.750   2.974  16.434 -0.1880  0.4041  0.1512
12637TIP3    H259403   4.745   2.889  16.559 -1.6930  3.4198  2.2656
12638TIP3   OH259404   3.696   3.234   4.959 -0.6675 -0.3630 -0.8358
12638TIP3    H159405   3.609   3.237   4.999 -0.1998 -1.8086  0.3961
12638TIP3    H259406   3.754   3.207   5.030  0.5747 -0.8261 -1.9756
12639TIP3   OH259407   4.028   1.976   4.497 -0.3720  0.7173  0.0474
12639TIP3    H159408   4.068   1.940   4.576  0.7911  1.5854 -0.1217
12639TIP3    H259409   3.997   2.063   4.522 -0.9215  0.6036 -0.2017
12640TIP3   OH259410   1.450   5.748  11.097  0.2377  0.2044 -0.1916
12640TIP3    H159411   1.483   5.689  11.029 -0.6706 -0.0654 -0.4103
12640TIP3    H259412   1.527   5.799  11.123  0.9412 -0.7589 -0.3143
12641TIP3   OH259413   5.816   6.803  13.168  0.0986 -0.5227 -0.6769
12641TIP3    H159414   5.829   6.776  13.259 -2.5695 -1.4744 -0.5139
12641TIP3    H259415   5.821   6.899  13.171  0.7272 -0.5761  0.3337
12642TIP3   OH259416   5.815   1.577  16.998 -0.7308 -0.0006  0.1005
12642TIP3    H159417   5.841   1.665  16.970  0.0999  0.2833  1.6864
12642TIP3    H259418   5.755   1.592  17.071 -1.5732 -0.7512 -0.4243
12643TIP3   OH259419   2.921   0.990  12.682  0.0857  0.1312  0.0706
12643TIP3    H159420   2.980   0.919  12.707  2.0485  0.8349 -2.1583
12643TIP3    H259421   2.963   1.069  12.715  1.1838  0.7686 -2.5875
12644TIP3   OH259422   4.673   3.850  13.258 -0.0496 -0.0027 -0.0067
12644TIP3    H159423   4.602   3.805  13.304  0.4208  0.4159  1.1823
12644TIP3    H259424   4.667   3.940  13.288  2.9003 -0.5172  2.7400
12645TIP3   OH259425   2.701   0.828   6.367 -0.2061  0.2003 -0.2138
12645TIP3    H159426   2.710   0.734   6.384 -0.2760  0.3587  0.8027
12645TIP3    H259427   2.607   0.843   6.359 -0.1524  0.0607 -1.2164
12646TIP3   OH259428   3.630   0.124  11.110  0.0468 -0.3273  0.0924
12646TIP3    H159429   3.714   0.143  11.067  0.5715 -1.4029  0.5984
12646TIP3    H259430   3.620   0.195  11.174 -0.2673  0.7382 -1.1039
12647TIP3   OH259431   3.519   6.689  16.896  0.2634 -0.2911  0.2948
12647TIP3    H159432   3.480   6.648  16.974  3.1189  0.3629  2.2191
12647TIP3    H259433   3.567   6.764  16.930 -0.2804  1.4574 -2.4668
12648TIP3   OH259434   6.104   4.877  12.578  0.0947  0.2080  0.3324
12648TIP3    H159435   6.183   4.919  12.613 -0.2670  0.4718  0.8571
12648TIP3    H259436   6.069   4.828  12.652 -0.0653 -0.1616  0.0129
12649TIP3   OH259437   0.033   2.849   1.942  0.1972  0.3733 -0.0866
12649TIP3    H159438  -0.032   2.853   1.872  0.3712 -1.5904 -0.4062
12649TIP3    H259439   0.048   2.941   1.966 -1.8406  0.9363 -0.7657
12650TIP3   OH259440   4.257   6.786   4.131  0.5154 -0.8496  0.0086
12650TIP3    H159441   4.316   6.853   4.096 -1.1511  0.1585 -0.9782
12650TIP3    H259442   4.235   6.817   4.219 -0.2729 -0.0517 -0.4552
12651TIP3   OH259443   2.282   2.366  12.340 -0.9524 -0.1390 -0.0134
12651TIP3    H159444   2.289   2.384  12.433 -1.5820 -0.7429  0.1579
12651TIP3    H259445   2.204   2.311  12.331 -2.0778  1.5665 -1.1522
12652TIP3   OH259446   3.338   1.819   2.563 -0.0359 -0.0727 -0.6259
12652TIP3    H159447   3.256   1.785   2.598 -0.1620 -0.5406 -1.3479
12652TIP3    H259448   3.324   1.914   2.556  0.7374  0.3783  2.5304
12653TIP3   OH259449   4.892   0.996  17.033 -0.5489  0.4807  0.8829
12653TIP3    H159450   4.855   0.920  17.077  0.3067 -0.7953 -0.5058
12653TIP3    H259451   4.976   1.010  17.077 -0.8377  0.8329  1.3357
12654TIP3   OH259452   5.178   2.916   3.900 -0.1521 -0.7795 -0.2095
12654TIP3    H159453   5.189   2.836   3.848 -0.2936 -0.3254 -0.9583
12654TIP3    H259454   5.142   2.979   3.838  1.1843  0.2517  0.0117
12655TIP3   OH259455   5.764   1.034  14.990  0.2188  0.0195 -0.0277
12655TIP3    H159456   5.772   1.101  14.921 -1.1826 -0.6722 -0.9129
12655TIP3    H259457   5.671   1.033  15.011  0.4102 -0.8301  0.8336
12656TIP3   OH259458   5.368   4.325   0.851  0.1965  0.5646 -0.5677
12656TIP3    H159459   5.453   4.330   0.893 -0.7985 -0.9650  1.8290
12656TIP3    H259460   5.384   4.279   0.769  1.7328  0.8070 -0.4249
12657TIP3   OH259461   1.103   6.616   1.865  0.2543 -0.1169 -0.2269
12657TIP3    H159462   1.036   6.674   1.900  0.1529  0.6977 -1.7195
12657TIP3    H259463   1.109   6.545   1.930 -1.0189  0.5232  0.6343
12658TIP3   OH259464   2.413   4.963  15.785 -0.3589  0.2487  0.4847
12658TIP3    H159465   2.494   5.006  15.815  0.2912 -0.9741  0.5376
12658TIP3    H259466   2.345   4.999  15.842  0.3807  0.2391  1.4058
12659TIP3   OH259467   5.867   4.480   5.170 -0.4696  0.0097 -0.8619
12659TIP3    H159468   5.920   4.475   5.091  0.4249 -2.0024 -0.1930
12659TIP3    H259469   5.799   4.414   5.158 -1.6955  1.2329 -0.8786
12660TIP3   OH259470   6.801   2.535  16.598  0.0235  0.3780  0.0310
12660TIP3    H159471   6.806   2.599  16.527  0.0307  0.7610  0.3736
12660TIP3    H259472   6.892   2.521  16.625 -0.0263  0.7327  0.4029
12661TIP3   OH259473   2.072   6.403   2.727  0.1686 -0.4064 -0.4964
12661TIP3    H159474   2.162   6.394   2.694  0.0661 -1.8711 -0.4278
12661TIP3    H259475   2.037   6.314   2.726 -0.2197 -0.4027  2.4941
12662TIP3   OH259476   6.329   0.242  13.644 -0.0631 -0.1455 -0.1225
12662TIP3    H159477   6.354   0.192  13.721 -0.0599  0.7016  0.4405
12662TIP3    H259478   6.404   0.300  13.627  0.5943 -1.3682 -1.6902
12663TIP3   OH259479   1.301   3.363   3.002  0.3124  0.2224 -0.5289
12663TIP3    H159480   1.374   3.351   3.063  0.8035  0.0279 -1.1487
12663TIP3    H259481   1.224   3.331   3.050  0.5934  0.6399  0.2094
12664TIP3   OH259482   5.431   0.376  14.896  0.0394  0.7877  0.2919
12664TIP3    H159483   5.451   0.370  14.990 -1.1825 -3.0549  0.4911
12664TIP3    H259484   5.497   0.436  14.861  1.4651  1.2144  3.3522
12665TIP3   OH259485   0.636   2.517  12.424  0.8551 -0.6945  0.1516
12665TIP3    H159486   0.684   2.564  12.356  0.4659 -1.6328 -0.8045
12665TIP3    H259487   0.701   2.498  12.491  1.3631 -0.1803 -0.1940
12666TIP3   OH259488   3.654   5.803  15.290  0.2681  0.1390 -0.1427
12666TIP3    H159489   3.743   5.777  15.314 -0.2825 -0.2474  1.6276
12666TIP3    H259490   3.664   5.887  15.247  1.4990  0.0423 -0.0838
12667TIP3   OH259491   1.162   1.549  13.740 -0.5122 -0.0836  0.2413
12667TIP3    H159492   1.237   1.556  13.681 -0.4240  2.6653  0.5266
12667TIP3    H259493   1.097   1.610  13.703 -1.8945 -1.0272  1.0096
12668TIP3   OH259494   4.344   0.504  15.576 -0.2588  0.5895  0.2377
12668TIP3    H159495   4.344   0.524  15.669 -0.6288 -0.2017  0.4138
12668TIP3    H259496   4.353   0.409  15.571 -3.1093  0.2495 -0.4275
12669TIP3   OH259497   0.580   2.385   2.141  0.8888  0.3706  0.7204
12669TIP3    H159498   0.621   2.446   2.203 -0.4778 -0.2816  2.3485
12669TIP3    H259499   0.488   2.383   2.166  0.1286  0.5426 -1.7854
12670TIP3   OH259500   4.339   0.153  16.345 -0.0008 -0.1926  0.4781
12670TIP3    H159501   4.268   0.093  16.323  0.2922 -0.6228  0.7102
12670TIP3    H259502   4.418   0.099  16.347  0.3207  0.2630  0.3362
12671TIP3   OH259503   5.981   1.372  16.239  0.8423  0.8209 -0.3215
12671TIP3    H159504   5.905   1.423  16.214  0.4857 -0.0885 -1.1476
12671TIP3    H259505   5.945   1.297  16.287  1.2585  0.7084 -0.1772
12672TIP3   OH259506   1.049   4.810  12.974 -0.4567 -0.0240  0.0264
12672TIP3    H159507   0.967   4.770  13.002  0.3197  0.3102  3.2104
12672TIP3    H259508   1.026   4.858  12.894 -2.5636 -2.4534 -0.9710
12673TIP3   OH259509   5.508   1.435  16.657  0.3691 -0.1790 -0.7679
12673TIP3    H159510   5.515   1.343  16.684  2.1596  0.5934  1.7248
12673TIP3    H259511   5.415   1.445  16.633 -0.8582 -1.7539  2.6603
12674TIP3   OH259512   4.996   0.545  15.332  0.3979 -0.1175 -0.2765
12674TIP3    H159513   4.972   0.452  15.340 -0.5885  0.2817  2.3137
12674TIP3    H259514   4.920   0.585  15.289 -0.5534 -0.0471  1.4007
12675TIP3   OH259515   0.349   3.575  12.889 -0.0544  0.7979  0.1261
12675TIP3    H159516   0.422   3.522  12.923  0.0798  1.0115  0.1753
12675TIP3    H259517   0.353   3.563  12.794  0.4123  1.2704  0.0774
12676TIP3   OH259518   5.998   3.950  13.610  0.3717  0.1611 -0.3257
12676TIP3    H159519   5.927   3.902  13.568  0.0439 -0.1878  0.5971
12676TIP3    H259520   6.039   3.999  13.539 -0.0563 -0.5366 -1.0772
12677TIP3   OH259521   0.816   3.523   0.431 -0.1146  0.0545  0.6517
12677TIP3    H159522   0.775   3.601   0.468 -1.6671 -0.5464  0.2904
12677TIP3    H259523   0.819   3.460   0.503  0.8534  0.3232  0.8619
12678TIP3   OH259524   5.812   4.234   1.141 -0.0979  0.0848  0.2192
12678TIP3    H159525   5.718   4.219   1.134 -0.0221 -0.3810  0.1550
12678TIP3    H259526   5.823   4.275   1.227 -0.3499  0.0631  0.2633
12679TIP3   OH259527   5.485   5.775  13.755  0.0464 -0.3824 -0.6119
12679TIP3    H159528   5.421   5.819  13.700  1.0982  3.3906  0.8710
12679TIP3    H259529   5.434   5.736  13.826 -0.7655  3.2090  0.9836
12680TIP3   OH259530   4.316   4.880  10.881 -0.3866  0.3427 -0.2856
12680TIP3    H159531   4.253   4.814  10.853 -0.1375 -0.4665  0.9951
12680TIP3    H259532   4.307   4.950  10.816  0.4787 -1.5784 -2.6053
12681TIP3   OH259533   1.914   1.043   3.718  0.3156 -0.4893  0.3233
12681TIP3    H159534   1.932   0.998   3.635  0.0476  1.1666 -0.6888
12681TIP3    H259535   1.829   1.010   3.745 -0.9009  0.8764 -1.5345
12682TIP3   OH259536   1.866   0.149   3.523 -0.4784  0.4304  0.4013
12682TIP3    H159537   1.793   0.093   3.498  2.5804 -2.9867 -1.9333
12682TIP3    H259538   1.896   0.112   3.607  0.1288  0.0582  0.0276
12683TIP3   OH259539   5.381   5.433  10.709 -0.0156  0.7655  0.0533
12683TIP3    H159540   5.301   5.386  10.685  0.2059  0.0688  0.6615
12683TIP3    H259541   5.444   5.411  10.640  0.4482 -0.7794  0.9436
12684TIP3   OH259542   1.092   6.720   2.677 -0.1452  0.6808 -0.3754
12684TIP3    H159543   1.031   6.759   2.614  0.1653 -0.5151 -1.4618
12684TIP3    H259544   1.176   6.764   2.660  0.5744 -1.3136 -2.6073
12685TIP3   OH259545   6.065   2.502   5.168 -0.4554  0.1313  0.2821
12685TIP3    H159546   6.008   2.436   5.127 -1.1563  0.8565  0.0696
12685TIP3    H259547   6.128   2.525   5.099 -0.4060 -0.0798  0.2551
12686TIP3   OH259548   5.748   3.213  15.034 -0.5967 -0.7865  0.2057
12686TIP3    H159549   5.843   3.204  15.024 -0.4805 -0.1360  0.6602
12686TIP3    H259550   5.720   3.259  14.955 -0.7434 -2.1687 -0.5849
12687TIP3   OH259551   0.456   6.356   2.896 -0.1535  0.2015  0.3350
12687TIP3    H159552   0.364   6.379   2.901 -0.1703  0.8368 -1.8718
12687TIP3    H259553   0.456   6.262   2.877 -0.3909  0.3831 -0.5993
12688TIP3   OH259554   3.292   3.862  11.335  0.0473  0.3477 -0.0869
12688TIP3    H159555   3.367   3.836  11.282  0.4043  0.8531  0.1716
12688TIP3    H259556   3.216   3.830  11.286  0.4343 -0.2756 -0.2799
12689TIP3   OH259557   4.084   1.705   4.167 -0.3804  0.3254 -0.0233
12689TIP3    H159558   4.133   1.629   4.199 -0.1936  1.0169  1.4402
12689TIP3    H259559   4.126   1.727   4.084  0.6879 -0.1418  0.3670
12690TIP3   OH259560   4.140   0.642  10.979 -0.1092  0.4486 -0.1132
12690TIP3    H159561   4.117   0.576  11.044 -1.9092  1.1806  0.0487
12690TIP3    H259562   4.188   0.709  11.029  2.6296 -1.1122 -0.4611
12691TIP3   OH259563   3.662   3.863  13.780 -0.2860  0.0736  0.0983
12691TIP3    H159564   3.711   3.938  13.813  0.9312  0.0642 -1.5585
12691TIP3    H259565   3.681   3.792  13.842 -0.8289  0.9041  1.2488
12692TIP3   OH259566   6.148   0.849  12.096 -0.0143  0.3423 -0.1838
12692TIP3    H159567   6.064   0.874  12.057 -0.0676  4.2190  1.8825
12692TIP3    H259568   6.149   0.753  12.091 -3.6942  0.2025 -1.9259
12693TIP3   OH259569   3.093   0.777  11.947 -0.2302 -0.1490  0.2566
12693TIP3    H159570   3.113   0.702  11.892  0.9607 -0.6449  1.3131
12693TIP3    H259571   2.999   0.790  11.938 -0.2172 -0.8430 -1.0702
12694TIP3   OH259572   4.562   5.480   3.994  0.0124  0.2238  0.0664
12694TIP3    H159573   4.618   5.420   4.043 -1.3157 -0.8784  0.2877
12694TIP3    H259574   4.551   5.438   3.909  1.2417  1.4953 -0.7736
12695TIP3   OH259575   1.872   0.768  12.688  0.5820 -0.0747 -0.4556
12695TIP3    H159576   1.794   0.758  12.634 -0.4337  0.4104  0.8898
12695TIP3    H259577   1.945   0.748  12.628 -0.5076  0.1856 -1.9224
12696TIP3   OH259578   3.503   3.996  11.599 -0.8870 -0.2191  0.0069
12696TIP3    H159579   3.510   3.933  11.528 -0.7754 -0.5719  0.3292
12696TIP3    H259580   3.591   4.002  11.635 -1.2531 -1.2800  1.1648
12697TIP3   OH259581   0.850   1.885  16.330  0.8709  0.4893 -0.3978
12697TIP3    H159582   0.782   1.924  16.274 -0.1701 -0.9551 -0.1973
12697TIP3    H259583   0.931   1.931  16.305 -0.0126  1.6262 -1.2837
12698TIP3   OH259584   1.052   5.776  13.485  0.3019 -0.6856 -0.6626
12698TIP3    H159585   0.969   5.783  13.438  0.1980 -0.0221 -0.3910
12698TIP3    H259586   1.073   5.683  13.482 -0.2880 -0.8152 -1.0124
12699TIP3   OH259587   1.979   2.588  13.106  0.3027  0.1460 -0.2361
12699TIP3    H159588   2.009   2.586  13.197  0.3576 -1.9097 -0.2477
12699TIP3    H259589   1.992   2.499  13.074 -0.1004  0.7110 -2.1544
12700TIP3   OH259590   0.223   2.365   2.017 -0.8414 -0.1102  0.2641
12700TIP3    H159591   0.272   2.408   2.088 -0.2936 -0.1662 -0.0737
12700TIP3    H259592   0.132   2.366   2.047 -0.7860  0.9512  0.4259
12701TIP3   OH259593   2.510   0.395   0.786 -0.1494 -0.0445 -0.0615
12701TIP3    H159594   2.502   0.440   0.702 -0.6421  0.1298  0.0742
12701TIP3    H259595   2.602   0.406   0.810 -0.4443  1.6604  0.3915
12702TIP3   OH259596   3.003   5.469   1.915 -0.2328  0.5195 -0.2426
12702TIP3    H159597   2.998   5.374   1.903  2.2413  0.5549 -2.5322
12702TIP3    H259598   3.081   5.483   1.968 -0.3908  1.2959 -0.1948
12703TIP3   OH259599   1.994   4.404   2.260 -0.2869 -0.3782 -0.1980
12703TIP3    H159600   2.006   4.494   2.231  0.3093 -0.0850  0.8973
12703TIP3    H259601   2.019   4.351   2.185  0.6857  0.3632 -0.4125
12704TIP3   OH259602   6.664   6.144  11.187  0.3022  0.4661 -0.0629
12704TIP3    H159603   6.577   6.171  11.215  0.6275  1.0488  0.4077
12704TIP3    H259604   6.662   6.153  11.092 -0.6808 -1.1390 -0.2242
12705TIP3   OH259605   6.276   3.462  16.294 -0.0806 -0.2440 -0.4202
12705TIP3    H159606   6.284   3.550  16.258  2.1942  0.6008  1.8658
12705TIP3    H259607   6.184   3.438  16.278 -0.5681  2.1899 -1.7677
12706TIP3   OH259608   4.647   3.699  14.646  0.4103  0.6472  0.3736
12706TIP3    H159609   4.680   3.673  14.732  0.5002  3.2994  1.2431
12706TIP3    H259610   4.551   3.694  14.654  0.3827  1.8435  1.0104
12707TIP3   OH259611   4.636   3.798  12.540 -0.1073 -0.0050  0.0055
12707TIP3    H159612   4.673   3.761  12.620  1.0260 -1.0023 -0.9469
12707TIP3    H259613   4.693   3.872  12.519 -0.6365  0.5000  0.3193
12708TIP3   OH259614   4.082   6.281   2.686 -0.0840  0.2921 -0.1509
12708TIP3    H159615   4.036   6.285   2.602 -0.0604  0.9531 -0.1382
12708TIP3    H259616   4.013   6.294   2.751  0.1224  1.4700 -0.1374
12709TIP3   OH259617   4.356   6.721  15.292  0.1846 -0.1116  0.0434
12709TIP3    H159618   4.375   6.627  15.297  0.6831  0.0450  1.2175
12709TIP3    H259619   4.436   6.764  15.322  0.7737  0.7803 -2.5632
12710TIP3   OH259620   4.783   1.831   3.409 -0.3159  0.4240  0.2262
12710TIP3    H159621   4.763   1.752   3.458 -0.4714  0.6812  0.5898
12710TIP3    H259622   4.809   1.895   3.476 -0.9891  0.9202  0.0351
12711TIP3   OH259623   1.601   5.007   3.357 -0.1608  0.0712  0.0457
12711TIP3    H159624   1.652   4.982   3.280  0.0788 -1.2737  0.6172
12711TIP3    H259625   1.529   4.943   3.360 -0.3530  0.3139  0.7467
12712TIP3   OH259626   1.250   4.243   2.791  0.0884  0.0168 -0.2396
12712TIP3    H159627   1.331   4.233   2.740 -0.8468 -0.7067 -1.6326
12712TIP3    H259628   1.256   4.176   2.858  1.6478  1.4135  1.0963
12713TIP3   OH259629   5.179   2.077  15.082 -0.0834  0.1691  0.3096
12713TIP3    H159630   5.211   1.990  15.059 -0.5866 -0.0404  0.3896
12713TIP3    H259631   5.098   2.087  15.032 -0.9485 -0.1131  1.5845
12714TIP3   OH259632   2.569   5.207   4.401 -0.0374  0.3114 -0.2460
12714TIP3    H159633   2.631   5.137   4.378  0.1663  0.4214 -0.0355
12714TIP3    H259634   2.502   5.163   4.454 -0.6018  0.0192 -1.1734
12715TIP3   OH259635   4.925   5.581  10.998  0.1012 -0.0968  0.0413
12715TIP3    H159636   5.012   5.614  11.022 -0.0175  0.8077 -0.7487
12715TIP3    H259637   4.940   5.529  10.919  0.2450 -1.7789  1.1234
12716TIP3   OH259638   4.985   3.705  16.815  0.2562 -0.6387 -0.1804
12716TIP3    H159639   4.922   3.682  16.747 -0.7762  1.0109  0.1638
12716TIP3    H259640   4.968   3.797  16.835  2.5089 -0.2293  0.2388
12717TIP3   OH259641   3.475   0.667   5.902  0.6153 -0.4170  0.2588
12717TIP3    H159642   3.399   0.624   5.863  0.8985 -0.6675 -0.0181
12717TIP3    H259643   3.518   0.710   5.829 -0.3288  1.3758  0.7141
12718TIP3   OH259644   5.178   6.201  14.212  0.1547  0.0000 -0.1194
12718TIP3    H159645   5.093   6.159  14.219  0.3550 -0.4324 -0.2365
12718TIP3    H259646   5.214   6.169  14.129 -0.1240  1.2034 -0.7228
12719TIP3   OH259647   0.728   3.241  13.054 -0.4059  0.5313  0.8884
12719TIP3    H159648   0.822   3.254  13.057  0.0306 -1.7080 -0.7987
12719TIP3    H259649   0.715   3.148  13.072 -1.9863  0.1036 -1.8560
12720TIP3   OH259650   1.634   5.192   2.073 -0.3044  0.0312  0.0649
12720TIP3    H159651   1.667   5.280   2.092  0.5701 -0.0568 -0.9807
12720TIP3    H259652   1.695   5.156   2.008 -0.5291 -1.4253  0.6112
12721TIP3   OH259653   5.010   0.484  16.319 -0.4867  0.2010 -0.1487
12721TIP3    H159654   4.976   0.426  16.387 -1.7773  0.1017 -0.8370
12721TIP3    H259655   5.067   0.429  16.266  1.1674  0.4612  1.2569
12722TIP3   OH259656   2.940   2.286  12.216  0.0803 -0.4469  0.1147
12722TIP3    H159657   2.862   2.321  12.173  0.6290  1.7662  0.8222
12722TIP3    H259658   3.011   2.303  12.155  0.4153  0.0269  0.6297
12723TIP3   OH259659   3.079   2.830  16.057 -0.2129 -0.2891 -0.1677
12723TIP3    H159660   3.094   2.738  16.037  1.3504 -0.2094  0.5482
12723TIP3    H259661   3.163   2.873  16.041 -0.8635  0.9944 -0.3289
12724TIP3   OH259662   2.575   5.008  14.134  0.1035 -0.6925 -0.1256
12724TIP3    H159663   2.516   4.933  14.142 -1.8294  0.8674  1.7404
12724TIP3    H259664   2.544   5.055  14.057  0.2999 -0.9909 -0.3869
12725TIP3   OH259665   4.404   6.151   1.856 -0.9039 -0.0350  0.4100
12725TIP3    H159666   4.391   6.184   1.767  0.5098 -1.0630 -0.2290
12725TIP3    H259667   4.316   6.134   1.889 -1.4859  1.0916 -0.4953
12726TIP3   OH259668   4.692   5.090   0.512  0.1481 -0.4958 -0.1664
12726TIP3    H159669   4.761   5.155   0.527  2.1831 -2.5457 -0.0949
12726TIP3    H259670   4.655   5.076   0.599 -1.7795  1.9709 -0.4772
12727TIP3   OH259671   6.063   4.812  13.570  0.2581  0.5512 -0.5408
12727TIP3    H159672   6.128   4.851  13.628  0.4002  1.8356 -1.5224
12727TIP3    H259673   5.987   4.870  13.576 -1.1261 -1.2703  1.0875
12728TIP3   OH259674   3.206   5.309  12.404 -0.2340 -0.5399 -0.0998
12728TIP3    H159675   3.193   5.273  12.492 -0.5551 -3.1214 -1.0967
12728TIP3    H259676   3.270   5.250  12.364  0.7599  1.2507 -1.2680
12729TIP3   OH259677   5.346   1.515  13.393 -0.2349 -0.2108  0.1520
12729TIP3    H159678   5.288   1.487  13.463 -1.2660 -0.3604 -0.7434
12729TIP3    H259679   5.357   1.437  13.338  1.7325 -0.5153  0.8948
12730TIP3   OH259680   4.043   6.811   4.502  0.0497 -0.2143  0.1075
12730TIP3    H159681   3.994   6.822   4.583 -0.9916 -1.1055 -0.3766
12730TIP3    H259682   4.070   6.720   4.501 -1.3010 -0.6486 -1.2452
12731TIP3   OH259683   0.909   6.174  14.062  0.7015  0.2003 -0.4086
12731TIP3    H159684   0.903   6.269  14.052 -0.6993  0.3798  1.6220
12731TIP3    H259685   0.917   6.160  14.156 -0.3684 -1.7364 -0.5516
12732TIP3   OH259686   5.828   6.340  10.268 -0.4681  0.1242 -0.2188
12732TIP3    H159687   5.763   6.328  10.337  0.6269  0.1936  0.8517
12732TIP3    H259688   5.872   6.256  10.260 -0.3677  0.2082 -0.6018
12733TIP3   OH259689   3.200   0.421  14.089 -0.1241 -0.1306 -0.0761
12733TIP3    H159690   3.247   0.502  14.106  0.7274 -0.2289 -1.8110
12733TIP3    H259691   3.124   0.447  14.037 -1.8055 -0.0405  2.2714
12734TIP3   OH259692   1.395   2.152  13.703  0.0613 -0.0797 -0.5670
12734TIP3    H159693   1.375   2.108  13.620  0.6391 -0.1287 -0.6883
12734TIP3    H259694   1.408   2.080  13.765 -0.1089 -0.0510 -0.5002
12735TIP3   OH259695   2.770   1.003   2.271 -0.2136  1.1500 -0.1802
12735TIP3    H159696   2.811   0.974   2.352 -1.0824  0.2808 -0.0198
12735TIP3    H259697   2.738   0.922   2.231 -0.4812  1.6518 -1.0025
12736TIP3   OH259698   6.274   1.851   5.332 -0.2231  0.1824  0.1381
12736TIP3    H159699   6.242   1.911   5.400  1.2677  1.2293 -0.0363
12736TIP3    H259700   6.241   1.888   5.250 -1.6107 -0.8132  0.1977
12737TIP3   OH259701   5.772   2.461   3.192  0.5712  0.0652 -0.2068
12737TIP3    H159702   5.744   2.370   3.200 -0.5063  0.1664 -2.3454
12737TIP3    H259703   5.698   2.512   3.224  1.1725  0.2145  0.9845
12738TIP3   OH259704   3.448   4.119  16.771 -0.9857  0.2895 -0.6903
12738TIP3    H159705   3.510   4.171  16.719 -0.6259  1.8061  1.1577
12738TIP3    H259706   3.385   4.183  16.805 -1.6100 -0.7465  0.1652
12739TIP3   OH259707   6.080   3.578  13.951 -0.0317  0.2898 -0.2760
12739TIP3    H159708   6.089   3.671  13.976  0.3477  0.7633 -2.0628
12739TIP3    H259709   6.170   3.548  13.939 -0.1292 -0.4720  0.7548
12740TIP3   OH259710   6.391   2.154  16.616  0.3179  0.2702 -0.3145
12740TIP3    H159711   6.422   2.094  16.549 -0.2173 -1.0843  0.6196
12740TIP3    H259712   6.470   2.199  16.647  0.7246  0.0235 -0.9766
12741TIP3   OH259713   2.385   5.809   1.680  0.0888  0.2859  0.2735
12741TIP3    H159714   2.439   5.877   1.720 -0.3193 -0.0057  1.3535
12741TIP3    H259715   2.314   5.857   1.638 -0.1134  0.5489  0.8978
12742TIP3   OH259716   3.145   0.203   2.258  0.3429  0.0121 -0.2509
12742TIP3    H159717   3.132   0.225   2.350  0.5853  0.5943 -0.3509
12742TIP3    H259718   3.061   0.221   2.217 -0.3260 -1.9139  0.1448
12743TIP3   OH259719   3.680   5.012  15.483 -0.0747 -0.1623  0.9828
12743TIP3    H159720   3.665   4.931  15.532 -1.6840 -1.3787 -1.3406
12743TIP3    H259721   3.645   4.994  15.396 -0.4321  3.0466  0.3490
12744TIP3   OH259722   3.150   6.526  16.286  0.1146 -0.1328  0.5830
12744TIP3    H159723   3.241   6.502  16.269  0.0023 -0.8188  0.9024
12744TIP3    H259724   3.111   6.537  16.199  0.4514 -0.0613  0.4422
12745TIP3   OH259725   6.669   2.422   5.915  0.2639 -0.1830 -0.1761
12745TIP3    H159726   6.729   2.442   5.987 -0.3903 -0.6699  0.5157
12745TIP3    H259727   6.595   2.481   5.928 -0.4908 -1.2334  0.3675
12746TIP3   OH259728   5.381   5.862  15.294  0.1221  0.1581 -0.3522
12746TIP3    H159729   5.475   5.846  15.297  0.2124  0.4702 -1.1283
12746TIP3    H259730   5.346   5.791  15.240 -0.4513 -1.3949  1.9454
12747TIP3   OH259731   4.214   4.085  12.671 -0.0456  0.6720 -0.1328
12747TIP3    H159732   4.270   4.107  12.746 -0.0747 -1.0426  0.4231
12747TIP3    H259733   4.176   4.169  12.645  1.2941  1.5862  0.6718
12748TIP3   OH259734   3.433   1.994   4.572 -0.1407 -0.3479  0.6348
12748TIP3    H159735   3.342   2.011   4.547 -0.9208 -2.2610  1.9646
12748TIP3    H259736   3.467   1.941   4.500 -0.0062  0.4973  0.0605
12749TIP3   OH259737   2.413   0.535  12.304  0.3241  0.0171 -0.0560
12749TIP3    H159738   2.497   0.519  12.259 -1.0671 -0.3978 -2.7043
12749TIP3    H259739   2.406   0.463  12.366  0.8881 -1.3306 -1.4732
12750TIP3   OH259740   1.189   1.869  13.872 -0.1454 -0.0503  0.1339
12750TIP3    H159741   1.276   1.850  13.838 -0.2670 -0.7401  0.1767
12750TIP3    H259742   1.176   1.962  13.856 -0.8394 -0.6051 -3.1794
12751TIP3   OH259743   2.638   1.989   2.419  0.1021 -0.0924  0.1769
12751TIP3    H159744   2.548   1.990   2.387  0.8500 -0.5008 -2.1511
12751TIP3    H259745   2.657   1.896   2.435  0.3962 -0.1244 -0.3198
12752TIP3   OH259746   5.756   5.163  14.962 -0.1974 -0.0123  0.0807
12752TIP3    H159747   5.816   5.125  15.025  0.0022  1.1902  0.6569
12752TIP3    H259748   5.806   5.233  14.921 -1.1464  0.9619  0.5172
12753TIP3   OH259749   4.241   3.395   1.692  0.2202  0.1044  0.3578
12753TIP3    H159750   4.283   3.356   1.769 -0.5684 -0.9222  0.3006
12753TIP3    H259751   4.311   3.405   1.628  0.3858 -1.7358  0.2007
12754TIP3   OH259752   2.350   6.052   4.947  0.5309 -0.2452  0.3594
12754TIP3    H159753   2.303   6.048   5.031  1.0730 -0.6676  0.6452
12754TIP3    H259754   2.282   6.075   4.883  0.2146  0.6246  0.9891
12755TIP3   OH259755   5.758   0.210  15.914 -0.2086  0.1060 -0.1786
12755TIP3    H159756   5.806   0.182  15.835  1.6616 -0.1254  0.9817
12755TIP3    H259757   5.796   0.295  15.935 -3.2028  1.9276 -1.4912
12756TIP3   OH259758   0.438   4.922   5.219  0.1818 -0.1864 -0.1376
12756TIP3    H159759   0.412   4.968   5.139 -3.8902  0.6469  1.4408
12756TIP3    H259760   0.410   4.832   5.205  0.8517 -0.3888 -0.1978
12757TIP3   OH259761   5.026   2.713   5.715  0.1597 -0.6438 -0.4964
12757TIP3    H159762   5.100   2.679   5.766  2.0132  1.6450 -1.5093
12757TIP3    H259763   4.966   2.639   5.710  2.6373 -2.8499 -0.1674
12758TIP3   OH259764   2.025   1.202   4.641 -0.3523  0.0218 -0.2869
12758TIP3    H159765   2.112   1.231   4.615  1.1251 -2.2690  1.7159
12758TIP3    H259766   1.973   1.206   4.560  2.0052  0.0261 -1.8854
12759TIP3   OH259767   5.673   3.149   4.301 -0.2068 -0.5578 -0.1822
12759TIP3    H159768   5.727   3.160   4.379 -0.3460 -0.4693 -0.0980
12759TIP3    H259769   5.603   3.214   4.311 -0.1590 -0.4673 -0.4358
12760TIP3   OH259770   2.340   2.966   0.581  0.5037 -0.3317  1.0265
12760TIP3    H159771   2.403   3.009   0.524 -0.1717  1.3212  1.4813
12760TIP3    H259772   2.393   2.916   0.643  1.2740 -0.8588 -0.0163
12761TIP3   OH259773   6.171   6.032   3.499 -0.1159  0.1036  0.6334
12761TIP3    H159774   6.260   6.031   3.465  1.0611  2.0310  3.3101
12761TIP3    H259775   6.134   6.114   3.469 -0.8578 -0.4712 -0.0716
12762TIP3   OH259776   6.072   0.337   0.587  0.1531 -0.9140 -0.3543
12762TIP3    H159777   6.132   0.410   0.602  1.8323 -1.7746 -2.3338
12762TIP3    H259778   5.986   0.371   0.610  1.0481  1.2629  0.0139
12763TIP3   OH259779   2.908   2.237  13.408 -0.0918 -0.0080 -0.2815
12763TIP3    H159780   2.812   2.234  13.398 -0.1073 -0.0393 -0.1236
12763TIP3    H259781   2.941   2.208  13.323 -0.2229  0.0482 -0.3533
12764TIP3   OH259782   4.194   6.728  11.227 -0.4224  0.2609 -0.2036
12764TIP3    H159783   4.145   6.684  11.296  0.6264 -0.2866  0.2040
12764TIP3    H259784   4.197   6.665  11.155 -1.3122  0.7415 -0.6732
12765TIP3   OH259785   5.867   3.187   1.557  0.4417 -0.1144  0.4375
12765TIP3    H159786   5.869   3.254   1.625  0.6960 -1.0409  1.3794
12765TIP3    H259787   5.859   3.235   1.475  2.0680  1.1221  0.9732
12766TIP3   OH259788   3.131   3.262  11.426 -0.4260  1.1509 -0.4281
12766TIP3    H159789   3.187   3.288  11.353 -1.6641  0.4579 -1.6479
12766TIP3    H259790   3.045   3.247  11.387 -0.8236 -0.4400  0.9640
12767TIP3   OH259791   0.189   4.706  14.219  0.1932  0.3840 -0.4471
12767TIP3    H159792   0.116   4.649  14.241 -1.5788  2.6430 -0.1039
12767TIP3    H259793   0.267   4.658  14.249 -1.4483 -0.1025  3.7261
12768TIP3   OH259794   4.092   0.541  15.469  0.1797 -0.0054 -0.0352
12768TIP3    H159795   4.179   0.511  15.494 -0.4330 -1.1809  0.8067
12768TIP3    H259796   4.102   0.634  15.451  1.2828  0.2576  1.7546
12769TIP3   OH259797   0.880   2.529  12.544 -0.5713 -0.1900  0.1591
12769TIP3    H159798   0.946   2.558  12.481 -0.9711 -1.2261 -0.7682
12769TIP3    H259799   0.929   2.478  12.609 -0.4620 -1.1645 -0.6581
12770TIP3   OH259800   0.934   4.783  16.332  0.4440 -0.3929  0.5067
12770TIP3    H159801   0.917   4.875  16.349 -0.1231 -0.7255  1.8187
12770TIP3    H259802   1.030   4.778  16.322  0.2963  0.7694 -2.5454
12771TIP3   OH259803   2.587   3.869   0.502  0.2868  0.2540 -0.1025
12771TIP3    H159804   2.616   3.960   0.495  0.5543  0.2721  0.9706
12771TIP3    H259805   2.643   3.821   0.442  1.5388  0.5134  0.8289
12772TIP3   OH259806   4.128   2.805  16.276  0.5918 -0.4323 -0.4341
12772TIP3    H159807   4.130   2.718  16.315 -1.1268  0.0496  0.8454
12772TIP3    H259808   4.161   2.863  16.344  0.7532  0.0530 -0.9153
12773TIP3   OH259809   1.267   0.385  12.315  0.1120  0.4135 -0.1087
12773TIP3    H159810   1.330   0.368  12.244 -1.6769 -0.2341 -1.6320
12773TIP3    H259811   1.182   0.387  12.271 -1.0814 -0.0671  2.0425
12774TIP3   OH259812   0.551   5.604  14.618 -0.2392  0.7991  0.7814
12774TIP3    H159813   0.645   5.616  14.601 -0.4957 -0.5890 -2.3287
12774TIP3    H259814   0.509   5.671  14.564 -1.0744 -0.4529 -0.1671
12775TIP3   OH259815   4.335   0.364   0.709  0.6456 -0.1258  0.1474
12775TIP3    H159816   4.364   0.318   0.788  0.6008  0.0917  0.2912
12775TIP3    H259817   4.241   0.346   0.703  0.4782  0.5493  0.6145
12776TIP3   OH259818   5.303   3.797  12.476  0.6837 -0.0029 -0.0362
12776TIP3    H159819   5.236   3.739  12.513  0.3752  0.3114 -0.1014
12776TIP3    H259820   5.268   3.823  12.391  0.6900  0.5064  0.1132
12777TIP3   OH259821   3.007   1.303  11.606  0.4235  0.2150  0.1023
12777TIP3    H159822   2.984   1.253  11.684 -0.7234 -0.3845 -0.5805
12777TIP3    H259823   2.941   1.372  11.602  0.5049  0.2722 -0.2970
12778TIP3   OH259824   0.250   5.497  15.407  0.0952 -0.0104 -0.9926
12778TIP3    H159825   0.260   5.467  15.316 -1.1272 -2.3038 -0.4411
12778TIP3    H259826   0.185   5.438  15.445 -0.0150  1.3947  1.1855
12779TIP3   OH259827   4.527   0.410   3.952 -0.1425  0.1471 -0.0722
12779TIP3    H159828   4.458   0.477   3.958  0.6848  1.0111  0.1249
12779TIP3    H259829   4.608   0.459   3.967  0.4419 -1.0040  0.6720
12780TIP3   OH259830   6.104   2.773   4.392  0.4539  0.3208  0.6776
12780TIP3    H159831   6.065   2.687   4.408  0.3183  0.2838  0.1685
12780TIP3    H259832   6.035   2.822   4.347 -0.0590  1.2377  2.3868
12781TIP3   OH259833   6.371   4.878   0.045  0.8421  0.0904 -0.2076
12781TIP3    H159834   6.389   4.784   0.052 -0.6951 -0.2168 -0.0411
12781TIP3    H259835   6.454   4.916   0.016  1.5856 -1.2702  0.0477
12782TIP3   OH259836   6.520   6.214  12.918 -0.5356  0.1152  0.1395
12782TIP3    H159837   6.445   6.238  12.864 -0.9932  1.1211  1.1708
12782TIP3    H259838   6.593   6.265  12.882 -0.3437 -0.8303 -0.8369
12783TIP3   OH259839   4.527   1.491  10.647 -0.0974  0.0765 -0.1150
12783TIP3    H159840   4.606   1.450  10.613  1.5121  1.0686  2.1388
12783TIP3    H259841   4.463   1.420  10.653  0.1648 -0.5214 -3.0458
12784TIP3   OH259842   3.453   5.241   1.513  0.0875  0.3166 -0.2871
12784TIP3    H159843   3.366   5.268   1.483  0.8644  0.1855 -2.9241
12784TIP3    H259844   3.449   5.145   1.514  0.3099  0.2998 -0.8101
12785TIP3   OH259845   1.510   3.176   3.760 -0.0244 -0.1259 -0.8258
12785TIP3    H159846   1.467   3.103   3.715  2.0829 -1.0599 -1.4500
12785TIP3    H259847   1.553   3.226   3.691  0.5541  0.2998 -0.1801
12786TIP3   OH259848   5.917   3.801   6.029 -0.0389  0.4734 -0.3072
12786TIP3    H159849   5.902   3.882   5.981  0.2339  0.0052 -1.2100
12786TIP3    H259850   5.886   3.819   6.118  0.2777  1.6438 -0.4214
12787TIP3   OH259851   1.004   3.204   3.398  0.3169  0.0197 -0.7113
12787TIP3    H159852   1.061   3.271   3.361  1.4793 -1.0406 -0.9118
12787TIP3    H259853   1.043   3.121   3.370  0.7204 -0.8290  2.0100
12788TIP3   OH259854   1.747   2.577  12.418 -0.5110 -0.1059  0.0082
12788TIP3    H159855   1.817   2.572  12.353 -1.5763  1.3049 -1.3149
12788TIP3    H259856   1.780   2.639  12.483 -0.2375  0.0107 -0.2369
12789TIP3   OH259857   2.374   2.187  14.475 -0.4156  0.3858 -0.0174
12789TIP3    H159858   2.407   2.272  14.446 -0.2780  0.6412  0.8569
12789TIP3    H259859   2.326   2.153  14.400  0.8953  0.5080 -0.9412
12790TIP3   OH259860   3.419   3.119   5.322  0.1523 -0.0710 -0.1427
12790TIP3    H159861   3.397   3.028   5.340  0.0810 -0.2461 -1.0554
12790TIP3    H259862   3.338   3.158   5.289 -0.0260  0.5376  0.9638
12791TIP3   OH259863   5.940   5.600  13.198  0.8089  0.6269  0.0069
12791TIP3    H159864   5.978   5.512  13.190 -2.0825 -0.9170  1.3637
12791TIP3    H259865   5.960   5.626  13.288 -0.5664  0.1008  0.5018
12792TIP3   OH259866   0.918   4.088   3.549 -0.4618  0.3884  0.3271
12792TIP3    H159867   0.834   4.044   3.535  1.1921 -2.1832 -2.9512
12792TIP3    H259868   0.935   4.132   3.466  1.5653  0.6289  0.8370
12793TIP3   OH259869   6.493   5.042   3.636 -0.5119 -0.1242  0.0107
12793TIP3    H159870   6.497   5.133   3.666  0.7181 -0.1187 -0.1208
12793TIP3    H259871   6.448   5.046   3.551  0.4244  0.5024 -0.4675
12794TIP3   OH259872   1.754   2.989  15.433  0.2667 -0.0720 -0.3531
12794TIP3    H159873   1.785   2.950  15.351  0.1273 -1.4429  0.2280
12794TIP3    H259874   1.677   2.938  15.456  1.2877 -0.8630  1.5310
12795TIP3   OH259875   0.294   2.041  12.635  0.0407 -0.1696  0.4283
12795TIP3    H159876   0.253   2.112  12.585  1.1570  0.4909  0.3997
12795TIP3    H259877   0.387   2.046  12.612  0.3938 -0.6271  1.6377
12796TIP3   OH259878   6.161   1.912  15.067 -0.3068 -0.2418  0.2583
12796TIP3    H159879   6.088   1.973  15.057 -0.8621 -0.8067  0.7549
12796TIP3    H259880   6.236   1.958  15.029 -1.0282  0.1249 -0.7554
12797TIP3   OH259881   3.187   4.553   4.073 -0.0998  0.2905 -0.2592
12797TIP3    H159882   3.129   4.596   4.010 -1.4836  0.7444  1.2612
12797TIP3    H259883   3.150   4.466   4.084  0.2538  0.1428 -0.2207
12798TIP3   OH259884   5.966   0.066  11.760 -0.3648  0.0239 -0.1150
12798TIP3    H159885   5.946   0.152  11.723  0.0883  1.0097  1.7655
12798TIP3    H259886   5.891   0.046  11.817  0.4755  0.2091  1.1043
12799TIP3   OH259887   1.766   4.782   0.492  0.2704 -0.2381  0.3547
12799TIP3    H159888   1.847   4.833   0.489 -0.6737  1.2963 -1.3339
12799TIP3    H259889   1.781   4.708   0.433  0.2601  0.3772 -0.4374
12800TIP3   OH259890   6.681   0.779  13.028  0.3474 -0.6093 -0.5080
12800TIP3    H159891   6.632   0.698  13.046 -0.9964  0.3266  0.2133
12800TIP3    H259892   6.614   0.847  13.028  1.4167  0.4620 -1.4824
12801TIP3   OH259893   4.943   2.067   3.026  0.0711  0.0783  0.3187
12801TIP3    H159894   4.958   1.973   3.014  0.4906  0.3842 -1.9006
12801TIP3    H259895   5.010   2.094   3.089 -0.2754 -1.1362  1.2618
12802TIP3   OH259896   5.391   3.164  16.788  0.1194 -0.3185  0.2472
12802TIP3    H159897   5.390   3.191  16.880  1.4358  0.2506  0.1233
12802TIP3    H259898   5.470   3.110  16.780 -1.9207 -3.5091  0.2501
12803TIP3   OH259899   4.765   2.599   4.702  0.0910  0.1494 -0.1115
12803TIP3    H159900   4.801   2.687   4.695  1.6227 -0.5554 -1.8171
12803TIP3    H259901   4.841   2.541   4.698 -0.7822 -1.2688  2.0292
12804TIP3   OH259902   3.736   4.501  14.127 -0.3624 -0.4333  0.2169
12804TIP3    H159903   3.694   4.500  14.041  0.0177  0.6165  0.0135
12804TIP3    H259904   3.772   4.413  14.136 -0.8309 -0.7100 -0.4804
12805TIP3   OH259905   1.386   1.070   1.850  0.2413  0.2004  0.0806
12805TIP3    H159906   1.442   1.105   1.918 -0.5025 -0.3832  1.0296
12805TIP3    H259907   1.429   1.094   1.768 -0.5417  3.9013  0.5744
12806TIP3   OH259908   4.968   6.089  11.757 -0.7164 -0.8217 -0.2420
12806TIP3    H159909   4.894   6.146  11.776 -0.8545 -1.1682  0.2889
12806TIP3    H259910   5.036   6.117  11.819 -0.9621 -1.5614  0.3839
12807TIP3   OH259911   5.372   5.150   5.813 -0.3709  0.0902  0.9789
12807TIP3    H159912   5.447   5.157   5.872  1.1145 -0.5984 -0.7213
12807TIP3    H259913   5.346   5.241   5.797  0.7655  0.4105  0.8305
12808TIP3   OH259914   4.399   1.833  14.110 -0.2150  0.4509 -0.5806
12808TIP3    H159915   4.422   1.926  14.110  0.0594  0.3830 -0.4442
12808TIP3    H259916   4.429   1.801  14.195 -2.7733  0.8317  0.5673
12809TIP3   OH259917   4.704   1.160   5.779  0.1376 -0.5111 -0.3801
12809TIP3    H159918   4.614   1.130   5.793 -1.0820  2.8027 -0.3469
12809TIP3    H259919   4.734   1.185   5.867  0.2148  0.5622 -0.7055
12810TIP3   OH259920   2.976   2.720   0.416 -0.1339 -0.4732 -0.2963
12810TIP3    H159921   2.966   2.677   0.331  0.0458  0.3745 -0.7614
12810TIP3    H259922   3.020   2.803   0.396  1.1631 -0.8639  0.7867
12811TIP3   OH259923   2.562   4.530   3.856 -0.0991  0.4786  0.0469
12811TIP3    H159924   2.614   4.455   3.884  0.6762  1.2452  0.7662
12811TIP3    H259925   2.616   4.606   3.881 -2.5654  1.4314  3.0830
12812TIP3   OH259926   3.608   2.671   2.457 -0.1997 -0.7973  0.0290
12812TIP3    H159927   3.630   2.581   2.433  0.1836 -1.1153  1.5004
12812TIP3    H259928   3.516   2.666   2.485 -0.2029 -0.7100  0.0332
12813TIP3   OH259929   3.071   1.713   2.179  0.0152  0.0039  0.2496
12813TIP3    H159930   2.983   1.742   2.157  0.4772  1.9255  0.6742
12813TIP3    H259931   3.124   1.737   2.103  0.2955 -0.4877  0.2833
12814TIP3   OH259932   0.556   0.645   1.263  0.2732  0.1213  0.4086
12814TIP3    H159933   0.618   0.717   1.254  0.9091 -0.2676  1.4435
12814TIP3    H259934   0.514   0.660   1.348 -1.1485  0.4403 -0.3227
12815TIP3   OH259935   4.238   6.213   4.410  0.6197 -0.0344  0.5077
12815TIP3    H159936   4.250   6.175   4.323  0.7597 -0.4247  0.6945
12815TIP3    H259937   4.143   6.223   4.419  0.6666  2.8815 -0.8997
12816TIP3   OH259938   2.543   1.664  12.912 -0.2216 -0.1968 -0.3475
12816TIP3    H159939   2.451   1.642  12.928  0.1101 -1.2013  0.2255
12816TIP3    H259940   2.562   1.628  12.826  0.1571 -1.7274  0.3428
12817TIP3   OH259941   3.751   2.006   1.859  0.1710  0.4332 -0.3895
12817TIP3    H159942   3.805   2.038   1.787  0.9866  0.3439  0.1689
12817TIP3    H259943   3.798   2.034   1.938 -0.1557 -0.3834  0.1049
12818TIP3   OH259944   3.088   3.119   0.658  0.1765  0.5421 -0.1523
12818TIP3    H159945   3.067   3.083   0.744  0.8505 -0.8225 -0.5219
12818TIP3    H259946   3.166   3.172   0.673 -0.6312  1.6208  0.3440
12819TIP3   OH259947   5.892   6.670   6.290 -0.2808 -0.1941  0.8745
12819TIP3    H159948   5.924   6.722   6.216 -1.1237 -1.3004 -0.3220
12819TIP3    H259949   5.839   6.731   6.342 -0.6151  0.3389 -0.0657
12820TIP3   OH259950   6.089   5.189   1.338 -0.2478  0.0060 -0.3694
12820TIP3    H159951   6.048   5.137   1.269  1.2714 -1.6133 -0.1157
12820TIP3    H259952   6.100   5.276   1.300  1.0864 -0.9942 -2.3944
12821TIP3   OH259953   1.158   4.544  13.401 -0.0892 -0.1681 -0.3042
12821TIP3    H159954   1.170   4.477  13.468  1.0879 -0.5822 -0.9028
12821TIP3    H259955   1.071   4.581  13.419  0.6600  0.5511  2.1289
12822TIP3   OH259956   2.580   4.090  14.833 -0.0355  0.2571 -0.0908
12822TIP3    H159957   2.625   4.119  14.912 -0.0289  0.4186 -0.1530
12822TIP3    H259958   2.564   4.171  14.784  1.0430  0.0524 -0.8277
12823TIP3   OH259959   4.197   2.029   5.907 -0.0297  0.2986 -0.1950
12823TIP3    H159960   4.172   1.974   5.981 -3.0794  3.1738  1.1778
12823TIP3    H259961   4.252   2.097   5.946  1.1016  0.0405 -1.2687
12824TIP3   OH259962   6.389   5.294   2.357 -0.0203 -0.2269 -0.1311
12824TIP3    H159963   6.485   5.294   2.353 -0.0520  0.2631 -0.9603
12824TIP3    H259964   6.361   5.281   2.267 -0.7513 -2.5777  0.3510
12825TIP3   OH259965   3.765   2.775  11.185 -0.4299 -0.4186  0.1477
12825TIP3    H159966   3.702   2.755  11.115  0.4463 -0.4159 -0.6534
12825TIP3    H259967   3.722   2.743  11.265 -0.6910 -2.0737 -0.6061
12826TIP3   OH259968   2.189   2.334  10.615 -0.3389  0.1781 -0.0990
12826TIP3    H159969   2.272   2.285  10.622  0.8361  2.1483  0.4754
12826TIP3    H259970   2.132   2.276  10.565  0.8920 -1.8646  0.7241
12827TIP3   OH259971   2.817   6.197   0.311 -0.3234 -0.2418 -0.1017
12827TIP3    H159972   2.738   6.159   0.273 -0.3336 -0.6090  0.2703
12827TIP3    H259973   2.818   6.287   0.281 -0.5982 -0.3851 -0.5505
12828TIP3   OH259974   6.170   0.397  11.434  0.1220  0.4507 -1.1095
12828TIP3    H159975   6.127   0.465  11.486  0.5685 -0.4955  0.5627
12828TIP3    H259976   6.125   0.316  11.458  1.3675 -0.2322 -0.9910
12829TIP3   OH259977   0.387   3.970  16.041 -0.1704 -0.2754  0.4261
12829TIP3    H159978   0.426   3.986  15.955 -0.9725  0.0140  0.1069
12829TIP3    H259979   0.407   3.878  16.060 -0.1549 -0.3936 -0.1570
12830TIP3   OH259980   5.289   0.576   0.231  0.0479  0.4051 -0.0690
12830TIP3    H159981   5.342   0.655   0.240  1.5514 -0.4362 -0.9287
12830TIP3    H259982   5.273   0.547   0.321  3.2780 -0.6549  0.3058
12831TIP3   OH259983   3.876   1.382  12.558  0.1228 -0.1253 -0.2051
12831TIP3    H159984   3.868   1.286  12.564  1.8628 -0.3374 -0.7111
12831TIP3    H259985   3.956   1.402  12.605  0.6647  0.8890 -1.5192
12832TIP3   OH259986   3.637   5.757   2.163  0.0346 -0.5260  0.0195
12832TIP3    H159987   3.654   5.669   2.194  2.1374  0.5847  2.4080
12832TIP3    H259988   3.689   5.764   2.082  1.9364 -0.7967  1.1467
12833TIP3   OH259989   2.769   3.324   2.731 -0.1747 -0.3377 -0.3255
12833TIP3    H159990   2.775   3.327   2.826 -1.0635  0.9411 -0.2726
12833TIP3    H259991   2.859   3.336   2.701  0.2844 -1.8997  0.3248
12834TIP3   OH259992   4.528   3.457  11.554  0.4915 -0.0601  0.1228
12834TIP3    H159993   4.587   3.515  11.506 -1.4904  1.8983 -0.0732
12834TIP3    H259994   4.461   3.433  11.490 -1.0747  0.9621  1.3224
12835TIP3   OH259995   6.006   1.442   4.676 -0.0904 -0.6660  0.2640
12835TIP3    H159996   6.052   1.447   4.592 -0.0992 -0.9123  0.2432
12835TIP3    H259997   5.926   1.394   4.656 -0.3249 -0.3005  0.3138
12836TIP3   OH259998   1.679   5.734   1.405 -0.1342 -0.6907 -0.1089
12836TIP3    H159999   1.664   5.710   1.313  1.8362  1.3189 -1.0522
12836TIP3    H260000   1.774   5.729   1.415 -0.1080  1.2781  1.1346
12837TIP3   OH260001   5.644   2.099  13.594 -0.4750 -0.3036  0.0537
12837TIP3    H160002   5.657   2.183  13.637 -2.4154 -0.3651  0.8603
12837TIP3    H260003   5.552   2.100  13.567 -1.1236 -2.9426  1.8634
12838TIP3   OH260004   1.227   5.391   1.996 -0.7284  0.0088 -0.3793
12838TIP3    H160005   1.144   5.344   1.999  0.2779 -1.7798  0.9051
12838TIP3    H260006   1.210   5.464   1.936 -3.4115  0.1223  0.3684
12839TIP3   OH260007   0.025   4.524  15.687  0.2961  0.0619 -0.6653
12839TIP3    H160008  -0.029   4.453  15.651  1.2617 -0.7508 -0.5396
12839TIP3    H260009   0.113   4.507  15.655  0.4832  1.4420 -0.9535
12840TIP3   OH260010   4.804   0.659  15.146 -0.0108  0.2314 -0.2563
12840TIP3    H160011   4.731   0.704  15.103 -0.0990 -0.3538 -0.7359
12840TIP3    H260012   4.860   0.730  15.178 -1.5450  0.7292  1.4976
12841TIP3   OH260013   4.789   0.590  16.175  0.1520  0.5561 -0.4116
12841TIP3    H160014   4.818   0.542  16.098  1.1244  0.4175  0.0359
12841TIP3    H260015   4.854   0.572  16.242 -1.7179 -0.9759  1.1175
12842TIP3   OH260016   0.404   5.161  16.679  0.6778  0.3255 -0.0372
12842TIP3    H160017   0.354   5.227  16.728 -0.3212  0.2509 -0.9147
12842TIP3    H260018   0.343   5.132  16.611  0.3975 -2.8431  1.4129
12843TIP3   OH260019   0.739   0.428   5.322  0.3601 -0.0638 -0.6422
12843TIP3    H160020   0.818   0.478   5.339  0.7317 -0.1880 -1.9164
12843TIP3    H260021   0.704   0.466   5.241 -0.6651 -0.2759 -0.3082
12844TIP3   OH260022   4.166   3.897   2.402 -0.6031 -0.4857 -0.4033
12844TIP3    H160023   4.218   3.934   2.473  1.6875  0.3845 -2.3878
12844TIP3    H260024   4.189   3.804   2.401  0.2819 -0.2799 -0.6813
12845TIP3   OH260025   2.050   1.481  11.840 -0.0309 -0.0585 -0.7606
12845TIP3    H160026   1.974   1.435  11.806 -1.2764 -0.1360  1.8906
12845TIP3    H260027   2.053   1.563  11.791 -0.6058 -0.9076 -2.2663
12846TIP3   OH260028   4.399   5.328   5.884  0.2098 -0.0272  0.0059
12846TIP3    H160029   4.428   5.241   5.913 -0.3253 -0.4574 -0.7183
12846TIP3    H260030   4.371   5.372   5.964  0.1805 -0.6439  0.3408
12847TIP3   OH260031   0.684   1.840   0.822 -0.1140 -0.2384  0.2854
12847TIP3    H160032   0.670   1.758   0.775 -0.3787  0.2075 -0.4354
12847TIP3    H260033   0.754   1.820   0.884  0.0637 -0.9186 -0.1165
12848TIP3   OH260034   0.992   6.683  14.231  0.3715  0.2534  0.3424
12848TIP3    H160035   0.995   6.674  14.327  0.9418  0.5793  0.3628
12848TIP3    H260036   1.069   6.635  14.201  0.5677  0.7195  0.0968
12849TIP3   OH260037   5.059   2.095   1.287  0.4272 -0.0354 -0.0111
12849TIP3    H160038   5.037   2.106   1.379  0.5671  0.3422 -0.0190
12849TIP3    H260039   5.100   2.178   1.262 -2.0447  0.9911 -1.1068
12850TIP3   OH260040   2.689   3.253  10.882  0.6740  0.2355  0.4710
12850TIP3    H160041   2.692   3.341  10.920 -0.6261  1.0819 -1.2680
12850TIP3    H260042   2.741   3.259  10.802  2.5042 -1.2444  1.4616
12851TIP3   OH260043   6.451   3.556   1.058 -0.1271 -0.1384  0.6486
12851TIP3    H160044   6.360   3.562   1.089 -1.5433 -2.6255 -2.4743
12851TIP3    H260045   6.472   3.463   1.065  0.3342 -0.4458 -3.0076
12852TIP3   OH260046   4.864   4.893  15.383 -0.1548 -0.0893 -0.1637
12852TIP3    H160047   4.834   4.805  15.362  0.4990 -0.3335 -0.1025
12852TIP3    H260048   4.926   4.915  15.313 -1.0010  0.6969 -0.6952
12853TIP3   OH260049   6.347   4.346  11.340 -0.4886  0.5029  0.0274
12853TIP3    H160050   6.321   4.433  11.309 -1.3463  0.0629 -0.5165
12853TIP3    H260051   6.304   4.286  11.280  3.3662 -0.2991 -2.2711
12854TIP3   OH260052   3.617   1.668   2.565  0.2772 -0.1720 -0.1028
12854TIP3    H160053   3.702   1.712   2.568  0.0536  0.2134  1.1910
12854TIP3    H260054   3.573   1.706   2.489  0.5380  1.0086  0.3097
12855TIP3   OH260055   0.763   4.071  13.786 -0.0614  0.3252 -0.0205
12855TIP3    H160056   0.768   4.163  13.763  0.5301  0.2921 -0.0391
12855TIP3    H260057   0.831   4.029  13.733 -0.4258 -0.1459 -0.1241
12856TIP3   OH260058   3.721   0.947  13.094  0.3316 -0.1670 -0.5451
12856TIP3    H160059   3.731   0.872  13.152 -2.2683  2.2511  3.5608
12856TIP3    H260060   3.791   1.007  13.120 -2.3271  2.0265  2.4669
12857TIP3   OH260061   2.406   0.625  14.798 -0.1572  0.6331 -0.0671
12857TIP3    H160062   2.352   0.700  14.775 -0.3389  0.3447 -0.6130
12857TIP3    H260063   2.490   0.663  14.825 -0.7901  1.1099  1.3102
12858TIP3   OH260064   4.612   0.888  13.256 -0.5859 -0.6466 -0.0636
12858TIP3    H160065   4.681   0.927  13.203  0.7406 -1.9015  0.6594
12858TIP3    H260066   4.533   0.937  13.233  0.4136  0.4212 -1.3765
12859TIP3   OH260067   3.048   1.705  16.048 -0.0974  0.5710 -0.4607
12859TIP3    H160068   3.007   1.769  15.990  0.4058  0.0103 -1.4723
12859TIP3    H260069   2.995   1.626  16.038 -0.8103  0.8523  0.9006
12860TIP3   OH260070   0.805   1.748   3.442  0.4812 -0.8060 -0.1966
12860TIP3    H160071   0.749   1.815   3.403  0.5177  0.4404  1.7536
12860TIP3    H260072   0.868   1.727   3.373 -0.2394  0.3196 -1.2537
12861TIP3   OH260073   0.675   1.647   0.318 -0.5313  0.2002 -0.1459
12861TIP3    H160074   0.739   1.718   0.318  0.7265 -0.8392  1.7942
12861TIP3    H260075   0.673   1.617   0.409  0.5388 -3.5745 -1.2165
12862TIP3   OH260076   1.563   5.120   5.828  0.2593 -0.1181 -0.1623
12862TIP3    H160077   1.630   5.082   5.885  0.6926  0.4477 -0.2947
12862TIP3    H260078   1.530   5.045   5.777 -0.3198 -0.6758  1.0032
12863TIP3   OH260079   3.258   3.455  12.076  0.0623  0.4269 -0.0390
12863TIP3    H160080   3.269   3.549  12.092 -0.4498  0.4215  0.3873
12863TIP3    H260081   3.265   3.415  12.163 -1.8947  0.2969  0.1121
12864TIP3   OH260082   1.562   1.402   1.892  0.8498  0.0858  0.1205
12864TIP3    H160083   1.608   1.452   1.960 -0.3937  0.1306  0.9797
12864TIP3    H260084   1.580   1.311   1.914  1.7371  0.1190 -0.4398
12865TIP3   OH260085   4.190   6.754   4.875 -0.0491 -0.1966  0.4073
12865TIP3    H160086   4.107   6.739   4.830  0.0494  0.1281  0.1120
12865TIP3    H260087   4.170   6.822   4.939 -0.4813 -1.5130  1.7029
12866TIP3   OH260088   2.505   0.330  11.369 -0.1845  0.3180  0.3125
12866TIP3    H160089   2.590   0.287  11.379 -0.6199 -1.2846 -2.0513
12866TIP3    H260090   2.526   0.420  11.345  0.8680 -0.0816 -0.3194
12867TIP3   OH260091   0.649   0.428  13.839 -0.0693  0.5604 -1.0697
12867TIP3    H160092   0.611   0.406  13.924 -0.6088 -2.7113 -2.0006
12867TIP3    H260093   0.625   0.519  13.824 -0.7157  0.9555  1.8621
12868TIP3   OH260094   0.762   0.190   3.876  0.5272  0.4853  0.1184
12868TIP3    H160095   0.841   0.244   3.867  0.6900  0.5538  1.6449
12868TIP3    H260096   0.793   0.100   3.867  1.0964  0.4175  2.2921
12869TIP3   OH260097   6.424   5.377   0.069  0.2849  0.3044  0.1426
12869TIP3    H160098   6.377   5.457   0.047  0.9547  0.3004 -1.4099
12869TIP3    H260099   6.511   5.388   0.030  0.7783 -0.6981  0.8850
12870TIP3   OH260100   0.481   5.015  13.196 -0.3977  0.0268 -0.4503
12870TIP3    H160101   0.469   5.067  13.116  1.3733 -1.0471 -1.4886
12870TIP3    H260102   0.542   5.066  13.249 -1.2925  0.5720  0.0604
12871TIP3   OH260103   3.072   0.339  16.512  0.8554 -0.1737 -0.2762
12871TIP3    H160104   3.022   0.404  16.561  0.2034  0.6721 -1.9875
12871TIP3    H260105   3.018   0.260  16.515  0.8189 -0.1330  0.3281
12872TIP3   OH260106   2.533   2.852   5.743 -0.4251 -1.1105 -0.0337
12872TIP3    H160107   2.500   2.797   5.814 -2.4105 -1.1425 -0.9213
12872TIP3    H260108   2.574   2.790   5.682 -2.0285 -1.5808 -0.6856
12873TIP3   OH260109   5.224   1.431  16.788 -0.2167 -0.4268 -0.3401
12873TIP3    H160110   5.220   1.519  16.750  0.4913 -0.4841 -0.5633
12873TIP3    H260111   5.138   1.418  16.827 -0.1950  0.5467  0.0767
12874TIP3   OH260112   1.186   2.743   5.456 -0.1446 -0.0171  0.6730
12874TIP3    H160113   1.235   2.774   5.380 -0.5166 -1.5530 -0.2216
12874TIP3    H260114   1.132   2.671   5.423 -1.1167 -0.0265  2.1677
12875TIP3   OH260115   6.384   2.769  15.723 -0.1840 -0.3321 -0.1526
12875TIP3    H160116   6.357   2.677  15.730  0.7859 -0.6324 -0.0575
12875TIP3    H260117   6.465   2.773  15.774 -0.9548  0.9167  1.0234
12876TIP3   OH260118   1.697   2.336  14.673  0.1398  0.0708 -0.5087
12876TIP3    H160119   1.752   2.379  14.739 -0.0131  2.4276 -1.8009
12876TIP3    H260120   1.615   2.386  14.675 -0.1380 -0.2833 -1.9396
12877TIP3   OH260121   3.286   1.700   3.162 -0.1771 -0.4354 -0.0764
12877TIP3    H160122   3.251   1.680   3.249 -0.0571  0.2058  0.1321
12877TIP3    H260123   3.377   1.726   3.178 -0.7151  1.6885 -0.1061
12878TIP3   OH260124   2.704   6.763   1.965 -0.2802 -0.3892  0.0214
12878TIP3    H160125   2.670   6.709   2.036  1.0725 -0.0289  0.9615
12878TIP3    H260126   2.706   6.851   2.000 -1.5588  0.1693 -1.1870
12879TIP3   OH260127   4.602   3.049   0.229 -0.0438  0.2090 -0.0535
12879TIP3    H160128   4.569   3.077   0.314  0.7090  1.1882 -0.0667
12879TIP3    H260129   4.538   2.985   0.198 -0.2998 -0.1946  1.2620
12880TIP3   OH260130   6.509   2.948   3.281  0.7006 -0.1234 -0.4276
12880TIP3    H160131   6.443   2.880   3.296  1.7585 -1.0404  0.2770
12880TIP3    H260132   6.471   3.005   3.214 -0.9860 -0.3504  0.3084
12881TIP3   OH260133   6.412   6.428  12.661  0.2243  0.3290 -0.3588
12881TIP3    H160134   6.418   6.404  12.569 -0.7387 -0.6433 -0.1899
12881TIP3    H260135   6.330   6.389  12.691 -0.5399  2.3578  0.3999
12882TIP3   OH260136   0.393   3.737   5.528 -0.7864  0.0317  0.0350
12882TIP3    H160137   0.425   3.722   5.439 -1.4809 -2.2859  0.1043
12882TIP3    H260138   0.472   3.748   5.580 -0.1667 -2.0576 -0.3594
12883TIP3   OH260139   2.208   6.363   1.484  0.4249  0.1154  0.1483
12883TIP3    H160140   2.118   6.394   1.492  1.2272  2.5073  0.7278
12883TIP3    H260141   2.222   6.311   1.563 -0.8233 -1.4661 -0.6142
12884TIP3   OH260142   6.230   1.944   4.402  0.0059  0.1519 -0.1210
12884TIP3    H160143   6.223   1.878   4.470 -1.4791 -0.2099 -0.5854
12884TIP3    H260144   6.268   1.897   4.327  2.0836  0.6610  0.5475
12885TIP3   OH260145   2.266   1.708   4.153 -0.2337  0.3933  0.1882
12885TIP3    H160146   2.233   1.679   4.068 -1.1724 -0.5643  0.8551
12885TIP3    H260147   2.202   1.771   4.183 -1.7743 -1.7428  1.6546
12886TIP3   OH260148   1.063   0.381   3.315  0.2987  0.0182  0.1511
12886TIP3    H160149   1.070   0.461   3.263 -0.9155 -0.1034 -0.2237
12886TIP3    H260150   1.113   0.316   3.265 -0.1454  0.1191 -0.4438
12887TIP3   OH260151   2.433   0.931  13.457 -0.4574 -0.2039 -0.2906
12887TIP3    H160152   2.339   0.925  13.476 -0.6343 -1.8586 -1.4212
12887TIP3    H260153   2.441   1.005  13.397 -0.7302  1.1335  1.2377
12888TIP3   OH260154   3.542   1.445  13.697  0.1310 -0.1703  0.3708
12888TIP3    H160155   3.541   1.388  13.621  0.5148 -0.0651  0.2800
12888TIP3    H260156   3.484   1.518  13.674 -0.3696 -0.5303  0.4947
12889TIP3   OH260157   4.293   2.035   4.261 -0.8788  0.2463 -0.1606
12889TIP3    H160158   4.297   2.019   4.356  0.4458 -0.1378 -0.2562
12889TIP3    H260159   4.341   1.962   4.223 -1.3382  0.4427 -1.1297
12890TIP3   OH260160   5.240   1.399   0.703 -0.7982 -0.5429 -0.3178
12890TIP3    H160161   5.177   1.448   0.650 -1.0142 -1.0824 -0.5683
12890TIP3    H260162   5.275   1.463   0.764 -0.2537  0.1992 -1.3746
12891TIP3   OH260163   4.631   6.357   3.829  0.1411 -0.3618  0.5301
12891TIP3    H160164   4.600   6.283   3.881 -0.8880 -0.5392 -0.3133
12891TIP3    H260165   4.576   6.357   3.751  0.0125  1.3794  0.5705
12892TIP3   OH260166   4.059   5.535  11.001  0.0502 -0.2627  0.3820
12892TIP3    H160167   4.001   5.533  11.077  0.2781 -1.3490  0.5439
12892TIP3    H260168   4.141   5.497  11.033 -0.0905 -1.4312 -0.6066
12893TIP3   OH260169   2.350   2.272   0.050 -0.3134  0.2804 -0.0421
12893TIP3    H160170   2.360   2.214  -0.025  0.2985  0.0075  0.2445
12893TIP3    H260171   2.270   2.241   0.094 -0.4060  0.1346 -0.3113
12894TIP3   OH260172   1.971   2.028   2.725  0.5142  0.5264  0.3854
12894TIP3    H160173   1.875   2.036   2.721  0.5489  0.7873 -0.1287
12894TIP3    H260174   1.994   2.056   2.813  0.0676 -0.1074  0.7086
12895TIP3   OH260175   1.031   3.869   1.893  0.1099 -0.4120  0.6013
12895TIP3    H160176   1.010   3.795   1.951 -1.0360 -1.3698 -0.9506
12895TIP3    H260177   1.127   3.877   1.899  0.1102 -1.0854  1.8864
12896TIP3   OH260178   2.034   4.781  15.565 -0.2109 -0.0655 -0.1317
12896TIP3    H160179   2.127   4.757  15.563 -0.5416 -1.3524 -0.6168
12896TIP3    H260180   2.014   4.794  15.658  0.5408  0.6434 -0.0504
12897TIP3   OH260181   5.380   3.384   1.110 -0.7868 -0.7213 -0.4598
12897TIP3    H160182   5.357   3.384   1.203  1.0392 -0.7285  0.0384
12897TIP3    H260183   5.418   3.297   1.095 -1.6803 -0.9667 -1.3980
12898TIP3   OH260184   5.504   1.167   3.216  0.3768  0.3794 -0.2194
12898TIP3    H160185   5.588   1.165   3.262  0.2501 -1.1290 -0.0144
12898TIP3    H260186   5.528   1.182   3.124  0.8007  0.8505 -0.0397
12899TIP3   OH260187   6.060   4.783   1.264  0.0375  0.0781  0.0864
12899TIP3    H160188   6.146   4.818   1.242  1.6297 -2.6239  1.4985
12899TIP3    H260189   6.058   4.785   1.360 -0.2061 -2.5270  0.1922
12900TIP3   OH260190   5.081   4.111   0.520  0.4147 -0.2149  0.0941
12900TIP3    H160191   5.103   4.133   0.611 -1.5394  1.1779  0.2835
12900TIP3    H260192   5.101   4.017   0.513  2.3626  0.0458  1.3806
12901TIP3   OH260193   1.973   1.932  12.324  0.0779  0.4117 -0.4188
12901TIP3    H160194   2.053   1.880  12.325 -0.0634  0.1913 -0.3410
12901TIP3    H260195   1.907   1.874  12.287  0.0000  0.6647 -0.6802
12902TIP3   OH260196   6.307   1.668  11.632  0.0691  0.1923 -0.5203
12902TIP3    H160197   6.390   1.712  11.646  0.8367 -0.9477 -1.2664
12902TIP3    H260198   6.276   1.647  11.720  0.3895  0.9413 -0.2221
12903TIP3   OH260199   4.886   6.816  11.586 -0.7074  0.1283  0.5284
12903TIP3    H160200   4.853   6.885  11.528  0.9625  0.5391 -0.0159
12903TIP3    H260201   4.857   6.735  11.546 -0.4488  0.4489 -0.3413
12904TIP3   OH260202   1.897   0.671   1.469 -0.0259  0.0149  0.5382
12904TIP3    H160203   1.866   0.587   1.436  1.0818 -0.1281 -0.1688
12904TIP3    H260204   1.961   0.701   1.404 -1.5884  2.2117 -0.1281
12905TIP3   OH260205   2.749   3.882   5.823  0.0940  0.8064  0.0577
12905TIP3    H160206   2.780   3.927   5.745 -1.0494  1.1540 -0.2104
12905TIP3    H260207   2.669   3.928   5.848 -0.9598 -0.8779 -0.0488
12906TIP3   OH260208   4.557   6.538  12.940  0.2199  0.5579 -0.6244
12906TIP3    H160209   4.622   6.474  12.968 -0.9032 -0.9889 -1.3830
12906TIP3    H260210   4.554   6.530  12.845  0.3400  2.0638 -0.7882
12907TIP3   OH260211   3.190   0.391  14.914 -0.1591 -0.4083 -0.1028
12907TIP3    H160212   3.127   0.458  14.943  0.2961  0.5991 -1.3531
12907TIP3    H260213   3.173   0.382  14.821  0.8493 -0.9080 -0.2408
12908TIP3   OH260214   1.898   4.186   4.796  0.3759  0.1389  0.0516
12908TIP3    H160215   1.844   4.259   4.826  2.3957  2.2940 -1.1753
12908TIP3    H260216   1.912   4.203   4.703  0.7246 -2.0023 -0.3463
12909TIP3   OH260217   6.182   3.474   4.167  0.0673  0.3268  0.5644
12909TIP3    H160218   6.261   3.472   4.221 -0.9380  1.0791  2.1275
12909TIP3    H260219   6.192   3.399   4.107  0.7557 -1.1934  2.4799
12910TIP3   OH260220   0.459   5.858  14.528  0.1463 -0.2159 -0.1393
12910TIP3    H160221   0.432   5.799  14.457  1.7620 -1.1914  0.0134
12910TIP3    H260222   0.377   5.890  14.565 -0.7360 -0.1223 -2.0768
12911TIP3   OH260223   0.570   3.751  12.080  0.4798 -0.1130  0.2228
12911TIP3    H160224   0.624   3.769  12.003  1.0580 -1.3745  0.3032
12911TIP3    H260225   0.590   3.822  12.141  2.1953 -0.6256  0.3203
12912TIP3   OH260226   5.617   1.655   2.158 -0.2478  0.0426  0.4911
12912TIP3    H160227   5.524   1.676   2.155 -0.2703 -0.0467  0.5475
12912TIP3    H260228   5.641   1.642   2.066 -0.1990  0.4612  0.4424
12913TIP3   OH260229   1.534   4.003   4.895  0.1456  0.3468  0.1880
12913TIP3    H160230   1.506   3.940   4.962 -0.3166  0.5127  0.1518
12913TIP3    H260231   1.570   4.076   4.945  0.5857  0.1043  0.2327
12914TIP3   OH260232   4.577   2.231   2.420  0.5977  0.5496 -0.4736
12914TIP3    H160233   4.621   2.304   2.464 -0.7058  1.2000 -0.1849
12914TIP3    H260234   4.495   2.269   2.387  0.1310 -0.6647 -0.7725
12915TIP3   OH260235   2.452   2.315  11.800  0.1211 -0.1556  0.7016
12915TIP3    H160236   2.417   2.284  11.883  0.8157 -0.0011  1.0531
12915TIP3    H260237   2.472   2.236  11.751 -2.3830 -0.3051 -0.2528
12916TIP3   OH260238   5.819   6.702   2.150 -0.1378  0.5724  0.7677
12916TIP3    H160239   5.841   6.622   2.197  2.3870  0.0551 -1.0644
12916TIP3    H260240   5.901   6.752   2.148 -0.7914  1.6885 -0.9132
12917TIP3   OH260241   2.352   0.712  13.688  0.3711  0.5207 -0.7498
12917TIP3    H160242   2.263   0.677  13.699  1.1336 -1.1114  0.5538
12917TIP3    H260243   2.377   0.683  13.600  0.2527 -0.5773 -0.4419
12918TIP3   OH260244   1.845   4.421  16.573 -0.0715  1.0112 -0.6119
12918TIP3    H160245   1.749   4.419  16.575 -0.0612 -0.4069 -0.1293
12918TIP3    H260246   1.868   4.403  16.482 -0.2590  1.2358 -0.7042
12919TIP3   OH260247   1.391   4.527   4.064  0.6459  0.7806  0.2352
12919TIP3    H160248   1.412   4.441   4.101 -0.3346  0.6013  0.4165
12919TIP3    H260249   1.325   4.508   3.997 -1.0130  1.5527  1.5736
12920TIP3   OH260250   6.274   3.636   2.851  0.4673 -0.4615 -0.0474
12920TIP3    H160251   6.337   3.593   2.793  0.8598 -0.9376  0.7276
12920TIP3    H260252   6.308   3.623   2.939 -1.2968 -1.8030  0.5112
12921TIP3   OH260253   0.142   0.884  12.339  0.2916  0.5321  0.3961
12921TIP3    H160254   0.167   0.799  12.303  1.9436  0.3936  1.7377
12921TIP3    H260255   0.155   0.946  12.267  1.3729 -0.0434  0.0732
12922TIP3   OH260256   6.756   0.888  13.315 -0.1437 -0.0776 -0.3624
12922TIP3    H160257   6.815   0.897  13.240 -0.1338 -1.9944 -0.6405
12922TIP3    H260258   6.780   0.959  13.374  1.7467 -0.2063 -0.9198
12923TIP3   OH260259   6.247   2.752   5.775 -0.0443  0.0440  0.4075
12923TIP3    H160260   6.313   2.707   5.722 -1.1336  1.1553 -2.0214
12923TIP3    H260261   6.295   2.779   5.853  2.1419 -0.0602 -0.8093
12924TIP3   OH260262   1.221   4.381   0.419  0.5083  0.8746 -0.1419
12924TIP3    H160263   1.165   4.310   0.449  2.3784 -0.5917  0.0254
12924TIP3    H260264   1.163   4.438   0.368 -0.9790 -0.9315 -0.5569
12925TIP3   OH260265   6.013   0.396   2.551 -0.1968  0.6124  0.1419
12925TIP3    H160266   6.078   0.334   2.585  1.0486  1.5099 -0.4872
12925TIP3    H260267   6.058   0.440   2.478 -1.5715  1.1746 -0.4018
12926TIP3   OH260268   1.448   4.037   3.738  0.6593  0.5817  0.3328
12926TIP3    H160269   1.519   4.088   3.701  0.0078  1.3056  0.0458
12926TIP3    H260270   1.368   4.078   3.703  0.1097 -0.3922  0.4001
12927TIP3   OH260271   5.229   3.858   0.284 -0.6677  0.3796 -0.4887
12927TIP3    H160272   5.164   3.925   0.260 -1.1293 -0.0464 -0.4537
12927TIP3    H260273   5.280   3.845   0.204 -0.3012  1.0705 -0.3733
12928TIP3   OH260274   5.259   6.811   1.920 -0.1233  0.1470  0.0648
12928TIP3    H160275   5.306   6.737   1.958 -0.7041 -0.5833 -0.5975
12928TIP3    H260276   5.214   6.774   1.844  1.4059  1.6583 -1.6696
12929TIP3   OH260277   3.840   3.313  16.756  0.2000 -0.7207  0.1487
12929TIP3    H160278   3.872   3.322  16.666  0.4951 -0.3562  0.2889
12929TIP3    H260279   3.752   3.352  16.753 -0.6497 -2.5477 -0.4503
12930TIP3   OH260280   2.873   2.568  16.638 -0.9572 -0.1091  0.0707
12930TIP3    H160281   2.809   2.617  16.587 -0.0044  1.1834  0.0532
12930TIP3    H260282   2.826   2.491  16.669 -1.7914 -0.5172 -2.0458
12931TIP3   OH260283   6.662   1.049   0.890 -0.2409 -0.3465  0.5986
12931TIP3    H160284   6.699   1.130   0.855  1.1595 -0.6822  1.2206
12931TIP3    H260285   6.679   0.984   0.822 -2.3482  0.0522 -0.3878
12932TIP3   OH260286   6.390   5.752  13.641  0.0895  0.2024  0.0684
12932TIP3    H160287   6.311   5.750  13.694 -0.8447  0.2664 -1.2813
12932TIP3    H260288   6.393   5.842  13.606  0.1411 -0.1170 -0.7696
12933TIP3   OH260289   0.240   1.043  11.342 -0.1156  0.2500 -0.8303
12933TIP3    H160290   0.205   0.959  11.371  0.8848  0.0894 -0.0446
12933TIP3    H260291   0.167   1.105  11.354 -0.9489 -0.5451 -1.6944
12934TIP3   OH260292   0.595   0.339   4.027  0.7636  0.0202  0.4433
12934TIP3    H160293   0.648   0.267   3.992  0.2658  0.4647 -1.3460
12934TIP3    H260294   0.513   0.335   3.977 -0.0652  0.6115  1.7107
12935TIP3   OH260295   5.200   0.047  15.686 -0.1579 -0.0699 -0.2982
12935TIP3    H160296   5.118   0.020  15.644 -0.4994 -1.8957  1.3683
12935TIP3    H260297   5.250  -0.034  15.695 -0.1744  0.1459  2.8003
12936TIP3   OH260298   1.214   0.524  14.388 -0.0518  0.2217 -1.1186
12936TIP3    H160299   1.173   0.450  14.343  0.4544 -0.4658 -0.4799
12936TIP3    H260300   1.179   0.521  14.477 -0.2961  0.9721 -1.1792
12937TIP3   OH260301   0.800   0.563   4.141  0.0756  0.1299  0.1894
12937TIP3    H160302   0.734   0.494   4.131  0.3353 -0.0092 -0.7248
12937TIP3    H260303   0.881   0.516   4.159 -0.1267  0.3202  1.7014
12938TIP3   OH260304   1.979   2.420  12.587  0.1215 -0.2155  0.3678
12938TIP3    H160305   1.987   2.486  12.519 -1.1283 -0.7629 -0.3332
12938TIP3    H260306   2.026   2.458  12.662  0.9728  0.6612 -0.5743
12939TIP3   OH260307   1.289   1.542   5.127  0.3027  0.3118  0.4225
12939TIP3    H160308   1.261   1.594   5.203 -2.4498  0.0209 -0.2787
12939TIP3    H260309   1.256   1.454   5.146  1.3778 -0.2456 -0.2294
12940TIP3   OH260310   6.447   5.767  11.662  0.0608 -0.1024  0.3324
12940TIP3    H160311   6.522   5.791  11.717 -0.8237  1.7207  0.8211
12940TIP3    H260312   6.394   5.847  11.657 -1.6051 -1.1944 -0.4214
12941TIP3   OH260313   6.667   2.004   0.969 -0.9369  0.4231  0.0708
12941TIP3    H160314   6.587   2.021   1.019 -0.7571 -0.0462  0.5374
12941TIP3    H260315   6.733   1.985   1.036 -0.9876 -1.4514 -0.3615
12942TIP3   OH260316   2.163   1.987   4.281  0.2468  0.0137  0.0517
12942TIP3    H160317   2.157   2.014   4.373  0.9384 -0.6774  0.3057
12942TIP3    H260318   2.080   1.941   4.265  0.7505 -1.1916  0.7837
12943TIP3   OH260319   0.163   0.099   0.848  0.1778  0.1271 -0.1256
12943TIP3    H160320   0.125   0.097   0.760 -0.0926  0.9732 -0.0305
12943TIP3    H260321   0.112   0.165   0.895  0.7921  0.1990  0.4501
12944TIP3   OH260322   3.336   2.312   5.255 -0.2438 -0.2953  0.0082
12944TIP3    H160323   3.348   2.297   5.348 -2.9312  0.0694  0.5010
12944TIP3    H260324   3.272   2.246   5.227  1.2208 -1.0370 -1.8382
12945TIP3   OH260325   6.319   2.707   5.222 -0.0672  0.0638  0.1908
12945TIP3    H160326   6.292   2.615   5.223  0.4064 -0.0790  1.4958
12945TIP3    H260327   6.263   2.749   5.287  0.0097  0.6102 -0.0930
12946TIP3   OH260328   1.147   5.151  12.697 -0.0618  0.2368 -0.5063
12946TIP3    H160329   1.102   5.066  12.702  0.4674 -0.1161 -1.4451
12946TIP3    H260330   1.081   5.215  12.724 -0.4780 -0.4714  0.1826
12947TIP3   OH260331   2.865   2.101   4.610 -0.4608  0.3046  0.7861
12947TIP3    H160332   2.803   2.066   4.546  0.8371 -0.3271 -0.1887
12947TIP3    H260333   2.811   2.134   4.681 -1.8612 -1.2242  0.4821
12948TIP3   OH260334   2.087   5.102  11.368  0.1430  0.4639 -0.2310
12948TIP3    H160335   2.048   5.025  11.409  0.7823  0.1951 -0.1097
12948TIP3    H260336   2.080   5.085  11.274 -0.8468  0.8408 -0.2434
12949TIP3   OH260337   1.947   3.680   0.149 -0.0591 -0.2785 -0.0177
12949TIP3    H160338   2.003   3.684   0.226  0.7330  0.4244 -0.6151
12949TIP3    H260339   1.873   3.626   0.176  1.5661 -2.4380  0.3413
12950TIP3   OH260340   4.590   3.896  12.966 -0.1324  0.6878 -0.6439
12950TIP3    H160341   4.539   3.817  12.953 -1.5926  1.5115 -0.1691
12950TIP3    H260342   4.627   3.888  13.054 -0.6235  0.7051 -0.4321
12951TIP3   OH260343   0.570   4.044  16.516 -0.2634 -0.2607 -0.1658
12951TIP3    H160344   0.664   4.025  16.522 -0.7260 -2.5933  1.0068
12951TIP3    H260345   0.558   4.076  16.427  1.3111 -2.2999 -1.1983
12952TIP3   OH260346   0.430   3.670   5.262 -0.1187  0.4870 -0.3208
12952TIP3    H160347   0.482   3.731   5.210  0.9103  0.1701  0.3146
12952TIP3    H260348   0.416   3.595   5.205  0.7863  0.2508 -0.2489
12953TIP3   OH260349   2.568   0.236   1.193 -0.0907 -0.1416 -0.6990
12953TIP3    H160350   2.647   0.245   1.141  1.3186  2.3762  1.6327
12953TIP3    H260351   2.503   0.290   1.148  0.6911  0.8938 -0.6076
12954TIP3   OH260352   0.416   1.717   1.714 -0.0015 -0.0351  0.0060
12954TIP3    H160353   0.391   1.755   1.629  1.6799  1.7863  0.2540
12954TIP3    H260354   0.348   1.748   1.774  0.4731  1.3308 -0.1188
12955TIP3   OH260355   1.576   6.254  12.214 -0.1948  0.6664 -0.0157
12955TIP3    H160356   1.594   6.215  12.128  2.1270  2.4248 -0.4107
12955TIP3    H260357   1.546   6.343  12.194  0.9711  1.3060  0.9803
12956TIP3   OH260358   2.806   0.824  12.456  0.1507  0.7647  0.0979
12956TIP3    H160359   2.747   0.867  12.394 -4.1767 -0.0715  3.1746
12956TIP3    H260360   2.832   0.893  12.517  2.1796  1.0410 -1.0086
12957TIP3   OH260361   4.364   4.839  11.376 -0.8212 -0.1985  0.0693
12957TIP3    H160362   4.349   4.888  11.296 -0.8470 -1.1225 -0.4999
12957TIP3    H260363   4.280   4.843  11.423 -1.4632 -1.3597 -0.9093
12958TIP3   OH260364   4.735   4.892   1.808 -0.1924  0.0592  0.0984
12958TIP3    H160365   4.791   4.816   1.794  0.8420  0.7472  0.4350
12958TIP3    H260366   4.758   4.953   1.738  0.8269  1.1022  1.2927
12959TIP3   OH260367   4.647   4.399  15.308  0.0371  0.3872 -0.0559
12959TIP3    H160368   4.676   4.383  15.218  0.4300  0.8805 -0.0227
12959TIP3    H260369   4.574   4.339  15.321 -0.6833  1.0263 -1.0427
12960TIP3   OH260370   5.052   5.137  13.576  0.2471  0.2521 -0.0799
12960TIP3    H160371   5.035   5.212  13.520 -0.4371 -1.1208 -1.8062
12960TIP3    H260372   5.064   5.064  13.516  2.0020 -0.8478  1.4944
12961TIP3   OH260373   2.736   1.725  12.674  0.4904 -0.1214 -0.3511
12961TIP3    H160374   2.764   1.698  12.761  0.1433  2.1310  0.5237
12961TIP3    H260375   2.806   1.780  12.641 -0.2698  0.7035 -0.6352
12962TIP3   OH260376   4.658   4.649   4.524  0.3340  0.1090  0.4777
12962TIP3    H160377   4.684   4.564   4.488  1.4365 -0.2660  2.0545
12962TIP3    H260378   4.642   4.632   4.617 -3.8337  0.7370  0.0670
12963TIP3   OH260379   2.944   5.007  11.731 -0.2255  0.0751  0.1277
12963TIP3    H160380   2.904   5.018  11.817  0.3448  2.2655  0.1740
12963TIP3    H260381   3.037   4.995  11.750  0.0524  1.5536 -0.1744
12964TIP3   OH260382   6.060   1.030   1.778 -0.3346  0.4953  0.2282
12964TIP3    H160383   6.133   0.998   1.831  0.5482  0.0420 -1.1927
12964TIP3    H260384   5.989   1.044   1.840 -0.1338 -2.3184  1.2563
12965TIP3   OH260385   5.695   5.129   2.842 -0.5397 -0.3744 -0.1097
12965TIP3    H160386   5.753   5.132   2.917 -0.0990 -0.0605 -0.4586
12965TIP3    H260387   5.753   5.112   2.767 -1.0108 -1.0481 -0.3340
12966TIP3   OH260388   4.630   3.912   1.344  0.3723 -0.4733 -0.2188
12966TIP3    H160389   4.582   3.892   1.264 -0.6313 -0.7406  0.4309
12966TIP3    H260390   4.562   3.926   1.410  1.1623  0.4646  0.4243
12967TIP3   OH260391   1.983   5.650  14.816 -0.2296  0.3361 -0.1187
12967TIP3    H160392   2.028   5.624  14.736 -0.7245 -0.3170 -0.1854
12967TIP3    H260393   2.046   5.630  14.886 -0.0635  0.2751 -0.2831
12968TIP3   OH260394   2.896   0.450  15.294  0.0287  0.0061  0.9054
12968TIP3    H160395   2.908   0.541  15.267 -1.0069  0.1989  1.0578
12968TIP3    H260396   2.813   0.424  15.254 -0.0715 -0.6265  1.5058
12969TIP3   OH260397   2.026   6.421  14.437  0.0501  0.0854 -0.8973
12969TIP3    H160398   2.079   6.354  14.480 -2.6140 -0.5196  1.7452
12969TIP3    H260399   1.970   6.373  14.377 -1.6440 -0.1142  0.7717
12970TIP3   OH260400   6.463   5.501   1.850  0.3145 -0.4033 -0.5506
12970TIP3    H160401   6.509   5.468   1.773  0.6888  1.1949 -1.0465
12970TIP3    H260402   6.513   5.578   1.878 -0.0746 -0.6684  1.0228
12971TIP3   OH260403   2.152   2.218  16.761  0.5026 -0.2190 -0.3810
12971TIP3    H160404   2.102   2.286  16.716  2.2310  0.8017 -0.8487
12971TIP3    H260405   2.135   2.233  16.854 -1.2485 -0.8795 -0.5568
12972TIP3   OH260406   0.295   2.719  11.474  0.5568  0.7501  0.3807
12972TIP3    H160407   0.227   2.721  11.542  2.2862 -0.7331  2.2634
12972TIP3    H260408   0.356   2.788  11.498  0.3214  1.3520 -0.6783
12973TIP3   OH260409   0.996   1.338   2.299 -0.1172 -0.3538 -0.3202
12973TIP3    H160410   0.909   1.363   2.268  0.7404  0.7174 -2.0464
12973TIP3    H260411   1.035   1.290   2.226  0.8317 -0.6150  0.3328
12974TIP3   OH260412   0.884   4.535   4.281 -0.0689  0.2956 -0.3641
12974TIP3    H160413   0.900   4.469   4.349  0.1747  2.9479  2.3790
12974TIP3    H260414   0.790   4.530   4.264 -0.1183 -0.5048  0.0892
12975TIP3   OH260415   4.984   3.603   5.217 -0.2688 -0.0560 -0.5579
12975TIP3    H160416   5.070   3.638   5.239 -0.5894  0.5959 -0.3053
12975TIP3    H260417   4.982   3.517   5.258  0.3319 -0.1570 -0.7311
12976TIP3   OH260418   3.116   1.083   1.175  0.2951  0.3528  0.0562
12976TIP3    H160419   3.179   1.012   1.170 -0.6195 -0.5659  1.1406
12976TIP3    H260420   3.163   1.153   1.220  0.6300 -0.2233  0.6199
12977TIP3   OH260421   1.791   3.387  15.226  0.7391  0.4051  0.1654
12977TIP3    H160422   1.876   3.348  15.205  0.1697 -1.8320  1.6287
12977TIP3    H260423   1.739   3.378  15.146  2.2539  3.3329 -1.3358
12978TIP3   OH260424   3.780   1.812   5.287  0.0345  0.0547 -0.0609
12978TIP3    H160425   3.792   1.718   5.276 -1.9979 -0.0228 -2.7708
12978TIP3    H260426   3.735   1.822   5.371 -1.4700 -1.6143 -0.6108
12979TIP3   OH260427   5.785   3.161   6.240  0.5746 -0.1326 -0.3559
12979TIP3    H160428   5.743   3.181   6.323  0.2515 -2.7549  0.1988
12979TIP3    H260429   5.764   3.236   6.184  1.0561  1.8607  1.9507
12980TIP3   OH260430   6.298   4.021   0.234  0.6009  0.5291  0.7181
12980TIP3    H160431   6.221   3.972   0.205  0.2375  0.6635  1.4367
12980TIP3    H260432   6.317   4.080   0.161 -1.0996  1.7898  1.2176
12981TIP3   OH260433   0.718   0.327  10.955  0.4874  0.0118 -0.3246
12981TIP3    H160434   0.628   0.341  10.927  0.5495 -0.4933 -0.7955
12981TIP3    H260435   0.765   0.303  10.874  1.0179  0.1694 -0.0696
12982TIP3   OH260436   4.500   4.991  14.940  0.4994  0.4584  0.0674
12982TIP3    H160437   4.581   4.962  14.897  0.5582 -0.5176  0.7866
12982TIP3    H260438   4.433   4.931  14.908  0.5788 -0.4047  1.4160
12983TIP3   OH260439   5.615   5.865  12.278 -0.1713 -0.3351 -0.4163
12983TIP3    H160440   5.646   5.859  12.187 -2.0013 -0.9625 -1.0467
12983TIP3    H260441   5.594   5.774  12.302 -1.6746  0.0789 -0.1118
12984TIP3   OH260442   0.599   0.000  13.995  0.3946 -0.2842  0.1293
12984TIP3    H160443   0.627  -0.016  13.905 -3.1697 -2.9066 -0.7042
12984TIP3    H260444   0.644  -0.066  14.046 -3.3731 -4.3593 -1.1712
12985TIP3   OH260445   3.427   1.517   5.642  0.1453 -0.3471 -0.0035
12985TIP3    H160446   3.443   1.423   5.651  0.7114 -0.2412  0.1703
12985TIP3    H260447   3.507   1.551   5.601 -0.6233 -0.1431 -1.4013
12986TIP3   OH260448   2.985   0.336   1.531 -0.0057  0.5215  0.4976
12986TIP3    H160449   2.955   0.300   1.614  0.8949 -1.3400  0.0844
12986TIP3    H260450   2.905   0.351   1.481 -0.5643  1.7990  1.7188
12987TIP3   OH260451   2.924   1.961  11.212 -0.4319 -0.0619  0.0114
12987TIP3    H160452   2.835   1.944  11.243 -0.4633 -0.0603 -0.0798
12987TIP3    H260453   2.928   1.922  11.125 -1.2931  2.5138 -1.3042
12988TIP3   OH260454   0.248   4.988   3.618  0.0486 -0.5220 -0.1689
12988TIP3    H160455   0.340   5.012   3.614  0.1278 -0.8632 -0.3954
12988TIP3    H260456   0.202   5.067   3.589  0.2226 -0.0704  0.7409
12989TIP3   OH260457   1.596   3.711  17.027  0.3010 -0.3395 -0.3196
12989TIP3    H160458   1.623   3.798  17.058 -0.6074  0.0120 -0.4873
12989TIP3    H260459   1.672   3.655  17.045  0.2110  0.0748  1.5368
12990TIP3   OH260460   1.042   3.604   3.793  0.2242 -0.1045  0.1731
12990TIP3    H160461   1.102   3.588   3.866 -1.0148  1.1326  1.5483
12990TIP3    H260462   1.034   3.700   3.789 -0.4379 -0.1951 -0.9868
12991TIP3   OH260463   6.722   1.736  15.130  0.4371 -0.2314  0.3049
12991TIP3    H160464   6.716   1.707  15.221  2.3788  1.2709  0.9864
12991TIP3    H260465   6.815   1.751  15.116  0.1309 -0.0234 -1.8256
12992TIP3   OH260466   2.586   2.833  12.665  0.0368 -0.1222  0.5763
12992TIP3    H160467   2.642   2.867  12.735  0.8955 -0.4538  0.0603
12992TIP3    H260468   2.550   2.752  12.699  2.7058 -1.8302 -0.3464
12993TIP3   OH260469   0.181   2.144   3.541  0.2007 -0.4013  0.6897
12993TIP3    H160470   0.242   2.200   3.494  0.8679 -1.8081 -0.1689
12993TIP3    H260471   0.151   2.198   3.615  0.1313  1.3794 -0.5798
12994TIP3   OH260472   6.303   0.203  11.586 -0.2160  0.4205  0.1480
12994TIP3    H160473   6.313   0.153  11.505  0.1323  0.7107  0.0127
12994TIP3    H260474   6.298   0.294  11.558 -0.7080  0.4817  0.4092
12995TIP3   OH260475   1.625   1.613  16.585 -0.6217 -0.4406 -0.2155
12995TIP3    H160476   1.644   1.685  16.525 -1.5112  2.1755  2.3410
12995TIP3    H260477   1.543   1.576  16.553 -0.4370  0.0376 -1.2891
12996TIP3   OH260478   3.599   5.377   6.759  0.6761  0.1447  0.2665
12996TIP3    H160479   3.651   5.448   6.722 -0.3514  0.6179 -0.3169
12996TIP3    H260480   3.524   5.421   6.799  0.9113 -0.4932  1.4556
12997TIP3   OH260481   1.457   3.354  15.576 -0.0253  0.5439 -0.2620
12997TIP3    H160482   1.528   3.327  15.518  0.0360 -1.3978  0.6408
12997TIP3    H260483   1.500   3.376  15.659 -0.4975 -1.3491  0.5186
12998TIP3   OH260484   3.563   5.250   1.817  0.4092  0.0441  0.3003
12998TIP3    H160485   3.553   5.203   1.733  1.3927  0.8252 -0.2814
12998TIP3    H260486   3.474   5.275   1.841  0.0142 -0.9303 -0.0669
12999TIP3   OH260487   2.304   4.179  16.199  0.3525  0.0642  0.3031
12999TIP3    H160488   2.371   4.111  16.205  0.5389 -0.1007 -2.3002
12999TIP3    H260489   2.353   4.260  16.189  0.2874 -0.1386 -2.3713
13000TIP3   OH260490   6.838   2.007  13.376 -0.0959 -0.0816  0.3665
13000TIP3    H160491   6.917   2.053  13.346 -0.8529  1.4505  0.6421
13000TIP3    H260492   6.846   1.919  13.337  0.7144  0.6900 -1.3374
13001TIP3   OH260493   3.738   5.110   1.063 -0.6202  0.0273 -0.4683
13001TIP3    H160494   3.797   5.062   1.122 -2.6893 -3.3527 -0.8679
13001TIP3    H260495   3.670   5.146   1.121  0.0319  1.0832 -0.3397
13002TIP3   OH260496   4.016   2.084   6.365 -0.1597  0.3438 -0.4917
13002TIP3    H160497   3.963   2.098   6.443  0.7770  1.3436 -0.0035
13002TIP3    H260498   4.093   2.037   6.396 -0.1967 -0.0513 -0.9844
13003TIP3   OH260499   2.614   1.321  15.212 -0.0773 -0.3357  0.1710
13003TIP3    H160500   2.577   1.347  15.297 -0.8559 -1.1198  0.0779
13003TIP3    H260501   2.697   1.279  15.234  0.8422  1.4659  0.3785
13004TIP3   OH260502   0.690   5.827  12.723  0.5084  0.6535 -0.2094
13004TIP3    H160503   0.777   5.867  12.709  0.1856  1.0131 -1.3629
13004TIP3    H260504   0.685   5.759  12.655 -0.4969  1.3111 -0.8149
13005TIP3   OH260505   5.663   0.736  14.939  0.1904 -0.1930 -0.5167
13005TIP3    H160506   5.638   0.724  15.030  2.6332  0.3065  0.2876
13005TIP3    H260507   5.682   0.829  14.931 -1.5916  0.1034 -2.0333
13006TIP3   OH260508   2.484   3.596  14.425 -0.2347  0.6571 -0.0508
13006TIP3    H160509   2.568   3.604  14.382  1.0939 -0.0378  2.2172
13006TIP3    H260510   2.441   3.522  14.381 -0.4400  2.0595 -2.3230
13007TIP3   OH260511   2.006   2.388  14.416 -0.7643  1.0839  0.0723
13007TIP3    H160512   2.056   2.390  14.497 -0.5352  0.4268 -0.0443
13007TIP3    H260513   1.973   2.477  14.405  0.5551  1.5897  0.0505
13008TIP3   OH260514   5.834   1.643  13.049 -0.1223  0.4977 -0.0153
13008TIP3    H160515   5.805   1.599  13.129  0.1713 -0.5677 -0.4752
13008TIP3    H260516   5.753   1.670  13.007 -0.3132  0.4160  0.2917
13009TIP3   OH260517   4.691   2.735   0.889 -0.8353  0.6831  0.0623
13009TIP3    H160518   4.668   2.658   0.837 -0.3687  1.5145 -1.4609
13009TIP3    H260519   4.714   2.802   0.824 -0.8614  2.0010  1.3380
13010TIP3   OH260520   0.024   0.966   1.700  0.4045  0.6600  0.6464
13010TIP3    H160521  -0.039   1.026   1.659  0.1252  0.3439  0.6014
13010TIP3    H260522   0.107   1.014   1.700  0.2889  0.8685  0.1927
13011TIP3   OH260523   0.438   4.808  12.529  0.2583 -0.3087  0.1520
13011TIP3    H160524   0.401   4.892  12.503  0.6321 -0.4672 -0.9621
13011TIP3    H260525   0.362   4.751  12.543  0.0014  0.2515  1.0758
13012TIP3   OH260526   5.978   6.659  16.891 -0.1055  0.2422  0.3340
13012TIP3    H160527   6.073   6.658  16.899  0.1278  1.6177 -1.5495
13012TIP3    H260528   5.952   6.567  16.895  1.0265 -0.0469  3.0667
13013TIP3   OH260529   0.060   1.507  12.437  0.2944  0.3883 -0.5251
13013TIP3    H160530  -0.015   1.534  12.489  0.2878 -0.6429  0.0299
13013TIP3    H260531   0.126   1.481  12.501  0.8180  0.4986 -1.0130
13014TIP3   OH260532   0.290   2.724   2.480  0.0037  0.0467 -0.4312
13014TIP3    H160533   0.269   2.744   2.571  1.0360 -0.8677  0.0345
13014TIP3    H260534   0.258   2.800   2.431 -0.1097  0.7951  0.7531
13015TIP3   OH260535   2.690   2.038  16.279  0.7293  0.7006  0.3433
13015TIP3    H160536   2.713   2.033  16.372  0.2676  2.2216  0.5636
13015TIP3    H260537   2.597   2.060  16.278  0.3323 -0.8388 -0.5249
13016TIP3   OH260538   0.072   5.176   4.220  0.4130 -0.3836 -0.5597
13016TIP3    H160539   0.114   5.090   4.225 -0.4360 -0.8509 -1.2432
13016TIP3    H260540  -0.012   5.165   4.263 -1.7450 -1.2173 -4.4742
13017TIP3   OH260541   4.079   5.052  15.603  0.0388  0.2052 -0.0047
13017TIP3    H160542   4.000   5.098  15.574 -0.5185 -1.9887 -2.3969
13017TIP3    H260543   4.148   5.118  15.600 -0.7953  1.1112 -2.8445
13018TIP3   OH260544   5.477   4.199  12.035  0.1637  0.2226  1.1088
13018TIP3    H160545   5.446   4.277  11.990 -0.5275 -1.0250 -0.7091
13018TIP3    H260546   5.567   4.219  12.059  1.1018  0.4860 -2.2057
13019TIP3   OH260547   3.918   0.783   1.080 -0.1296 -0.5012  0.2025
13019TIP3    H160548   3.996   0.760   1.131  0.1004  0.1809  0.1605
13019TIP3    H260549   3.910   0.878   1.089 -0.6172 -0.4910 -0.2816
13020TIP3   OH260550   4.184   1.205  14.313 -0.0734 -0.0920 -0.7647
13020TIP3    H160551   4.172   1.118  14.275 -0.2147  0.4571 -2.0406
13020TIP3    H260552   4.233   1.254  14.246  0.4062  0.6768  0.1223
13021TIP3   OH260553   2.484   3.154   2.253 -0.1821  0.3856 -0.0013
13021TIP3    H160554   2.479   3.246   2.225 -0.4748 -0.0463 -1.4300
13021TIP3    H260555   2.572   3.144   2.289  0.4812  0.8002 -1.4489
13022TIP3   OH260556   4.185   3.002  12.627 -0.1715  0.2737 -0.2258
13022TIP3    H160557   4.132   3.075  12.594 -0.6088  0.7727  1.4610
13022TIP3    H260558   4.133   2.924  12.606 -0.3178  0.5455 -0.9058
13023TIP3   OH260559   4.360   5.689   0.666  0.0548 -0.6928  0.0169
13023TIP3    H160560   4.403   5.758   0.717  0.3882  0.2414 -1.4753
13023TIP3    H260561   4.367   5.718   0.575 -1.0059 -2.0451 -0.5336
13024TIP3   OH260562   4.995   5.286  15.506 -0.0586  0.0522  0.6712
13024TIP3    H160563   4.967   5.281  15.415  1.5331 -0.1364  0.1612
13024TIP3    H260564   4.935   5.348  15.547 -1.2849 -0.4591 -0.3086
13025TIP3   OH260565   5.096   1.458  14.090  0.2865  0.3891 -0.3106
13025TIP3    H160566   5.112   1.498  14.175 -0.1662 -0.0946  0.0068
13025TIP3    H260567   5.095   1.364  14.107  1.7223  0.2068 -1.1076
13026TIP3   OH260568   5.764   5.546  10.834 -0.3782 -0.6474  0.2087
13026TIP3    H160569   5.798   5.553  10.745 -1.8077 -2.6304 -0.5366
13026TIP3    H260570   5.830   5.495  10.881 -0.2890 -0.7951 -0.0780
13027TIP3   OH260571   4.450   2.349   5.712  0.1318  0.5946 -0.8984
13027TIP3    H160572   4.382   2.294   5.675 -0.2782  0.0228  0.6373
13027TIP3    H260573   4.420   2.439   5.695 -0.3458  0.3496 -1.3680
13028TIP3   OH260574   1.903   3.521   4.210 -0.6079 -0.4111 -0.8310
13028TIP3    H160575   1.971   3.561   4.157 -0.1790 -0.6771 -0.4928
13028TIP3    H260576   1.833   3.586   4.215  0.2099  0.4334 -0.0138
13029TIP3   OH260577   6.345   1.628  14.486  0.0902  0.3372  0.2605
13029TIP3    H160578   6.317   1.631  14.578 -3.9867 -0.2098 -0.7360
13029TIP3    H260579   6.309   1.708  14.448  1.7977  0.6005 -0.9034
13030TIP3   OH260580   1.293   2.441  14.005  0.0094  0.0017 -0.3585
13030TIP3    H160581   1.217   2.434  14.062 -0.9616 -0.7985 -1.7185
13030TIP3    H260582   1.285   2.527  13.964 -0.6441 -0.4356 -1.1589
13031TIP3   OH260583   3.146   5.835   4.554  0.2372 -0.6118  0.3765
13031TIP3    H160584   3.067   5.782   4.571 -0.2283  0.2564  1.0421
13031TIP3    H260585   3.140   5.907   4.617  0.7080  0.3890 -0.6827
13032TIP3   OH260586   5.102   2.717   2.341 -0.4435  0.1963 -0.4598
13032TIP3    H160587   5.078   2.675   2.423 -2.6160  1.8255 -0.1995
13032TIP3    H260588   5.045   2.678   2.275  0.0521  0.1721 -0.8893
13033TIP3   OH260589   6.608   5.376  13.986 -0.4849  0.0434 -0.2867
13033TIP3    H160590   6.566   5.410  14.065 -0.9135  1.0354 -0.9172
13033TIP3    H260591   6.538   5.374  13.920  0.1934  0.6452 -1.0471
13034TIP3   OH260592   0.519   6.233  11.201  0.3914 -0.8917 -0.5925
13034TIP3    H160593   0.604   6.271  11.175  2.0005 -2.2446  2.2202
13034TIP3    H260594   0.508   6.157  11.144  0.9310 -0.5482 -1.1702
13035TIP3   OH260595   0.145   5.859  11.783 -0.0153 -0.4268 -0.3831
13035TIP3    H160596   0.162   5.792  11.717 -1.0289 -1.2151  0.1265
13035TIP3    H260597   0.220   5.918  11.777  1.2875 -1.9873 -0.3656
13036TIP3   OH260598   5.698   0.712  16.707  0.3550  0.1102  0.0213
13036TIP3    H160599   5.722   0.629  16.749 -0.4573  0.6753  1.7019
13036TIP3    H260600   5.675   0.688  16.617 -0.2620 -1.5621  0.5866
13037TIP3   OH260601   3.073   2.781   4.295 -0.3983  0.0197  0.0516
13037TIP3    H160602   3.055   2.775   4.389  1.3344  1.4227  0.5390
13037TIP3    H260603   3.000   2.830   4.259 -1.9412 -1.9651  0.3226
13038TIP3   OH260604   1.045   6.627  13.810 -0.5442  0.4512  0.2205
13038TIP3    H160605   1.011   6.716  13.815  1.5296  1.2659  1.1584
13038TIP3    H260606   1.137   6.638  13.785  0.4713 -1.1884  2.7402
13039TIP3   OH260607   1.200   5.300   3.307 -0.4653  0.0177 -0.0478
13039TIP3    H160608   1.218   5.239   3.378 -1.1170 -0.2462 -0.1100
13039TIP3    H260609   1.111   5.330   3.323 -0.9492 -0.7233 -1.2468
13040TIP3   OH260610   3.196   5.592  12.950 -0.0762 -0.0147  0.5338
13040TIP3    H160611   3.126   5.529  12.930 -0.1413  0.5470 -1.1685
13040TIP3    H260612   3.263   5.575  12.883  0.6703  0.5704  1.1268
13041TIP3   OH260613   0.309   2.374  14.003 -0.6163  0.2583 -0.3725
13041TIP3    H160614   0.239   2.321  14.040 -0.9876  0.2249 -1.0936
13041TIP3    H260615   0.325   2.335  13.917 -1.6831  1.9732 -1.3986
13042TIP3   OH260616   4.887   1.530  11.417  0.7949  0.1941  0.1843
13042TIP3    H160617   4.830   1.482  11.357 -0.7296  3.1904 -0.9854
13042TIP3    H260618   4.975   1.493  11.402  0.3766  0.3067 -3.4595
13043TIP3   OH260619   2.257   5.443   2.021  0.1592  0.4499 -0.0937
13043TIP3    H160620   2.299   5.495   1.953  0.7510  0.0275 -0.0596
13043TIP3    H260621   2.179   5.406   1.978 -0.5459  1.7359  0.0230
13044TIP3   OH260622   1.151   2.141   0.607  0.0945 -0.0531 -0.1817
13044TIP3    H160623   1.232   2.191   0.618 -0.6266  1.1053  0.0591
13044TIP3    H260624   1.082   2.202   0.631 -1.0228 -0.2401 -2.5738
13045TIP3   OH260625   1.188   6.423   3.376  0.4209 -0.0730  0.3275
13045TIP3    H160626   1.177   6.330   3.399  0.0648 -0.3732 -0.9938
13045TIP3    H260627   1.282   6.434   3.365  0.3105 -0.9558 -2.0694
13046TIP3   OH260628   6.151   0.778  14.474  0.6704  0.0814  0.2075
13046TIP3    H160629   6.181   0.791  14.384 -1.0382  0.7085 -0.3192
13046TIP3    H260630   6.158   0.684  14.489 -0.0861 -0.1929 -1.0061
13047TIP3   OH260631   5.605   2.718  11.474 -0.1061  0.1373 -0.0612
13047TIP3    H160632   5.566   2.787  11.419 -0.9011  1.6277  2.2290
13047TIP3    H260633   5.654   2.664  11.412  0.1272  2.4451 -2.0763
13048TIP3   OH260634   0.549   5.970  12.485 -0.0758  1.1825  0.4190
13048TIP3    H160635   0.564   5.943  12.576 -0.6001  0.1449  0.2087
13048TIP3    H260636   0.467   6.019  12.488 -1.1281 -0.4844  0.2363
13049TIP3   OH260637   5.223   4.085  15.107 -0.2776 -0.8747  0.3441
13049TIP3    H160638   5.299   4.141  15.118 -0.2168 -0.6407 -1.0226
13049TIP3    H260639   5.244   4.005  15.155  0.5347 -0.5450  0.5424
13050TIP3   OH260640   3.949   3.794  13.538  0.2130 -0.1359 -0.6694
13050TIP3    H160641   4.045   3.798  13.542  0.1336  1.3221  0.6300
13050TIP3    H260642   3.923   3.759  13.623 -0.4217 -0.2149 -0.8949
13051TIP3   OH260643   2.811   4.335  12.939  0.0275  0.8928 -0.3032
13051TIP3    H160644   2.890   4.353  12.990  0.2393  0.1923 -0.3771
13051TIP3    H260645   2.842   4.293  12.859 -0.3578  1.3971 -0.7348
13052TIP3   OH260646   2.968   2.452  11.011  0.1223  0.2727 -0.0316
13052TIP3    H160647   2.876   2.445  10.986  0.6498 -1.0653 -1.8065
13052TIP3    H260648   2.981   2.382  11.075 -0.0436  0.3909  0.1358
13053TIP3   OH260649   1.579   0.478  15.507  0.2863  0.9296  0.3241
13053TIP3    H160650   1.603   0.417  15.578  3.6236 -0.3729 -1.6616
13053TIP3    H260651   1.517   0.429  15.453 -0.7035  1.1530  1.2390
13054TIP3   OH260652   5.032   2.763   3.172 -0.1082  0.1864 -0.8903
13054TIP3    H160653   5.097   2.791   3.237  2.0687 -1.1069 -2.3898
13054TIP3    H260654   5.025   2.838   3.112  0.5696  0.0619 -1.1309
13055TIP3   OH260655   4.584   5.973   4.998  0.3768  0.5667 -0.0469
13055TIP3    H160656   4.654   6.011   4.946  2.2144 -1.0083  1.1456
13055TIP3    H260657   4.538   6.049   5.035  0.4853  1.6503 -1.9945
13056TIP3   OH260658   2.334   5.676  16.627  0.6886  0.4823 -0.0214
13056TIP3    H160659   2.249   5.688  16.585  0.4489 -0.4813  0.1696
13056TIP3    H260660   2.376   5.762  16.620  0.6023  0.3968 -2.0945
13057TIP3   OH260661   5.094   1.269   4.623 -0.1410  0.0988 -0.5565
13057TIP3    H160662   5.152   1.223   4.683 -2.4554 -0.2988  1.5344
13057TIP3    H260663   5.047   1.199   4.577 -1.1569  0.3556  0.0651
13058TIP3   OH260664   3.337   3.042  12.379 -0.3922  0.3859 -0.7577
13058TIP3    H160665   3.334   3.009  12.469  1.0354  0.6550 -0.5848
13058TIP3    H260666   3.246   3.041  12.350 -1.0785  1.4906  1.1406
13059TIP3   OH260667   4.003   6.718  14.350 -0.9254  0.0999 -0.7183
13059TIP3    H160668   4.012   6.753  14.261  0.8853  0.7366 -0.3172
13059TIP3    H260669   3.992   6.623  14.337  0.3443  0.0477 -1.5936
13060TIP3   OH260670   0.311   2.653  15.389  0.6135 -0.0603  0.2600
13060TIP3    H160671   0.257   2.728  15.365  0.2079 -0.0448  1.1816
13060TIP3    H260672   0.312   2.597  15.311 -1.4756 -0.4876  0.4923
13061TIP3   OH260673   6.007   2.570   3.280  0.0882  0.2290  0.6650
13061TIP3    H160674   5.938   2.504   3.273 -0.6227  0.9831  0.5004
13061TIP3    H260675   5.963   2.649   3.311  0.7147  0.9842 -0.3178
13062TIP3   OH260676   6.102   2.155   3.064 -0.2139 -0.5181  0.3015
13062TIP3    H160677   6.046   2.205   3.005  0.2776 -1.7920 -1.3654
13062TIP3    H260678   6.155   2.221   3.108 -0.8615  0.5269 -0.4226
13063TIP3   OH260679   1.774   2.285   1.492  0.5535  0.1233 -0.0824
13063TIP3    H160680   1.780   2.269   1.586  0.5506  0.2673 -0.0568
13063TIP3    H260681   1.726   2.210   1.458 -0.8397  0.8302  0.2593
13064TIP3   OH260682   6.233   0.155  15.472 -0.3145  0.6423 -0.2107
13064TIP3    H160683   6.319   0.146  15.429  1.5401  1.3856  3.0239
13064TIP3    H260684   6.215   0.068  15.507 -0.4252  0.7131 -0.0935
13065TIP3   OH260685   0.086   3.950  16.073  0.1614  0.0235 -0.5016
13065TIP3    H160686   0.144   3.900  16.130  1.4158 -0.7978 -2.3695
13065TIP3    H260687   0.136   4.028  16.049 -0.8677  1.0273  0.5271
13066TIP3   OH260688   1.241   5.850   1.777 -0.0747 -0.4729  0.7488
13066TIP3    H160689   1.257   5.887   1.690 -1.3470  1.7218  1.3767
13066TIP3    H260690   1.154   5.881   1.801 -0.0752 -1.6789  2.5193
13067TIP3   OH260691   4.011   1.143  11.950  0.4396  0.7094  0.2578
13067TIP3    H160692   4.009   1.226  11.998  1.5623  1.5663 -1.1187
13067TIP3    H260693   4.086   1.096  11.986  0.7145  0.9447 -0.0080
13068TIP3   OH260694   0.696   4.477  12.241 -0.1702  0.1136  0.1982
13068TIP3    H160695   0.784   4.439  12.244  0.0180  0.3099 -1.5882
13068TIP3    H260696   0.637   4.402  12.245  0.0950 -0.0899  0.3453
13069TIP3   OH260697   1.563   1.356  10.470 -0.2015  0.4721 -0.3649
13069TIP3    H160698   1.642   1.385  10.425 -0.7041  0.4941 -1.2363
13069TIP3    H260699   1.495   1.419  10.444 -0.2738  1.1155  1.2452
13070TIP3   OH260700   6.367   4.964  13.957 -0.0871  0.0282 -0.2069
13070TIP3    H160701   6.445   4.968  13.901  0.6658 -0.8037  0.7344
13070TIP3    H260702   6.394   5.008  14.038 -0.3755 -0.8255  0.3665
13071TIP3   OH260703   6.066   0.799  15.739 -0.6477  0.6921  0.0107
13071TIP3    H160704   5.975   0.773  15.755  0.1348 -0.4833  3.5430
13071TIP3    H260705   6.075   0.882  15.785  0.8028 -0.8831  2.8288
13072TIP3   OH260706   2.398   4.651   4.419  0.3497 -0.5839 -0.7257
13072TIP3    H160707   2.471   4.590   4.419  1.8048  1.0693 -0.4546
13072TIP3    H260708   2.423   4.718   4.483 -2.3737 -1.0283  0.9893
13073TIP3   OH260709   1.500   0.252  14.543  0.6378 -0.7178 -0.4600
13073TIP3    H160710   1.594   0.252  14.561  0.5461 -1.1923  0.0393
13073TIP3    H260711   1.460   0.214  14.621 -0.1615  1.3957  0.2570
13074TIP3   OH260712   4.105   2.441   4.918  0.4475 -0.0249  0.0912
13074TIP3    H160713   4.175   2.386   4.883  0.3908 -0.5140  0.7258
13074TIP3    H260714   4.126   2.451   5.011 -0.2591 -0.0838  0.2681
13075TIP3   OH260715   2.313   5.989   2.196 -0.0569 -0.3315 -0.2289
13075TIP3    H160716   2.222   6.017   2.197 -0.0894 -0.3276  2.1627
13075TIP3    H260717   2.317   5.921   2.128 -1.6049  0.2929 -0.9803
13076TIP3   OH260718   5.771   6.436   3.240  0.0623  0.4025  0.3617
13076TIP3    H160719   5.694   6.460   3.188 -0.1316  1.1208  0.9614
13076TIP3    H260720   5.739   6.433   3.330  0.3365 -1.0844  0.4297
13077TIP3   OH260721   3.947   0.756   2.156 -0.2176 -0.1815  0.5773
13077TIP3    H160722   3.978   0.797   2.237 -1.9905 -0.2647  1.3288
13077TIP3    H260723   3.965   0.822   2.089  0.6806  0.1514  1.1192
13078TIP3   OH260724   0.195   6.708   2.105  0.3498  0.2116  0.2954
13078TIP3    H160725   0.282   6.734   2.138  0.9951 -1.8260  0.3402
13078TIP3    H260726   0.140   6.705   2.183  0.7522 -0.3555  0.5655
13079TIP3   OH260727   1.189   1.813   1.704  0.2708 -0.2774 -0.3586
13079TIP3    H160728   1.147   1.887   1.747  1.2050 -0.0207  0.1459
13079TIP3    H260729   1.283   1.833   1.708  0.5003 -1.2310 -0.6970
13080TIP3   OH260730   5.895   6.559  15.659  0.0285 -0.1626 -0.6634
13080TIP3    H160731   5.841   6.637  15.672 -0.6070 -0.5533 -0.9278
13080TIP3    H260732   5.855   6.514  15.585  1.7700  0.4440 -2.0683
13081TIP3   OH260733   6.721   0.534  14.864 -0.2369 -0.5859 -0.1037
13081TIP3    H160734   6.655   0.602  14.850 -0.4312 -0.7137  0.1907
13081TIP3    H260735   6.675   0.451  14.847  0.2271 -0.6125 -1.3510
13082TIP3   OH260736   5.155   1.278  11.849 -0.5266  0.2136 -0.4959
13082TIP3    H160737   5.121   1.244  11.766 -0.1973  0.9677 -0.9523
13082TIP3    H260738   5.166   1.372  11.833  2.1435 -0.0301 -0.5145
13083TIP3   OH260739   5.772   4.175   2.311  0.2501 -0.5204  0.5405
13083TIP3    H160740   5.764   4.256   2.361 -0.6224 -1.2878  1.6942
13083TIP3    H260741   5.804   4.203   2.225  1.2234  0.9012  1.3148
13084TIP3   OH260742   5.402   6.091  14.009 -0.9323  0.1999 -0.1814
13084TIP3    H160743   5.490   6.064  14.033 -0.9278  0.3362 -0.0449
13084TIP3    H260744   5.401   6.087  13.913 -0.6656  0.5499 -0.1989
13085TIP3   OH260745   6.625   4.483  15.505  0.0053  0.2254  0.7685
13085TIP3    H160746   6.650   4.420  15.573 -0.8180 -1.1996 -0.1819
13085TIP3    H260747   6.534   4.505  15.526 -0.0927  0.1608  0.4104
13086TIP3   OH260748   5.584   2.947  16.700 -0.0944 -0.2224  0.1988
13086TIP3    H160749   5.511   2.887  16.683  1.6474 -2.1800 -0.7683
13086TIP3    H260750   5.629   2.910  16.775 -0.6357  1.5616  1.4631
13087TIP3   OH260751   0.259   0.241   4.182 -0.3091 -0.0029  0.1680
13087TIP3    H160752   0.319   0.243   4.256  2.0071  0.0962 -1.6171
13087TIP3    H260753   0.293   0.172   4.125 -3.2162 -1.5129  0.0376
13088TIP3   OH260754   6.757   4.101  13.580 -0.1009  0.1192 -0.2991
13088TIP3    H160755   6.686   4.082  13.642  1.6689  0.1630  1.8893
13088TIP3    H260756   6.754   4.196  13.569  0.8631  0.4155  1.5199
13089TIP3   OH260757   1.804   2.956  16.001 -0.1389  0.3585  0.1986
13089TIP3    H160758   1.856   2.876  16.005  1.2438  1.1100 -1.3616
13089TIP3    H260759   1.794   2.972  15.907 -3.9640 -0.1811  0.3736
13090TIP3   OH260760   0.033   2.436  15.328  0.2015  0.1500  0.0141
13090TIP3    H160761  -0.022   2.405  15.400 -1.1237 -0.2803 -1.1357
13090TIP3    H260762   0.087   2.360  15.305 -2.2400 -1.1419 -2.0488
13091TIP3   OH260763   0.955   3.055   3.076  0.2589 -0.3097  0.0721
13091TIP3    H160764   0.980   2.999   3.150 -1.3834 -0.3167  0.6536
13091TIP3    H260765   0.862   3.070   3.087 -0.0031 -0.1706 -1.9372
13092TIP3   OH260766   3.754   2.957  10.394  0.0101 -0.2379  0.1701
13092TIP3    H160767   3.790   3.011  10.324  0.3177  0.4973  0.8684
13092TIP3    H260768   3.823   2.955  10.460 -1.2604  1.3986  1.6471
13093TIP3   OH260769   2.628   5.650   4.518 -0.1740  0.6823 -0.1024
13093TIP3    H160770   2.636   5.595   4.595  0.6363  2.1084  0.8771
13093TIP3    H260771   2.561   5.607   4.464  0.3229 -1.1477  0.6657
13094TIP3   OH260772   2.208   4.993   1.879 -0.0912  0.4616  0.0048
13094TIP3    H160773   2.213   4.902   1.849 -1.5494  0.3477  0.0238
13094TIP3    H260774   2.219   4.987   1.974  0.1474  0.3381 -0.0300
13095TIP3   OH260775   2.932   3.752  12.432 -0.3520  0.4035 -0.0349
13095TIP3    H160776   2.916   3.694  12.506  2.0421  3.3612  3.1798
13095TIP3    H260777   2.857   3.811  12.431 -0.5789  0.1113 -0.2306
13096TIP3   OH260778   5.806   6.261   6.757  0.4475 -0.2829  0.2851
13096TIP3    H160779   5.771   6.172   6.761 -1.4043  0.3404 -0.9418
13096TIP3    H260780   5.856   6.264   6.676 -1.1780  0.3328 -0.7266
13097TIP3   OH260781   1.318   0.960  12.152  0.6350 -0.3962  0.0298
13097TIP3    H160782   1.228   0.988  12.136  1.1414  1.7649  0.6914
13097TIP3    H260783   1.343   0.912  12.073 -0.3812  0.9002 -1.1171
13098TIP3   OH260784   1.293   2.995  16.427  0.0869 -0.3720  0.2673
13098TIP3    H160785   1.249   3.009  16.511 -1.9292 -1.0871 -0.5869
13098TIP3    H260786   1.286   3.079  16.382 -1.2489 -0.6929 -0.1851
13099TIP3   OH260787   4.920   3.902  16.518 -0.2908 -0.1548  0.2827
13099TIP3    H160788   4.993   3.932  16.572 -1.9165  2.2338  1.3394
13099TIP3    H260789   4.895   3.979  16.466  0.3084 -1.9758 -2.9625
13100TIP3   OH260790   0.636   3.849  12.715 -0.1873 -0.3482 -0.0436
13100TIP3    H160791   0.717   3.900  12.723  0.2821 -0.8839 -1.2085
13100TIP3    H260792   0.566   3.915  12.718  0.0521 -0.0432  3.6189
13101TIP3   OH260793   6.653   1.203  13.660 -0.1063 -0.0843  0.2829
13101TIP3    H160794   6.654   1.299  13.663 -0.5504  0.0411 -1.9305
13101TIP3    H260795   6.569   1.182  13.619  0.2568 -1.3989  0.1880
13102TIP3   OH260796   5.162   1.963   2.052 -0.5404  0.3190  0.1744
13102TIP3    H160797   5.075   1.923   2.059  0.4402 -2.2468 -0.9377
13102TIP3    H260798   5.155   2.023   1.978 -0.9758 -1.1772 -1.0560
13103TIP3   OH260799   3.131   6.041   3.918 -0.1198  0.1771 -0.4509
13103TIP3    H160800   3.220   6.040   3.885  0.2658 -0.0923  0.5622
13103TIP3    H260801   3.108   5.949   3.930 -0.6472  0.2306 -0.9821
13104TIP3   OH260802   6.330   2.199   1.386 -0.2553  0.0373  0.4169
13104TIP3    H160803   6.275   2.131   1.346  0.8367 -0.3733 -0.4257
13104TIP3    H260804   6.346   2.261   1.315  1.6321 -0.6515  0.2030
13105TIP3   OH260805   0.454   0.068   1.797  0.0632  0.3487  0.3845
13105TIP3    H160806   0.390   0.003   1.826  1.3337 -0.1440  2.2426
13105TIP3    H260807   0.483   0.036   1.712 -0.5120 -0.6381  0.5408
13106TIP3   OH260808   1.169   0.812   3.846 -0.2194 -0.0732 -0.2538
13106TIP3    H160809   1.178   0.818   3.941  0.6491 -1.1056 -0.2530
13106TIP3    H260810   1.078   0.785   3.833 -0.2202 -0.3598  0.3035
13107TIP3   OH260811   4.406   1.505   6.090  0.0102  0.0459 -0.1594
13107TIP3    H160812   4.423   1.456   6.009  3.1644 -1.2886  1.1540
13107TIP3    H260813   4.441   1.593   6.073 -0.4937  0.1505 -0.6615
13108TIP3   OH260814   3.271   3.644   2.830 -0.0653 -0.7340 -0.5271
13108TIP3    H160815   3.289   3.631   2.737 -0.9478 -0.3557 -0.7583
13108TIP3    H260816   3.204   3.713   2.832 -1.1209 -1.7609  0.3279
13109TIP3   OH260817   6.413   1.177   4.073 -0.8111 -0.6396  0.3662
13109TIP3    H160818   6.462   1.132   4.142 -1.6842 -1.3463  0.5541
13109TIP3    H260819   6.431   1.126   3.994  1.2520  0.9238 -0.2755
13110TIP3   OH260820   1.095   3.590  15.602 -0.7795  0.6236  0.0813
13110TIP3    H160821   1.145   3.560  15.527 -2.2837  1.3809 -1.2875
13110TIP3    H260822   1.157   3.588  15.675 -0.2593 -3.9292 -0.2158
13111TIP3   OH260823   1.307   4.788  16.024 -0.1165 -0.1308 -0.3459
13111TIP3    H160824   1.399   4.762  16.025  0.3153  0.9702 -2.8906
13111TIP3    H260825   1.259   4.708  16.003  0.2625 -0.6499  0.7032
13112TIP3   OH260826   3.899   6.619  13.131 -0.1636  0.5085 -0.2174
13112TIP3    H160827   3.940   6.677  13.067 -1.2092  1.1320 -0.3459
13112TIP3    H260828   3.805   6.629  13.115 -0.3634 -1.3544 -0.3495
13113TIP3   OH260829   6.828   4.523  14.028 -0.7062 -0.1065 -0.0741
13113TIP3    H160830   6.759   4.514  14.093 -0.2391 -0.0966  0.4346
13113TIP3    H260831   6.909   4.526  14.079 -0.4119  1.2619 -0.5627
13114TIP3   OH260832   4.817   0.139   1.592 -0.0374  0.5084  0.4330
13114TIP3    H160833   4.912   0.151   1.585  0.1275 -0.2212  1.2231
13114TIP3    H260834   4.806   0.082   1.668 -1.1365  0.8670  0.5573
13115TIP3   OH260835   3.735   4.069  14.851 -0.0097  0.4042 -0.1644
13115TIP3    H160836   3.800   4.023  14.903 -0.2944 -0.3120 -0.4288
13115TIP3    H260837   3.673   4.105  14.915 -0.0437  0.0185  0.0192
13116TIP3   OH260838   6.006   4.463  13.958 -0.2779 -0.2510  0.5695
13116TIP3    H160839   5.968   4.541  13.919  1.4502  0.1163 -0.4842
13116TIP3    H260840   5.940   4.395  13.945 -0.0610 -0.0115 -2.5715
13117TIP3   OH260841   4.932   2.146   2.345  0.1184  0.3178  0.2418
13117TIP3    H160842   4.863   2.116   2.404  0.5373 -1.4913 -0.1284
13117TIP3    H260843   5.011   2.146   2.400  0.4254 -0.9266 -0.1754
13118TIP3   OH260844   5.253   3.352  13.140 -0.1788  0.6680  0.1187
13118TIP3    H160845   5.272   3.289  13.070 -3.2864 -0.7733  0.4023
13118TIP3    H260846   5.323   3.338  13.204  1.1485 -0.0021 -1.4140
13119TIP3   OH260847   6.465   0.562   2.958 -0.1773  0.0861  0.0822
13119TIP3    H160848   6.549   0.558   3.003 -0.6053  0.5294  0.9581
13119TIP3    H260849   6.481   0.617   2.882  0.6072 -0.8254 -0.4295
13120TIP3   OH260850   1.438   5.542   0.571 -0.3912 -0.0900  0.5519
13120TIP3    H160851   1.460   5.480   0.641 -0.6355 -1.0686 -0.2104
13120TIP3    H260852   1.521   5.558   0.526 -0.2097  0.6374  1.1215
13121TIP3   OH260853   3.538   5.711  12.872 -0.4169 -0.4114  0.1951
13121TIP3    H160854   3.571   5.741  12.787 -1.7124 -0.1493 -0.2406
13121TIP3    H260855   3.467   5.651  12.850  0.0904 -1.3700  1.1005
13122TIP3   OH260856   3.476   4.164   3.544 -0.2116 -0.3395 -0.3671
13122TIP3    H160857   3.408   4.181   3.479 -1.8241 -0.2890  1.2686
13122TIP3    H260858   3.457   4.224   3.616  1.9890  0.1716 -0.1167
13123TIP3   OH260859   4.385   4.533   0.340  0.0127 -0.3447  0.1701
13123TIP3    H160860   4.460   4.542   0.398  1.0283  3.4721 -1.4276
13123TIP3    H260861   4.337   4.615   0.350 -0.5589 -0.1223 -3.1875
13124TIP3   OH260862   0.875   5.778  15.634 -0.4377  0.3888 -0.2041
13124TIP3    H160863   0.827   5.838  15.578 -0.0756  0.9420  0.0742
13124TIP3    H260864   0.934   5.731  15.574 -0.4929  0.5350 -0.3720
13125TIP3   OH260865   6.408   3.911   4.868  0.0028  0.6288 -0.6104
13125TIP3    H160866   6.425   4.005   4.870  0.7189  0.4902  0.5951
13125TIP3    H260867   6.464   3.875   4.937 -2.3256 -0.3608  0.8731
13126TIP3   OH260868   2.236   5.663   3.398 -0.3332 -0.1104  0.1581
13126TIP3    H160869   2.224   5.677   3.492  2.2354 -3.7225  1.2688
13126TIP3    H260870   2.223   5.569   3.386  1.7810 -0.1804 -2.6214
13127TIP3   OH260871   3.710   5.858   4.153  0.5845 -0.3858  0.4753
13127TIP3    H160872   3.615   5.858   4.149  0.5139 -0.5716  1.7904
13127TIP3    H260873   3.737   5.810   4.075 -0.4214 -1.0366  0.5133
13128TIP3   OH260874   5.439   2.317   3.237 -0.4856 -0.2445 -0.4750
13128TIP3    H160875   5.382   2.271   3.174 -1.2136  1.2392 -0.9440
13128TIP3    H260876   5.526   2.281   3.221 -0.8993 -0.9006 -1.3694
13129TIP3   OH260877   1.958   4.631  11.792 -0.4590 -0.5355 -0.0914
13129TIP3    H160878   1.892   4.694  11.821  1.6894  1.8472 -0.0310
13129TIP3    H260879   1.980   4.658  11.703 -0.1913 -1.9021 -0.4776
13130TIP3   OH260880   5.617   5.759   5.849  0.2903 -0.7794  0.4221
13130TIP3    H160881   5.688   5.796   5.796  0.5547 -2.0823 -0.1737
13130TIP3    H260882   5.556   5.832   5.861  0.2121 -0.4231 -1.7090
13131TIP3   OH260883   4.620   4.243   3.835  0.0065  0.0125  0.1021
13131TIP3    H160884   4.632   4.305   3.907  0.2154  1.0257 -0.7727
13131TIP3    H260885   4.701   4.192   3.833  1.3615  2.0705 -1.3329
13132TIP3   OH260886   5.297   0.183  13.921  0.1141 -0.1003  0.3878
13132TIP3    H160887   5.256   0.247  13.863  0.0414 -0.0148  0.5345
13132TIP3    H260888   5.287   0.219  14.008  1.0134  0.1973  0.3734
13133TIP3   OH260889   2.966   6.025   5.217  0.0225 -0.2787 -0.0077
13133TIP3    H160890   2.966   5.964   5.143  1.4278 -1.6575  1.0739
13133TIP3    H260891   2.896   5.995   5.274 -1.3678  1.0590 -0.9131
13134TIP3   OH260892   6.595   3.493   3.553 -0.1701  0.4321 -0.4544
13134TIP3    H160893   6.591   3.587   3.535 -0.3861  0.6920  0.8436
13134TIP3    H260894   6.619   3.487   3.646  0.5351 -0.8064 -0.6901
13135TIP3   OH260895   4.126   2.712   3.170 -0.2725 -0.4209  0.3904
13135TIP3    H160896   4.191   2.728   3.102 -0.5205 -1.0982 -0.0196
13135TIP3    H260897   4.148   2.625   3.205 -0.3424 -0.2167  0.9544
13136TIP3   OH260898   2.951   0.093  16.876  1.0831  0.1240  0.0016
13136TIP3    H160899   2.938   0.186  16.894 -0.1232 -0.1740  0.7890
13136TIP3    H260900   3.045   0.084  16.863  1.5948  1.0505  2.5021
13137TIP3   OH260901   2.290   4.775   5.042  0.0349  0.1035 -0.5960
13137TIP3    H160902   2.266   4.704   5.101  0.4069 -0.7966 -1.5210
13137TIP3    H260903   2.220   4.840   5.054 -0.3119 -0.4084  0.2399
13138TIP3   OH260904   2.751   3.830   4.823 -0.4352  0.2707  0.4454
13138TIP3    H160905   2.795   3.765   4.879 -0.0217  0.7258  0.6556
13138TIP3    H260906   2.785   3.813   4.736 -0.6443 -0.0655  0.4260
13139TIP3   OH260907   4.905   0.765   4.136  0.1348 -0.2432  0.5101
13139TIP3    H160908   4.822   0.741   4.176  0.6157 -2.2157  0.4251
13139TIP3    H260909   4.915   0.858   4.156 -1.9525 -0.0182  0.7281
13140TIP3   OH260910   5.311   2.988   1.428 -0.0502 -0.0158 -0.0798
13140TIP3    H160911   5.353   2.966   1.345 -0.1674  1.1860 -0.4852
13140TIP3    H260912   5.347   2.926   1.491  3.2848  1.6422 -0.1402
13141TIP3   OH260913   0.158   6.720  11.434  0.6858  0.1843 -0.4563
13141TIP3    H160914   0.189   6.665  11.363  1.6894 -0.1449  0.2167
13141TIP3    H260915   0.128   6.658  11.501  1.6510  0.4365  0.2325
13142TIP3   OH260916   6.104   0.461  15.888 -0.3926 -0.1246 -0.0060
13142TIP3    H160917   6.159   0.473  15.811 -1.5540  0.6665 -0.7567
13142TIP3    H260918   6.165   0.445  15.959  0.7704  0.2541 -0.8868
13143TIP3   OH260919   5.716   5.467  13.971  0.2835  0.2390  0.3321
13143TIP3    H160920   5.763   5.461  14.054 -1.1727  0.0145  1.1743
13143TIP3    H260921   5.636   5.417  13.985 -0.7355  1.5147 -0.6634
13144TIP3   OH260922   5.378   6.590   1.198 -0.0599 -0.0776  0.5431
13144TIP3    H160923   5.343   6.525   1.258  1.4884 -0.4662  1.0685
13144TIP3    H260924   5.330   6.577   1.116 -1.1298 -0.5485  1.2365
13145TIP3   OH260925   4.381   6.073   4.617  0.1955 -0.0615  0.3327
13145TIP3    H160926   4.322   6.092   4.690 -0.5147 -0.3874 -0.1538
13145TIP3    H260927   4.358   6.136   4.549  1.6283  1.0047  0.7888
13146TIP3   OH260928   6.220   5.685  15.008 -0.5735 -0.3793  0.1839
13146TIP3    H160929   6.309   5.719  15.007 -0.6387 -0.1712  0.6787
13146TIP3    H260930   6.227   5.598  15.048 -0.5670 -0.4333  0.0635
13147TIP3   OH260931   4.906   0.939  15.156  0.1042  0.1170 -0.6605
13147TIP3    H160932   4.951   0.996  15.218 -1.8524  0.2003  0.7647
13147TIP3    H260933   4.838   0.994  15.118 -0.2984 -0.6240 -1.0268
13148TIP3   OH260934   3.211   1.082  14.244  0.0978  0.3092 -0.0754
13148TIP3    H160935   3.175   1.148  14.185 -0.6174 -0.3594 -0.4143
13148TIP3    H260936   3.147   1.077  14.315 -0.3457 -0.6511 -0.5122
13149TIP3   OH260937   3.770   5.663  14.887 -0.2333  0.5660 -0.2769
13149TIP3    H160938   3.783   5.589  14.828  0.9551 -0.7316  1.4874
13149TIP3    H260939   3.677   5.686  14.877 -0.7768 -1.5185 -0.5255
13150TIP3   OH260940   3.317   3.233   0.781 -0.6004 -0.3818 -0.2122
13150TIP3    H160941   3.364   3.186   0.850 -2.2992 -0.8097  0.7131
13150TIP3    H260942   3.321   3.325   0.807 -1.0406 -0.5175  0.3534
13151TIP3   OH260943   3.966   4.938   0.027  0.1084 -0.3341  0.2865
13151TIP3    H160944   3.876   4.906   0.032 -0.1534  0.4850  1.3284
13151TIP3    H260945   3.985   4.968   0.116  0.3756  2.1979 -0.5586
13152TIP3   OH260946   2.814   3.067  12.656  0.8799 -0.0487 -0.7300
13152TIP3    H160947   2.836   2.979  12.685  0.8295  0.2753  0.3452
13152TIP3    H260948   2.849   3.125  12.725 -0.3648  0.6665 -0.6610
13153TIP3   OH260949   5.996   2.404  11.279  0.2508 -0.3171  0.3536
13153TIP3    H160950   6.042   2.409  11.363 -1.0099  3.1350  0.9918
13153TIP3    H260951   6.058   2.442  11.216  1.2228 -2.9622 -0.4301
13154TIP3   OH260952   5.089   6.131  13.051  0.3750 -0.0049  0.2292
13154TIP3    H160953   5.111   6.224  13.060 -0.1273  0.0821  0.6635
13154TIP3    H260954   5.029   6.127  12.976 -1.1360  0.3156  1.3684
13155TIP3   OH260955   5.075   3.723  11.005  0.1968 -0.3713  0.0080
13155TIP3    H160956   4.990   3.753  10.973 -0.1935  0.2661  1.5519
13155TIP3    H260957   5.137   3.747  10.936 -0.9491 -1.5928 -1.5226
13156TIP3   OH260958   3.272   2.570   5.230  0.9844  0.7003  0.4507
13156TIP3    H160959   3.289   2.476   5.237 -0.7656  0.3896  0.7814
13156TIP3    H260960   3.312   2.595   5.146 -0.2804 -0.7661 -0.6400
13157TIP3   OH260961   0.831   0.687   4.721 -0.2493  0.1851  0.0784
13157TIP3    H160962   0.746   0.652   4.696 -1.2630  1.6455  1.2672
13157TIP3    H260963   0.846   0.760   4.661  0.5027 -0.4758 -0.5578
13158TIP3   OH260964   4.342   3.178   4.661  0.0627 -0.4468 -0.5048
13158TIP3    H160965   4.330   3.125   4.740 -0.6204  1.4820  0.7621
13158TIP3    H260966   4.334   3.269   4.692 -0.8048  0.3612 -2.8957
13159TIP3   OH260967   4.755   4.357   2.784  0.4340 -0.4479 -0.3942
13159TIP3    H160968   4.849   4.342   2.780  0.9923  1.6664  2.2967
13159TIP3    H260969   4.731   4.383   2.695  2.6804  0.4539 -0.7870
13160TIP3   OH260970   0.162   1.104   5.609 -0.4121  0.0674  0.8615
13160TIP3    H160971   0.115   1.158   5.544  0.5826  0.6866  0.6389
13160TIP3    H260972   0.104   1.030   5.623  0.1091 -1.0719 -2.1427
13161TIP3   OH260973   2.561   0.276   0.410 -0.3129  0.0351  0.0400
13161TIP3    H160974   2.591   0.207   0.470  0.4119  0.0338 -0.3046
13161TIP3    H260975   2.490   0.236   0.360  0.4569 -0.6516 -0.5318
13162TIP3   OH260976   5.915   5.839  14.722  0.5285  0.0562 -0.6225
13162TIP3    H160977   5.826   5.865  14.746  0.0215 -1.4844 -0.7281
13162TIP3    H260978   5.943   5.905  14.658  0.2599  1.7296  0.8994
13163TIP3   OH260979   2.539   0.457   5.477  0.3257 -0.0805 -0.3057
13163TIP3    H160980   2.558   0.431   5.387  0.0731 -0.1173 -0.3491
13163TIP3    H260981   2.622   0.494   5.509  1.1775 -2.3383  0.2660
13164TIP3   OH260982   0.872   1.833   0.277 -0.0703 -0.0701 -0.1658
13164TIP3    H160983   0.904   1.885   0.203 -0.9918  1.4442  0.4609
13164TIP3    H260984   0.897   1.884   0.354  1.6871 -2.0700  0.6679
13165TIP3   OH260985   6.737   6.139   0.500 -0.1175  0.4605 -0.5397
13165TIP3    H160986   6.757   6.046   0.516 -0.6847  0.5077  0.5702
13165TIP3    H260987   6.643   6.141   0.484 -0.3558  0.9697  0.7507
13166TIP3   OH260988   1.876   5.144   2.880 -0.6398  0.1961  0.2036
13166TIP3    H160989   1.862   5.054   2.852 -1.8285  0.3974  0.0937
13166TIP3    H260990   1.923   5.137   2.963  1.4442 -0.4560 -0.9672
13167TIP3   OH260991   4.957   6.231   6.153 -1.1670  0.0814  0.1344
13167TIP3    H160992   4.971   6.309   6.098  0.5576  0.0485  0.4773
13167TIP3    H260993   4.994   6.159   6.102 -3.0779 -0.6188 -0.3383
13168TIP3   OH260994   2.376   4.702   3.962 -0.1729 -0.3179 -0.5551
13168TIP3    H160995   2.430   4.642   3.911 -0.3389 -0.2072 -0.8665
13168TIP3    H260996   2.414   4.788   3.946 -0.0723 -0.3114 -0.2897
13169TIP3   OH260997   5.594   0.987  10.872  0.4891 -0.0357 -0.0663
13169TIP3    H160998   5.565   0.981  10.964 -1.5810 -0.4430 -0.6942
13169TIP3    H260999   5.521   1.030  10.827  1.5712  0.3729 -1.5077
13170TIP3   OH261000   4.385   6.508  11.361  0.4351 -0.1345  0.4811
13170TIP3    H161001   4.315   6.516  11.425 -0.7466  2.3935 -0.9605
13170TIP3    H261002   4.456   6.562  11.396  0.6353 -0.5056  0.6559
13171TIP3   OH261003   1.167   5.577   5.430 -0.7338  0.2619  0.0687
13171TIP3    H161004   1.158   5.552   5.339 -0.8759  0.5960 -0.0099
13171TIP3    H261005   1.179   5.494   5.477 -0.3762  0.1110 -0.2842
13172TIP3   OH261006   0.993   6.198  13.090  1.0515  0.3257  0.2418
13172TIP3    H161007   0.991   6.234  13.001 -1.0114  1.0726  0.5339
13172TIP3    H261008   1.007   6.104  13.078  0.5214  0.3737 -0.9124
13173TIP3   OH261009   6.530   5.067  15.185  0.4166 -0.6922 -0.2143
13173TIP3    H161010   6.567   5.017  15.258  0.6729 -0.1889  0.0053
13173TIP3    H261011   6.606   5.087  15.129  0.1983 -1.2198 -0.7135
13174TIP3   OH261012   3.429   6.253   4.330 -0.1775  0.9489 -0.5179
13174TIP3    H161013   3.397   6.341   4.346 -0.9906  0.8621 -1.5207
13174TIP3    H261014   3.350   6.199   4.326  0.2768  0.2556 -0.3822
13175TIP3   OH261015   2.958   1.004  11.235 -0.5452  0.4523 -0.0553
13175TIP3    H161016   3.006   0.930  11.199 -0.1932  0.2568  0.8172
13175TIP3    H261017   2.874   1.002  11.189  0.3565  0.9796 -1.8200
13176TIP3   OH261018   6.395   5.135  15.962  0.2911  0.0371 -0.2430
13176TIP3    H161019   6.398   5.226  15.934 -0.1491  0.3185  0.6096
13176TIP3    H261020   6.304   5.120  15.988  0.4427 -0.5320 -0.0181
13177TIP3   OH261021   6.506   6.835  14.063  0.2815  0.6371 -0.0085
13177TIP3    H161022   6.565   6.861  14.134  1.9053 -0.9542 -0.6783
13177TIP3    H261023   6.560   6.842  13.984 -0.2557 -1.3512 -0.5944
13178TIP3   OH261024   1.859   3.762   1.910  0.5799 -0.1363  0.0320
13178TIP3    H161025   1.950   3.734   1.920  0.0931 -0.9470  3.2788
13178TIP3    H261026   1.816   3.688   1.868  1.2274 -0.0496 -0.8253
13179TIP3   OH261027   1.239   2.519   4.487  0.0472  0.0254  0.9547
13179TIP3    H161028   1.255   2.588   4.552  0.7356 -0.3412  1.1807
13179TIP3    H261029   1.148   2.534   4.459  0.7962  2.3237 -0.5680
13180TIP3   OH261030   2.736   2.399   3.778  0.0222 -0.6118 -0.0401
13180TIP3    H161031   2.761   2.475   3.830  3.3134 -0.3065 -1.8027
13180TIP3    H261032   2.642   2.411   3.761  0.5057  3.4511 -0.8429
13181TIP3   OH261033   3.245   6.654   2.442  0.6329 -0.1038  0.2641
13181TIP3    H161034   3.198   6.621   2.365  1.1638 -0.6592  0.1720
13181TIP3    H261035   3.232   6.586   2.509  1.2828 -0.2559  0.2405
13182TIP3   OH261036   5.824   6.356  12.547  0.6782  0.0379  0.2423
13182TIP3    H161037   5.794   6.372  12.636  0.7864  1.3547  0.0682
13182TIP3    H261038   5.769   6.284  12.516  0.2227 -0.0298  1.1662
13183TIP3   OH261039   3.005   5.179   5.397 -0.1184  0.5120  0.4364
13183TIP3    H161040   2.975   5.101   5.444  0.2516 -0.3471 -0.7025
13183TIP3    H261041   2.925   5.229   5.380 -0.6002 -0.4583 -0.2759
13184TIP3   OH261042   2.622   6.746  13.435  0.2521  0.1900 -0.2621
13184TIP3    H161043   2.703   6.696  13.422  0.4351  1.0387 -3.0301
13184TIP3    H261044   2.647   6.819  13.491  0.6991 -1.0621  1.2391
13185TIP3   OH261045   4.385   3.264   3.479  0.1172 -0.3888 -0.2165
13185TIP3    H161046   4.304   3.260   3.530  0.0859 -0.1279 -0.2406
13185TIP3    H261047   4.455   3.248   3.542 -0.0070 -1.6814 -0.3881
13186TIP3   OH261048   0.160   5.154   5.789 -0.2949 -0.1870  0.4538
13186TIP3    H161049   0.184   5.178   5.699 -3.0462  0.9333 -0.0705
13186TIP3    H261050   0.193   5.226   5.842  2.3354 -1.3681  0.6202
13187TIP3   OH261051   5.540   3.687  13.172 -0.2210 -0.5095  0.5186
13187TIP3    H161052   5.550   3.769  13.221 -0.9059 -1.0350  1.5736
13187TIP3    H261053   5.601   3.627  13.215  0.0697 -0.6367 -0.0684
13188TIP3   OH261054   3.803   5.093  14.928 -0.4853  0.5411  0.1518
13188TIP3    H161055   3.771   5.123  15.014 -0.9152  1.4481 -0.3132
13188TIP3    H261056   3.760   5.151  14.865 -0.1185 -0.0745 -0.6800
13189TIP3   OH261057   4.264   6.308  16.866 -0.0706  0.1543  0.1883
13189TIP3    H161058   4.229   6.350  16.788  2.4817  0.2541 -1.0016
13189TIP3    H261059   4.321   6.374  16.906 -0.0763 -0.4414  1.2328
13190TIP3   OH261060   2.541   6.689  10.565 -0.2001 -0.3828 -0.0777
13190TIP3    H161061   2.482   6.670  10.638 -0.3262 -2.4837 -0.6488
13190TIP3    H261062   2.520   6.622  10.500  0.2917  1.0787 -1.8298
13191TIP3   OH261063   0.891   2.136   0.911 -0.5832  0.7367  0.8493
13191TIP3    H161064   0.961   2.100   0.965 -0.6020  1.2263  1.2062
13191TIP3    H261065   0.875   2.069   0.844  0.5253  0.7979  0.5032
13192TIP3   OH261066   1.333   2.176  15.377  0.1250  0.0191  0.4255
13192TIP3    H161067   1.311   2.193  15.469 -2.0778 -0.6158  0.0726
13192TIP3    H261068   1.427   2.194  15.372  0.5124 -0.8179  2.9977
13193TIP3   OH261069   5.797   4.044  13.947  0.2115  0.2642 -0.3766
13193TIP3    H161070   5.799   3.960  13.993 -1.2224 -0.0835 -0.9039
13193TIP3    H261071   5.756   4.024  13.863  0.1174  1.4482 -0.6249
13194TIP3   OH261072   0.304   0.477   2.011 -0.9512  0.1321  0.9044
13194TIP3    H161073   0.372   0.471   2.078  0.8148  3.3452 -0.4050
13194TIP3    H261074   0.332   0.418   1.942 -1.6130 -1.4870  1.9589
13195TIP3   OH261075   1.143   4.011  10.423 -0.5153  0.3421  0.1106
13195TIP3    H161076   1.053   4.043  10.432 -0.8221 -0.2613 -0.7358
13195TIP3    H261077   1.149   3.940  10.487 -0.5547  0.5570  0.3541
13196TIP3   OH261078   2.713   5.114   1.931  0.1697 -0.1752 -0.3472
13196TIP3    H161079   2.661   5.035   1.945  0.2402 -0.3692 -1.1533
13196TIP3    H261080   2.664   5.183   1.975  0.2488 -0.7090  0.6036
13197TIP3   OH261081   2.478   5.985  10.251 -0.6554 -0.2954 -0.0417
13197TIP3    H161082   2.564   5.945  10.267 -0.2684  1.1245  1.8193
13197TIP3    H261083   2.451   6.017  10.337 -1.9720  1.3799 -1.0359
13198TIP3   OH261084   3.892   6.101  13.327 -0.2489  0.1736  0.2387
13198TIP3    H161085   3.837   6.094  13.406  1.8597 -0.1572  1.7768
13198TIP3    H261086   3.918   6.193  13.324  0.4218  0.0003  0.5003
13199TIP3   OH261087   1.841   2.591   5.169 -0.0585 -0.1687  0.2874
13199TIP3    H161088   1.851   2.668   5.113  1.3094  1.3065  2.4092
13199TIP3    H261089   1.921   2.589   5.222 -0.4106 -2.6274  0.8450
13200TIP3   OH261090   1.371   2.148   0.904 -0.1600  0.3306 -0.0528
13200TIP3    H161091   1.353   2.169   0.812 -2.0733 -3.5622 -0.7444
13200TIP3    H261092   1.436   2.078   0.900  0.4875  0.7881  1.6712
13201TIP3   OH261093   3.758   1.510  13.119  0.3906 -0.1684 -0.0515
13201TIP3    H161094   3.668   1.515  13.151 -0.2743  0.3407 -1.8743
13201TIP3    H261095   3.808   1.473  13.193 -1.0742  0.6288  1.4039
13202TIP3   OH261096   0.267   0.051   2.408 -0.2869  0.4295  0.1711
13202TIP3    H161097   0.223  -0.034   2.411  0.6125 -0.0783 -0.6273
13202TIP3    H261098   0.357   0.032   2.436 -0.0460  1.0951 -0.1402
13203TIP3   OH261099   3.679   2.790  12.856 -0.6152 -0.0050 -0.2797
13203TIP3    H161100   3.753   2.783  12.796  0.6474  0.5244  1.1570
13203TIP3    H261101   3.649   2.880  12.847 -0.7518 -0.0673 -0.4643
13204TIP3   OH261102   5.886   1.098   1.975 -0.0879 -0.1634  0.3117
13204TIP3    H161103   5.806   1.058   2.008  1.4965 -1.3086  3.1027
13204TIP3    H261104   5.901   1.173   2.032  1.3269 -0.5519  0.4869
13205TIP3   OH261105   5.721   6.795  16.918 -0.2331 -0.1682 -0.2758
13205TIP3    H161106   5.778   6.736  16.868  1.0191  1.5416 -0.9490
13205TIP3    H261107   5.632   6.762  16.900  0.4477 -3.3936  1.4333
13206TIP3   OH261108   1.888   1.356   4.449 -0.5034 -0.1370 -0.2451
13206TIP3    H161109   1.920   1.443   4.473  1.0676 -0.6834 -0.2498
13206TIP3    H261110   1.826   1.372   4.378 -1.6149  1.1102  0.9387
13207TIP3   OH261111   2.150   2.231  12.724  0.4455 -1.3248 -0.3970
13207TIP3    H161112   2.073   2.250  12.671  1.7638 -0.3742 -2.0808
13207TIP3    H261113   2.221   2.281  12.683  2.2333 -3.0793  0.3556
13208TIP3   OH261114   6.660   6.637  11.482  0.2914 -0.1995  0.1635
13208TIP3    H161115   6.632   6.570  11.420 -0.3502 -1.4746  1.7845
13208TIP3    H261116   6.751   6.615  11.501 -0.0192 -0.8734  0.9609
13209TIP3   OH261117   1.463   5.806  16.208 -0.2300  0.3381 -0.7277
13209TIP3    H161118   1.466   5.838  16.118  0.1133  0.0959 -0.8016
13209TIP3    H261119   1.372   5.822  16.235 -0.4133  0.1523 -1.2126
13210TIP3   OH261120   3.916   2.801  12.698  0.3315  0.0878 -0.0646
13210TIP3    H161121   3.892   2.709  12.708 -2.3754  0.8357  1.6362
13210TIP3    H261122   3.905   2.819  12.605 -0.7202 -0.9480 -0.1663
13211TIP3   OH261123   5.187   1.091  11.312 -0.1529  0.3109 -0.3042
13211TIP3    H161124   5.121   1.080  11.243  1.7290 -0.4952 -2.0615
13211TIP3    H261125   5.198   1.003  11.348 -1.3306  0.7703  1.3221
13212TIP3   OH261126   1.050   5.223  15.896 -0.5538  0.7180 -0.3127
13212TIP3    H161127   1.073   5.222  15.803 -0.0225 -1.7625 -0.2217
13212TIP3    H261128   1.114   5.282  15.936  0.9810 -0.2971 -1.1611
13213TIP3   OH261129   3.263   5.761   1.347 -0.6789  0.2559  0.2469
13213TIP3    H161130   3.351   5.787   1.376 -0.5298  0.3877 -0.3173
13213TIP3    H261131   3.229   5.839   1.302 -0.0443 -0.6208 -1.8968
13214TIP3   OH261132   3.809   1.746  16.219 -0.0765 -0.3004  0.2290
13214TIP3    H161133   3.780   1.695  16.143  1.3134 -0.3857 -0.2925
13214TIP3    H261134   3.896   1.779  16.193 -1.5691  3.8787 -0.2002
13215TIP3   OH261135   6.567   1.970   2.009 -0.0907 -0.4697 -0.2016
13215TIP3    H161136   6.647   1.945   1.962  0.4980  0.0405  0.5014
13215TIP3    H261137   6.532   2.044   1.959  0.1416 -0.3878 -0.2449
13216TIP3   OH261138   4.961   5.431  14.183 -0.3676 -0.1008 -0.2914
13216TIP3    H161139   5.052   5.460  14.192 -0.2857 -0.4337 -0.0135
13216TIP3    H261140   4.957   5.351  14.234 -1.4936  1.3121  1.9792
13217TIP3   OH261141   6.727   3.811   6.999 -0.3535  0.3548 -0.0794
13217TIP3    H161142   6.676   3.853   6.931 -1.0153 -0.0763  0.1408
13217TIP3    H261143   6.702   3.718   6.994  0.6112  0.0890 -0.1475
13218TIP3   OH261144   3.863   3.041  15.770 -0.5212  0.9570  0.0774
13218TIP3    H161145   3.892   2.978  15.705  0.2321  3.0345 -1.7037
13218TIP3    H261146   3.780   3.074  15.736 -0.3773  1.7124  0.4497
13219TIP3   OH261147   3.511   3.890  15.157  0.4151 -0.5163 -0.2536
13219TIP3    H161148   3.570   3.816  15.143  1.3228  0.2361 -0.5311
13219TIP3    H261149   3.569   3.962  15.182 -0.5785 -0.2839  1.6055
13220TIP3   OH261150   1.708   1.000   5.693 -0.0751  0.3390 -0.0883
13220TIP3    H161151   1.642   1.069   5.684 -1.0471 -0.6893 -1.4445
13220TIP3    H261152   1.791   1.045   5.682 -0.6121  1.4717  0.2968
13221TIP3   OH261153   3.730   0.674  17.116 -0.3681 -0.0905  0.6216
13221TIP3    H161154   3.721   0.620  17.195  0.3977 -1.6126 -0.2920
13221TIP3    H261155   3.640   0.701  17.097 -0.4463  1.3143  2.6555
13222TIP3   OH261156   1.559   2.110  12.401 -1.0125 -0.5340 -0.4811
13222TIP3    H161157   1.579   2.059  12.322 -0.8779 -1.2972  0.0436
13222TIP3    H261158   1.629   2.176  12.405 -1.0349 -0.4709 -1.0071
13223TIP3   OH261159   3.682   0.336   6.270  0.1915 -0.9886  0.2498
13223TIP3    H161160   3.588   0.316   6.273  0.2016 -1.0007  0.4379
13223TIP3    H261161   3.685   0.431   6.257  0.1602 -0.8875  0.9807
13224TIP3   OH261162   1.912   4.386  12.433  0.8049  0.2445 -0.3530
13224TIP3    H161163   1.863   4.365  12.353  0.2870 -0.2505  0.0807
13224TIP3    H261164   1.846   4.383  12.503  1.1560  1.1845  0.0240
13225TIP3   OH261165   4.510   1.150  16.517  0.0886  0.0083 -0.3181
13225TIP3    H161166   4.483   1.106  16.436  1.2226 -0.4207 -0.4871
13225TIP3    H261167   4.516   1.243  16.494 -0.0944 -0.0484 -0.5885
13226TIP3   OH261168   3.269   1.674  14.433  0.1341 -0.3045  0.7803
13226TIP3    H161169   3.262   1.585  14.467 -4.1345 -0.2405  0.6188
13226TIP3    H261170   3.252   1.731  14.508 -0.5728  0.1867  0.2719
13227TIP3   OH261171   2.288   0.960  11.782 -0.3087  0.3366  0.1267
13227TIP3    H161172   2.281   1.031  11.845  0.5646  1.2370 -0.7556
13227TIP3    H261173   2.370   0.916  11.803  0.2778  0.9947 -0.7010
13228TIP3   OH261174   0.591   5.501   6.147 -0.5115 -0.0977  0.4057
13228TIP3    H161175   0.605   5.539   6.061  0.3743  0.5267  0.7995
13228TIP3    H261176   0.519   5.551   6.185 -0.0328  0.5223  0.5215
13229TIP3   OH261177   0.215   3.171   0.106 -0.2982  0.6318  0.5843
13229TIP3    H161178   0.260   3.088   0.090  0.7823  1.2071  0.5260
13229TIP3    H261179   0.281   3.226   0.148 -1.2136  1.2401  1.2629
13230TIP3   OH261180   2.313   4.447   0.880  0.2070  0.4614  0.3143
13230TIP3    H161181   2.300   4.541   0.866 -0.5160  0.7429  2.4525
13230TIP3    H261182   2.288   4.407   0.797  0.6674  2.1515 -0.7012
13231TIP3   OH261183   3.146   0.819   5.440  0.4473  0.3996 -0.2430
13231TIP3    H161184   3.053   0.836   5.456  0.6104  0.0754  1.2529
13231TIP3    H261185   3.147   0.754   5.370 -0.5892 -1.3630  1.2704
13232TIP3   OH261186   0.795   0.244  17.084  0.2695  0.4002  0.4013
13232TIP3    H161187   0.722   0.211  17.031  0.7722  1.0318 -0.7039
13232TIP3    H261188   0.791   0.339  17.075  0.9707  0.4637  0.6692
13233TIP3   OH261189   4.612   1.750   4.232  0.0798 -0.1185  0.1050
13233TIP3    H161190   4.636   1.709   4.315  0.9075  2.1366  1.0468
13233TIP3    H261191   4.695   1.781   4.196 -0.1544 -1.7433 -2.0304
13234TIP3   OH261192   2.145   5.962   2.859 -0.8140  0.3000  0.3055
13234TIP3    H161193   2.071   5.905   2.882 -0.5354  0.1107  0.7374
13234TIP3    H261194   2.191   5.915   2.790 -2.3216  1.3957 -1.5638
13235TIP3   OH261195   4.844   5.895  15.679  0.3920  0.4517  0.7442
13235TIP3    H161196   4.930   5.856  15.666 -0.0004 -0.3051  0.3164
13235TIP3    H261197   4.792   5.863  15.605 -0.5329  0.0798  1.5287
13236TIP3   OH261198   2.783   5.803   6.263 -0.1336  0.3792  0.4215
13236TIP3    H161199   2.804   5.731   6.321  1.5219  0.7756  0.3488
13236TIP3    H261200   2.705   5.774   6.216  0.9881 -1.7425 -0.2361
13237TIP3   OH261201   3.000   0.281   4.685 -0.0624 -0.8517 -0.0058
13237TIP3    H161202   2.970   0.271   4.775 -1.2069 -0.5798 -0.3506
13237TIP3    H261203   2.982   0.372   4.663  2.3155 -0.2637  0.2177
13238TIP3   OH261204   1.326   2.140   2.785 -0.0066 -0.8485 -0.0064
13238TIP3    H161205   1.373   2.087   2.850  0.6342 -0.7003 -0.3341
13238TIP3    H261206   1.395   2.168   2.724 -0.1953  0.9241  0.5350
13239TIP3   OH261207   6.824   2.715   5.839  0.3589  0.2734 -0.1818
13239TIP3    H161208   6.852   2.693   5.927  0.8597 -0.7592 -0.5856
13239TIP3    H261209   6.824   2.632   5.791  0.0177  0.7952 -1.1309
13240TIP3   OH261210   6.488   4.007   3.971  0.1342 -0.2073  0.1733
13240TIP3    H161211   6.498   4.097   4.002  1.1393 -0.2633  0.0369
13240TIP3    H261212   6.436   3.964   4.039  0.3281  0.2698  0.6289
13241TIP3   OH261213   3.193   0.711  12.186  0.1904 -0.5783 -0.4971
13241TIP3    H161214   3.174   0.744  12.099 -2.0717  1.8210  0.7397
13241TIP3    H261215   3.267   0.763  12.217 -0.0215 -0.3077 -0.4395
13242TIP3   OH261216   5.788   3.545  13.189  0.3385  0.1860  0.0073
13242TIP3    H161217   5.816   3.466  13.143  0.8351 -0.3150  1.1303
13242TIP3    H261218   5.824   3.617  13.137  1.6156 -0.3877  0.0515
13243TIP3   OH261219   4.015   4.242   0.095 -0.0518  0.3051 -0.0486
13243TIP3    H161220   3.940   4.297   0.118  0.0722 -0.5099  2.6939
13243TIP3    H261221   4.054   4.218   0.180  1.1812 -2.1887 -1.2043
13244TIP3   OH261222   4.197   4.585  14.347 -0.5380  1.0364 -0.3655
13244TIP3    H161223   4.221   4.514  14.287  0.5491  0.3989  0.7606
13244TIP3    H261224   4.143   4.644  14.295  0.6574  0.6972 -2.0767
13245TIP3   OH261225   1.087   2.957   0.985  0.3653  0.5416  0.7763
13245TIP3    H161226   1.142   2.920   0.915 -1.8566 -0.1756 -0.6769
13245TIP3    H261227   1.096   3.051   0.975 -1.6501  0.5567 -2.0761
13246TIP3   OH261228   3.449   2.816  13.250  0.8106  0.0232 -0.5645
13246TIP3    H161229   3.445   2.728  13.213  0.0243  0.2635 -1.0758
13246TIP3    H261230   3.519   2.811  13.316  0.2603 -1.1916 -0.0395
13247TIP3   OH261231   4.705   2.619  14.579 -0.0577  0.1728 -0.3659
13247TIP3    H161232   4.694   2.536  14.627  0.1307 -0.8018 -1.9262
13247TIP3    H261233   4.786   2.607  14.530  0.1473  1.4352 -0.3548
13248TIP3   OH261234   1.213   4.812  16.388  0.5669 -0.9420 -0.3582
13248TIP3    H161235   1.217   4.780  16.478 -1.3680  0.9818  0.5118
13248TIP3    H261236   1.281   4.880  16.383 -1.2265  1.0670  0.6954
13249TIP3   OH261237   5.482   4.351   1.986 -0.4276 -0.2739  0.1994
13249TIP3    H161238   5.482   4.312   1.899  0.8356 -0.5269  0.2948
13249TIP3    H261239   5.574   4.360   2.009 -0.6645  2.2255  0.4600
13250TIP3   OH261240   5.943   1.653   5.131 -0.0381  0.3646 -0.3392
13250TIP3    H161241   5.961   1.559   5.132  2.4432  0.7841 -0.5145
13250TIP3    H261242   5.913   1.672   5.220 -0.3085 -0.5417 -0.2275
13251TIP3   OH261243   5.591   2.928  11.283  0.4182 -0.9416  0.3875
13251TIP3    H161244   5.583   2.946  11.190 -0.1745  1.2510  0.8078
13251TIP3    H261245   5.677   2.963  11.307 -0.0812 -0.0128  0.9230
13252TIP3   OH261246   4.555   5.985   0.575  0.0748 -0.1075  0.2780
13252TIP3    H161247   4.566   6.077   0.550 -0.4852 -0.3613 -1.0350
13252TIP3    H261248   4.514   5.988   0.661  1.6492  0.8487  1.0269
13253TIP3   OH261249   5.732   5.163  16.330  1.1277  0.0994  0.3900
13253TIP3    H161250   5.655   5.202  16.290  1.3605  0.3266  0.1564
13253TIP3    H261251   5.699   5.088  16.379  0.9470 -0.7406 -0.9738
13254TIP3   OH261252   1.353   3.827  12.870  0.1510  0.2155  0.6626
13254TIP3    H161253   1.279   3.809  12.929  0.2158 -2.6200  0.0165
13254TIP3    H261254   1.363   3.747  12.819  2.4047  1.2736 -0.7145
13255TIP3   OH261255   0.094   2.333   1.238 -0.2331  0.6446  0.4430
13255TIP3    H161256   0.182   2.365   1.215  0.8733 -1.3534  1.6223
13255TIP3    H261257   0.095   2.241   1.213 -2.5174  0.8730 -0.7435
13256TIP3   OH261258   2.010   0.796   5.841  0.4874 -0.4637 -0.9604
13256TIP3    H161259   1.924   0.832   5.862  0.3979 -0.0222 -2.0338
13256TIP3    H261260   2.040   0.757   5.923 -0.4742 -0.0975 -0.4173
13257TIP3   OH261261   4.797   0.864  16.082  0.0729  0.3747  0.2733
13257TIP3    H161262   4.786   0.913  16.163  0.4264  0.5454  0.2222
13257TIP3    H261263   4.816   0.775  16.110 -0.3171  0.3218  0.3708
13258TIP3   OH261264   3.110   2.319   0.198 -0.3072 -0.6213 -0.5089
13258TIP3    H161265   3.019   2.295   0.176 -0.4098  0.9398 -1.9935
13258TIP3    H261266   3.159   2.299   0.118  0.4060 -0.1813 -0.1794
13259TIP3   OH261267   6.178   4.200   6.029  0.0974 -0.1848  0.2924
13259TIP3    H161268   6.264   4.219   6.066  0.5063  0.3164 -0.8438
13259TIP3    H261269   6.165   4.106   6.044  2.1923 -0.9861 -2.0812
13260TIP3   OH261270   6.740   5.253   2.813 -0.2197  0.0814  0.6180
13260TIP3    H161271   6.759   5.160   2.821  0.7031  0.2783  0.7493
13260TIP3    H261272   6.734   5.285   2.903 -0.5493  0.1529  0.5738
13261TIP3   OH261273   2.020   4.483  15.118 -0.4229  0.0855 -0.3274
13261TIP3    H161274   2.074   4.454  15.044 -0.3947 -1.2329  0.1924
13261TIP3    H261275   2.071   4.459  15.195 -0.5011  1.3614  0.1444
13262TIP3   OH261276   2.695   4.544   5.809  0.1585  0.0059  0.2119
13262TIP3    H161277   2.739   4.511   5.888 -1.3519 -0.4338  0.9066
13262TIP3    H261278   2.657   4.628   5.836  0.3040  0.2329 -0.2833
13263TIP3   OH261279   0.209   0.315  15.507 -0.6476 -0.6359  0.2406
13263TIP3    H161280   0.126   0.348  15.474 -1.3750 -1.6019  1.0027
13263TIP3    H261281   0.186   0.231  15.549  0.4797 -0.3027  1.6135
13264TIP3   OH261282   0.594   1.938   2.052  0.0234  0.5491  0.2744
13264TIP3    H161283   0.578   1.844   2.055  3.4033 -0.1575  0.3407
13264TIP3    H261284   0.641   1.952   1.970  3.4180  1.3296  2.1696
13265TIP3   OH261285   4.094   0.238   0.922  0.1287  0.5142 -0.4373
13265TIP3    H161286   4.102   0.332   0.941 -0.7013  0.4304  0.4142
13265TIP3    H261287   4.012   0.212   0.965  0.1754 -0.5320 -0.9534
13266TIP3   OH261288   1.921   5.447  12.707 -0.0268  0.7879 -0.4865
13266TIP3    H161289   2.008   5.440  12.748 -0.6444  1.8353  1.1063
13266TIP3    H261290   1.899   5.357  12.682  1.3707  0.4582 -0.6347
13267TIP3   OH261291   5.563   1.153  15.800 -0.2189 -0.4232  0.0454
13267TIP3    H161292   5.534   1.192  15.882  1.5878 -0.2026  0.6197
13267TIP3    H261293   5.650   1.118  15.819 -0.7814 -2.6119 -1.1140
13268TIP3   OH261294   4.181   6.503   5.059 -0.0032  0.1126  0.4291
13268TIP3    H161295   4.162   6.522   4.967  1.3370  0.9732  0.2912
13268TIP3    H261296   4.185   6.589   5.101  1.9248 -0.0838  0.7304
13269TIP3   OH261297   3.002   5.441  12.646  0.1938 -0.4061 -0.2508
13269TIP3    H161298   2.920   5.418  12.691 -0.4249 -0.3944 -1.3430
13269TIP3    H261299   3.065   5.377  12.678 -1.0119 -2.4742 -1.7402
13270TIP3   OH261300   0.795   6.679  11.195 -0.4176 -0.0687 -0.3908
13270TIP3    H161301   0.762   6.707  11.110 -0.6633 -0.0553 -0.2910
13270TIP3    H261302   0.764   6.589  11.204 -2.2394  0.6183  0.6226
13271TIP3   OH261303   0.896   2.783  14.473  0.2784  0.2815 -0.1245
13271TIP3    H161304   0.809   2.776  14.434  1.4684 -0.8645 -2.9180
13271TIP3    H261305   0.945   2.838  14.411  1.0964  2.5991  2.3908
13272TIP3   OH261306   2.626   4.297  13.963  0.2249 -0.1133  0.3696
13272TIP3    H161307   2.567   4.308  14.037  1.5572  1.9589  1.1843
13272TIP3    H261308   2.666   4.211  13.977 -1.5170 -0.9586  0.5134
13273TIP3   OH261309   5.345   1.088   4.700 -0.0422  0.4694  0.5267
13273TIP3    H161310   5.427   1.136   4.708 -1.6852  3.3734  1.6249
13273TIP3    H261311   5.331   1.050   4.787  0.3686 -0.4326  0.1990
13274TIP3   OH261312   1.985   0.702   0.018  0.1609  0.1710 -0.9834
13274TIP3    H161313   2.014   0.667   0.103  1.6576 -3.5398 -2.7962
13274TIP3    H261314   1.916   0.642  -0.010 -1.7251  2.4999 -1.6099
13275TIP3   OH261315   3.379   3.990   6.337 -0.1944 -0.3993 -0.2225
13275TIP3    H161316   3.472   3.994   6.358 -0.4672 -1.3997  1.3256
13275TIP3    H261317   3.347   3.913   6.385 -2.1863  0.9796  0.7638
13276TIP3   OH261318   3.667   3.053  12.058 -0.5912  0.0248 -0.2442
13276TIP3    H161319   3.645   3.012  11.974 -0.9481 -0.9334  0.2966
13276TIP3    H261320   3.625   2.997  12.123 -1.8100  1.7132  0.5094
13277TIP3   OH261321   6.568   4.592   3.441 -0.0543  0.5730  0.2296
13277TIP3    H161322   6.629   4.519   3.425 -0.0903  0.1678  1.7559
13277TIP3    H261323   6.623   4.662   3.476 -0.4166  0.2275  1.5581
13278TIP3   OH261324   0.652   4.255   3.272 -0.3058  0.3742  0.4487
13278TIP3    H161325   0.581   4.310   3.308 -0.7288 -0.2531  0.5918
13278TIP3    H261326   0.623   4.233   3.184 -0.2617  0.1677  0.4851
13279TIP3   OH261327   6.438   1.070  16.470 -0.2135 -0.5693 -0.3351
13279TIP3    H161328   6.385   1.035  16.541  1.2848  1.8837  2.1840
13279TIP3    H261329   6.515   1.013  16.468 -0.8942 -1.5007 -1.0404
13280TIP3   OH261330   4.794   3.105   5.942 -0.0857 -0.5135  0.2326
13280TIP3    H161331   4.776   3.184   5.993 -1.3768 -1.0609  0.6758
13280TIP3    H261332   4.889   3.105   5.929 -0.0519  1.0218  0.3541
13281TIP3   OH261333   2.079   3.593   1.079  0.1593 -0.0966  0.4031
13281TIP3    H161334   2.071   3.624   1.169  0.5894  0.4307  0.2654
13281TIP3    H261335   2.086   3.498   1.087  0.2263 -0.0501  0.9278
13282TIP3   OH261336   2.073   3.754  15.210 -0.1184 -0.1133  0.2994
13282TIP3    H161337   1.978   3.742  15.203 -0.0832 -0.2457  0.0292
13282TIP3    H261338   2.086   3.849  15.206 -0.1627 -0.1392 -0.7295
13283TIP3   OH261339   5.475   0.831  13.482  0.0298  0.2837 -0.6952
13283TIP3    H161340   5.499   0.742  13.457 -1.0714  0.4945 -2.7847
13283TIP3    H261341   5.389   0.823  13.522  0.2803  0.3274 -0.1423
13284TIP3   OH261342   4.796   3.182  15.559  0.2847  0.1392  0.3059
13284TIP3    H161343   4.761   3.148  15.476 -0.0825 -1.1248  0.9492
13284TIP3    H261344   4.847   3.259  15.534  2.9496 -2.0481 -1.5589
13285TIP3   OH261345   1.836   5.229  11.243  0.1644  1.1424  0.0580
13285TIP3    H161346   1.813   5.247  11.334 -1.5013  0.1651 -0.1401
13285TIP3    H261347   1.889   5.304  11.216 -0.3649  2.0432  1.4606
13286TIP3   OH261348   3.448   0.201  13.318 -0.6349  0.5085 -0.5293
13286TIP3    H161349   3.381   0.132  13.311  0.4953 -0.8972  1.2999
13286TIP3    H261350   3.399   0.283  13.312 -2.4766 -0.4632  0.2696
13287TIP3   OH261351   5.498   2.093   4.598 -0.0031  0.0478 -0.1633
13287TIP3    H161352   5.590   2.110   4.615 -0.3961  0.8512  1.3389
13287TIP3    H261353   5.458   2.087   4.684 -1.6072  1.1440 -0.7807
13288TIP3   OH261354   3.068   6.328  11.123 -0.3059  0.6010 -0.2264
13288TIP3    H161355   3.160   6.341  11.146 -0.5632  0.9784  0.6092
13288TIP3    H261356   3.053   6.388  11.050  0.4048 -0.2950 -1.1343
13289TIP3   OH261357   4.932   3.211   0.535 -0.1163  0.1670 -0.0761
13289TIP3    H161358   4.973   3.127   0.557  2.3730  1.6865  1.5284
13289TIP3    H261359   4.959   3.229   0.445  0.5664 -0.0775  0.0793
13290TIP3   OH261360   3.522   2.532  13.569 -0.2317  0.2644 -0.3869
13290TIP3    H161361   3.480   2.583  13.638 -0.1245  0.6207 -0.5861
13290TIP3    H261362   3.449   2.498  13.517 -0.3513 -0.5748  0.2902
13291TIP3   OH261363   1.414   4.307   3.406  0.1646  0.3114 -0.5584
13291TIP3    H161364   1.325   4.338   3.423  0.6489  1.3875  0.1131
13291TIP3    H261365   1.404   4.214   3.386 -1.2392  0.6850 -1.7321
13292TIP3   OH261366   1.654   5.948  15.968  0.4112 -0.0648  0.3612
13292TIP3    H161367   1.724   6.002  15.934  0.8878 -0.6824  0.3387
13292TIP3    H261368   1.696   5.865  15.992  0.0425  0.2205  2.1397
13293TIP3   OH261369   0.178   6.451   2.928  0.1347  0.4568 -0.7280
13293TIP3    H161370   0.137   6.537   2.923 -0.4392  0.2454  0.1136
13293TIP3    H261371   0.111   6.395   2.969  0.3515 -0.4825 -1.6229
13294TIP3   OH261372   5.686   0.410   1.834  0.1318  0.0774 -0.4391
13294TIP3    H161373   5.745   0.474   1.874 -1.3495  0.5370  1.1819
13294TIP3    H261374   5.725   0.325   1.854  0.4199  0.3798  0.3231
13295TIP3   OH261375   0.834   4.011   0.806  0.1011  0.4864 -0.5111
13295TIP3    H161376   0.810   4.100   0.831  0.0924  0.9122 -1.9025
13295TIP3    H261377   0.886   3.978   0.879  1.1824  2.0951 -0.4982
13296TIP3   OH261378   0.138   4.046   2.359 -0.6781  0.2944 -0.8389
13296TIP3    H161379   0.084   4.121   2.381 -2.0778 -1.2600  1.4414
13296TIP3    H261380   0.104   4.015   2.275  0.2216  2.3732 -2.0409
13297TIP3   OH261381   0.676   4.340   5.309  0.0643 -0.0810 -0.1479
13297TIP3    H161382   0.752   4.378   5.355  0.8553 -1.1621 -0.5206
13297TIP3    H261383   0.714   4.290   5.237 -1.0962  0.4667 -1.1753
13298TIP3   OH261384   3.857   4.252  14.629 -0.0516  0.0530  0.2494
13298TIP3    H161385   3.876   4.344  14.608 -0.2619 -0.0456 -0.4047
13298TIP3    H261386   3.812   4.256  14.713 -1.3843  0.6920 -0.4518
13299TIP3   OH261387   3.032   4.326   5.939 -0.0727 -0.1313  0.5655
13299TIP3    H161388   3.039   4.380   6.017 -0.7855  0.5327  0.1792
13299TIP3    H261389   2.942   4.293   5.941 -0.5312  0.9906 -0.6775
13300TIP3   OH261390   5.928   4.508  15.249  0.2718  0.0547  0.3351
13300TIP3    H161391   5.885   4.461  15.178 -0.7508  0.4349  0.6921
13300TIP3    H261392   6.012   4.464  15.259 -0.4572 -1.3869  0.3365
13301TIP3   OH261393   0.260   1.774   0.858 -0.2070  0.5829 -0.2194
13301TIP3    H161394   0.174   1.808   0.880  0.5181  1.5017  1.4248
13301TIP3    H261395   0.320   1.845   0.879  1.0156 -0.3105 -0.5709
13302TIP3   OH261396   5.374   2.283   3.851 -0.1770 -0.0939 -0.3625
13302TIP3    H161397   5.302   2.340   3.880 -1.4600 -0.8352 -1.9088
13302TIP3    H261398   5.453   2.328   3.879 -1.1890  1.7571 -0.2967
13303TIP3   OH261399   2.397   3.867  13.379 -0.3751 -0.3321  0.0339
13303TIP3    H161400   2.369   3.920  13.453  1.8417 -2.1053  2.2842
13303TIP3    H261401   2.316   3.847  13.332 -1.5316  3.0502  0.3464
13304TIP3   OH261402   3.158   2.305   2.046 -0.0494  0.1969 -0.8540
13304TIP3    H161403   3.215   2.299   2.122  1.3461  0.0658 -1.8593
13304TIP3    H261404   3.163   2.219   2.005 -3.2487 -0.7606  0.5213
13305TIP3   OH261405   2.161   2.758  15.745 -0.3497  0.8482 -0.2477
13305TIP3    H161406   2.254   2.760  15.725 -0.8235 -0.3117 -3.1323
13305TIP3    H261407   2.152   2.691  15.813  0.8351  0.1412 -0.7597
13306TIP3   OH261408   5.595   3.967   1.999  0.2584  0.0581  0.0687
13306TIP3    H161409   5.510   3.991   2.035  1.6797  2.9066  1.8860
13306TIP3    H261410   5.577   3.945   1.907 -2.3558  0.9921  0.2809
13307TIP3   OH261411   1.272   2.064   4.010  0.1825  0.2000  0.1440
13307TIP3    H161412   1.316   2.148   4.016 -0.7413  0.6715  0.3879
13307TIP3    H261413   1.191   2.082   3.963  0.9844 -0.9571 -1.8198
13308TIP3   OH261414   4.720   6.638   2.097 -0.4121 -0.2298  0.4715
13308TIP3    H161415   4.639   6.645   2.047  0.2042 -0.4502 -0.5773
13308TIP3    H261416   4.704   6.693   2.174 -2.0847 -1.4135  1.0361
13309TIP3   OH261417   2.985   2.273  14.259 -0.0824 -0.2968  0.4230
13309TIP3    H161418   3.027   2.281  14.173  0.1377  0.5765  0.6052
13309TIP3    H261419   2.946   2.359  14.275 -0.2184 -0.4881  1.1554
13310TIP3   OH261420   0.435   2.796  16.474 -0.2149  0.0737  0.1977
13310TIP3    H161421   0.461   2.812  16.383 -0.9974 -1.2613 -0.2798
13310TIP3    H261422   0.411   2.883  16.507  1.1360  0.7581 -0.5036
13311TIP3   OH261423   3.920   6.030   4.060 -0.0727  0.2380 -0.0682
13311TIP3    H161424   3.833   6.025   4.100 -0.1112  0.6148 -0.1088
13311TIP3    H261425   3.917   5.964   3.990 -0.0162 -0.3922  0.5172
13312TIP3   OH261426   2.584   1.315   1.223  0.2740  0.5623  0.3370
13312TIP3    H161427   2.528   1.279   1.155  0.1975  0.5061  0.4287
13312TIP3    H261428   2.667   1.333   1.180  1.0904 -1.8149  0.7599
13313TIP3   OH261429   0.309   6.414  15.642 -0.1973 -0.3164  0.0051
13313TIP3    H161430   0.348   6.328  15.656 -0.1060  0.1547  3.6579
13313TIP3    H261431   0.254   6.429  15.719 -1.3854  2.3181 -1.2035
13314TIP3   OH261432   1.494   0.837  13.490 -1.0251  0.3147 -0.4751
13314TIP3    H161433   1.444   0.799  13.562 -0.0515 -1.1536 -0.5248
13314TIP3    H261434   1.575   0.786  13.488 -0.7046  0.8350 -2.1106
13315TIP3   OH261435   3.139   6.184   4.279 -0.1184  0.1658  0.2889
13315TIP3    H161436   3.196   6.209   4.206  1.9607 -0.6454  1.5559
13315TIP3    H261437   3.059   6.234   4.265  1.7770  3.2969 -0.2575
13316TIP3   OH261438   4.012   2.481  13.533  0.1800  0.2809  0.0794
13316TIP3    H161439   3.934   2.477  13.478  0.2477  0.8455 -0.0607
13316TIP3    H261440   4.057   2.398  13.518  0.6142  0.7546 -1.3398
13317TIP3   OH261441   1.385   4.016   0.477 -0.2120  0.4740  0.1645
13317TIP3    H161442   1.472   4.043   0.447  0.3098 -1.3971 -0.1629
13317TIP3    H261443   1.328   4.029   0.402  0.3866 -0.9033 -0.5653
13318TIP3   OH261444   0.430   4.066   2.395  0.3951 -0.0291  0.5892
13318TIP3    H161445   0.442   4.151   2.438 -1.2984  0.8529 -0.5591
13318TIP3    H261446   0.338   4.066   2.368  1.0616 -1.0230 -1.9636
13319TIP3   OH261447   1.437   1.099  14.000 -0.3181 -0.2800 -0.5255
13319TIP3    H161448   1.501   1.166  14.022 -0.6119 -0.3034  0.4201
13319TIP3    H261449   1.353   1.145  13.995 -0.5538 -0.5897  0.3196
13320TIP3   OH261450   5.302   1.772  13.484 -0.5297 -0.4747  0.1882
13320TIP3    H161451   5.393   1.800  13.488 -0.9549  0.8961  1.8518
13320TIP3    H261452   5.301   1.698  13.423  1.4872  0.1764 -0.7062
13321TIP3   OH261453   0.545   6.557  13.675 -0.7892 -0.0648  0.7607
13321TIP3    H161454   0.460   6.554  13.719 -0.6757 -0.9691  0.9290
13321TIP3    H261455   0.608   6.531  13.742 -0.2502  1.4950  0.9053
13322TIP3   OH261456   2.564   2.996  11.213 -0.2057  0.0197 -0.1374
13322TIP3    H161457   2.627   2.933  11.247 -0.5479 -1.5712 -2.2161
13322TIP3    H261458   2.577   2.994  11.118 -0.6534  2.6881 -0.3277
13323TIP3   OH261459   0.561   5.182  16.067  0.1689  0.0501  0.2016
13323TIP3    H161460   0.649   5.217  16.055 -0.1450  2.1639  2.9572
13323TIP3    H261461   0.549   5.120  15.995  3.5585  0.3097 -0.7396
13324TIP3   OH261462   1.758   2.708   0.717 -0.2869  0.0366  0.1660
13324TIP3    H161463   1.722   2.690   0.803 -0.4489 -0.0123  0.0886
13324TIP3    H261464   1.775   2.802   0.718 -1.1556  0.2070 -0.0689
13325TIP3   OH261465   6.137   0.165   1.052 -0.4198  0.0568 -0.6771
13325TIP3    H161466   6.111   0.113   0.977 -0.6159  0.0465 -0.6015
13325TIP3    H261467   6.056   0.206   1.083 -0.4787 -0.5515  0.0026
13326TIP3   OH261468   5.919   2.894   2.977 -0.4558 -0.0360  0.2135
13326TIP3    H161469   6.013   2.891   2.995 -0.1363  0.3747 -1.2085
13326TIP3    H261470   5.913   2.899   2.882 -1.9703 -1.2095  0.2030
13327TIP3   OH261471   6.591   5.773   3.337 -0.1640  0.2239  0.2896
13327TIP3    H161472   6.552   5.841   3.392 -0.8450 -0.1459  0.2735
13327TIP3    H261473   6.602   5.816   3.252 -1.3063  0.1067  0.0603
13328TIP3   OH261474   0.309   6.721  12.277  0.1443  0.5968  0.2546
13328TIP3    H161475   0.365   6.644  12.267  0.9707  1.1385  0.5690
13328TIP3    H261476   0.280   6.718  12.369  0.2619  0.7172  0.2952
13329TIP3   OH261477   6.083   3.830   4.997 -0.0771 -0.2045  0.4267
13329TIP3    H161478   6.006   3.837   5.053 -0.7915 -0.8792 -0.4546
13329TIP3    H261479   6.134   3.908   5.018 -1.3251  0.6116  0.5376
13330TIP3   OH261480   0.231   5.598   4.376 -0.1252 -0.2870 -0.0962
13330TIP3    H161481   0.145   5.560   4.388  0.3277 -0.7589  1.9350
13330TIP3    H261482   0.225   5.686   4.414  0.2294 -0.2248 -0.1732
13331TIP3   OH261483   1.002   1.836   3.832 -0.5712 -0.2648 -0.2286
13331TIP3    H161484   0.998   1.876   3.919 -2.4941  0.4674 -0.5978
13331TIP3    H261485   0.945   1.759   3.839  0.6733 -1.2303 -0.3817
13332TIP3   OH261486   1.220   6.203   2.564  0.5068  0.6656  0.2535
13332TIP3    H161487   1.195   6.241   2.480 -0.3624 -0.5025 -0.0349
13332TIP3    H261488   1.253   6.278   2.615 -1.4071  1.8789 -0.1798
13333TIP3   OH261489   4.350   2.059  13.744 -0.0934  0.4492  0.3068
13333TIP3    H161490   4.396   2.137  13.715 -0.2792 -0.1540 -1.7667
13333TIP3    H261491   4.266   2.091  13.776  0.6694  1.2818  1.5442
13334TIP3   OH261492   4.120   5.548   0.695  0.0337  0.5787  0.5997
13334TIP3    H161493   4.198   5.595   0.666  1.2217 -1.4783  0.2593
13334TIP3    H261494   4.113   5.569   0.788  0.3366  1.6543  0.3946
13335TIP3   OH261495   1.907   4.136   5.596 -0.1177 -0.5715 -0.6308
13335TIP3    H161496   1.919   4.140   5.690  1.9895  1.6452 -0.8908
13335TIP3    H261497   1.936   4.047   5.572  0.1568 -0.8648  0.7002
13336TIP3   OH261498   2.607   6.465  15.806  0.4406 -0.5469 -0.3330
13336TIP3    H161499   2.626   6.371  15.798 -1.8034 -1.1721  0.8497
13336TIP3    H261500   2.515   6.468  15.833 -0.2034  2.0887 -2.4639
13337TIP3   OH261501   3.023   1.462  14.043 -0.1821 -0.2140 -0.8589
13337TIP3    H161502   3.052   1.382  13.998 -0.5347 -0.0007 -1.4832
13337TIP3    H261503   3.046   1.447  14.135  1.5264 -0.2262 -1.2383
13338TIP3   OH261504   5.885   0.313   3.512 -1.0390 -0.3284  0.3653
13338TIP3    H161505   5.890   0.407   3.498 -1.3132 -0.5398 -1.3456
13338TIP3    H261506   5.792   0.295   3.522 -1.0587 -0.5078 -0.1043
13339TIP3   OH261507   4.963   3.417   0.797 -0.1065  0.8856 -0.6472
13339TIP3    H161508   5.038   3.393   0.850 -0.1023 -0.1043 -1.0786
13339TIP3    H261509   4.960   3.351   0.728 -1.5282  0.7363 -0.4794
13340TIP3   OH261510   3.856   0.112  16.520 -0.3895  0.3481  0.3001
13340TIP3    H161511   3.879   0.133  16.429 -0.3056 -1.4253 -0.1435
13340TIP3    H261512   3.784   0.048  16.511 -1.4357  1.3172  1.5270
13341TIP3   OH261513   3.428   2.734  13.741  0.5569 -0.0067  0.2236
13341TIP3    H161514   3.508   2.714  13.791 -0.6042 -0.2872  2.0811
13341TIP3    H261515   3.452   2.811  13.688  2.1505 -0.2945  0.4625
13342TIP3   OH261516   4.329   3.404   6.394  0.6254  0.0009 -0.1437
13342TIP3    H161517   4.405   3.387   6.339  0.0812 -1.2775 -0.5346
13342TIP3    H261518   4.259   3.351   6.356 -0.6181  1.5580 -0.1120
13343TIP3   OH261519   6.631   2.882   2.585 -0.1009 -0.4971 -0.0778
13343TIP3    H161520   6.621   2.788   2.598 -0.9412 -0.2483  1.2621
13343TIP3    H261521   6.706   2.905   2.639  1.3643 -0.6628 -1.9192
13344TIP3   OH261522   5.530   4.878  13.624  0.4513  0.0408 -0.1159
13344TIP3    H161523   5.503   4.957  13.671  2.0288 -0.9408  2.7241
13344TIP3    H261524   5.587   4.832  13.686  2.1831 -1.7770 -2.8230
13345TIP3   OH261525   3.508   5.509   4.044  0.0725  0.5435 -0.8394
13345TIP3    H161526   3.432   5.565   4.059 -0.5559 -0.4492 -0.1637
13345TIP3    H261527   3.575   5.568   4.010 -0.4081  1.7993  0.2966
13346TIP3   OH261528   5.858   3.567   5.866 -0.8361 -0.4104 -0.0774
13346TIP3    H161529   5.901   3.631   5.923  0.9465 -1.7383  0.1490
13346TIP3    H261530   5.913   3.564   5.788 -0.2003 -2.4763  0.3981
13347TIP3   OH261531   1.603   4.646  15.493  0.0464  0.9636  0.0759
13347TIP3    H161532   1.682   4.603  15.526 -0.4341  0.7298  0.9627
13347TIP3    H261533   1.633   4.697  15.418  0.7288 -0.4681 -0.6663
13348TIP3   OH261534   0.910   5.307  11.940 -0.2839  0.1208  0.5598
13348TIP3    H161535   0.859   5.364  11.883 -1.3041 -1.4009 -0.1068
13348TIP3    H261536   1.001   5.319  11.912 -0.3615  1.9909  0.9880
13349TIP3   OH261537   0.343   6.141  12.611  0.5171 -0.0865 -0.1100
13349TIP3    H161538   0.367   6.222  12.656  3.0454  0.4291 -2.1179
13349TIP3    H261539   0.367   6.072  12.672 -0.0935  0.6144  0.9592
13350TIP3   OH261540   5.162   1.439   1.125  0.8013  0.0562  0.2478
13350TIP3    H161541   5.118   1.516   1.089 -0.4844 -1.0152 -0.5420
13350TIP3    H261542   5.128   1.432   1.215  0.8725  0.3585  0.3006
13351TIP3   OH261543   0.173   5.836   5.069  0.0773  0.5070  0.2399
13351TIP3    H161544   0.147   5.747   5.093 -1.5107  0.6172 -0.9303
13351TIP3    H261545   0.264   5.827   5.041 -0.3709 -0.9759 -0.8988
13352TIP3   OH261546   3.459   5.869  16.701 -0.4730 -0.1522  0.0491
13352TIP3    H161547   3.419   5.953  16.727  0.5070  0.3291  0.0277
13352TIP3    H261548   3.473   5.878  16.607 -0.7693 -0.5172 -0.0305
13353TIP3   OH261549   3.869   5.241  11.567 -0.7539  0.3744  0.3135
13353TIP3    H161550   3.826   5.298  11.631  0.8459  0.4176  1.4048
13353TIP3    H261551   3.842   5.153  11.593 -0.7226  0.4422  0.5843
13354TIP3   OH261552   6.264   1.476  13.727  0.1061  0.0616 -0.3107
13354TIP3    H161553   6.288   1.480  13.635  2.7997  0.2496  0.3078
13354TIP3    H261554   6.226   1.389  13.739  1.4418 -0.6792 -1.2497
13355TIP3   OH261555   2.346   4.505   5.822 -0.5183  0.3801 -0.0215
13355TIP3    H161556   2.361   4.597   5.846  1.6678  0.2174 -0.6194
13355TIP3    H261557   2.353   4.458   5.905  1.4887  0.4417 -0.1127
13356TIP3   OH261558   1.193   5.649   6.001  0.3297  0.0648  0.0893
13356TIP3    H161559   1.117   5.627   6.056  1.0714  1.4102  1.7745
13356TIP3    H261560   1.260   5.587   6.027 -0.2221 -1.3387 -1.6383
13357TIP3   OH261561   1.060   2.617  12.336  0.1303 -0.4346 -0.6174
13357TIP3    H161562   1.113   2.674  12.391 -0.1127 -0.0373 -0.7926
13357TIP3    H261563   1.109   2.611  12.254 -1.5028  2.3949 -1.9329
13358TIP3   OH261564   2.674   1.016   2.748 -0.1010 -0.1999  0.0748
13358TIP3    H161565   2.745   1.004   2.685 -1.1215  0.2021 -1.2070
13358TIP3    H261566   2.651   0.927   2.776  0.5333 -0.3666  0.0784
13359TIP3   OH261567   5.005   2.221  11.156  0.2417  0.4024 -0.6385
13359TIP3    H161568   4.936   2.274  11.115 -0.0399 -0.0056 -0.7027
13359TIP3    H261569   4.980   2.130  11.136 -0.0044  0.1856  0.6126
13360TIP3   OH261570   5.922   1.561   0.196  0.4607  0.0325 -0.0575
13360TIP3    H161571   5.949   1.652   0.180  0.0208  0.3589  0.8976
13360TIP3    H261572   5.830   1.559   0.168 -0.0079  0.3370  1.3626
13361TIP3   OH261573   2.483   4.023   5.033  0.3768  0.0550  0.5427
13361TIP3    H161574   2.490   4.052   5.124  3.0941 -1.3431  0.9132
13361TIP3    H261575   2.429   3.944   5.038  2.0199 -1.0891  1.3290
13362TIP3   OH261576   5.399   6.303  15.471  0.3589 -0.1522  0.4783
13362TIP3    H161577   5.319   6.351  15.495  0.4973 -0.2504  1.1693
13362TIP3    H261578   5.384   6.215  15.505 -0.0941 -0.7638 -1.1923
13363TIP3   OH261579   6.026   6.137  15.166  0.2227 -0.1606  0.3140
13363TIP3    H161580   5.938   6.118  15.135 -0.5196  0.7612  1.7273
13363TIP3    H261581   6.084   6.098  15.101 -1.2184  0.5793 -1.5042
13364TIP3   OH261582   3.068   1.982  13.586  0.2831  0.4994 -0.0739
13364TIP3    H161583   3.120   2.016  13.513 -1.1073 -0.4605 -1.5652
13364TIP3    H261584   2.991   2.039  13.590 -0.6786 -0.7045 -0.7667
13365TIP3   OH261585   4.143   3.411   4.132  0.3095 -0.2494 -0.8284
13365TIP3    H161586   4.221   3.396   4.078  0.1165  0.3439 -1.2939
13365TIP3    H261587   4.166   3.487   4.185 -0.4777  0.8987 -2.0644
13366TIP3   OH261588   6.628   5.740   0.303  0.2632 -0.3625  0.2906
13366TIP3    H161589   6.632   5.649   0.331  0.4538  0.2412  2.3708
13366TIP3    H261590   6.561   5.742   0.234  0.0872 -2.0045  0.3914
13367TIP3   OH261591   6.507   3.386  13.472  0.2293  0.2014  0.0692
13367TIP3    H161592   6.531   3.326  13.402 -1.9988 -1.0437  0.2675
13367TIP3    H261593   6.586   3.395  13.524  1.0700 -1.3358 -0.8638
13368TIP3   OH261594   4.612   4.270  15.709 -0.0631  0.3834  0.3026
13368TIP3    H161595   4.628   4.205  15.777  1.1697 -0.0898 -0.4168
13368TIP3    H261596   4.528   4.309  15.733  0.9361  1.1530  2.8287
13369TIP3   OH261597   1.601   3.951  11.964 -0.1021 -0.4140  0.3642
13369TIP3    H161598   1.531   4.014  11.981 -0.4947 -0.4780 -0.9539
13369TIP3    H261599   1.555   3.874  11.930  0.5392 -0.7621  0.2821
13370TIP3   OH261600   3.914   3.634   2.539 -0.1914  0.3161  0.1051
13370TIP3    H161601   3.962   3.702   2.586 -0.4211  1.4810 -1.2638
13370TIP3    H261602   3.823   3.665   2.539 -0.3854 -0.2344 -0.1314
13371TIP3   OH261603   2.895   1.619  16.780 -0.0737  0.0036  0.2727
13371TIP3    H161604   2.932   1.630  16.868 -0.8187 -0.3720  0.6356
13371TIP3    H261605   2.881   1.709  16.750 -1.7766  0.1628  1.3884
13372TIP3   OH261606   5.734   3.362  16.727 -0.4116 -0.6624  0.2003
13372TIP3    H161607   5.699   3.345  16.639 -0.4781 -1.9731  0.4588
13372TIP3    H261608   5.661   3.402  16.774 -0.7045 -0.8719 -0.0660
13373TIP3   OH261609   0.710   4.703   2.210 -0.2658 -0.4361 -0.0197
13373TIP3    H161610   0.787   4.668   2.167 -0.6195 -0.4121 -0.6921
13373TIP3    H261611   0.662   4.627   2.240 -1.4732 -0.6387 -2.2416
13374TIP3   OH261612   3.967   4.971  12.463 -0.2805 -0.2535 -0.0954
13374TIP3    H161613   4.013   4.900  12.419 -1.5196 -1.7985  1.0261
13374TIP3    H261614   3.987   5.049  12.410  1.2590 -1.3749 -1.2337
13375TIP3   OH261615   2.064   6.833  15.792  0.6035 -0.5847 -0.0193
13375TIP3    H161616   2.075   6.905  15.730 -0.1089  1.8500  2.4835
13375TIP3    H261617   1.979   6.795  15.772  0.9561 -0.7210 -1.3201
13376TIP3   OH261618   1.045   5.096   1.927  0.1131  0.1187 -0.2052
13376TIP3    H161619   1.081   5.103   2.015  1.1479 -2.6939 -0.3114
13376TIP3    H261620   0.957   5.133   1.934  0.7578  1.4845  1.5460
13377TIP3   OH261621   6.807   6.678   5.403 -0.2281  0.3648 -0.4970
13377TIP3    H161622   6.860   6.713   5.474 -0.1017  1.0526 -0.9227
13377TIP3    H261623   6.806   6.583   5.418 -0.0850  0.4908  0.3307
13378TIP3   OH261624   6.698   3.850  11.813  0.5052 -0.0085 -0.0918
13378TIP3    H161625   6.728   3.921  11.870  0.3300 -0.8176  1.0486
13378TIP3    H261626   6.742   3.772  11.848  1.1374 -0.3977 -1.6714
13379TIP3   OH261627   6.016   5.425  11.069  0.2208  0.2009  0.4197
13379TIP3    H161628   6.097   5.449  11.024  0.0824  0.5129  0.3317
13379TIP3    H261629   6.017   5.329  11.070 -0.2024  0.1578 -1.0649
13380TIP3   OH261630   0.013   2.453  13.858  0.9385  0.6453 -0.3317
13380TIP3    H161631  -0.004   2.538  13.897 -2.6137  0.5653 -1.2905
13380TIP3    H261632   0.062   2.472  13.778  2.2588  1.4862  0.6462
13381TIP3   OH261633   0.855   0.392   6.005  0.5342 -0.3187 -0.4488
13381TIP3    H161634   0.855   0.366   6.097  2.3553 -0.9399 -0.5684
13381TIP3    H261635   0.866   0.310   5.957 -4.4242 -0.5848 -1.5788
13382TIP3   OH261636   6.200   0.032  14.971 -0.0631 -0.2495  0.0687
13382TIP3    H161637   6.157   0.007  15.053 -0.5502 -1.7169 -0.6186
13382TIP3    H261638   6.135   0.017  14.903  0.6826 -0.0148 -0.7139
13383TIP3   OH261639   4.857   0.951  16.522  0.3534 -0.3302  0.3342
13383TIP3    H161640   4.808   0.877  16.558 -0.0588  0.2368  0.9574
13383TIP3    H261641   4.816   0.967  16.437 -0.1512 -0.2504  0.5871
13384TIP3   OH261642   0.587   5.658   5.895  0.1096 -0.1332 -0.0740
13384TIP3    H161643   0.626   5.616   5.818 -0.0851 -0.2229 -0.1244
13384TIP3    H261644   0.517   5.713   5.859 -0.1129 -0.3287  0.0538
13385TIP3   OH261645   6.252   4.756   3.904  0.4867 -0.5429 -0.3189
13385TIP3    H161646   6.335   4.755   3.856  1.1892 -2.2644  0.8262
13385TIP3    H261647   6.277   4.744   3.996 -1.0386 -2.6903 -0.0947
13386TIP3   OH261648   1.396   4.803   2.989 -0.4776 -0.6157 -0.1964
13386TIP3    H161649   1.406   4.885   2.940 -3.4532  0.4352  0.7454
13386TIP3    H261650   1.432   4.822   3.075 -0.5465 -0.5433 -0.1840
13387TIP3   OH261651   2.104   1.126   1.935 -0.4825 -0.3254  0.1301
13387TIP3    H161652   2.054   1.178   1.998  0.7493 -0.4161  1.2473
13387TIP3    H261653   2.195   1.136   1.963 -0.0594 -1.7674 -0.6017
13388TIP3   OH261654   4.466   0.810  16.905  0.6467 -0.0327  0.0355
13388TIP3    H161655   4.509   0.730  16.875  0.8139  0.0713 -0.0021
13388TIP3    H261656   4.505   0.879  16.852 -1.1346 -0.1757 -1.5972
13389TIP3   OH261657   1.987   3.224   0.489 -0.4355  0.2881 -0.2297
13389TIP3    H161658   2.019   3.134   0.478  0.0162 -0.0613  3.1175
13389TIP3    H261659   1.958   3.249   0.401  1.0553 -2.4599 -1.6555
13390TIP3   OH261660   1.818   3.054   5.579 -0.1463 -0.2118 -0.1197
13390TIP3    H161661   1.902   3.097   5.563 -0.4285  0.3876 -0.0160
13390TIP3    H261662   1.797   3.075   5.671  0.1676 -1.3669  0.2313
13391TIP3   OH261663   2.896   2.721  14.601 -0.1592  0.7088 -0.5013
13391TIP3    H161664   2.883   2.786  14.532 -3.0941  1.3027  0.4993
13391TIP3    H261665   2.875   2.767  14.682 -1.6486 -1.2732  0.3128
13392TIP3   OH261666   5.410   2.599   2.684  0.0999  0.1188  0.2740
13392TIP3    H161667   5.470   2.597   2.759 -0.6905  0.8011  0.9383
13392TIP3    H261668   5.323   2.602   2.723 -0.4213 -1.4272 -0.6748
13393TIP3   OH261669   2.481   3.688   1.625  0.6594  0.2972  0.4560
13393TIP3    H161670   2.494   3.642   1.542 -0.7072  0.4681  0.1203
13393TIP3    H261671   2.472   3.618   1.690 -1.9491 -0.0227 -0.1289
13394TIP3   OH261672   4.420   2.610  12.820  0.4484 -0.6716 -0.2799
13394TIP3    H161673   4.484   2.670  12.781  1.5334 -0.5569  1.5257
13394TIP3    H261674   4.462   2.524  12.816  0.8712 -0.5628  1.1152
13395TIP3   OH261675   1.315   4.210  10.517  0.2307 -0.1553  0.1843
13395TIP3    H161676   1.255   4.160  10.462  1.1619 -0.7572 -0.2985
13395TIP3    H261677   1.262   4.283  10.550 -0.9059 -0.9691  0.2007
13396TIP3   OH261678   2.187   6.247  11.559 -0.1560 -0.1310  0.8253
13396TIP3    H161679   2.139   6.326  11.586 -0.7384 -0.1174 -0.1658
13396TIP3    H261680   2.256   6.237  11.624 -0.0410  1.2362  0.9457
13397TIP3   OH261681   2.285   1.955  12.550  0.4595  0.2236  0.5549
13397TIP3    H161682   2.360   1.901  12.576 -0.0604 -0.4832  0.6242
13397TIP3    H261683   2.318   2.045  12.552  1.5340 -0.1292 -0.1869
13398TIP3   OH261684   6.179   0.660  11.588  0.1672  0.0499  0.3272
13398TIP3    H161685   6.267   0.683  11.617 -0.3012 -0.2217  2.0266
13398TIP3    H261686   6.141   0.743  11.559  0.5991  0.3580  0.6342
13399TIP3   OH261687   1.210   5.615  10.768  0.1584  0.0330  0.2421
13399TIP3    H161688   1.293   5.570  10.783 -0.6961 -2.0604 -0.9288
13399TIP3    H261689   1.143   5.550  10.789 -1.1564  0.6777 -1.6923
13400TIP3   OH261690   1.548   3.497  15.806 -0.4125  0.2681  0.6339
13400TIP3    H161691   1.516   3.566  15.864  0.3722 -0.0701  1.4915
13400TIP3    H261692   1.601   3.441  15.863  1.2016  0.4704 -0.6131
13401TIP3   OH261693   6.838   3.744  16.777 -0.1876 -0.0456 -0.5538
13401TIP3    H161694   6.912   3.769  16.722  0.7345 -0.8825  0.2711
13401TIP3    H261695   6.776   3.703  16.717  0.5770 -0.4780 -1.0692
13402TIP3   OH261696   5.982   3.139   0.265  0.3771  0.3359 -0.4866
13402TIP3    H161697   5.923   3.083   0.314 -2.1791  3.6223  0.5497
13402TIP3    H261698   6.050   3.164   0.327  2.3497 -2.4900 -1.3408
13403TIP3   OH261699   5.529   2.906   4.196 -0.4883  0.4707  0.8736
13403TIP3    H161700   5.448   2.907   4.144  0.6056 -1.9360 -1.0828
13403TIP3    H261701   5.507   2.957   4.274 -3.3399  1.3446 -0.3330
13404TIP3   OH261702   1.992   3.909  12.038 -0.2708  0.1219  0.0026
13404TIP3    H161703   2.001   3.954  12.122  1.1815  0.1764 -0.1438
13404TIP3    H261704   1.942   3.969  11.983  2.4603  2.1354 -0.5128
13405TIP3   OH261705   4.774   4.156   1.210  0.9965 -0.6392  0.6413
13405TIP3    H161706   4.737   4.083   1.260 -0.5757  0.6815  1.4838
13405TIP3    H261707   4.848   4.186   1.263  2.9957 -2.8033 -0.6853
13406TIP3   OH261708   4.530   5.276   2.578 -0.3027 -0.0686  0.3932
13406TIP3    H161709   4.539   5.326   2.497 -1.2959  1.5502  1.2444
13406TIP3    H261710   4.468   5.206   2.556 -1.7818  1.2637  0.1099
13407TIP3   OH261711   4.501   0.344   6.081 -0.2570  0.2793 -0.5257
13407TIP3    H161712   4.582   0.294   6.067 -1.1463 -0.9844 -1.4142
13407TIP3    H261713   4.433   0.276   6.089 -1.1694  1.2911  0.7121
13408TIP3   OH261714   2.707   1.395  13.126  0.0238 -0.3698 -0.1645
13408TIP3    H161715   2.772   1.383  13.195 -0.2010 -2.2003 -0.2117
13408TIP3    H261716   2.622   1.382  13.170 -0.2831  1.0649 -0.2870
13409TIP3   OH261717   3.451   2.629   1.760 -0.0058 -0.4531  0.3566
13409TIP3    H161718   3.439   2.582   1.678 -0.3320 -0.3948  0.3690
13409TIP3    H261719   3.393   2.585   1.822 -1.3241  0.7585  0.0448
13410TIP3   OH261720   3.047   0.235   0.525 -0.1827  0.3574 -0.1515
13410TIP3    H161721   2.972   0.240   0.584  0.6109 -2.4083  1.2845
13410TIP3    H261722   3.065   0.326   0.501 -1.5208  1.4764  2.6276
13411TIP3   OH261723   1.619   3.949  16.479 -0.4407  0.7946  0.0586
13411TIP3    H161724   1.656   3.942  16.567 -0.4097  1.7422  0.1221
13411TIP3    H261725   1.527   3.924  16.489 -1.2297  3.7168  0.9414
13412TIP3   OH261726   2.248   1.154  11.599  0.2575  0.3962  0.1927
13412TIP3    H161727   2.297   1.099  11.661  1.3871  2.4192  1.2038
13412TIP3    H261728   2.156   1.136  11.620  0.6064  0.4061  1.9536
13413TIP3   OH261729   2.078   0.469  14.675 -0.6351 -0.6248 -0.1304
13413TIP3    H161730   2.138   0.396  14.690  0.3392  0.2886  0.5881
13413TIP3    H261731   2.049   0.495  14.763 -1.5241 -0.5863 -0.4251
13414TIP3   OH261732   4.350   2.146   3.665 -0.3431  0.8372 -0.3283
13414TIP3    H161733   4.294   2.216   3.699  0.3186  2.1400 -1.7732
13414TIP3    H261734   4.308   2.120   3.583  1.3847  2.2189 -1.7165
13415TIP3   OH261735   4.144   5.980   3.655  0.1577  0.8168  0.1129
13415TIP3    H161736   4.209   5.931   3.704  0.4096  1.5660  0.5480
13415TIP3    H261737   4.129   5.928   3.576  3.9242  2.2178 -1.7926
13416TIP3   OH261738   3.219   6.175   1.873  0.0319 -0.8367  0.2221
13416TIP3    H161739   3.183   6.136   1.793  0.8154 -2.2737  0.5184
13416TIP3    H261740   3.170   6.256   1.885 -1.6224 -1.6787 -0.5130
13417TIP3   OH261741   4.116   4.245  13.689 -0.0457  0.5228 -0.0141
13417TIP3    H161742   4.149   4.302  13.759 -0.5584  0.5414  0.2215
13417TIP3    H261743   4.149   4.158  13.712  0.9526  0.7567 -0.5128
13418TIP3   OH261744   5.767   5.508  14.943  0.3701 -0.6557  0.4222
13418TIP3    H161745   5.855   5.483  14.913  1.0643  1.0035  0.9549
13418TIP3    H261746   5.768   5.604  14.943 -1.6641 -0.5907 -0.1595
13419TIP3   OH261747   5.407   3.392  14.696  0.6031 -0.1675  0.3297
13419TIP3    H161748   5.375   3.304  14.718 -1.9465  0.3052 -1.1569
13419TIP3    H261749   5.440   3.384  14.607 -1.4348  0.7352 -0.5561
13420TIP3   OH261750   6.794   3.051   1.308 -0.9799  0.0015 -0.0979
13420TIP3    H161751   6.829   3.003   1.383 -2.8346 -0.5542  0.4711
13420TIP3    H261752   6.700   3.054   1.324 -1.6396 -1.3831 -3.0608
13421TIP3   OH261753   3.408   0.677  15.311 -0.7171 -0.0195  0.1094
13421TIP3    H161754   3.418   0.740  15.383  2.1283  0.1659 -0.3293
13421TIP3    H261755   3.401   0.732  15.233 -1.3904 -0.2372  0.0164
13422TIP3   OH261756   0.535   6.599   0.880  0.6146 -0.4100  0.2927
13422TIP3    H161757   0.481   6.610   0.802  1.7480 -0.5609 -0.5389
13422TIP3    H261758   0.477   6.558   0.944 -0.2004 -0.7033 -0.6158
13423TIP3   OH261759   4.756   3.563  16.941  0.1919 -0.1959  0.1928
13423TIP3    H161760   4.837   3.607  16.917  0.9992 -0.0476  2.8998
13423TIP3    H261761   4.781   3.472  16.956 -0.3076 -0.3158  0.3354
13424TIP3   OH261762   2.494   1.617  13.362 -0.3240  0.0300 -0.2355
13424TIP3    H161763   2.501   1.703  13.404  0.0713 -0.5486  0.9021
13424TIP3    H261764   2.505   1.554  13.433 -2.2575 -0.9850 -0.7688
13425TIP3   OH261765   6.103   4.834   5.388 -0.7634  0.3337  0.2851
13425TIP3    H161766   6.146   4.833   5.473  1.6526 -0.4681 -0.8567
13425TIP3    H261767   6.151   4.899   5.337 -0.1225 -1.3463 -1.3780
13426TIP3   OH261768   1.136   2.386   0.350  0.1325  0.2655  0.1732
13426TIP3    H161769   1.050   2.377   0.391  0.1356  0.2036  0.1674
13426TIP3    H261770   1.176   2.461   0.394 -1.0218  2.1226 -1.7774
13427TIP3   OH261771   3.388   1.535  11.367  0.6638  0.2809 -0.3534
13427TIP3    H161772   3.433   1.507  11.446  0.7516 -2.7141 -1.3378
13427TIP3    H261773   3.306   1.486  11.367  0.8460 -0.1046 -2.2945
13428TIP3   OH261774   3.953   6.357   3.141  0.0319 -0.1620 -0.4341
13428TIP3    H161775   3.923   6.302   3.068  1.5332  0.6078 -1.7165
13428TIP3    H261776   4.011   6.299   3.191  1.0957  0.0195 -1.4082
13429TIP3   OH261777   2.277   3.227  15.958  0.4090  0.0472 -0.1045
13429TIP3    H161778   2.306   3.301  15.905 -0.5905 -0.3516 -1.2513
13429TIP3    H261779   2.348   3.214  16.022  1.4931  0.7534 -1.1156
13430TIP3   OH261780   6.490   1.063  11.643 -0.8949 -0.1270 -0.6812
13430TIP3    H161781   6.484   1.142  11.589  0.3145 -0.8733 -1.9699
13430TIP3    H261782   6.471   0.991  11.583 -0.6186 -0.9173  0.1498
13431TIP3   OH261783   2.179   1.773   2.503 -0.0501  0.1446  0.2826
13431TIP3    H161784   2.216   1.839   2.561 -1.0170  0.1735  0.8795
13431TIP3    H261785   2.247   1.706   2.497  0.5484  0.7238  0.4456
13432TIP3   OH261786   2.378   3.081  16.355 -0.3831  0.3054  0.4372
13432TIP3    H161787   2.317   3.089  16.282  0.5635  0.9077 -0.3183
13432TIP3    H261788   2.325   3.097  16.433 -1.4444 -0.4907 -0.0888
13433TIP3   OH261789   0.205   6.376  14.805  0.3113 -0.3908  0.2043
13433TIP3    H161790   0.136   6.366  14.871  0.8430  0.1984  0.8649
13433TIP3    H261791   0.272   6.311  14.831  0.3729 -0.3885  0.0514
13434TIP3   OH261792   1.855   4.967   4.280  0.2446 -0.3829  0.0296
13434TIP3    H161793   1.920   4.952   4.211  1.3819 -1.9906  1.3732
13434TIP3    H261794   1.837   5.061   4.276  1.9110 -0.0660 -1.0430
13435TIP3   OH261795   5.968   2.863   5.386  0.1613  0.5015  0.3448
13435TIP3    H161796   5.926   2.949   5.380  0.8875  0.9467  1.4216
13435TIP3    H261797   6.062   2.881   5.378  0.3331 -0.1702  0.7689
13436TIP3   OH261798   1.753   3.066   5.842  0.2236 -0.1139  0.7195
13436TIP3    H161799   1.750   3.159   5.864  0.3511  0.0456  0.0911
13436TIP3    H261800   1.740   3.021   5.925 -0.2665  0.4698  0.9684
13437TIP3   OH261801   2.525   5.220   6.001  0.2037  0.1109  0.0577
13437TIP3    H161802   2.497   5.130   5.984  2.9786 -0.3316 -3.3902
13437TIP3    H261803   2.503   5.235   6.093 -3.2629 -2.8890 -0.0437
13438TIP3   OH261804   3.573   3.234  14.731 -0.4542  0.1747  0.3127
13438TIP3    H161805   3.535   3.172  14.793  0.3488  0.6410  1.2929
13438TIP3    H261806   3.559   3.320  14.770 -1.3048  0.6247 -0.8975
13439TIP3   OH261807   3.578   4.989   1.685  0.2778  0.4017  0.0945
13439TIP3    H161808   3.666   5.024   1.683  0.5916 -0.3362  0.5087
13439TIP3    H261809   3.590   4.894   1.692 -0.5417  0.2870  0.0556
13440TIP3   OH261810   4.359   4.404   2.977 -0.0006 -0.1192  0.5317
13440TIP3    H161811   4.413   4.421   3.054 -0.1018 -0.1254  0.6036
13440TIP3    H261812   4.269   4.411   3.008 -0.0503 -1.2367  0.6736
13441TIP3   OH261813   4.984   5.010  11.693  0.6406 -0.5919  0.8612
13441TIP3    H161814   4.985   5.002  11.598  0.6450 -2.6996  0.9782
13441TIP3    H261815   4.965   4.921  11.724  0.9366 -0.0186  2.8384
13442TIP3   OH261816   5.847   0.516   1.514  0.2474  0.1670  0.4195
13442TIP3    H161817   5.895   0.451   1.463 -0.7083  1.0757 -1.7378
13442TIP3    H261818   5.755   0.494   1.501 -0.1024  1.9746 -0.4742
13443TIP3   OH261819   4.303   2.060   2.821  0.2683  0.1507 -0.1736
13443TIP3    H161820   4.379   2.101   2.864  0.9782 -2.5310  1.3371
13443TIP3    H261821   4.242   2.041   2.893 -0.0408 -1.3458 -0.8057
13444TIP3   OH261822   5.370   5.612  11.277  0.0513  0.4309  0.4212
13444TIP3    H161823   5.397   5.529  11.238  0.1066  1.4550 -1.9181
13444TIP3    H261824   5.352   5.591  11.369 -1.9875 -2.6302 -0.5150
13445TIP3   OH261825   1.476   2.045   1.622  0.0414 -0.6046  0.6779
13445TIP3    H161826   1.450   2.011   1.536  1.1538 -1.2854  0.5909
13445TIP3    H261827   1.458   1.973   1.683 -0.4926 -0.2199  0.9855
13446TIP3   OH261828   4.540   1.008   3.468 -0.2692  0.0751  0.5115
13446TIP3    H161829   4.496   1.038   3.547 -0.2045 -0.2940  0.6887
13446TIP3    H261830   4.568   1.089   3.424 -1.9787  0.3612 -0.1146
13447TIP3   OH261831   2.095   1.945  12.858 -0.1715 -0.2790  0.5397
13447TIP3    H161832   2.113   1.970  12.948 -0.6154  0.7595  0.3522
13447TIP3    H261833   2.138   2.012  12.805 -0.9549 -0.1786  0.0117
13448TIP3   OH261834   4.844   0.478  13.481  0.4054 -0.1671  0.5839
13448TIP3    H161835   4.862   0.546  13.546 -0.7454  0.5304  0.2016
13448TIP3    H261836   4.907   0.496  13.411 -0.7576  1.3932 -0.1274
13449TIP3   OH261837   1.102   0.738   4.964 -0.1140 -0.5863 -0.2569
13449TIP3    H161838   1.060   0.658   4.997 -0.3594 -1.2939 -2.1473
13449TIP3    H261839   1.137   0.712   4.878 -1.0397  1.5810 -1.3526
13450TIP3   OH261840   1.709   3.411   5.710 -0.1929  0.0826 -0.0789
13450TIP3    H161841   1.707   3.350   5.783  1.4155 -1.4321 -1.2153
13450TIP3    H261842   1.739   3.493   5.747 -1.3887 -0.0719  1.3072
13451TIP3   OH261843   2.641   2.758  15.627  0.3571  0.7496 -0.3457
13451TIP3    H161844   2.645   2.686  15.565 -0.6436  0.6434 -0.3070
13451TIP3    H261845   2.640   2.716  15.713 -0.4458  0.7723 -0.3274
13452TIP3   OH261846   0.489   1.223  13.432 -0.3658 -0.5405 -0.1503
13452TIP3    H161847   0.417   1.271  13.391 -1.2392 -0.1084  1.7893
13452TIP3    H261848   0.455   1.197  13.518  1.9748  0.1701  1.0765
13453TIP3   OH261849   2.708   4.011   2.499 -0.3041 -0.4416 -0.3281
13453TIP3    H161850   2.652   4.088   2.511  0.2244 -0.0960 -0.0618
13453TIP3    H261851   2.795   4.040   2.528 -0.1429 -1.1957 -0.0458
13454TIP3   OH261852   1.368   0.222  11.445  0.5487 -0.0278  0.2140
13454TIP3    H161853   1.285   0.188  11.478  0.2971 -1.1724 -1.4456
13454TIP3    H261854   1.434   0.160  11.477  0.9353  1.2606  2.1242
13455TIP3   OH261855   3.739   5.393  16.806 -0.0179  0.2923 -0.4403
13455TIP3    H161856   3.654   5.377  16.766 -0.3289 -0.6639  0.5641
13455TIP3    H261857   3.803   5.357  16.745 -0.5072 -1.5060  0.0579
13456TIP3   OH261858   0.671   3.689  13.035 -0.9247  0.2008  0.1842
13456TIP3    H161859   0.663   3.617  12.973 -0.2982  0.5694 -0.3489
13456TIP3    H261860   0.764   3.688  13.061 -0.8649  0.9358  0.0152
13457TIP3   OH261861   5.330   0.258   0.908 -0.1580 -0.2122 -0.3290
13457TIP3    H161862   5.292   0.300   0.985  0.5317 -0.1753  0.0040
13457TIP3    H261863   5.416   0.227   0.938  0.4297  0.4578 -1.2784
13458TIP3   OH261864   0.770   0.520  17.053 -0.2716  0.3416  0.4604
13458TIP3    H161865   0.726   0.549  16.972 -2.4831  1.1177  1.8312
13458TIP3    H261866   0.729   0.573  17.122  0.9804 -0.8522  2.1944
13459TIP3   OH261867   2.173   1.142  16.156 -0.4936 -0.5724 -0.3273
13459TIP3    H161868   2.100   1.149  16.094  0.4536  3.1889 -1.2949
13459TIP3    H261869   2.155   1.211  16.220  0.5232 -1.8669  1.4013
13460TIP3   OH261870   0.096   5.579   0.543 -0.6558  0.4306  0.1807
13460TIP3    H161871   0.111   5.499   0.594  0.4019 -1.6105 -3.0242
13460TIP3    H261872   0.183   5.614   0.527 -0.9794  1.1696 -0.0219
13461TIP3   OH261873   3.190   3.777   5.202  0.2504  0.2162 -0.1543
13461TIP3    H161874   3.188   3.711   5.133 -1.3419  0.6794 -0.5802
13461TIP3    H261875   3.267   3.754   5.254  0.6344 -1.0204 -1.2146
13462TIP3   OH261876   3.816   2.376  16.537  0.2643  0.0607  0.4763
13462TIP3    H161877   3.880   2.349  16.602 -1.8073  0.3080  2.7879
13462TIP3    H261878   3.766   2.296  16.518 -1.0727  0.6122  1.5608
13463TIP3   OH261879   0.709   4.206   1.739  0.3503 -0.1084 -0.3397
13463TIP3    H161880   0.797   4.225   1.706  1.0581 -2.1093  0.2742
13463TIP3    H261881   0.717   4.216   1.834  0.1462 -1.0893 -0.2120
13464TIP3   OH261882   2.461   0.063   6.207 -0.1560 -0.3824 -0.2215
13464TIP3    H161883   2.401   0.026   6.142 -1.2378 -2.1567  1.6822
13464TIP3    H261884   2.477  -0.008   6.268  2.2463  0.6949  0.5254
13465TIP3   OH261885   5.465   6.415  12.530  0.1438 -0.5982 -0.2998
13465TIP3    H161886   5.442   6.486  12.589  1.1243 -0.4412 -0.0840
13465TIP3    H261887   5.471   6.338  12.587 -0.9437 -0.8636 -0.5375
13466TIP3   OH261888   4.606   4.528   4.229  0.0481 -0.1809 -0.6564
13466TIP3    H161889   4.557   4.575   4.296 -1.2029 -2.3739  0.0606
13466TIP3    H261890   4.696   4.524   4.263 -0.1290  0.4593 -0.0897
13467TIP3   OH261891   1.603   0.598   5.615  0.2307  0.3313 -0.1164
13467TIP3    H161892   1.624   0.672   5.558 -1.8193  0.6815 -0.4825
13467TIP3    H261893   1.561   0.637   5.692 -0.2341 -0.3948  0.0086
13468TIP3   OH261894   5.014   0.624   0.447  0.0720 -1.0147  0.5005
13468TIP3    H161895   5.095   0.631   0.497 -0.7309 -0.4791  1.7966
13468TIP3    H261896   4.957   0.570   0.502 -0.9788 -0.0754  0.3637
13469TIP3   OH261897   2.435   5.298   0.845  0.4617 -0.6371  0.2598
13469TIP3    H161898   2.412   5.387   0.819  0.4486 -0.3583  1.2127
13469TIP3    H261899   2.501   5.271   0.781 -2.0224 -1.2861 -2.2793
13470TIP3   OH261900   5.242   1.583   2.842  0.1190  0.1498  0.0308
13470TIP3    H161901   5.206   1.577   2.753 -0.7901 -0.2116  0.4061
13470TIP3    H261902   5.336   1.577   2.830 -0.0513 -1.5036 -0.7879
13471TIP3   OH261903   2.020   5.343  16.145  0.6656 -0.5316  0.4588
13471TIP3    H161904   2.024   5.265  16.089 -0.9012  0.4681 -1.1575
13471TIP3    H261905   2.063   5.412  16.094  1.8223 -0.2372  1.7693
13472TIP3   OH261906   2.939   5.186   4.329  0.4679  0.5781 -0.1049
13472TIP3    H161907   3.009   5.145   4.379  0.1190 -0.2885 -0.3153
13472TIP3    H261908   2.930   5.273   4.368 -0.1400 -0.2382  1.6923
13473TIP3   OH261909   3.890   3.957  14.202 -0.3259  0.1382  0.3394
13473TIP3    H161910   3.976   3.996  14.184 -0.3972  0.2860  0.3167
13473TIP3    H261911   3.873   3.976  14.294 -1.9965  3.4141 -0.5042
13474TIP3   OH261912   2.160   0.544   1.358  0.6186  0.7841  0.0831
13474TIP3    H161913   2.185   0.635   1.344  1.7065  0.4360 -0.3140
13474TIP3    H261914   2.150   0.507   1.270 -0.6811  0.7237  0.2279
13475TIP3   OH261915   3.214   2.992  16.467 -0.1776  0.0121  0.1494
13475TIP3    H161916   3.121   3.009  16.479 -0.3722 -0.6125 -0.3721
13475TIP3    H261917   3.222   2.897  16.478 -0.0343 -0.3295 -2.3226
13476TIP3   OH261918   3.760   6.441  13.976  0.2786 -0.6352 -0.7928
13476TIP3    H161919   3.774   6.505  13.906 -2.1040  0.6127 -0.2215
13476TIP3    H261920   3.702   6.375  13.938  1.3711 -1.6054 -0.8540
13477TIP3   OH261921   2.903   4.880   5.152 -0.4233  0.1732 -0.8871
13477TIP3    H161922   2.964   4.806   5.159  1.1793  1.3829 -1.4738
13477TIP3    H261923   2.958   4.954   5.126 -1.4507  2.2989  2.4430
13478TIP3   OH261924   0.967   1.834   6.112  0.1998  0.5447 -0.0168
13478TIP3    H161925   1.017   1.753   6.105 -0.7618 -0.0687 -0.0033
13478TIP3    H261926   0.878   1.809   6.087  0.3459  2.1110 -2.4902
13479TIP3   OH261927   1.320   1.463  10.848 -0.1749 -0.2533 -0.1474
13479TIP3    H161928   1.407   1.502  10.843 -0.0352 -0.3858  0.9716
13479TIP3    H261929   1.262   1.537  10.866 -0.6088  0.1551 -2.8821
13480TIP3   OH261930   5.693   2.405  12.951  0.2939 -0.5454  0.0563
13480TIP3    H161931   5.783   2.438  12.943  0.0805 -0.2893 -1.6797
13480TIP3    H261932   5.639   2.484  12.949 -0.0313 -0.7749 -0.3288
13481TIP3   OH261933   3.995   4.526  10.822  0.0874 -0.0315 -0.0404
13481TIP3    H161934   4.080   4.568  10.805  1.4683 -2.4337  0.4102
13481TIP3    H261935   3.988   4.459  10.755 -0.8590 -0.6839  0.6948
13482TIP3   OH261936   6.668   3.405  14.368  0.2547  0.1188  0.1618
13482TIP3    H161937   6.700   3.483  14.415  0.9336  0.2782 -0.5343
13482TIP3    H261938   6.730   3.336  14.391 -1.1379 -0.6072  1.8896
13483TIP3   OH261939   1.946   0.488  15.959  0.5369 -0.0206 -0.1019
13483TIP3    H161940   1.912   0.447  16.039  0.4115  0.8376  0.2968
13483TIP3    H261941   1.927   0.425  15.890 -2.3870  0.6285 -0.0043
13484TIP3   OH261942   1.100   5.547   1.503  0.7804  0.8188 -0.2054
13484TIP3    H161943   1.146   5.629   1.491 -1.3998  2.3229  0.9907
13484TIP3    H261944   1.169   5.480   1.502  2.8190  2.7848  0.4472
13485TIP3   OH261945   6.693   0.028  12.553  0.1593 -0.0433 -0.4428
13485TIP3    H161946   6.687  -0.004  12.643  1.0798  1.7640  0.3084
13485TIP3    H261947   6.783   0.060  12.544  0.1245 -0.2991 -2.0570
13486TIP3   OH261948   0.224   4.339   4.083  0.0476  0.5691 -0.1876
13486TIP3    H161949   0.210   4.253   4.043  3.2704  0.3772 -1.1712
13486TIP3    H261950   0.142   4.357   4.130 -0.8841 -2.8493 -0.2226
13487TIP3   OH261951   6.690   5.875  11.772 -0.2856 -0.3327 -0.1540
13487TIP3    H161952   6.786   5.873  11.772 -0.2449  0.6838  0.8539
13487TIP3    H261953   6.666   5.839  11.858 -0.8705 -1.9570 -0.9680
13488TIP3   OH261954   3.931   4.508  16.919 -0.0936  0.0686  0.2730
13488TIP3    H161955   3.928   4.413  16.914 -0.6860  0.1250 -0.7521
13488TIP3    H261956   3.989   4.527  16.993  0.4291 -1.0744  0.1667
13489TIP3   OH261957   3.409   2.013  16.384 -0.0327  0.0020  0.4261
13489TIP3    H161958   3.404   2.002  16.289 -0.5310 -0.9408  0.5494
13489TIP3    H261959   3.467   2.088  16.396 -1.0620  1.0303 -0.6632
13490TIP3   OH261960   6.163   5.440   4.036  0.0293  0.0457  0.4079
13490TIP3    H161961   6.211   5.450   3.954 -1.6393 -1.9855 -0.9014
13490TIP3    H261962   6.080   5.485   4.021  0.1046  0.5610  1.4042
13491TIP3   OH261963   0.432   2.604   3.064 -0.3003 -0.0131 -0.9155
13491TIP3    H161964   0.471   2.525   3.028  0.1172 -0.4227  0.3828
13491TIP3    H261965   0.497   2.639   3.124 -0.1110  1.8428 -2.1158
13492TIP3   OH261966   2.005   2.767   5.423 -0.7596  0.8603  0.1668
13492TIP3    H161967   2.034   2.815   5.346  2.4747 -0.6162  0.2865
13492TIP3    H261968   2.078   2.773   5.484 -2.0115 -0.5390  1.9265
13493TIP3   OH261969   3.688   2.719  13.462  0.1820  0.5783 -0.0479
13493TIP3    H161970   3.639   2.800  13.475 -2.0223 -0.4558 -1.2297
13493TIP3    H261971   3.642   2.655  13.516  0.6089 -0.3070 -0.7130
13494TIP3   OH261972   3.250   1.116  11.243 -0.2454 -0.0608  0.1441
13494TIP3    H161973   3.175   1.059  11.259 -1.1487  1.2079  0.6340
13494TIP3    H261974   3.305   1.067  11.182 -1.2159 -1.2418  0.1768
13495TIP3   OH261975   6.300   1.861  11.325  0.0903 -0.3142 -0.2704
13495TIP3    H161976   6.391   1.892  11.318 -0.0942  0.3019  0.0028
13495TIP3    H261977   6.304   1.792  11.391  0.5815 -1.2008 -1.2064
13496TIP3   OH261978   1.292   1.710  11.194 -0.5809 -0.0634  0.1595
13496TIP3    H161979   1.268   1.691  11.104  0.3913 -0.5719 -0.0060
13496TIP3    H261980   1.276   1.629  11.241 -1.6881  0.3838  0.5901
13497TIP3   OH261981   0.212   3.189   2.484 -0.7522  0.4411  0.1623
13497TIP3    H161982   0.245   3.224   2.567  2.8103  1.1366 -1.3577
13497TIP3    H261983   0.263   3.109   2.470 -0.4304  0.9384 -1.8410
13498TIP3   OH261984   2.347   4.838   3.603  0.0841 -0.4675 -0.0783
13498TIP3    H161985   2.262   4.827   3.558  0.0032 -0.5240  0.0881
13498TIP3    H261986   2.398   4.762   3.576 -0.3998 -1.1568  0.9029
13499TIP3   OH261987   1.441   5.866  12.706 -0.0365  0.2855 -0.2795
13499TIP3    H161988   1.425   5.961  12.704 -1.9129  0.0272  0.3505
13499TIP3    H261989   1.492   5.853  12.786 -0.3691  0.6991  0.0076
13500TIP3   OH261990   4.713   1.100   1.349  0.9668  0.2171  0.4253
13500TIP3    H161991   4.796   1.130   1.312  0.1698  2.7050  0.4788
13500TIP3    H261992   4.725   1.106   1.444  1.0657 -0.4812  0.4624
13501TIP3   OH261993   6.051   1.198  14.080 -0.5943  0.3044  0.2125
13501TIP3    H161994   6.054   1.279  14.030 -1.2620  0.2966  0.1566
13501TIP3    H261995   5.962   1.193  14.114 -0.6451 -0.5454 -0.0223
13502TIP3   OH261996   1.386   3.211   6.057 -0.0112  0.1516 -0.2822
13502TIP3    H161997   1.305   3.182   6.100 -0.6764  0.9198 -0.9839
13502TIP3    H261998   1.418   3.132   6.013  1.2778 -0.9594  2.4066
13503TIP3   OH261999   4.286   2.505  14.187 -0.1983 -0.1406 -0.1724
13503TIP3    H162000   4.248   2.469  14.107 -0.6941 -0.4263  0.1819
13503TIP3    H262001   4.345   2.437  14.218 -0.8815 -0.5289  0.3162
13504TIP3   OH262002   0.409   5.653  16.631 -0.6860  0.2130  0.7107
13504TIP3    H162003   0.427   5.633  16.539  0.3592  3.7458  0.0063
13504TIP3    H262004   0.468   5.596  16.680  1.4878  0.8443 -1.0100
13505TIP3   OH262005   1.392   5.476   6.078 -0.6669 -0.1574  0.2729
13505TIP3    H162006   1.456   5.487   6.149 -1.2611 -3.6428  1.5437
13505TIP3    H262007   1.445   5.451   6.003 -0.1521  2.3078 -0.2676
13506TIP3   OH262008   5.406   6.836  13.745 -0.6089  0.2514 -0.2521
13506TIP3    H162009   5.353   6.888  13.806 -1.6455 -0.3582 -0.6019
13506TIP3    H262010   5.377   6.746  13.759 -0.2966  0.0137 -1.0799
13507TIP3   OH262011   6.055   5.713   3.393 -0.1252 -0.4075  0.4210
13507TIP3    H162012   6.114   5.712   3.469 -0.4282 -0.8199  0.6561
13507TIP3    H262013   6.002   5.792   3.405 -0.0711 -0.3930  0.5649
13508TIP3   OH262014   0.024   4.801  13.376 -0.2622 -0.3103  0.0302
13508TIP3    H162015   0.063   4.737  13.436  0.4017  0.2883  0.2542
13508TIP3    H262016   0.006   4.752  13.296  3.0918 -0.1520 -0.9430
13509TIP3   OH262017   6.044   3.209   4.303  0.3225 -0.7004 -0.4012
13509TIP3    H162018   6.009   3.177   4.386 -0.2262 -1.2002 -0.8141
13509TIP3    H262019   5.967   3.229   4.251  0.6448  1.0997 -0.2545
13510TIP3   OH262020   1.819   2.514   2.602 -0.1375  0.3372 -0.2041
13510TIP3    H162021   1.839   2.467   2.683  0.7692  0.1138 -0.5396
13510TIP3    H262022   1.846   2.604   2.619  0.2935  0.2379 -0.3276
13511TIP3   OH262023   0.855   0.109  11.287 -0.0750 -0.2535  0.1973
13511TIP3    H162024   0.854   0.014  11.273 -2.2996 -0.3910  0.8085
13511TIP3    H262025   0.830   0.119  11.379 -1.0863  0.9475 -0.1911
13512TIP3   OH262026   0.244   3.517   0.102 -0.5649  0.4253 -0.4605
13512TIP3    H162027   0.298   3.520   0.181 -0.3354  1.6202 -0.6429
13512TIP3    H262028   0.300   3.552   0.033 -1.5807  1.8357 -0.6305
13513TIP3   OH262029   6.620   5.919  12.465  0.2058 -0.1844 -0.8919
13513TIP3    H162030   6.708   5.892  12.493  0.5849  2.5342  0.8978
13513TIP3    H262031   6.634   5.963  12.381  0.8058  1.3276 -0.0338
13514TIP3   OH262032   0.899   0.242  13.046 -0.3360 -0.1493  0.4627
13514TIP3    H162033   0.858   0.155  13.042  1.3488 -0.9463 -0.4402
13514TIP3    H262034   0.847   0.295  12.986 -0.4953 -0.9470 -0.1216
13515TIP3   OH262035   4.228   1.389  12.046  0.2351 -0.0225  0.1687
13515TIP3    H162036   4.302   1.349  12.001 -0.3611  0.2712 -1.1309
13515TIP3    H262037   4.187   1.318  12.095  1.5659 -0.1127  1.2062
13516TIP3   OH262038   0.178   5.903  13.082  0.1738  0.5052 -0.2130
13516TIP3    H162039   0.123   5.836  13.121  0.8841 -0.6246 -1.0620
13516TIP3    H262040   0.250   5.854  13.041  0.1036  1.6795 -1.8617
13517TIP3   OH262041   2.363   4.978   3.841 -0.3364 -0.2846 -0.4052
13517TIP3    H162042   2.336   4.937   3.759 -0.4557  0.4740 -0.7488
13517TIP3    H262043   2.382   5.069   3.818  1.9952 -0.6189 -0.0812
13518TIP3   OH262044   5.234   4.612   5.537 -0.6618 -0.1326  0.6027
13518TIP3    H162045   5.303   4.588   5.474  1.0474  0.2235  2.2430
13518TIP3    H262046   5.214   4.530   5.582 -1.5838 -0.2979 -0.0687
13519TIP3   OH262047   5.302   3.787  11.693  0.2747  0.8908  0.5503
13519TIP3    H162048   5.252   3.819  11.768  0.3433  1.2709  0.4374
13519TIP3    H262049   5.249   3.812  11.617 -1.5990 -2.5131  0.5177
13520TIP3   OH262050   2.839   4.555  14.638 -0.6590  0.1210 -0.2435
13520TIP3    H162051   2.804   4.551  14.549 -0.0743  0.1415 -0.4725
13520TIP3    H262052   2.767   4.522  14.693 -1.8562  2.1612 -0.4664
13521TIP3   OH262053   5.150   3.539   0.232 -0.1703 -0.1328 -0.2802
13521TIP3    H162054   5.199   3.496   0.302 -0.4714 -0.9707 -0.5683
13521TIP3    H262055   5.146   3.631   0.258  1.8587  0.0458 -0.4389
13522TIP3   OH262056   0.429   3.934  11.726 -0.2533  0.0802  0.0974
13522TIP3    H162057   0.371   3.919  11.652 -0.4918  0.9944  0.0934
13522TIP3    H262058   0.433   4.029  11.735 -1.1582 -0.0208  1.9954
13523TIP3   OH262059   2.809   6.215   1.650  1.0644  0.2247 -0.1876
13523TIP3    H162060   2.898   6.246   1.630 -0.1116  2.9153 -1.8947
13523TIP3    H262061   2.752   6.283   1.614 -1.6830 -0.4499  2.4865
13524TIP3   OH262062   6.159   5.972   0.751  0.3033 -0.3049  0.3837
13524TIP3    H162063   6.107   5.980   0.670 -1.5833 -3.3177  1.1388
13524TIP3    H262064   6.247   5.952   0.720  0.3198  1.4423 -0.9018
13525TIP3   OH262065   1.652   4.210   1.850 -0.6278 -0.2062  0.1845
13525TIP3    H162066   1.717   4.247   1.909 -1.0820 -0.1347  0.6445
13525TIP3    H262067   1.658   4.115   1.863 -0.0634 -0.2540 -0.3647
13526TIP3   OH262068   5.404   1.683   4.727  1.0032 -0.2808 -0.9884
13526TIP3    H162069   5.457   1.756   4.758 -0.5979  0.0390  1.1859
13526TIP3    H262070   5.426   1.610   4.785  0.9329 -0.9044 -1.7178
13527TIP3   OH262071   0.505   3.268   2.560 -0.0306  0.1559 -0.1490
13527TIP3    H162072   0.577   3.325   2.585 -0.1443  1.4267 -2.4971
13527TIP3    H262073   0.521   3.247   2.468 -2.4902  0.2410 -0.6627
13528TIP3   OH262074   3.590   4.305  14.431  0.2872 -0.1725  0.3923
13528TIP3    H162075   3.523   4.320  14.364 -1.6833 -3.2381  1.4547
13528TIP3    H262076   3.657   4.254  14.386  1.4069  1.8026 -0.3345
13529TIP3   OH262077   1.808   6.106   6.040  0.2716 -0.0174 -0.4465
13529TIP3    H162078   1.865   6.180   6.020  1.6841 -1.1803 -0.9284
13529TIP3    H262079   1.785   6.116   6.132 -0.5873  1.6617 -0.8054
13530TIP3   OH262080   3.388   1.841  13.538  0.6615 -0.6982 -0.1987
13530TIP3    H162081   3.323   1.885  13.592  0.2814  0.0779 -1.2549
13530TIP3    H262082   3.454   1.810  13.600  1.2231  1.8131  0.5568
13531TIP3   OH262083   5.948   4.471   2.855  0.1404  0.1454 -0.1770
13531TIP3    H162084   5.999   4.409   2.803  0.4169  1.1269 -1.1140
13531TIP3    H262085   5.986   4.466   2.942  1.8168  0.7841 -0.8315
13532TIP3   OH262086   3.820   3.938  12.010  0.1352 -0.6987 -0.0261
13532TIP3    H162087   3.864   3.857  12.037  0.6419 -0.1427  0.8974
13532TIP3    H262088   3.771   3.965  12.088 -0.3763 -0.3383 -0.4672
13533TIP3   OH262089   6.391   6.333   1.039  0.0769 -0.4481  0.1896
13533TIP3    H162090   6.324   6.266   1.056  2.2260 -2.3730  1.7752
13533TIP3    H262091   6.399   6.336   0.944 -2.2871 -0.0562 -0.0534
13534TIP3   OH262092   4.673   1.376  12.700  0.2972  0.1193  0.6532
13534TIP3    H162093   4.718   1.459  12.720  0.9354 -0.2665  0.8302
13534TIP3    H262094   4.679   1.325  12.781  0.9286 -0.5612  0.1860
13535TIP3   OH262095   4.019   4.050   3.600 -0.0416  0.2774  0.4764
13535TIP3    H162096   3.976   3.987   3.659  0.3744  1.6420  2.3396
13535TIP3    H262097   3.948   4.108   3.571  0.0940  1.0242  1.5672
13536TIP3   OH262098   0.737   4.478  16.525  0.4824  0.6773 -0.0838
13536TIP3    H162099   0.727   4.416  16.597  0.4345 -1.4942 -1.8393
13536TIP3    H262100   0.673   4.546  16.542  0.6855  0.3987  2.0502
13537TIP3   OH262101   4.082   1.654  12.029 -0.1204  0.6000 -0.1826
13537TIP3    H162102   4.022   1.626  11.960 -0.2330  0.3024  0.0326
13537TIP3    H262103   4.154   1.591  12.025  0.0373  0.7847 -0.2504
13538TIP3   OH262104   4.973   3.912  16.099  0.6583  0.0886  0.4848
13538TIP3    H162105   4.951   3.913  16.192  2.0853  1.0458  0.8435
13538TIP3    H262106   4.953   4.001  16.069  0.2766 -0.1916 -0.1313
13539TIP3   OH262107   3.542   1.729   3.327  0.0402  0.2817  0.2775
13539TIP3    H162108   3.549   1.796   3.395  0.1894  1.6960 -1.0511
13539TIP3    H262109   3.612   1.667   3.346  0.7398  1.2108  0.8092
13540TIP3   OH262110   1.699   1.475   0.497 -0.0247 -0.3872 -0.0458
13540TIP3    H162111   1.756   1.501   0.569  0.1573  0.6372 -0.5452
13540TIP3    H262112   1.697   1.551   0.438 -1.7751 -0.4454 -0.1233
13541TIP3   OH262113   2.079   3.289   6.782 -0.4200 -0.2696 -0.2629
13541TIP3    H162114   1.989   3.291   6.815  0.2685 -3.9285  2.5682
13541TIP3    H262115   2.128   3.344   6.843 -0.0388 -2.5626  1.6427
13542TIP3   OH262116   2.728   2.781  11.258 -0.6038  0.0667  0.1076
13542TIP3    H162117   2.712   2.703  11.310 -0.8708 -0.1832 -0.3420
13542TIP3    H262118   2.712   2.753  11.167 -0.5350  0.5933 -0.0701
13543TIP3   OH262119   1.259   4.205   1.435  0.1761  0.2327  0.0339
13543TIP3    H162120   1.352   4.183   1.436  0.2411  0.1856 -2.1470
13543TIP3    H262121   1.258   4.301   1.433  0.1085  0.2829  1.4971
13544TIP3   OH262122   6.170   0.815  13.667 -0.4214 -0.2732  0.8317
13544TIP3    H162123   6.259   0.851  13.664 -0.0330 -1.2039 -2.3659
13544TIP3    H262124   6.114   0.886  13.636 -0.0862 -1.1142 -1.9818
13545TIP3   OH262125   6.113   2.055   1.310 -0.1200  0.2436  0.5419
13545TIP3    H162126   6.082   2.127   1.365  0.9610 -0.2276  1.8329
13545TIP3    H262127   6.103   1.977   1.364  2.3198 -0.0450  0.6768
13546TIP3   OH262128   4.034   3.268  14.028  0.1885 -0.0073  0.1123
13546TIP3    H162129   4.114   3.230  14.066 -1.0635 -0.2108  2.7751
13546TIP3    H262130   3.973   3.195  14.023  0.3685 -0.0749 -2.8469
13547TIP3   OH262131   4.112   2.009   3.941  0.5773  0.3227 -0.0724
13547TIP3    H162132   4.206   1.998   3.954  0.3368 -0.2238  1.4319
13547TIP3    H262133   4.077   2.022   4.029 -0.8323 -0.1462 -0.5332
13548TIP3   OH262134   1.964   5.726  12.731 -0.5860 -0.4639 -0.2914
13548TIP3    H162135   2.058   5.716  12.715 -0.4848  0.3763 -0.2572
13548TIP3    H262136   1.926   5.644  12.699  0.0023 -0.2251 -1.6861
13549TIP3   OH262137   5.638   4.980   1.992 -0.3942 -0.3958 -0.3904
13549TIP3    H162138   5.701   4.997   2.062  0.7655  0.7451 -1.6369
13549TIP3    H262139   5.554   4.969   2.037  0.6534 -1.9687  1.3242
13550TIP3   OH262140   4.620   2.433  14.941  0.0777  0.7117  0.2413
13550TIP3    H162141   4.525   2.435  14.955 -0.1517  0.3570 -1.1677
13550TIP3    H262142   4.653   2.376  15.011 -0.8687 -0.0397  0.0935
13551TIP3   OH262143   1.136   2.967  14.664  0.4289  0.1326 -0.0775
13551TIP3    H162144   1.062   3.021  14.636  0.1497 -0.3326 -0.2635
13551TIP3    H262145   1.185   2.951  14.583  0.6761  0.3523  0.0283
13552TIP3   OH262146   4.670   3.894  10.386 -0.4103 -0.1322  0.6829
13552TIP3    H162147   4.745   3.850  10.427 -0.3110 -0.8696 -0.2472
13552TIP3    H262148   4.706   3.975  10.352  0.1437 -0.8071 -0.3780
13553TIP3   OH262149   3.046   1.166   2.854 -0.0358  0.3264 -0.1851
13553TIP3    H162150   3.106   1.227   2.896 -1.9318  0.6918  2.2514
13553TIP3    H262151   3.078   1.079   2.877  0.5344  0.4877 -0.3778
13554TIP3   OH262152   4.990   6.117   1.273  0.0512 -0.7019  0.2549
13554TIP3    H162153   5.054   6.058   1.234 -0.5369 -1.6173  0.6480
13554TIP3    H262154   5.018   6.127   1.364 -0.2500 -0.9382  0.3735
13555TIP3   OH262155   2.542   1.389   6.158 -0.1388 -0.1607  0.1110
13555TIP3    H162156   2.454   1.401   6.195 -0.6781 -0.8901 -0.8772
13555TIP3    H262157   2.528   1.393   6.063  1.0146  0.4315 -0.0424
13556TIP3   OH262158   0.719   3.038   3.220  0.2297 -0.0924  0.8044
13556TIP3    H162159   0.638   3.041   3.169  0.2982 -1.5970  0.5502
13556TIP3    H262160   0.701   3.093   3.297  0.1486  2.2484 -0.7824
13557TIP3   OH262161   1.836   5.980   1.074  0.3697 -0.3830 -0.3775
13557TIP3    H162162   1.903   5.932   1.026  0.6163  0.4089 -0.8429
13557TIP3    H262163   1.881   6.058   1.107  0.0824 -0.6734  0.7343
13558TIP3   OH262164   0.953   4.108   5.346 -0.3172 -0.1962  0.9174
13558TIP3    H162165   0.955   4.032   5.405 -1.4889 -0.6834  0.3643
13558TIP3    H262166   1.010   4.083   5.273 -1.4499 -0.9939  0.2607
13559TIP3   OH262167   0.710   3.920   1.975 -0.3699  0.8118  0.4838
13559TIP3    H162168   0.767   3.905   2.051  1.1295 -2.2449 -1.0756
13559TIP3    H262169   0.753   3.990   1.926 -0.1882  1.3164  1.3453
13560TIP3   OH262170   2.422   3.349  10.706  0.1497 -0.0700 -0.3477
13560TIP3    H162171   2.447   3.391  10.623 -0.1746  1.0385  0.1107
13560TIP3    H262172   2.493   3.286  10.722  0.2990 -0.1912 -1.3778
13561TIP3   OH262173   3.974   1.812  14.437  0.5814  0.0284 -0.3382
13561TIP3    H162174   4.016   1.887  14.394  1.8684 -0.0202  0.7767
13561TIP3    H262175   3.881   1.823  14.417  0.9334  0.9375 -1.6762
13562TIP3   OH262176   1.282   0.343  15.950 -0.6173 -0.3731  0.1074
13562TIP3    H162177   1.268   0.431  15.917  1.0806 -0.7591 -1.8318
13562TIP3    H262178   1.376   0.328  15.942 -0.6143 -1.8142  1.9160
13563TIP3   OH262179   3.195   5.203   0.290 -0.1089  0.7743 -0.2834
13563TIP3    H162180   3.221   5.293   0.310  1.5347  0.0098  1.2705
13563TIP3    H262181   3.103   5.198   0.318  0.3324  1.4808  1.4437
13564TIP3   OH262182   5.574   5.856   4.484 -0.0927  0.5630  0.1550
13564TIP3    H162183   5.601   5.765   4.496  0.5000  0.2456 -2.7328
13564TIP3    H262184   5.586   5.872   4.390  1.2307  4.0737  0.7590
13565TIP3   OH262185   0.897   4.860   4.678  0.1735 -0.0844 -0.1947
13565TIP3    H162186   0.900   4.954   4.664 -1.0872 -0.0253 -0.1848
13565TIP3    H262187   0.809   4.835   4.652  0.4579 -1.2480 -0.0940
13566TIP3   OH262188   3.858   4.478  13.296 -0.0062 -0.1662  0.3714
13566TIP3    H162189   3.826   4.457  13.384 -0.0771 -0.9484  0.1715
13566TIP3    H262190   3.803   4.425  13.239 -0.7972  1.2612 -0.2458
13567TIP3   OH262191   4.569   4.645  16.814 -0.5675 -0.1270 -0.0033
13567TIP3    H162192   4.638   4.580  16.824  0.5423  1.1425  0.9391
13567TIP3    H262193   4.614   4.725  16.786 -1.8463  0.3440 -0.8015
13568TIP3   OH262194   6.092   1.785   4.196  0.0088  0.5415  0.3893
13568TIP3    H162195   6.175   1.739   4.192  0.5081  1.4120  0.5149
13568TIP3    H262196   6.070   1.802   4.104 -0.8342 -1.0544  0.2564
13569TIP3   OH262197   6.646   4.356   2.216  0.0321  0.6281 -0.0928
13569TIP3    H162198   6.579   4.318   2.159  1.1446  0.4950 -1.3537
13569TIP3    H262199   6.637   4.308   2.298 -3.2725  2.4924  0.8252
13570TIP3   OH262200   6.704   2.549   5.175  0.2124  0.2832  0.0750
13570TIP3    H162201   6.622   2.530   5.220 -0.4913  0.2039 -1.2104
13570TIP3    H262202   6.769   2.554   5.245 -0.8325  0.0753  1.0838
13571TIP3   OH262203   1.124   0.889   0.739 -0.1477  0.2641 -0.7643
13571TIP3    H162204   1.095   0.799   0.729  3.5334 -1.2371  0.3016
13571TIP3    H262205   1.113   0.908   0.833 -2.0233  1.4535 -1.1730
13572TIP3   OH262206   5.909   6.663  16.396  0.3188  0.3403 -0.0620
13572TIP3    H162207   5.879   6.623  16.477 -0.6660 -0.1086 -0.6284
13572TIP3    H262208   5.854   6.624  16.328  1.4118  0.3767 -1.0073
13573TIP3   OH262209   1.032   4.305  16.333  0.6079  0.2036  0.3308
13573TIP3    H162210   1.063   4.345  16.414  0.6385 -2.2186  1.6136
13573TIP3    H262211   1.084   4.346  16.264  1.7739  1.1276  1.7003
13574TIP3   OH262212   5.937   3.516   4.332 -0.4013  0.0564 -0.0242
13574TIP3    H162213   5.871   3.479   4.274 -0.5425  0.6712 -0.2667
13574TIP3    H262214   6.019   3.507   4.283 -0.5473  0.7492 -0.4231
13575TIP3   OH262215   5.627   3.979   3.569  0.2260  0.0741 -0.0913
13575TIP3    H162216   5.629   4.030   3.488 -0.3284 -1.9911 -1.4882
13575TIP3    H262217   5.540   3.993   3.605  1.1631  2.7061  1.3960
13576TIP3   OH262218   2.675   6.259  11.841  0.0452  0.1789  0.0457
13576TIP3    H162219   2.702   6.168  11.857 -0.9538 -0.6240 -2.3993
13576TIP3    H262220   2.757   6.308  11.832  0.6229 -0.1285  2.7123
13577TIP3   OH262221   5.562   6.460   3.053 -0.7297 -0.2465 -0.3501
13577TIP3    H162222   5.516   6.502   2.981  0.9015  0.2017 -1.1800
13577TIP3    H262223   5.521   6.374   3.062 -1.9506  0.2683 -0.7834
13578TIP3   OH262224   2.635   5.078  16.306  0.4414  0.8897  0.1675
13578TIP3    H162225   2.562   5.054  16.250 -0.4510  1.6467  0.9651
13578TIP3    H262226   2.594   5.110  16.387  1.6750 -0.7049  1.5016
13579TIP3   OH262227   3.410   4.038  15.729  0.0590  0.0488  0.9196
13579TIP3    H162228   3.318   4.064  15.724  0.0918 -0.1044 -0.7917
13579TIP3    H262229   3.408   3.953  15.773 -0.7449 -0.5476 -0.2302
13580TIP3   OH262230   5.805   5.582   4.436  0.0836 -0.3338  0.0313
13580TIP3    H162231   5.774   5.516   4.498 -0.6311  0.9043  1.0153
13580TIP3    H262232   5.733   5.592   4.374 -0.0393 -0.0572  0.2194
13581TIP3   OH262233   0.527   5.780   4.524 -0.2270 -0.4142  0.1694
13581TIP3    H162234   0.486   5.842   4.463 -0.3796 -0.7297 -0.0499
13581TIP3    H262235   0.620   5.783   4.501 -0.2432 -0.3169  0.1154
13582TIP3   OH262236   0.740   2.601  16.766  0.1487 -0.4940  0.1494
13582TIP3    H162237   0.756   2.531  16.702 -0.6056  2.1645 -3.2384
13582TIP3    H262238   0.644   2.608  16.770  0.1690 -0.8423  1.9555
13583TIP3   OH262239   0.318   4.144  15.696 -0.0738  0.0030 -0.3138
13583TIP3    H162240   0.261   4.191  15.757 -0.2495 -0.5985 -0.0060
13583TIP3    H262241   0.375   4.212  15.659  1.3496  0.1147  1.9305
13584TIP3   OH262242   4.535   2.152  12.595 -0.5353  0.8649  0.1293
13584TIP3    H162243   4.529   2.227  12.536 -0.7738 -0.1883 -1.2277
13584TIP3    H262244   4.451   2.107  12.586 -0.4211  0.4572  0.9770
13585TIP3   OH262245   3.717   2.664   5.396 -0.4950 -0.0519  0.0925
13585TIP3    H162246   3.786   2.622   5.344 -1.4214  1.6381 -2.7538
13585TIP3    H262247   3.639   2.612   5.377 -0.4574 -0.7751  1.7310
13586TIP3   OH262248   5.878   2.488  16.295  0.0640 -0.2201  1.0966
13586TIP3    H162249   5.930   2.520  16.368  0.0745 -0.6563  1.2826
13586TIP3    H262250   5.791   2.526  16.309  0.0712 -0.2867  1.3245
13587TIP3   OH262251   0.204   1.900   4.358 -0.2676  0.0317 -0.1388
13587TIP3    H162252   0.231   1.970   4.298  0.1849  0.7153  0.8437
13587TIP3    H262253   0.197   1.942   4.443 -2.1069 -0.6507  0.1009
13588TIP3   OH262254   6.182   3.273   4.666  0.0349  0.5504 -0.2840
13588TIP3    H162255   6.092   3.305   4.667 -0.6055 -1.1464 -0.4470
13588TIP3    H262256   6.178   3.188   4.710  1.3419 -0.0937 -1.3443
13589TIP3   OH262257   5.060   2.492   2.592  0.1239 -0.2378 -0.3932
13589TIP3    H162258   4.984   2.476   2.536 -0.0778 -1.3233  0.1689
13589TIP3    H262259   5.115   2.414   2.581  0.8200  0.2184 -0.2439
13590TIP3   OH262260   3.633   4.279   4.773  0.0158 -0.0174  0.2730
13590TIP3    H162261   3.705   4.259   4.832 -0.0675 -2.8665 -0.4702
13590TIP3    H262262   3.642   4.373   4.756  1.6813  0.3306  2.5664
13591TIP3   OH262263   2.363   0.830  15.345 -0.0204 -0.2828 -0.0424
13591TIP3    H162264   2.442   0.862  15.389 -0.1717 -1.6005  1.2415
13591TIP3    H262265   2.291   0.854  15.404 -0.3324 -1.1388 -0.0577
13592TIP3   OH262266   3.708   4.785  11.037 -0.3542 -0.0069 -0.7121
13592TIP3    H162267   3.678   4.858  10.983 -1.6046 -0.4283 -0.6180
13592TIP3    H262268   3.695   4.815  11.127  1.6894  0.6809 -0.5792
13593TIP3   OH262269   4.210   4.919   1.115 -0.9877 -0.0444  0.4189
13593TIP3    H162270   4.206   4.882   1.027 -0.2514  2.1785 -0.6291
13593TIP3    H262271   4.173   5.006   1.106 -1.0886  0.1486  2.3765
13594TIP3   OH262272   2.092   0.052   2.479  0.2648 -0.1256 -0.4261
13594TIP3    H162273   2.055   0.141   2.481  1.7253  0.5669  2.8861
13594TIP3    H262274   2.017  -0.005   2.494 -0.8814  0.3280 -3.6710
13595TIP3   OH262275   4.891   6.356  15.304 -0.1654  0.5542 -0.1991
13595TIP3    H162276   4.915   6.373  15.213  1.3665  0.3880  0.1485
13595TIP3    H262277   4.868   6.442  15.339 -0.7288  0.6259 -0.7183
13596TIP3   OH262278   4.438   1.114   3.052 -0.0053 -0.1061  0.0931
13596TIP3    H162279   4.399   1.164   2.980  1.2523 -0.0584 -0.5807
13596TIP3    H262280   4.397   1.027   3.046 -1.9845  0.6962  1.0892
13597TIP3   OH262281   0.829   1.395   0.227 -0.1748  0.0190 -0.0592
13597TIP3    H162282   0.743   1.432   0.210 -0.9172 -1.6509 -0.0820
13597TIP3    H262283   0.814   1.301   0.237  1.7540 -0.4275 -0.8403
13598TIP3   OH262284   2.607   2.606  14.198 -0.1711 -0.2706 -0.5118
13598TIP3    H162285   2.663   2.547  14.148 -0.1635  0.1569 -1.0216
13598TIP3    H262286   2.522   2.602  14.154 -0.3891 -0.5042 -0.0705
13599TIP3   OH262287   6.306   3.736  11.102  0.3544  0.2234  0.2113
13599TIP3    H162288   6.342   3.707  11.186 -1.2343 -0.1007  0.8054
13599TIP3    H262289   6.376   3.718  11.038  1.0084 -0.9422  1.2178
13600TIP3   OH262290   1.885   2.063  14.692  0.1435 -0.2217  0.5435
13600TIP3    H162291   1.961   2.104  14.733 -0.0407  1.8813 -1.1024
13600TIP3    H262292   1.814   2.127  14.703 -1.2117 -1.7574  1.2461
13601TIP3   OH262293   3.428   5.043   2.192 -0.1772 -0.2259 -0.6368
13601TIP3    H162294   3.430   5.052   2.288  0.7076  0.8271 -0.7267
13601TIP3    H262295   3.339   5.015   2.172  0.0990 -2.1769  0.6181
13602TIP3   OH262296   4.496   4.765  17.031 -0.5867  0.1738  0.4463
13602TIP3    H162297   4.408   4.798  17.048 -0.3712  0.9299  0.1255
13602TIP3    H262298   4.486   4.713  16.951 -0.9268 -0.5629  0.9547
13603TIP3   OH262299   5.367   2.263   5.275 -0.2026  0.3141 -0.2765
13603TIP3    H162300   5.387   2.172   5.251 -0.7238 -0.0205  0.5057
13603TIP3    H262301   5.323   2.256   5.360  1.5090  1.4416  0.7499
13604TIP3   OH262302   4.909   1.852   3.688 -0.3308 -0.0511  0.1542
13604TIP3    H162303   4.895   1.786   3.755  0.6900  1.4833  1.9886
13604TIP3    H262304   4.997   1.833   3.654 -1.4843 -1.8630 -2.0922
13605TIP3   OH262305   3.481   2.281  13.725  0.6468  0.0624 -0.0272
13605TIP3    H162306   3.430   2.260  13.803  2.1814 -2.2468  0.4578
13605TIP3    H262307   3.555   2.332  13.758  0.4429  0.4715 -0.2071
13606TIP3   OH262308   2.720   4.613   0.074 -0.0350 -0.3232 -0.2394
13606TIP3    H162309   2.655   4.677   0.045  0.8119  0.5074 -0.3769
13606TIP3    H262310   2.770   4.593  -0.005  0.5501 -0.1264  0.0725
13607TIP3   OH262311   6.710   5.358  11.728  0.4868  0.1330  0.1626
13607TIP3    H162312   6.626   5.374  11.770 -1.2178 -4.5238 -0.9034
13607TIP3    H262313   6.771   5.345  11.801 -0.3103  0.9558  0.9979
13608TIP3   OH262314   1.325   2.725  17.077 -0.1057  0.0136 -0.3342
13608TIP3    H162315   1.377   2.727  17.158  0.3342  0.2547 -0.6190
13608TIP3    H262316   1.277   2.808  17.079 -1.4262 -0.7395  0.5313
13609TIP3   OH262317   6.664   2.330   5.000  0.0116  0.0129 -0.0038
13609TIP3    H162318   6.673   2.391   4.928  1.8550  0.0002  0.1803
13609TIP3    H262319   6.695   2.378   5.077 -0.7427 -0.3879  0.5674
13610TIP3   OH262320   6.063   1.104  12.004  0.0449 -0.2558  0.2564
13610TIP3    H162321   5.973   1.079  12.026 -0.3768  0.1996 -0.8876
13610TIP3    H262322   6.109   1.101  12.088 -1.3780  0.9775  1.1462
13611TIP3   OH262323   5.640   2.267   4.267  0.3182 -0.3602 -0.1298
13611TIP3    H162324   5.708   2.284   4.202  2.1153 -1.7015  1.2922
13611TIP3    H262325   5.590   2.193   4.231  0.5115 -0.3004 -0.5264
13612TIP3   OH262326   4.927   1.026  15.544  0.0420  0.7202 -0.0826
13612TIP3    H162327   4.841   1.001  15.580  0.7384 -0.7651  0.6777
13612TIP3    H262328   4.967   0.943  15.518  1.9105  1.1612  1.1364
13613TIP3   OH262329   3.229   4.399  16.627  0.6036 -0.5974  0.3815
13613TIP3    H162330   3.323   4.415  16.616  0.5115  0.4705  0.9818
13613TIP3    H262331   3.221   4.360  16.714  0.3752  0.6754  0.9548
13614TIP3   OH262332   5.121   3.025   3.273 -0.0156  0.2419  0.0631
13614TIP3    H162333   5.035   2.999   3.306  0.1424 -0.9103 -0.3972
13614TIP3    H262334   5.119   3.121   3.273 -0.4759  0.2942  2.2287
13615TIP3   OH262335   6.233   5.658   5.074  0.2322  0.2455  0.7790
13615TIP3    H162336   6.186   5.740   5.086 -0.6353 -0.4234  2.2173
13615TIP3    H262337   6.323   5.684   5.058  0.3888  1.4922  3.2000
13616TIP3   OH262338   5.283   0.428   1.136  0.5250 -0.0591 -0.1072
13616TIP3    H162339   5.283   0.494   1.206  1.6964  1.1897 -1.2118
13616TIP3    H262340   5.376   0.408   1.123  0.2449 -1.1235 -0.5408
13617TIP3   OH262341   6.453   6.378  16.809  0.2327  0.7186  0.2366
13617TIP3    H162342   6.523   6.313  16.814 -0.2132 -0.0238 -2.1309
13617TIP3    H262343   6.434   6.387  16.716 -3.1260  0.5571  0.7676
13618TIP3   OH262344   2.495   4.413   1.400  0.0658 -0.0865  0.7593
13618TIP3    H162345   2.489   4.502   1.435  0.2224 -0.2504  1.2108
13618TIP3    H262346   2.467   4.357   1.472 -1.3038 -0.3438  0.0575
13619TIP3   OH262347   3.052   2.257   0.472  0.0103  0.1388  0.2323
13619TIP3    H162348   3.036   2.346   0.503 -2.5149  0.3338 -1.3464
13619TIP3    H262349   3.050   2.264   0.377 -0.8123 -1.6775  0.0804
13620TIP3   OH262350   1.572   1.232   5.640 -0.3655  0.4498 -0.0868
13620TIP3    H162351   1.615   1.315   5.663 -0.3503  0.1821  0.8783
13620TIP3    H262352   1.520   1.254   5.563  0.7140  1.0220 -0.6738
13621TIP3   OH262353   6.459   6.423  13.182  0.2789 -0.2180 -0.3237
13621TIP3    H162354   6.437   6.344  13.134 -0.8361  1.1730 -2.2249
13621TIP3    H262355   6.519   6.470  13.125 -1.2432  1.5914 -0.5347
13622TIP3   OH262356   4.978   1.824  15.154 -0.1282  0.0064 -0.2226
13622TIP3    H162357   4.942   1.762  15.091  0.7183 -1.3857  0.6222
13622TIP3    H262358   4.951   1.910  15.120  1.4501 -0.5359 -3.2714
13623TIP3   OH262359   4.422   4.915   0.803  0.5402  0.0581 -0.3418
13623TIP3    H162360   4.468   4.853   0.860  1.4503 -0.6128 -1.7436
13623TIP3    H262361   4.488   4.981   0.782 -0.9824  2.9335  2.9368
13624TIP3   OH262362   6.197   2.052  15.332  0.0815 -0.3482 -0.1916
13624TIP3    H162363   6.264   2.009  15.279  0.4409  0.5494 -0.4806
13624TIP3    H262364   6.145   2.102  15.268 -0.2361 -0.2264  0.1607
13625TIP3   OH262365   4.937   4.480  12.875 -0.3223  0.4886  0.1101
13625TIP3    H162366   4.856   4.462  12.828 -0.4582 -0.0291  0.5283
13625TIP3    H262367   4.992   4.404  12.857 -0.2432  0.4552  0.4960
13626TIP3   OH262368   6.406   4.277  14.049 -0.2506 -0.1530  0.2838
13626TIP3    H162369   6.361   4.321  13.976 -1.5908  1.0906  1.7931
13626TIP3    H262370   6.345   4.283  14.122  1.4198 -0.5891  1.7751
13627TIP3   OH262371   3.172   6.153  11.738  0.2474 -0.5735 -0.2545
13627TIP3    H162372   3.097   6.197  11.698 -0.5476 -2.1267 -0.5529
13627TIP3    H262373   3.181   6.192  11.824 -3.0600 -2.5757  1.1736
13628TIP3   OH262374   2.588   3.266   1.521 -0.1660 -0.3375  0.0975
13628TIP3    H162375   2.554   3.207   1.588 -0.3182 -0.6934 -0.2892
13628TIP3    H262376   2.680   3.280   1.545 -0.5461  0.5876  1.1207
13629TIP3   OH262377   4.017   1.082   3.628  0.3887  0.3761  0.4549
13629TIP3    H162378   4.073   1.004   3.620 -0.2186 -0.0156 -0.0295
13629TIP3    H262379   4.079   1.154   3.637  0.9693 -0.1108  0.4422
13630TIP3   OH262380   5.754   5.248  15.317  0.1402 -0.2752  0.1002
13630TIP3    H162381   5.781   5.164  15.280 -1.6587 -0.0604 -1.8753
13630TIP3    H262382   5.720   5.227  15.404 -2.3361 -1.9963 -1.1750
13631TIP3   OH262383   3.689   2.718  10.457  0.7005  0.1872  0.0261
13631TIP3    H162384   3.686   2.642  10.399  0.9163  0.2981 -0.1327
13631TIP3    H262385   3.698   2.792  10.397 -2.0667  0.5931 -0.0261
13632TIP3   OH262386   4.834   3.118  12.155  0.6700 -1.0340  0.3357
13632TIP3    H162387   4.869   3.168  12.081  1.0062 -1.8750 -0.0962
13632TIP3    H262388   4.751   3.082  12.122  0.6156 -1.0677  0.5099
13633TIP3   OH262389   0.163   4.442  16.595  0.3825  0.2065 -0.1253
13633TIP3    H162390   0.122   4.400  16.670 -1.2867 -1.6697 -1.9450
13633TIP3    H262391   0.252   4.405  16.592 -0.0804 -0.9626  0.0321
13634TIP3   OH262392   1.781   6.000  11.485  0.0513 -0.1222 -0.5062
13634TIP3    H162393   1.736   5.953  11.415 -1.6942  1.1289 -0.2825
13634TIP3    H262394   1.870   6.015  11.452 -0.7390  0.4800 -2.4755
13635TIP3   OH262395   0.925   4.656   2.649 -0.8542 -0.1898 -0.3427
13635TIP3    H162396   0.991   4.589   2.631  1.6809  1.4434  2.1495
13635TIP3    H262397   0.845   4.620   2.611  1.0598 -3.0165 -2.1555
13636TIP3   OH262398   2.934   1.206  12.107 -0.0027  0.0991  0.1125
13636TIP3    H162399   2.960   1.201  12.199  0.4205  1.3618  0.0898
13636TIP3    H262400   2.946   1.299  12.084  3.2411 -0.7097 -2.1676
13637TIP3   OH262401   0.262   5.373   4.648 -0.3507 -0.1560  0.3912
13637TIP3    H162402   0.263   5.466   4.669  0.9621 -0.5359  2.3312
13637TIP3    H262403   0.353   5.352   4.627 -0.3784 -1.2317  1.2482
13638TIP3   OH262404   3.216   1.941  15.124 -0.1429  0.6398 -0.3725
13638TIP3    H162405   3.120   1.946  15.118 -0.1895  0.9299  0.5120
13638TIP3    H262406   3.235   1.847  15.116 -0.4699  0.6223 -0.9701
13639TIP3   OH262407   0.658   4.806  14.467  0.4188  0.2532  0.7206
13639TIP3    H162408   0.633   4.793  14.558  1.7408  2.4319  1.4758
13639TIP3    H262409   0.721   4.735  14.449 -0.1486 -0.4254  1.3475
13640TIP3   OH262410   5.587   1.464   3.972 -0.2813 -0.0822 -0.0399
13640TIP3    H162411   5.569   1.525   3.901  2.0555  0.6045 -0.1237
13640TIP3    H262412   5.655   1.406   3.938 -2.1762 -2.6032  0.1709
13641TIP3   OH262413   5.619   1.444   2.388  0.7605  0.6205  0.2448
13641TIP3    H162414   5.640   1.478   2.301 -1.0673  2.4958  0.4696
13641TIP3    H262415   5.654   1.354   2.387 -0.0687  0.2110 -2.7978
13642TIP3   OH262416   6.085   5.930  16.869 -0.2798  0.1820 -0.0591
13642TIP3    H162417   5.996   5.963  16.859  0.0110  0.7151 -1.0267
13642TIP3    H262418   6.104   5.888  16.785  0.4546  0.2544  0.0642
13643TIP3   OH262419   6.114   0.053   2.029 -0.9733 -0.2250 -0.2887
13643TIP3    H162420   6.150   0.023   1.945 -0.0227  0.7350 -0.2388
13643TIP3    H262421   6.030   0.093   2.006 -1.2769 -1.0183 -0.6157
13644TIP3   OH262422   3.650   6.740   4.403 -0.0264 -0.2899 -0.6815
13644TIP3    H162423   3.558   6.725   4.380 -0.2550 -0.0537  0.0554
13644TIP3    H262424   3.646   6.789   4.485  0.7665 -1.2879 -0.0224
13645TIP3   OH262425   5.172   2.818  15.942 -0.1476 -0.0393 -0.1771
13645TIP3    H162426   5.096   2.815  16.000  0.4130 -0.0148  0.5673
13645TIP3    H262427   5.139   2.858  15.862 -0.9948 -0.3198  0.0199
13646TIP3   OH262428   2.944   5.135  16.372 -0.1923  0.1280  1.2999
13646TIP3    H162429   2.856   5.104  16.350 -0.3270  0.6556  1.0663
13646TIP3    H262430   2.964   5.094  16.456 -0.8762  0.4292  1.6156
13647TIP3   OH262431   1.546   6.268   3.909 -0.1462 -0.0380 -0.1985
13647TIP3    H162432   1.543   6.180   3.871  1.0739 -0.0094 -0.3918
13647TIP3    H262433   1.624   6.268   3.964  0.2816  1.1534 -0.7740
13648TIP3   OH262434   6.482   5.582  16.232 -0.3155  0.5968 -0.1916
13648TIP3    H162435   6.492   5.622  16.146  0.1040  0.2518 -0.3029
13648TIP3    H262436   6.535   5.638  16.290  0.6656 -0.0534 -0.4299
13649TIP3   OH262437   2.513   1.429   4.906  0.0804  0.9248  0.2606
13649TIP3    H162438   2.528   1.336   4.887  0.1516  0.8149  0.8557
13649TIP3    H262439   2.587   1.474   4.865 -0.7179  0.8705 -1.3221
13650TIP3   OH262440   3.140   1.960   3.142 -0.5123 -0.1006 -0.3843
13650TIP3    H162441   3.203   2.020   3.181  0.5093 -1.5509  0.2856
13650TIP3    H262442   3.181   1.874   3.149 -2.1795 -0.9735 -0.7689
13651TIP3   OH262443   6.719   3.161  15.992 -0.2391  0.1598 -0.0293
13651TIP3    H162444   6.647   3.225  15.987 -0.5970 -0.2761 -0.6440
13651TIP3    H262445   6.780   3.199  16.055 -0.8093  0.7435  0.1904
13652TIP3   OH262446   2.703   1.294  11.801  0.1973  0.2368 -0.1693
13652TIP3    H162447   2.701   1.379  11.756 -0.4428 -0.5018 -1.5790
13652TIP3    H262448   2.636   1.303  11.870 -1.6768  0.0833 -1.8787
13653TIP3   OH262449   1.980   6.657  14.543  0.0441 -0.1220 -0.2741
13653TIP3    H162450   1.995   6.699  14.459 -2.1777  0.4716 -0.4432
13653TIP3    H262451   1.969   6.564  14.522 -0.2038 -0.0182 -0.6046
13654TIP3   OH262452   2.265   5.398   3.860  0.0024  0.6191  0.0914
13654TIP3    H162453   2.356   5.367   3.864 -0.1193  0.2400 -0.0267
13654TIP3    H262454   2.232   5.385   3.949 -1.0375 -2.6898 -0.6042
13655TIP3   OH262455   0.657   6.057  13.989 -0.7508 -0.1176  0.7847
13655TIP3    H162456   0.725   6.113  14.026 -1.8330 -0.0076  2.8014
13655TIP3    H262457   0.702   6.001  13.926  1.1997 -0.0722  2.0719
13656TIP3   OH262458   2.361   0.570   0.607  0.1053 -0.6581  0.0765
13656TIP3    H162459   2.367   0.545   0.515  2.4314 -0.8084  0.1926
13656TIP3    H262460   2.381   0.663   0.609  0.1740 -0.6762  0.4362
13657TIP3   OH262461   4.686   4.735  13.731  0.7004  0.0589  0.2170
13657TIP3    H162462   4.611   4.775  13.688 -0.2172 -1.0048  0.7939
13657TIP3    H262463   4.750   4.721  13.661  1.4693  3.2978  0.0998
13658TIP3   OH262464   2.777   0.747  11.547 -0.2649 -0.7663  0.0586
13658TIP3    H162465   2.855   0.709  11.588  0.3608 -0.5169 -0.8750
13658TIP3    H262466   2.762   0.829  11.594  1.0896  0.0510 -0.8806
13659TIP3   OH262467   6.199   6.101   5.624  0.0178  0.6464  0.0943
13659TIP3    H162468   6.200   6.197   5.622 -1.0778  0.6671 -2.2797
13659TIP3    H262469   6.141   6.080   5.697 -0.0023  1.7898  0.4347
13660TIP3   OH262470   5.321   3.608  15.285 -0.1583  0.5228  0.0787
13660TIP3    H162471   5.377   3.625  15.208 -1.1627  0.9103 -0.5948
13660TIP3    H262472   5.280   3.693  15.303 -1.0099  0.1055  0.1558
13661TIP3   OH262473   4.153   0.355  12.682  0.3466  0.0212 -0.2242
13661TIP3    H162474   4.060   0.360  12.661  0.4953  1.3264 -0.6991
13661TIP3    H262475   4.194   0.320  12.603  0.1589 -1.6824  0.3905
13662TIP3   OH262476   3.290   4.357  17.110  0.3020  0.0100 -0.6894
13662TIP3    H162477   3.341   4.300  17.167  0.4189  1.0398  0.2621
13662TIP3    H262478   3.200   4.348  17.141  0.4129  0.8337 -0.0890
13663TIP3   OH262479   0.935   4.061  11.021 -0.0958  0.0291  0.2979
13663TIP3    H162480   0.840   4.069  11.010 -0.2826 -2.2580 -0.2672
13663TIP3    H262481   0.947   3.971  11.052  2.0925 -0.7900 -2.5884
13664TIP3   OH262482   1.318   2.093   5.582  0.4359 -0.0123  0.3016
13664TIP3    H162483   1.368   2.175   5.592  1.6242 -0.5478 -0.9474
13664TIP3    H262484   1.375   2.036   5.531 -0.8452 -1.2308  0.1655
13665TIP3   OH262485   5.701   2.965   5.580 -0.8356  0.1975  0.0281
13665TIP3    H162486   5.721   2.947   5.672  0.5978  0.4457 -0.2058
13665TIP3    H262487   5.721   3.058   5.569  1.3120 -0.3326 -1.0550
13666TIP3   OH262488   3.354   6.409   5.837 -0.1119 -0.2217 -0.3166
13666TIP3    H162489   3.386   6.434   5.751  3.8579 -0.5625  0.8822
13666TIP3    H262490   3.351   6.492   5.886 -3.0182  0.0828 -0.8382
13667TIP3   OH262491   4.809   5.050   2.057  0.2226  0.1929 -0.4441
13667TIP3    H162492   4.806   5.009   2.144  3.2623  0.2540 -0.2059
13667TIP3    H262493   4.763   4.988   2.000 -2.1844  0.3334  1.1943
13668TIP3   OH262494   1.331   6.217  17.138  0.3144 -0.2879  0.0151
13668TIP3    H162495   1.298   6.267  17.063  0.3631 -0.9055 -0.4251
13668TIP3    H262496   1.425   6.216  17.126  0.2741 -0.9007 -0.2392
13669TIP3   OH262497   0.132   5.546   2.088 -0.2242  0.9857  0.2063
13669TIP3    H162498   0.098   5.524   2.175 -2.3265 -0.3167 -0.8521
13669TIP3    H262499   0.175   5.466   2.059 -0.3632  1.1068 -0.3342
13670TIP3   OH262500   0.772   1.848   2.430  0.4642  0.1481 -0.0288
13670TIP3    H162501   0.708   1.917   2.447  0.4269 -0.4711  2.7302
13670TIP3    H262502   0.721   1.767   2.434  1.2261 -0.2933  1.3278
13671TIP3   OH262503   2.452   6.533   4.206 -0.3028  0.1992  0.7095
13671TIP3    H162504   2.483   6.494   4.124  1.2131  0.8169  0.9606
13671TIP3    H262505   2.470   6.467   4.273 -1.8271 -0.4341  0.5434
13672TIP3   OH262506   2.823   3.296  12.461  0.0104 -0.7418 -0.6026
13672TIP3    H162507   2.888   3.351  12.418 -1.2255  0.3634 -1.1246
13672TIP3    H262508   2.875   3.230  12.508  1.4858  0.0660 -1.0244
13673TIP3   OH262509   5.579   1.433  15.976 -0.1478  0.7590 -0.2272
13673TIP3    H162510   5.605   1.432  16.068  1.4803 -0.2155 -0.6520
13673TIP3    H262511   5.490   1.400  15.976 -0.2050  0.8651  1.0100
13674TIP3   OH262512   0.046   4.631  14.655 -0.4244  0.0788  0.0137
13674TIP3    H162513   0.085   4.703  14.606  0.1775  0.2056  0.6560
13674TIP3    H262514   0.029   4.563  14.590 -0.3750  0.5420 -0.4861
13675TIP3   OH262515   3.088   5.019   1.037  0.0857  0.3303 -1.0982
13675TIP3    H162516   3.144   5.085   0.997 -0.5839  0.9650 -1.0153
13675TIP3    H262517   3.102   5.031   1.131  1.2310 -0.7823 -1.1029
13676TIP3   OH262518   2.346   0.949   3.625 -0.3330  0.0151  0.0938
13676TIP3    H162519   2.418   0.922   3.682 -1.5188 -2.4352  0.5466
13676TIP3    H262520   2.305   0.867   3.597 -2.3534  1.2941 -0.9492
13677TIP3   OH262521   4.566   4.312   5.012 -0.1597  0.4898  0.7303
13677TIP3    H162522   4.626   4.378   5.048 -1.3318  2.2694 -0.4479
13677TIP3    H262523   4.503   4.296   5.083  0.5977  0.0093  1.3077
13678TIP3   OH262524   0.531   3.011   5.022 -0.0716  0.2449  0.3862
13678TIP3    H162525   0.603   2.961   5.061 -1.2280 -1.5037  0.3793
13678TIP3    H262526   0.505   2.960   4.945 -2.4993 -0.1975  1.4063
13679TIP3   OH262527   5.678   3.492   6.732  0.4097  0.9420 -0.1080
13679TIP3    H162528   5.718   3.529   6.653  1.7679 -0.0617  0.0769
13679TIP3    H262529   5.585   3.486   6.711  0.7894  0.3381 -1.7911
13680TIP3   OH262530   3.505   2.797  11.997 -0.7702  0.5855 -0.2107
13680TIP3    H162531   3.549   2.741  11.933 -0.2606  1.3236 -0.5256
13680TIP3    H262532   3.507   2.748  12.079  1.1453  0.8079 -0.0793
13681TIP3   OH262533   1.822   3.619  12.324 -0.1032 -0.3704  0.0837
13681TIP3    H162534   1.911   3.654  12.333 -0.4590  0.7421 -0.5766
13681TIP3    H262535   1.835   3.535  12.279  0.6019 -0.1477 -0.1480
13682TIP3   OH262536   3.590   2.492   4.615  0.7877 -0.0594  0.3639
13682TIP3    H162537   3.595   2.398   4.597 -1.0855  0.1628 -1.7439
13682TIP3    H262538   3.674   2.513   4.655  1.4217 -2.5425  0.5195
13683TIP3   OH262539   0.019   2.673   2.210  0.7500 -0.7798 -0.1806
13683TIP3    H162540   0.007   2.747   2.269 -1.0910 -0.7669 -0.5071
13683TIP3    H262541   0.049   2.711   2.128 -3.2286  0.1388 -1.4147
13684TIP3   OH262542   4.341   1.934   4.715 -0.1566 -0.5721  0.3567
13684TIP3    H162543   4.417   1.938   4.773  0.1509 -0.8652 -0.0300
13684TIP3    H262544   4.377   1.936   4.627 -0.6616  0.7156  0.1555
13685TIP3   OH262545   4.214   0.720  12.100  0.0864  0.0515  1.0005
13685TIP3    H162546   4.210   0.726  12.195 -0.1689 -1.0090  1.0755
13685TIP3    H262547   4.275   0.647  12.083 -0.7190 -0.4975  0.3894
13686TIP3   OH262548   3.376   4.905  12.036  0.1558  0.3544  0.0423
13686TIP3    H162549   3.405   4.815  12.052 -0.7318 -0.1369 -0.9950
13686TIP3    H262550   3.292   4.912  12.081  0.5592  0.8933  0.7188
13687TIP3   OH262551   0.808   2.547  15.334  0.6895 -0.2009 -0.1082
13687TIP3    H162552   0.883   2.606  15.340  0.5596 -0.0986  0.6522
13687TIP3    H262553   0.733   2.602  15.358  0.6931 -0.9167  1.6275
13688TIP3   OH262554   6.704   1.292  14.102  0.5972  0.3297 -0.1842
13688TIP3    H162555   6.671   1.209  14.068 -0.3287  0.3316  0.6697
13688TIP3    H262556   6.791   1.271  14.136  0.1129 -0.4471  0.6175
13689TIP3   OH262557   3.830   0.121  15.019  0.8239  0.0858 -0.1888
13689TIP3    H162558   3.857   0.206  15.054  1.3907  0.3775 -1.2795
13689TIP3    H262559   3.754   0.141  14.964  0.6099 -0.1972  0.0048
13690TIP3   OH262560   4.629   4.961   2.994  0.1398 -0.7025 -0.6489
13690TIP3    H162561   4.699   4.897   2.999  1.5659  0.8311  0.2868
13690TIP3    H262562   4.593   4.964   3.083  0.8752  0.5794 -0.3696
13691TIP3   OH262563   3.183   2.067  14.114  0.0284  0.3049  0.1467
13691TIP3    H162564   3.108   2.018  14.081 -0.2083 -0.2319  1.4171
13691TIP3    H262565   3.251   2.002  14.128  0.6327  0.7417 -0.6753
13692TIP3   OH262566   2.570   2.827  13.908  0.1078  0.3551 -0.3630
13692TIP3    H162567   2.618   2.902  13.944  1.6931 -0.2026 -1.2360
13692TIP3    H262568   2.491   2.821  13.962  0.6141  1.8140  0.5916
13693TIP3   OH262569   3.791   5.210   6.183  0.1379 -0.2051 -0.3358
13693TIP3    H162570   3.775   5.268   6.257 -0.5847  0.1548 -0.7717
13693TIP3    H262571   3.789   5.267   6.106  1.1534 -0.5298 -0.6251
13694TIP3   OH262572   5.873   6.827  14.359 -0.0474 -0.0422 -0.7161
13694TIP3    H162573   5.966   6.817  14.341  0.2628  0.3961  0.5363
13694TIP3    H262574   5.860   6.780  14.441 -0.9826 -0.2962 -0.9984
13695TIP3   OH262575   2.472   0.563  16.837  0.3463  0.5586  0.5228
13695TIP3    H162576   2.400   0.525  16.888  0.0697 -0.3096 -0.4763
13695TIP3    H262577   2.452   0.656  16.834 -0.0756  0.5039  1.2811
13696TIP3   OH262578   1.474   4.697  14.570  0.2024  0.7720  0.2223
13696TIP3    H162579   1.391   4.706  14.617 -0.5666  0.1674 -0.9519
13696TIP3    H262580   1.524   4.775  14.594 -0.4840  0.8757  1.3773
13697TIP3   OH262581   0.243   1.517   6.247 -0.0854 -0.2253  0.8583
13697TIP3    H162582   0.312   1.583   6.242 -0.1726 -0.1318  0.8733
13697TIP3    H262583   0.277   1.451   6.306  1.7443 -2.2861 -2.2494
13698TIP3   OH262584   0.341   0.449  15.006 -0.5348 -0.9877  0.1768
13698TIP3    H162585   0.255   0.427  14.971 -0.5093 -0.2104 -0.3922
13698TIP3    H262586   0.326   0.459  15.100 -0.7752 -2.2336  0.2849
13699TIP3   OH262587   3.077   5.647  16.932 -0.0865 -0.0770  0.0695
13699TIP3    H162588   3.146   5.711  16.950 -0.1119 -0.1693  0.4907
13699TIP3    H262589   3.121   5.581  16.878  0.3442 -0.4858  0.8956
13700TIP3   OH262590   3.636   5.426   2.584 -0.7872  0.5006 -0.2015
13700TIP3    H162591   3.701   5.355   2.584  0.6689  1.6512 -3.0454
13700TIP3    H262592   3.678   5.498   2.631 -1.1222  0.3883  0.2749
13701TIP3   OH262593   2.884   5.523  13.347 -0.0032  0.5807  0.3682
13701TIP3    H162594   2.973   5.558  13.337  0.2266  0.2853  1.2828
13701TIP3    H262595   2.851   5.514  13.258  0.4846  1.7208  0.0570
13702TIP3   OH262596   6.241   0.307   5.715 -0.4715  0.2722 -0.5107
13702TIP3    H162597   6.297   0.376   5.678  0.0929 -0.3384 -0.8111
13702TIP3    H262598   6.301   0.254   5.768 -0.8811 -0.0723 -0.3889
13703TIP3   OH262599   6.833   4.941   2.890  0.5122 -0.6451  0.2381
13703TIP3    H162600   6.811   4.862   2.842  3.9350 -3.1092  2.2777
13703TIP3    H262601   6.791   4.930   2.976 -1.4690  1.3400 -0.3694
13704TIP3   OH262602   4.532   5.020   4.784  0.0329  0.2238  0.2140
13704TIP3    H162603   4.448   4.980   4.806 -0.3292  0.7392 -0.2141
13704TIP3    H262604   4.593   4.982   4.847 -0.6320  0.2924  0.9151
13705TIP3   OH262605   4.505   5.540   2.064 -0.4096 -0.0195 -0.4446
13705TIP3    H162606   4.476   5.555   1.974 -0.8576  0.4577 -0.2198
13705TIP3    H262607   4.439   5.482   2.102  0.1757 -0.8419 -0.6453
13706TIP3   OH262608   2.487   1.895  12.741 -0.0407 -0.2833  0.3101
13706TIP3    H162609   2.499   1.833  12.813  2.1356 -0.9819 -0.5565
13706TIP3    H262610   2.549   1.966  12.760 -0.8443  0.4848  0.1002
13707TIP3   OH262611   1.229   6.463   1.651  0.2603 -0.0328  0.3490
13707TIP3    H162612   1.268   6.402   1.713  0.5702  1.0987  1.3136
13707TIP3    H262613   1.201   6.537   1.705 -1.0093  0.2522 -0.6504
13708TIP3   OH262614   6.627   0.190  11.267 -0.4573 -0.2922  0.4479
13708TIP3    H162615   6.608   0.213  11.176  0.2699  0.3150  0.4414
13708TIP3    H262616   6.564   0.121  11.288 -1.0372 -0.0099 -0.3204
13709TIP3   OH262617   0.284   1.225   1.056  0.1949  0.1306  0.3815
13709TIP3    H162618   0.319   1.287   1.119 -1.0655 -0.3354  1.5789
13709TIP3    H262619   0.233   1.162   1.108  0.9639 -1.5947 -0.8466
13710TIP3   OH262620   4.477   5.185   3.540 -0.4531  0.0314  0.1561
13710TIP3    H162621   4.534   5.156   3.469 -1.0568  1.3031 -0.8924
13710TIP3    H262622   4.415   5.113   3.553  0.4727 -0.7562  0.3279
13711TIP3   OH262623   4.987   4.112   4.235 -0.0604  0.1520  0.2731
13711TIP3    H162624   4.982   4.127   4.329  0.8231  0.6909  0.2471
13711TIP3    H262625   4.994   4.200   4.197  2.5703 -0.1301 -0.0758
13712TIP3   OH262626   1.895   5.305   5.604  0.2561  0.4869 -0.1847
13712TIP3    H162627   1.846   5.264   5.532 -0.2029 -0.6000  0.7015
13712TIP3    H262628   1.827   5.337   5.663  0.6278  1.5023 -0.2973
13713TIP3   OH262629   2.225   4.054  13.522  0.1510  0.2852 -0.1356
13713TIP3    H162630   2.218   4.144  13.489 -0.2362  0.5717  0.7017
13713TIP3    H262631   2.288   4.060  13.595  2.1715 -0.6032 -1.6878
13714TIP3   OH262632   3.765   2.457   3.112 -0.1830  1.1657  0.3915
13714TIP3    H162633   3.854   2.423   3.115 -0.3086  0.8325  0.3971
13714TIP3    H262634   3.758   2.499   3.026 -0.5882 -0.4031 -0.3750
13715TIP3   OH262635   5.544   5.527   3.689  0.0436  0.4160  0.2069
13715TIP3    H162636   5.460   5.572   3.676  0.2089  0.5819 -0.3157
13715TIP3    H262637   5.521   5.446   3.733 -0.3016  0.8336  0.8061
13716TIP3   OH262638   2.571   3.086   1.782  0.7286  0.0586 -0.1466
13716TIP3    H162639   2.650   3.034   1.789  2.2720  2.4160  1.2831
13716TIP3    H262640   2.516   3.057   1.856  1.5784  0.4479  0.6515
13717TIP3   OH262641   0.756   3.403  14.587  0.5435  0.3973  0.5883
13717TIP3    H162642   0.744   3.406  14.682  1.6208  2.8008  0.7293
13717TIP3    H262643   0.764   3.495  14.562  0.3600 -0.1956 -1.8390
13718TIP3   OH262644   6.753   1.011   4.980 -0.9821  0.5481 -0.6187
13718TIP3    H162645   6.800   0.931   4.956 -1.0537 -0.2779  1.7165
13718TIP3    H262646   6.810   1.082   4.952  0.8730 -0.4062  0.5966
13719TIP3   OH262647   6.786   5.473   5.528  0.2239  0.0441 -0.2973
13719TIP3    H162648   6.808   5.524   5.450 -2.1874  0.7874 -0.5785
13719TIP3    H262649   6.842   5.509   5.597  2.1175 -0.3655 -1.5648
13720TIP3   OH262650   5.131   3.600   3.187  0.3099 -0.2640 -0.2415
13720TIP3    H162651   5.103   3.601   3.278 -2.2947 -0.4497 -0.9524
13720TIP3    H262652   5.052   3.620   3.137  1.0172 -2.6272 -2.5970
13721TIP3   OH262653   6.468   5.501  14.502 -0.5757  0.6701  0.0286
13721TIP3    H162654   6.492   5.522  14.592  0.7374  0.2132 -0.1968
13721TIP3    H262655   6.399   5.564  14.481  0.0231  1.6703  0.9200
13722TIP3   OH262656   4.046   3.178  11.631 -0.2787 -0.1093  0.4029
13722TIP3    H162657   3.977   3.144  11.687 -0.3785 -1.3842 -0.4556
13722TIP3    H262658   4.003   3.245  11.577 -1.2716 -1.9495 -1.2051
13723TIP3   OH262659   4.745   0.195   2.525 -0.3176  0.0663  0.3294
13723TIP3    H162660   4.738   0.283   2.563 -1.8537  0.0879  0.0401
13723TIP3    H262661   4.839   0.184   2.508  0.1001  1.0319  1.8064
13724TIP3   OH262662   1.142   6.460  16.999 -0.3881 -0.1447  0.3268
13724TIP3    H162663   1.159   6.537  16.944  0.0141  1.4520  2.5347
13724TIP3    H262664   1.048   6.463  17.015 -0.5919 -0.9039 -0.6146
13725TIP3   OH262665   3.863   6.810   0.082 -0.5169  0.1877 -0.0124
13725TIP3    H162666   3.809   6.762   0.020 -0.1292  1.2792 -1.2510
13725TIP3    H262667   3.926   6.746   0.114 -1.8269 -0.8184  0.5981
13726TIP3   OH262668   3.860   2.210  13.727  0.2357  0.3661  0.3581
13726TIP3    H162669   3.882   2.157  13.650 -0.4045 -0.9027  1.0203
13726TIP3    H262670   3.887   2.156  13.801 -1.3061  0.5500  1.0775
13727TIP3   OH262671   5.869   3.312   5.981 -0.3826 -0.5547  0.6255
13727TIP3    H162672   5.774   3.303   5.991 -0.6324 -1.5411 -1.9207
13727TIP3    H262673   5.881   3.398   5.940 -0.1560 -0.3588  1.0988
13728TIP3   OH262674   3.026   3.388   2.805 -0.0906  0.8400  0.7139
13728TIP3    H162675   3.046   3.294   2.803 -0.9150  0.6651 -0.8944
13728TIP3    H262676   3.110   3.430   2.819  0.5294 -0.0826 -0.1008
13729TIP3   OH262677   5.302   2.006   2.431 -0.5075  0.3147  0.3720
13729TIP3    H162678   5.308   2.074   2.364 -2.6831 -0.0107 -0.2081
13729TIP3    H262679   5.249   2.046   2.500 -1.3497 -0.5942  0.2621
13730TIP3   OH262680   2.868   2.564   5.039  0.2001 -0.1635  0.1834
13730TIP3    H162681   2.920   2.642   5.057  0.0631 -0.3563  1.5045
13730TIP3    H262682   2.788   2.598   4.999  0.8443  0.2263 -0.7985
13731TIP3   OH262683   5.847   0.367   6.044  0.2848  0.4084  0.3231
13731TIP3    H162684   5.897   0.448   6.034  1.0431 -0.0802  0.1304
13731TIP3    H262685   5.899   0.313   6.103 -0.2107  0.0538  0.4418
13732TIP3   OH262686   1.033   5.916   4.882 -0.2553 -0.2710  0.3055
13732TIP3    H162687   1.112   5.877   4.846 -0.8215  1.1835 -2.8949
13732TIP3    H262688   1.054   6.008   4.894 -0.9358 -0.2198  1.2428
13733TIP3   OH262689   0.698   6.606  12.634 -0.1495 -0.3633  0.6900
13733TIP3    H162690   0.744   6.669  12.690  0.6142 -0.9719  0.7635
13733TIP3    H262691   0.747   6.606  12.552 -0.8056 -0.0549  0.2889
13734TIP3   OH262692   0.621   5.223  17.003 -0.1382  0.4556 -0.1062
13734TIP3    H162693   0.631   5.213  17.098 -0.8994  0.9730  0.0448
13734TIP3    H262694   0.658   5.143  16.966  0.6581  0.4887  0.5921
13735TIP3   OH262695   4.412   5.929   0.799  0.2408 -0.2224  0.0388
13735TIP3    H162696   4.463   5.896   0.873  1.4950  0.7381 -0.3511
13735TIP3    H262697   4.338   5.974   0.839  0.9087  0.2889  0.7326
13736TIP3   OH262698   4.766   1.865  12.653  0.0771 -0.0835 -0.0985
13736TIP3    H162699   4.860   1.850  12.651  0.0189 -0.6165  0.7773
13736TIP3    H262700   4.747   1.888  12.744 -0.2792  2.5574 -0.7640
13737TIP3   OH262701   4.247   6.704   3.829  0.4688 -0.5182  0.9963
13737TIP3    H162702   4.181   6.637   3.851 -0.5065  0.0794 -0.0352
13737TIP3    H262703   4.196   6.777   3.794  1.5321  0.7422  1.9997
13738TIP3   OH262704   4.092   1.492   4.362 -0.6735 -0.4750 -0.2383
13738TIP3    H162705   4.163   1.428   4.370  1.5890  1.6575 -1.8960
13738TIP3    H262706   4.115   1.562   4.423  1.1525  2.2434 -3.7073
13739TIP3   OH262707   3.146   4.091   3.669 -0.2786  0.6577  0.0577
13739TIP3    H162708   3.053   4.080   3.691 -0.2202  2.0588  1.0943
13739TIP3    H262709   3.147   4.093   3.573 -0.5979 -4.9796 -0.4248
13740TIP3   OH262710   4.029   2.258   3.171  0.0103  0.0137  0.2796
13740TIP3    H162711   3.979   2.236   3.092  0.3250  0.0071  0.0800
13740TIP3    H262712   4.012   2.185   3.231 -0.9847  0.4777  0.5771
13741TIP3   OH262713   5.833   5.016  14.252 -0.1034 -0.7559 -0.0750
13741TIP3    H162714   5.903   5.047  14.194  0.3979  0.1149  0.9476
13741TIP3    H262715   5.845   4.921  14.256 -0.4402 -0.9047 -1.7282
13742TIP3   OH262716   2.086   5.820   5.413  0.3432 -0.1189 -0.2320
13742TIP3    H162717   2.078   5.725   5.405  0.6450 -0.2234  0.5942
13742TIP3    H262718   2.168   5.841   5.369  0.3776 -0.2660 -0.2394
13743TIP3   OH262719   3.303   4.697   3.605  0.2481 -0.3181 -0.2653
13743TIP3    H162720   3.275   4.705   3.696  1.9088 -0.5995  0.3050
13743TIP3    H262721   3.374   4.633   3.607  1.0839  0.5216 -1.5693
13744TIP3   OH262722   5.179   1.052   0.586 -0.5634 -0.6186  0.6337
13744TIP3    H162723   5.142   1.125   0.635  0.1023 -0.8075  1.4435
13744TIP3    H262724   5.150   1.066   0.496 -0.5462  0.5682  0.8030
13745TIP3   OH262725   4.010   2.744   4.172  0.3384  0.0388  0.2231
13745TIP3    H162726   4.077   2.692   4.127  1.1145  2.3452 -1.5236
13745TIP3    H262727   4.044   2.756   4.261 -0.9407 -4.1444  1.4897
13746TIP3   OH262728   5.120   6.199   0.001 -0.2025  0.1485 -0.1139
13746TIP3    H162729   5.086   6.232   0.084  1.1164 -1.4179  1.1363
13746TIP3    H262730   5.180   6.128   0.026 -1.2242 -1.7260 -2.4676
13747TIP3   OH262731   5.904   1.905  15.676  0.1431 -0.0939  0.2424
13747TIP3    H162732   5.812   1.877  15.670  0.3208 -0.5244 -0.7235
13747TIP3    H262733   5.941   1.882  15.591  1.7682 -2.1648  1.4128
13748TIP3   OH262734   4.891   1.261  14.342  0.2695  0.0327  0.1258
13748TIP3    H162735   4.939   1.190  14.300 -0.5114  0.0953 -0.9169
13748TIP3    H262736   4.821   1.218  14.390 -1.8464  0.1090 -2.6121
13749TIP3   OH262737   3.770   2.346   1.342 -0.0158  0.0730 -0.6756
13749TIP3    H162738   3.741   2.294   1.417 -0.2647 -1.5986 -1.8778
13749TIP3    H262739   3.692   2.354   1.287  0.2276  1.0585 -0.9014
13750TIP3   OH262740   1.285   5.695   2.744  0.0239 -0.3442 -0.3810
13750TIP3    H162741   1.345   5.705   2.818 -1.6926 -1.7029  1.3026
13750TIP3    H262742   1.285   5.780   2.701  1.2707  0.4102  1.0253
13751TIP3   OH262743   1.798   2.406   6.210 -0.0018  0.2258  0.1188
13751TIP3    H162744   1.835   2.346   6.146 -0.7824 -0.9573  0.7455
13751TIP3    H262745   1.729   2.453   6.162 -0.9907 -1.0788  0.2131
13752TIP3   OH262746   1.829   3.967  13.478 -0.0584 -0.1552 -1.0848
13752TIP3    H162747   1.735   3.986  13.478 -0.1654 -0.5000  1.1114
13752TIP3    H262748   1.871   4.052  13.491 -0.0933 -0.1217 -1.1862
13753TIP3   OH262749   5.602   2.252  13.908 -0.5908 -0.2527 -0.4166
13753TIP3    H162750   5.672   2.208  13.956 -1.5788 -1.7684 -0.2654
13753TIP3    H262751   5.646   2.309  13.846  0.7990 -1.6795 -0.8017
13754TIP3   OH262752   2.854   0.497   1.143 -0.7297 -0.6574 -0.2195
13754TIP3    H162753   2.812   0.515   1.227 -1.2747 -0.5141 -0.5160
13754TIP3    H262754   2.814   0.415   1.113  0.0770 -1.1621  0.0494
13755TIP3   OH262755   1.940   5.338   0.588 -0.0709  0.1771  0.0434
13755TIP3    H162756   1.949   5.290   0.671 -0.4222 -0.3502 -0.2219
13755TIP3    H262757   1.973   5.278   0.522 -0.1654  0.4460 -0.2499
13756TIP3   OH262758   2.296   4.297  12.979  0.6216 -0.1619  0.3273
13756TIP3    H162759   2.377   4.306  12.928  0.2508  0.8734 -0.1098
13756TIP3    H262760   2.226   4.306  12.915  0.1399 -1.2764  0.6708
13757TIP3   OH262761   6.150   4.604  13.121  0.2956 -0.4167 -0.0681
13757TIP3    H162762   6.198   4.615  13.203  0.7846  1.0450 -0.5215
13757TIP3    H262763   6.191   4.664  13.060 -0.7636 -0.6735 -1.0877
13758TIP3   OH262764   2.033   3.588   0.609 -0.2385 -0.2670 -0.1730
13758TIP3    H162765   1.942   3.616   0.620 -0.5312 -1.1454 -0.2658
13758TIP3    H262766   2.078   3.624   0.685 -0.3989  1.1698 -0.7140
13759TIP3   OH262767   1.142   6.416   2.034 -0.0937 -0.2117 -0.0362
13759TIP3    H162768   1.217   6.421   2.093 -0.7969 -0.9424  0.9468
13759TIP3    H262769   1.067   6.406   2.092 -1.0887  1.5187 -0.9347
13760TIP3   OH262770   0.094   1.253  14.724  0.3574 -0.7912  0.2324
13760TIP3    H162771   0.002   1.246  14.699  0.2700 -0.1025  0.3469
13760TIP3    H262772   0.092   1.272  14.818  0.5114  1.7091 -0.1981
13761TIP3   OH262773   4.405   2.395   3.126  0.6677 -0.3278  0.6573
13761TIP3    H162774   4.458   2.475   3.135  1.8674 -1.1422  1.0202
13761TIP3    H262775   4.337   2.404   3.192  1.4246 -0.0832  1.4193
13762TIP3   OH262776   3.007   5.712   2.699  0.3677 -0.4149 -0.6041
13762TIP3    H162777   2.947   5.780   2.669  0.5905  0.7032  1.3263
13762TIP3    H262778   3.085   5.723   2.645 -0.3752 -0.5087 -1.7131
13763TIP3   OH262779   0.189   0.066  11.619  0.5846  0.7265 -0.5712
13763TIP3    H162780   0.124   0.037  11.683 -1.0281  1.8410 -1.6341
13763TIP3    H262781   0.165   0.022  11.538  2.0088  0.1022 -0.6772
13764TIP3   OH262782   0.136   2.052   0.154  0.2180 -0.2433 -0.7110
13764TIP3    H162783   0.106   2.139   0.179 -0.8859 -0.9878  0.6475
13764TIP3    H262784   0.193   2.068   0.078  0.6033  1.7114 -0.0688
13765TIP3   OH262785   1.886   6.171   3.803  0.1063  0.3760 -0.4571
13765TIP3    H162786   1.888   6.245   3.742 -2.1712  0.5127 -0.4366
13765TIP3    H262787   1.928   6.100   3.756  0.9229  1.2476 -1.0801
13766TIP3   OH262788   5.721   4.210   1.678 -0.0869  0.0601  0.5535
13766TIP3    H162789   5.626   4.220   1.680 -0.1309  0.1436 -0.9907
13766TIP3    H262790   5.742   4.155   1.754 -1.5747 -1.6474 -0.2192
13767TIP3   OH262791   2.951   3.014   2.315 -0.1473 -0.2470 -0.1204
13767TIP3    H162792   2.960   2.920   2.299 -0.4114 -0.0455 -1.6731
13767TIP3    H262793   3.014   3.032   2.385 -0.7385 -1.7120  0.8514
13768TIP3   OH262794   2.736   5.849  12.309  0.0869 -0.0952  0.3117
13768TIP3    H162795   2.743   5.754  12.297 -2.3181 -0.1448 -1.7934
13768TIP3    H262796   2.642   5.864  12.319  0.3983  2.1027  0.3692
13769TIP3   OH262797   1.102   3.133  10.626 -0.0030 -0.2318  0.0758
13769TIP3    H162798   1.097   3.038  10.624 -0.0627 -0.2190 -2.4479
13769TIP3    H262799   1.194   3.152  10.645  0.0617 -0.7832  0.3238
13770TIP3   OH262800   5.110   5.891  13.923 -0.6459  0.4075 -0.2334
13770TIP3    H162801   5.081   5.877  14.013 -0.4660 -1.3933 -0.4266
13770TIP3    H262802   5.177   5.825  13.909  1.4336  2.4824 -0.7989
13771TIP3   OH262803   6.294   0.881   3.000  0.2917  0.0119  0.3137
13771TIP3    H162804   6.350   0.902   3.075  1.0642 -0.0733 -0.2289
13771TIP3    H262805   6.207   0.915   3.025  0.5004 -0.1420  1.2976
13772TIP3   OH262806   6.035   5.550   1.518 -0.4112  0.3387  0.0932
13772TIP3    H162807   5.946   5.534   1.550  0.2409  0.0460  1.8371
13772TIP3    H262808   6.073   5.611   1.581  0.8749 -0.1196 -0.2089
13773TIP3   OH262809   1.119   5.399  14.221 -0.5327 -0.1833 -0.5993
13773TIP3    H162810   1.187   5.434  14.164 -0.0411  0.0603  0.1252
13773TIP3    H262811   1.057   5.471  14.230  0.3112  0.4285  0.6220
13774TIP3   OH262812   6.800   5.280  14.856 -0.0346  0.1372  0.4781
13774TIP3    H162813   6.882   5.278  14.807 -0.8574 -1.5871 -0.9422
13774TIP3    H262814   6.733   5.257  14.792 -1.4911  0.2224  1.8955
13775TIP3   OH262815   2.074   5.572  14.145  0.5079  0.5313  0.2537
13775TIP3    H162816   2.159   5.571  14.190  1.4611  1.4048 -1.4309
13775TIP3    H262817   2.029   5.648  14.181  1.0541  0.9283  0.1123
13776TIP3   OH262818   2.379   5.289  11.727 -0.0902 -0.9650  0.2216
13776TIP3    H162819   2.334   5.252  11.803 -0.6915  0.6921  0.7144
13776TIP3    H262820   2.308   5.307  11.664 -0.1950  1.5771  0.9654
13777TIP3   OH262821   5.721   3.272   5.143  0.0405  0.4368 -0.2313
13777TIP3    H162822   5.650   3.280   5.079  0.4005 -0.2356 -0.7291
13777TIP3    H262823   5.701   3.191   5.191  0.7732 -0.0807 -0.7762
13778TIP3   OH262824   6.753   2.488  11.769 -0.0144 -0.2735  0.5197
13778TIP3    H162825   6.773   2.442  11.688 -0.9198  2.1479 -1.1718
13778TIP3    H262826   6.682   2.436  11.808 -0.7739 -0.5456 -1.1363
13779TIP3   OH262827   3.717   6.594   0.012 -0.2961  0.1638  0.1569
13779TIP3    H162828   3.648   6.530  -0.006  0.2512 -0.6198  0.8027
13779TIP3    H262829   3.782   6.546   0.063  1.2284  0.6025 -1.2906
13780TIP3   OH262830   5.513   6.780  14.580  0.8090 -0.3297  0.2328
13780TIP3    H162831   5.500   6.865  14.538  1.0557  0.3436  1.4525
13780TIP3    H262832   5.513   6.717  14.508 -2.2014  0.3559 -0.4965
13781TIP3   OH262833   5.619   5.148   5.959 -0.0022 -0.3274  0.3619
13781TIP3    H162834   5.573   5.065   5.947 -2.1332  0.5918  1.6292
13781TIP3    H262835   5.610   5.168   6.052  0.8300  1.1110  0.1696
13782TIP3   OH262836   3.342   6.499   0.911 -0.0481 -0.0868 -0.7747
13782TIP3    H162837   3.293   6.451   0.845  0.4911 -0.3315 -1.0111
13782TIP3    H262838   3.277   6.529   0.974 -0.5378 -0.0598 -1.2917
13783TIP3   OH262839   2.619   6.571   1.231  0.1464 -0.0720  0.2695
13783TIP3    H162840   2.600   6.656   1.192 -1.5955  0.2318  1.6626
13783TIP3    H262841   2.533   6.533   1.249  0.8934 -1.7683  0.4939
13784TIP3   OH262842   1.073   5.181  14.805 -0.4895  0.3661 -0.3257
13784TIP3    H162843   1.132   5.242  14.849 -1.1437  0.9911 -0.2856
13784TIP3    H262844   1.128   5.136  14.741  0.5447 -0.7826  1.3055
13785TIP3   OH262845   5.214   5.676   3.642 -0.3786 -0.0789  0.4331
13785TIP3    H162846   5.133   5.650   3.686 -0.0512 -0.0319  1.0855
13785TIP3    H262847   5.208   5.771   3.635 -0.8072 -0.1548 -0.4038
13786TIP3   OH262848   0.279   4.592  14.807 -0.3957  0.1524 -0.8757
13786TIP3    H162849   0.252   4.512  14.853 -0.0675  0.5296  0.0065
13786TIP3    H262850   0.216   4.602  14.736  0.3943 -1.6807 -1.9032
13787TIP3   OH262851   0.868   5.144   4.650  0.4688  0.2405  0.2959
13787TIP3    H162852   0.830   5.129   4.564 -1.3262  1.2243  0.8625
13787TIP3    H262853   0.851   5.236   4.669  1.8647  0.3484  1.2422
13788TIP3   OH262854   1.586   6.553   2.229 -0.0683  0.1026  0.6621
13788TIP3    H162855   1.668   6.516   2.261 -0.8629  0.1533  2.9621
13788TIP3    H262856   1.529   6.478   2.215  0.0124  0.1369  0.1326
13789TIP3   OH262857   1.375   5.296   2.342  0.1868  0.0526 -0.2209
13789TIP3    H162858   1.330   5.319   2.423  0.4047  0.1524 -0.1258
13789TIP3    H262859   1.307   5.297   2.275  0.0762  0.3610 -0.1057
13790TIP3   OH262860   5.768   4.797  15.005 -0.0304 -0.3907 -0.2078
13790TIP3    H162861   5.806   4.823  14.921 -0.4865 -0.1645 -0.3485
13790TIP3    H262862   5.721   4.716  14.986 -1.7483  0.6647 -0.6157
13791TIP3   OH262863   5.989   2.870  16.062 -0.2681 -0.0925  0.5747
13791TIP3    H162864   6.046   2.793  16.061  0.4756  0.4422 -1.3596
13791TIP3    H262865   5.956   2.877  15.973 -0.7535  1.5268  0.8476
13792TIP3   OH262866   5.550   2.936   3.423 -0.0976  0.1831  0.3741
13792TIP3    H162867   5.560   2.975   3.510 -0.1729 -1.3349  1.0852
13792TIP3    H262868   5.557   2.842   3.437  0.3003 -0.0826 -1.3337
13793TIP3   OH262869   4.060   5.084  14.282 -0.5287 -0.4054  0.1842
13793TIP3    H162870   3.989   5.112  14.339  0.6973  1.7184  0.7718
13793TIP3    H262871   4.035   5.114  14.195 -1.0557 -1.0541  0.1084
13794TIP3   OH262872   4.127   1.907   4.850  0.7143 -0.0010  0.2697
13794TIP3    H162873   4.215   1.902   4.812  0.4486 -1.5734 -0.1946
13794TIP3    H262874   4.143   1.907   4.945  1.3414  3.2031  0.2643
13795TIP3   OH262875   2.959   1.003   0.207  0.7613 -0.3736  0.0080
13795TIP3    H162876   3.047   0.973   0.182  1.1174 -0.0936  0.8810
13795TIP3    H262877   2.906   0.991   0.128  1.7351  0.0471 -0.7302
13796TIP3   OH262878   3.196   3.583   2.240  0.8224  0.5174 -0.2745
13796TIP3    H162879   3.178   3.636   2.317  2.2989 -0.0551  0.4988
13796TIP3    H262880   3.126   3.606   2.178  0.6711  2.3620  0.5187
13797TIP3   OH262881   3.681   0.648   1.229 -0.4024 -0.3030  0.8162
13797TIP3    H162882   3.773   0.650   1.205 -0.8720 -1.9583 -1.3804
13797TIP3    H262883   3.653   0.739   1.221  0.8374  0.0933  0.7367
13798TIP3   OH262884   6.268   5.315   6.323 -0.0684  0.1152  0.0823
13798TIP3    H162885   6.240   5.382   6.261  1.1029  0.1480 -0.4374
13798TIP3    H262886   6.346   5.352   6.365 -0.0897 -0.4498  0.6295
13799TIP3   OH262887   3.863   2.885  11.963  0.0239 -0.3996  0.1313
13799TIP3    H162888   3.870   2.946  11.890 -0.6443  0.5488  0.8420
13799TIP3    H262889   3.804   2.928  12.025  0.8679 -1.0195  1.4017
13800TIP3   OH262890   3.616   1.158   3.440 -0.7068  0.5250  0.7712
13800TIP3    H162891   3.607   1.100   3.515 -0.4910  1.5173  1.5908
13800TIP3    H262892   3.540   1.216   3.446 -1.3162 -0.1097 -0.4482
13801TIP3   OH262893   1.313   2.115  15.940  0.2782 -0.4162  0.2350
13801TIP3    H162894   1.287   2.077  16.024  0.7651 -0.2905  0.4442
13801TIP3    H262895   1.232   2.119  15.889 -0.2234  0.5210  1.0954
13802TIP3   OH262896   2.100   0.586  11.095 -0.2110 -0.0708  0.7486
13802TIP3    H162897   2.055   0.629  11.021 -2.1350 -2.2957  0.5047
13802TIP3    H262898   2.193   0.606  11.081 -0.6974  1.1439 -1.2186
13803TIP3   OH262899   6.255   3.993  15.522  0.4886  0.2092  0.0523
13803TIP3    H162900   6.171   4.034  15.539 -0.0127 -0.9904  0.6067
13803TIP3    H262901   6.266   3.931  15.594  0.7257 -1.3525 -1.2669
13804TIP3   OH262902   6.166   6.666   3.580  0.0646  0.0208 -0.2129
13804TIP3    H162903   6.248   6.673   3.629 -0.1079  2.3700 -0.1361
13804TIP3    H262904   6.105   6.722   3.628 -0.8232  0.4196 -1.7372
13805TIP3   OH262905   3.931   5.016  15.994 -0.2438  0.3833  0.2130
13805TIP3    H162906   3.920   5.094  15.941  0.6932  0.2518 -0.1901
13805TIP3    H262907   3.876   4.950  15.952 -1.0165  0.8068  0.5403
13806TIP3   OH262908   6.000   1.989  10.261 -0.5200  0.6836  0.9688
13806TIP3    H162909   5.979   2.062  10.319 -0.1714  0.3837  1.4688
13806TIP3    H262910   6.003   1.912  10.318 -0.1050  0.3987  0.5665
13807TIP3   OH262911   0.073   6.042  16.773 -0.3777 -0.1724 -0.2647
13807TIP3    H162912   0.140   6.063  16.837 -1.8554 -0.0659  1.3285
13807TIP3    H262913   0.121   6.023  16.692  1.4065  6.5587 -1.3388
13808TIP3   OH262914   3.164   1.279   5.117  0.8640  0.3370 -0.0644
13808TIP3    H162915   3.179   1.323   5.034 -1.2653  0.8199 -0.2607
13808TIP3    H262916   3.187   1.344   5.183  3.7612 -0.4591 -0.1680
13809TIP3   OH262917   6.507   6.694  15.676  0.0647 -0.2969 -0.4488
13809TIP3    H162918   6.479   6.623  15.734 -0.3618 -0.5218 -0.9193
13809TIP3    H262919   6.531   6.765  15.736 -1.6273 -0.0526  0.0100
13810TIP3   OH262920   4.991   2.984   2.398 -0.7396 -0.6824 -0.6309
13810TIP3    H162921   4.922   2.976   2.332 -0.9539 -0.1718 -0.4788
13810TIP3    H262922   5.052   2.913   2.379  0.0016  0.3279 -2.3545
13811TIP3   OH262923   0.365   6.497   1.180  0.0295  0.5379  0.0336
13811TIP3    H162924   0.328   6.411   1.198 -0.6835  1.1902  1.9628
13811TIP3    H262925   0.289   6.556   1.184  1.0050  1.7414  2.7435
13812TIP3   OH262926   6.126   4.763  14.652  0.1141  0.0840 -0.2210
13812TIP3    H162927   6.213   4.725  14.638 -0.0541 -0.7138  0.7957
13812TIP3    H262928   6.108   4.748  14.745 -0.7779  0.9546 -0.2393
13813TIP3   OH262929   6.018   6.698  10.906  0.4083  0.1128  0.7763
13813TIP3    H162930   6.108   6.728  10.899 -0.0236  1.6283  1.2626
13813TIP3    H262931   5.967   6.763  10.858 -0.6368  0.5596  2.3890
13814TIP3   OH262932   0.925   5.628   3.400  0.2851  0.1032  0.2455
13814TIP3    H162933   0.995   5.680   3.438  0.8680 -0.3080 -0.2501
13814TIP3    H262934   0.866   5.692   3.360  0.6877  0.4131  0.1485
13815TIP3   OH262935   1.867   2.399  12.227 -0.4660 -0.2870 -0.1852
13815TIP3    H162936   1.954   2.392  12.267 -0.3888  3.4053  0.6471
13815TIP3    H262937   1.806   2.391  12.300 -0.6170  0.3429 -0.2311
13816TIP3   OH262938   1.387   0.420  11.855 -0.5776  0.1450 -0.6213
13816TIP3    H162939   1.326   0.483  11.894 -1.3226 -0.4474 -0.8006
13816TIP3    H262940   1.450   0.402  11.924 -1.8031 -0.7913  0.3113
13817TIP3   OH262941   3.137   6.518   3.315 -0.0603  0.0013  0.3148
13817TIP3    H162942   3.049   6.491   3.340  0.5149 -2.7938 -0.3702
13817TIP3    H262943   3.130   6.613   3.303 -2.8794 -0.0764  0.5922
13818TIP3   OH262944   1.400   5.946   4.006  0.0419 -0.1542 -0.0431
13818TIP3    H162945   1.307   5.934   3.987  0.5977 -2.7473 -1.5568
13818TIP3    H262946   1.443   5.934   3.922  1.8690 -0.3319  0.8712
13819TIP3   OH262947   1.453   0.717  12.589 -0.5535 -0.1929 -0.1384
13819TIP3    H162948   1.366   0.753  12.571 -0.4656 -0.2057 -0.6001
13819TIP3    H262949   1.445   0.624  12.567 -1.1314 -0.7571  2.2205
13820TIP3   OH262950   4.753   3.380   4.034 -0.1075 -0.3076 -0.3831
13820TIP3    H162951   4.666   3.419   4.024 -1.2829 -1.5442  3.2166
13820TIP3    H262952   4.742   3.314   4.103  3.5698 -1.0330 -0.2621
13821TIP3   OH262953   5.875   2.331   4.115 -0.1229 -0.0004 -0.4738
13821TIP3    H162954   5.878   2.348   4.021  0.6402  0.8266 -0.3173
13821TIP3    H262955   5.932   2.255   4.128  1.0006  0.8004 -0.5211
13822TIP3   OH262956   4.994   3.953   1.827  0.0664 -0.2359 -0.2528
13822TIP3    H162957   5.053   3.937   1.754  1.8573  0.5217  0.9646
13822TIP3    H262958   5.035   4.023   1.877 -1.9753  0.4467  0.5730
13823TIP3   OH262959   3.459   3.668  14.028 -0.2823  0.3632  0.1649
13823TIP3    H162960   3.519   3.614  13.976  1.1991  0.5726  1.5802
13823TIP3    H262961   3.491   3.660  14.117 -1.7587  1.3422  0.8184
13824TIP3   OH262962   1.024   1.902   2.556 -0.1039 -0.6354 -0.2525
13824TIP3    H162963   0.959   1.841   2.519  1.6573 -1.2065 -2.6049
13824TIP3    H262964   1.101   1.893   2.500  2.0733  0.0270  2.4035
13825TIP3   OH262965   0.758   4.883   4.951 -0.1223 -0.0563 -0.5169
13825TIP3    H162966   0.743   4.834   4.870 -1.4919 -1.0328  0.2850
13825TIP3    H262967   0.697   4.957   4.946 -0.3170 -0.2018 -0.3201
13826TIP3   OH262968   3.940   0.008   4.745 -0.9259  0.8352  0.2307
13826TIP3    H162969   3.891   0.084   4.712 -1.3381  0.8644  0.8837
13826TIP3    H262970   3.910  -0.002   4.835 -3.5867 -2.2387 -0.8114
13827TIP3   OH262971   0.731   2.354  12.988  0.4305 -0.5849 -0.2598
13827TIP3    H162972   0.705   2.418  12.923 -1.7259 -0.5771  0.5312
13827TIP3    H262973   0.804   2.307  12.948  1.3301  1.5775 -1.3063
13828TIP3   OH262974   3.987   6.335   4.515  0.3188  0.1985  0.1162
13828TIP3    H162975   3.905   6.367   4.478 -0.4088 -1.1818  0.5057
13828TIP3    H262976   3.961   6.270   4.579  1.7063  0.1758  0.6870
13829TIP3   OH262977   3.457   3.408  15.576 -0.6590  0.7240  0.2270
13829TIP3    H162978   3.520   3.442  15.512 -1.0082  0.0084 -0.5065
13829TIP3    H262979   3.490   3.321  15.598 -0.1826  1.2039  1.5313
13830TIP3   OH262980   2.477   5.093  14.859 -0.1436  0.5587  0.2150
13830TIP3    H162981   2.403   5.106  14.799 -0.7061 -1.6195  0.3727
13830TIP3    H262982   2.520   5.013  14.828  1.7274  1.3485  0.5924
13831TIP3   OH262983   3.797   6.822  12.339 -0.0182  0.4808 -0.5113
13831TIP3    H162984   3.748   6.904  12.343 -0.7294  0.0094  1.3815
13831TIP3    H262985   3.886   6.846  12.364  0.2585  0.9746 -1.8771
13832TIP3   OH262986   0.003   3.974  17.055 -0.4490 -0.2842  0.1549
13832TIP3    H162987  -0.092   3.980  17.046 -0.4794 -0.7635  0.1007
13832TIP3    H262988   0.016   3.904  17.118 -0.1229 -0.5936 -0.2473
13833TIP3   OH262989   1.352   0.384  14.808 -0.4390  0.0626  0.3165
13833TIP3    H162990   1.357   0.364  14.902 -2.1244  1.3656  0.7266
13833TIP3    H262991   1.365   0.478  14.802  0.4103 -0.1050 -0.8653
13834TIP3   OH262992   1.081   1.481   4.623  0.0198  0.4600  0.1267
13834TIP3    H162993   1.137   1.427   4.679 -0.0083  2.0520  1.7898
13834TIP3    H262994   1.102   1.454   4.534  1.2327 -1.0670  0.8295
13835TIP3   OH262995   5.976   5.155   2.038  0.4197  0.0430  0.7311
13835TIP3    H162996   5.964   5.238   1.992 -0.8684  0.1131  1.1380
13835TIP3    H262997   6.034   5.104   1.982 -1.4846 -0.0817 -1.2888
13836TIP3   OH262998   2.701   0.970  16.384 -0.3661 -0.4314  0.2591
13836TIP3    H162999   2.699   0.903  16.315  0.4122 -0.2706  0.0719
13836TIP3    H263000   2.628   1.028  16.363  0.5001  0.2135 -1.0425
13837TIP3   OH263001   1.007   3.723  15.200 -0.2841  0.8597  0.3114
13837TIP3    H163002   0.968   3.786  15.140 -1.6214 -0.6476 -0.4635
13837TIP3    H263003   0.934   3.691  15.253  0.4011  0.0489  0.7890
13838TIP3   OH263004   5.947   3.604  11.870  0.2813  0.2926  0.2948
13838TIP3    H163005   6.022   3.638  11.821 -1.1991  2.0232 -0.8908
13838TIP3    H263006   5.967   3.624  11.962  1.3799  0.4695  0.0283
13839TIP3   OH263007   6.227   2.944  11.138 -0.4831 -0.1757 -0.0889
13839TIP3    H163008   6.271   2.894  11.070 -0.5585 -1.3869  0.7150
13839TIP3    H263009   6.151   2.983  11.095  0.4881  0.6444 -1.1158
13840TIP3   OH263010   6.022   2.401  12.404 -0.2689  0.7789  0.0162
13840TIP3    H163011   6.083   2.359  12.343  1.0201  1.5394  0.7299
13840TIP3    H263012   5.968   2.457  12.348 -0.9124 -0.5625 -0.7364
13841TIP3   OH263013   6.350   2.016  15.798 -0.1720 -0.0344  0.4032
13841TIP3    H163014   6.371   2.002  15.705 -2.5984 -0.4922 -0.1473
13841TIP3    H263015   6.427   2.062  15.833  2.5530 -3.1569 -0.8498
13842TIP3   OH263016   3.989   0.576  11.383 -0.4354 -0.0378  0.0683
13842TIP3    H163017   3.930   0.619  11.322  0.3978  0.4854 -0.3965
13842TIP3    H263018   4.069   0.629  11.380  1.3203 -2.5739 -1.8900
13843TIP3   OH263019   1.796   4.359   6.044 -0.4562 -0.4183 -0.2330
13843TIP3    H163020   1.745   4.306   6.105 -0.1830  0.5960  0.9122
13843TIP3    H263021   1.887   4.340   6.066 -0.3088 -1.5399 -1.6727
13844TIP3   OH263022   1.843   1.367   2.349  0.0285  0.1471 -0.1901
13844TIP3    H163023   1.785   1.411   2.286 -0.8526  2.5340  2.0997
13844TIP3    H263024   1.813   1.398   2.435  1.8229 -2.1448  1.3869
13845TIP3   OH263025   6.391   5.120  11.569 -0.5067  0.2525 -0.0494
13845TIP3    H163026   6.328   5.072  11.623 -0.8022  0.5567 -0.1238
13845TIP3    H263027   6.343   5.197  11.538  0.0839  0.8132  0.3934
13846TIP3   OH263028   5.594   5.904   3.556  0.0839 -0.4675  0.2754
13846TIP3    H163029   5.615   5.825   3.507  0.6607 -0.8302  1.0952
13846TIP3    H263030   5.677   5.934   3.591 -0.0935  0.6397 -0.2028
13847TIP3   OH263031   1.740   6.167  10.471  0.0244  0.0537 -0.3798
13847TIP3    H163032   1.645   6.165  10.482  0.0581 -1.4920 -0.1653
13847TIP3    H263033   1.773   6.188  10.559 -0.0894 -1.1234 -0.0307
13848TIP3   OH263034   6.394   4.264  13.625 -0.2298 -0.2028 -0.6022
13848TIP3    H163035   6.371   4.287  13.716  1.3015 -0.6956 -0.0699
13848TIP3    H263036   6.458   4.330  13.599 -0.1978 -0.4321 -1.1147
13849TIP3   OH263037   6.200   4.800   1.919  0.4149 -0.3049  0.0490
13849TIP3    H163038   6.137   4.753   1.975  0.1170 -0.8339 -0.7197
13849TIP3    H263039   6.167   4.789   1.830  0.8631  0.5739 -0.2378
13850TIP3   OH263040   0.244   4.896  12.898 -0.1074  0.5880  0.2234
13850TIP3    H163041   0.219   4.882  12.989 -0.2206  1.8530  0.4060
13850TIP3    H263042   0.193   4.832  12.849  0.6110 -0.7054  1.1097
13851TIP3   OH263043   5.600   5.874  16.659  0.5148 -0.1847  0.5516
13851TIP3    H163044   5.621   5.781  16.664 -1.0932 -0.7319 -1.3818
13851TIP3    H263045   5.506   5.879  16.673  0.4991  1.0764  0.1636
13852TIP3   OH263046   6.653   3.684   1.922  0.3050 -0.5248 -0.0596
13852TIP3    H163047   6.703   3.702   2.001 -0.6050  0.2254  0.3688
13852TIP3    H263048   6.633   3.591   1.928 -0.5812 -0.2936  1.1220
13853TIP3   OH263049   4.918   2.987   0.944 -0.4046 -0.0980  0.0515
13853TIP3    H163050   4.837   2.975   0.894 -0.0180  0.0714 -0.6335
13853TIP3    H263051   4.971   3.044   0.889  1.4821 -2.7121 -1.0815
13854TIP3   OH263052   6.602   3.279   0.190  0.0260  0.4443  0.3196
13854TIP3    H163053   6.573   3.200   0.145  0.5401 -1.1810  2.6733
13854TIP3    H263054   6.676   3.311   0.138 -1.0452  0.2155 -1.4239
13855TIP3   OH263055   1.245   1.951   5.008 -0.0362  0.0027 -0.0838
13855TIP3    H163056   1.222   1.895   4.933 -1.1023  0.5199 -0.1646
13855TIP3    H263057   1.193   1.917   5.080 -0.1249  0.4250  0.0514
13856TIP3   OH263058   3.436   0.577  16.067  1.0436 -0.1440 -0.0417
13856TIP3    H163059   3.514   0.592  16.120 -0.1286  1.0703  1.4178
13856TIP3    H263060   3.387   0.510  16.115 -0.5043  1.6594  1.0523
13857TIP3   OH263061   5.495   4.556   5.361 -0.3048 -0.8536 -0.1455
13857TIP3    H163062   5.441   4.586   5.288  0.1278  0.0643 -0.1049
13857TIP3    H263063   5.531   4.636   5.398  0.4226 -1.3937  0.3407
13858TIP3   OH263064   3.428   4.595   0.024 -0.1291  0.2338  0.1585
13858TIP3    H163065   3.511   4.583  -0.023 -0.6050 -1.2996 -0.3801
13858TIP3    H263066   3.389   4.507   0.026 -2.1428  1.0403 -0.3818
13859TIP3   OH263067   1.504   1.820  16.808 -0.4348 -0.1967  0.2053
13859TIP3    H163068   1.474   1.765  16.736  1.0179 -0.1757 -0.4411
13859TIP3    H263069   1.466   1.780  16.886 -0.9738 -0.9777 -0.4431
13860TIP3   OH263070   2.099   5.583   2.915  0.1850  0.3061  0.4278
13860TIP3    H163071   2.068   5.581   2.824 -2.2740  1.3190  1.1457
13860TIP3    H263072   2.150   5.503   2.925  2.6000  1.2912 -2.4634
13861TIP3   OH263073   0.401   4.387   4.615  0.6765  0.7976  0.2365
13861TIP3    H163074   0.368   4.318   4.558 -0.3841 -1.2717  3.1176
13861TIP3    H263075   0.481   4.352   4.652  0.5139  1.3944  1.2018
13862TIP3   OH263076   0.504   1.034   1.007  0.1698  0.5666 -0.2141
13862TIP3    H163077   0.413   1.063   1.017 -0.2707 -0.6620 -0.5507
13862TIP3    H263078   0.503   0.943   1.035  1.4269  0.6960  0.3032
13863TIP3   OH263079   4.737   4.892  14.770  0.7482  0.2432 -0.5087
13863TIP3    H163080   4.798   4.945  14.820 -0.8998  1.5455  0.2177
13863TIP3    H263081   4.772   4.803  14.776  1.6895  0.6900  1.2427
13864TIP3   OH263082   0.750   1.846  10.880 -0.0332 -0.5603  0.1182
13864TIP3    H163083   0.678   1.784  10.870 -0.7921  0.0596  1.5247
13864TIP3    H263084   0.829   1.792  10.883 -0.7488 -1.5925  2.3039
13865TIP3   OH263085   0.357   3.802   0.379 -0.3455  0.0206  0.0046
13865TIP3    H163086   0.348   3.773   0.470  1.0719  1.0395  0.5199
13865TIP3    H263087   0.385   3.724   0.331  1.2044 -0.0301  0.9228
13866TIP3   OH263088   0.096   0.001   1.534 -0.4660 -0.0006  0.7554
13866TIP3    H163089   0.107  -0.056   1.458  1.0400  0.6774  0.4312
13866TIP3    H263090   0.150  -0.039   1.602  0.8408  1.1518  0.4368
13867TIP3   OH263091   5.902   0.198   3.882 -0.2100 -0.9752  0.1668
13867TIP3    H163092   5.938   0.129   3.826  1.1867 -0.6913  0.6902
13867TIP3    H263093   5.809   0.174   3.892 -0.3145 -1.4644 -1.5899
13868TIP3   OH263094   5.582   1.382   5.881 -0.0939  0.0552  0.2937
13868TIP3    H163095   5.640   1.394   5.956  0.3828  3.2612 -0.4493
13868TIP3    H263096   5.494   1.395   5.917 -0.0246 -0.2986  0.6007
13869TIP3   OH263097   0.701   1.755   5.976  0.7613  0.5680  0.3466
13869TIP3    H163098   0.663   1.679   5.931  1.3227  1.4189 -1.6985
13869TIP3    H263099   0.626   1.797   6.018 -0.2441  0.9141 -1.6463
13870TIP3   OH263100   4.405   2.217  16.950 -0.1382 -0.0442  0.0020
13870TIP3    H163101   4.470   2.274  16.990 -0.2223 -0.1046  0.2222
13870TIP3    H263102   4.423   2.223  16.856 -0.8233  1.1924 -0.0777
13871TIP3   OH263103   0.155   3.125  15.509  0.0259 -0.0089 -0.6808
13871TIP3    H163104   0.128   3.217  15.503 -0.2589 -0.1476 -1.6590
13871TIP3    H263105   0.108   3.092  15.585 -0.2646  0.5201 -0.6228
13872TIP3   OH263106   6.356   4.654  13.669  0.2192 -0.3768 -0.1944
13872TIP3    H163107   6.359   4.749  13.673 -0.2748 -0.1788 -2.8090
13872TIP3    H263108   6.434   4.625  13.716  0.0666  1.2762  1.1394
13873TIP3   OH263109   4.633   4.811  11.253 -0.2531 -0.1987 -0.1302
13873TIP3    H163110   4.554   4.838  11.205  0.1166 -0.0114 -0.6494
13873TIP3    H263111   4.684   4.762  11.189  1.5085  2.3033 -0.8169
13874TIP3   OH263112   5.290   5.412  14.454 -0.3075  0.1139 -0.0545
13874TIP3    H163113   5.301   5.507  14.452 -2.4708  0.4654  1.3232
13874TIP3    H263114   5.328   5.385  14.538  2.8624 -0.7317 -1.6053
13875TIP3   OH263115   2.754   1.065  14.932  0.1490 -0.9141 -0.3322
13875TIP3    H163116   2.671   1.025  14.906 -0.0831 -0.7012  0.0683
13875TIP3    H263117   2.733   1.157  14.948  0.3351 -0.9765  0.3356
13876TIP3   OH263118   3.833   4.423   5.138 -0.1849 -0.0992  0.2111
13876TIP3    H163119   3.882   4.500   5.109  2.0286 -1.8495 -0.9966
13876TIP3    H263120   3.798   4.386   5.058  1.1759 -1.8592  0.3727
13877TIP3   OH263121   4.546   3.709  14.275  0.2521 -0.2625  0.1308
13877TIP3    H163122   4.576   3.618  14.270  0.1897 -0.2903  0.2396
13877TIP3    H263123   4.585   3.752  14.199  0.9587 -0.1790  0.5324
13878TIP3   OH263124   6.482   4.813  14.623 -0.1776  0.2065  0.5357
13878TIP3    H163125   6.448   4.739  14.674 -1.6715  1.0547  0.8426
13878TIP3    H263126   6.525   4.773  14.548 -0.3082 -0.9930  1.0739
13879TIP3   OH263127   5.131   5.111  14.151 -0.1281 -0.6745 -0.1963
13879TIP3    H163128   5.041   5.080  14.139 -0.7152  1.5530 -2.5152
13879TIP3    H263129   5.121   5.195  14.196  0.7623 -0.2915 -0.6944
13880TIP3   OH263130   0.840   4.053   4.451 -0.0573  0.3467  0.3889
13880TIP3    H163131   0.778   4.027   4.519 -1.1036 -0.2056 -0.7202
13880TIP3    H263132   0.926   4.031   4.486 -0.5721  0.0308  1.4985
13881TIP3   OH263133   0.921   5.211   5.050 -0.7121 -0.0749  0.1592
13881TIP3    H163134   0.825   5.216   5.041 -0.5878  0.8124 -0.8716
13881TIP3    H263135   0.935   5.199   5.144 -1.8592 -1.5126  0.1885
13882TIP3   OH263136   4.558   1.471   6.354  0.2625 -0.2120 -0.4005
13882TIP3    H163137   4.550   1.376   6.361 -0.7519 -0.0222  1.9134
13882TIP3    H263138   4.476   1.499   6.313  0.0011 -0.2509  0.0864
13883TIP3   OH263139   5.746   3.745   3.491 -0.5143 -0.1375 -0.1892
13883TIP3    H163140   5.654   3.760   3.510 -0.2422  0.9579  0.4011
13883TIP3    H263141   5.779   3.830   3.462  0.7569  0.0481  1.5904
13884TIP3   OH263142   6.382   1.539  16.945 -0.0144 -0.3836  0.5695
13884TIP3    H163143   6.351   1.517  17.033 -0.7402  0.2933  0.4919
13884TIP3    H263144   6.422   1.625  16.954  0.8367 -0.7571  0.4361
13885TIP3   OH263145   4.673   3.094   1.583 -0.1747  0.1891  0.4513
13885TIP3    H163146   4.663   3.082   1.488 -1.0409 -0.1822  0.5795
13885TIP3    H263147   4.665   3.188   1.596 -0.9429  0.1563  0.2474
13886TIP3   OH263148   2.070   3.063   1.153 -0.3219 -0.4570  0.6591
13886TIP3    H163149   2.118   2.989   1.115 -1.5381 -1.2410  0.5776
13886TIP3    H263150   2.047   3.118   1.078 -0.4099 -0.5951  0.5854
13887TIP3   OH263151   4.678   2.080   1.366 -0.1793 -0.1666  0.1088
13887TIP3    H163152   4.611   2.110   1.304 -0.0589  0.9023  0.4825
13887TIP3    H263153   4.737   2.027   1.313 -0.7357 -0.2502 -0.4414
13888TIP3   OH263154   6.621   3.607   0.623  0.0101 -0.0148 -0.1179
13888TIP3    H163155   6.712   3.579   0.625  0.1500  0.1326 -2.3039
13888TIP3    H263156   6.605   3.644   0.710  2.2524  0.6583  0.0621
13889TIP3   OH263157   3.056   0.161  12.326  0.1796  0.2163 -0.0355
13889TIP3    H163158   3.117   0.191  12.393  1.8581  0.0667 -1.4333
13889TIP3    H263159   3.000   0.097  12.371  0.2473  1.2338  1.5670
13890TIP3   OH263160   2.725   1.711   2.516  0.0838  0.7811  0.1654
13890TIP3    H163161   2.790   1.641   2.525 -0.6312 -0.0982 -1.1979
13890TIP3    H263162   2.676   1.709   2.598 -0.0943 -0.5144  0.0512
13891TIP3   OH263163   4.967   0.690  11.817 -0.5421 -0.3913  0.2089
13891TIP3    H163164   4.947   0.743  11.894  1.2617  0.6913 -0.0228
13891TIP3    H263165   5.017   0.616  11.852 -0.3293 -0.2749  0.1469
13892TIP3   OH263166   4.123   6.194  14.182  0.0888  0.5004 -0.0577
13892TIP3    H163167   4.081   6.264  14.133 -1.0010 -0.4265 -0.4766
13892TIP3    H263168   4.216   6.201  14.158 -0.3298  0.4145 -1.8525
13893TIP3   OH263169   4.552   1.337   3.653 -0.8513  0.2175 -0.3039
13893TIP3    H163170   4.584   1.406   3.712  0.5768 -0.7551  0.1290
13893TIP3    H263171   4.547   1.379   3.567  0.1532  0.8368 -0.0806
13894TIP3   OH263172   6.622   1.471   0.984 -0.3271  0.3715  0.7553
13894TIP3    H163173   6.597   1.563   0.970 -0.6724  0.1592 -0.0847
13894TIP3    H263174   6.709   1.464   0.945 -0.7582  0.0885 -0.1895
13895TIP3   OH263175   3.557   5.879   4.464  0.3463  0.2722 -0.6160
13895TIP3    H163176   3.505   5.889   4.385 -2.0670  4.2992  1.1850
13895TIP3    H263177   3.497   5.844   4.529  0.9603  1.2772  0.5390
13896TIP3   OH263178   1.156   1.569   4.010 -0.1321 -0.9472  0.4718
13896TIP3    H163179   1.180   1.647   4.060  0.2573  0.1350 -1.2828
13896TIP3    H263180   1.112   1.512   4.073 -3.4615  2.0400  1.1886
13897TIP3   OH263181   6.769   4.255   3.818  0.3300  0.1611  0.1419
13897TIP3    H163182   6.864   4.259   3.809  0.3206 -0.9752 -0.6790
13897TIP3    H263183   6.737   4.241   3.729 -0.6651  1.2864  0.3067
13898TIP3   OH263184   5.263   3.462   4.002  0.1613  0.3209  0.3828
13898TIP3    H163185   5.265   3.544   3.952  0.2822 -0.0516 -0.2385
13898TIP3    H263186   5.221   3.485   4.084  0.2123  1.0136  0.2212
13899TIP3   OH263187   4.611   5.459  17.123 -0.3428  0.3431  0.4112
13899TIP3    H163188   4.657   5.376  17.107 -3.4912 -1.2335 -1.5673
13899TIP3    H263189   4.674   5.527  17.100  1.6843 -1.5540  0.0462
13900TIP3   OH263190   1.133   4.327   4.969 -0.1765  0.3594 -0.4526
13900TIP3    H163191   1.208   4.346   4.913 -0.0860 -0.6721 -0.7004
13900TIP3    H263192   1.170   4.278   5.042 -0.3660  1.3036  0.2942
13901TIP3   OH263193   0.774   5.854  13.434 -0.0461 -0.4438 -0.1369
13901TIP3    H163194   0.756   5.884  13.345 -0.4629 -1.7843 -0.5371
13901TIP3    H263195   0.714   5.781  13.447  1.1177 -1.3015  0.6600
13902TIP3   OH263196   6.394   2.292  15.577 -0.1081  0.1222  0.0739
13902TIP3    H163197   6.445   2.211  15.590 -1.7563 -0.9003  0.4627
13902TIP3    H263198   6.423   2.350  15.648  3.0293  0.9790 -1.7283
13903TIP3   OH263199   3.691   0.069  16.951 -0.4629 -0.2856 -0.2381
13903TIP3    H163200   3.627   0.117  16.898 -2.7985 -1.0140  1.7044
13903TIP3    H263201   3.716   0.131  17.020  0.2099 -0.3269 -0.4388
13904TIP3   OH263202   5.614   0.429   0.401  0.3622 -0.0477  0.3197
13904TIP3    H163203   5.609   0.487   0.325  2.3441 -0.7762 -0.4267
13904TIP3    H263204   5.536   0.450   0.452  0.2895  2.2630 -0.6238
13905TIP3   OH263205   4.692   3.370  13.539  0.7114  0.2300  0.5916
13905TIP3    H163206   4.677   3.463  13.524 -0.4868  0.3618  2.3429
13905TIP3    H263207   4.652   3.326  13.464 -1.4461  1.0098  1.2177
13906TIP3   OH263208   1.625   1.628   5.879 -0.2857  0.2454 -0.4414
13906TIP3    H163209   1.700   1.608   5.936  0.0537 -0.4636 -1.1075
13906TIP3    H263210   1.608   1.721   5.893  0.1107  0.1935  0.4378
13907TIP3   OH263211   0.534   5.674  13.455 -0.1715 -0.4947 -0.1063
13907TIP3    H163212   0.449   5.636  13.477 -0.4431  0.0530 -0.1870
13907TIP3    H263213   0.513   5.752  13.403  0.3084  0.4993  1.1331
13908TIP3   OH263214   1.046   2.844   2.166  0.0384  0.6475  0.4353
13908TIP3    H163215   0.967   2.803   2.133 -0.4434 -0.1875  2.4480
13908TIP3    H263216   1.116   2.780   2.152 -0.1159  0.4036  0.7592
13909TIP3   OH263217   3.060   4.350   0.112  0.2093  0.6363 -0.0729
13909TIP3    H163218   3.091   4.378   0.198  0.5833  0.9699 -0.3090
13909TIP3    H263219   3.004   4.275   0.129  0.4496  0.5718  0.4429
13910TIP3   OH263220   5.108   6.188   0.591  0.5893  0.0382  0.2728
13910TIP3    H163221   5.104   6.267   0.537  1.2046 -0.7513 -1.0080
13910TIP3    H263222   5.030   6.139   0.567  1.1948 -0.6189 -0.4476
13911TIP3   OH263223   1.583   3.329   6.180 -0.3675  0.1640  0.0416
13911TIP3    H163224   1.584   3.269   6.255 -0.9376 -0.8322 -0.7360
13911TIP3    H263225   1.511   3.299   6.125  0.1823  0.7355 -1.0348
13912TIP3   OH263226   4.304   5.944  12.964 -0.1493  0.0568  0.0065
13912TIP3    H163227   4.257   5.975  13.042  3.0954  4.2245  0.6435
13912TIP3    H263228   4.378   5.895  13.000  2.2419  3.2935 -0.0869
13913TIP3   OH263229   6.785   2.265   5.452  0.1434  0.3457 -0.0642
13913TIP3    H163230   6.696   2.270   5.486  0.8339 -1.6190  2.3659
13913TIP3    H263231   6.840   2.301   5.522  1.3788 -0.1633 -0.7244
13914TIP3   OH263232   2.531   1.061  15.183  0.3419  0.1427  0.4108
13914TIP3    H163233   2.557   1.151  15.164 -2.7580  1.1830  0.5915
13914TIP3    H263234   2.503   1.063  15.275  1.5421 -1.3748  0.8400
13915TIP3   OH263235   4.271   2.993  12.203  0.7489  0.1714 -0.1849
13915TIP3    H163236   4.247   2.902  12.220  0.0843  0.2791 -0.5140
13915TIP3    H263237   4.311   2.991  12.116 -0.4611  0.3775 -0.7705
13916TIP3   OH263238   5.625   2.520   0.925  0.2203  0.7214 -0.2852
13916TIP3    H163239   5.532   2.498   0.924  0.3142  0.3086 -0.1866
13916TIP3    H263240   5.633   2.586   0.995  0.0658  0.4718 -0.0307
13917TIP3   OH263241   0.040   5.540   5.796  0.3547  0.2158 -0.3983
13917TIP3    H163242   0.074   5.490   5.870 -2.2853 -0.5922  0.3755
13917TIP3    H263243   0.027   5.629   5.831 -0.0002  0.0685 -0.1444
13918TIP3   OH263244   0.702   1.498  12.864  0.3510 -0.2987 -0.3204
13918TIP3    H163245   0.794   1.475  12.877  0.8827  1.7330 -0.1362
13918TIP3    H263246   0.658   1.463  12.942  1.1043 -0.5702 -0.0009
13919TIP3   OH263247   1.877   1.787   5.556 -0.4715  0.1324  0.1108
13919TIP3    H163248   1.812   1.841   5.600  0.4757  2.4737 -1.1344
13919TIP3    H263249   1.835   1.762   5.473 -1.0094 -1.3277  0.8059
13920TIP3   OH263250   4.014   1.117   4.779 -0.3703  0.2659 -0.1345
13920TIP3    H163251   4.081   1.168   4.825 -0.3005  0.6695 -0.6739
13920TIP3    H263252   4.018   1.031   4.819  0.9822  0.0721 -0.6521
13921TIP3   OH263253   2.372   3.295  14.816  0.0045 -0.5034  0.5758
13921TIP3    H163254   2.382   3.307  14.910  1.1032 -1.1818  0.5659
13921TIP3    H263255   2.292   3.344  14.794  0.7460  1.2302  1.5308
13922TIP3   OH263256   2.065   3.301  17.051  0.8224 -0.3032  0.0196
13922TIP3    H163257   2.001   3.242  17.090  1.3683 -0.8289  0.1270
13922TIP3    H263258   2.091   3.358  17.123 -3.2447  3.4063 -1.0075
13923TIP3   OH263259   4.293   0.880   2.983 -0.5998  0.4088  0.1110
13923TIP3    H163260   4.317   0.856   2.893 -2.0658  1.9572 -0.7624
13923TIP3    H263261   4.288   0.797   3.030 -0.1422 -0.4698 -1.3280
13924TIP3   OH263262   1.869   0.961  10.936  0.4821  0.2976 -0.3248
13924TIP3    H163263   1.937   1.023  10.910  0.8197 -0.6934 -1.9224
13924TIP3    H263264   1.802   0.970  10.869  1.1901 -2.0603 -1.4485
13925TIP3   OH263265   0.276   4.162   4.449  0.2143 -0.1746 -0.2638
13925TIP3    H163266   0.219   4.141   4.375  1.9570  0.3234 -1.8220
13925TIP3    H263267   0.228   4.131   4.526 -2.9983  1.9047 -1.2482
13926TIP3   OH263268   0.280   0.309   1.103  0.0464  0.5523  0.3189
13926TIP3    H163269   0.319   0.366   1.037  0.5703 -1.7671 -1.4893
13926TIP3    H263270   0.196   0.282   1.066 -0.2022  0.1543  1.1405
13927TIP3   OH263271   6.613   2.024  12.087 -0.0561 -0.2690  0.6940
13927TIP3    H163272   6.552   2.096  12.099 -0.7885 -0.8466  0.4590
13927TIP3    H263273   6.699   2.063  12.106 -0.5931  0.2594  2.2307
13928TIP3   OH263274   5.556   3.219   1.547 -0.4997  0.3642 -0.1270
13928TIP3    H163275   5.552   3.141   1.603 -0.8427  0.1519 -0.4474
13928TIP3    H263276   5.528   3.291   1.605 -1.1211  0.1034 -0.0980
13929TIP3   OH263277   5.048   0.546   4.232  0.4432  0.5727 -0.8500
13929TIP3    H163278   5.115   0.596   4.279  0.0698  0.5669 -0.2908
13929TIP3    H263279   4.997   0.612   4.184 -1.6195  1.1299  1.8276
13930TIP3   OH263280   1.956   4.223   0.575 -0.5411  0.2828  1.1432
13930TIP3    H163281   1.880   4.276   0.599  0.7899  2.2520  1.2788
13930TIP3    H263282   1.953   4.218   0.480 -0.0437  1.7135  1.0221
13931TIP3   OH263283   2.424   4.788  12.083  0.0264 -0.8115 -0.1869
13931TIP3    H163284   2.390   4.877  12.079  0.1857 -0.7837 -1.0829
13931TIP3    H263285   2.365   4.737  12.029  0.1980 -1.1647 -0.0433
13932TIP3   OH263286   3.973   5.076  13.403 -0.5632 -0.2830 -0.0276
13932TIP3    H163287   4.008   5.017  13.469 -0.2076 -0.6907 -0.5735
13932TIP3    H263288   3.881   5.050  13.394 -1.1570  1.0023  1.6433
13933TIP3   OH263289   0.368   1.683   4.958  0.2106  0.1242  0.1332
13933TIP3    H163290   0.340   1.761   5.005  0.6125  0.7173 -0.6002
13933TIP3    H263291   0.453   1.706   4.921 -0.0794 -0.3429 -0.8482
13934TIP3   OH263292   3.314   4.827   3.898 -0.2988  0.1797 -0.8647
13934TIP3    H163293   3.314   4.744   3.945  0.1235  0.4669 -0.3559
13934TIP3    H263294   3.252   4.882   3.946  2.7451  1.7256  1.6399
13935TIP3   OH263295   5.503   1.190  15.530 -0.2539 -0.2293 -0.2730
13935TIP3    H163296   5.513   1.283  15.514 -1.4181  0.0445  0.4485
13935TIP3    H263297   5.512   1.181  15.625  0.3849 -0.9313 -0.3906
13936TIP3   OH263298   5.660   0.891  11.689 -0.4487 -0.0401 -0.4798
13936TIP3    H163299   5.738   0.935  11.654 -0.7043  0.6318 -0.2180
13936TIP3    H263300   5.609   0.869  11.612 -1.1578  1.7112 -0.5537
13937TIP3   OH263301   2.431   2.588   0.540  0.7706  0.3577 -0.3244
13937TIP3    H163302   2.453   2.495   0.536 -0.5132  0.0481 -0.5916
13937TIP3    H263303   2.446   2.613   0.631  0.0689 -0.3848 -0.0018
13938TIP3   OH263304   5.169   3.920   2.851  0.0095  0.0839 -0.0245
13938TIP3    H163305   5.143   3.921   2.944  0.0080 -0.7183 -0.0093
13938TIP3    H263306   5.120   3.847   2.813 -0.2462  0.6176 -0.7392
13939TIP3   OH263307   0.978   0.121  15.544  0.0740  0.3457  0.5044
13939TIP3    H163308   0.998   0.213  15.561  0.4609  0.4202 -0.3231
13939TIP3    H263309   0.947   0.088  15.628  0.1723  1.1652  0.8755
13940TIP3   OH263310   5.051   4.525  12.384  0.5524  0.1900  0.6785
13940TIP3    H163311   5.089   4.488  12.464 -0.6354  0.8888  1.5746
13940TIP3    H263312   5.052   4.451  12.322 -0.8053 -1.0969  2.1091
13941TIP3   OH263313   3.731   4.301  12.362  0.0669  0.5599  0.1688
13941TIP3    H163314   3.826   4.313  12.355  0.2506 -1.0767 -0.5128
13941TIP3    H263315   3.704   4.365  12.428  1.7227  0.6341  0.8300
13942TIP3   OH263316   2.161   0.689  15.689 -0.4549 -0.5034 -0.3082
13942TIP3    H163317   2.199   0.762  15.641  2.2364 -2.0836 -0.7447
13942TIP3    H263318   2.115   0.730  15.763 -1.2769  1.7185 -1.9427
13943TIP3   OH263319   0.386   2.936  17.126 -0.0811  0.0438  0.0829
13943TIP3    H163320   0.432   2.854  17.146  0.5282  0.6215  1.0834
13943TIP3    H263321   0.313   2.908  17.069  1.8720 -0.8159 -2.1811
13944TIP3   OH263322   6.608   2.358  14.174  0.0973 -0.3102 -0.2215
13944TIP3    H163323   6.514   2.338  14.177  0.2495 -1.0187  0.3109
13944TIP3    H263324   6.650   2.273  14.160  0.5919  0.2341 -2.2756
13945TIP3   OH263325   1.985   0.110  16.677 -0.0816  0.3095 -0.7928
13945TIP3    H163326   2.012   0.107  16.585  0.7400  3.0407 -0.7243
13945TIP3    H263327   2.049   0.055  16.722 -0.5210 -1.0997 -1.8195
13946TIP3   OH263328   0.123   3.700  12.594  0.7417  0.1469 -0.0360
13946TIP3    H163329   0.078   3.729  12.514  0.6739 -1.8805 -0.7832
13946TIP3    H263330   0.097   3.765  12.660 -1.5681  0.2575 -0.9555
13947TIP3   OH263331   5.002   5.780  14.678 -0.2042 -0.0024 -0.2737
13947TIP3    H163332   5.065   5.812  14.613  0.1914 -1.2694 -0.5334
13947TIP3    H263333   4.952   5.713  14.632 -0.5453 -0.2654  0.4700
13948TIP3   OH263334   1.227   2.163  12.121  0.1682  0.0768  0.4942
13948TIP3    H163335   1.274   2.201  12.195  2.0823 -1.5802  0.1929
13948TIP3    H263336   1.292   2.153  12.053 -1.5043  1.3312 -1.4102
13949TIP3   OH263337   1.348   3.554  14.300  0.3539  0.2470  0.2027
13949TIP3    H163338   1.319   3.639  14.333  1.5543  2.0242 -2.8295
13949TIP3    H263339   1.438   3.546  14.330  0.6442  0.6684 -0.5411
13950TIP3   OH263340   0.426   1.832  16.043 -0.2613  0.0754 -0.3293
13950TIP3    H163341   0.521   1.841  16.038 -0.3179  0.1275 -2.1169
13950TIP3    H263342   0.412   1.744  16.076  0.3822  0.4750  1.0714
13951TIP3   OH263343   4.357   0.183   0.918 -0.9333 -0.4763  0.2074
13951TIP3    H163344   4.262   0.183   0.922 -0.9618 -2.5293  1.1108
13951TIP3    H263345   4.382   0.094   0.945  1.3008  0.5975  2.0329
13952TIP3   OH263346   6.596   5.503  16.585  0.1674  0.6789 -0.2419
13952TIP3    H163347   6.679   5.459  16.568  0.5428  1.8797 -1.8307
13952TIP3    H263348   6.533   5.460  16.526  0.3494  1.6588 -1.1845
13953TIP3   OH263349   4.546   5.833  14.157 -0.1950  0.2967  0.0757
13953TIP3    H163350   4.490   5.905  14.185 -2.1584 -0.7305 -1.0212
13953TIP3    H263351   4.567   5.786  14.237 -2.4862 -0.3563  0.3609
13954TIP3   OH263352   3.260   1.287  15.708  0.1073 -0.3130 -0.2197
13954TIP3    H163353   3.207   1.210  15.728 -1.2597  0.5699 -0.3359
13954TIP3    H263354   3.245   1.303  15.615  2.4272 -1.3837 -0.8763
13955TIP3   OH263355   3.102   1.934   5.905 -0.4859  0.0601  0.2732
13955TIP3    H163356   3.138   1.992   5.838 -1.2467  1.8609  1.3418
13955TIP3    H263357   3.075   1.855   5.857  3.9691 -1.1269 -0.7325
13956TIP3   OH263358   6.800   3.153   2.116 -0.0848 -0.2564 -0.7530
13956TIP3    H163359   6.889   3.123   2.095  0.6294  1.8085 -0.8933
13956TIP3    H263360   6.796   3.242   2.081 -1.7608  0.1936  0.4640
13957TIP3   OH263361   6.466   4.301  12.574  0.1999 -0.2522 -0.2797
13957TIP3    H163362   6.512   4.315  12.657  0.3900  0.5239 -0.5145
13957TIP3    H263363   6.533   4.268  12.515  0.5547  1.1989 -0.7175
13958TIP3   OH263364   5.672   4.083   3.044 -0.1863  0.2403  0.0028
13958TIP3    H163365   5.715   4.127   2.971  0.4557  2.2021  1.4716
13958TIP3    H263366   5.579   4.094   3.027 -0.0553  0.1904 -0.7851
13959TIP3   OH263367   5.267   4.179  11.010  0.8603  0.1164  0.2247
13959TIP3    H163368   5.285   4.248  11.074 -0.7099  0.6225  0.1675
13959TIP3    H263369   5.185   4.139  11.040  0.6955 -0.3876 -0.8362
13960TIP3   OH263370   5.725   2.843  16.132  0.2346 -0.4134 -0.3509
13960TIP3    H163371   5.717   2.938  16.125  2.4983  0.1637  2.7361
13960TIP3    H263372   5.814   2.825  16.102  0.2576 -1.3549  0.2385
13961TIP3   OH263373   2.507   4.588  10.790 -0.3589 -0.3807 -0.7140
13961TIP3    H163374   2.441   4.530  10.828 -1.8572 -1.2213 -4.1823
13961TIP3    H263375   2.459   4.667  10.766  0.2352 -0.3501 -1.8469
13962TIP3   OH263376   2.869   1.168  16.408  0.2542  0.4840  0.3250
13962TIP3    H163377   2.843   1.079  16.385 -1.2086  0.2856  2.5093
13962TIP3    H263378   2.953   1.157  16.454 -0.3737  0.0998  1.4135
13963TIP3   OH263379   1.192   4.214  15.943  0.2296 -0.4484  0.0392
13963TIP3    H163380   1.108   4.168  15.938  1.1138 -2.0399 -1.2184
13963TIP3    H263381   1.234   4.195  15.858  1.9917  0.0132  0.7729
13964TIP3   OH263382   4.808   6.316   5.273 -0.2315 -0.6199  0.4164
13964TIP3    H163383   4.852   6.233   5.288  1.2328 -0.2257 -1.3440
13964TIP3    H263384   4.854   6.378   5.329 -0.4120 -0.7363  0.6939
13965TIP3   OH263385   4.154   6.052   6.516 -0.0193 -0.2179 -0.0150
13965TIP3    H163386   4.223   6.043   6.449 -1.3817 -0.2757 -1.4562
13965TIP3    H263387   4.167   5.977   6.573  1.8203  0.3893  0.4372
13966TIP3   OH263388   4.016   2.127   2.324 -0.2907  0.2024 -0.1990
13966TIP3    H163389   4.107   2.153   2.309  0.4094 -0.4428  2.4714
13966TIP3    H263390   4.022   2.035   2.351 -1.8100 -0.0260 -0.5634
13967TIP3   OH263391   6.541   3.298  12.950  0.0667  0.1576  0.1852
13967TIP3    H163392   6.459   3.318  12.906  1.1833  2.7406 -0.9220
13967TIP3    H263393   6.535   3.343  13.034  0.4934  0.6916 -0.0656
13968TIP3   OH263394   2.517   4.288  12.810 -0.2980 -0.2618 -0.3350
13968TIP3    H163395   2.464   4.328  12.742 -0.5515 -1.6048 -0.9547
13968TIP3    H263396   2.595   4.256  12.765 -0.3307 -0.9012  0.0506
13969TIP3   OH263397   4.708   4.865   5.894 -0.0332  0.2616  0.3526
13969TIP3    H163398   4.700   4.897   5.805  1.3521  1.3117  0.5644
13969TIP3    H263399   4.646   4.917   5.945 -0.0720  0.3870  0.1764
13970TIP3   OH263400   1.207   5.873  16.249  0.2847  0.1135 -0.2690
13970TIP3    H163401   1.155   5.930  16.306 -0.6236  1.9078 -2.7510
13970TIP3    H263402   1.152   5.795  16.237 -0.5891  0.7600 -0.5720
13971TIP3   OH263403   3.560   6.620   6.111 -0.3053  0.5548  0.7158
13971TIP3    H163404   3.599   6.694   6.157  0.0896  1.6659 -1.2580
13971TIP3    H263405   3.635   6.564   6.088 -0.6014 -0.5292  2.2036
13972TIP3   OH263406   4.742   2.558  11.316 -0.2240 -0.1940 -0.7789
13972TIP3    H163407   4.672   2.497  11.292 -2.2740  1.1473  1.3139
13972TIP3    H263408   4.699   2.644  11.318  1.9773  0.9800 -1.2774
13973TIP3   OH263409   4.929   3.647  11.533  0.4465  0.1359 -0.2435
13973TIP3    H163410   4.994   3.677  11.470  1.9965 -1.0357  0.7260
13973TIP3    H263411   4.959   3.560  11.559 -0.9041  0.0169  1.0691
13974TIP3   OH263412   5.713   2.789  15.119 -0.0993 -0.2921  0.6866
13974TIP3    H163413   5.800   2.756  15.099  0.5551  2.2837 -1.2619
13974TIP3    H263414   5.666   2.714  15.155  2.5758 -2.0230  0.7965
13975TIP3   OH263415   6.264   5.681  15.710 -0.0001 -0.6655  0.0105
13975TIP3    H163416   6.287   5.589  15.726  2.6460  0.0445  0.8805
13975TIP3    H263417   6.219   5.708  15.791 -2.1085 -1.4843 -0.8072
13976TIP3   OH263418   2.035   5.534   5.896  0.0953 -0.5428  0.3238
13976TIP3    H163419   1.966   5.472   5.920 -0.1805 -0.5255 -0.4237
13976TIP3    H263420   2.016   5.612   5.948  0.6272 -1.1821  1.5122
13977TIP3   OH263421   3.539   1.726  12.525  0.3871 -0.4999  0.6947
13977TIP3    H163422   3.620   1.685  12.554  0.9513  0.9661  1.2511
13977TIP3    H263423   3.484   1.730  12.603  1.4208  2.2902  1.3893
13978TIP3   OH263424   2.462   0.226  11.694  0.2695  0.1213 -0.5386
13978TIP3    H163425   2.371   0.241  11.722  1.1979  2.1654  1.7730
13978TIP3    H263426   2.471   0.280  11.615 -0.7206 -0.7498 -1.2720
13979TIP3   OH263427   2.602   4.134   4.660  0.2590 -0.3744  0.2802
13979TIP3    H163428   2.565   4.215   4.694  0.3209 -0.7582  1.3024
13979TIP3    H263429   2.645   4.159   4.579 -0.1167  0.5299  0.3548
13980TIP3   OH263430   1.319   6.499   3.670  0.1557 -0.3429 -0.3346
13980TIP3    H163431   1.316   6.468   3.761  0.1219  0.6173  0.0024
13980TIP3    H263432   1.228   6.518   3.647  0.1587 -0.6278 -0.5882
13981TIP3   OH263433   0.618   0.202   3.569  0.3908 -0.1288 -0.0370
13981TIP3    H163434   0.692   0.239   3.521  1.6142 -2.3339  0.0346
13981TIP3    H263435   0.637   0.109   3.574 -2.8010 -0.9137 -0.6920
13982TIP3   OH263436   6.745   5.398   3.068 -0.1003 -0.0926 -0.0395
13982TIP3    H163437   6.738   5.450   3.148  2.6692  1.3416 -0.6089
13982TIP3    H263438   6.798   5.322   3.095 -1.3262 -0.9526  0.0223
13983TIP3   OH263439   1.703   5.690   2.912  0.2733  0.5851 -0.0431
13983TIP3    H163440   1.785   5.738   2.920  0.7965 -0.1535 -0.7705
13983TIP3    H263441   1.717   5.630   2.839 -0.3375 -0.6721  0.8182
13984TIP3   OH263442   0.316   2.635   1.935 -0.2109 -0.9807 -0.0338
13984TIP3    H163443   0.274   2.548   1.939  0.0354 -1.0736  0.6872
13984TIP3    H263444   0.308   2.669   2.024  0.0541 -0.4300 -0.2183
13985TIP3   OH263445   0.946   5.011  15.561  0.4769  0.1548 -0.2344
13985TIP3    H163446   1.013   4.951  15.529  1.6293  2.2546 -2.0364
13985TIP3    H263447   0.965   5.020  15.654  2.6165  0.5149 -0.6440
13986TIP3   OH263448   1.258   1.099  13.420  0.3053 -0.6781  0.1181
13986TIP3    H163449   1.251   1.057  13.506  0.5515 -2.4651 -0.6997
13986TIP3    H263450   1.267   1.027  13.358 -0.6436  0.5266 -1.5137
13987TIP3   OH263451   4.269   3.640  16.373 -0.4502  0.7237 -0.3831
13987TIP3    H163452   4.256   3.695  16.450  0.2419  0.3314  0.0269
13987TIP3    H263453   4.184   3.638  16.330 -0.9659  0.6093  0.6109
13988TIP3   OH263454   4.098   5.189   2.683 -0.9294  0.2474 -0.1372
13988TIP3    H163455   4.137   5.241   2.753 -1.3864 -0.6383  0.8029
13988TIP3    H263456   4.093   5.100   2.719 -1.4073 -0.1727 -1.1984
13989TIP3   OH263457   5.018   3.273   0.288  0.3625  0.2365 -0.5124
13989TIP3    H163458   4.944   3.241   0.236 -0.7725  0.3053  1.0078
13989TIP3    H263459   5.076   3.314   0.224 -1.0320  0.4233 -1.7045
13990TIP3   OH263460   5.131   0.965  16.138  0.2076  0.0083  0.7092
13990TIP3    H163461   5.154   0.882  16.180 -1.4916 -0.1914  1.3082
13990TIP3    H263462   5.118   1.026  16.211 -2.0411 -0.1462  0.4806
13991TIP3   OH263463   6.176   3.982   2.155  0.8070  0.0272  0.0757
13991TIP3    H163464   6.243   3.914   2.154 -0.0281 -0.8075 -0.4134
13991TIP3    H263465   6.099   3.940   2.117  0.4846  1.4716 -0.9290
13992TIP3   OH263466   1.686   2.462   3.204  0.2904 -0.1459  0.2309
13992TIP3    H163467   1.609   2.496   3.249  0.3270  2.2856 -1.3832
13992TIP3    H263468   1.662   2.372   3.181 -1.1145 -0.2275  1.7880
13993TIP3   OH263469   3.748   4.196   1.773  0.0125 -0.4369 -0.3123
13993TIP3    H163470   3.666   4.170   1.815  1.0265  0.4310  2.3781
13993TIP3    H263471   3.814   4.142   1.816  1.3691  2.0166  0.8694
13994TIP3   OH263472   0.806   2.780  16.550  0.2522 -0.2023 -0.2501
13994TIP3    H163473   0.729   2.805  16.499  0.5677  0.0017 -0.6277
13994TIP3    H263474   0.771   2.723  16.619 -0.3833  0.7568  0.2432
13995TIP3   OH263475   3.893   3.334  15.505 -0.5529 -0.1981  0.1621
13995TIP3    H163476   3.869   3.354  15.595 -1.7604 -0.1347 -0.1630
13995TIP3    H263477   3.977   3.380  15.492 -0.5606  0.1130  1.1189
13996TIP3   OH263478   4.379   1.648  13.119  0.1767 -0.0018  0.1268
13996TIP3    H163479   4.376   1.735  13.081  1.3940  0.0214  0.0668
13996TIP3    H263480   4.372   1.589  13.044  2.0929  0.0471 -0.1218
13997TIP3   OH263481   6.463   3.055   0.116 -0.2784 -0.0139 -0.1360
13997TIP3    H163482   6.408   3.053   0.038  0.6338  0.5260 -0.8123
13997TIP3    H263483   6.537   2.999   0.095  1.0737  1.8377 -0.5293
13998TIP3   OH263484   0.000   1.797  12.104 -0.2745 -0.6959  0.1683
13998TIP3    H163485  -0.016   1.718  12.053 -1.4289 -1.0005  0.9762
13998TIP3    H263486  -0.069   1.858  12.079  0.1926 -0.1864  0.0768
13999TIP3   OH263487   5.267   2.833  14.727 -0.2175 -0.6205 -0.1326
13999TIP3    H163488   5.211   2.887  14.671  0.7563 -0.7822 -1.2885
13999TIP3    H263489   5.207   2.768  14.765 -0.9948 -0.1176 -0.4830
14000TIP3   OH263490   2.554   1.714   5.418  0.1961 -0.0508  0.6599
14000TIP3    H163491   2.515   1.628   5.437  1.9929 -1.5708 -1.9053
14000TIP3    H263492   2.489   1.759   5.365 -1.5348  1.0488  3.5091
14001TIP3   OH263493   3.610   6.668   2.586  0.0558 -0.5965  0.2332
14001TIP3    H163494   3.574   6.580   2.601 -0.5065 -0.2498  1.0392
14001TIP3    H263495   3.675   6.656   2.518 -0.6825 -1.4801 -0.3452
14002TIP3   OH263496   2.145   1.365   3.196  0.3303  0.1317  0.2085
14002TIP3    H163497   2.239   1.374   3.181  0.1767  1.7303  0.0395
14002TIP3    H263498   2.129   1.410   3.279 -0.3081  0.0529  0.1341
14003TIP3   OH263499   3.515   0.743   3.907 -0.6859  0.2296 -0.4040
14003TIP3    H163500   3.478   0.731   3.994 -0.0907  1.1450 -0.0068
14003TIP3    H263501   3.556   0.829   3.910 -1.2659  0.5879 -1.8095
14004TIP3   OH263502   1.303   0.194   0.732 -0.0328  0.0881  0.5285
14004TIP3    H163503   1.208   0.202   0.732 -0.7063 -4.5369  2.3816
14004TIP3    H263504   1.325   0.166   0.643 -0.8355 -1.1799  0.7005
14005TIP3   OH263505   5.635   0.320  13.901 -0.1993 -0.2430 -0.3041
14005TIP3    H163506   5.552   0.317  13.947  0.3717 -1.0371  0.7408
14005TIP3    H263507   5.699   0.347  13.968  0.3701  0.4067 -1.0948
14006TIP3   OH263508   5.200   1.385   2.620  0.5689 -0.2975 -0.5163
14006TIP3    H163509   5.196   1.412   2.528  0.0756  0.5717 -0.2558
14006TIP3    H263510   5.151   1.304   2.623 -0.6791  0.4277 -0.7712
14007TIP3   OH263511   1.471   1.950  11.363  0.0464 -0.8095  0.4560
14007TIP3    H163512   1.486   2.025  11.420  0.4596 -1.0042  0.6031
14007TIP3    H263513   1.530   1.882  11.396  0.6124 -0.7785 -0.4792
14008TIP3   OH263514   3.948   3.184   4.375 -0.3218  0.0436 -0.3920
14008TIP3    H163515   4.036   3.219   4.390  0.7838 -2.3471 -0.8009
14008TIP3    H263516   3.925   3.141   4.457 -1.4284  1.1878 -0.0706
14009TIP3   OH263517   5.696   1.973   2.073  0.3723 -0.3021  0.6675
14009TIP3    H163518   5.605   1.999   2.090 -0.3039 -1.7306 -0.5038
14009TIP3    H263519   5.738   2.052   2.040 -1.1238 -0.1476 -1.0734
14010TIP3   OH263520   5.259   0.425  13.701 -0.3063  0.1489 -0.4836
14010TIP3    H163521   5.243   0.517  13.722 -1.5934  0.4309 -2.4397
14010TIP3    H263522   5.172   0.385  13.701  0.3510 -1.4865  1.8562
14011TIP3   OH263523   5.433   5.206   1.374 -0.5445 -0.3809 -0.1723
14011TIP3    H163524   5.399   5.117   1.380 -0.2234 -0.5423 -0.6924
14011TIP3    H263525   5.419   5.243   1.461  0.0207 -1.1844  0.2659
14012TIP3   OH263526   4.468   4.675   1.165 -0.3568  0.2652  0.3043
14012TIP3    H163527   4.508   4.757   1.135  1.1741 -0.5486  0.0313
14012TIP3    H263528   4.424   4.640   1.087 -0.8899  0.7348  0.3847
14013TIP3   OH263529   6.443   5.664   5.963 -0.1038  0.1482 -0.1771
14013TIP3    H163530   6.487   5.618   5.891  0.2414  2.1433 -1.3392
14013TIP3    H263531   6.423   5.751   5.926  0.1691  1.2801  2.1722
14014TIP3   OH263532   0.862   3.825  16.540  0.1849  0.1924  0.4231
14014TIP3    H163533   0.822   3.799  16.623  0.4960 -0.3787  0.3957
14014TIP3    H263534   0.863   3.921  16.543  0.8159  0.1668  1.3745
14015TIP3   OH263535   3.683   6.292  14.464 -0.0590 -0.0573 -0.1457
14015TIP3    H163536   3.593   6.288  14.432 -0.6126  2.4229  0.8723
14015TIP3    H263537   3.734   6.242  14.400 -1.7831  0.6272 -2.1646
14016TIP3   OH263538   4.229   4.009  11.853  0.3472 -0.4666 -0.6217
14016TIP3    H163539   4.151   4.050  11.891  0.3981  0.6863 -1.7035
14016TIP3    H263540   4.241   4.054  11.769  0.5215 -2.5867 -1.8063
14017TIP3   OH263541   5.448   2.174   0.523  0.4155 -0.4998 -0.3916
14017TIP3    H163542   5.523   2.230   0.546 -1.1263  1.0306  1.2378
14017TIP3    H263543   5.377   2.236   0.506 -0.9922 -1.9284  0.0625
14018TIP3   OH263544   5.250   6.683   3.014  0.1580 -0.6516  0.7549
14018TIP3    H163545   5.243   6.589   3.003 -0.5471 -0.5335  0.0724
14018TIP3    H263546   5.264   6.695   3.108  1.0600 -1.4633  0.7343
14019TIP3   OH263547   3.924   6.386   5.107 -0.0226  0.3775 -0.3086
14019TIP3    H163548   4.011   6.410   5.075 -0.0141  1.2237  0.3173
14019TIP3    H263549   3.878   6.354   5.030  0.7975  0.0272 -0.6744
14020TIP3   OH263550   5.900   3.797  14.532  0.4969  0.6198  0.2885
14020TIP3    H163551   5.814   3.786  14.572  0.9539 -0.0163  1.1302
14020TIP3    H263552   5.889   3.870  14.471 -0.3940  1.1885  1.0960
14021TIP3   OH263553   1.264   1.014   1.272  0.3349  0.4047 -0.3363
14021TIP3    H163554   1.349   0.971   1.271 -0.0134 -0.3225  0.1619
14021TIP3    H263555   1.237   1.012   1.364 -0.7818 -0.5594 -0.6565
14022TIP3   OH263556   3.237   2.061  14.420 -0.4699  0.0631  0.3390
14022TIP3    H163557   3.332   2.061  14.407 -0.2948  3.6747  0.5128
14022TIP3    H263558   3.200   2.052  14.332 -0.0732 -2.3431  0.3594
14023TIP3   OH263559   4.555   6.290  12.082  0.0617  1.1815  0.4701
14023TIP3    H163560   4.468   6.331  12.088 -0.2908  0.2501  2.9756
14023TIP3    H263561   4.537   6.196  12.079  0.9433  1.0189 -2.5039
14024TIP3   OH263562   6.823   4.377   3.093  0.0879  0.2184  0.6701
14024TIP3    H163563   6.851   4.442   3.029  1.5668 -1.7565 -0.7857
14024TIP3    H263564   6.747   4.335   3.052 -0.7819  0.9018  1.5457
14025TIP3   OH263565   1.256   1.874   2.389  0.4113 -0.1524  0.2566
14025TIP3    H163566   1.339   1.863   2.436 -0.2216 -0.8614  1.2620
14025TIP3    H263567   1.276   1.847   2.299  0.9915 -1.5334  0.7559
14026TIP3   OH263568   4.598   3.820   4.368 -0.8661 -0.3608  0.3367
14026TIP3    H163569   4.646   3.738   4.378 -0.1129  0.1432  0.9466
14026TIP3    H263570   4.621   3.871   4.445 -1.1752  0.5023 -0.1334
14027TIP3   OH263571   6.508   3.909  16.201 -0.0125 -0.0361  0.0884
14027TIP3    H163572   6.558   3.831  16.174 -0.3478 -0.4397  0.6157
14027TIP3    H263573   6.567   3.982  16.183  0.6911 -0.4894  0.4881
14028TIP3   OH263574   0.584   2.842  16.890 -0.0505  0.1203 -0.0409
14028TIP3    H163575   0.530   2.886  16.825  0.6569  0.9696 -0.0710
14028TIP3    H263576   0.521   2.800  16.949 -0.7099  0.1473 -0.7134
14029TIP3   OH263577   0.167   3.207   1.400 -0.1473 -0.0976  0.3235
14029TIP3    H163578   0.209   3.146   1.461 -0.4306 -0.2779  0.3438
14029TIP3    H263579   0.145   3.153   1.323  1.9691  0.5221 -0.7937
14030TIP3   OH263580   5.418   1.303  12.620 -0.0817 -0.5533 -0.0175
14030TIP3    H163581   5.344   1.362  12.630 -0.0384 -0.8931  3.2088
14030TIP3    H263582   5.495   1.360  12.619 -0.1918 -0.4045 -0.1830
14031TIP3   OH263583   6.105   4.429   2.641  0.2229  0.2831 -0.1042
14031TIP3    H163584   6.184   4.374   2.646  0.3283  0.0471 -2.8130
14031TIP3    H263585   6.136   4.510   2.601 -0.3423  1.5839  1.9449
14032TIP3   OH263586   0.977   2.985  16.555  0.1706 -0.6227 -0.1234
14032TIP3    H163587   0.931   3.067  16.536  0.9506 -0.4242 -1.2534
14032TIP3    H263588   0.907   2.921  16.565 -0.3914 -0.3128 -1.7220
14033TIP3   OH263589   4.428   2.752   3.441  0.3696 -0.2179 -1.2081
14033TIP3    H163590   4.473   2.669   3.429  0.0327 -0.2700 -2.2467
14033TIP3    H263591   4.437   2.796   3.356 -0.0351  0.5164 -0.8803
14034TIP3   OH263592   2.706   1.711  13.131  0.1660 -0.1155  0.0945
14034TIP3    H163593   2.662   1.663  13.061 -0.6933 -0.1626  0.6473
14034TIP3    H263594   2.650   1.698  13.208  0.7297  0.5007  0.6257
14035TIP3   OH263595   2.876   4.178  14.025  0.5041  0.0417  0.3378
14035TIP3    H163596   2.830   4.176  14.109 -1.5974  1.6385 -0.6747
14035TIP3    H263597   2.934   4.102  14.028 -1.4336 -1.5075  2.1746
14036TIP3   OH263598   5.835   0.863   2.164  0.0944  0.0955 -0.3960
14036TIP3    H163599   5.815   0.772   2.142  0.2318 -0.3238  1.0964
14036TIP3    H263600   5.930   0.869   2.159  0.1530 -0.0879  0.2944
14037TIP3   OH263601   6.013   4.713   0.579  0.4953 -0.1300 -0.3084
14037TIP3    H163602   5.998   4.618   0.580  0.2987 -0.3627 -4.7648
14037TIP3    H263603   5.999   4.738   0.488  0.7006  4.2264  0.6613
14038TIP3   OH263604   1.526   0.652  17.069 -0.0862 -0.0694  0.2264
14038TIP3    H163605   1.538   0.718  17.138  1.5814  1.1117 -1.0805
14038TIP3    H263606   1.560   0.695  16.990 -0.0163 -2.1080 -0.9125
14039TIP3   OH263607   1.858   1.750   1.063 -0.0727 -0.3646 -0.1327
14039TIP3    H163608   1.900   1.744   0.978 -1.3158  0.9578 -0.8709
14039TIP3    H263609   1.836   1.842   1.074 -1.2192 -0.7236  0.9800
14040TIP3   OH263610   6.695   2.024  16.143 -0.5755 -0.1428  0.3704
14040TIP3    H163611   6.625   2.030  16.209  0.0371 -0.7308  1.0951
14040TIP3    H263612   6.673   1.945  16.093 -0.6338 -0.1148  0.3510
14041TIP3   OH263613   5.395   6.054   1.976  0.0467 -0.2001  0.0886
14041TIP3    H163614   5.475   6.006   1.954 -0.4438 -1.0835  0.1636
14041TIP3    H263615   5.412   6.144   1.949  0.1005 -0.8785 -2.4054
14042TIP3   OH263616   0.107   1.858  14.212  0.1576 -0.1213  0.5505
14042TIP3    H163617   0.156   1.920  14.158 -0.4557  0.3635  0.5356
14042TIP3    H263618   0.117   1.774  14.168 -1.1039  0.4337 -0.8585
14043TIP3   OH263619   2.652   3.752  11.547 -0.3192 -0.0906 -0.1169
14043TIP3    H163620   2.731   3.751  11.493  0.6381  0.6933  1.2083
14043TIP3    H263621   2.683   3.773  11.635 -1.7452 -2.0394  0.9288
14044TIP3   OH263622   5.475   5.324  15.404 -0.3945  0.0590  0.1104
14044TIP3    H163623   5.453   5.263  15.334  0.0985 -0.4678  0.4133
14044TIP3    H263624   5.566   5.306  15.425 -0.1538  1.0837  0.0220
14045TIP3   OH263625   4.101   5.826   3.428 -0.1642  0.2023 -0.1471
14045TIP3    H163626   4.161   5.783   3.367 -0.6569 -1.4736  0.4841
14045TIP3    H263627   4.017   5.828   3.382 -0.4429 -0.7023  0.3041
14046TIP3   OH263628   3.897   1.517   5.731  0.0664  0.2240 -0.3088
14046TIP3    H163629   3.855   1.546   5.812  0.4397  1.8555 -0.6759
14046TIP3    H263630   3.896   1.421   5.737 -2.3725  0.2323  0.3537
14047TIP3   OH263631   0.436   1.643   3.013  0.0506  0.5237 -0.1876
14047TIP3    H163632   0.459   1.666   3.103  1.6548  3.8374 -1.2853
14047TIP3    H263633   0.360   1.698   2.993 -2.2234 -2.3333 -0.0752
14048TIP3   OH263634   5.134   4.496  13.095  0.0845 -0.4365  0.1124
14048TIP3    H163635   5.058   4.517  13.040 -1.1844  0.1118  1.9776
14048TIP3    H263636   5.203   4.554  13.063 -0.7147  0.1132 -0.6667
14049TIP3   OH263637   4.722   0.573   6.106 -0.2567 -0.6235  0.2387
14049TIP3    H163638   4.779   0.597   6.179  1.5584 -1.2940 -0.9056
14049TIP3    H263639   4.718   0.477   6.108  1.5916 -0.8188 -1.7466
14050TIP3   OH263640   1.240   2.507  10.792  0.0055 -0.0800  0.1120
14050TIP3    H163641   1.320   2.515  10.739 -0.2679  1.5958 -0.1053
14050TIP3    H263642   1.172   2.548  10.739 -0.6196  0.1412  1.0652
14051TIP3   OH263643   2.252   2.371  13.072  0.1455 -0.1940 -0.1652
14051TIP3    H163644   2.206   2.367  12.988  1.8283 -0.3253 -1.1288
14051TIP3    H263645   2.290   2.459  13.074  0.3264 -0.2814  0.3359
14052TIP3   OH263646   0.008   1.743  12.977  0.0059 -0.0029  0.0113
14052TIP3    H163647  -0.082   1.759  13.006 -1.2065 -0.8558 -2.8740
14052TIP3    H263648   0.044   1.831  12.964 -0.4265  0.3496  1.0820
14053TIP3   OH263649   1.793   5.031  15.944 -0.3896 -0.4488 -0.2423
14053TIP3    H163650   1.875   5.022  15.993  0.1182 -2.3590 -1.3251
14053TIP3    H263651   1.730   5.063  16.008  0.7844 -0.6196  1.0495
14054TIP3   OH263652   3.649   6.216   3.293  0.2066 -0.1967  0.4752
14054TIP3    H163653   3.627   6.308   3.310  2.1955 -0.0770  3.0481
14054TIP3    H263654   3.564   6.173   3.286 -0.7827  1.6614  0.3229
14055TIP3   OH263655   2.664   1.053  12.057 -0.4232 -0.3563 -0.1831
14055TIP3    H163656   2.656   0.979  11.998 -0.8804 -0.3699 -0.1060
14055TIP3    H263657   2.754   1.049  12.088 -0.6313 -1.2693  0.3367
14056TIP3   OH263658   4.102   1.421  12.773 -0.0419 -0.0103 -0.1212
14056TIP3    H163659   4.195   1.445  12.762 -0.3580  2.2589  1.4153
14056TIP3    H263660   4.104   1.336  12.815  1.5492  1.4828  3.2603
14057TIP3   OH263661   2.688   4.793  15.771 -0.5687  0.3714  0.1565
14057TIP3    H163662   2.647   4.874  15.801  1.4648  1.4423  0.2084
14057TIP3    H263663   2.761   4.780  15.830  0.2539 -0.4781 -1.0017
14058TIP3   OH263664   4.468   6.599   5.936 -0.0431 -0.3662  0.3836
14058TIP3    H163665   4.524   6.603   6.014  0.4160 -0.5186  0.0678
14058TIP3    H263666   4.381   6.577   5.970  0.6023 -2.7327  0.6805
14059TIP3   OH263667   2.186   5.080  16.174 -0.1953 -0.7057 -0.0307
14059TIP3    H163668   2.174   5.130  16.255 -1.0705 -0.8885 -0.0370
14059TIP3    H263669   2.127   5.005  16.183  0.4902 -1.3050 -0.3842
14060TIP3   OH263670   6.453   5.779  16.014  0.1596  0.4112 -0.2298
14060TIP3    H163671   6.471   5.870  16.039  0.1334  0.4134 -0.2186
14060TIP3    H263672   6.362   5.781  15.984 -0.1977  0.1884  0.7851
14061TIP3   OH263673   0.236   1.877   3.451 -0.4158 -0.1850  0.1489
14061TIP3    H163674   0.230   1.958   3.502 -0.1954  0.7118 -1.1927
14061TIP3    H263675   0.189   1.895   3.370  1.5581 -0.5539 -1.1733
14062TIP3   OH263676   5.491   3.282  12.143 -0.1138  0.0529  0.0198
14062TIP3    H163677   5.398   3.272  12.163 -0.4921  0.6619 -1.3446
14062TIP3    H263678   5.495   3.357  12.084  1.2168 -0.1240 -0.1395
14063TIP3   OH263679   2.310   4.220   3.435 -0.1783 -0.4717 -0.3010
14063TIP3    H163680   2.299   4.132   3.397  1.8101 -0.0408 -2.0592
14063TIP3    H263681   2.229   4.266   3.411  0.0313 -0.9411 -2.1060
14064TIP3   OH263682   2.447   3.453   2.310  0.6922  0.0128 -0.2176
14064TIP3    H163683   2.359   3.418   2.299  0.5701  0.4860 -0.8599
14064TIP3    H263684   2.450   3.529   2.251  0.4905  1.9326  2.1265
14065TIP3   OH263685   6.347   6.595  10.546 -0.1507  0.2593 -0.6297
14065TIP3    H163686   6.265   6.629  10.510 -0.4980 -1.9444 -2.1736
14065TIP3    H263687   6.321   6.512  10.588  0.7835  1.2125  2.0284
14066TIP3   OH263688   3.822   0.491   4.992  0.1010 -0.3037 -0.1065
14066TIP3    H163689   3.897   0.526   4.944  0.5850  1.5331  1.8254
14066TIP3    H263690   3.839   0.514   5.084 -2.6726 -0.0643  0.4467
14067TIP3   OH263691   4.802   4.950  15.643  0.3796  0.2120  0.4814
14067TIP3    H163692   4.755   5.029  15.616  0.5450  0.3987  0.7433
14067TIP3    H263693   4.834   4.912  15.561  2.3057  1.6597  0.5093
14068TIP3   OH263694   2.502   4.291  16.427 -0.0706 -0.2784  0.6954
14068TIP3    H163695   2.592   4.289  16.396 -0.7914  1.0030 -1.7142
14068TIP3    H263696   2.497   4.369  16.482  0.0027  0.4615 -0.3092
14069TIP3   OH263697   4.826   3.194   0.112 -0.3314 -0.3171  0.5989
14069TIP3    H163698   4.743   3.148   0.115  0.1840 -1.6615 -2.1632
14069TIP3    H263699   4.826   3.238   0.027  1.8195 -0.5285  0.4279
14070TIP3   OH263700   4.276   6.506   5.737  0.3020 -0.3149  0.2458
14070TIP3    H163701   4.228   6.425   5.720  3.9063 -2.7522  0.4970
14070TIP3    H263702   4.297   6.501   5.831 -0.4785  1.6158  0.5602
14071TIP3   OH263703   4.585   3.828  12.282  0.1353 -0.3822  0.3829
14071TIP3    H163704   4.594   3.786  12.368  1.2875 -1.9790 -0.4741
14071TIP3    H263705   4.667   3.876  12.270 -0.3301  0.4602  0.4635
14072TIP3   OH263706   0.056   1.862   4.054  0.2483  0.0311 -0.1544
14072TIP3    H163707  -0.019   1.803   4.065 -0.0827  0.5038  0.1870
14072TIP3    H263708   0.027   1.945   4.093  0.4608  0.6118 -1.1953
14073TIP3   OH263709   1.720   1.125  10.307  0.3290 -0.1948  1.0442
14073TIP3    H163710   1.743   1.216  10.322 -0.0235 -0.1327  1.2214
14073TIP3    H263711   1.796   1.088  10.262  0.3393  0.2701  0.6654
14074TIP3   OH263712   2.660   2.557   4.505  0.1886 -0.2229  0.4908
14074TIP3    H163713   2.575   2.528   4.538 -0.0396 -0.7445 -0.5052
14074TIP3    H263714   2.723   2.495   4.540  0.0474 -0.3321  0.5518
14075TIP3   OH263715   3.952   0.526  13.462 -0.0586  0.9220  0.3837
14075TIP3    H163716   3.992   0.442  13.483 -1.4072  0.5758  1.7833
14075TIP3    H263717   3.881   0.504  13.402 -0.0476  1.1303  0.2946
14076TIP3   OH263718   2.918   2.076  14.493 -0.1512 -0.1037 -0.5980
14076TIP3    H163719   2.982   2.118  14.436 -0.2853  2.4902  0.9729
14076TIP3    H263720   2.845   2.138  14.497 -1.6365 -1.7949 -0.3110
14077TIP3   OH263721   5.110   0.118   6.377 -0.0421  0.2603  0.1963
14077TIP3    H163722   5.093   0.199   6.426 -1.0253  0.8223 -1.0341
14077TIP3    H263723   5.189   0.083   6.418  0.5032  1.9192  0.6639
14078TIP3   OH263724   0.377   1.622  12.153 -0.7092  0.1057  0.5472
14078TIP3    H163725   0.340   1.710  12.161 -0.5399  0.2518 -0.1592
14078TIP3    H263726   0.415   1.603  12.239  0.7328  1.4002  0.2371
14079TIP3   OH263727   3.019   0.199  11.438 -0.2624  0.2314 -0.2233
14079TIP3    H163728   3.084   0.164  11.377 -0.9740 -0.4362 -0.6238
14079TIP3    H263729   3.050   0.171  11.524  0.7604  1.2005 -0.2527
14080TIP3   OH263730   5.924   2.306  13.158 -0.7160 -0.2498  0.6958
14080TIP3    H163731   5.879   2.266  13.233  0.0971 -0.5008  1.0527
14080TIP3    H263732   5.968   2.233  13.115  1.8837  0.3862  2.1064
14081TIP3   OH263733   0.964   2.373   1.481 -0.5162 -0.3314 -0.0946
14081TIP3    H163734   0.904   2.438   1.517  1.5368  1.4273  0.2956
14081TIP3    H263735   1.045   2.421   1.463  0.7516 -2.5687 -0.7613
14082TIP3   OH263736   2.776   4.322   3.317  0.4290 -0.4903 -0.3477
14082TIP3    H163737   2.767   4.387   3.248 -1.4835  1.3632  1.5098
14082TIP3    H263738   2.699   4.265   3.307 -0.0477 -0.0017  0.4059
14083TIP3   OH263739   1.523   5.569   6.287 -0.2897  0.1023  0.1155
14083TIP3    H163740   1.482   5.646   6.325 -0.1455  0.7875 -1.0631
14083TIP3    H263741   1.609   5.563   6.330 -0.6847  0.0139  0.9087
14084TIP3   OH263742   1.731   3.685   4.049  0.8382 -0.0336 -0.7668
14084TIP3    H163743   1.755   3.729   3.968 -0.4979  1.5324 -0.3852
14084TIP3    H263744   1.647   3.643   4.031 -0.6380  2.2250  0.3273
14085TIP3   OH263745   3.649   0.723  13.741 -0.3399 -0.2003  0.1793
14085TIP3    H163746   3.630   0.752  13.830 -1.0074 -1.5677  0.5190
14085TIP3    H263747   3.737   0.686  13.746  0.7214  2.1225 -0.3704
14086TIP3   OH263748   1.836   6.000  12.615  0.2046  0.3851  0.0160
14086TIP3    H163749   1.869   5.917  12.649 -0.9243  0.2626  0.8606
14086TIP3    H263750   1.879   6.010  12.530 -0.1954 -1.4219 -0.4302
14087TIP3   OH263751   4.063   2.231  17.139 -0.2984 -0.3412  0.4192
14087TIP3    H163752   3.970   2.245  17.159 -0.0993 -0.3855  1.4489
14087TIP3    H263753   4.081   2.142  17.171  0.1484 -0.2449  0.4433
14088TIP3   OH263754   2.242   6.192  16.817 -0.0465 -0.2083  0.4439
14088TIP3    H163755   2.323   6.147  16.840 -0.1097 -0.2091  0.6725
14088TIP3    H263756   2.267   6.284  16.807 -0.0134 -0.2129  0.4883
14089TIP3   OH263757   1.284   1.040   4.836 -0.1349 -0.2917 -0.7378
14089TIP3    H163758   1.191   1.020   4.839  0.1614 -1.6649  1.3512
14089TIP3    H263759   1.310   1.052   4.927  1.6532  0.4784 -1.2974
14090TIP3   OH263760   1.891   3.162  10.968  0.0643 -0.3481  0.4212
14090TIP3    H163761   1.824   3.207  11.020  0.6671 -0.5863  1.4445
14090TIP3    H263762   1.897   3.213  10.888  0.3296  1.0864  1.3085
14091TIP3   OH263763   1.260   2.366  14.695  0.0033 -0.1955 -0.2714
14091TIP3    H163764   1.318   2.422  14.644 -0.1252 -0.1478 -0.3665
14091TIP3    H263765   1.197   2.426  14.735 -0.1170 -0.2661 -0.3514
14092TIP3   OH263766   2.658   1.811  13.794 -0.4011 -0.4128  0.0199
14092TIP3    H163767   2.735   1.760  13.819  0.1491 -0.2482 -1.2926
14092TIP3    H263768   2.592   1.788  13.860  0.7156 -0.6609  1.0846
14093TIP3   OH263769   2.208   5.677  11.103 -0.3596  0.5766  0.2358
14093TIP3    H163770   2.209   5.613  11.174 -0.9777  1.2080  0.8451
14093TIP3    H263771   2.275   5.648  11.042  0.8837  0.5453  1.5556
14094TIP3   OH263772   5.709   1.963  16.368  0.3000  0.1422  0.0343
14094TIP3    H163773   5.733   2.020  16.441  1.6455  0.7433 -0.8231
14094TIP3    H263774   5.737   1.876  16.394  0.8645  0.3723  0.2149
14095TIP3   OH263775   3.855   5.419   6.367 -0.5975 -0.4612  0.3964
14095TIP3    H163776   3.768   5.445   6.397 -0.9688 -2.1825  0.8980
14095TIP3    H263777   3.895   5.376   6.443 -0.1393 -1.5907 -0.4572
14096TIP3   OH263778   2.774   4.763   3.214  0.3108  0.0963 -0.0379
14096TIP3    H163779   2.740   4.849   3.191 -0.5746  0.0290  0.9798
14096TIP3    H263780   2.789   4.767   3.308  2.7062 -0.0441 -0.3365
14097TIP3   OH263781   5.277   2.751   5.178  0.4532 -0.2007  0.5054
14097TIP3    H163782   5.251   2.757   5.270 -0.7849  2.2234  0.0730
14097TIP3    H263783   5.325   2.669   5.173  1.3214 -0.0293  3.5063
14098TIP3   OH263784   0.151   4.301  11.906 -0.1818 -0.0653  0.3378
14098TIP3    H163785   0.183   4.272  11.821 -1.5791 -0.1777 -0.1816
14098TIP3    H263786   0.123   4.391  11.892  0.5378  0.2588  0.9502
14099TIP3   OH263787   6.778   0.057   1.212  0.1705  0.1599  0.3113
14099TIP3    H163788   6.697   0.031   1.254  0.0320 -1.4572 -0.8673
14099TIP3    H263789   6.785  -0.000   1.136  1.5306  1.4605 -0.6050
14100TIP3   OH263790   2.568   2.064  11.729  0.5938 -0.2187 -0.1095
14100TIP3    H163791   2.566   1.974  11.761 -0.6343 -0.3123 -0.4031
14100TIP3    H263792   2.581   2.055  11.634  0.3379 -0.1072 -0.1579
14101TIP3   OH263793   6.776   0.752   4.849  0.0286  0.3802 -0.6176
14101TIP3    H163794   6.775   0.698   4.928 -0.7752  1.2175 -0.0341
14101TIP3    H263795   6.816   0.696   4.782  2.0764  0.1672  0.7170
14102TIP3   OH263796   2.471   5.589   1.046 -0.0598  0.7800  0.4728
14102TIP3    H163797   2.540   5.649   1.072  0.0382  1.7566 -1.8182
14102TIP3    H263798   2.450   5.613   0.956 -0.3957 -2.2993 -0.3866
14103TIP3   OH263799   4.093   2.928   3.373  0.4951 -0.5293 -0.1617
14103TIP3    H163800   4.035   2.878   3.431 -0.4596  0.1118 -0.5353
14103TIP3    H263801   4.137   2.862   3.320 -1.4240 -0.9855 -1.2827
14104TIP3   OH263802   5.773   3.082  11.423  0.8469  0.3249  1.1213
14104TIP3    H163803   5.825   3.005  11.445 -0.5286 -1.8192 -2.2751
14104TIP3    H263804   5.820   3.123  11.351 -0.9938 -0.5031 -0.6523
14105TIP3   OH263805   5.551   1.128   1.911  0.0351  0.2111 -0.6573
14105TIP3    H163806   5.535   1.220   1.932 -1.1237  0.2398 -1.5752
14105TIP3    H263807   5.510   1.079   1.982 -1.0536  0.3791 -1.1450
14106TIP3   OH263808   3.693   0.023   0.956 -0.4083 -0.2074  0.2163
14106TIP3    H163809   3.781   0.054   0.980 -0.6218 -0.2030  1.0328
14106TIP3    H263810   3.705  -0.070   0.937 -0.3473 -0.3680  1.0179
14107TIP3   OH263811   1.684   0.239   3.016 -0.3112 -0.2135 -0.1334
14107TIP3    H163812   1.774   0.230   2.984 -0.3184  0.9921 -0.5470
14107TIP3    H263813   1.643   0.300   2.955 -1.5007 -0.9535 -0.0965
14108TIP3   OH263814   1.402   3.019  14.931  1.1124  0.3290  0.2013
14108TIP3    H163815   1.417   3.105  14.892 -1.2692  1.3488  1.3246
14108TIP3    H263816   1.363   3.038  15.017  0.7658 -1.8718  0.5852
14109TIP3   OH263817   1.884   4.157  11.587  0.1950 -0.5290 -0.1360
14109TIP3    H163818   1.977   4.136  11.589  0.5839  1.1085  0.4842
14109TIP3    H263819   1.847   4.096  11.523  1.6841 -1.2069 -0.3893
14110TIP3   OH263820   4.399   4.302   4.247  0.5824  0.3173  0.0684
14110TIP3    H163821   4.434   4.266   4.166  3.0105  2.1266  0.2093
14110TIP3    H263822   4.443   4.386   4.258  0.8863 -0.1142  3.5900
14111TIP3   OH263823   3.765   3.025  11.036  0.2917 -0.0979  0.2164
14111TIP3    H163824   3.800   2.946  11.077 -1.2405 -0.8402  0.1623
14111TIP3    H263825   3.768   3.006  10.942 -0.3035 -0.2017  0.2156
14112TIP3   OH263826   0.532   0.555   2.565 -0.7031  0.0210 -0.0902
14112TIP3    H163827   0.452   0.502   2.572 -0.3798 -0.3978  0.4965
14112TIP3    H263828   0.500   0.645   2.556 -1.2688  0.1229  2.2096
14113TIP3   OH263829   1.810   0.977  13.581 -0.2541  0.1093 -0.2500
14113TIP3    H163830   1.801   1.026  13.499  0.5094 -0.3042 -0.6042
14113TIP3    H263831   1.723   0.980  13.621 -0.3274  1.3619 -0.4690
14114TIP3   OH263832   4.007   3.305   1.571 -0.1690  0.0617  0.1078
14114TIP3    H163833   4.087   3.341   1.610  1.2387 -2.1912 -0.4723
14114TIP3    H263834   3.971   3.247   1.639  0.7574 -1.7188 -0.8355
14115TIP3   OH263835   6.545   1.550   0.707 -0.2338 -0.4452  0.1734
14115TIP3    H163836   6.541   1.517   0.797  1.9579 -1.0208  0.1241
14115TIP3    H263837   6.490   1.628   0.707 -1.6135 -1.3695  1.5675
14116TIP3   OH263838   1.998   6.208  14.727  0.0667 -0.5954  0.2809
14116TIP3    H163839   2.091   6.226  14.728  0.2082 -1.0847 -0.9948
14116TIP3    H263840   1.969   6.219  14.817  1.7058 -2.2112  1.0591
14117TIP3   OH263841   3.217   1.089   4.008 -0.6552  0.4876 -0.0464
14117TIP3    H163842   3.219   1.023   3.938 -1.0818  0.3539  0.0625
14117TIP3    H263843   3.303   1.131   4.004 -0.5603  0.2634 -0.4438
14118TIP3   OH263844   5.986   5.366  14.902  0.0330  0.1728  0.2782
14118TIP3    H163845   6.024   5.303  14.964  1.3716 -1.0818 -1.7034
14118TIP3    H263846   6.042   5.359  14.825 -2.3945  0.6313 -1.6152
14119TIP3   OH263847   2.237   2.865   1.038  0.1641 -0.0150  0.4758
14119TIP3    H163848   2.245   2.772   1.058  0.7486 -0.0090  0.2739
14119TIP3    H263849   2.213   2.868   0.946 -2.6073 -0.0440  1.1224
14120TIP3   OH263850   1.745   5.882   5.544 -0.5681  0.6820  0.2412
14120TIP3    H163851   1.773   5.851   5.458  2.6968  2.4515  0.4758
14120TIP3    H263852   1.759   5.808   5.602  1.1722  0.6569 -0.1629
14121TIP3   OH263853   3.666   0.703   2.285  0.3406 -0.4676 -0.1767
14121TIP3    H163854   3.618   0.733   2.208 -0.5580 -0.7441  0.2654
14121TIP3    H263855   3.757   0.701   2.257 -0.1892 -3.2776 -2.1487
14122TIP3   OH263856   0.521   6.130  10.401  0.2679 -0.2675  0.6673
14122TIP3    H163857   0.480   6.153  10.318  0.0648 -0.6504  0.6584
14122TIP3    H263858   0.459   6.158  10.468  0.5101  0.2027  0.7016
14123TIP3   OH263859   3.258   5.519  10.657  0.0775  0.0830  0.6719
14123TIP3    H163860   3.187   5.491  10.715  0.1634 -0.9954  0.2764
14123TIP3    H263861   3.215   5.550  10.578 -0.0200  1.1077  1.1193
14124TIP3   OH263862   0.097   4.082   3.548 -0.6047 -0.5472 -0.1536
14124TIP3    H163863   0.125   4.005   3.597  1.5047  1.4755  2.0587
14124TIP3    H263864   0.003   4.089   3.565 -0.5881 -1.9145  0.6177
14125TIP3   OH263865   5.994   0.776   3.403  0.3224  0.5185  0.0558
14125TIP3    H163866   5.976   0.869   3.395 -1.9504  0.1984  0.8061
14125TIP3    H263867   6.075   0.771   3.455 -1.7541  2.0685  3.7726
14126TIP3   OH263868   1.298   0.060  12.390 -0.1134  0.0635 -0.0812
14126TIP3    H163869   1.343  -0.007  12.339  0.6045 -0.4261  1.1641
14126TIP3    H263870   1.279   0.129  12.326  1.0982 -0.3584 -0.9409
14127TIP3   OH263871   1.743   6.209   5.797 -0.4006 -0.8038 -0.3337
14127TIP3    H163872   1.656   6.248   5.801 -0.3333 -0.6182 -0.6987
14127TIP3    H263873   1.749   6.157   5.877 -0.8375 -0.7992 -0.2950
14128TIP3   OH263874   0.201   4.421  14.178  0.2499  0.4976  0.4007
14128TIP3    H163875   0.292   4.394  14.167  0.1286  0.0322  0.5405
14128TIP3    H263876   0.159   4.348  14.223 -0.1235  0.8376  0.6104
14129TIP3   OH263877   1.469   5.863   0.348  0.4056  0.3211 -0.5280
14129TIP3    H163878   1.479   5.821   0.262  1.3213 -0.0957 -0.2320
14129TIP3    H263879   1.484   5.956   0.331  1.4372  0.1411 -0.6989
14130TIP3   OH263880   2.204   4.934  15.097 -0.0494 -1.1787  0.6162
14130TIP3    H163881   2.193   5.017  15.050 -0.2619 -2.2123 -1.2694
14130TIP3    H263882   2.213   4.960  15.189  2.3673  1.1110 -0.1250
14131TIP3   OH263883   0.396   2.005  10.952  0.3941 -0.0377  0.2865
14131TIP3    H163884   0.339   1.991  11.027 -2.0704  1.1192 -1.2154
14131TIP3    H263885   0.343   1.978  10.877  0.9569  3.0511 -1.3899
14132TIP3   OH263886   2.097   3.082  15.782 -0.1119 -0.0239 -0.2496
14132TIP3    H163887   2.109   3.138  15.858 -0.7757 -0.9220  0.5330
14132TIP3    H263888   2.184   3.047  15.764  0.3369  1.3198 -0.8255
14133TIP3   OH263889   4.140   1.723   4.486 -0.0253  0.0712 -0.5215
14133TIP3    H163890   4.230   1.754   4.479  0.6924 -1.3726  1.4282
14133TIP3    H263891   4.088   1.791   4.443  1.8496  1.5961 -0.5176
14134TIP3   OH263892   3.380   3.368  11.626 -0.1300  0.5893  0.1977
14134TIP3    H163893   3.309   3.305  11.637  0.4549 -0.4257 -1.5361
14134TIP3    H263894   3.357   3.418  11.548  0.9440  0.3820 -0.2729
14135TIP3   OH263895   6.532   2.293   5.587 -0.3775  0.2370  0.1314
14135TIP3    H163896   6.557   2.221   5.645  0.9702 -0.0403 -0.7285
14135TIP3    H263897   6.440   2.308   5.605 -1.1365 -2.7267 -0.7326
14136TIP3   OH263898   1.110   1.621   1.909  0.4531 -0.5349 -0.1038
14136TIP3    H163899   1.093   1.527   1.898 -0.3368 -0.2573 -1.3933
14136TIP3    H263900   1.104   1.657   1.821  0.1284  0.8370  0.4671
14137TIP3   OH263901   2.327   4.694  13.639 -0.5967 -0.2794  0.1357
14137TIP3    H163902   2.235   4.705  13.616 -0.5053  0.8480  0.2689
14137TIP3    H263903   2.372   4.767  13.596  0.1156 -0.3226  0.7787
14138TIP3   OH263904   0.951   0.614  11.892 -0.2083  0.3213  0.0404
14138TIP3    H163905   0.937   0.633  11.799 -1.5133 -0.3899  0.0610
14138TIP3    H263906   0.889   0.671  11.937 -0.6935 -0.4529  0.3708
14139TIP3   OH263907   3.051   4.669  15.646  0.0308  0.2664  0.3922
14139TIP3    H163908   3.029   4.681  15.738 -1.6387 -0.7594  0.1814
14139TIP3    H263909   2.970   4.689  15.599  0.8462  0.7743 -0.8721
14140TIP3   OH263910   5.112   1.111   2.289 -0.3548  0.2153 -0.4717
14140TIP3    H163911   5.154   1.195   2.268  0.3020 -0.1266 -0.5569
14140TIP3    H263912   5.026   1.135   2.325 -1.0253  0.8440 -2.3959
14141TIP3   OH263913   5.805   4.818  11.768 -0.0752 -0.6270  0.0398
14141TIP3    H163914   5.860   4.849  11.840 -0.7651 -3.9558  2.2214
14141TIP3    H263915   5.716   4.841  11.795 -0.1743  0.1063 -0.8918
14142TIP3   OH263916   0.987   5.137  16.754 -0.5265  0.4145  0.0182
14142TIP3    H163917   0.960   5.113  16.666  0.9887  0.6492 -0.5382
14142TIP3    H263918   0.996   5.232  16.752  2.8925  0.2377 -0.7004
14143TIP3   OH263919   5.998   3.615   2.445 -0.0259 -0.2120 -0.3524
14143TIP3    H163920   5.904   3.633   2.436  0.0573  0.0890 -0.6244
14143TIP3    H263921   6.003   3.556   2.520 -0.1584  2.1630  1.6526
14144TIP3   OH263922   6.526   5.902  13.073 -0.6768 -0.1259  0.4152
14144TIP3    H163923   6.578   5.927  12.996  1.4720 -1.7772  1.2265
14144TIP3    H263924   6.464   5.837  13.041  0.5646 -1.2051  0.1151
14145TIP3   OH263925   5.881   1.155   3.027  0.5229 -0.3386  0.2400
14145TIP3    H163926   5.844   1.205   3.100 -0.3567  0.1359 -0.5204
14145TIP3    H263927   5.805   1.123   2.978  0.9307 -3.8242  1.5477
14146TIP3   OH263928   3.622   5.803   1.876 -0.1396  0.1939 -0.7207
14146TIP3    H163929   3.577   5.719   1.878  0.3036 -0.0497 -0.8324
14146TIP3    H263930   3.552   5.868   1.873 -0.4846 -0.1680 -0.5857
14147TIP3   OH263931   0.313   5.240   5.024 -0.1027 -0.1693  0.3028
14147TIP3    H163932   0.309   5.144   5.018 -0.0016 -0.3688  2.4692
14147TIP3    H263933   0.371   5.266   4.952  0.2279 -1.7728 -0.0635
14148TIP3   OH263934   0.061   2.454   1.769  0.4411  0.1339  0.2529
14148TIP3    H163935   0.129   2.468   1.702  0.6344 -3.0069 -0.3316
14148TIP3    H263936  -0.013   2.506   1.739  1.1122  0.1569 -1.4818
14149TIP3   OH263937   6.323   4.784   0.683  0.1412  0.6087 -0.5797
14149TIP3    H163938   6.415   4.782   0.710 -0.3455  0.2520  1.1990
14149TIP3    H263939   6.326   4.784   0.588  2.0003  1.6962 -0.5735
14150TIP3   OH263940   1.266   4.017   0.747  0.0213 -0.1081  0.1815
14150TIP3    H163941   1.299   4.032   0.658  0.0299  1.9213  0.4767
14150TIP3    H263942   1.172   4.005   0.736  0.0029  0.2708 -0.1033
14151TIP3   OH263943   1.257   2.527  14.366 -0.7016  0.4170 -0.1726
14151TIP3    H163944   1.197   2.560  14.433  0.3133 -0.3277  1.1605
14151TIP3    H263945   1.239   2.433  14.362 -0.6596  0.4364 -0.8555
14152TIP3   OH263946   4.020   3.875   1.007  0.1057 -0.2808  0.2531
14152TIP3    H163947   3.962   3.909   1.075  3.2397 -2.2517  4.4071
14152TIP3    H263948   3.976   3.796   0.975 -0.8026 -0.1781  1.1982
14153TIP3   OH263949   0.046   4.857   4.926  0.3537  0.9946 -0.1172
14153TIP3    H163950   0.122   4.885   4.977 -0.0467  0.3907  0.8411
14153TIP3    H263951  -0.011   4.813   4.989 -0.3531  0.5825 -1.0094
14154TIP3   OH263952   1.312   2.748   5.686  0.1844  0.2948  0.5509
14154TIP3    H163953   1.243   2.739   5.752  0.6056 -0.0952  0.9429
14154TIP3    H263954   1.269   2.726   5.603  0.4990 -2.9354  1.1254
14155TIP3   OH263955   6.280   3.499  13.338  0.0067  0.0973 -0.3111
14155TIP3    H163956   6.326   3.421  13.369  1.1321  0.9652  0.2960
14155TIP3    H263957   6.338   3.571  13.363 -0.6030  1.0599 -1.6194
14156TIP3   OH263958   0.173   6.488  16.340  0.2640 -0.5091  0.1698
14156TIP3    H163959   0.162   6.424  16.411 -1.1672 -0.4808  0.0127
14156TIP3    H263960   0.087   6.529  16.332  1.0765  1.2653  0.0846
14157TIP3   OH263961   4.760   2.868   2.760  0.4903 -0.4262  0.0473
14157TIP3    H163962   4.794   2.787   2.799 -0.8149 -1.0479 -0.0426
14157TIP3    H263963   4.672   2.845   2.730 -0.1421  1.1930  0.5537
14158TIP3   OH263964   6.696   6.504  16.400  0.1259  0.1165  0.3505
14158TIP3    H163965   6.677   6.430  16.459 -0.6305  0.1805  0.2030
14158TIP3    H263966   6.637   6.490  16.326 -0.0359  0.8777  0.3324
14159TIP3   OH263967   0.263   2.643  14.495  0.0948  0.0696 -0.3125
14159TIP3    H163968   0.312   2.695  14.432 -0.3704 -0.1800 -0.8832
14159TIP3    H263969   0.233   2.707  14.560 -0.9400  0.6361 -1.3033
14160TIP3   OH263970   5.609   4.524  12.637  0.1413  0.0998  0.0407
14160TIP3    H163971   5.665   4.486  12.704 -1.5762 -0.7710  1.0501
14160TIP3    H263972   5.522   4.489  12.655 -0.7427  1.3327 -1.5072
14161TIP3   OH263973   0.634   5.011  14.895 -0.2256 -0.6231 -0.1592
14161TIP3    H163974   0.689   5.074  14.848  2.3621 -2.1094  0.7094
14161TIP3    H263975   0.634   4.933  14.839 -1.7940 -0.5426 -0.3096
14162TIP3   OH263976   1.362   5.237   4.663  0.0955  0.2304 -0.5509
14162TIP3    H163977   1.282   5.184   4.657  0.9922 -1.0666 -1.2941
14162TIP3    H263978   1.433   5.175   4.649  1.2895  1.2400  0.8099
14163TIP3   OH263979   4.248   1.202  11.011  0.5917  0.4749 -0.6307
14163TIP3    H163980   4.339   1.173  11.019  0.1782 -0.9436 -0.7618
14163TIP3    H263981   4.242   1.278  11.070  1.3719 -0.6030  0.9308
14164TIP3   OH263982   3.154   0.961  13.587 -0.0839  0.3188 -0.1124
14164TIP3    H163983   3.163   1.056  13.587 -1.7863  0.5230  0.5396
14164TIP3    H263984   3.077   0.945  13.531  0.7154 -0.7535 -0.9388
14165TIP3   OH263985   2.745   1.033  11.063  0.7183  0.0430  0.5799
14165TIP3    H163986   2.666   1.082  11.086  1.9608  2.0546  0.7460
14165TIP3    H263987   2.754   1.045  10.968  1.5797  1.0711  0.7685
14166TIP3   OH263988   4.815   0.367  11.812  0.3142  0.3317 -0.0383
14166TIP3    H163989   4.870   0.317  11.873  0.6224 -0.9518 -1.3073
14166TIP3    H263990   4.877   0.415  11.757  0.1739 -0.5657 -1.0127
14167TIP3   OH263991   3.421   5.582   1.846 -0.9927  0.0172 -0.1536
14167TIP3    H163992   3.332   5.589   1.812 -1.0377 -0.7423 -0.2148
14167TIP3    H263993   3.414   5.522   1.919 -0.6544  0.5640  0.3345
14168TIP3   OH263994   6.268   0.485  14.111 -0.3708 -0.3468  0.4230
14168TIP3    H163995   6.187   0.435  14.121  1.0079 -3.2703 -1.5591
14168TIP3    H263996   6.251   0.544  14.038 -0.5901 -1.3823 -0.3917
14169TIP3   OH263997   3.908   2.373   2.240 -0.3721 -0.1381  0.4904
14169TIP3    H163998   3.880   2.368   2.149  1.0147 -0.2754  0.0650
14169TIP3    H263999   3.962   2.296   2.253  0.0175  0.2529  1.2312
14170TIP3   OH264000   5.847   6.232  11.477 -0.2500 -0.2888  0.0610
14170TIP3    H164001   5.758   6.205  11.502  0.1236 -0.6869  1.0057
14170TIP3    H264002   5.858   6.318  11.519 -0.2368 -0.1634 -0.1931
14171TIP3   OH264003   2.827   1.609  13.890 -0.6083 -0.4316 -0.3051
14171TIP3    H164004   2.905   1.575  13.936 -0.2500 -1.2083 -1.4470
14171TIP3    H264005   2.761   1.542  13.904 -0.1424 -1.2628 -1.8820
14172TIP3   OH264006   4.746   6.379   1.458  0.0681  0.4591 -0.2612
14172TIP3    H164007   4.782   6.307   1.511 -1.2554  0.1173  0.1928
14172TIP3    H264008   4.703   6.436   1.521  2.7295  2.7633 -0.3351
14173TIP3   OH264009   3.021   4.671  16.660  0.1937  1.0268 -0.3517
14173TIP3    H164010   2.957   4.628  16.717  0.1446  0.2938 -0.9398
14173TIP3    H264011   3.103   4.667  16.709  0.7275 -1.8261 -1.2760
14174TIP3   OH264012   5.150   2.138   0.615 -0.0579  0.0287  0.0233
14174TIP3    H164013   5.225   2.081   0.601 -1.3578 -2.4052  2.2320
14174TIP3    H264014   5.161   2.173   0.703 -0.8194  0.7958 -0.1660
14175TIP3   OH264015   3.007   3.812  14.345 -0.3544  0.0282  0.0856
14175TIP3    H164016   3.073   3.869  14.305 -0.4715  0.0489 -0.0810
14175TIP3    H264017   2.982   3.858  14.425  0.0483 -0.1260  0.3014
14176TIP3   OH264018   2.602   6.449   3.490  0.9121  0.5311 -0.1019
14176TIP3    H164019   2.618   6.355   3.478 -0.1744  0.3996 -0.5842
14176TIP3    H264020   2.620   6.488   3.405 -0.6625  0.4600 -0.4927
14177TIP3   OH264021   3.945   0.883  15.291  0.2706  0.3461 -0.3381
14177TIP3    H164022   3.878   0.842  15.237 -0.1917  1.3052 -0.5235
14177TIP3    H264023   3.906   0.889  15.378  1.6645 -2.8060  0.6277
14178TIP3   OH264024   3.995   6.560   2.571  0.2180  0.5216 -0.1917
14178TIP3    H164025   3.936   6.546   2.497  0.0676  1.9231 -0.3767
14178TIP3    H264026   3.942   6.541   2.648  0.5392 -1.4924 -0.4323
14179TIP3   OH264027   1.842   3.987   1.758  0.4927  0.1692 -0.1338
14179TIP3    H164028   1.784   3.949   1.692  1.9638 -2.8812  0.1917
14179TIP3    H264029   1.846   3.923   1.828  2.4205  1.3439  0.9340
14180TIP3   OH264030   5.129   5.784  11.275 -0.3549 -0.3027 -0.1875
14180TIP3    H164031   5.218   5.761  11.301 -0.8603 -2.3295 -0.0078
14180TIP3    H264032   5.121   5.878  11.291  1.1970 -0.4110  1.4376
14181TIP3   OH264033   1.166   1.596   2.561  0.1992 -0.6746  0.2204
14181TIP3    H164034   1.073   1.578   2.579  0.2083 -1.4579 -0.4914
14181TIP3    H264035   1.165   1.659   2.490  0.2094 -1.5627 -0.5869
14182TIP3   OH264036   3.701   0.624  12.873  0.2609 -0.8505  0.1035
14182TIP3    H164037   3.720   0.713  12.903  0.1852 -0.5955 -0.5895
14182TIP3    H264038   3.612   0.630  12.837  0.4177 -1.1027 -0.3354
14183TIP3   OH264039   3.165   6.360   0.733  0.8258 -0.0404 -0.2526
14183TIP3    H164040   3.080   6.397   0.755  1.7752  1.2187  1.6205
14183TIP3    H264041   3.151   6.265   0.731 -1.0912  0.2149 -2.4521
14184TIP3   OH264042   4.500   4.825   6.152  0.1524 -0.0365  0.1844
14184TIP3    H164043   4.427   4.839   6.211  0.0800 -0.1169  0.1147
14184TIP3    H264044   4.519   4.731   6.158 -0.8106 -0.3307 -1.0201
14185TIP3   OH264045   3.891   0.914   2.700  0.3329  0.0728 -0.0970
14185TIP3    H164046   3.954   0.880   2.763 -0.0371  0.2338  0.3733
14185TIP3    H264047   3.843   0.837   2.669 -1.8975  0.2609  2.4899
14186TIP3   OH264048   3.674   6.355   3.597 -0.1093 -0.4720  0.2687
14186TIP3    H164049   3.752   6.384   3.550  0.4605 -1.9285  0.2569
14186TIP3    H264050   3.602   6.373   3.537  0.2289  0.6875  0.1909
14187TIP3   OH264051   1.949   1.158   5.789  0.1520 -0.5005  0.4781
14187TIP3    H164052   1.998   1.222   5.840 -1.2428  1.3741 -0.3961
14187TIP3    H264053   1.992   1.157   5.704 -0.2182 -0.2281  0.2858
14188TIP3   OH264054   0.865   1.594   2.103 -0.5181 -0.0525  0.2231
14188TIP3    H164055   0.800   1.664   2.115 -0.7072  0.0793 -1.3536
14188TIP3    H264056   0.942   1.638   2.067  0.4199 -0.2469  1.8691
14189TIP3   OH264057   4.807   4.029  11.221  0.3058  0.4477  0.0960
14189TIP3    H164058   4.796   3.933  11.223 -0.0413  0.4455 -1.0687
14189TIP3    H264059   4.719   4.062  11.201  0.8325  0.8755 -1.6453
14190TIP3   OH264060   5.649   2.780   0.337  0.0726 -0.1105 -0.4240
14190TIP3    H164061   5.717   2.725   0.377  0.8706  0.7990 -0.4965
14190TIP3    H264062   5.578   2.782   0.401  0.0252 -1.2106 -0.4199
14191TIP3   OH264063   6.631   6.829  14.314 -0.0029 -0.0590  0.5681
14191TIP3    H164064   6.666   6.740  14.322 -0.4437 -0.2717  0.1992
14191TIP3    H264065   6.707   6.886  14.325  0.2811 -0.4841  0.8089
14192TIP3   OH264066   5.099   0.761   3.892  0.4822  0.5289 -0.1254
14192TIP3    H164067   5.026   0.747   3.952 -0.0732 -3.6973 -1.4274
14192TIP3    H264068   5.060   0.800   3.815  0.0347  0.4637  0.0670
14193TIP3   OH264069   1.136   6.589  15.707  0.1569  0.1851 -0.5420
14193TIP3    H164070   1.145   6.513  15.763 -0.1208  0.6244  0.1102
14193TIP3    H264071   1.143   6.555  15.618 -3.1895 -1.1189 -0.4318
14194TIP3   OH264072   3.413   4.401  13.550  0.2525  0.1646 -0.1928
14194TIP3    H164073   3.425   4.335  13.482 -2.0960  0.5596 -1.0684
14194TIP3    H264074   3.374   4.353  13.623 -0.7883  0.4241 -0.5651
14195TIP3   OH264075   0.604   3.182  16.606  0.1252  0.1551 -0.0397
14195TIP3    H164076   0.653   3.129  16.543  0.2515 -0.8180  0.8556
14195TIP3    H264077   0.517   3.192  16.567 -0.1885 -1.4923  0.1709
14196TIP3   OH264078   1.271   2.300   3.177 -0.0694 -0.6177 -0.0950
14196TIP3    H164079   1.192   2.332   3.221 -0.9229 -2.3390 -0.3001
14196TIP3    H264080   1.341   2.316   3.240 -0.1358  2.8699 -0.7028
14197TIP3   OH264081   1.793   3.805   0.391 -0.3088  0.0505 -0.0794
14197TIP3    H164082   1.726   3.767   0.447 -0.5162  1.5271  0.7366
14197TIP3    H264083   1.874   3.800   0.442  0.2887 -1.8550 -1.1156
14198TIP3   OH264084   3.256   6.298   4.025  0.3910 -0.0009  0.0768
14198TIP3    H164085   3.252   6.215   3.977  2.0123  0.2823 -0.6305
14198TIP3    H264086   3.342   6.334   4.003  0.3261  1.1562  1.5714
14199TIP3   OH264087   6.239   4.177  12.481  0.1287  0.1138  0.6291
14199TIP3    H164088   6.311   4.220  12.528  0.3205 -2.0938  2.5791
14199TIP3    H264089   6.249   4.085  12.504 -2.1074 -0.5301 -0.7734
14200TIP3   OH264090   0.845   1.588   3.780 -0.0626 -0.0045 -0.1238
14200TIP3    H164091   0.819   1.537   3.857 -0.9595 -0.2180 -0.5656
14200TIP3    H264092   0.764   1.608   3.735 -0.1086  3.8162  1.2020
14201TIP3   OH264093   0.918   4.287   4.756  0.5342 -0.4764 -0.0846
14201TIP3    H164094   1.002   4.321   4.726  0.5654  0.6183  1.1470
14201TIP3    H264095   0.938   4.244   4.839 -0.0253 -0.6947 -0.0598
14202TIP3   OH264096   2.126   2.059  16.161 -0.4561 -0.7982  0.0448
14202TIP3    H164097   2.060   2.084  16.096  0.2654 -0.3179 -0.5200
14202TIP3    H264098   2.116   2.124  16.231 -1.2978 -1.3728  0.4728
14203TIP3   OH264099   0.440   3.666   0.873  0.2382 -0.4419 -0.5197
14203TIP3    H164100   0.492   3.747   0.865 -2.0016  1.1938  0.4699
14203TIP3    H264101   0.420   3.660   0.966 -0.3219 -1.7290 -0.7041
14204TIP3   OH264102   0.925   4.976   2.753  0.5612  0.0196  0.6475
14204TIP3    H164103   0.852   4.977   2.815  1.8941  0.4370  2.2981
14204TIP3    H264104   0.977   4.900   2.779  1.7997  0.9218  0.8841
14205TIP3   OH264105   6.656   4.499   5.260 -0.3311  0.4730  0.1118
14205TIP3    H164106   6.707   4.418   5.260 -0.7157  0.1837  1.7313
14205TIP3    H264107   6.721   4.568   5.271 -0.1653  0.1965  0.9652
14206TIP3   OH264108   2.787   0.561  10.672  0.1748 -0.0863  0.1070
14206TIP3    H164109   2.780   0.536  10.764  1.6071  0.2540  0.3299
14206TIP3    H264110   2.808   0.480  10.626 -0.2747 -0.2075  0.1133
14207TIP3   OH264111   5.099   2.579  13.593  0.5090 -0.5829  0.0332
14207TIP3    H164112   5.059   2.509  13.541 -1.1335 -0.8114  1.5135
14207TIP3    H264113   5.137   2.533  13.669  4.5697 -0.5084 -1.6966
14208TIP3   OH264114   1.475   0.145   4.221 -0.6010 -0.1253  0.1447
14208TIP3    H164115   1.509   0.225   4.180  0.5386 -0.4100  0.5080
14208TIP3    H264116   1.552   0.102   4.258 -1.0976 -1.6959 -0.5585
14209TIP3   OH264117   6.684   1.082   0.304 -0.1004  0.1264 -0.1040
14209TIP3    H164118   6.621   1.061   0.374  0.0211 -0.3469 -0.1350
14209TIP3    H264119   6.769   1.057   0.340  0.1469  1.3045  0.1598
14210TIP3   OH264120   4.906   5.409  13.112 -0.0771  0.0609 -0.0282
14210TIP3    H164121   4.864   5.382  13.030 -0.8845  1.1994 -0.0074
14210TIP3    H264122   4.954   5.488  13.089  0.9876 -0.4759  0.2655
14211TIP3   OH264123   2.581   0.768  16.235 -0.5952  0.4781 -0.1733
14211TIP3    H164124   2.500   0.805  16.200 -0.6611 -0.1929 -0.7505
14211TIP3    H264125   2.572   0.673  16.222 -0.7300  0.1593  1.9082
14212TIP3   OH264126   1.550   5.370   5.905  0.0857  0.2376  0.6048
14212TIP3    H164127   1.539   5.279   5.880  0.4480  0.4602 -0.4132
14212TIP3    H264128   1.640   5.375   5.938  0.6706  0.5502 -0.9414
14213TIP3   OH264129   1.944   2.674   0.296  0.1506  0.1507  0.0577
14213TIP3    H164130   1.917   2.584   0.277 -0.5149  0.8396 -2.8368
14213TIP3    H264131   2.026   2.665   0.345 -1.2641 -1.9823  2.2959
14214TIP3   OH264132   5.694   3.527   0.266 -0.2718  0.5584 -0.3173
14214TIP3    H164133   5.620   3.555   0.211 -0.1481  0.7131 -0.4057
14214TIP3    H264134   5.674   3.436   0.288 -0.9105  0.8548  0.3508
14215TIP3   OH264135   3.380   1.386  15.424  0.1172  0.4789 -0.1316
14215TIP3    H164136   3.406   1.295  15.435 -0.6869  0.4031  1.3350
14215TIP3    H264137   3.462   1.435  15.424  0.4601 -0.0845  0.8546
14216TIP3   OH264138   1.195   3.864   6.052  0.1202 -0.3562 -0.2561
14216TIP3    H164139   1.203   3.807   6.127 -2.2929 -0.6371 -0.1069
14216TIP3    H264140   1.133   3.932   6.080 -1.3041 -0.7908 -2.0834
14217TIP3   OH264141   4.696   0.800  11.369 -0.0452  0.4775 -0.9349
14217TIP3    H164142   4.721   0.716  11.331 -1.3235 -0.4140  0.0980
14217TIP3    H264143   4.762   0.815  11.437  0.2614  0.3677 -1.2056
14218TIP3   OH264144   2.725   0.039  13.163  0.2870  0.5788  0.1723
14218TIP3    H164145   2.633   0.043  13.189  0.3721  0.5290  0.4861
14218TIP3    H264146   2.771   0.011  13.242  0.3407 -1.4171 -0.5061
14219TIP3   OH264147   4.619   1.864  15.717  1.0199 -0.0422  0.3370
14219TIP3    H164148   4.615   1.886  15.810 -1.2721  1.7647 -0.0860
14219TIP3    H264149   4.634   1.947  15.673  1.6543 -0.8027 -0.9386
14220TIP3   OH264150   5.370   3.349   4.604  0.1062 -0.4060  0.8185
14220TIP3    H164151   5.275   3.346   4.590  0.1589  0.0638  0.3576
14220TIP3    H264152   5.382   3.412   4.675  0.0568 -0.6678  1.0622
14221TIP3   OH264153   1.263   1.678  12.081 -0.1507 -0.0457  0.4595
14221TIP3    H164154   1.242   1.744  12.014  0.5874 -1.9978 -1.8392
14221TIP3    H264155   1.179   1.636  12.100 -0.8805  2.1957  2.8765
14222TIP3   OH264156   2.369   5.658  12.566 -0.2351 -0.1170  0.2596
14222TIP3    H164157   2.355   5.660  12.661 -2.8994 -0.6903 -0.0542
14222TIP3    H264158   2.393   5.568  12.547  0.6461  0.0777  0.4008
14223TIP3   OH264159   2.405   1.534   3.776  0.2238 -0.8941 -0.4925
14223TIP3    H164160   2.331   1.588   3.807  0.6516 -1.4062  1.5814
14223TIP3    H264161   2.448   1.505   3.856  3.0450 -0.1629 -1.6376
14224TIP3   OH264162   1.972   2.428   2.820 -0.1638  0.2972 -0.6812
14224TIP3    H164163   1.961   2.458   2.910 -2.4043 -1.1830 -0.3804
14224TIP3    H264164   2.065   2.409   2.813 -0.2217 -1.6502  2.0784
14225TIP3   OH264165   6.355   1.622   3.556  0.5135 -0.0952  0.2107
14225TIP3    H164166   6.262   1.643   3.542  0.3305  0.1136  1.5520
14225TIP3    H264167   6.390   1.701   3.598  1.3534 -0.1090 -0.4455
14226TIP3   OH264168   2.571   1.323   5.219  0.2238  0.0099  0.5054
14226TIP3    H164169   2.650   1.281   5.251  0.3671 -1.5660 -1.7071
14226TIP3    H264170   2.561   1.291   5.130 -2.3936  0.9183  0.3816
14227TIP3   OH264171   6.361   3.599  16.966  0.2436 -0.2327 -0.4191
14227TIP3    H164172   6.430   3.659  16.937 -1.0163  1.2075 -0.5794
14227TIP3    H264173   6.317   3.572  16.886  0.0226 -0.4021 -0.2414
14228TIP3   OH264174   6.650   1.732  16.507  0.2597  0.0529  0.1055
14228TIP3    H164175   6.625   1.644  16.479 -1.3359  0.3724  0.4461
14228TIP3    H264176   6.581   1.789  16.473 -1.4049  0.5637  3.7882
14229TIP3   OH264177   4.338   0.566  12.886 -0.6472 -0.2582 -0.1579
14229TIP3    H164178   4.399   0.579  12.959 -1.4353  1.0005  0.3129
14229TIP3    H264179   4.305   0.477  12.898 -1.7647  0.3586  1.8375
14230TIP3   OH264180   5.883   0.121  11.093 -0.2281 -0.0111 -0.2934
14230TIP3    H164181   5.806   0.155  11.139 -1.3797  0.7441 -2.6149
14230TIP3    H264182   5.858   0.032  11.068 -0.3880  0.2607 -1.1162
14231TIP3   OH264183   2.468   5.417   2.477 -0.1479 -0.4258  0.0990
14231TIP3    H164184   2.535   5.353   2.452 -0.1443 -0.3905  0.0160
14231TIP3    H264185   2.429   5.382   2.556  2.3215  1.2034  2.1948
14232TIP3   OH264186   2.594   3.117   2.671 -0.2930 -0.0884 -0.6487
14232TIP3    H164187   2.629   3.039   2.626 -0.1287 -1.6471  1.9792
14232TIP3    H264188   2.671   3.169   2.693  0.1321 -1.4932  1.5172
14233TIP3   OH264189   5.457   2.071  14.945  0.0379 -0.2714  0.4590
14233TIP3    H164190   5.408   1.989  14.945  2.1124 -1.5861  0.3461
14233TIP3    H264191   5.533   2.054  15.002  0.9369  1.2950 -0.1984
14234TIP3   OH264192   3.427   0.216  11.344  0.2429 -0.5979  0.0814
14234TIP3    H164193   3.345   0.167  11.346 -1.1051  1.5430  0.7824
14234TIP3    H264194   3.400   0.308  11.338  2.6358  0.1013 -1.2599
14235TIP3   OH264195   1.486   6.785   3.934  0.0324 -0.3534  0.2233
14235TIP3    H164196   1.409   6.811   3.884 -1.0332 -1.4483  1.2348
14235TIP3    H264197   1.525   6.868   3.963  0.2803  0.2771 -1.7611
14236TIP3   OH264198   4.285   0.136   3.590 -0.0198  0.0549  0.6765
14236TIP3    H164199   4.286   0.228   3.562  0.0039 -0.0519  0.3112
14236TIP3    H264200   4.200   0.125   3.633  0.3419  0.4698  1.5163
14237TIP3   OH264201   2.268   1.579  12.283  0.6908 -0.5848 -0.1115
14237TIP3    H164202   2.340   1.563  12.343 -1.2081 -0.4940  2.3426
14237TIP3    H264203   2.207   1.506  12.299 -0.9976  0.7781 -0.0635
14238TIP3   OH264204   2.773   5.937   6.554  0.0713  0.8867 -0.3012
14238TIP3    H164205   2.863   5.905   6.556  0.1324  0.9080 -1.5316
14238TIP3    H264206   2.739   5.919   6.641  1.1700  0.6002  0.0915
14239TIP3   OH264207   6.148   5.020   0.991 -0.1220  0.7998  0.5423
14239TIP3    H164208   6.115   5.110   0.998  1.4346  1.4735 -0.2401
14239TIP3    H264209   6.078   4.973   0.946  0.4399  2.5379 -2.4697
14240TIP3   OH264210   3.974   2.358   6.330  0.2814 -0.1844 -0.1883
14240TIP3    H164211   4.041   2.402   6.279 -1.1323  1.5342 -0.6433
14240TIP3    H264212   3.995   2.265   6.322  1.0437  0.1288 -2.5529
14241TIP3   OH264213   2.953   3.511  15.381  0.2074  0.4790  0.1512
14241TIP3    H164214   2.994   3.550  15.458 -0.5262  2.9520 -0.6266
14241TIP3    H264215   2.868   3.482  15.412  0.5461 -0.0338  0.6228
14242TIP3   OH264216   0.129   5.101  12.118  0.2509  0.2444  0.8085
14242TIP3    H164217   0.112   5.097  12.212  0.9058 -2.1882  0.8753
14242TIP3    H264218   0.223   5.115  12.111  0.1106  1.0984  0.4781
14243TIP3   OH264219   3.523   5.815   2.550  0.0856 -0.6749  0.0725
14243TIP3    H164220   3.509   5.900   2.592 -1.1577 -1.4132  1.2324
14243TIP3    H264221   3.545   5.837   2.459 -2.8773  0.8413 -0.3897
14244TIP3   OH264222   2.070   3.267   5.120 -0.1794 -0.0256  0.2917
14244TIP3    H164223   1.992   3.294   5.170  0.3213 -0.7687  1.5229
14244TIP3    H264224   2.143   3.286   5.179  0.4631 -0.5465 -0.3307
14245TIP3   OH264225   5.684   3.551   4.510 -0.4870  0.4521  0.3706
14245TIP3    H164226   5.688   3.628   4.452 -1.5660  0.4439  0.2675
14245TIP3    H264227   5.595   3.517   4.499 -0.0723 -0.7269  0.5361
14246TIP3   OH264228   0.448   4.996  14.534  0.0040 -0.3914  0.1193
14246TIP3    H164229   0.448   5.068  14.471  0.2466  1.5702  2.2785
14246TIP3    H264230   0.506   4.930  14.494 -3.0970 -1.2307 -3.7330
14247TIP3   OH264231   5.893   0.362  15.641  0.1607 -0.2887 -0.2451
14247TIP3    H164232   5.969   0.391  15.692  1.3062 -1.4618 -1.2012
14247TIP3    H264233   5.834   0.437  15.639  0.7498  0.2542  1.5412
14248TIP3   OH264234   1.601   6.530  11.980 -0.3299 -0.0692  0.2823
14248TIP3    H164235   1.518   6.505  11.939  0.2838 -0.5275 -0.7004
14248TIP3    H264236   1.658   6.554  11.907  1.0446 -1.6688  0.7704
14249TIP3   OH264237   4.539   2.928  15.116  0.2203  0.3174 -0.1430
14249TIP3    H164238   4.492   2.938  15.198 -0.2484 -0.9084 -0.2427
14249TIP3    H264239   4.600   3.002  15.114 -0.9313  1.3230  0.4925
14250TIP3   OH264240   1.029   2.254   4.121  0.2779 -0.1259 -0.0381
14250TIP3    H164241   1.048   2.234   4.213  2.6340 -1.7451 -0.7670
14250TIP3    H264242   1.049   2.347   4.111  1.8254 -0.3428  0.7348
14251TIP3   OH264243   0.342   2.257  13.748 -0.3843 -0.7085  0.3382
14251TIP3    H164244   0.268   2.221  13.700 -1.5151  0.9205  0.7792
14251TIP3    H264245   0.411   2.191  13.740 -1.1123 -1.2693 -2.0339
14252TIP3   OH264246   2.700   0.762   2.191 -0.3335 -0.0357 -0.6283
14252TIP3    H164247   2.712   0.725   2.278 -1.5227 -1.9945 -1.2482
14252TIP3    H264248   2.768   0.720   2.138  0.7879  1.6072 -0.5864
14253TIP3   OH264249   4.798   0.673   2.617 -0.1411  0.4020 -0.5167
14253TIP3    H164250   4.814   0.589   2.660 -0.0956  1.0512  0.7804
14253TIP3    H264251   4.868   0.681   2.553  0.5242 -0.0311  0.1436
14254TIP3   OH264252   4.935   0.336  12.494 -0.1554  0.1235  0.3696
14254TIP3    H164253   4.848   0.339  12.454  0.3304  0.9085 -0.6707
14254TIP3    H264254   4.993   0.376  12.429  1.2686 -1.8496  0.3258
14255TIP3   OH264255   5.110   5.258   3.276  0.4081  0.1077 -0.5165
14255TIP3    H164256   5.090   5.201   3.202  1.8565 -0.1182 -0.7604
14255TIP3    H264257   5.196   5.296   3.255  0.3472  0.8856  0.5389
14256TIP3   OH264258   4.694   1.698  16.734 -0.2084 -0.2529 -0.4030
14256TIP3    H164259   4.685   1.694  16.829 -5.1811  1.2352 -0.5597
14256TIP3    H264260   4.677   1.609  16.704  0.3434 -0.5090  0.0266
14257TIP3   OH264261   4.198   6.768  14.707  0.2250  0.1480 -0.1013
14257TIP3    H164262   4.116   6.724  14.730  0.4474  0.2845  1.0055
14257TIP3    H264263   4.265   6.720  14.755  0.7815  0.1396 -0.8707
14258TIP3   OH264264   0.524   1.136  17.099  0.0455 -1.1961  0.4126
14258TIP3    H164265   0.600   1.117  17.044 -1.5305 -1.9433 -1.6119
14258TIP3    H264266   0.494   1.222  17.070 -0.2308 -1.1601  0.7914
14259TIP3   OH264267   4.056   2.085  10.611  0.0005 -0.2649 -0.5442
14259TIP3    H164268   4.118   2.012  10.613  1.1978  0.7328  0.8896
14259TIP3    H264269   4.081   2.139  10.685 -2.0976  0.6203 -0.4283
14260TIP3   OH264270   3.843   4.231  15.482  0.0604  0.4436 -0.3582
14260TIP3    H164271   3.883   4.224  15.396 -0.9273 -0.9748 -0.7254
14260TIP3    H264272   3.751   4.255  15.464  0.2112  1.6970  0.3838
14261TIP3   OH264273   5.490   5.091  16.986  0.6902 -0.1738  0.2083
14261TIP3    H164274   5.457   5.005  16.956  0.7755  0.4087 -1.7209
14261TIP3    H264275   5.565   5.070  17.041  0.2502 -1.3736  0.3852
14262TIP3   OH264276   6.583   4.374   1.620  0.8257  0.7212  0.0718
14262TIP3    H164277   6.644   4.352   1.550  0.5370  0.7407 -0.1920
14262TIP3    H264278   6.560   4.465   1.605  1.7741  1.1246  0.9788
14263TIP3   OH264279   5.718   6.275   2.121 -0.2127  0.7881 -0.2306
14263TIP3    H164280   5.724   6.240   2.209 -0.0444  1.0680 -0.1301
14263TIP3    H264281   5.627   6.302   2.112 -0.8402 -1.3865 -0.9658
14264TIP3   OH264282   0.425   1.063   2.600  0.3943 -0.5240 -0.3738
14264TIP3    H164283   0.459   1.009   2.672  1.0656 -0.2772 -0.5022
14264TIP3    H264284   0.444   1.153   2.626 -0.1167 -0.3863 -0.4747
14265TIP3   OH264285   4.323   2.918   0.611  0.1288  0.1657 -0.2177
14265TIP3    H164286   4.329   2.861   0.688  1.4594 -0.0403 -0.4550
14265TIP3    H264287   4.240   2.892   0.570  0.1507 -0.8052  0.3010
14266TIP3   OH264288   5.080   3.242   2.302  0.7124 -0.1301  0.0149
14266TIP3    H164289   5.157   3.227   2.247  0.3520 -1.6442 -0.1102
14266TIP3    H264290   5.073   3.164   2.356 -0.5635  0.1260  0.2581
14267TIP3   OH264291   4.399   0.516   4.961 -0.1083 -0.3388  0.0611
14267TIP3    H164292   4.395   0.577   4.886 -0.5376 -1.3325 -0.7488
14267TIP3    H264293   4.331   0.451   4.942  1.5513 -2.1244 -0.0420
14268TIP3   OH264294   6.287   3.116  10.625  0.0744 -0.4501  0.1421
14268TIP3    H164295   6.262   3.037  10.577 -0.0981  0.6871 -1.7165
14268TIP3    H264296   6.382   3.120  10.618 -0.0315  0.3637 -1.2600
14269TIP3   OH264297   5.684   6.457  13.308  0.2595  0.6321 -0.0143
14269TIP3    H164298   5.670   6.496  13.222  0.2807  1.9969  0.5719
14269TIP3    H264299   5.620   6.386  13.313  1.3860 -0.5778 -1.7894
14270TIP3   OH264300   4.798   3.122  11.064  0.8726  0.1486 -0.4018
14270TIP3    H164301   4.812   3.079  10.980 -1.5257 -0.7127 -0.4380
14270TIP3    H264302   4.785   3.214  11.042 -0.1852 -0.1392 -1.0668
14271TIP3   OH264303   2.108   6.464  17.017 -0.3176  0.0069 -0.0326
14271TIP3    H164304   2.145   6.550  17.034  0.1607 -0.5446  1.9695
14271TIP3    H264305   2.182   6.404  17.027 -1.3304 -0.9655  2.4411
14272TIP3   OH264306   6.034   4.439   3.353 -0.1625  0.3194 -0.2518
14272TIP3    H164307   6.030   4.531   3.329  0.5853  0.0914 -1.3235
14272TIP3    H264308   6.105   4.434   3.418 -0.0242  0.4645 -0.3905
14273TIP3   OH264309   6.121   5.093   3.296  0.7131 -0.5399 -0.1044
14273TIP3    H164310   6.091   5.175   3.335  2.4117 -0.8724  2.1192
14273TIP3    H264311   6.041   5.042   3.282 -0.2712  1.0623 -0.5896
14274TIP3   OH264312   3.073   2.624  15.851  0.1616 -0.6734  0.3015
14274TIP3    H164313   3.053   2.706  15.806 -1.2362 -1.7322 -1.0997
14274TIP3    H264314   3.169   2.619  15.849  0.3207  1.2640  1.1016
14275TIP3   OH264315   1.866   3.085   2.209  0.6765  0.0313 -0.4152
14275TIP3    H164316   1.806   3.158   2.194  0.6838  0.1105 -0.0832
14275TIP3    H264317   1.831   3.041   2.286  0.7507 -0.2338 -0.5328
14276TIP3   OH264318   5.504   2.627  15.186  0.4154 -0.3595 -0.1000
14276TIP3    H164319   5.498   2.618  15.281 -0.6331  0.6218 -0.0412
14276TIP3    H264320   5.433   2.687  15.163  0.5469 -0.6984 -1.5285
14277TIP3   OH264321   3.838   2.306   1.967 -0.2079  0.8649 -0.1899
14277TIP3    H164322   3.762   2.265   2.008 -0.3571  0.7408 -0.5832
14277TIP3    H264323   3.801   2.360   1.897  0.1030  0.3251 -0.7819
14278TIP3   OH264324   3.421   6.382  14.090  0.4707 -0.4018  0.3665
14278TIP3    H164325   3.475   6.321  14.041  0.5297 -1.4160  1.6438
14278TIP3    H264326   3.446   6.369  14.181 -2.0857 -1.1329  1.0588
14279TIP3   OH264327   2.298   5.870  12.939  0.4679  0.2814 -1.2093
14279TIP3    H164328   2.305   5.930  13.013 -0.3023  0.6619 -1.4354
14279TIP3    H264329   2.331   5.922  12.865 -0.0501  0.3729 -1.3767
14280TIP3   OH264330   1.638   0.551   2.360 -0.0168 -0.2773  0.0850
14280TIP3    H164331   1.672   0.624   2.307  0.6960 -0.9702 -0.4261
14280TIP3    H264332   1.545   0.549   2.340 -0.0788  0.5982  0.2274
14281TIP3   OH264333   6.258   1.713   1.157 -0.0049  0.7790 -0.3501
14281TIP3    H164334   6.176   1.705   1.109 -0.6444 -0.1506  0.8217
14281TIP3    H264335   6.291   1.800   1.136 -0.9610  0.9143 -1.3515
14282TIP3   OH264336   0.976   5.642  15.419  0.0678  0.1455  0.0427
14282TIP3    H164337   0.977   5.709  15.351 -0.8061  0.8310  0.6928
14282TIP3    H264338   0.936   5.566  15.378 -1.6490  0.9639  0.1438
14283TIP3   OH264339   1.054   1.374  11.895 -0.5844  0.2540 -0.0269
14283TIP3    H164340   1.081   1.410  11.980 -0.1315  2.2098 -0.9295
14283TIP3    H264341   0.958   1.383  11.895 -0.6345 -0.2700  0.4941
14284TIP3   OH264342   4.951   0.353   3.654  0.1199  0.2449  0.8177
14284TIP3    H164343   4.865   0.356   3.698  0.0352  0.4626  0.6356
14284TIP3    H264344   4.935   0.300   3.576 -0.2139  1.5519 -0.0205
14285TIP3   OH264345   2.334   1.131   5.205 -0.3094  0.0169  0.0840
14285TIP3    H164346   2.346   1.153   5.297  0.1832  0.2771 -0.0400
14285TIP3    H264347   2.422   1.129   5.169 -0.5881  1.7478 -0.8067
14286TIP3   OH264348   4.457   3.014   5.282  0.3488  0.4412  0.3244
14286TIP3    H164349   4.418   3.064   5.354 -0.5820  0.5941 -0.2649
14286TIP3    H264350   4.384   2.998   5.222  1.6243  3.0340 -2.1765
14287TIP3   OH264351   6.328   5.402  10.715  0.0676 -0.0555  0.1066
14287TIP3    H164352   6.283   5.342  10.656  1.0066 -1.3782  0.6819
14287TIP3    H264353   6.410   5.357  10.737 -0.1567  0.4620  2.2509
14288TIP3   OH264354   5.519   0.073  15.917 -0.2786 -0.2438  0.3385
14288TIP3    H164355   5.496   0.107  15.831 -0.8405 -2.4518 -0.4344
14288TIP3    H264356   5.596   0.124  15.943  0.8611 -0.5777 -2.1597
14289TIP3   OH264357   0.651   2.997  13.490  0.2252  0.1649  0.0773
14289TIP3    H164358   0.633   3.091  13.493 -1.9151 -0.2201  1.4909
14289TIP3    H264359   0.705   2.981  13.568 -0.1239  0.1091  0.3107
14290TIP3   OH264360   4.326   2.060  15.991  0.3120 -0.1554  0.0224
14290TIP3    H164361   4.417   2.077  15.965 -0.6275  1.2650 -2.6962
14290TIP3    H264362   4.308   1.972  15.958  0.3408  0.0370 -0.5098
14291TIP3   OH264363   3.899   2.598   2.900  0.1691 -0.3508  0.0700
14291TIP3    H164364   3.864   2.594   2.811  2.5817 -0.7716 -0.9701
14291TIP3    H264365   3.992   2.617   2.887  0.4504  0.2356  2.5624
14292TIP3   OH264366   6.617   0.816  14.773  0.1869  0.1726 -0.5405
14292TIP3    H164367   6.525   0.811  14.746  0.2523  0.1984 -0.7665
14292TIP3    H264368   6.614   0.853  14.861 -0.1632 -1.5741  0.2389
14293TIP3   OH264369   3.079   2.580  14.316  0.2175 -0.1223  0.1385
14293TIP3    H164370   3.103   2.673  14.323 -0.5965 -0.0008  2.3645
14293TIP3    H264371   3.107   2.554  14.229  0.6976  2.1546 -0.4528
14294TIP3   OH264372   4.044   6.201   1.849  0.3958  0.0418 -0.2218
14294TIP3    H164373   4.008   6.264   1.912  0.6898  0.0170 -0.0280
14294TIP3    H264374   4.063   6.123   1.901  1.5257  0.3515 -0.1571
14295TIP3   OH264375   4.668   5.563   5.632  0.5932 -0.0053  0.2490
14295TIP3    H164376   4.643   5.475   5.604 -2.1054  1.1756 -1.4890
14295TIP3    H264377   4.763   5.559   5.639  0.5923 -2.9899  0.0638
14296TIP3   OH264378   3.293   4.394  12.958  0.6892 -0.0155  0.2346
14296TIP3    H164379   3.384   4.368  12.973  0.6151  0.2431  1.1749
14296TIP3    H264380   3.245   4.311  12.956  0.8302 -0.1090  0.5886
14297TIP3   OH264381   4.814   4.679  12.215  0.1506  0.1225 -0.2544
14297TIP3    H164382   4.906   4.706  12.215  0.2697 -0.2187 -1.9452
14297TIP3    H264383   4.769   4.749  12.263  1.4032 -0.2691  1.6194
14298TIP3   OH264384   2.139   1.207   1.021 -0.3319  0.7612 -0.2285
14298TIP3    H164385   2.130   1.219   0.927  1.1439 -0.9241 -0.6236
14298TIP3    H264386   2.053   1.174   1.049  0.4212 -3.0044 -1.7806
14299TIP3   OH264387   0.146   1.422  12.696 -0.1433  0.0114  0.0192
14299TIP3    H164388   0.071   1.432  12.755 -0.8364 -0.5023 -0.7516
14299TIP3    H264389   0.202   1.357  12.740 -0.3850  0.0261  0.3547
14300TIP3   OH264390   2.631   2.312   3.084  0.0088  0.4266 -0.4330
14300TIP3    H164391   2.627   2.347   2.995  1.0134  3.1062  0.4730
14300TIP3    H264392   2.630   2.389   3.140 -0.2239 -1.1667  1.8930
14301TIP3   OH264393   2.832   4.554   2.805  0.2383 -0.3135  0.2394
14301TIP3    H164394   2.749   4.564   2.850  0.1963  1.4145 -0.1672
14301TIP3    H264395   2.880   4.635   2.823  1.7041 -1.1211  0.1877
14302TIP3   OH264396   0.406   4.802  11.634 -0.0363 -0.2893  0.2131
14302TIP3    H164397   0.431   4.894  11.641  0.4288 -0.2048 -1.9323
14302TIP3    H264398   0.484   4.758  11.600  0.5735 -1.9858  3.4207
14303TIP3   OH264399   0.306   3.036  14.602 -0.0183 -0.1252 -0.5541
14303TIP3    H164400   0.335   2.998  14.519  0.7741 -0.8151  0.0137
14303TIP3    H264401   0.369   3.105  14.621 -0.2842  0.1322 -0.5869
14304TIP3   OH264402   2.388   5.868   1.360 -0.6398  0.5323 -0.4476
14304TIP3    H164403   2.394   5.872   1.265 -0.6774 -0.3277 -0.4971
14304TIP3    H264404   2.360   5.778   1.378 -0.5010  0.6476  0.3797
14305TIP3   OH264405   6.228   1.395   4.306 -0.0607 -0.1246  0.9073
14305TIP3    H164406   6.246   1.378   4.214  0.8705  0.0730  1.0370
14305TIP3    H264407   6.212   1.309   4.344 -0.7609 -0.1782  0.5058
14306TIP3   OH264408   1.834   2.490   6.484 -0.0046  0.6379 -0.0468
14306TIP3    H164409   1.791   2.476   6.400 -0.6726  0.6604  0.2830
14306TIP3    H264410   1.786   2.563   6.524  1.8006  2.2317 -0.6459
14307TIP3   OH264411   5.636   0.159  11.762 -0.2130 -0.2439 -0.7088
14307TIP3    H164412   5.698   0.151  11.834 -0.4656  1.3424 -0.2697
14307TIP3    H264413   5.579   0.232  11.788  1.2610  2.1219 -3.6210
14308TIP3   OH264414   4.597   4.951  13.380 -0.0252  0.0561 -0.3723
14308TIP3    H164415   4.653   4.879  13.351  0.4497  0.6476 -0.9691
14308TIP3    H264416   4.522   4.948  13.321  1.0690  1.4269 -1.9218
14309TIP3   OH264417   3.272   5.301  15.023  0.4419 -0.4859 -0.5370
14309TIP3    H164418   3.286   5.376  14.965  0.2427 -0.5405 -0.6597
14309TIP3    H264419   3.263   5.338  15.110  3.9653 -0.5909  0.0265
14310TIP3   OH264420   0.656   2.889  12.416  0.6315 -0.1054  0.2805
14310TIP3    H164421   0.586   2.824  12.418 -0.0093  0.4430 -1.7050
14310TIP3    H264422   0.611   2.973  12.415  1.0435  0.2612 -3.7385
14311TIP3   OH264423   2.691   4.725  13.963  0.0434  0.1501  0.5345
14311TIP3    H164424   2.722   4.812  13.938 -0.5033 -0.4255 -2.6169
14311TIP3    H264425   2.599   4.724  13.935  0.0856 -1.4754  0.3616
14312TIP3   OH264426   1.651   4.332   2.879 -0.3811 -0.5542  0.0884
14312TIP3    H164427   1.619   4.409   2.927 -0.1847  0.1881 -0.9451
14312TIP3    H264428   1.664   4.363   2.790 -0.1031 -1.7478 -0.3007
14313TIP3   OH264429   1.579   6.240   6.213  0.0519  0.6028  0.3086
14313TIP3    H164430   1.591   6.301   6.141  0.0802  2.8375  2.0773
14313TIP3    H264431   1.487   6.249   6.238  0.1372  0.1671  0.7967
14314TIP3   OH264432   6.327   6.281  14.973  0.2862  0.2338 -0.0736
14314TIP3    H164433   6.368   6.270  14.888 -2.9584  0.4374 -1.8526
14314TIP3    H264434   6.307   6.192  15.002  0.0414  0.2068 -0.3130
14315TIP3   OH264435   6.666   2.333   4.693  0.0547  0.4671  0.7356
14315TIP3    H164436   6.632   2.331   4.604  1.4158  0.8346  0.1902
14315TIP3    H264437   6.729   2.261   4.696 -1.1651 -0.6358  1.9341
14316TIP3   OH264438   0.773   0.732   0.375  0.2519 -0.2746  0.7122
14316TIP3    H164439   0.750   0.677   0.300  0.3157 -1.3991  1.4914
14316TIP3    H264440   0.691   0.742   0.423  0.1303  0.7541  0.3169
14317TIP3   OH264441   1.303   6.381  14.821 -0.0150  0.2386 -0.0674
14317TIP3    H164442   1.338   6.452  14.767 -0.9471  1.9462  1.4804
14317TIP3    H264443   1.216   6.365  14.785  1.4915 -2.8900 -2.8673
14318TIP3   OH264444   4.784   1.135   5.103  0.0832  0.1782  0.8779
14318TIP3    H164445   4.761   1.071   5.036 -0.4747  0.5103  0.7555
14318TIP3    H264446   4.702   1.178   5.126  0.8584  3.2023 -1.4197
14319TIP3   OH264447   2.598   0.923  12.302 -0.0498  0.1223 -0.0374
14319TIP3    H164448   2.578   1.016  12.286  2.8334  0.5380 -2.0017
14319TIP3    H264449   2.566   0.878  12.223  0.7421 -0.1741 -0.1935
14320TIP3   OH264450   3.460   5.347  13.539 -0.3935 -0.6680  0.0077
14320TIP3    H164451   3.447   5.284  13.611 -0.8613  0.3482  0.8466
14320TIP3    H264452   3.450   5.433  13.581 -0.1842 -0.0418 -1.1923
14321TIP3   OH264453   1.809   0.773  16.761 -0.3785 -0.3374  0.3207
14321TIP3    H164454   1.870   0.750  16.831 -1.2821  1.0237  1.6248
14321TIP3    H264455   1.789   0.866  16.777 -0.6153  0.0175 -1.7606
14322TIP3   OH264456   4.161   3.938   5.679 -0.1496  0.4376 -0.2872
14322TIP3    H164457   4.192   3.848   5.677 -0.0461  0.4817 -1.5764
14322TIP3    H264458   4.203   3.980   5.604  0.0829  1.6605  0.4911
14323TIP3   OH264459   0.033   6.218   0.078 -0.2712  0.4200 -0.3026
14323TIP3    H164460   0.037   6.124   0.057 -3.5828  0.2240 -0.5141
14323TIP3    H264461   0.076   6.261   0.004 -0.6510 -0.8548 -1.2958
14324TIP3   OH264462   0.191   1.198   6.218  0.4188  0.2833 -0.0168
14324TIP3    H164463   0.259   1.153   6.167  0.0830  0.9641 -1.1049
14324TIP3    H264464   0.231   1.212   6.304  1.6549  0.6366 -0.6216
14325TIP3   OH264465   3.864   2.340   5.458  0.0455  0.0698 -0.4524
14325TIP3    H164466   3.903   2.254   5.473 -0.8728 -0.1942  0.5631
14325TIP3    H264467   3.804   2.326   5.384  0.7307  0.1117 -1.0189
14326TIP3   OH264468   1.352   2.620   1.841  0.6559 -0.6680  0.3795
14326TIP3    H164469   1.408   2.565   1.787  1.5173 -0.3594  0.9514
14326TIP3    H264470   1.289   2.657   1.779  1.0031 -1.1109 -0.2488
14327TIP3   OH264471   6.825   2.759  16.425  0.7811  0.5835 -0.4789
14327TIP3    H164472   6.735   2.793  16.431  1.2556  1.9979 -0.8279
14327TIP3    H264473   6.878   2.837  16.405  2.0854 -0.2287 -0.2750
14328TIP3   OH264474   1.491   1.730   2.712  0.3847 -0.2021  0.1889
14328TIP3    H164475   1.551   1.782   2.764 -0.0981 -0.3166  0.8776
14328TIP3    H264476   1.433   1.688   2.776  0.7673 -1.6002 -0.3383
14329TIP3   OH264477   1.256   6.831   1.757  0.6913  0.1982 -0.3669
14329TIP3    H164478   1.279   6.903   1.815 -0.8846  0.6392 -0.2604
14329TIP3    H264479   1.225   6.762   1.815 -3.4216  1.5468 -0.6336
14330TIP3   OH264480   2.464   5.508  16.807  0.2664 -0.0938  0.3605
14330TIP3    H164481   2.393   5.560  16.770 -0.6914 -1.3990  0.3490
14330TIP3    H264482   2.522   5.574  16.848 -0.8935  0.9840  0.3288
14331TIP3   OH264483   1.382   0.345   2.308 -0.1590 -0.1185 -0.2371
14331TIP3    H164484   1.368   0.340   2.402  0.7751 -0.6880 -0.1057
14331TIP3    H264485   1.446   0.276   2.290  0.7844  0.9306 -1.0551
14332TIP3   OH264486   1.114   1.058  11.242  0.1547 -0.3873  0.1146
14332TIP3    H164487   1.019   1.046  11.234  0.3240 -0.9004 -1.4227
14332TIP3    H264488   1.138   1.003  11.317 -0.8771  0.5273  1.1518
14333TIP3   OH264489   2.780   4.174   6.428  0.2095  0.8258 -0.2112
14333TIP3    H164490   2.834   4.185   6.506 -0.2660  2.1721 -0.0405
14333TIP3    H264491   2.743   4.086   6.436  2.5254 -0.2215 -0.4674
14334TIP3   OH264492   4.899   6.270   0.195 -0.0611  0.4099  0.2487
14334TIP3    H164493   4.937   6.303   0.277 -1.0528 -0.0119  0.9037
14334TIP3    H264494   4.810   6.244   0.219 -0.4548  0.5224 -1.0387
14335TIP3   OH264495   5.069   5.646  13.659  0.2348  0.3111  0.1219
14335TIP3    H164496   5.052   5.563  13.703  0.3871 -0.4596 -1.2291
14335TIP3    H264497   4.988   5.665  13.611  0.5513  0.4111 -0.3858
14336TIP3   OH264498   5.820   1.243   4.017 -0.7838  0.2952  0.7854
14336TIP3    H164499   5.864   1.166   3.981 -1.4658  0.4114 -0.3501
14336TIP3    H264500   5.768   1.209   4.090 -0.6798 -0.2391  0.6178
14337TIP3   OH264501   1.635   1.260   3.883 -0.2706 -0.1032 -0.1920
14337TIP3    H164502   1.670   1.308   3.809 -2.0882  3.2407  0.9070
14337TIP3    H264503   1.709   1.252   3.944 -0.1732  2.6725  0.1605
14338TIP3   OH264504   4.139   3.508  10.893 -0.2426 -0.0618 -0.4193
14338TIP3    H164505   4.178   3.470  10.814 -0.8011  0.5521 -1.0106
14338TIP3    H264506   4.140   3.602  10.877 -0.2576  0.0789  0.3672
14339TIP3   OH264507   2.887   3.091   5.591 -0.1605  0.0596 -0.1171
14339TIP3    H164508   2.810   3.090   5.648  0.6636 -0.0300  1.0317
14339TIP3    H264509   2.872   3.020   5.528 -2.4885  2.0676 -1.9991
14340TIP3   OH264510   2.307   3.821  16.322  0.0742  0.2926  0.4508
14340TIP3    H164511   2.376   3.755  16.319 -0.2816 -0.1762  1.7776
14340TIP3    H264512   2.278   3.830  16.231  0.6982 -0.7569  0.1270
14341TIP3   OH264513   2.254   3.533  14.684  0.1095  0.1466 -0.5289
14341TIP3    H164514   2.274   3.577  14.766 -1.2174 -1.6119  0.8213
14341TIP3    H264515   2.166   3.498  14.697  0.5930 -1.7742 -1.9805
14342TIP3   OH264516   4.650   1.952  12.432  0.3534  0.2268 -0.0210
14342TIP3    H164517   4.596   2.026  12.461 -0.1097 -0.2409  0.3388
14342TIP3    H264518   4.698   1.926  12.511  0.3082 -0.0235 -0.0737
14343TIP3   OH264519   5.593   5.283  12.779  0.3176 -0.8826 -0.0121
14343TIP3    H164520   5.638   5.253  12.858  0.2240 -1.8021 -0.2869
14343TIP3    H264521   5.533   5.351  12.810  0.2183 -1.2903  0.7312
14344TIP3   OH264522   5.161   1.228   4.018 -0.4345 -0.4630  0.1079
14344TIP3    H164523   5.233   1.289   4.034 -0.6596  0.2945 -1.5722
14344TIP3    H264524   5.161   1.171   4.095  1.1730  0.2804  0.7140
14345TIP3   OH264525   3.478   1.744  12.244  0.2134  0.6528 -0.0834
14345TIP3    H164526   3.510   1.720  12.331 -1.3333 -2.5533 -0.2618
14345TIP3    H264527   3.383   1.746  12.252  0.0195  0.0964 -1.7132
14346TIP3   OH264528   3.031   0.067   0.052  0.2687  0.1282  0.4630
14346TIP3    H164529   3.024   0.159   0.026  1.1454 -0.2316 -1.2144
14346TIP3    H264530   3.047   0.070   0.146 -0.9088  1.6222  0.6733
14347TIP3   OH264531   3.146   6.413   3.626 -0.0884  0.0153 -0.7012
14347TIP3    H164532   3.219   6.462   3.590  1.3379 -1.3600  0.2002
14347TIP3    H264533   3.175   6.322   3.626 -0.7217 -0.2814  2.0753
14348TIP3   OH264534   6.537   0.630  12.599 -0.1896 -0.2910 -0.8185
14348TIP3    H164535   6.515   0.697  12.664 -0.5948 -0.0999 -1.1463
14348TIP3    H264536   6.478   0.558  12.618  0.3456 -0.6247 -0.3724
14349TIP3   OH264537   6.468   3.637   3.984  0.5811  0.7856 -0.2153
14349TIP3    H164538   6.431   3.561   4.028  2.6268 -0.5710 -0.7192
14349TIP3    H264539   6.419   3.643   3.901  1.4112 -0.9857 -0.8850
14350TIP3   OH264540   4.616   1.318  15.054 -0.3015  0.1236  0.5287
14350TIP3    H164541   4.615   1.395  14.996  1.5786  0.3512  0.7378
14350TIP3    H264542   4.525   1.306  15.078 -0.7412  1.9018 -0.0413
14351TIP3   OH264543   6.497   4.029  14.671  0.2876 -0.1525  0.3527
14351TIP3    H164544   6.510   3.938  14.643  1.2784  0.2309 -0.4979
14351TIP3    H264545   6.494   4.079  14.589 -2.0348  0.4140  0.7051
14352TIP3   OH264546   6.686   6.090  12.258  0.4866  0.5206 -0.5841
14352TIP3    H164547   6.745   6.147  12.307 -1.3653  2.5769 -0.6047
14352TIP3    H264548   6.697   6.117  12.167 -0.1536  0.5889 -0.6420
14353TIP3   OH264549   3.699   4.472  13.551 -0.7430  0.0566 -0.2151
14353TIP3    H164550   3.604   4.484  13.551 -0.8031 -0.4021 -0.2024
14353TIP3    H264551   3.728   4.511  13.634 -0.5929  2.5717 -1.3438
14354TIP3   OH264552   3.244   4.448   5.066  0.3642 -0.0840  0.0198
14354TIP3    H164553   3.313   4.389   5.096  1.0232  0.5034 -0.3168
14354TIP3    H264554   3.174   4.437   5.131  1.6719  1.0042  1.7216
14355TIP3   OH264555   1.942   1.829   0.501  0.2052 -0.2915  0.5311
14355TIP3    H164556   1.982   1.881   0.571  0.2567  0.3541  0.0255
14355TIP3    H264557   1.993   1.748   0.500  0.0635 -0.4084  1.3865
14356TIP3   OH264558   2.111   6.434   0.701  0.1936  0.3372 -0.2748
14356TIP3    H164559   2.094   6.474   0.616  1.1481  0.7920 -0.2641
14356TIP3    H264560   2.198   6.395   0.693  0.0707 -0.0788  0.3266
14357TIP3   OH264561   4.567   0.731  16.392  0.0750 -0.5980  0.0089
14357TIP3    H164562   4.527   0.791  16.329 -0.4850  1.5828  2.2947
14357TIP3    H264563   4.497   0.711  16.454  1.2189 -0.6750  1.3274
14358TIP3   OH264564   0.611   1.312   5.447  0.3017  0.0053 -0.0629
14358TIP3    H164565   0.525   1.303   5.488  0.1537  0.6376 -0.2336
14358TIP3    H264566   0.671   1.267   5.508  0.0553  0.7698  0.7609
14359TIP3   OH264567   1.701   6.326   2.410 -0.0927  0.2214  0.2966
14359TIP3    H164568   1.679   6.258   2.474 -0.7429  1.2271  1.1882
14359TIP3    H264569   1.723   6.278   2.330  0.4730 -1.0628  1.1877
14360TIP3   OH264570   3.770   1.214  13.577 -0.2826 -0.2386 -0.7580
14360TIP3    H164571   3.818   1.164  13.511 -0.5772 -0.2014 -1.0052
14360TIP3    H264572   3.678   1.190  13.563 -0.2807 -0.8238  0.1538
14361TIP3   OH264573   2.925   4.002  16.360 -0.3281 -0.4012  0.3010
14361TIP3    H164574   2.915   3.991  16.455  0.6584  0.5920  0.5458
14361TIP3    H264575   2.997   4.065  16.351  0.3202 -1.2900 -1.1343
14362TIP3   OH264576   3.872   4.122   4.879 -0.1023 -0.0137 -0.0302
14362TIP3    H164577   3.920   4.124   4.962  0.6969 -1.6831 -0.4057
14362TIP3    H264578   3.920   4.059   4.825 -1.5689 -0.2290 -1.1565
14363TIP3   OH264579   5.605   2.988   0.736 -0.2018 -0.0983 -0.1935
14363TIP3    H164580   5.673   3.037   0.782  0.8912 -0.5771 -1.2094
14363TIP3    H264581   5.558   3.054   0.685 -0.9185  0.3223  0.9895
14364TIP3   OH264582   5.581   0.988   2.206  0.1245  0.0483  0.0242
14364TIP3    H164583   5.619   0.989   2.293 -0.7371  1.2690  0.4130
14364TIP3    H264584   5.614   1.067   2.164 -0.5126  0.1677 -0.2757
14365TIP3   OH264585   2.801   3.966   1.645 -0.0434  0.3763 -0.0512
14365TIP3    H164586   2.791   4.024   1.569  0.0453  2.5359  1.5227
14365TIP3    H264587   2.878   3.999   1.691 -0.7556 -0.1676  1.5841
14366TIP3   OH264588   4.910   5.686   1.708  0.9477  0.5094  0.2273
14366TIP3    H164589   4.836   5.744   1.728  0.1674 -0.1933 -0.5251
14366TIP3    H264590   4.878   5.598   1.731  0.8705 -0.0305 -1.7108
14367TIP3   OH264591   2.188   6.283  13.567  0.1459  0.2409 -0.2118
14367TIP3    H164592   2.254   6.297  13.500  0.2250 -0.1107 -0.2057
14367TIP3    H264593   2.115   6.241  13.521  0.6996 -1.1788  0.1714
14368TIP3   OH264594   1.525   1.112  11.328 -0.0035 -0.3537 -0.0713
14368TIP3    H164595   1.621   1.114  11.332 -0.0372 -0.6190  1.6766
14368TIP3    H264596   1.499   1.200  11.356 -0.2794 -0.2763 -0.5660
14369TIP3   OH264597   6.463   4.133   2.156 -0.4361  0.0711 -0.1042
14369TIP3    H164598   6.377   4.107   2.189 -0.3686 -0.4060 -0.3072
14369TIP3    H264599   6.456   4.125   2.061 -0.2578  0.3192 -0.1409
14370TIP3   OH264600   3.815   1.758  12.665 -0.2644 -0.4172  0.2533
14370TIP3    H164601   3.745   1.786  12.724  1.0927 -0.1770  1.8192
14370TIP3    H264602   3.863   1.691  12.715  1.9767  1.0445  0.1787
14371TIP3   OH264603   4.106   3.449   2.199 -0.3377  0.4882 -0.3036
14371TIP3    H164604   4.067   3.365   2.223 -0.2428  0.3580 -0.5948
14371TIP3    H264605   4.166   3.428   2.128 -1.1432  0.9625 -1.1501
14372TIP3   OH264606   0.980   1.635  16.779  0.0215  0.2088 -0.5808
14372TIP3    H164607   1.037   1.577  16.729 -0.0631 -1.0323  0.6815
14372TIP3    H264608   1.019   1.636  16.867  0.0477  2.1392 -0.5835
14373TIP3   OH264609   4.819   1.526  11.032 -0.3094  0.1066  0.6480
14373TIP3    H164610   4.890   1.482  11.078  3.1972  0.8849 -3.4183
14373TIP3    H264611   4.834   1.619  11.049 -2.8414  0.2621  2.7321
14374TIP3   OH264612   4.147   3.749   5.395  0.5229 -0.3574 -0.6948
14374TIP3    H164613   4.230   3.704   5.375  0.6938 -0.5679  0.4145
14374TIP3    H264614   4.110   3.699   5.467 -1.0556 -0.8227 -1.7813
14375TIP3   OH264615   1.444   0.225   3.695 -0.3511 -0.5419 -0.1175
14375TIP3    H164616   1.444   0.290   3.624 -1.7383 -0.8758 -0.4574
14375TIP3    H264617   1.352   0.216   3.719  0.0427 -0.7969  1.4188
14376TIP3   OH264618   5.946   0.272   5.759 -0.1747  0.5490  0.3537
14376TIP3    H164619   5.911   0.351   5.801  0.5448  0.4169  1.2296
14376TIP3    H264620   6.039   0.290   5.749 -0.0745 -0.0387  0.2052
14377TIP3   OH264621   4.527   2.891   2.043  0.0306 -0.4859  0.4164
14377TIP3    H164622   4.585   2.941   1.986  0.1734  0.4361  1.3343
14377TIP3    H264623   4.458   2.858   1.985  0.7639 -0.5012 -0.4589
14378TIP3   OH264624   6.702   2.211  15.090 -0.2142 -0.2944  0.7367
14378TIP3    H164625   6.688   2.286  15.032  1.9897 -1.2284 -1.2285
14378TIP3    H264626   6.618   2.197  15.134 -1.1324  2.3056 -0.0247
14379TIP3   OH264627   4.588   6.227  16.839 -0.0989  0.5642 -0.0365
14379TIP3    H164628   4.498   6.212  16.809 -0.2427  1.3589 -0.0099
14379TIP3    H264629   4.625   6.139  16.845 -0.7562  0.2481 -0.4115
14380TIP3   OH264630   3.833   1.304  11.659  0.1039  0.0939 -0.0971
14380TIP3    H164631   3.778   1.258  11.596  0.4665 -1.5785  0.7433
14380TIP3    H264632   3.855   1.387  11.617 -2.0637  0.3006 -0.9445
14381TIP3   OH264633   1.513   2.603   0.873 -0.2599  0.2058 -0.6890
14381TIP3    H164634   1.506   2.692   0.908 -0.8964 -0.0476 -0.1687
14381TIP3    H264635   1.436   2.593   0.817  1.5587  1.2155 -3.6456
14382TIP3   OH264636   2.519   5.278  16.676  0.1480 -0.2355  0.1369
14382TIP3    H164637   2.494   5.360  16.717  0.0569 -0.0089 -0.3616
14382TIP3    H264638   2.612   5.268  16.698  0.4664  0.5873 -0.7519
14383TIP3   OH264639   4.905   5.349   2.393 -0.6590 -0.1733  0.0228
14383TIP3    H164640   4.814   5.362   2.365 -0.4507  1.4435 -0.0242
14383TIP3    H264641   4.954   5.339   2.312 -0.7983 -1.1462  0.0519
14384TIP3   OH264642   5.642   3.522   6.371  0.0669  0.0286  0.3257
14384TIP3    H164643   5.672   3.441   6.411  1.5036  0.0484 -0.6524
14384TIP3    H264644   5.680   3.591   6.425 -1.2891  0.1002  1.2561
14385TIP3   OH264645   2.694   5.525  12.320 -0.0084 -0.3456 -0.1702
14385TIP3    H164646   2.636   5.458  12.357  0.0670  0.9455  2.4713
14385TIP3    H264647   2.779   5.482  12.314 -0.1127 -0.7161  0.8374
14386TIP3   OH264648   1.000   5.947   1.899  0.1821 -0.1533 -0.3109
14386TIP3    H164649   1.000   6.042   1.888  2.7998  0.1583  1.4841
14386TIP3    H264650   0.943   5.931   1.974  0.2841  0.0814 -0.1837
14387TIP3   OH264651   4.490   4.340   1.044  0.9405 -0.1812  0.0541
14387TIP3    H164652   4.537   4.407   0.994  0.1846  0.4130  0.1248
14387TIP3    H264653   4.434   4.297   0.979  1.2732 -0.6090  0.0494
14388TIP3   OH264654   4.952   2.805  11.824 -0.6210 -0.1410 -0.1815
14388TIP3    H164655   4.931   2.750  11.748 -2.3386  0.5161 -0.2378
14388TIP3    H264656   4.997   2.881  11.787  2.9668 -1.9426  0.0236
14389TIP3   OH264657   6.034   5.650   2.407 -0.2451  0.7365 -0.0068
14389TIP3    H164658   6.130   5.651   2.400 -0.3357  0.5232 -1.6499
14389TIP3    H264659   6.004   5.625   2.320 -1.9025  4.0596 -0.5456
14390TIP3   OH264660   2.582   2.179  12.624  0.2748 -0.3696  0.0403
14390TIP3    H164661   2.664   2.160  12.670  0.1992 -0.5679  0.0959
14390TIP3    H264662   2.543   2.251  12.673  2.3254  2.5663 -2.2694
14391TIP3   OH264663   4.303   6.733  15.908  0.7227  0.3140  0.2646
14391TIP3    H164664   4.308   6.642  15.937  1.7457  0.1673 -0.2916
14391TIP3    H264665   4.356   6.735  15.828 -2.3832  0.5404 -1.9867
14392TIP3   OH264666   6.434   5.288   4.369 -0.0752  1.2385 -0.3763
14392TIP3    H164667   6.351   5.311   4.328 -0.8182 -1.8998 -0.9342
14392TIP3    H264668   6.409   5.253   4.455  0.3822 -1.1451 -1.1211
14393TIP3   OH264669   2.036   3.531   5.269  0.4458 -0.0575  0.2240
14393TIP3    H164670   2.073   3.455   5.223  0.2548 -0.0618  0.0796
14393TIP3    H264671   2.038   3.602   5.205  0.5715  0.0467  0.3417
14394TIP3   OH264672   4.832   2.870  14.572  0.3193 -0.2074  0.1835
14394TIP3    H164673   4.767   2.803  14.592  0.3678 -0.5746 -0.8487
14394TIP3    H264674   4.816   2.894  14.481  1.2348  0.1419  0.0989
14395TIP3   OH264675   0.082   5.410   3.849  0.0842  0.6241  0.6234
14395TIP3    H164676   0.090   5.405   3.944 -0.0708  0.2468  0.6208
14395TIP3    H264677   0.045   5.497   3.833  0.6152  0.8962  0.8687
14396TIP3   OH264678   1.863   4.726   5.877 -0.5225 -0.4035  0.0579
14396TIP3    H164679   1.895   4.725   5.787 -1.8882  0.4883 -0.4633
14396TIP3    H264680   1.799   4.655   5.881 -0.4559 -0.4516  0.3384
14397TIP3   OH264681   5.907   2.822   0.844 -1.0310  0.7593 -0.1374
14397TIP3    H164682   5.859   2.751   0.886 -0.4694  0.1670 -0.4752
14397TIP3    H264683   5.878   2.901   0.889 -0.0588  0.1013  1.7427
14398TIP3   OH264684   0.300   6.373   0.098 -0.5033  0.6064 -0.1823
14398TIP3    H164685   0.258   6.366   0.012 -0.9327  0.4351  0.0338
14398TIP3    H264686   0.324   6.283   0.120 -0.5507  0.6245 -0.0509
14399TIP3   OH264687   0.027   6.579   1.248 -0.2942  0.0664 -0.4050
14399TIP3    H164688  -0.003   6.621   1.167 -0.0820  1.8479  0.3900
14399TIP3    H264689  -0.053   6.563   1.298 -0.2885  0.5960 -0.2231
14400TIP3   OH264690   2.992   4.383   3.159  0.6407 -0.2002  0.2377
14400TIP3    H164691   2.970   4.371   3.251  0.8607  1.9217  0.6320
14400TIP3    H264692   2.909   4.408   3.118  0.6678 -0.5267 -0.0191
14401TIP3   OH264693   2.339   3.724  12.432 -0.0907 -0.0400  0.2771
14401TIP3    H164694   2.248   3.754  12.439  0.4897  2.2561 -1.0712
14401TIP3    H264695   2.384   3.769  12.504  0.2660  0.0519 -0.0036
14402TIP3   OH264696   4.905   6.603  12.267  0.5729 -0.2961 -0.0574
14402TIP3    H164697   4.869   6.692  12.272 -2.6557 -1.5324  1.7770
14402TIP3    H264698   4.957   6.593  12.346 -2.8976 -1.3353  2.3312
14403TIP3   OH264699   3.373   5.614  17.024 -0.5945 -0.0292 -0.4622
14403TIP3    H164700   3.308   5.543  17.019  0.4982 -1.0826 -0.0458
14403TIP3    H264701   3.445   5.584  16.970  1.0392 -0.4982  1.8383
14404TIP3   OH264702   0.779   3.600   3.934  0.2333 -0.7283  0.7687
14404TIP3    H164703   0.770   3.695   3.934  0.7413 -0.6441 -0.8847
14404TIP3    H264704   0.871   3.585   3.910  0.9987 -1.6451  3.8159
14405TIP3   OH264705   5.508   5.507  15.746 -0.0059  0.5682  0.2590
14405TIP3    H164706   5.503   5.546  15.659  2.2858  0.4117 -0.0185
14405TIP3    H264707   5.467   5.421  15.736  0.1502  0.5921 -0.6470
14406TIP3   OH264708   0.495   4.883   2.515 -0.5859  0.4811 -0.2289
14406TIP3    H164709   0.478   4.859   2.424  0.1556 -0.7186 -0.0688
14406TIP3    H264710   0.587   4.906   2.518  0.4153 -3.0545  0.8645
14407TIP3   OH264711   4.199   3.167  11.271 -0.6519  0.1488 -0.4521
14407TIP3    H164712   4.139   3.101  11.305 -0.5432  0.8831  1.2434
14407TIP3    H264713   4.145   3.219  11.212 -1.3205 -0.0652 -0.0425
14408TIP3   OH264714   2.487   0.830   2.058 -0.2067 -0.1937  0.6302
14408TIP3    H164715   2.540   0.836   1.979  0.1766  1.9249  0.9857
14408TIP3    H264716   2.549   0.810   2.128 -0.0948  0.6472  0.7879
14409TIP3   OH264717   0.140   5.182   1.606 -0.0424  0.0785 -0.4905
14409TIP3    H164718   0.219   5.171   1.659 -0.8451  0.8642  0.9369
14409TIP3    H264719   0.081   5.232   1.662 -2.8417 -3.2586 -0.1720
14410TIP3   OH264720   4.141   3.040  15.124  0.1597  0.4179 -0.1750
14410TIP3    H164721   4.086   2.994  15.061  0.6442 -0.5443  0.0760
14410TIP3    H264722   4.161   3.123  15.083  0.6575 -0.2860 -1.4060
14411TIP3   OH264723   2.928   6.055  13.087 -0.0430 -0.0110  0.3243
14411TIP3    H164724   2.867   6.113  13.042 -1.0464 -0.2930  1.2833
14411TIP3    H264725   2.889   5.968  13.080  0.7660 -0.3553  0.0638
14412TIP3   OH264726   2.126   4.391  11.701  0.0702 -0.0795  0.1675
14412TIP3    H164727   2.078   4.467  11.669  0.8814  0.2366 -0.3202
14412TIP3    H264728   2.197   4.379  11.638 -0.5867 -1.8226 -0.2919
14413TIP3   OH264729   4.924   1.874  16.623 -0.4225  0.4313  0.2163
14413TIP3    H164730   4.917   1.870  16.527  1.4419 -0.0664  0.0705
14413TIP3    H264731   4.846   1.828  16.655 -1.3705  1.1023 -1.0342
14414TIP3   OH264732   4.135   6.300  11.217 -0.1584 -0.0336  0.1643
14414TIP3    H164733   4.073   6.366  11.248  1.0201  0.9127  0.5838
14414TIP3    H264734   4.080   6.227  11.188 -1.4800  0.9634  0.0657
14415TIP3   OH264735   5.993   2.884   0.601 -0.1185 -0.1479  0.2335
14415TIP3    H164736   5.953   2.868   0.686  0.4509  0.2041  0.5730
14415TIP3    H264737   6.051   2.958   0.615  3.1907 -2.5812  0.5907
14416TIP3   OH264738   6.797   3.621  13.199 -0.1529 -0.2227  0.5992
14416TIP3    H164739   6.781   3.656  13.287  2.4773  0.1676  0.9963
14416TIP3    H264740   6.821   3.530  13.214 -0.6979 -0.4440  0.1554
14417TIP3   OH264741   0.177   3.697  15.941  0.2778  0.3907 -0.6344
14417TIP3    H164742   0.167   3.792  15.950  3.8615  1.0796 -1.9962
14417TIP3    H264743   0.183   3.683  15.846  2.1643 -0.8059 -0.3776
14418TIP3   OH264744   1.686   3.993  11.101  0.5331 -0.7558 -0.3280
14418TIP3    H164745   1.592   3.997  11.085  0.5362  1.3782 -0.1574
14418TIP3    H264746   1.721   3.940  11.030 -0.8592 -2.1161 -0.0312
14419TIP3   OH264747   4.105   4.873   3.112 -0.3207  0.0225 -0.1007
14419TIP3    H164748   4.148   4.807   3.058  0.3815  0.8779 -0.6278
14419TIP3    H264749   4.177   4.923   3.152 -0.8298 -0.0935  1.0118
14420TIP3   OH264750   5.559   3.173  13.990 -0.4313  0.3047 -0.1828
14420TIP3    H164751   5.487   3.231  14.013 -1.3724 -1.2731  1.0479
14420TIP3    H264752   5.635   3.230  13.984 -1.2869  1.6444  1.0931
14421TIP3   OH264753   4.186   2.239   0.605  0.2480 -0.0773  0.5519
14421TIP3    H164754   4.274   2.269   0.583 -0.0429  0.6889  0.3916
14421TIP3    H264755   4.141   2.317   0.638 -0.4780 -0.3772  0.3088
14422TIP3   OH264756   2.747   0.448   2.045 -0.0411  0.7390 -0.2058
14422TIP3    H164757   2.827   0.500   2.044 -0.0504  0.8578  1.4730
14422TIP3    H264758   2.699   0.475   1.967  1.5341  0.6747 -1.2210
14423TIP3   OH264759   1.419   2.310   1.430  0.0050 -0.2686 -0.4208
14423TIP3    H164760   1.490   2.251   1.457 -1.0691 -1.8816 -0.9275
14423TIP3    H264761   1.415   2.301   1.335  1.9746  3.2819 -1.0070
14424TIP3   OH264762   1.423   1.278  13.714 -0.0636  0.0523 -0.1192
14424TIP3    H164763   1.378   1.338  13.654  0.0767  1.2905  0.9813
14424TIP3    H264764   1.366   1.272  13.790  0.6084 -0.0610  0.3893
14425TIP3   OH264765   0.647   2.537   4.232  0.0237  0.0541 -0.2081
14425TIP3    H164766   0.618   2.484   4.306  1.6968 -1.8959 -0.8403
14425TIP3    H264767   0.613   2.492   4.155 -1.4421  1.8956 -0.7188
14426TIP3   OH264768   4.002   3.163  14.332 -0.3451  0.1861 -0.4627
14426TIP3    H164769   4.032   3.224  14.399  0.2762 -2.1484  1.5019
14426TIP3    H264770   4.068   3.169  14.262 -0.3639  1.7726 -0.3853
14427TIP3   OH264771   6.333   2.922  16.644 -0.3650  0.0834  0.2262
14427TIP3    H164772   6.269   2.872  16.695  1.4785 -0.5798  2.0053
14427TIP3    H264773   6.357   2.995  16.702  0.4880  0.3201 -0.4145
14428TIP3   OH264774   0.747   6.806  12.873  0.4944 -0.1435  0.4311
14428TIP3    H164775   0.767   6.776  12.961  0.2799  1.1851  0.9529
14428TIP3    H264776   0.658   6.775  12.856 -0.1225  1.0602  1.3696
14429TIP3   OH264777   4.615   0.393   0.240  0.5054  0.4761 -0.3055
14429TIP3    H164778   4.523   0.398   0.214  0.9393 -1.5618 -2.6281
14429TIP3    H264779   4.658   0.460   0.186  0.3227  2.1500  1.5247
14430TIP3   OH264780   2.665   4.262  11.361  0.5167  0.4549  0.2521
14430TIP3    H164781   2.694   4.283  11.450  1.2413 -1.3052  0.4585
14430TIP3    H264782   2.715   4.185  11.336 -0.9730 -0.1678 -1.0089
14431TIP3   OH264783   5.160   0.123   0.260  0.1013 -0.0637 -0.3049
14431TIP3    H164784   5.217   0.143   0.334 -0.4445  1.7301 -0.3150
14431TIP3    H264785   5.186   0.187   0.193 -2.3816  1.3322 -0.0439
14432TIP3   OH264786   6.502   1.519   2.063  0.2955  0.1302 -0.4431
14432TIP3    H164787   6.479   1.559   1.979  0.5929 -1.1508 -1.1474
14432TIP3    H264788   6.477   1.585   2.128 -3.1781 -0.1913 -1.2563
14433TIP3   OH264789   1.606   1.522  12.236  0.2855  0.1154 -0.6230
14433TIP3    H164790   1.611   1.430  12.210 -0.8196 -0.1372 -0.0184
14433TIP3    H264791   1.547   1.523  12.311  0.8367  1.2391 -0.1848
14434TIP3   OH264792   4.688   2.912  12.518  0.1146  0.0984 -0.2780
14434TIP3    H164793   4.769   2.933  12.564  0.0463  1.8339 -0.8828
14434TIP3    H264794   4.636   2.863  12.582  1.1674 -0.0197  0.5108
14435TIP3   OH264795   3.860   1.191  10.961  0.2964  0.3003  0.0238
14435TIP3    H164796   3.870   1.265  11.021  0.7723 -1.3717  2.1260
14435TIP3    H264797   3.946   1.150  10.958 -0.3695 -1.1856  0.3388
14436TIP3   OH264798   2.468   6.624   4.544  0.0579 -0.3104 -0.3494
14436TIP3    H164799   2.533   6.554   4.541  0.1973 -0.1712 -0.6002
14436TIP3    H264800   2.391   6.588   4.502 -1.0079 -1.4696  2.3696
14437TIP3   OH264801   3.141   3.200   3.453 -0.2060 -0.1123  0.4350
14437TIP3    H164802   3.214   3.144   3.426  0.0556  0.7496 -0.7597
14437TIP3    H264803   3.155   3.217   3.546  1.9299  1.1690 -0.0565
14438TIP3   OH264804   2.148   4.963   0.985  0.0364  0.2607  0.2821
14438TIP3    H164805   2.158   5.042   1.038 -1.2989  0.5485  0.1176
14438TIP3    H264806   2.215   4.903   1.019 -0.7869  0.4270  2.2933
14439TIP3   OH264807   3.754   4.726  15.269  0.2648 -0.6221  0.0522
14439TIP3    H164808   3.678   4.669  15.278 -0.5348  0.2539 -0.8494
14439TIP3    H264809   3.783   4.714  15.179 -0.4179  0.9427 -0.4225
14440TIP3   OH264810   2.054   0.239   1.434  0.1351 -0.8587 -0.2218
14440TIP3    H164811   2.139   0.241   1.478 -0.6427  0.4473  1.3319
14440TIP3    H264812   2.068   0.286   1.352  0.8306 -0.3469  0.1821
14441TIP3   OH264813   5.381   0.668   3.177  0.0040 -0.1020 -0.5854
14441TIP3    H164814   5.384   0.763   3.186  3.1755 -0.0214 -1.5082
14441TIP3    H264815   5.429   0.635   3.253 -0.6986 -0.9829 -0.5011
14442TIP3   OH264816   5.210   2.281  11.936  0.0545 -0.1001  0.0856
14442TIP3    H164817   5.186   2.370  11.907 -2.1144 -0.7311 -0.1911
14442TIP3    H264818   5.305   2.286  11.951 -0.0677  2.3569  0.4503
14443TIP3   OH264819   6.100   2.362  14.445 -0.2852 -0.2721 -0.5865
14443TIP3    H164820   6.064   2.388  14.360  0.9731  0.4303 -0.9384
14443TIP3    H264821   6.101   2.443  14.496 -0.8220 -0.6446  0.0308
14444TIP3   OH264822   4.674   6.178  15.388  0.2085 -1.0265  0.4297
14444TIP3    H164823   4.669   6.096  15.339 -1.0204 -0.7655  0.0849
14444TIP3    H264824   4.730   6.234  15.335 -0.1370 -1.1545 -0.0761
14445TIP3   OH264825   5.783   1.509   3.675 -0.5739 -0.0347  0.2450
14445TIP3    H164826   5.757   1.428   3.631 -1.6812  0.1740  0.4785
14445TIP3    H264827   5.865   1.488   3.718 -1.2674 -1.2991  1.0005
14446TIP3   OH264828   3.365   6.801  12.370  0.0400  0.1240  0.3696
14446TIP3    H164829   3.419   6.780  12.446 -0.9718  0.1818  1.1305
14446TIP3    H264830   3.299   6.862  12.404 -1.2589 -0.9061 -0.2268
14447TIP3   OH264831   2.497   1.681   6.177 -0.2374 -0.2585  0.0417
14447TIP3    H164832   2.535   1.663   6.263 -2.5243 -0.1825  1.1438
14447TIP3    H264833   2.519   1.605   6.125 -0.1104 -1.0161  1.1674
14448TIP3   OH264834   4.627   6.584  15.531  0.1232  0.3488 -0.1710
14448TIP3    H164835   4.692   6.653  15.517  0.3692  0.0322 -0.6377
14448TIP3    H264836   4.677   6.513  15.571  0.1691 -0.0625 -0.9442
14449TIP3   OH264837   5.644   2.326   3.623  0.2056  0.4971 -0.1423
14449TIP3    H164838   5.714   2.382   3.591 -0.0544  0.7810 -0.2291
14449TIP3    H264839   5.603   2.377   3.693  1.6089 -0.6562  1.5880
14450TIP3   OH264840   0.461   0.833  14.173 -0.4289 -0.1790 -0.2680
14450TIP3    H164841   0.461   0.747  14.216  2.1955 -0.2436 -0.2255
14450TIP3    H264842   0.524   0.823  14.101  0.8945  2.0047  0.4969
14451TIP3   OH264843   5.830   5.726   1.176 -0.9258 -0.1329 -0.0066
14451TIP3    H164844   5.863   5.695   1.092  0.7762  0.3450  0.4370
14451TIP3    H264845   5.735   5.727   1.166 -0.7257  1.0120 -2.2977
14452TIP3   OH264846   2.049   4.524   6.131  0.2147  0.1198 -0.3907
14452TIP3    H164847   1.979   4.471   6.169  0.3124  0.2011 -0.0971
14452TIP3    H264848   2.056   4.599   6.189  1.1413 -0.3156  0.0791
14453TIP3   OH264849   4.832   6.236  12.077  0.3802 -0.0886 -0.4807
14453TIP3    H164850   4.738   6.228  12.096  0.1350 -0.6279 -1.8261
14453TIP3    H264851   4.835   6.271  11.988  1.4671 -0.1048 -0.4587
14454TIP3   OH264852   0.182   1.185   5.852  0.2519 -0.8451 -0.2066
14454TIP3    H164853   0.147   1.168   5.765 -1.8081  2.4279 -0.1917
14454TIP3    H264854   0.106   1.181   5.910  0.2387  3.1501  0.3613
14455TIP3   OH264855   2.236   6.345   4.753 -0.7131 -0.1086 -0.3576
14455TIP3    H164856   2.265   6.435   4.764  1.1249 -0.9298  2.4805
14455TIP3    H264857   2.163   6.336   4.814 -1.1432 -0.4401 -0.9184
14456TIP3   OH264858   3.730   1.356   5.505  0.4414 -1.1338  0.5270
14456TIP3    H164859   3.721   1.441   5.550 -0.9530 -1.0786  0.1987
14456TIP3    H264860   3.651   1.308   5.530  0.5769 -1.8255 -0.3458
14457TIP3   OH264861   6.068   4.134   2.833 -0.2890 -0.0324  0.1389
14457TIP3    H164862   6.153   4.168   2.804  1.3743 -1.9427  2.4289
14457TIP3    H264863   6.053   4.177   2.917 -1.4575  0.0069 -0.0788
14458TIP3   OH264864   1.451   6.011  15.748 -0.1428 -0.0680  0.4221
14458TIP3    H164865   1.491   5.957  15.816  0.4845  0.6186  0.6134
14458TIP3    H264866   1.516   6.078  15.730 -0.8207  0.4946  0.0337
14459TIP3   OH264867   3.358   0.460  13.292  0.4157 -0.8217  0.0107
14459TIP3    H164868   3.299   0.454  13.217  1.7241 -1.4494 -1.0167
14459TIP3    H264869   3.442   0.485  13.254  0.1175  4.1536  1.7444
14460TIP3   OH264870   3.778   2.840  14.197  0.3313  0.3485  0.2413
14460TIP3    H164871   3.824   2.864  14.277  0.4776 -2.0844  0.9616
14460TIP3    H264872   3.816   2.756  14.172 -0.9988  0.1763 -1.3557
14461TIP3   OH264873   6.620   5.874   1.694 -0.0082 -0.3286 -0.6436
14461TIP3    H164874   6.547   5.903   1.640  0.4048  0.5853 -0.7428
14461TIP3    H264875   6.694   5.929   1.665  0.1521  0.4008  1.0233
14462TIP3   OH264876   5.981   6.334   4.884 -0.1240 -0.3473  0.2162
14462TIP3    H164877   5.975   6.352   4.978  1.4990  0.2778  0.2220
14462TIP3    H264878   6.055   6.386   4.854 -0.9940 -0.0594 -1.5488
14463TIP3   OH264879   6.517   5.415  12.551 -0.0021 -0.0239  0.4714
14463TIP3    H164880   6.523   5.508  12.529  1.0451 -0.2064 -0.1096
14463TIP3    H264881   6.606   5.381  12.535 -0.1034 -0.9087  1.6767
14464TIP3   OH264882   6.442   1.244  15.475 -0.3006  0.0153  0.2383
14464TIP3    H164883   6.466   1.179  15.540 -0.4734 -2.1575 -1.7581
14464TIP3    H264884   6.442   1.327  15.523  3.6130 -0.8463  2.1029
14465TIP3   OH264885   0.065   1.721  16.151  0.3075 -0.0173 -0.3962
14465TIP3    H164886  -0.004   1.738  16.086  0.2511 -0.6789 -0.5154
14465TIP3    H264887   0.024   1.665  16.216  0.9454 -1.0863 -0.8858
14466TIP3   OH264888   5.486   6.288  11.881 -0.0921  0.3014 -0.2086
14466TIP3    H164889   5.412   6.330  11.837  1.6175  2.6783 -1.0568
14466TIP3    H264890   5.563   6.329  11.842  1.7959 -3.1477 -0.4667
14467TIP3   OH264891   2.661   0.561   1.324 -0.1612  0.0056  0.4236
14467TIP3    H164892   2.589   0.521   1.373  0.1707 -0.9878  0.1282
14467TIP3    H264893   2.697   0.628   1.383 -0.4083 -0.4864  1.1398
14468TIP3   OH264894   6.207   0.513  10.331 -0.2969 -0.3926  0.0612
14468TIP3    H164895   6.142   0.543  10.267  0.3402  0.1150 -0.3614
14468TIP3    H264896   6.180   0.553  10.413 -0.4714 -0.1184 -0.1274
14469TIP3   OH264897   6.236   0.569   1.695  0.0514 -0.0311  0.0974
14469TIP3    H164898   6.275   0.548   1.780 -1.1414  0.8699  0.9173
14469TIP3    H264899   6.251   0.663   1.685 -1.8447  0.3571  0.4689
14470TIP3   OH264900   6.492   4.570  16.428  0.0717 -0.0390 -0.1261
14470TIP3    H164901   6.585   4.550  16.442  0.0451 -0.8752 -1.0194
14470TIP3    H264902   6.473   4.536  16.340 -0.9029  0.7734 -0.2486
14471TIP3   OH264903   5.794   3.808   2.967 -0.0303  0.0543  0.2832
14471TIP3    H164904   5.824   3.790   3.056 -1.7736  0.9970  1.1054
14471TIP3    H264905   5.767   3.900   2.969 -2.5584 -0.6162 -0.4682
14472TIP3   OH264906   1.636   0.789  14.150  0.3656 -0.1717 -0.0339
14472TIP3    H164907   1.564   0.820  14.206  1.1213 -0.9627  1.4427
14472TIP3    H264908   1.688   0.733  14.208  1.7912 -0.1629 -1.2700
14473TIP3   OH264909   0.521   0.669  15.957 -0.3089 -0.4743 -0.0288
14473TIP3    H164910   0.557   0.704  16.039 -1.4957  1.8342 -0.3975
14473TIP3    H264911   0.577   0.594  15.937 -0.9403 -2.1580  3.6596
14474TIP3   OH264912   6.315   5.664  13.155 -0.0877 -0.2561 -0.1591
14474TIP3    H164913   6.316   5.693  13.064 -0.3977 -0.4120 -0.2113
14474TIP3    H264914   6.285   5.573  13.152  1.4537 -0.7941 -0.0486
14475TIP3   OH264915   3.558   5.315   2.181 -0.5210 -0.4576 -0.0086
14475TIP3    H164916   3.577   5.283   2.093  0.0694 -0.9951  0.3060
14475TIP3    H264917   3.488   5.257   2.213 -1.4481  0.3663 -0.4820
14476TIP3   OH264918   6.394   5.121   3.401  0.4197  0.6605 -0.3405
14476TIP3    H164919   6.303   5.106   3.378  0.9494 -1.6016 -1.1931
14476TIP3    H264920   6.426   5.179   3.332 -0.1180  0.6773 -0.5808
14477TIP3   OH264921   0.212   4.675   0.522 -0.2721  0.1420 -0.0690
14477TIP3    H164922   0.220   4.650   0.614 -3.2170  1.8634  0.8136
14477TIP3    H264923   0.252   4.762   0.517 -0.4575  0.2174 -0.2795
14478TIP3   OH264924   3.526   5.238   2.815 -0.3478  0.2962 -0.2804
14478TIP3    H164925   3.608   5.192   2.796  1.1623  1.8354  2.0269
14478TIP3    H264926   3.525   5.312   2.755 -0.4600 -0.1530 -0.8411
14479TIP3   OH264927   2.012   5.591   2.629  0.0378  0.4301  0.3813
14479TIP3    H164928   1.996   5.587   2.535 -0.9667  0.3497  0.5422
14479TIP3    H264929   2.098   5.631   2.637  1.3726 -2.0081 -0.6564
14480TIP3   OH264930   2.086   5.104  15.678  0.0168  0.5291  0.3010
14480TIP3    H164931   2.135   5.072  15.754  0.1648  2.8790  1.3031
14480TIP3    H264932   2.016   5.040  15.667  1.1154 -0.9090  1.1909
14481TIP3   OH264933   3.782   4.229  13.669 -0.1226 -0.7721 -0.3697
14481TIP3    H164934   3.738   4.294  13.614  0.7988 -0.3956 -0.6633
14481TIP3    H264935   3.867   4.216  13.628  0.9240  0.1288  1.4402
14482TIP3   OH264936   1.336   4.892  12.502 -0.3100  0.4335 -0.0707
14482TIP3    H164937   1.418   4.853  12.471 -0.1725  0.4747  0.2337
14482TIP3    H264938   1.336   4.875  12.597  0.1949  1.9801  0.2268
14483TIP3   OH264939   1.114   6.158   5.592  0.1263  0.3060  0.2751
14483TIP3    H164940   1.183   6.218   5.619  1.1879 -1.1483  0.9118
14483TIP3    H264941   1.140   6.130   5.504  0.0494  0.1954  0.2867
14484TIP3   OH264942   5.245   2.450   0.033  0.5722 -0.0926 -0.1404
14484TIP3    H164943   5.151   2.469   0.026  0.9982  2.2782 -0.1646
14484TIP3    H264944   5.256   2.367  -0.014 -1.3520  0.0842 -0.9998
14485TIP3   OH264945   2.625   4.954   5.644  0.0259  0.0789  0.2339
14485TIP3    H164946   2.571   5.003   5.582 -0.0283 -0.9019 -0.5207
14485TIP3    H264947   2.586   4.867   5.647  1.0038 -0.3680  0.4010
14486TIP3   OH264948   5.215   5.047  14.711  0.1137 -0.0324  0.3350
14486TIP3    H164949   5.224   5.002  14.627  0.7106 -1.1774  1.0000
14486TIP3    H264950   5.285   5.113  14.710 -0.2351  0.3415 -0.2869
14487TIP3   OH264951   6.418   2.316  14.549 -0.0226  0.2027 -0.6841
14487TIP3    H164952   6.351   2.250  14.531  0.9920 -1.5560  1.4209
14487TIP3    H264953   6.369   2.394  14.576 -1.2349  0.1755 -2.6260
14488TIP3   OH264954   5.621   5.229   3.572  0.0453 -0.3062 -0.4218
14488TIP3    H164955   5.617   5.297   3.505 -0.1236  0.8045  0.6724
14488TIP3    H264956   5.715   5.215   3.587  0.1475  1.4548  1.0109
14489TIP3   OH264957   0.839   6.759  14.872  0.0836 -0.3543  0.0058
14489TIP3    H164958   0.784   6.702  14.925  0.9258 -0.5760  0.6743
14489TIP3    H264959   0.783   6.832  14.848 -0.6929 -0.9197  0.0801
14490TIP3   OH264960   6.225   4.466  16.603  0.7898  0.7395 -0.3159
14490TIP3    H164961   6.193   4.502  16.520  0.1712 -1.5776 -1.1699
14490TIP3    H264962   6.310   4.428  16.581 -0.2377 -1.6522 -0.4664
14491TIP3   OH264963   1.577   0.472  14.159  0.0228  0.3257 -0.2767
14491TIP3    H164964   1.651   0.501  14.212 -1.0868  0.3035  1.3776
14491TIP3    H264965   1.596   0.504  14.071  0.2221  3.6106  0.8179
14492TIP3   OH264966   6.777   3.113  13.730  0.6536  0.1009 -0.2648
14492TIP3    H164967   6.731   3.190  13.764 -1.1301 -1.7822  1.9205
14492TIP3    H264968   6.862   3.115  13.773  0.7937  1.0401 -0.5567
14493TIP3   OH264969   0.816   5.852   3.311  0.0282  0.1277 -0.2374
14493TIP3    H164970   0.849   5.837   3.223 -2.2130 -0.6473 -1.0404
14493TIP3    H264971   0.837   5.943   3.331  2.0378 -0.1662 -0.8544
14494TIP3   OH264972   3.129   4.696   5.060  0.7886 -0.7006 -0.1500
14494TIP3    H164973   3.177   4.613   5.061  2.0563 -0.0574 -2.1486
14494TIP3    H264974   3.171   4.748   5.129  2.0532 -0.6712 -0.9113
14495TIP3   OH264975   1.067   0.724   2.144 -0.1735 -0.1071  0.4959
14495TIP3    H164976   1.095   0.776   2.068  0.7444  0.8058  1.4235
14495TIP3    H264977   1.121   0.646   2.141  0.0286  0.0379  0.3543
14496TIP3   OH264978   5.862   4.544  11.838  0.3172  0.3553 -0.1814
14496TIP3    H164979   5.850   4.638  11.853 -1.7041  0.0197  0.5679
14496TIP3    H264980   5.854   4.533  11.744  3.5886  1.2585 -0.6933
14497TIP3   OH264981   5.514   3.650  16.999  0.8461 -0.1170  0.1252
14497TIP3    H164982   5.575   3.596  17.049  1.0072  0.3895  0.4795
14497TIP3    H264983   5.481   3.591  16.931  0.0799 -1.0265  1.2435
14498TIP3   OH264984   5.305   6.385  16.595  0.4942  0.3776  0.9737
14498TIP3    H164985   5.330   6.475  16.575  0.6293 -0.0710 -1.0392
14498TIP3    H264986   5.380   6.332  16.569  0.2171 -0.3744  1.6535
14499TIP3   OH264987   6.053   3.100  15.631 -0.0786 -0.3486 -0.3553
14499TIP3    H164988   6.032   3.063  15.545 -0.4914 -2.1368  0.4601
14499TIP3    H264989   6.092   3.027  15.679 -0.8821  0.2900  1.3389
14500TIP3   OH264990   1.845   3.910   4.731 -0.2396 -0.4073 -0.5106
14500TIP3    H164991   1.930   3.918   4.774  0.3583 -1.6304 -1.4339
14500TIP3    H264992   1.795   3.984   4.765  0.8061 -0.3093  0.9090
14501TIP3   OH264993   0.530   1.241   1.402  0.1628 -0.4677  0.3480
14501TIP3    H164994   0.448   1.264   1.359  0.1194 -1.2292  0.0084
14501TIP3    H264995   0.593   1.307   1.372  0.1018 -0.9055 -0.7932
14502TIP3   OH264996   5.921   2.116  13.776 -0.0585  0.0266 -0.2800
14502TIP3    H164997   5.934   2.209  13.757 -0.4198  0.0646 -0.3482
14502TIP3    H264998   5.983   2.070  13.720  0.0399  0.2224 -0.3286
14503TIP3   OH264999   3.331   5.797   2.267 -0.2071  0.6245 -0.4506
14503TIP3    H165000   3.284   5.749   2.198  0.3532 -0.9988  0.2695
14503TIP3    H265001   3.422   5.767   2.259 -0.4611 -1.1919  2.2510
14504TIP3   OH265002   3.639   6.351  16.647 -0.3205  0.3533  0.7919
14504TIP3    H165003   3.675   6.438  16.665 -0.2673  0.2877  1.0176
14504TIP3    H265004   3.715   6.293  16.650 -0.2098  0.4200 -0.2961
14505TIP3   OH265005   4.035   0.905   2.377 -0.2709 -0.6794  0.2464
14505TIP3    H165006   4.053   0.858   2.458 -1.0350  1.0844  1.4944
14505TIP3    H265007   3.988   0.984   2.404  1.0846  0.9266 -1.7113
14506TIP3   OH265008   6.243   3.684   1.452  0.7392  0.2163 -0.4987
14506TIP3    H165009   6.201   3.728   1.378  0.4141 -1.5455 -1.4045
14506TIP3    H265010   6.302   3.620   1.411  2.4140  0.8820  0.7722
14507TIP3   OH265011   5.261   2.322   1.273 -0.6604  0.2035  0.5499
14507TIP3    H165012   5.220   2.376   1.205 -0.5675  0.4851  0.7175
14507TIP3    H265013   5.352   2.313   1.245 -1.2459 -2.1256 -0.9125
14508TIP3   OH265014   5.012   5.590   2.437  0.1883 -0.1223 -0.3731
14508TIP3    H165015   5.011   5.620   2.346  1.6953 -0.9814 -0.7242
14508TIP3    H265016   5.011   5.494   2.431  1.4189 -0.2207  0.4329
14509TIP3   OH265017   3.116   1.854  14.592 -0.0600 -0.4376 -0.6054
14509TIP3    H165018   3.091   1.913  14.663  0.9438  0.6508 -1.1196
14509TIP3    H265019   3.088   1.899  14.512  3.0519  0.7051 -1.1932
14510TIP3   OH265020   5.849   0.194   6.422 -0.3848 -0.0833 -0.1670
14510TIP3    H165021   5.931   0.226   6.383  0.5669 -1.7635  0.3722
14510TIP3    H265022   5.818   0.267   6.476  0.5705  0.7026 -0.6467
14511TIP3   OH265023   4.574   4.123   1.766 -0.0135  0.5282  0.2650
14511TIP3    H165024   4.621   4.043   1.744 -0.2565  0.1689  1.0121
14511TIP3    H265025   4.598   4.185   1.698 -0.6891 -0.5024 -0.9528
14512TIP3   OH265026   5.460   6.202   3.003  0.2311  0.5399 -0.6694
14512TIP3    H165027   5.555   6.194   3.016  0.0953 -0.2263 -0.0932
14512TIP3    H265028   5.449   6.201   2.908  0.7148 -0.6900 -0.7384
14513TIP3   OH265029   3.889   3.657  16.736  0.3734  0.1977  0.3778
14513TIP3    H165030   3.812   3.605  16.712  0.4104  0.4339 -0.2828
14513TIP3    H265031   3.961   3.615  16.689  0.1500  1.7797 -1.4846
14514TIP3   OH265032   1.599   2.249   3.629  0.2199  0.2795 -0.1867
14514TIP3    H165033   1.623   2.330   3.673 -0.2338  0.7362 -0.7670
14514TIP3    H265034   1.627   2.180   3.689  1.0514  0.8468  0.0840
14515TIP3   OH265035   1.406   2.938   2.859  0.6313 -0.1304  0.3886
14515TIP3    H165036   1.315   2.933   2.830  0.4281  0.5365  0.8841
14515TIP3    H265037   1.424   2.852   2.898  0.8442 -0.9756 -1.4604
14516TIP3   OH265038   3.188   3.449   5.710  0.1092 -0.2504 -0.1886
14516TIP3    H165039   3.168   3.461   5.803  0.8757  0.4926 -0.1071
14516TIP3    H265040   3.175   3.355   5.695  2.3794 -0.8892  1.3055
14517TIP3   OH265041   3.259   4.134   6.758  0.5085 -0.7012 -0.0101
14517TIP3    H165042   3.247   4.214   6.809 -0.6638 -0.4491 -0.6614
14517TIP3    H265043   3.340   4.149   6.709 -0.1103  0.4172 -0.7106
14518TIP3   OH265044   0.702   4.321  16.777  0.2399  0.6610 -0.2282
14518TIP3    H165045   0.618   4.305  16.821 -0.4262  2.1023 -0.9262
14518TIP3    H265046   0.738   4.397  16.822  0.3988  1.0466 -1.0029
14519TIP3   OH265047   5.487   4.849  13.919 -0.3847  0.0714  0.0264
14519TIP3    H165048   5.458   4.937  13.944 -0.7920 -0.9036  3.5686
14519TIP3    H265049   5.416   4.792  13.947  0.6170 -1.5425 -0.5949
14520TIP3   OH265050   4.307   0.407  11.140  0.1666  0.2278 -0.4049
14520TIP3    H165051   4.325   0.388  11.048 -1.9826  1.8381 -1.2449
14520TIP3    H265052   4.212   0.413  11.145  0.2371  0.3560  1.9109
14521TIP3   OH265053   0.734   3.847  15.208  0.5059 -0.1465  0.1054
14521TIP3    H165054   0.706   3.870  15.120  2.3165 -1.8981 -1.0039
14521TIP3    H265055   0.773   3.926  15.244  1.0451  0.1971 -1.2174
14522TIP3   OH265056   3.841   6.113   4.632 -0.2531 -0.7244  0.2846
14522TIP3    H165057   3.865   6.057   4.558 -1.7092 -0.5967 -0.3110
14522TIP3    H265058   3.748   6.096   4.646 -0.9428  2.0170 -0.3652
14523TIP3   OH265059   6.241   6.150   1.826  0.3413 -0.0208  0.0022
14523TIP3    H165060   6.323   6.191   1.797  0.1130 -0.4688 -1.3563
14523TIP3    H265061   6.265   6.105   1.907  1.0047  1.3079  0.5885
14524TIP3   OH265062   3.656   1.271   0.692 -0.7961 -0.8642 -0.0471
14524TIP3    H165063   3.634   1.184   0.726 -0.4912 -1.3786 -1.1193
14524TIP3    H265064   3.743   1.289   0.727 -2.0677  0.4243  2.7727
14525TIP3   OH265065   0.721   2.270   5.777  0.2965  0.0167  0.4646
14525TIP3    H165066   0.700   2.181   5.751  1.6035 -0.0495 -0.4796
14525TIP3    H265067   0.736   2.265   5.872  0.5399 -0.7951  0.3875
14526TIP3   OH265068   4.739   3.006   5.155 -0.5312 -0.1487 -0.5083
14526TIP3    H165069   4.749   2.912   5.141 -1.1310 -0.3687  0.4268
14526TIP3    H265070   4.648   3.017   5.181 -0.8484  0.8767 -1.8998
14527TIP3   OH265071   2.993   3.217  10.428  0.4576 -0.3808 -0.6256
14527TIP3    H165072   3.000   3.305  10.391  1.1331 -0.1398  0.0529
14527TIP3    H265073   3.066   3.169  10.388  0.4162 -0.4821 -0.5774
14528TIP3   OH265074   4.698   5.990   1.378  0.3701  0.1953 -0.5555
14528TIP3    H165075   4.625   5.997   1.317  0.3873  0.4876 -0.5455
14528TIP3    H265076   4.724   5.898   1.374  0.0152  0.0958 -0.5716
14529TIP3   OH265077   2.338   5.336  17.010  0.2053  0.0353  0.4831
14529TIP3    H165078   2.371   5.249  16.988 -1.2394 -0.5926  0.7015
14529TIP3    H265079   2.351   5.387  16.930  1.4558 -0.2313  0.4856
14530TIP3   OH265080   0.661   5.742   3.510 -0.4419  0.3868 -0.0047
14530TIP3    H165081   0.706   5.800   3.572  0.0183  0.0108  0.0163
14530TIP3    H265082   0.686   5.776   3.424 -0.2875  0.3073  0.0084
14531TIP3   OH265083   2.951   0.517  14.022 -0.4298  0.2278  0.7736
14531TIP3    H165084   2.877   0.556  13.975 -0.9762 -1.6114  0.0190
14531TIP3    H265085   2.997   0.592  14.061 -2.0775  1.4997  0.3839
14532TIP3   OH265086   6.804   6.454  13.474  0.2009  0.3074  0.4922
14532TIP3    H165087   6.754   6.373  13.465  1.0272 -0.2421  0.7100
14532TIP3    H265088   6.895   6.427  13.459  0.4505  1.2563  0.2548
14533TIP3   OH265089   2.470   0.412  10.372 -0.4732 -0.2159  0.3830
14533TIP3    H165090   2.388   0.417  10.421  0.3543 -0.2202  1.8385
14533TIP3    H265091   2.486   0.318  10.360 -0.6794 -0.2150  0.1119
14534TIP3   OH265092   4.597   3.017   4.419 -0.4058 -0.3538 -0.0291
14534TIP3    H165093   4.600   3.032   4.324 -0.6019  2.2311  0.2981
14534TIP3    H265094   4.671   3.067   4.453 -1.5867  0.5337  1.3420
14535TIP3   OH265095   3.388   4.295   3.984  0.2316 -0.0088  0.4399
14535TIP3    H165096   3.416   4.205   3.999 -0.6595 -0.4806 -0.5800
14535TIP3    H265097   3.293   4.291   3.980  0.2323  0.6176 -1.5402
14536TIP3   OH265098   2.044   6.077   5.422 -0.5188  0.2166  0.1783
14536TIP3    H165099   1.966   6.099   5.473 -0.9279  0.4075 -0.5085
14536TIP3    H265100   2.049   5.982   5.424  0.0090  0.2597  1.3523
14537TIP3   OH265101   4.436   1.481  11.412 -0.6964 -0.6038 -0.2211
14537TIP3    H165102   4.348   1.452  11.389 -1.3179  0.5133  0.6604
14537TIP3    H265103   4.435   1.486  11.507 -0.5180  1.8774 -0.2940
14538TIP3   OH265104   0.450   4.873   0.808 -0.1245  0.3708  0.7908
14538TIP3    H165105   0.462   4.927   0.887  1.2227 -0.3442  1.1067
14538TIP3    H265106   0.538   4.866   0.770 -0.5085 -0.4749  0.0163
14539TIP3   OH265107   3.428   0.927   0.578  0.3854  0.0792  0.6430
14539TIP3    H165108   3.333   0.929   0.590  0.3601  0.0062  0.4534
14539TIP3    H265109   3.446   0.841   0.540  0.3709  0.6573 -0.6898
14540TIP3   OH265110   4.641   6.194   0.309  0.3826  0.0171  0.1104
14540TIP3    H165111   4.669   6.251   0.381  0.9806  0.9899 -0.8725
14540TIP3    H265112   4.568   6.144   0.346  0.6890  0.4741  1.3980
14541TIP3   OH265113   5.262   0.844   3.448  0.5226 -0.3348  0.7179
14541TIP3    H165114   5.320   0.828   3.523 -0.2486 -3.1985  0.8275
14541TIP3    H265115   5.222   0.758   3.430 -0.1703  0.5016 -2.2823
14542TIP3   OH265116   1.110   0.220   6.204  0.1878  0.2095 -0.1237
14542TIP3    H165117   1.124   0.211   6.298  2.0126 -0.1564 -0.3910
14542TIP3    H265118   1.024   0.180   6.188  0.6845 -1.4620  1.1421
14543TIP3   OH265119   2.286   0.671  16.591 -0.1696 -0.4006  0.3706
14543TIP3    H165120   2.305   0.723  16.669 -2.8061  1.8871 -0.3800
14543TIP3    H265121   2.198   0.636  16.606 -0.8740  0.3569 -1.6430
14544TIP3   OH265122   0.719   4.909   0.743  0.6648 -0.1186  0.1141
14544TIP3    H165123   0.772   4.844   0.791 -0.9668 -0.6969  1.2167
14544TIP3    H265124   0.722   4.987   0.798 -0.3323 -0.4442  0.6606
14545TIP3   OH265125   3.805   1.663  15.596 -0.1434 -0.5462 -0.0555
14545TIP3    H165126   3.782   1.697  15.682 -1.3330  1.7483 -1.1935
14545TIP3    H265127   3.893   1.626  15.608 -0.1074  0.0869  2.0221
14546TIP3   OH265128   2.452   6.129  14.584 -0.0774 -0.3962  0.5660
14546TIP3    H165129   2.447   6.034  14.575 -0.3470 -0.4315  1.0521
14546TIP3    H265130   2.545   6.149  14.577 -0.0133 -0.7045  0.5300
14547TIP3   OH265131   4.837   6.121   3.729  0.3603  0.1329 -0.4075
14547TIP3    H165132   4.765   6.120   3.666 -1.4220  0.9772  1.4993
14547TIP3    H265133   4.870   6.210   3.727 -0.6313  0.5643  0.7594
14548TIP3   OH265134   5.121   5.310   6.175 -0.2575  0.3550  0.0358
14548TIP3    H165135   5.072   5.229   6.189  0.3390  0.2385  1.5913
14548TIP3    H265136   5.130   5.316   6.080 -3.4394  0.5046 -0.3784
14549TIP3   OH265137   1.638   5.530   4.798  0.1224 -0.4812 -0.2376
14549TIP3    H165138   1.592   5.515   4.715 -2.1511 -0.7970  1.0077
14549TIP3    H265139   1.697   5.604   4.779 -1.6817  0.6850 -1.6687
14550TIP3   OH265140   5.061   5.522   0.666  0.1910 -0.4315  0.0554
14550TIP3    H165141   5.025   5.522   0.755 -0.8067  1.3880 -0.2987
14550TIP3    H265142   5.135   5.583   0.670  1.1652 -1.5609 -0.0321
14551TIP3   OH265143   0.111   5.072  13.538  0.7275 -0.3549  0.1391
14551TIP3    H165144   0.192   5.051  13.492  0.4916 -0.1481 -0.3766
14551TIP3    H265145   0.056   4.995  13.524  0.9252 -0.6020  0.7039
14552TIP3   OH265146   5.893   0.385   5.471 -0.6578 -0.4809  0.2890
14552TIP3    H165147   5.970   0.350   5.515 -0.8572 -2.6590 -0.9155
14552TIP3    H265148   5.925   0.461   5.422  0.1289  0.2300  1.8512
14553TIP3   OH265149   2.340   3.982  16.838 -0.1830 -0.0111 -0.3812
14553TIP3    H165150   2.248   3.966  16.818 -0.5049  0.5236  0.6137
14553TIP3    H265151   2.348   4.077  16.841  0.2681 -0.0582  0.0876
14554TIP3   OH265152   3.345   4.569  10.461  0.4433 -0.1145 -0.4482
14554TIP3    H165153   3.413   4.635  10.445 -0.1043  0.5274 -0.1793
14554TIP3    H265154   3.388   4.504  10.516  0.5692  0.8214  0.6139
14555TIP3   OH265155   3.490   1.899  14.526 -0.3281 -0.3351  0.1586
14555TIP3    H165156   3.440   1.818  14.534 -0.0185 -0.6483 -0.9619
14555TIP3    H265157   3.563   1.887  14.587 -0.2761 -0.9114 -0.0087
14556TIP3   OH265158   5.856   5.815   4.805 -0.4772  0.5224 -0.2822
14556TIP3    H165159   5.797   5.782   4.873 -1.1046 -0.9870 -1.5056
14556TIP3    H265160   5.883   5.901   4.837  0.5070 -0.7033  2.6689
14557TIP3   OH265161   0.265   1.433   1.890  0.2411 -0.0268  0.3399
14557TIP3    H165162   0.338   1.386   1.931 -1.2075 -2.0876  0.7217
14557TIP3    H265163   0.243   1.502   1.953 -0.1547 -1.4078  1.7916
14558TIP3   OH265164   4.502   5.879  17.060 -0.2806  0.5077  0.6606
14558TIP3    H165165   4.444   5.814  17.020  1.1858 -1.6566  1.8975
14558TIP3    H265166   4.450   5.915  17.133  0.9607 -4.4848  4.6077
14559TIP3   OH265167   6.591   5.629   1.527 -0.6573 -0.0101 -0.7637
14559TIP3    H165168   6.535   5.691   1.574 -1.5640 -1.1206 -0.3168
14559TIP3    H265169   6.581   5.547   1.575  0.2721 -0.5899 -1.5199
14560TIP3   OH265170   5.568   0.645  11.734 -0.0515 -0.0058  0.3479
14560TIP3    H165171   5.629   0.706  11.693 -0.9214  0.0882 -0.8711
14560TIP3    H265172   5.552   0.681  11.821  1.1527  0.2805  0.4614
14561TIP3   OH265173   5.671   3.038  10.747 -0.4101  0.0993 -0.3998
14561TIP3    H165174   5.658   3.106  10.681 -1.0812  0.7633  0.3866
14561TIP3    H265175   5.746   3.069  10.799  0.7182 -0.8794 -1.3920
14562TIP3   OH265176   0.990   4.146  10.763 -0.7281  0.4631  0.2266
14562TIP3    H165177   0.926   4.216  10.747 -0.6518  0.7764  1.2794
14562TIP3    H265178   0.995   4.138  10.858  0.3619  0.0266  0.1486
14563TIP3   OH265179   4.248   0.544  16.805 -0.3103  0.1679  0.2168
14563TIP3    H165180   4.308   0.519  16.876  0.5910  1.1825 -0.1564
14563TIP3    H265181   4.164   0.506  16.830  0.8081 -2.6331 -0.0054
14564TIP3   OH265182   6.481   0.294   6.364  0.4198  0.0696  0.3685
14564TIP3    H165183   6.529   0.217   6.332  0.5123 -0.2754  1.3179
14564TIP3    H265184   6.406   0.301   6.305  0.8099 -0.3044 -0.1824
14565TIP3   OH265185   4.052   5.432  15.441 -0.1957 -0.0932  0.3307
14565TIP3    H165186   3.979   5.370  15.440 -0.2676 -0.0123  0.5046
14565TIP3    H265187   4.085   5.431  15.351 -0.5129 -0.0082  0.2111
14566TIP3   OH265188   1.507   0.288   0.300 -0.2686  0.3235  0.0836
14566TIP3    H165189   1.551   0.365   0.265  1.3369 -0.4710  0.2829
14566TIP3    H265190   1.462   0.249   0.225  0.7171  0.2577 -0.4885
14567TIP3   OH265191   4.094   4.615  16.406  0.5729 -0.0935  0.3130
14567TIP3    H165192   4.063   4.530  16.436 -0.3356  0.0029 -0.3117
14567TIP3    H265193   4.087   4.612  16.310  0.1158  0.8156  0.2979
14568TIP3   OH265194   2.251   5.092   2.996  0.1595  0.0393 -0.0466
14568TIP3    H165195   2.269   5.186   2.989  1.6303 -0.1825  0.4744
14568TIP3    H265196   2.335   5.053   3.020 -0.5586 -1.3546  0.2961
14569TIP3   OH265197   5.371   2.732  13.445 -0.3166 -0.0568 -0.3665
14569TIP3    H165198   5.461   2.699  13.442 -0.5662 -0.9092  0.5766
14569TIP3    H265199   5.359   2.759  13.536 -1.2310 -0.6293 -0.3044
14570TIP3   OH265200   6.750   4.477  12.206  0.0109  0.0307 -0.0580
14570TIP3    H165201   6.698   4.413  12.158  0.3874 -0.5540  0.2931
14570TIP3    H265202   6.802   4.522  12.139 -1.0022  0.6827 -0.4169
14571TIP3   OH265203   3.206   6.439   4.896  0.6204  0.4620  0.0693
14571TIP3    H165204   3.146   6.498   4.851  0.2515 -1.6418 -2.3735
14571TIP3    H265205   3.293   6.471   4.872  0.5209  1.8134  1.3326
14572TIP3   OH265206   2.204   6.754  16.639  0.3360  0.3291 -0.1993
14572TIP3    H165207   2.200   6.729  16.546 -1.5088 -0.1592 -0.0241
14572TIP3    H265208   2.278   6.815  16.644  1.9105 -1.3187 -1.5617
14573TIP3   OH265209   4.700   3.434  16.194 -0.4404 -0.3427  0.5807
14573TIP3    H165210   4.606   3.426  16.211 -0.4448  0.2263  0.8550
14573TIP3    H265211   4.713   3.396  16.107 -0.5763 -2.4413  1.4074
14574TIP3   OH265212   0.988   1.181   6.178 -0.4013 -0.5942 -0.5958
14574TIP3    H165213   1.029   1.247   6.122 -0.2534 -1.2605 -1.2803
14574TIP3    H265214   1.055   1.159   6.243 -1.0257  1.1874  0.7519
14575TIP3   OH265215   4.557   3.994  13.793 -0.0672  0.0807  0.4892
14575TIP3    H165216   4.603   4.070  13.758  1.2368  0.2453  2.4190
14575TIP3    H265217   4.587   3.921  13.739  0.5344  0.5756  0.1439
14576TIP3   OH265218   4.466   4.126   4.062 -0.3427 -0.3659  0.3722
14576TIP3    H165219   4.557   4.140   4.036  0.5730 -2.4159  2.1572
14576TIP3    H265220   4.426   4.084   3.986  1.0051 -2.0143  0.5043
14577TIP3   OH265221   1.015   3.126  11.355  0.2182  0.5427 -0.3869
14577TIP3    H165222   1.077   3.187  11.395  0.7789  0.7498 -1.5449
14577TIP3    H265223   0.931   3.147  11.397  0.1301  2.9875 -1.6317
14578TIP3   OH265224   1.851   3.599  15.034 -0.1224 -0.0562 -0.0193
14578TIP3    H165225   1.911   3.591  15.108 -1.6100 -1.6936  1.0914
14578TIP3    H265226   1.908   3.610  14.957  1.6868 -2.6815  0.8176
14579TIP3   OH265227   1.859   1.843   2.396  0.2923 -0.2483  0.2923
14579TIP3    H165228   1.911   1.833   2.476  0.6758  1.6469  0.3242
14579TIP3    H265229   1.883   1.929   2.362 -1.9670  0.2045 -0.3183
14580TIP3   OH265230   1.004   4.726  12.550  0.1629  0.4166 -0.0357
14580TIP3    H165231   1.061   4.670  12.602  0.0231  0.5929  0.3144
14580TIP3    H265232   0.940   4.667  12.512 -0.7758  0.4675  1.3714
14581TIP3   OH265233   0.305   0.902  15.368 -0.0564  0.5338  0.3336
14581TIP3    H165234   0.310   0.997  15.366 -1.6418  0.6364 -1.2457
14581TIP3    H265235   0.284   0.877  15.278  3.8581 -1.6039 -0.1829
14582TIP3   OH265236   1.490   0.177  16.131 -0.8110  0.1377  0.6503
14582TIP3    H165237   1.421   0.214  16.184 -1.2044 -0.8608  0.8597
14582TIP3    H265238   1.528   0.108  16.185 -1.7182 -1.4231 -0.6028
14583TIP3   OH265239   3.093   2.146  16.090 -0.5040 -0.4778 -0.5529
14583TIP3    H165240   3.097   2.203  16.014 -0.2283  1.4643  0.8465
14583TIP3    H265241   3.001   2.120  16.096 -0.7624  0.3332 -0.8747
14584TIP3   OH265242   3.066   1.537   5.528  0.2035  0.5385 -0.5217
14584TIP3    H165243   3.116   1.456   5.528 -0.7764 -0.1016  1.1530
14584TIP3    H265244   3.001   1.525   5.458 -0.6962 -0.6487  0.4706
14585TIP3   OH265245   3.525   3.508   1.433  0.3248 -0.0941  0.5328
14585TIP3    H165246   3.527   3.473   1.522 -0.6881 -2.7124 -0.3982
14585TIP3    H265247   3.617   3.522   1.411  0.8732 -2.6569  0.8713
14586TIP3   OH265248   3.804   6.818   1.280  0.0734 -0.2765 -0.6074
14586TIP3    H165249   3.761   6.754   1.224 -0.1586 -0.4186 -0.2688
14586TIP3    H265250   3.891   6.829   1.241 -0.5059  0.5595 -1.7094
14587TIP3   OH265251   1.985   0.647   2.501 -0.4513 -0.0132  0.0246
14587TIP3    H165252   1.972   0.600   2.419  0.6357 -1.1314  0.4656
14587TIP3    H265253   2.062   0.606   2.541 -1.2745  0.1228  1.8666
14588TIP3   OH265254   6.215   6.282  16.893  0.5874 -0.6074  0.0300
14588TIP3    H165255   6.222   6.203  16.839  1.0583 -0.4914 -0.0825
14588TIP3    H265256   6.296   6.329  16.877 -0.0741  0.3566 -0.6177
14589TIP3   OH265257   5.914   3.956   2.713  0.1173 -0.8132  0.4736
14589TIP3    H165258   5.906   3.876   2.765 -0.7342 -0.4136  0.9820
14589TIP3    H265259   5.987   4.003   2.752 -0.1319 -0.8020  0.9389
14590TIP3   OH265260   3.918   6.483  16.515 -0.3719 -0.0004  0.2119
14590TIP3    H165261   3.960   6.562  16.549 -0.1085 -0.9329  2.2132
14590TIP3    H265262   3.831   6.512  16.487  0.0138  1.1359  0.1455
14591TIP3   OH265263   0.633   0.171   5.134 -0.5569 -0.1736  0.2357
14591TIP3    H165264   0.625   0.093   5.079 -1.3114  0.8073 -1.0995
14591TIP3    H265265   0.726   0.181   5.149 -0.3347 -0.4786 -0.8594
14592TIP3   OH265266   2.046   2.944   4.234  0.6084 -0.1176 -0.0424
14592TIP3    H165267   2.118   2.999   4.265  2.5054 -2.5557  0.1769
14592TIP3    H265268   2.076   2.911   4.150 -1.1075  0.2782 -0.8382
14593TIP3   OH265269   3.698   6.612  16.587  0.6540 -0.4443  0.2343
14593TIP3    H165270   3.621   6.662  16.557 -0.3018 -2.0810 -0.1513
14593TIP3    H265271   3.728   6.659  16.664  0.3192  1.2053 -0.5889
14594TIP3   OH265272   5.550   3.161   4.692 -0.2698  0.3943 -0.0703
14594TIP3    H165273   5.462   3.171   4.655 -0.8488  0.4704  1.2923
14594TIP3    H265274   5.588   3.248   4.687 -0.6274  0.5695  0.2204
14595TIP3   OH265275   3.845   1.523  15.927 -0.1246 -0.6999  0.2005
14595TIP3    H165276   3.935   1.491  15.940  0.9939  2.0889  0.0460
14595TIP3    H265277   3.790   1.451  15.958  2.1219 -2.7166 -0.1175
14596TIP3   OH265278   1.486   2.320  15.958  0.2373 -0.1226  0.0777
14596TIP3    H165279   1.408   2.374  15.944 -0.0207 -0.6897 -0.7482
14596TIP3    H265280   1.455   2.248  16.013  0.5852  0.5706  1.1936
14597TIP3   OH265281   6.329   3.031  13.801 -0.0217 -0.4867  0.2065
14597TIP3    H165282   6.240   3.022  13.835  0.2738 -0.7829  0.9068
14597TIP3    H265283   6.317   3.043  13.706 -0.7668 -1.5457  0.1415
14598TIP3   OH265284   6.529   1.448  10.806 -0.4912 -0.1392 -0.3771
14598TIP3    H165285   6.611   1.423  10.848 -0.9524 -0.8964  0.0859
14598TIP3    H265286   6.553   1.520  10.747  0.5188 -0.4380 -0.3404
14599TIP3   OH265287   3.836   5.541  15.127 -0.2974 -0.6269 -0.2639
14599TIP3    H165288   3.837   5.601  15.201  1.4356 -0.6702 -0.2123
14599TIP3    H265289   3.808   5.594  15.053 -1.0056 -0.3241  0.2154
14600TIP3   OH265290   4.184   0.153   2.855  0.2745  0.4114 -0.0025
14600TIP3    H165291   4.235   0.090   2.804 -0.6210  1.0944 -1.8266
14600TIP3    H265292   4.225   0.237   2.835  1.3398  0.5046  2.2582
14601TIP3   OH265293   5.205   4.322  13.332 -0.5093  0.1534 -0.1153
14601TIP3    H165294   5.174   4.395  13.278 -1.0479  0.6953  0.8952
14601TIP3    H265295   5.231   4.254  13.269  0.3308  1.3362 -1.0925
14602TIP3   OH265296   6.005   3.682   2.798 -0.4138 -0.0033  0.3356
14602TIP3    H165297   5.976   3.716   2.883  1.8474  2.5539  0.2167
14602TIP3    H265298   6.098   3.663   2.810  0.5375  2.5236 -2.0598
14603TIP3   OH265299   2.202   3.966  11.410  0.1560  0.5391 -0.4654
14603TIP3    H165300   2.207   4.040  11.350  0.8355  0.2416 -0.7831
14603TIP3    H265301   2.209   4.005  11.498 -0.6838  0.9576 -0.5760
14604TIP3   OH265302   6.751   3.109  12.999 -0.5827 -0.1317 -0.1226
14604TIP3    H165303   6.832   3.159  12.989  0.4704 -1.6372  0.3923
14604TIP3    H265304   6.681   3.173  12.989  0.6067  0.9278 -2.3955
14605TIP3   OH265305   2.345   1.503  17.087  0.2949  0.2760  0.2668
14605TIP3    H165306   2.306   1.579  17.131  0.2968 -0.0915  0.9171
14605TIP3    H265307   2.289   1.488  17.011  0.7637  1.4170 -0.3275
14606TIP3   OH265308   0.319   1.891   0.323 -0.0351 -0.0552 -0.7620
14606TIP3    H165309   0.295   1.956   0.258  2.4181  1.0022 -0.7228
14606TIP3    H265310   0.408   1.914   0.348  0.3970 -2.5771  0.3388
14607TIP3   OH265311   1.459   3.545   4.051  0.4213 -0.0703 -0.2601
14607TIP3    H165312   1.405   3.485   4.000  0.1398  0.6355 -0.8089
14607TIP3    H265313   1.417   3.548   4.137  0.6857 -0.9762 -0.0810
14608TIP3   OH265314   4.699   4.557   6.304 -0.3783 -0.2722  0.5107
14608TIP3    H165315   4.709   4.638   6.354 -3.7687  0.5308  0.0901
14608TIP3    H265316   4.727   4.580   6.215  0.0689 -0.0062  0.7181
14609TIP3   OH265317   2.321   0.101   3.897  0.4249 -0.1633 -0.3151
14609TIP3    H165318   2.281   0.136   3.976  0.7396  0.2436 -0.3288
14609TIP3    H265319   2.303   0.167   3.829 -1.1918 -1.2295 -0.9743
14610TIP3   OH265320   0.109   2.044  15.064 -0.5129  0.0641 -0.0488
14610TIP3    H165321   0.116   2.125  15.014 -0.4648 -0.7555 -1.4206
14610TIP3    H265322   0.026   2.053  15.112 -0.2967  1.0870  0.1656
14611TIP3   OH265323   2.222   0.532  11.903  0.0986  0.4283  0.1712
14611TIP3    H165324   2.197   0.615  11.944  0.7309  0.2929  0.8643
14611TIP3    H265325   2.212   0.467  11.973 -0.3282 -0.0770 -0.3443
14612TIP3   OH265326   2.451   0.256  16.367  0.5310 -0.4656  0.4295
14612TIP3    H165327   2.518   0.194  16.337 -0.3033 -1.0869 -0.1817
14612TIP3    H265328   2.388   0.260  16.295 -0.9344 -1.1318  1.6280
14613TIP3   OH265329   0.532   0.343   0.270 -0.3457 -0.3805 -0.1176
14613TIP3    H165330   0.474   0.312   0.201 -1.6589  1.4815  0.1008
14613TIP3    H265331   0.491   0.313   0.351 -1.3300  1.3289  0.0641
14614TIP3   OH265332   3.376   2.245  12.427 -0.6079  0.3916  0.5814
14614TIP3    H165333   3.423   2.161  12.426 -0.2577  0.5826 -0.8887
14614TIP3    H265334   3.433   2.303  12.478 -0.0258  0.1899  0.1719
14615TIP3   OH265335   2.607   2.027  14.774 -0.3737 -0.0813  0.3667
14615TIP3    H165336   2.552   2.081  14.831  0.6193  2.3458 -0.8366
14615TIP3    H265337   2.572   2.042  14.686  0.2071 -1.0588 -0.0452
14616TIP3   OH265338   0.068   5.352  13.658  0.2087 -0.2732 -0.4573
14616TIP3    H165339  -0.026   5.369  13.647  0.4150  1.0510 -0.3553
14616TIP3    H265340   0.091   5.297  13.583 -1.1917 -3.0386  0.9944
14617TIP3   OH265341   2.154   3.425  12.292  0.8847  0.6156  0.1314
14617TIP3    H165342   2.239   3.469  12.290  0.1788  2.0524  0.1595
14617TIP3    H265343   2.112   3.457  12.372  0.2939 -0.0346  0.0911
14618TIP3   OH265344   6.459   5.809  15.053  0.2228  0.1392  0.1923
14618TIP3    H165345   6.523   5.810  14.982  0.2130 -0.6090  0.1666
14618TIP3    H265346   6.512   5.809  15.132  0.2417  0.1782  0.1802
14619TIP3   OH265347   1.773   2.259  12.483  0.1730  0.0437 -0.2740
14619TIP3    H165348   1.818   2.182  12.517  1.1893  1.0181  0.6895
14619TIP3    H265349   1.806   2.332  12.537 -3.4336  0.7016  1.3435
14620TIP3   OH265350   1.599   5.862   4.160 -0.0979  0.1828  0.0887
14620TIP3    H165351   1.560   5.887   4.244 -1.9489 -1.1177 -0.3249
14620TIP3    H265352   1.543   5.904   4.094  1.1483  0.9306 -0.5394
14621TIP3   OH265353   6.482   4.107  11.246  0.0542 -0.8060  0.3887
14621TIP3    H165354   6.419   4.044  11.281 -0.6549 -0.2568  0.1223
14621TIP3    H265355   6.562   4.090  11.296 -0.4785 -1.0819  1.1809
14622TIP3   OH265356   2.374   3.866   0.969 -0.1434 -0.4286  0.2324
14622TIP3    H165357   2.346   3.784   1.009  0.5265 -0.0853  1.4461
14622TIP3    H265358   2.394   3.843   0.878 -1.2693 -1.3090  0.1896
14623TIP3   OH265359   0.097   0.040  12.176 -0.2405  0.2477  0.0754
14623TIP3    H165360   0.176  -0.012  12.190  0.0122  0.5752 -0.1235
14623TIP3    H265361   0.115   0.124  12.218 -0.4291  0.3716 -0.0876
14624TIP3   OH265362   2.603   0.492   1.829 -0.1499 -0.2494  0.3296
14624TIP3    H165363   2.577   0.499   1.737  0.1970  0.0863  0.2521
14624TIP3    H265364   2.530   0.447   1.871 -0.8778  0.6987  0.1285
14625TIP3   OH265365   3.098   1.852  13.015 -0.3327 -0.9267  0.1072
14625TIP3    H165366   3.159   1.918  13.046 -0.7430 -1.1608  1.5104
14625TIP3    H265367   3.012   1.885  13.042 -0.5789 -1.8021  0.4300
14626TIP3   OH265368   5.425   5.505   0.365  0.0517  0.4369 -0.1050
14626TIP3    H165369   5.363   5.473   0.299 -0.6433  0.6525  0.4393
14626TIP3    H265370   5.467   5.581   0.323 -1.9935  1.9714  0.4977
14627TIP3   OH265371   3.213   0.875  16.403 -0.4254  0.1887 -0.8542
14627TIP3    H165372   3.249   0.787  16.413 -0.7954  0.2339  1.2211
14627TIP3    H265373   3.118   0.861  16.394 -0.3928  0.3385 -1.4939
14628TIP3   OH265374   4.094   4.775  15.670  0.3595 -0.0854 -0.4119
14628TIP3    H165375   4.115   4.864  15.643 -0.3398  0.2678  0.1951
14628TIP3    H265376   4.006   4.760  15.637  0.4869 -0.5664 -0.5404
14629TIP3   OH265377   4.312   5.221   5.545 -0.0556 -0.4768 -0.2544
14629TIP3    H165378   4.355   5.171   5.615 -0.4904  0.6904  0.8991
14629TIP3    H265379   4.230   5.251   5.585  0.4309  1.5848 -0.7139
14630TIP3   OH265380   2.005   2.910  13.736 -0.4901 -0.0845  0.4658
14630TIP3    H165381   2.062   2.911  13.659  1.4109  0.3795  1.8051
14630TIP3    H265382   2.025   2.992  13.781 -0.4595 -1.0105  2.2026
14631TIP3   OH265383   5.923   6.000   2.749  0.4806  0.4380 -0.4039
14631TIP3    H165384   5.915   6.011   2.844 -1.3059  0.1001 -0.4792
14631TIP3    H265385   5.943   5.907   2.737  0.6688  0.4730 -0.3603
14632TIP3   OH265386   3.854   1.916  14.191  0.0373 -0.0301 -0.0257
14632TIP3    H165387   3.844   1.821  14.186  0.6175 -0.0342 -1.3241
14632TIP3    H265388   3.766   1.948  14.209 -0.1597 -0.8096  0.4711
14633TIP3   OH265389   5.727   6.823   0.616  0.3726 -0.3366  0.0133
14633TIP3    H165390   5.751   6.739   0.577 -1.4377  0.0261 -2.0773
14633TIP3    H265391   5.706   6.879   0.541 -1.0739  1.1416  1.4357
14634TIP3   OH265392   2.976   4.687   5.424 -0.2510  0.1564 -0.1543
14634TIP3    H165393   2.917   4.619   5.456  0.6945 -1.1328 -0.9953
14634TIP3    H265394   2.942   4.768   5.460 -1.9069 -0.6637  0.2334
14635TIP3   OH265395   0.487   0.565   4.384  0.4058 -0.0515 -0.3696
14635TIP3    H165396   0.405   0.544   4.429  0.8277 -1.4431 -0.1908
14635TIP3    H265397   0.468   0.646   4.337 -1.1233 -0.4063 -0.4333
14636TIP3   OH265398   2.294   1.963  13.185  0.3206 -0.5353 -0.0898
14636TIP3    H165399   2.215   2.009  13.158  0.6808 -0.6460 -1.4214
14636TIP3    H265400   2.268   1.870  13.187  0.4644 -0.5973 -0.7721
14637TIP3   OH265401   4.913   5.523  15.644  0.0085 -0.3262 -0.6168
14637TIP3    H165402   4.871   5.602  15.611 -0.7502 -0.1625  0.6682
14637TIP3    H265403   4.861   5.498  15.721  2.4472  0.1522  1.3496
14638TIP3   OH265404   6.560   4.413  13.809 -0.3024  0.1511  0.0805
14638TIP3    H165405   6.546   4.490  13.864 -0.1442 -0.0568  0.4102
14638TIP3    H265406   6.634   4.367  13.849  0.4528  0.5041 -0.8551
14639TIP3   OH265407   1.117   1.768  15.390 -0.1278 -0.0690 -0.0413
14639TIP3    H165408   1.039   1.772  15.334 -0.1319 -1.1990 -0.1384
14639TIP3    H265409   1.175   1.835  15.354 -0.3429 -0.4089 -1.0846
14640TIP3   OH265410   5.399   2.398   3.483 -0.8208  0.1518 -0.4505
14640TIP3    H165411   5.453   2.335   3.531 -0.9010  0.6041  0.2407
14640TIP3    H265412   5.393   2.361   3.394  0.3794 -0.0473 -0.4680
14641TIP3   OH265413   1.856   0.534   4.364 -0.0831  0.1906  0.5212
14641TIP3    H165414   1.928   0.595   4.381  1.6116 -1.5994  0.1465
14641TIP3    H265415   1.798   0.582   4.305  0.4051  1.9397  1.3881
14642TIP3   OH265416   0.591   5.722   0.916 -0.1027 -0.3586 -0.5563
14642TIP3    H165417   0.612   5.708   0.824 -0.9361 -1.7064 -0.5560
14642TIP3    H265418   0.675   5.713   0.961  0.3761  0.6543 -1.1855
14643TIP3   OH265419   1.208   1.077   6.336 -0.0883  0.3032 -0.2098
14643TIP3    H165420   1.188   0.997   6.289 -2.7835  1.4396 -1.1494
14643TIP3    H265421   1.295   1.061   6.374 -0.0551 -2.5865 -1.2692
14644TIP3   OH265422   2.893   3.945  12.141  0.0509 -0.8214  0.8616
14644TIP3    H165423   2.818   3.891  12.167 -0.4496 -0.4827  0.1648
14644TIP3    H265424   2.967   3.885  12.143 -0.4625 -1.5042  0.2833
14645TIP3   OH265425   6.704   3.338   1.309 -0.4764 -0.3253  0.4054
14645TIP3    H165426   6.781   3.288   1.336  0.5449 -0.5533 -2.5287
14645TIP3    H265427   6.656   3.279   1.252 -1.5706  0.6068  0.3203
14646TIP3   OH265428   2.310   5.397  13.908 -0.6851  0.6573 -0.1006
14646TIP3    H165429   2.265   5.316  13.932 -0.5212  0.6585  0.2289
14646TIP3    H265430   2.241   5.458  13.884 -0.7957  0.3552 -0.5387
14647TIP3   OH265431   1.117   5.822  14.583  0.8561  0.2854 -0.9790
14647TIP3    H165432   1.186   5.884  14.561 -0.2044  1.4392 -1.1689
14647TIP3    H265433   1.161   5.737  14.591  2.5772  1.2545  0.5828
14648TIP3   OH265434   1.062   3.490  13.565 -0.3927  0.4670  0.0522
14648TIP3    H165435   1.115   3.420  13.526  1.9066  3.1148 -2.0333
14648TIP3    H265436   0.980   3.448  13.590  1.2612 -3.1368 -0.0295
14649TIP3   OH265437   1.998   0.877   5.455 -0.3322 -0.2003  0.0846
14649TIP3    H165438   2.000   0.930   5.375 -0.0387 -3.4459 -2.2416
14649TIP3    H265439   2.065   0.917   5.512 -2.3133  3.7712 -0.0127
14650TIP3   OH265440   0.163   4.959  16.596  0.2101 -0.0583 -0.3436
14650TIP3    H165441   0.114   4.886  16.558  0.2212 -0.3239  0.1559
14650TIP3    H265442   0.241   4.919  16.633 -0.1291  0.1074  0.5615
14651TIP3   OH265443   1.665   5.417  16.153  0.6415 -0.3076  0.3672
14651TIP3    H165444   1.690   5.349  16.091  0.7222  0.7271 -0.7707
14651TIP3    H265445   1.635   5.490  16.098  0.4438  0.5321  1.5518
14652TIP3   OH265446   5.348   3.515   2.831  0.1717  0.3405 -0.4029
14652TIP3    H165447   5.394   3.598   2.818 -3.3662  2.5655 -0.2363
14652TIP3    H265448   5.256   3.535   2.811 -1.0194 -3.3531  0.4970
14653TIP3   OH265449   4.218   0.433   2.789  0.5345  1.1835 -0.0025
14653TIP3    H165450   4.148   0.432   2.855  1.3948 -0.4735  0.9472
14653TIP3    H265451   4.288   0.484   2.828  0.5306  1.3554 -0.2160
14654TIP3   OH265452   5.094   5.040  12.050 -0.3194  0.3806  0.7352
14654TIP3    H165453   5.145   5.090  11.986 -0.2361  1.3838  1.5597
14654TIP3    H265454   5.011   5.088  12.056 -1.1393 -0.8735 -0.1172
14655TIP3   OH265455   4.995   3.306   5.240 -0.5612 -0.2504 -0.0182
14655TIP3    H165456   4.900   3.296   5.253 -1.1085  0.4737 -2.8267
14655TIP3    H265457   5.030   3.219   5.260 -1.7447 -0.4627  1.3439
14656TIP3   OH265458   2.543   3.848   4.529  0.3755 -0.4841  0.3273
14656TIP3    H165459   2.551   3.753   4.523 -0.5581 -0.5307 -0.6468
14656TIP3    H265460   2.592   3.882   4.454 -1.5304 -0.3788 -0.9511
14657TIP3   OH265461   4.407   0.970  10.937  1.1396 -0.2125 -0.5398
14657TIP3    H165462   4.381   0.877  10.941 -0.2032  0.1387 -0.5115
14657TIP3    H265463   4.475   0.978  11.003  0.0692 -0.8318  0.6959
14658TIP3   OH265464   1.726   2.984  17.086 -0.3981 -0.3290 -0.2604
14658TIP3    H165465   1.724   2.911  17.148 -0.5463 -0.0339  0.0823
14658TIP3    H265466   1.642   2.978  17.040 -0.7667  0.1215  0.3447
14659TIP3   OH265467   2.367   6.198   3.698 -0.2364 -0.2336  0.2390
14659TIP3    H165468   2.336   6.281   3.733  0.0217  0.1236 -0.3515
14659TIP3    H265469   2.333   6.132   3.758 -0.8264  0.2612  0.4614
14660TIP3   OH265470   3.559   5.350   3.785 -0.2465 -0.1318  0.5825
14660TIP3    H165471   3.502   5.417   3.746  1.3364  1.5056  0.9733
14660TIP3    H265472   3.611   5.397   3.850  1.2900 -1.6378  0.5151
14661TIP3   OH265473   2.021   1.334  13.395 -0.2992  0.0619  0.6028
14661TIP3    H165474   1.941   1.312  13.348  0.6036 -2.2076  0.0045
14661TIP3    H265475   2.020   1.277  13.472 -0.3534  1.6891  1.8524
14662TIP3   OH265476   4.754   1.049   2.488 -0.3545  0.1090  0.9595
14662TIP3    H165477   4.803   0.990   2.432 -0.3544  0.2272  0.8357
14662TIP3    H265478   4.779   1.023   2.577 -3.0682 -2.5554  1.1253
14663TIP3   OH265479   1.806   5.856  14.447  0.0276  0.2233  0.0417
14663TIP3    H165480   1.849   5.807  14.377  0.2576  0.0361  0.3134
14663TIP3    H265481   1.730   5.895  14.405 -0.0201 -0.1604 -0.2369
14664TIP3   OH265482   4.194   5.386  13.099  0.3661  0.2490  0.7561
14664TIP3    H165483   4.202   5.389  13.004  1.2766  0.0737  0.8154
14664TIP3    H265484   4.177   5.476  13.126  0.2232  0.3165  0.4325
14665TIP3   OH265485   5.148   4.984  15.775  0.3254  0.3579  0.5966
14665TIP3    H165486   5.066   4.946  15.806  0.5214 -0.2770  0.3565
14665TIP3    H265487   5.205   4.909  15.758  0.4656  0.7073 -0.6059
14666TIP3   OH265488   1.872   6.521   2.291 -0.3331 -0.1255  0.3647
14666TIP3    H165489   1.833   6.471   2.362 -0.1453  0.0379  0.5851
14666TIP3    H265490   1.967   6.511   2.304 -0.2900 -1.3899 -0.7745
14667TIP3   OH265491   2.396   0.045  12.490 -0.0690 -0.4312  1.0092
14667TIP3    H165492   2.352  -0.025  12.442  0.4678 -1.6304  2.1585
14667TIP3    H265493   2.489   0.033  12.469 -0.1467  1.6166 -0.8310
14668TIP3   OH265494   5.367   4.204  16.560  0.0685  0.0359  0.1468
14668TIP3    H165495   5.387   4.249  16.642 -1.7074 -0.2894  0.8000
14668TIP3    H265496   5.426   4.128  16.561 -0.4754 -0.4014  1.5240
14669TIP3   OH265497   2.881   3.547  12.620  0.0843  0.3899 -0.2669
14669TIP3    H165498   2.805   3.561  12.677  0.8418  0.7951  0.6729
14669TIP3    H265499   2.859   3.468  12.569 -1.4208  1.1257 -0.8213
14670TIP3   OH265500   3.255   3.602  16.790 -0.3299  0.0454  0.4730
14670TIP3    H165501   3.290   3.689  16.774 -1.3579  1.0961  3.2653
14670TIP3    H265502   3.162   3.609  16.767 -0.7339  0.1613  2.0478
14671TIP3   OH265503   1.334   0.003  13.961  0.4724 -0.8753  0.4703
14671TIP3    H165504   1.288  -0.029  14.039  0.1133 -0.9932  0.2154
14671TIP3    H265505   1.422   0.022  13.991  0.5266 -1.5524  0.7597
14672TIP3   OH265506   4.180   3.399   3.077  0.1005 -0.0015 -0.5805
14672TIP3    H165507   4.173   3.391   3.172 -0.5154 -2.3347 -0.7698
14672TIP3    H265508   4.116   3.466   3.054  0.1223  0.4570  0.6263
14673TIP3   OH265509   6.706   4.795   5.125  0.4453 -0.5259 -0.0872
14673TIP3    H165510   6.645   4.856   5.168  0.1578 -0.8128 -0.0845
14673TIP3    H265511   6.745   4.746   5.197  1.8952  0.7573  0.0462
14674TIP3   OH265512   3.960   3.840   5.932 -0.0318 -0.4991  1.2807
14674TIP3    H165513   3.933   3.826   6.023  0.6139  0.3374  1.6090
14674TIP3    H265514   3.967   3.752   5.895  1.5789 -0.9624  2.5919
14675TIP3   OH265515   6.268   1.110   0.790 -0.0325 -0.0444  0.1409
14675TIP3    H165516   6.354   1.135   0.756 -0.7316 -0.3753 -2.0261
14675TIP3    H265517   6.278   1.019   0.818  0.1976 -0.2474 -0.5960
14676TIP3   OH265518   0.312   3.040  13.086 -0.1534 -0.1299  0.4841
14676TIP3    H165519   0.320   2.944  13.087  0.1477 -0.1065  1.0063
14676TIP3    H265520   0.307   3.063  12.993  0.3115 -0.6139  0.3325
14677TIP3   OH265521   5.459   0.016  11.205  0.4546 -0.1561 -0.6354
14677TIP3    H165522   5.446  -0.043  11.279 -0.6843 -0.3690 -0.9794
14677TIP3    H265523   5.468  -0.042  11.129  1.8252  0.0525 -0.6496
14678TIP3   OH265524   4.245   4.590  14.708 -0.3539 -0.0837  0.1890
14678TIP3    H165525   4.285   4.612  14.792 -1.3209 -0.8268  0.8645
14678TIP3    H265526   4.295   4.514  14.677 -0.5016 -0.2974  0.4725
14679TIP3   OH265527   4.866   0.400  15.031 -0.0565  0.1667 -0.0227
14679TIP3    H165528   4.953   0.381  15.066  0.2332  0.6077 -0.4802
14679TIP3    H265529   4.838   0.479  15.078 -0.4233 -0.2649  0.4836
14680TIP3   OH265530   1.157   3.740  13.046 -0.6581  0.1391 -0.7024
14680TIP3    H165531   1.114   3.654  13.044 -3.1667  1.3353 -1.5121
14680TIP3    H265532   1.111   3.789  13.114 -0.2819  1.3287 -1.2763
14681TIP3   OH265533   4.582   4.389   0.574  0.9191  0.3849 -0.3306
14681TIP3    H165534   4.604   4.480   0.555  1.6071  0.4789  0.8388
14681TIP3    H265535   4.665   4.349   0.600  0.7345 -0.7386 -1.3674
14682TIP3   OH265536   5.905   3.582   1.104 -0.2326  0.3798  0.4663
14682TIP3    H165537   5.942   3.544   1.025 -1.6375 -1.9872  0.8393
14682TIP3    H265538   5.816   3.607   1.080  0.0880  1.8812  0.7238
14683TIP3   OH265539   4.783   3.563  13.335  0.3129  0.1750 -0.0044
14683TIP3    H165540   4.837   3.484  13.332 -0.1351 -0.1000 -1.5872
14683TIP3    H265541   4.830   3.626  13.282  0.3597  0.7923  0.7541
14684TIP3   OH265542   3.208   2.011   5.633 -0.1355 -0.0246 -0.1865
14684TIP3    H165543   3.175   2.062   5.559 -1.6229 -1.1488 -0.3442
14684TIP3    H265544   3.254   1.938   5.593  1.5944  0.8971  0.0387
14685TIP3   OH265545   0.443   5.798  13.069  0.6813 -0.3159  0.8372
14685TIP3    H165546   0.430   5.805  13.164  0.3594 -1.2891  0.8793
14685TIP3    H265547   0.535   5.819  13.056  0.5622  0.5339  1.2750
14686TIP3   OH265548   5.189   4.249  14.721  0.4662  0.2148  0.2095
14686TIP3    H165549   5.175   4.186  14.792  3.8616 -2.3325 -1.1172
14686TIP3    H265550   5.107   4.249  14.673 -0.7908 -0.5266  2.2089
14687TIP3   OH265551   1.699   0.921   3.848  0.0550  0.2177 -0.2822
14687TIP3    H165552   1.620   0.876   3.819 -0.2512  0.9336 -0.5851
14687TIP3    H265553   1.669   1.009   3.872  0.4395 -0.0692  1.3625
14688TIP3   OH265554   4.276   2.676   6.283 -0.4045 -0.3643  0.3257
14688TIP3    H165555   4.332   2.600   6.261  1.2520  0.7189  0.5894
14688TIP3    H265556   4.280   2.682   6.378  0.1490  0.5229  0.2545
14689TIP3   OH265557   4.605   4.654  12.982 -0.0469 -0.3443 -0.3342
14689TIP3    H165558   4.607   4.563  13.012 -0.4858 -1.0267 -2.2796
14689TIP3    H265559   4.512   4.678  12.984  0.0702  0.0916  0.2007
14690TIP3   OH265560   0.683   3.819  16.122 -0.3735 -0.4998  0.3001
14690TIP3    H165561   0.706   3.730  16.150 -0.8689 -0.4706  0.8124
14690TIP3    H265562   0.725   3.875  16.188 -0.0199 -0.3471 -0.0516
14691TIP3   OH265563   6.805   4.245   4.418  0.0493 -0.3783  0.0279
14691TIP3    H165564   6.789   4.154   4.393 -0.3630 -0.5070  0.7211
14691TIP3    H265565   6.721   4.275   4.454  1.1840 -1.0062  3.5641
14692TIP3   OH265566   4.135   6.688   5.243 -0.4523 -0.0729  0.3621
14692TIP3    H165567   4.159   6.778   5.268 -2.0499  0.8329 -1.1697
14692TIP3    H265568   4.123   6.643   5.327 -0.4856  1.3979  1.1869
14693TIP3   OH265569   6.081   6.540   0.415 -0.5142 -0.2412  0.3578
14693TIP3    H165570   6.125   6.622   0.393  0.3599 -0.7019  0.3315
14693TIP3    H265571   6.123   6.475   0.358 -0.3806 -0.9054  1.1947
14694TIP3   OH265572   4.282   5.083   2.941  0.3497  0.3008 -0.1068
14694TIP3    H165573   4.235   5.155   2.984  3.0841  1.5380  1.0279
14694TIP3    H265574   4.224   5.008   2.949 -2.1316  2.0694 -0.3077
14695TIP3   OH265575   5.505   1.724  10.313  0.2192  0.3723  0.5765
14695TIP3    H165576   5.567   1.757  10.248 -0.2370  0.8562  0.3878
14695TIP3    H265577   5.485   1.635  10.284  0.0098  0.5900  0.0516
14696TIP3   OH265578   3.003   2.398  14.559 -0.0481 -0.5975  0.4319
14696TIP3    H165579   2.995   2.429  14.469  1.4682 -0.7617  0.2067
14696TIP3    H265580   2.927   2.341  14.572 -0.1322 -0.7998 -0.8472
14697TIP3   OH265581   0.619   2.474   0.231 -0.0666  0.1480 -0.1904
14697TIP3    H165582   0.690   2.450   0.292 -0.5216  1.0719  0.7425
14697TIP3    H265583   0.576   2.391   0.210  0.8124 -0.3295 -0.1706
14698TIP3   OH265584   2.724   5.119  11.152  0.4132  0.4723 -0.3795
14698TIP3    H165585   2.766   5.035  11.135  1.2143  0.8792 -0.4708
14698TIP3    H265586   2.795   5.174  11.186 -0.1827  1.0004  0.0216
14699TIP3   OH265587   2.008   0.674   3.645 -0.1038 -0.1719 -0.1922
14699TIP3    H165588   1.914   0.662   3.650  0.0496 -1.5597 -0.4415
14699TIP3    H265589   2.031   0.717   3.727 -1.0974  1.4176 -0.6786
14700TIP3   OH265590   2.961   6.240   2.563  0.0232  0.2820 -0.0976
14700TIP3    H165591   2.992   6.182   2.494 -0.8695  0.7441 -0.8999
14700TIP3    H265592   3.020   6.223   2.637 -0.5386 -2.0456 -0.1071
14701TIP3   OH265593   4.467   2.766  14.658 -0.2406 -0.7878  0.0218
14701TIP3    H165594   4.534   2.722  14.605 -0.0129  0.9067 -1.1648
14701TIP3    H265595   4.407   2.804  14.594 -1.5363 -1.0374  1.0545
14702TIP3   OH265596   0.545   4.829  14.226 -0.1055 -0.0423 -0.2287
14702TIP3    H165597   0.584   4.836  14.313  0.4826 -1.1268 -0.3946
14702TIP3    H265598   0.472   4.768  14.236  0.6251 -1.0213 -0.6988
14703TIP3   OH265599   6.178   3.831   2.508  0.4379  0.1598  0.4928
14703TIP3    H165600   6.127   3.889   2.451  1.2509  0.2024 -0.2171
14703TIP3    H265601   6.126   3.752   2.515  0.2355  0.2284 -0.1642
14704TIP3   OH265602   2.668   0.929  12.784 -0.1644  0.5134 -0.0299
14704TIP3    H165603   2.757   0.941  12.753  0.1345  0.1561  0.6548
14704TIP3    H265604   2.615   0.990  12.733  0.3201  0.0396 -1.1182
14705TIP3   OH265605   1.159   5.636   0.251 -0.4284 -0.5450 -0.2014
14705TIP3    H165606   1.098   5.701   0.285 -0.1018 -1.2972  2.0101
14705TIP3    H265607   1.129   5.619   0.162 -2.2359  0.5307  0.1444
14706TIP3   OH265608   2.897   4.056   3.571 -0.3623  0.2827 -0.1134
14706TIP3    H165609   2.893   4.046   3.476  0.9786 -1.5450 -0.0213
14706TIP3    H265610   2.805   4.064   3.598 -0.7041  2.6539 -1.6761
14707TIP3   OH265611   1.453   2.242  10.943  0.2170 -0.0583 -0.7151
14707TIP3    H165612   1.433   2.217  10.852  0.8617 -2.2488 -0.3228
14707TIP3    H265613   1.529   2.299  10.935  1.4236 -1.6906 -1.5069
14708TIP3   OH265614   4.092   4.955   4.902  0.0296  0.0602 -0.3443
14708TIP3    H165615   4.167   4.947   4.962 -2.6132  0.6297  3.4140
14708TIP3    H265616   4.089   5.048   4.879 -1.4882  0.8646  2.6155
14709TIP3   OH265617   4.071   1.555  16.234  0.1641 -0.1071  0.1248
14709TIP3    H165618   4.065   1.561  16.329  3.1570 -0.2308  0.4163
14709TIP3    H265619   4.063   1.645  16.203 -0.3575 -0.0173  0.4992
14710TIP3   OH265620   6.032   5.215  15.124  0.2275  0.3321 -0.5418
14710TIP3    H165621   6.098   5.162  15.081 -0.7275 -0.9311 -0.5244
14710TIP3    H265622   6.035   5.188  15.216  0.2667  0.8780 -0.3793
14711TIP3   OH265623   4.713   1.459   3.944 -0.1986  0.1207  0.4163
14711TIP3    H165624   4.762   1.393   3.993  0.9203  0.3192 -0.3891
14711TIP3    H265625   4.778   1.499   3.886 -1.6147 -0.6624 -1.8394
14712TIP3   OH265626   4.221   1.298   1.983  0.0206  0.1421 -0.0564
14712TIP3    H165627   4.227   1.204   1.963 -0.1436 -0.1992  1.3789
14712TIP3    H265628   4.164   1.303   2.059  0.1085  1.4073 -0.0517
14713TIP3   OH265629   3.074   0.751  14.467 -0.3870 -0.0554  0.3207
14713TIP3    H165630   2.993   0.709  14.495 -0.8644  1.6960  1.7522
14713TIP3    H265631   3.124   0.763  14.547  1.3854 -1.1987 -0.5500
14714TIP3   OH265632   1.118   4.705   1.211 -0.2982 -0.0097 -0.1159
14714TIP3    H165633   1.028   4.691   1.180 -0.0506  0.6528 -1.1722
14714TIP3    H265634   1.112   4.781   1.269 -0.2014  0.9654 -1.3426
14715TIP3   OH265635   5.268   1.343  12.234  0.0550  0.1667 -0.1175
14715TIP3    H165636   5.228   1.362  12.319  2.1963  0.8740  0.7789
14715TIP3    H265637   5.196   1.356  12.171 -0.8176  2.7862  1.2627
14716TIP3   OH265638   3.434   3.542  16.266  0.3741  0.4190 -0.0711
14716TIP3    H165639   3.423   3.461  16.316  0.5478 -0.9947 -2.2175
14716TIP3    H265640   3.468   3.605  16.330 -0.9973 -0.7867  1.9690
14717TIP3   OH265641   2.584   4.859   1.954 -0.2784 -0.8027  0.1174
14717TIP3    H165642   2.504   4.807   1.953 -0.6027 -0.3156  0.1284
14717TIP3    H265643   2.641   4.818   1.888 -0.0423 -1.8923  0.9785
14718TIP3   OH265644   1.624   1.816   4.809 -0.1482  0.3706  0.0509
14718TIP3    H165645   1.630   1.826   4.904  0.7643  0.9123 -0.0553
14718TIP3    H265646   1.590   1.727   4.797 -2.7028  1.1509  0.9079
14719TIP3   OH265647   3.093   0.322   5.060 -0.1999 -0.2838 -0.3254
14719TIP3    H165648   3.129   0.249   5.110 -1.5879 -1.3611 -0.8195
14719TIP3    H265649   3.018   0.284   5.014 -1.5569  1.6791  0.1579
14720TIP3   OH265650   3.678   2.953   1.559 -0.4352 -0.1189  0.4491
14720TIP3    H165651   3.592   2.915   1.573 -0.0988 -1.1738 -0.2655
14720TIP3    H265652   3.661   3.036   1.513 -1.0184 -0.9114 -0.8124
14721TIP3   OH265653   1.834   3.285  10.727 -0.0545  0.1372  0.0609
14721TIP3    H165654   1.772   3.354  10.703 -0.4390 -0.1814  0.1327
14721TIP3    H265655   1.830   3.222  10.655 -1.3777 -0.9372  1.0074
14722TIP3   OH265656   1.797   5.342  13.112 -0.0414  0.5114  1.0795
14722TIP3    H165657   1.711   5.384  13.113 -0.3523  0.1613 -1.8911
14722TIP3    H265658   1.858   5.413  13.091  0.2148  0.5050  1.7874
14723TIP3   OH265659   2.074   0.772   3.896  0.3890 -0.1793 -0.9227
14723TIP3    H165660   2.043   0.745   3.982  2.4539  0.0955 -0.0590
14723TIP3    H265661   2.080   0.868   3.901  1.6140 -0.2492 -0.9885
14724TIP3   OH265662   4.579   5.349  11.752  0.1394 -0.1435 -0.2098
14724TIP3    H165663   4.630   5.277  11.790  0.0613  0.4309  1.0275
14724TIP3    H265664   4.570   5.413  11.823 -0.8245  0.5511 -0.9207
14725TIP3   OH265665   5.770   2.229  11.254  0.1128 -0.0431 -0.0512
14725TIP3    H165666   5.699   2.280  11.292  0.7386  0.8075  0.0169
14725TIP3    H265667   5.845   2.288  11.255  0.5203 -0.5006 -1.2340
14726TIP3   OH265668   1.945   5.700   1.455 -0.0699  0.2685  0.0996
14726TIP3    H165669   2.000   5.776   1.435  0.5821 -0.5765 -1.5657
14726TIP3    H265670   1.975   5.632   1.394 -1.1337 -1.0987  1.0226
14727TIP3   OH265671   4.245   5.300   5.261  0.4332 -0.4908  0.5881
14727TIP3    H165672   4.204   5.317   5.346 -0.6771 -0.5307  0.0697
14727TIP3    H265673   4.227   5.377   5.208 -0.8315 -1.3729 -0.3312
14728TIP3   OH265674   1.468   6.669   5.295 -0.2047  0.0964 -0.0946
14728TIP3    H165675   1.429   6.595   5.341 -1.9269  2.7201  3.0487
14728TIP3    H265676   1.397   6.702   5.240  0.2804 -0.0158 -0.7982
14729TIP3   OH265677   6.542   6.337   2.893 -0.0318  0.3159 -0.1576
14729TIP3    H165678   6.497   6.289   2.963  1.6623  0.0142  0.7734
14729TIP3    H265679   6.472   6.361   2.832 -1.0059 -3.7395 -0.9451
14730TIP3   OH265680   2.128   5.765  15.653  0.4721 -0.5416  0.3922
14730TIP3    H165681   2.218   5.783  15.678 -0.1368  1.3608  1.3388
14730TIP3    H265682   2.116   5.671  15.672  1.9068 -0.5642  1.3013
14731TIP3   OH265683   6.651   4.236   5.626  0.0085 -0.2304 -0.1530
14731TIP3    H165684   6.557   4.221   5.622  0.1397 -0.9003 -0.8685
14731TIP3    H265685   6.690   4.150   5.612  0.7213 -0.1929  1.4480
14732TIP3   OH265686   6.433   0.426  10.155 -0.5653 -0.1673  0.0035
14732TIP3    H165687   6.371   0.463  10.218  0.6720 -0.4658  1.4743
14732TIP3    H265688   6.462   0.344  10.196 -1.8559 -1.8687 -2.3064
14733TIP3   OH265689   1.781   3.326  16.674 -0.3125  1.0832  0.2174
14733TIP3    H165690   1.704   3.272  16.691  0.0195  0.9091  1.2418
14733TIP3    H265691   1.818   3.290  16.593 -0.6016  0.3596  0.4004
14734TIP3   OH265692   3.452   4.318   5.819 -0.1895 -0.0613 -0.3560
14734TIP3    H165693   3.446   4.263   5.898 -1.8216 -0.6514 -0.8553
14734TIP3    H265694   3.526   4.376   5.837  0.0618 -0.7956  1.2237
14735TIP3   OH265695   5.945   0.885  16.783 -0.5127  0.2007 -0.1982
14735TIP3    H165696   5.870   0.826  16.787 -0.4247  0.1211  0.6057
14735TIP3    H265697   5.937   0.929  16.699 -1.0783 -0.3046 -0.4192
14736TIP3   OH265698   5.206   4.291   6.015  0.2750 -0.3376  0.7060
14736TIP3    H165699   5.258   4.312   6.093 -0.8965 -0.3845  1.5281
14736TIP3    H265700   5.270   4.255   5.954  1.6106  1.7093  0.7906
14737TIP3   OH265701   2.855   6.445  15.659 -0.4621 -0.0769  0.1528
14737TIP3    H165702   2.776   6.453  15.712 -1.0539  1.6274 -0.9245
14737TIP3    H265703   2.889   6.534  15.650  1.3688 -0.7144  0.2320
14738TIP3   OH265704   5.078   0.019  14.778  0.7748  0.0773 -0.3326
14738TIP3    H165705   5.115  -0.024  14.701 -0.8695 -0.9519 -0.5894
14738TIP3    H265706   5.099   0.112  14.767  1.2084 -0.1606 -1.6241
14739TIP3   OH265707   5.421   2.950  13.019 -0.1216  0.0774 -0.4141
14739TIP3    H165708   5.486   2.933  13.088 -0.0544  1.2350 -0.1631
14739TIP3    H265709   5.343   2.902  13.046  0.6056 -1.3015 -0.6964
14740TIP3   OH265710   5.441   5.675  15.549 -0.1382  0.3826  0.6260
14740TIP3    H165711   5.504   5.707  15.484 -0.1823  1.9417  1.3071
14740TIP3    H265712   5.361   5.659  15.499  1.0975 -3.1207 -0.5551
14741TIP3   OH265713   3.402   5.943  11.932 -0.0902  0.3982  0.0538
14741TIP3    H165714   3.432   6.019  11.982 -0.8210  1.2003 -0.6884
14741TIP3    H265715   3.319   5.919  11.973  0.4930 -0.4687  0.7473
14742TIP3   OH265716   3.036   5.156   4.701  0.0975 -0.1212  0.0407
14742TIP3    H165717   2.961   5.147   4.643  0.5539  0.2046 -0.6162
14742TIP3    H265718   3.106   5.106   4.658  0.4110  0.0355  0.3588
14743TIP3   OH265719   1.832   5.384   2.027  0.0255  0.4773  0.3609
14743TIP3    H165720   1.908   5.327   2.015  0.1414  0.9263 -1.2979
14743TIP3    H265721   1.869   5.470   2.045 -0.1277  0.3308  1.4022
14744TIP3   OH265722   2.740   0.615  13.888 -0.0395  0.0351 -0.1853
14744TIP3    H165723   2.645   0.624  13.885 -0.2672 -2.1682 -3.0627
14744TIP3    H265724   2.772   0.684  13.829  0.0951  0.0405 -0.1059
14745TIP3   OH265725   5.548   2.802  12.091 -0.1553  0.0915  0.1247
14745TIP3    H165726   5.605   2.748  12.037  0.0380  1.0114 -0.6270
14745TIP3    H265727   5.554   2.889  12.051  0.4760  0.9569  1.9871
14746TIP3   OH265728   2.133   0.329   1.161  0.3828  0.0264 -0.0541
14746TIP3    H165729   2.222   0.355   1.139  0.8754 -0.1738  1.5475
14746TIP3    H265730   2.124   0.241   1.125  0.6216  0.2760 -0.7304
14747TIP3   OH265731   4.961   3.644  16.378 -0.0153 -0.0516 -1.0373
14747TIP3    H165732   5.004   3.695  16.447 -1.4438 -1.5919  1.1222
14747TIP3    H265733   4.901   3.707  16.337  1.2050  1.0157 -1.2442
14748TIP3   OH265734   1.343   1.412  16.158  0.2267 -0.4540  0.2956
14748TIP3    H165735   1.403   1.338  16.145  1.2371  0.2693  0.7220
14748TIP3    H265736   1.358   1.468  16.082 -0.5971 -0.7011 -0.0667
14749TIP3   OH265737   4.037   1.471   1.560  0.5507 -0.0155 -0.2884
14749TIP3    H165738   4.007   1.398   1.506 -0.9196  1.0312 -0.9431
14749TIP3    H265739   4.124   1.492   1.526  1.1669 -1.7025  0.1790
14750TIP3   OH265740   0.722   1.354   2.525  0.3240  0.3229 -0.5451
14750TIP3    H165741   0.679   1.366   2.610 -0.3948 -1.0587 -0.6917
14750TIP3    H265742   0.659   1.386   2.461  0.5795  0.6912 -0.6219
14751TIP3   OH265743   4.901   0.384  10.889 -0.1488  0.4217  0.3249
14751TIP3    H165744   4.885   0.383  10.795 -1.3582 -1.3052  0.5091
14751TIP3    H265745   4.814   0.381  10.929  0.3336 -2.8214  1.4204
14752TIP3   OH265746   2.599   2.840  12.385 -0.3013  0.3287  0.3571
14752TIP3    H165747   2.631   2.929  12.371 -1.0432  0.4894 -0.3606
14752TIP3    H265748   2.561   2.842  12.473  0.0265  0.6128  0.4943
14753TIP3   OH265749   2.167   0.232   4.097 -0.5881  0.1281  0.1278
14753TIP3    H165750   2.120   0.314   4.086 -2.0027 -0.8868 -2.0796
14753TIP3    H265751   2.125   0.191   4.173 -0.5976  0.9509  0.5769
14754TIP3   OH265752   3.518   2.303  11.249 -0.2558 -0.6168  0.4276
14754TIP3    H165753   3.523   2.241  11.322  1.1841 -0.3841  0.5441
14754TIP3    H265754   3.424   2.323  11.242 -0.3687  0.2410  2.9885
14755TIP3   OH265755   0.822   5.195   3.845  0.3799 -0.1239  0.3659
14755TIP3    H165756   0.738   5.236   3.825 -0.0765 -1.1323  0.1737
14755TIP3    H265757   0.807   5.101   3.833  1.8412 -0.2454 -0.8576
14756TIP3   OH265758   4.192   5.824   6.666  0.4611 -0.0589  0.4163
14756TIP3    H165759   4.149   5.753   6.619 -0.1049  0.5758 -0.0539
14756TIP3    H265760   4.233   5.782   6.741 -0.2710 -0.8096  0.4130
14757TIP3   OH265761   2.274   4.483   1.677  0.0098  0.5054  0.1768
14757TIP3    H165762   2.234   4.396   1.670  0.2052  0.2980  1.3270
14757TIP3    H265763   2.206   4.544   1.648 -1.0394  0.1330  1.6964
14758TIP3   OH265764   0.972   3.845  12.112 -0.0856 -0.6019  0.2358
14758TIP3    H165765   0.995   3.755  12.137 -0.9662 -1.5600 -2.1548
14758TIP3    H265766   0.917   3.835  12.034 -2.2908  1.9062  1.3033
14759TIP3   OH265767   3.385   3.792  11.938  0.2043 -0.0148 -0.4318
14759TIP3    H165768   3.326   3.739  11.885 -2.6098  0.6412  1.7731
14759TIP3    H265769   3.386   3.877  11.893  0.5882 -0.4244 -1.2177
14760TIP3   OH265770   3.934   1.087   5.181  0.0267 -0.0223 -0.6940
14760TIP3    H165771   3.914   1.169   5.225 -0.2933  0.2130 -1.2738
14760TIP3    H265772   3.887   1.091   5.098 -0.4393 -1.0322 -0.4939
14761TIP3   OH265773   0.458   2.504  13.607  0.2104  0.0108 -0.6320
14761TIP3    H165774   0.404   2.517  13.686 -1.6514 -0.0787 -1.8320
14761TIP3    H265775   0.510   2.427  13.627 -1.0284 -0.6680  0.1316
14762TIP3   OH265776   2.901   5.251   6.754 -0.0376 -0.0220  0.0186
14762TIP3    H165777   2.979   5.256   6.698 -1.4797 -1.8829 -2.3935
14762TIP3    H265778   2.875   5.342   6.767  1.9500  0.5899  0.0723
14763TIP3   OH265779   3.723   2.382   6.426  0.5715 -0.0713 -0.2689
14763TIP3    H165780   3.816   2.401   6.411  0.4735  1.6351  1.0090
14763TIP3    H265781   3.677   2.441   6.368  0.2765 -0.0422 -0.0074
14764TIP3   OH265782   6.192   5.395  12.264  0.0642  0.2370 -0.1036
14764TIP3    H165783   6.209   5.304  12.238  1.0003  0.7726 -1.4916
14764TIP3    H265784   6.102   5.412  12.234  0.4808  0.2661 -1.3896
14765TIP3   OH265785   1.838   2.016   1.003 -0.3390  0.1289 -0.0629
14765TIP3    H165786   1.871   2.048   1.087  1.0850 -2.1201  0.3164
14765TIP3    H265787   1.841   2.092   0.945 -0.2093  1.4379  1.5932
14766TIP3   OH265788   4.700   6.137   2.198 -0.1694 -0.0753 -0.2165
14766TIP3    H165789   4.729   6.212   2.145 -2.3013  1.3305  0.4767
14766TIP3    H265790   4.695   6.172   2.287 -0.7807 -1.1636  0.1868
14767TIP3   OH265791   4.652   0.649   0.103  0.5071 -0.0636  0.3132
14767TIP3    H165792   4.623   0.673   0.015  0.5800  0.4932  0.4361
14767TIP3    H265793   4.746   0.664   0.102  0.3903  0.7620  0.7330
14768TIP3   OH265794   5.007   1.781   2.367  0.8590  0.5550 -0.0354
14768TIP3    H165795   5.080   1.783   2.429 -0.0379  1.7085  1.0428
14768TIP3    H265796   4.963   1.866   2.378 -0.7837 -0.1902 -0.4561
14769TIP3   OH265797   3.706   2.706  15.385  0.0299  0.0639  0.3199
14769TIP3    H165798   3.630   2.762  15.365  0.7744  1.1396  0.4208
14769TIP3    H265799   3.778   2.747  15.337  0.7082 -0.5126  0.8390
14770TIP3   OH265800   5.598   5.261  16.121 -0.1617 -0.5855  0.3221
14770TIP3    H165801   5.530   5.194  16.107 -0.6024 -0.0663 -0.1101
14770TIP3    H265802   5.553   5.344  16.102 -0.3096  0.0743  3.1295
14771TIP3   OH265803   1.465   5.224   1.522  0.1198  0.5053  0.1001
14771TIP3    H165804   1.409   5.201   1.596  1.0909 -0.2137  0.6428
14771TIP3    H265805   1.433   5.170   1.449 -1.6466  2.1200 -0.4085
14772TIP3   OH265806   4.743   5.217   4.756 -0.1080  0.2612 -0.2283
14772TIP3    H165807   4.655   5.182   4.772  0.2175  0.0839  1.3868
14772TIP3    H265808   4.742   5.304   4.795  0.5139  0.1183  0.1348
14773TIP3   OH265809   2.129   2.230  13.345  0.2995  0.1583  0.1049
14773TIP3    H165810   2.133   2.149  13.396 -0.0242  1.1633  1.7848
14773TIP3    H265811   2.155   2.203  13.256 -2.0705 -2.2378  0.0032
14774TIP3   OH265812   5.520   0.775  10.618  0.3174 -0.1104 -0.3236
14774TIP3    H165813   5.593   0.816  10.573  0.1861  1.0028  0.4462
14774TIP3    H265814   5.444   0.829  10.597  0.6089  1.7878  2.8701
14775TIP3   OH265815   1.898   4.367  12.131  0.0301  0.1876  0.2000
14775TIP3    H165816   1.810   4.373  12.092 -0.4505 -4.0111  0.1409
14775TIP3    H265817   1.953   4.334  12.060  1.3564  1.3045  0.6716
14776TIP3   OH265818   6.311   0.634   0.185  1.1608  0.3404  0.3275
14776TIP3    H165819   6.400   0.665   0.170  0.5331  1.7938 -0.5933
14776TIP3    H265820   6.319   0.539   0.188  2.5419  0.3695 -1.1663
14777TIP3   OH265821   5.097   5.796  13.230 -0.0018  0.0832 -0.4312
14777TIP3    H165822   5.021   5.853  13.244  0.3358  0.4558 -0.1014
14777TIP3    H265823   5.172   5.856  13.229  0.3002 -0.2947 -0.6464
14778TIP3   OH265824   0.166   2.775   2.708  0.1624  0.9320 -0.6420
14778TIP3    H165825   0.197   2.745   2.793 -1.8014 -0.9063 -0.5006
14778TIP3    H265826   0.093   2.833   2.728 -0.8064 -0.1192 -1.0621
14779TIP3   OH265827   4.949   5.854  17.108 -0.1833 -0.4687  0.2070
14779TIP3    H165828   4.981   5.803  17.183 -0.4398  0.2856  0.8404
14779TIP3    H265829   4.909   5.932  17.147  0.4702  0.3722 -0.7508
14780TIP3   OH265830   5.519   5.246   0.167  0.2117 -0.4525 -1.1536
14780TIP3    H165831   5.496   5.203   0.249  0.0663  1.0942 -0.3552
14780TIP3    H265832   5.580   5.186   0.124  0.8469 -0.9676  0.4179
14781TIP3   OH265833   6.485   6.513  13.448  0.1512  0.0468 -0.2108
14781TIP3    H165834   6.464   6.443  13.386  0.2270  1.2947 -1.6988
14781TIP3    H265835   6.485   6.470  13.534  0.9020 -1.9249 -1.1331
14782TIP3   OH265836   2.378   1.229  12.426 -0.2322 -0.3191  0.7864
14782TIP3    H165837   2.447   1.243  12.362  0.5872 -0.9993  1.5067
14782TIP3    H265838   2.298   1.223  12.374  0.0309  1.7317  0.0286
14783TIP3   OH265839   3.737   1.995  10.530  0.5458  0.7963  0.2146
14783TIP3    H165840   3.646   1.991  10.501  0.5598  0.4784  0.2110
14783TIP3    H265841   3.786   1.953  10.459  0.4950 -0.7691  1.0484
14784TIP3   OH265842   5.533   3.676  14.366 -0.1196 -0.4673 -0.1180
14784TIP3    H165843   5.487   3.756  14.339 -0.5606 -0.8513 -0.5155
14784TIP3    H265844   5.601   3.664  14.300 -1.3754 -1.5622 -1.2769
14785TIP3   OH265845   2.777   0.811  15.484  0.1444  0.2285  0.1318
14785TIP3    H165846   2.830   0.868  15.540  0.8063  0.6997 -0.9544
14785TIP3    H265847   2.778   0.853  15.398 -0.6934 -0.5871 -0.2962
14786TIP3   OH265848   4.155   3.951  12.176 -0.6948  0.6955 -0.1772
14786TIP3    H165849   4.235   3.981  12.135  0.9716  0.5273  2.6980
14786TIP3    H265850   4.126   3.878  12.122  2.4832 -0.8344 -0.0011
14787TIP3   OH265851   6.247   4.875  15.982  0.3125 -0.6746 -0.2157
14787TIP3    H165852   6.189   4.946  15.956  1.8425  2.1021  3.0085
14787TIP3    H265853   6.210   4.843  16.064  1.5133 -1.1664  0.1564
14788TIP3   OH265854   4.878   2.665   5.382 -0.1096 -0.1227 -0.3328
14788TIP3    H165855   4.804   2.724   5.368 -2.3463 -2.1037  2.0230
14788TIP3    H265856   4.880   2.610   5.304 -0.3053  0.7401 -0.9584
14789TIP3   OH265857   5.622   5.216  16.726  0.6099 -0.6065 -0.0603
14789TIP3    H165858   5.585   5.162  16.656  1.8276 -1.8393  0.2001
14789TIP3    H265859   5.558   5.213  16.796 -0.6446  0.6673 -1.0883
14790TIP3   OH265860   6.743   3.661  10.389 -0.2805  0.0470  0.0146
14790TIP3    H165861   6.725   3.751  10.361 -0.5872  0.4348  1.4089
14790TIP3    H265862   6.810   3.630  10.327  0.3669  1.4860 -0.0414
14791TIP3   OH265863   4.464   3.118   0.467 -0.4969  0.1438 -0.7750
14791TIP3    H165864   4.457   3.036   0.516  0.5294  0.4634 -0.0542
14791TIP3    H265865   4.496   3.182   0.531 -3.0091  1.6053 -0.8380
14792TIP3   OH265866   6.563   6.406   3.975  0.6116 -0.2194  0.2617
14792TIP3    H165867   6.538   6.498   3.984  0.1008 -0.3468  0.1544
14792TIP3    H265868   6.544   6.367   4.060 -0.5523 -0.5509 -0.1411
14793TIP3   OH265869   6.076   1.497  14.784 -0.0220 -0.1454  0.2435
14793TIP3    H165870   6.057   1.435  14.713  1.0310 -0.4781  0.2361
14793TIP3    H265871   6.065   1.445  14.864  1.9436 -0.6951  0.2086
14794TIP3   OH265872   0.008   1.926   3.789  0.4641  0.1207 -0.7456
14794TIP3    H165873  -0.059   1.991   3.769  0.0115  0.2959  1.0857
14794TIP3    H265874   0.010   1.923   3.885  2.6032 -0.3762 -0.7519
14795TIP3   OH265875   6.122   3.693   0.664 -0.4032  0.0144  0.1740
14795TIP3    H165876   6.143   3.786   0.663 -1.2330  0.2294 -1.7773
14795TIP3    H265877   6.205   3.649   0.647 -0.1722  0.4420  0.1937
14796TIP3   OH265878   4.758   0.559   4.342 -0.4514  0.0010  0.4288
14796TIP3    H165879   4.816   0.490   4.373  1.6174  1.2518 -0.4107
14796TIP3    H265880   4.753   0.620   4.415 -0.3853  0.0707  0.3759
14797TIP3   OH265881   6.198   2.495  16.269  0.4818 -0.3045  0.3533
14797TIP3    H165882   6.127   2.471  16.328 -0.5472 -0.3918 -0.8681
14797TIP3    H265883   6.275   2.452  16.304 -0.4014 -1.5612  0.8113
14798TIP3   OH265884   6.477   5.839  15.367 -0.7032  0.2732  0.2622
14798TIP3    H165885   6.503   5.832  15.459  1.1267  1.1160 -0.1688
14798TIP3    H265886   6.531   5.909  15.331  0.4629 -1.6893 -2.0752
14799TIP3   OH265887   0.751   0.082  14.418  0.6070  0.3823  0.5269
14799TIP3    H165888   0.726   0.009  14.475  3.0889 -1.2543 -0.3059
14799TIP3    H265889   0.794   0.144  14.477 -1.3605  1.1536  1.2153
14800TIP3   OH265890   6.830   4.294   5.279 -0.2935  0.0962  0.1155
14800TIP3    H165891   6.816   4.203   5.252  0.9686 -0.3234  0.8394
14800TIP3    H265892   6.880   4.288   5.360  1.0829  1.4556 -0.5925
14801TIP3   OH265893   2.782   6.258  12.944 -0.5387 -0.3307  0.3710
14801TIP3    H165894   2.784   6.346  12.984 -0.4698 -0.4913  0.7285
14801TIP3    H265895   2.690   6.232  12.948 -0.2244 -1.3579  2.7084
14802TIP3   OH265896   6.754   1.184  16.281  0.0140  0.2721 -0.1750
14802TIP3    H165897   6.702   1.104  16.282 -0.0775  0.2919 -1.6623
14802TIP3    H265898   6.736   1.225  16.366  0.2036 -1.3440  0.6871
14803TIP3   OH265899   0.994   6.250  11.629  0.8036 -0.0609  0.1049
14803TIP3    H165900   1.082   6.213  11.635  0.0732 -1.7845  1.0479
14803TIP3    H265901   0.973   6.274  11.720 -0.2753 -1.1938  0.1870
14804TIP3   OH265902   4.889   0.735  12.542  0.2528 -0.1893 -0.0444
14804TIP3    H165903   4.945   0.693  12.476  1.0522  1.9291 -0.7919
14804TIP3    H265904   4.827   0.787  12.490  0.1282  0.5674  0.8379
14805TIP3   OH265905   4.955   4.872   1.108 -0.4065  0.3337 -0.2712
14805TIP3    H165906   4.861   4.890   1.115 -0.4254  1.0129 -1.7825
14805TIP3    H265907   4.987   4.938   1.047  0.7653 -0.8760 -1.0191
14806TIP3   OH265908   0.026   2.542  11.109 -0.0959 -0.2685  0.5041
14806TIP3    H165909   0.010   2.517  11.200 -0.9230  0.1318  0.4694
14806TIP3    H265910   0.116   2.575  11.109 -0.4494  0.7354  1.3915
14807TIP3   OH265911   0.943   1.879  11.767 -0.0209 -0.4733  0.1007
14807TIP3    H165912   1.030   1.917  11.752 -0.6446  0.5993 -0.9533
14807TIP3    H265913   0.954   1.786  11.747  1.7556 -1.2227  3.5943
14808TIP3   OH265914   1.537   0.797  16.835  0.1053 -0.5099 -0.0587
14808TIP3    H165915   1.559   0.883  16.798  0.4153 -0.0511  1.1442
14808TIP3    H265916   1.561   0.735  16.767  1.4724  0.2413 -0.3082
14809TIP3   OH265917   4.940   5.349   2.830 -0.3472 -0.1035 -0.5022
14809TIP3    H165918   4.850   5.317   2.823 -0.1854 -0.4586 -0.9872
14809TIP3    H265919   4.949   5.377   2.921 -0.0439 -2.8367  0.3929
14810TIP3   OH265920   3.217   2.568   2.852  0.0588 -0.0186 -0.1921
14810TIP3    H165921   3.137   2.599   2.809 -0.9206  0.4401  1.8392
14810TIP3    H265922   3.211   2.472   2.847 -0.2399  0.0233 -0.7014
14811TIP3   OH265923   2.525   4.328   2.361 -0.1304 -0.4457 -0.7887
14811TIP3    H165924   2.581   4.395   2.401 -1.2666 -0.2345  0.5312
14811TIP3    H265925   2.466   4.302   2.432 -2.6944  0.3730 -2.5002
14812TIP3   OH265926   4.797   5.057  16.481 -0.9065 -0.1260  0.3703
14812TIP3    H165927   4.797   5.152  16.470  0.5021 -0.3043 -1.6403
14812TIP3    H265928   4.728   5.026  16.422  0.4371 -0.4867 -1.0767
14813TIP3   OH265929   5.348   2.832  16.672 -0.5582  0.2279  0.0089
14813TIP3    H165930   5.371   2.784  16.593 -2.3158 -1.4970  0.4708
14813TIP3    H265931   5.271   2.787  16.707 -1.0852  2.1810  1.6024
14814TIP3   OH265932   2.306   4.840   1.236 -0.0471 -0.3173  0.2694
14814TIP3    H165933   2.384   4.787   1.247 -0.7372 -1.5054 -0.3539
14814TIP3    H265934   2.337   4.931   1.240  0.9395 -0.6889  2.9574
14815TIP3   OH265935   5.552   1.732   3.546  0.9135  0.0309 -0.1464
14815TIP3    H165936   5.572   1.722   3.639 -0.1053 -1.6931 -0.0520
14815TIP3    H265937   5.609   1.802   3.516 -0.1795  2.0902  2.2026
14816TIP3   OH265938   1.752   2.068   3.870  0.7286 -0.1605 -0.1156
14816TIP3    H165939   1.781   2.129   3.938  1.3667  0.6001 -1.0351
14816TIP3    H265940   1.703   2.001   3.917 -0.0083  1.0655  0.9410
14817TIP3   OH265941   1.928   2.903  10.491  0.1796  0.1052  0.0669
14817TIP3    H165942   2.010   2.951  10.503  0.7065 -0.7086 -0.2094
14817TIP3    H265943   1.860   2.970  10.499  0.8561  0.7624  0.4734
14818TIP3   OH265944   1.451   3.943  15.934 -0.0646 -0.1244 -0.3929
14818TIP3    H165945   1.469   3.854  15.962 -1.3717 -0.7310 -1.3772
14818TIP3    H265946   1.365   3.938  15.892  0.2889  1.3983 -1.3704
14819TIP3   OH265947   4.690   1.165   2.205  0.5625 -0.8925 -0.3062
14819TIP3    H165948   4.678   1.122   2.289  0.0988 -0.7900 -0.3152
14819TIP3    H265949   4.782   1.149   2.182  1.3120  0.8598  1.2125
14820TIP3   OH265950   4.131   6.366  16.044 -0.4994  0.2112 -0.4267
14820TIP3    H165951   4.130   6.435  16.110 -2.3174 -0.2034  0.0389
14820TIP3    H265952   4.222   6.362  16.015  0.0749  1.3240  1.0710
14821TIP3   OH265953   5.851   4.927  14.564 -0.1638 -0.5438 -0.0386
14821TIP3    H165954   5.861   5.007  14.615 -0.0672 -0.2812 -0.4617
14821TIP3    H265955   5.860   4.956  14.473  1.8370 -1.3203 -0.1269
14822TIP3   OH265956   4.923   6.370   2.322 -0.6739 -1.1819 -0.0289
14822TIP3    H165957   4.866   6.316   2.376  1.1959 -1.3876  1.8495
14822TIP3    H265958   4.905   6.460   2.350 -0.4513 -1.2034  0.1813
14823TIP3   OH265959   3.912   3.036  13.733 -0.2297  0.0728  0.2431
14823TIP3    H165960   3.950   3.124  13.737  0.7141 -0.3090 -0.0008
14823TIP3    H265961   3.912   3.006  13.824  0.3174 -0.0156  0.2226
14824TIP3   OH265962   4.161   2.053   2.079  0.5657  0.2251 -0.1292
14824TIP3    H165963   4.239   2.045   2.133  0.5607 -2.0499 -0.3660
14824TIP3    H265964   4.129   1.963   2.070 -2.7617  1.1480  0.9556
14825TIP3   OH265965   5.830   5.070  12.683  0.2945 -0.2402 -0.0689
14825TIP3    H165966   5.889   5.141  12.709  0.9752 -0.7885 -0.0818
14825TIP3    H265967   5.811   5.088  12.591  0.4562 -0.0664 -0.0697
14826TIP3   OH265968   3.111   2.622  16.784 -0.1747  0.2986 -0.0396
14826TIP3    H165969   3.026   2.602  16.744  0.4020  1.7733 -2.1988
14826TIP3    H265970   3.165   2.544  16.765 -1.1929 -1.0094  2.0761
14827TIP3   OH265971   2.974   4.469  11.761  0.6315  0.0001 -0.0117
14827TIP3    H165972   2.925   4.462  11.843  1.5738 -0.6642  0.5142
14827TIP3    H265973   2.930   4.539  11.713  1.4434  2.0472  2.0377
14828TIP3   OH265974   5.748   0.455  12.160 -0.2997  1.5084 -0.0023
14828TIP3    H165975   5.799   0.381  12.128 -0.2506  1.3722  0.3800
14828TIP3    H265976   5.807   0.501  12.220 -0.6760  1.2604  0.5610
14829TIP3   OH265977   0.787   3.890   3.943 -0.6575 -0.5023 -0.1685
14829TIP3    H165978   0.848   3.961   3.924 -1.3760  0.5235  1.1780
14829TIP3    H265979   0.773   3.895   4.037 -3.1242 -0.4138 -0.4642
14830TIP3   OH265980   0.943   2.375  16.762 -0.4237  0.0759 -0.2731
14830TIP3    H165981   0.910   2.287  16.746  0.1114  0.1272 -1.8174
14830TIP3    H265982   0.876   2.416  16.818 -0.5424 -1.3698  0.6949
14831TIP3   OH265983   2.444   4.220   1.582  0.1144 -0.1178  0.3427
14831TIP3    H165984   2.471   4.153   1.519  0.1383  0.7642 -0.6256
14831TIP3    H265985   2.356   4.195   1.610 -0.5567  0.3108 -1.2822
14832TIP3   OH265986   5.532   5.280   5.099  0.1875  0.1246  0.1253
14832TIP3    H165987   5.544   5.372   5.077 -1.3301  0.9617  2.3847
14832TIP3    H265988   5.620   5.243   5.097  0.6114  1.0341 -2.8643
14833TIP3   OH265989   0.591   2.004   3.651 -0.0692 -0.3815  0.1879
14833TIP3    H165990   0.604   1.938   3.719 -3.8378 -1.4691  0.0895
14833TIP3    H265991   0.539   2.072   3.693 -0.7880 -0.1105 -1.0891
14834TIP3   OH265992   2.106   5.835   1.138 -0.2659 -0.2902 -0.0505
14834TIP3    H165993   2.102   5.856   1.231 -3.1655  0.6701 -0.2943
14834TIP3    H265994   2.085   5.741   1.134  1.2315 -0.6716  0.2898
14835TIP3   OH265995   3.384   1.448   2.372 -0.2910  0.7084 -0.5504
14835TIP3    H165996   3.293   1.466   2.349 -0.3450  0.5867 -0.4283
14835TIP3    H265997   3.433   1.518   2.329 -0.5092  1.2048  0.0047
14836TIP3   OH265998   2.519   0.434  14.290  0.2267 -0.3671  0.7044
14836TIP3    H165999   2.601   0.484  14.294  0.1390  0.1737 -2.1447
14836TIP3    H266000   2.453   0.496  14.322  0.2592  1.1699 -1.9069
14837TIP3   OH266001   4.415   1.841   4.441  0.0015  0.0325 -0.1333
14837TIP3    H166002   4.506   1.865   4.421  0.6590 -1.5383  0.7938
14837TIP3    H266003   4.389   1.787   4.367  0.4541 -0.9738  0.4173
14838TIP3   OH266004   3.594   6.546   3.331 -0.5900  0.1215 -0.8592
14838TIP3    H166005   3.536   6.563   3.257 -0.1588 -0.0702 -1.2480
14838TIP3    H266006   3.682   6.547   3.293 -0.4544 -1.7496 -0.6878
14839TIP3   OH266007   0.335   4.619   0.767 -0.2573 -0.4023 -0.2392
14839TIP3    H166008   0.323   4.585   0.855 -1.3130 -0.1494 -0.2806
14839TIP3    H266009   0.384   4.701   0.779  0.1962 -0.7168  0.0525
14840TIP3   OH266010   3.612   6.725  13.357 -0.4854  0.2928  0.0260
14840TIP3    H166011   3.674   6.784  13.399 -0.8052  1.7640 -1.4541
14840TIP3    H266012   3.565   6.780  13.294 -0.9945 -1.4894 -1.2402
14841TIP3   OH266013   0.901   3.826   5.139 -0.2989  0.4599  0.1513
14841TIP3    H166014   0.977   3.883   5.132  0.2942 -0.2556  0.5708
14841TIP3    H266015   0.825   3.884   5.132  0.2430  1.0052 -2.1275
14842TIP3   OH266016   0.556   1.560   5.840 -0.0007 -0.1133 -0.0118
14842TIP3    H166017   0.467   1.556   5.875  0.0383 -0.7738  0.0238
14842TIP3    H266018   0.574   1.471   5.809  0.0223  0.3901 -1.5586
14843TIP3   OH266019   5.678   2.091   3.977 -0.3469 -0.1218  0.7941
14843TIP3    H166020   5.701   2.063   4.065  1.3393  1.8961  1.0479
14843TIP3    H266021   5.589   2.056   3.964 -1.5107  1.2482  4.0629
14844TIP3   OH266022   4.891   5.532   0.124  1.1061  0.3766 -0.4956
14844TIP3    H166023   4.888   5.445   0.162 -2.7670 -0.2913 -1.9228
14844TIP3    H266024   4.912   5.518   0.032  0.2350  0.8930 -0.7842
14845TIP3   OH266025   3.439   0.374  12.517  0.5349 -0.1932 -0.5007
14845TIP3    H166026   3.404   0.289  12.543  0.1593 -0.0683 -0.5852
14845TIP3    H266027   3.419   0.381  12.423 -0.7593  0.6030 -0.1980
14846TIP3   OH266028   4.458   4.319  13.452  0.2401  0.0649  0.2918
14846TIP3    H166029   4.363   4.325  13.444  0.2951 -0.6721 -1.2677
14846TIP3    H266030   4.490   4.405  13.424  0.0643 -0.0084 -0.1450
14847TIP3   OH266031   5.826   2.514  15.623 -0.4443  0.1112 -0.1397
14847TIP3    H166032   5.800   2.423  15.631 -1.2116  0.3817  0.4972
14847TIP3    H266033   5.747   2.560  15.595 -0.4163  0.7901  0.8781
14848TIP3   OH266034   3.414   3.773   4.861 -0.1048  0.4161  0.1525
14848TIP3    H166035   3.492   3.816   4.825 -0.2655  1.6309  1.1886
14848TIP3    H266036   3.366   3.843   4.904 -0.7571 -0.6774  1.2630
14849TIP3   OH266037   1.534   1.765  16.307 -0.1536 -0.3289 -0.2244
14849TIP3    H166038   1.563   1.839  16.362 -0.9732  0.0060 -0.2309
14849TIP3    H266039   1.580   1.778  16.224  2.3013 -1.6813  0.8237
14850TIP3   OH266040   5.535   6.662   0.096 -0.0993 -0.4229 -0.3969
14850TIP3    H166041   5.477   6.592   0.064 -1.7640  0.7012  0.0244
14850TIP3    H266042   5.558   6.635   0.185 -0.8796 -0.3689 -0.1710
14851TIP3   OH266043   3.982   5.039  12.791  0.1214  0.1951 -0.0063
14851TIP3    H166044   4.037   4.970  12.827 -0.6283 -0.2403  0.3441
14851TIP3    H266045   3.974   5.018  12.698 -1.1369 -0.9505  0.3205
14852TIP3   OH266046   2.511   5.626   3.585 -0.3821 -0.1821 -0.1732
14852TIP3    H166047   2.522   5.721   3.575 -0.0293 -0.2349 -0.3332
14852TIP3    H266048   2.422   5.609   3.556 -0.5521  0.1440  0.1602
14853TIP3   OH266049   5.643   2.395  12.308 -0.5961 -0.2375  0.3177
14853TIP3    H166050   5.552   2.398  12.337 -0.5360 -0.7021  0.5570
14853TIP3    H266051   5.692   2.366  12.385 -0.1978  0.3513  0.2929
14854TIP3   OH266052   5.222   6.375  15.152 -0.4212 -0.4756 -0.3362
14854TIP3    H166053   5.150   6.388  15.090 -0.0062 -1.8736 -1.1485
14854TIP3    H266054   5.253   6.464  15.171 -2.0223  0.1240 -0.3472
14855TIP3   OH266055   5.023   6.349  11.610 -0.4811 -0.0859  0.0589
14855TIP3    H166056   5.012   6.362  11.515  2.1975 -2.0168 -0.6421
14855TIP3    H266057   5.002   6.256  11.624  1.3868 -0.4274  0.8850
14856TIP3   OH266058   2.281   1.732  14.225 -0.8715  0.1091 -0.0182
14856TIP3    H166059   2.284   1.646  14.267  1.4881  0.6310  1.0898
14856TIP3    H266060   2.232   1.718  14.144 -2.0051 -1.8743  0.9377
14857TIP3   OH266061   1.979   4.968   2.273  0.8034  0.6472 -0.3314
14857TIP3    H166062   2.029   4.983   2.353 -1.0078 -2.0529  1.4825
14857TIP3    H266063   2.032   4.907   2.222  0.3546 -0.6291  0.6609
14858TIP3   OH266064   2.576   6.598   0.113 -0.6766 -0.3731  0.0710
14858TIP3    H166065   2.538   6.682   0.085 -1.3824 -0.8919 -0.5503
14858TIP3    H266066   2.553   6.592   0.206 -4.0061 -1.6085 -0.7005
14859TIP3   OH266067   2.008   4.828  12.873 -0.1889  0.1929  0.8912
14859TIP3    H166068   1.979   4.913  12.907  0.1736  0.1987  1.1984
14859TIP3    H266069   2.034   4.779  12.951 -0.6872 -0.3175  0.7382
14860TIP3   OH266070   5.513   3.214  10.983  0.1074  0.1205  0.5230
14860TIP3    H166071   5.472   3.267  10.915 -2.8612 -0.5343  1.6427
14860TIP3    H266072   5.530   3.129  10.941 -3.0862 -0.7843  0.8425
14861TIP3   OH266073   4.767   3.547  12.967  0.4883  0.0553  0.1607
14861TIP3    H166074   4.685   3.561  13.015 -0.6080  2.5293 -2.1165
14861TIP3    H266075   4.777   3.452  12.963 -3.5579 -0.5095 -1.3162
14862TIP3   OH266076   5.549   4.856   3.397  0.0778  0.3480  0.4678
14862TIP3    H166077   5.490   4.811   3.337  0.7863  0.0684 -0.0305
14862TIP3    H266078   5.518   4.947   3.397 -0.6760  0.1016  0.6346
14863TIP3   OH266079   2.481   5.886   1.071 -0.4164  0.5721  0.8010
14863TIP3    H166080   2.438   5.831   1.006  0.5639 -0.9175  1.3623
14863TIP3    H266081   2.550   5.931   1.022 -0.8547  0.8917  0.4601
14864TIP3   OH266082   3.293   6.416  16.053 -0.1705  0.1585  0.2675
14864TIP3    H166083   3.377   6.401  16.008  1.5230  2.1987  2.4889
14864TIP3    H266084   3.296   6.357  16.128 -1.2476 -0.4995 -0.1893
14865TIP3   OH266085   5.062   2.548  14.875 -0.0605  0.3716 -0.1450
14865TIP3    H166086   5.036   2.638  14.893  4.0432  1.9653 -1.2021
14865TIP3    H266087   5.153   2.554  14.846  0.8744 -4.2891  1.0268
14866TIP3   OH266088   1.462   2.944   0.149 -0.1700 -0.0992 -0.0441
14866TIP3    H166089   1.513   3.001   0.093  0.1096 -0.0819  0.2233
14866TIP3    H266090   1.372   2.976   0.142 -0.3045 -0.7066 -1.2357
14867TIP3   OH266091   0.829   3.384   4.949  0.0279 -0.1626 -0.5150
14867TIP3    H166092   0.737   3.379   4.978 -0.1395 -0.1748 -1.0477
14867TIP3    H266093   0.874   3.427   5.022 -0.5050  0.3615 -0.4862
14868TIP3   OH266094   3.531   1.628  14.665  0.2978  0.4230  0.4463
14868TIP3    H166095   3.624   1.651  14.662  0.2670  0.4542 -0.9086
14868TIP3    H266096   3.519   1.564  14.595 -0.7073  0.4166  0.6015
14869TIP3   OH266097   0.154   0.409  12.527  0.0816  0.2257 -0.2139
14869TIP3    H166098   0.139   0.502  12.542 -1.7661 -0.3266  2.0674
14869TIP3    H266099   0.070   0.367  12.551  0.7444 -1.9889 -1.4609
14870TIP3   OH266100   5.021   0.789   3.272 -0.1294 -0.0727 -0.0646
14870TIP3    H166101   4.981   0.841   3.202 -0.4828 -2.3714 -1.6655
14870TIP3    H266102   5.086   0.847   3.311 -1.9132  2.2630 -0.3548
14871TIP3   OH266103   4.087   5.292  12.817  0.1111 -0.2995 -0.2974
14871TIP3    H166104   4.077   5.199  12.840 -0.2140 -0.3846 -0.7782
14871TIP3    H266105   3.998   5.321  12.798  0.0344  0.4304  1.0296
14872TIP3   OH266106   5.213   3.217  16.592 -0.0921 -0.2921 -0.0711
14872TIP3    H166107   5.276   3.170  16.647  0.3646  0.5026  0.1025
14872TIP3    H266108   5.256   3.300  16.572  0.1178 -0.9078 -2.3721
14873TIP3   OH266109   6.146   3.841   3.277 -0.0731  0.3423  0.9729
14873TIP3    H166110   6.141   3.746   3.268  0.0737  0.2715  1.5654
14873TIP3    H266111   6.141   3.874   3.188  1.2092 -0.2810  0.6427
14874TIP3   OH266112   2.628   0.689  17.067  0.4666  0.1612  0.3196
14874TIP3    H166113   2.678   0.619  17.110  0.0140  0.0248  0.6254
14874TIP3    H266114   2.538   0.659  17.069  0.4249  0.1922 -0.6659
14875TIP3   OH266115   3.550   2.988   0.566  0.5105 -0.3012  0.1658
14875TIP3    H166116   3.573   2.979   0.474 -0.0582 -1.6228  0.1260
14875TIP3    H266117   3.501   3.070   0.571  1.4482  0.3091 -0.5162
14876TIP3   OH266118   5.060   3.019   5.473 -0.2581 -0.0945 -0.1876
14876TIP3    H166119   5.121   3.034   5.401 -1.9652 -1.9545 -2.1653
14876TIP3    H266120   5.014   2.938   5.449  0.3063 -1.8872  3.8947
14877TIP3   OH266121   0.567   5.430   1.728  0.6579 -0.2518  0.3058
14877TIP3    H166122   0.619   5.505   1.756  0.1983  0.6732 -1.1711
14877TIP3    H266123   0.516   5.463   1.653 -0.6087 -1.6503  0.5041
14878TIP3   OH266124   5.069   1.339   5.749  0.1508 -0.3747  0.1439
14878TIP3    H166125   5.156   1.343   5.709 -0.2535 -1.6534 -0.9392
14878TIP3    H266126   5.085   1.322   5.842  1.0667 -2.1242 -0.2888
14879TIP3   OH266127   2.201   4.209   5.687  0.4440 -0.3388  0.3275
14879TIP3    H166128   2.254   4.286   5.668  0.5837 -0.5280 -0.0461
14879TIP3    H266129   2.260   4.151   5.737  0.5328 -0.4709  0.0698
14880TIP3   OH266130   3.564   2.240   1.545 -0.2171 -0.0041 -0.2773
14880TIP3    H166131   3.516   2.252   1.627 -1.3008 -0.8417 -0.7677
14880TIP3    H266132   3.651   2.209   1.572 -0.1907  0.7831  0.5890
14881TIP3   OH266133   6.508   3.863   5.615 -0.4132 -0.0804  0.3251
14881TIP3    H166134   6.525   3.773   5.640  1.7807  0.1804  0.0452
14881TIP3    H266135   6.532   3.915   5.692 -0.5053  0.3318  0.0814
14882TIP3   OH266136   3.250   2.342  16.525 -0.6614 -0.2760  0.3821
14882TIP3    H166137   3.211   2.355  16.438  0.1707 -2.2701 -0.3554
14882TIP3    H266138   3.231   2.250  16.546 -0.4182  0.0328  2.1148
14883TIP3   OH266139   1.981   1.537   3.414 -0.5144 -0.1974  0.1312
14883TIP3    H166140   1.950   1.625   3.433  1.9963  0.6243  0.7877
14883TIP3    H266141   1.943   1.482   3.482 -1.8524  0.4151 -0.1056
14884TIP3   OH266142   2.269   6.284  11.280 -0.4636 -0.2930  0.0003
14884TIP3    H166143   2.359   6.253  11.272  0.2641  1.4479  0.9064
14884TIP3    H266144   2.248   6.274  11.373 -1.5239 -1.4125 -0.3286
14885TIP3   OH266145   3.785   0.202   6.040  0.5881 -0.5969  0.5048
14885TIP3    H166146   3.880   0.199   6.032  0.6687  0.2800  0.9635
14885TIP3    H266147   3.769   0.229   6.130 -0.1166 -1.5528  0.6804
14886TIP3   OH266148   3.072   3.444  10.281  0.0417 -0.1009  0.1696
14886TIP3    H166149   3.081   3.523  10.334  1.5272  1.6990 -2.5237
14886TIP3    H266150   3.162   3.422  10.255 -0.4054 -2.3102  0.2821
14887TIP3   OH266151   1.308   3.359   4.911 -0.0367 -0.1588  0.1229
14887TIP3    H166152   1.303   3.426   4.843 -0.8053 -0.4852 -0.1605
14887TIP3    H266153   1.313   3.276   4.863 -0.1719 -0.3663  0.4636
14888TIP3   OH266154   4.748   4.151  13.686  0.1304 -0.4194  0.2540
14888TIP3    H166155   4.805   4.088  13.642  0.2714 -0.4514  0.4812
14888TIP3    H266156   4.798   4.180  13.762 -1.3790 -2.8544  2.3253
14889TIP3   OH266157   0.294   5.832  13.854 -0.3618  0.6077 -0.1036
14889TIP3    H166158   0.222   5.833  13.790  1.1614 -0.6942 -1.9357
14889TIP3    H266159   0.294   5.921  13.890 -2.9231  0.6249  0.0617
14890TIP3   OH266160   0.648   6.296  16.377 -0.0360 -0.1004  0.0244
14890TIP3    H166161   0.650   6.332  16.289 -0.0079 -1.8308 -0.7155
14890TIP3    H266162   0.565   6.328  16.414  0.3733  1.3640 -0.2736
14891TIP3   OH266163   3.687   6.498  14.661 -0.2135  0.0021  0.0113
14891TIP3    H166164   3.678   6.430  14.594  1.9435 -1.5328  1.1717
14891TIP3    H266165   3.758   6.554  14.629 -1.3643  1.2597 -0.4855
14892TIP3   OH266166   0.173   3.895  16.381 -0.2435 -0.5964 -0.2994
14892TIP3    H166167   0.262   3.871  16.358 -0.2174 -1.7199  0.9341
14892TIP3    H266168   0.155   3.849  16.463 -0.6413  2.5470  1.5386
14893TIP3   OH266169   4.790   2.719   5.002 -0.0865 -0.4424  0.0900
14893TIP3    H166170   4.740   2.732   4.922  0.2422 -1.3392 -0.2734
14893TIP3    H266171   4.881   2.719   4.974  0.1897  1.5210  0.7933
14894TIP3   OH266172   5.938   4.976   2.415 -0.7319  0.0462 -0.2581
14894TIP3    H166173   5.908   4.992   2.505  1.0624  0.9572  0.2209
14894TIP3    H266174   6.016   5.031   2.405 -1.0762  0.2116 -2.5016
14895TIP3   OH266175   4.881   1.624  12.483 -0.5036  0.1141 -0.1161
14895TIP3    H166176   4.869   1.635  12.578  0.1955  0.3449 -0.0465
14895TIP3    H266177   4.795   1.644  12.446 -0.8859 -0.3413  0.4967
14896TIP3   OH266178   4.791   0.545   1.720 -0.6844 -0.5542 -0.3988
14896TIP3    H166179   4.770   0.472   1.778 -1.4936 -0.1577 -0.1755
14896TIP3    H266180   4.816   0.617   1.779  2.4720 -1.2825 -0.6546
14897TIP3   OH266181   1.822   4.889   2.836 -0.3546 -0.5124  0.5218
14897TIP3    H166182   1.757   4.872   2.904 -1.5612  2.3350  0.1865
14897TIP3    H266183   1.785   4.850   2.757 -0.8449 -0.3301  0.6637
14898TIP3   OH266184   3.440   6.832   1.051 -0.0646  0.1046 -0.0468
14898TIP3    H166185   3.526   6.829   1.009 -0.2767  2.2612 -0.7305
14898TIP3    H266186   3.379   6.810   0.981 -0.2457  1.3037 -0.2810
14899TIP3   OH266187   2.303   2.097   4.756 -0.3451  0.1356 -0.1956
14899TIP3    H166188   2.359   2.040   4.808 -1.0658 -0.8748 -0.5084
14899TIP3    H266189   2.273   2.164   4.817  0.6178  0.2704  0.1430
14900TIP3   OH266190   3.541   4.548   1.124 -0.4363 -0.0751 -0.2547
14900TIP3    H166191   3.485   4.623   1.143  0.9631  0.3249  3.0819
14900TIP3    H266192   3.482   4.473   1.128 -1.9973  0.6802 -4.3278
14901TIP3   OH266193   2.617   3.667  15.296 -0.0241 -0.2881 -0.0641
14901TIP3    H166194   2.659   3.631  15.375  0.9511  1.7821  0.4259
14901TIP3    H266195   2.673   3.636  15.224  2.1440  1.8971  0.5322
14902TIP3   OH266196   3.470   1.456   4.478 -0.2280 -0.2870  0.0270
14902TIP3    H166197   3.422   1.382   4.440 -1.3298  0.6245 -0.4106
14902TIP3    H266198   3.547   1.416   4.518  0.1068 -1.4934 -1.6827
14903TIP3   OH266199   0.285   0.157  12.512  0.2119  0.2236  0.3548
14903TIP3    H166200   0.223   0.225  12.537 -0.5426  0.4451 -1.8861
14903TIP3    H266201   0.335   0.195  12.440  1.3210 -0.8055  0.5482
14904TIP3   OH266202   5.932   0.420   0.844  0.6092 -0.0973  0.7106
14904TIP3    H166203   5.931   0.358   0.917 -1.0890 -0.1141  0.7150
14904TIP3    H266204   5.856   0.395   0.791  1.4374  0.3312 -0.7213
14905TIP3   OH266205   1.912   5.549   6.151  0.4516  0.3929 -0.9529
14905TIP3    H166206   1.850   5.557   6.224 -0.2040 -3.0787 -0.9807
14905TIP3    H266207   1.948   5.638   6.141 -3.6543  2.3879 -0.2339
14906TIP3   OH266208   0.835   5.895  14.269 -0.4358  0.5511 -0.0693
14906TIP3    H166209   0.786   5.957  14.322 -0.9402 -0.0311  0.1472
14906TIP3    H266210   0.863   5.946  14.192  2.2100  2.0414  1.7065
14907TIP3   OH266211   0.360   4.704   1.276 -0.1685 -0.8786 -0.3565
14907TIP3    H166212   0.437   4.710   1.333  1.1045  0.2341 -2.0831
14907TIP3    H266213   0.286   4.719   1.335  1.0564  0.0250  1.0574
14908TIP3   OH266214   6.809   1.921  15.667  0.1800  0.8174  0.4212
14908TIP3    H166215   6.883   1.860  15.669  0.0429  0.6652  1.0253
14908TIP3    H266216   6.805   1.956  15.756 -1.6353 -0.5621  0.9278
14909TIP3   OH266217   6.696   4.154  11.658  0.7500 -0.1491 -0.0943
14909TIP3    H166218   6.631   4.207  11.613 -0.7985 -0.9020  1.1351
14909TIP3    H266219   6.732   4.096  11.590 -0.7500 -0.5317 -0.5959
14910TIP3   OH266220   4.067   3.029   5.659  0.1159 -0.0074  0.0584
14910TIP3    H166221   3.976   3.021   5.689  0.1818 -1.9354 -0.0996
14910TIP3    H266222   4.089   3.121   5.671 -1.4157  0.2228  1.4164
14911TIP3   OH266223   6.772   2.876  13.147  0.4367  0.3927 -0.7236
14911TIP3    H166224   6.699   2.874  13.209  2.0881 -1.1270  1.3653
14911TIP3    H266225   6.746   2.938  13.080 -3.1341 -0.7560 -0.5967
14912TIP3   OH266226   3.252   5.503   4.941  0.1908 -0.1956 -0.1284
14912TIP3    H166227   3.169   5.455   4.949 -1.1857  2.0059 -0.2879
14912TIP3    H266228   3.252   5.563   5.016  1.0721  0.6584 -0.7921
14913TIP3   OH266229   6.618   6.047  15.270 -0.2110  1.1951 -0.1129
14913TIP3    H166230   6.615   6.068  15.176 -2.9482 -0.1634 -0.4194
14913TIP3    H266231   6.659   6.124  15.310 -0.9105  2.7534 -2.1884
14914TIP3   OH266232   2.618   2.096   0.028 -0.2031  0.7334 -0.7780
14914TIP3    H166233   2.655   2.155   0.094 -0.6874  0.7886 -0.5542
14914TIP3    H266234   2.530   2.076   0.060  0.4676 -1.3303 -0.0750
14915TIP3   OH266235   6.447   6.014  12.086  0.5448  0.0562 -0.1609
14915TIP3    H166236   6.470   6.063  12.007 -0.8813 -0.7384 -1.1137
14915TIP3    H266237   6.529   6.009  12.136  1.5969  0.1894 -1.7948
14916TIP3   OH266238   1.340   2.070  12.724 -0.7371 -0.6382 -0.3034
14916TIP3    H166239   1.393   2.005  12.770 -0.2585  0.0653  0.1649
14916TIP3    H266240   1.404   2.124  12.678 -1.0189  0.3436  0.4301
14917TIP3   OH266241   5.020   2.724  11.030  0.4097  0.0395  0.0735
14917TIP3    H166242   4.986   2.721  10.941 -0.6756  0.0973  0.4660
14917TIP3    H266243   5.104   2.769  11.023 -0.3340  1.3660 -0.7189
14918TIP3   OH266244   1.980   2.861   0.786  0.6286  0.5656  0.3719
14918TIP3    H166245   2.044   2.798   0.752  2.1198  2.5201 -0.6146
14918TIP3    H266246   2.015   2.947   0.762 -3.0536  1.7578 -1.5342
14919TIP3   OH266247   3.594   5.444  15.614 -0.0830 -0.0716  0.2111
14919TIP3    H166248   3.553   5.531  15.612 -0.9733 -0.4840 -0.7730
14919TIP3    H266249   3.664   5.450  15.549  0.3431  0.1241  0.6807
14920TIP3   OH266250   2.183   5.335  16.376  0.1737 -0.2025  0.0135
14920TIP3    H166251   2.227   5.418  16.396 -0.2735  0.0478 -0.0258
14920TIP3    H266252   2.125   5.356  16.303  0.3875 -0.6621 -0.2879
14921TIP3   OH266253   2.089   0.087  16.409  0.4163  0.1668 -0.4811
14921TIP3    H166254   2.128   0.000  16.397  0.5564  0.3091 -1.0473
14921TIP3    H266255   2.136   0.143  16.347  0.8007  0.7955  0.3555
14922TIP3   OH266256   4.115   3.694  14.568 -0.0609  0.0854  0.0736
14922TIP3    H166257   4.063   3.639  14.509 -2.5130  1.6847  0.5691
14922TIP3    H266258   4.056   3.713  14.641  1.0905  2.2691  0.5322
14923TIP3   OH266259   6.145   0.310  11.918 -0.5568  0.5537  0.1555
14923TIP3    H166260   6.231   0.277  11.941 -0.2148  0.2555 -1.4282
14923TIP3    H266261   6.122   0.264  11.837 -2.6986 -0.2086  1.1236
14924TIP3   OH266262   0.863   3.911  13.319  0.2072 -0.6736 -0.3292
14924TIP3    H166263   0.768   3.924  13.321  0.1509 -0.9687  1.9909
14924TIP3    H266264   0.875   3.825  13.278 -0.4122 -0.0098 -1.9417
14925TIP3   OH266265   5.895   1.520  15.885 -0.3655 -0.1839 -0.0250
14925TIP3    H166266   5.979   1.494  15.923 -0.1350  0.2202 -0.2600
14925TIP3    H266267   5.918   1.570  15.807 -0.8391 -1.0277 -0.7207
14926TIP3   OH266268   3.859   0.628  11.623  0.7107  0.4442  0.5935
14926TIP3    H166269   3.934   0.686  11.637  1.4452 -0.3779  0.1712
14926TIP3    H266270   3.893   0.559  11.566 -0.1978 -0.3001  0.9389
14927TIP3   OH266271   2.879   4.467  13.291  0.2293 -0.6746  0.6363
14927TIP3    H166272   2.949   4.484  13.228  0.4120  0.4040  1.1031
14927TIP3    H266273   2.907   4.388  13.337  0.2812 -1.2467 -0.3612
14928TIP3   OH266274   1.439   2.285   4.040  0.3656  0.2581  0.1915
14928TIP3    H166275   1.512   2.347   4.030  0.8854 -0.6558 -2.4855
14928TIP3    H266276   1.478   2.209   4.083  0.7289  0.2300 -0.1812
14929TIP3   OH266277   2.921   3.655   2.848 -0.2113 -0.4213  0.0518
14929TIP3    H166278   2.881   3.665   2.762 -0.8820  1.9762  0.5847
14929TIP3    H266279   2.877   3.578   2.885  1.7582 -2.9835 -2.5476
14930TIP3   OH266280   0.446   3.572  13.678 -0.4464  0.2228  0.3708
14930TIP3    H166281   0.425   3.486  13.643  0.1606  0.0493  0.4254
14930TIP3    H266282   0.499   3.555  13.756 -1.0308  0.6290  0.8711
14931TIP3   OH266283   6.147   2.316  16.551 -0.2297  0.5086  0.6779
14931TIP3    H166284   6.222   2.268  16.517 -0.3739 -0.0842  1.1689
14931TIP3    H266285   6.148   2.298  16.645 -0.7293  0.8494  0.7507
14932TIP3   OH266286   0.293   6.614  16.119 -0.0835  0.5116  0.2124
14932TIP3    H166287   0.342   6.652  16.193 -0.9059 -0.3437  1.2241
14932TIP3    H266288   0.241   6.545  16.159  1.0354 -1.4056 -1.5064
14933TIP3   OH266289   5.127   4.293  11.633  0.1437  0.0171  0.3226
14933TIP3    H166290   5.191   4.309  11.563  1.0940  2.0074  1.5564
14933TIP3    H266291   5.171   4.232  11.692  0.3446  0.3041  0.4687
14934TIP3   OH266292   5.315   5.878  13.554 -0.4514  0.4236  0.3287
14934TIP3    H166293   5.222   5.886  13.571 -1.1474 -0.4043 -2.4756
14934TIP3    H266294   5.323   5.893  13.460  2.4198  1.6131  0.6611
14935TIP3   OH266295   0.817   2.211   3.820 -0.1741 -0.0854 -0.0115
14935TIP3    H166296   0.798   2.123   3.851 -0.4065  0.3338  1.1022
14935TIP3    H266297   0.755   2.267   3.868  0.2596  0.7231 -0.3761
14936TIP3   OH266298   5.109   4.346   4.465  0.4823 -0.0981 -0.5783
14936TIP3    H166299   5.186   4.337   4.522  1.0284  2.6879 -0.7199
14936TIP3    H266300   5.146   4.363   4.378 -0.3329 -0.7332 -1.0626
14937TIP3   OH266301   0.515   6.244  11.459 -0.0238 -0.2776 -0.0763
14937TIP3    H166302   0.504   6.332  11.493  1.1846 -0.4315  0.8162
14937TIP3    H266303   0.521   6.255  11.364  0.5666  0.6686  0.0520
14938TIP3   OH266304   4.582   2.336  13.257  0.5572 -0.9400  0.1998
14938TIP3    H166305   4.527   2.263  13.228 -0.4875 -1.6711  3.6073
14938TIP3    H266306   4.527   2.413  13.248 -0.0373 -1.2712  0.8906
14939TIP3   OH266307   3.047   2.381  13.839 -0.0891 -0.1177  0.1273
14939TIP3    H166308   3.008   2.406  13.756  2.2797 -1.3320 -1.4713
14939TIP3    H266309   3.011   2.294  13.857  1.6879 -1.2195 -1.3230
14940TIP3   OH266310   2.086   2.827  16.630 -0.1231  0.3442 -0.3837
14940TIP3    H166311   2.034   2.908  16.634  1.9628  1.7058  1.8650
14940TIP3    H266312   2.061   2.779  16.709  1.5532  0.7959  0.4746
14941TIP3   OH266313   1.573   4.933  13.956 -0.4973  0.3723 -0.0450
14941TIP3    H166314   1.660   4.916  13.993 -1.4261 -0.7591  1.7414
14941TIP3    H266315   1.522   4.855  13.978 -2.4517  1.7311  0.4729
14942TIP3   OH266316   3.173   0.380  13.764  0.3503 -0.1394 -0.0690
14942TIP3    H166317   3.167   0.450  13.829 -2.3522 -0.2775 -0.0557
14942TIP3    H266318   3.192   0.424  13.681  1.5137  0.2699  0.3970
14943TIP3   OH266319   3.743   3.988   5.302  0.3369  0.5427 -0.1793
14943TIP3    H166320   3.685   4.058   5.329  0.2139  0.6006 -0.5868
14943TIP3    H266321   3.831   4.019   5.324  0.4221  1.4920 -1.7445
14944TIP3   OH266322   5.596   2.698  12.759  0.2043  0.6375  0.2756
14944TIP3    H166323   5.668   2.758  12.780 -0.9806  2.4705 -0.6114
14944TIP3    H266324   5.596   2.691  12.664 -1.2522  1.3242  0.1947
14945TIP3   OH266325   5.888   1.775  11.759  0.4111  0.3712  0.2709
14945TIP3    H166326   5.825   1.837  11.722 -0.7217 -2.3818 -2.8867
14945TIP3    H266327   5.970   1.795  11.714  0.0942 -0.2529 -0.6044
14946TIP3   OH266328   2.576   0.494  12.928  0.1685  0.1077 -0.6211
14946TIP3    H166329   2.507   0.444  12.885  1.3610 -1.6462 -0.6187
14946TIP3    H266330   2.562   0.480  13.022 -0.4088  1.0936 -0.5503
14947TIP3   OH266331   2.832   5.918   0.081  0.1258 -0.0266 -0.1222
14947TIP3    H166332   2.778   5.840   0.075 -0.6258  0.4771 -0.0879
14947TIP3    H266333   2.915   5.887   0.119  0.0015 -0.8682 -0.5148
14948TIP3   OH266334   5.388   5.583   6.303  0.6551  0.7021  0.2709
14948TIP3    H166335   5.369   5.519   6.373 -1.8467 -0.2164 -1.1222
14948TIP3    H266336   5.376   5.668   6.345 -1.3776  0.1667  0.8956
14949TIP3   OH266337   2.690   0.030   4.948 -0.1356  0.0609  0.7354
14949TIP3    H166338   2.669   0.055   4.858  0.0430 -1.0659  0.3619
14949TIP3    H266339   2.630  -0.042   4.968  0.1878 -0.0531  1.3221
14950TIP3   OH266340   6.406   3.330   4.077 -0.3515 -0.4502 -0.6797
14950TIP3    H166341   6.380   3.284   4.156 -2.2629  0.4844 -0.7123
14950TIP3    H266342   6.378   3.273   4.005  0.4217 -0.8079 -0.7065
14951TIP3   OH266343   1.581   4.050  13.351  0.0974  0.3804  0.6341
14951TIP3    H166344   1.489   4.032  13.332 -0.2369  0.9122  1.6885
14951TIP3    H266345   1.616   4.085  13.269 -0.3604 -0.7850 -0.0847
14952TIP3   OH266346   2.853   6.500   0.387  0.7632  0.2601  0.1893
14952TIP3    H166347   2.944   6.526   0.400  0.4952  0.3058  2.3622
14952TIP3    H266348   2.823   6.555   0.314  2.1292  1.1309  0.2394
14953TIP3   OH266349   5.273   5.653   3.285  0.1164 -0.1570  0.0613
14953TIP3    H166350   5.184   5.669   3.253  0.0240  1.3713  0.9867
14953TIP3    H266351   5.325   5.643   3.205 -0.6491  0.3358 -0.5143
14954TIP3   OH266352   3.922   2.239   2.916  0.2801 -0.2010  0.6150
14954TIP3    H166353   3.830   2.241   2.942  0.1677  1.0511  0.2209
14954TIP3    H266354   3.931   2.312   2.855  0.7494 -2.4084 -2.1711
14955TIP3   OH266355   1.270   3.758  15.089 -0.4837 -0.3202 -0.5812
14955TIP3    H166356   1.285   3.831  15.149 -1.1127 -0.8582  0.2508
14955TIP3    H266357   1.190   3.716  15.121 -2.3477  0.8814 -3.2728
14956TIP3   OH266358   0.620   0.081   2.006  0.4969  0.2560 -0.1258
14956TIP3    H166359   0.550   0.076   2.070  0.4078  1.0699 -0.1519
14956TIP3    H266360   0.576   0.078   1.921  0.5245  0.3763 -0.1443
14957TIP3   OH266361   5.718   3.734   4.035 -0.5075 -0.1299 -0.3761
14957TIP3    H166362   5.650   3.686   4.082 -1.0280  1.7178  0.8411
14957TIP3    H266363   5.768   3.778   4.103  1.0978 -0.3498 -1.3491
14958TIP3   OH266364   1.912   5.759  15.438 -0.6186  0.0809  0.0920
14958TIP3    H166365   2.007   5.754  15.445 -0.2586  1.4711 -2.6277
14958TIP3    H266366   1.885   5.805  15.518  1.0090  0.0226  0.7154
14959TIP3   OH266367   0.710   1.273  13.607 -0.4511 -0.3663  0.6721
14959TIP3    H166368   0.649   1.234  13.545 -0.5213  0.3905  0.2486
14959TIP3    H266369   0.654   1.314  13.673 -0.3772 -1.1702  1.2471
14960TIP3   OH266370   4.046   1.527  14.429  0.3568 -0.4872 -0.5564
14960TIP3    H166371   4.039   1.616  14.463  2.2280 -0.1526 -0.9252
14960TIP3    H266372   4.046   1.537  14.334  1.0688 -0.8209 -0.5965
14961TIP3   OH266373   1.370   5.389   4.346  0.1225  0.5133 -0.1846
14961TIP3    H166374   1.333   5.311   4.388 -0.5899 -0.0771 -1.8126
14961TIP3    H266375   1.329   5.463   4.392 -1.3255 -0.1116 -0.4143
14962TIP3   OH266376   0.359   5.097  17.061 -0.0591 -0.1391 -0.0596
14962TIP3    H166377   0.418   5.170  17.041 -2.2073  1.4077 -1.2102
14962TIP3    H266378   0.386   5.027  17.001 -0.4316  1.1589 -1.8276
14963TIP3   OH266379   6.689   4.089  16.091 -0.1558 -0.3058  0.1870
14963TIP3    H166380   6.740   4.011  16.067 -1.4964 -1.6230  1.4724
14963TIP3    H266381   6.756   4.155  16.111  1.0615 -1.7295  1.0471
14964TIP3   OH266382   1.244   1.377  13.503  0.2262 -0.9406  0.2988
14964TIP3    H166383   1.266   1.284  13.493 -2.4240 -1.6190 -0.0175
14964TIP3    H266384   1.148   1.378  13.509  0.1095  1.8760 -0.7182
14965TIP3   OH266385   0.869   2.530  11.873 -0.6307 -0.4836 -0.1470
14965TIP3    H166386   0.937   2.468  11.900 -1.0398 -0.8106  0.1382
14965TIP3    H266387   0.787   2.484  11.889 -0.9533  0.2744  0.4051
14966TIP3   OH266388   3.372   4.350   1.084  0.1291  0.4396  0.1647
14966TIP3    H166389   3.313   4.301   1.142 -0.8571  0.5057 -0.7500
14966TIP3    H266390   3.373   4.300   1.003  0.2891  1.1401 -0.2692
14967TIP3   OH266391   4.312   2.985   2.162  0.2012 -0.3205  0.7425
14967TIP3    H166392   4.401   2.950   2.152 -0.0141 -1.0699  1.3632
14967TIP3    H266393   4.286   3.009   2.073  0.9019 -0.4040  0.5049
14968TIP3   OH266394   4.682   0.253   5.251 -0.3042 -0.2355  0.3606
14968TIP3    H166395   4.768   0.242   5.292 -0.3048 -0.8008  0.2098
14968TIP3    H266396   4.678   0.186   5.184 -0.7841 -0.0767  0.2242
14969TIP3   OH266397   4.611   5.337   3.722  0.1452 -0.3754 -0.0982
14969TIP3    H166398   4.556   5.275   3.673  0.4022 -0.6867  0.0012
14969TIP3    H266399   4.699   5.302   3.714  0.7001  1.3083 -2.1337
14970TIP3   OH266400   2.612   2.519   2.899 -0.5825 -0.1029  0.4996
14970TIP3    H166401   2.586   2.610   2.889 -1.2611 -0.3462 -0.0574
14970TIP3    H266402   2.707   2.522   2.916 -0.0934  0.6116 -1.9528
14971TIP3   OH266403   0.718   3.858   4.298  0.0832 -0.1686  0.0095
14971TIP3    H166404   0.656   3.805   4.349 -1.0245  0.9971 -0.0684
14971TIP3    H266405   0.766   3.908   4.364 -0.2677  0.1938 -0.0058
14972TIP3   OH266406   2.999   0.822   3.064  0.0026  0.1321 -0.2026
14972TIP3    H166407   3.003   0.905   3.017  0.9105  0.9031  1.1569
14972TIP3    H266408   3.047   0.760   3.009 -0.9081  0.4342 -1.3551
14973TIP3   OH266409   2.277   1.409   6.201 -0.2934  0.5317 -0.0360
14973TIP3    H166410   2.213   1.366   6.258 -0.4820 -2.0662 -1.9958
14973TIP3    H266411   2.224   1.462   6.142 -0.2880  1.3424  0.6690
14974TIP3   OH266412   1.809   1.018   0.437 -0.2552 -0.0233  0.5174
14974TIP3    H166413   1.846   1.106   0.448 -0.1296  0.2508 -1.6830
14974TIP3    H266414   1.838   0.991   0.350 -3.9424 -0.4416 -0.7225
14975TIP3   OH266415   6.000   6.088   5.818  0.3243  0.5473  0.4113
14975TIP3    H166416   5.980   6.179   5.795  0.9455  0.3884 -0.7974
14975TIP3    H266417   6.018   6.092   5.912 -0.9381  1.4372  0.6520
14976TIP3   OH266418   4.622   3.834   1.063 -0.0390  0.1480 -0.4023
14976TIP3    H166419   4.695   3.773   1.067 -0.5969 -0.5560 -0.6317
14976TIP3    H266420   4.627   3.874   0.977  0.1025  0.1349 -0.3990
14977TIP3   OH266421   0.037   1.457   0.748  0.9418 -0.1388  0.5014
14977TIP3    H166422   0.099   1.457   0.676 -0.8895  1.4505 -1.1916
14977TIP3    H266423  -0.003   1.370   0.746  0.6045  0.0293 -0.7226
14978TIP3   OH266424   0.155   4.291  13.468  0.0216 -0.2257 -0.1302
14978TIP3    H166425   0.182   4.244  13.547  1.0253  0.8612  0.2104
14978TIP3    H266426   0.214   4.259  13.400 -1.1465 -1.5063 -0.5845
14979TIP3   OH266427   3.572   3.709   3.763 -0.4416 -0.2602  0.1920
14979TIP3    H166428   3.649   3.661   3.734 -1.3970 -1.4142 -0.5030
14979TIP3    H266429   3.575   3.704   3.859  1.1594  1.0752  0.2765
14980TIP3   OH266430   0.781   1.331   0.766 -0.0851  0.0658  0.1955
14980TIP3    H166431   0.867   1.293   0.747 -0.2264 -0.0148 -0.3229
14980TIP3    H266432   0.720   1.261   0.743 -0.3487  0.5844 -0.7308
14981TIP3   OH266433   0.883   4.556  13.910 -0.4040 -0.3785  0.0628
14981TIP3    H166434   0.874   4.650  13.895 -0.9728 -0.3200  0.7167
14981TIP3    H266435   0.909   4.550  14.002 -1.0155 -0.8886  0.2053
14982TIP3   OH266436   1.130   3.273   2.369 -0.2966 -0.0867 -0.4614
14982TIP3    H166437   1.169   3.259   2.455 -0.1758 -0.9227 -0.6462
14982TIP3    H266438   1.063   3.205   2.362 -0.8612  0.4841 -0.7008
14983TIP3   OH266439   6.316   3.879  16.717 -0.1000 -0.6552  0.4051
14983TIP3    H166440   6.380   3.818  16.754 -0.1316 -0.6137  0.5309
14983TIP3    H266441   6.286   3.930  16.793  1.4178  0.9099  0.0032
14984TIP3   OH266442   3.726   3.231  11.367  0.1277  0.6198  0.5151
14984TIP3    H166443   3.679   3.294  11.312 -1.0080  0.7666  1.5958
14984TIP3    H266444   3.739   3.277  11.450  0.4185 -0.1191  0.8866
14985TIP3   OH266445   4.056   2.950   2.849  0.5270  0.4354 -0.2800
14985TIP3    H166446   4.078   3.043   2.858  0.6945  0.3926 -0.2385
14985TIP3    H266447   4.029   2.924   2.937  0.4927  0.4419 -0.2887
14986TIP3   OH266448   5.562   0.790   0.421  0.1883 -0.4758  0.6478
14986TIP3    H166449   5.549   0.741   0.502  0.1854 -1.1383  0.2510
14986TIP3    H266450   5.637   0.847   0.439 -0.3919  0.0642  1.4267
14987TIP3   OH266451   3.722   1.635  14.090  0.5140 -0.1724 -0.1473
14987TIP3    H166452   3.731   1.585  14.171  0.5139  0.3588  0.1879
14987TIP3    H266453   3.629   1.656  14.085  0.6212  0.3829  0.0796
14988TIP3   OH266454   0.616   3.866   2.371 -0.0100 -0.2987  0.0017
14988TIP3    H166455   0.560   3.942   2.389 -1.2309 -0.7254 -1.8493
14988TIP3    H266456   0.695   3.904   2.332 -0.5243  0.0609 -0.7158
14989TIP3   OH266457   0.903   1.343  16.137  0.8410  0.4659 -0.1328
14989TIP3    H166458   0.840   1.287  16.182  1.0726 -0.2679 -0.7092
14989TIP3    H266459   0.938   1.400  16.206  3.2581 -2.4543  1.2874
14990TIP3   OH266460   1.633   1.507  13.705 -0.0753 -0.2520  0.0349
14990TIP3    H166461   1.617   1.426  13.754 -5.4904 -1.1288 -2.3804
14990TIP3    H266462   1.708   1.487  13.649  0.2311 -2.6874  1.1973
14991TIP3   OH266463   3.919   2.897  12.443 -0.7637 -0.2041  0.1344
14991TIP3    H166464   3.889   2.987  12.432  0.3339  0.2450  0.6886
14991TIP3    H266465   3.896   2.854  12.360  0.3426  1.0693 -0.8914
14992TIP3   OH266466   2.361   0.805  16.851 -0.4509  0.3334  0.2245
14992TIP3    H166467   2.416   0.837  16.922 -2.3697 -2.9278  3.5211
14992TIP3    H266468   2.272   0.808  16.886 -1.6872 -0.3698 -2.5387
14993TIP3   OH266469   1.334   6.753  16.711 -0.2221 -0.0380 -0.0841
14993TIP3    H166470   1.336   6.788  16.800  1.2590 -1.5004  0.5134
14993TIP3    H266471   1.404   6.798  16.665 -1.6527  1.4921 -0.8957
14994TIP3   OH266472   2.611   6.734  13.734 -0.1949  0.3431 -0.1770
14994TIP3    H166473   2.601   6.824  13.763  0.4092  0.2494  0.3508
14994TIP3    H266474   2.586   6.735  13.642 -0.3388  1.0134 -0.1330
14995TIP3   OH266475   0.250   1.081   0.746 -0.1685  0.4542  0.1120
14995TIP3    H166476   0.205   1.101   0.828 -0.4065  0.6752 -0.0730
14995TIP3    H266477   0.184   1.038   0.691 -0.2922  1.2100 -0.3372
14996TIP3   OH266478   3.158   4.117  15.782  0.3726  0.2221  0.0365
14996TIP3    H166479   3.086   4.057  15.762 -1.6026  2.2286  0.8067
14996TIP3    H266480   3.132   4.161  15.862  2.7757  0.6231  0.7006
14997TIP3   OH266481   1.331   5.609   2.136 -0.4077  0.5591  0.6034
14997TIP3    H166482   1.327   5.658   2.054 -0.0175  0.6411  0.6325
14997TIP3    H266483   1.315   5.518   2.110 -1.1396  0.6951  0.5519
14998TIP3   OH266484   2.888   4.009   4.042  0.2388  0.1644 -0.0945
14998TIP3    H166485   2.829   3.988   3.970  0.4062 -0.3416 -0.0881
14998TIP3    H266486   2.942   3.930   4.053  0.1440  0.1901  0.6461
14999TIP3   OH266487   6.614   3.563   0.050 -0.1511  0.0515 -0.0451
14999TIP3    H166488   6.566   3.646   0.045  0.3418  0.3103 -0.4836
14999TIP3    H266489   6.572   3.516   0.123 -1.2090  0.1826 -0.5482
15000TIP3   OH266490   1.518   4.096  13.016  0.1778  0.5184  0.6105
15000TIP3    H166491   1.596   4.100  13.071 -0.1618 -0.6461  1.2134
15000TIP3    H266492   1.463   4.030  13.057 -0.3086 -0.0269 -0.8498
15001TIP3   OH266493   0.155   4.317   5.509 -0.4887 -0.1312  0.3040
15001TIP3    H166494   0.177   4.384   5.573 -2.1231  1.4326 -0.7098
15001TIP3    H266495   0.152   4.236   5.560  1.8052  0.4427  1.4976
15002TIP3   OH266496   4.382   3.675  12.959  0.3756  0.1254 -0.0598
15002TIP3    H166497   4.332   3.736  13.014  1.7622  1.1590  0.1174
15002TIP3    H266498   4.425   3.617  13.021 -1.9228 -1.9557 -0.2511
15003TIP3   OH266499   4.096   3.015  16.089  0.4464  0.5020 -0.1311
15003TIP3    H166500   4.013   3.063  16.098  0.1351  0.1974 -1.2115
15003TIP3    H266501   4.091   2.946  16.156 -1.1303 -0.8263 -1.5330
15004TIP3   OH266502   0.835   3.622   2.297 -0.2760 -0.2803  0.1802
15004TIP3    H166503   0.793   3.553   2.245 -1.8369 -0.4881  1.5925
15004TIP3    H266504   0.764   3.656   2.352  0.9949  0.8374  1.1916
15005TIP3   OH266505   0.232   6.143  12.241  0.2166  0.1588 -0.1482
15005TIP3    H166506   0.217   6.064  12.189  1.3176 -2.4558  3.1403
15005TIP3    H266507   0.155   6.149  12.297 -0.0650  1.7842 -0.6404
15006TIP3   OH266508   3.309   5.883  16.292  0.1958 -0.1850 -0.4617
15006TIP3    H166509   3.237   5.889  16.355  0.3788  2.0950 -0.3788
15006TIP3    H266510   3.388   5.890  16.346  0.4797 -1.7483 -0.6420
15007TIP3   OH266511   2.755   4.283   4.199  0.1405  0.3859  0.1447
15007TIP3    H166512   2.846   4.256   4.184  0.7675  1.6155  1.4642
15007TIP3    H266513   2.710   4.264   4.117  2.4703  3.3057 -2.0690
15008TIP3   OH266514   5.987   1.828   3.915  0.3350  0.0704 -0.0244
15008TIP3    H166515   5.940   1.906   3.888  0.6673  0.8233  1.4867
15008TIP3    H266516   5.921   1.772   3.954 -0.0020 -0.6781 -1.5825
15009TIP3   OH266517   5.683   3.299   1.299 -0.3831  0.0613  0.0569
15009TIP3    H166518   5.660   3.276   1.389 -1.0754  1.9217  0.4173
15009TIP3    H266519   5.681   3.216   1.251 -2.6733 -0.6314  1.2130
15010TIP3   OH266520   5.830   5.711  14.430 -0.2330 -0.1430  0.4603
15010TIP3    H166521   5.810   5.637  14.486  0.2061  0.4517  1.4180
15010TIP3    H266522   5.778   5.696  14.351  1.8424 -2.8710 -0.5488
15011TIP3   OH266523   1.803   4.019   6.692 -0.9108  0.6603  0.7963
15011TIP3    H166524   1.829   3.929   6.672 -3.5160  0.0087 -0.0978
15011TIP3    H266525   1.868   4.074   6.648 -0.4373 -0.7935 -0.3696
15012TIP3   OH266526   3.010   5.253  10.517  0.0495 -0.3532  0.5135
15012TIP3    H166527   3.046   5.342  10.509 -1.0344  0.1610  1.1213
15012TIP3    H266528   3.071   5.198  10.468 -0.0709  0.9488 -1.1804
15013TIP3   OH266529   5.439   1.966  15.805 -0.0492 -0.1778 -0.3108
15013TIP3    H166530   5.517   1.990  15.755 -0.8638  0.5039 -1.2742
15013TIP3    H266531   5.373   1.945  15.740 -0.9908  0.2602  0.4754
15014TIP3   OH266532   3.055   6.275   5.862  0.0956 -0.2225  0.1956
15014TIP3    H166533   3.050   6.346   5.799 -1.4826 -0.4889 -0.0358
15014TIP3    H266534   3.033   6.316   5.946  0.1273 -0.2616  0.2234
15015TIP3   OH266535   5.908   0.740   4.513 -0.1096 -0.3308 -0.3068
15015TIP3    H166536   5.919   0.720   4.606 -0.0209  1.4163  0.0864
15015TIP3    H266537   5.922   0.834   4.507 -4.4162  0.4521 -1.3614
15016TIP3   OH266538   4.478   5.888   0.232 -0.4057  0.4865  0.2316
15016TIP3    H166539   4.474   5.856   0.322 -0.2384  0.9154  0.3965
15016TIP3    H266540   4.393   5.865   0.194 -0.4567  0.2573  0.4814
15017TIP3   OH266541   3.507   2.238  16.047 -0.5743  0.0631 -0.0256
15017TIP3    H166542   3.446   2.168  16.069 -0.7765  0.4627  0.7106
15017TIP3    H266543   3.497   2.302  16.117 -1.8884  1.8215 -1.7088
15018TIP3   OH266544   5.395   5.271  14.691 -0.2820  0.4819 -0.0730
15018TIP3    H166545   5.479   5.262  14.646  0.1978  1.4121  0.6198
15018TIP3    H266546   5.417   5.302  14.778 -1.1821 -1.6821  0.9965
15019TIP3   OH266547   1.069   0.303   1.757  0.1108  0.0344 -0.1672
15019TIP3    H166548   1.065   0.278   1.849  1.5816 -0.6689 -0.2676
15019TIP3    H266549   1.108   0.391   1.758 -0.8094  0.4572 -0.0835
15020TIP3   OH266550   4.550   3.923   5.382 -0.3515  0.1402 -0.3131
15020TIP3    H166551   4.628   3.945   5.433 -1.4230  0.3895  1.2872
15020TIP3    H266552   4.578   3.850   5.326  1.5817  1.5686 -1.3158
15021TIP3   OH266553   1.862   5.739  14.213 -0.1249  0.0767  0.2739
15021TIP3    H166554   1.820   5.798  14.152 -1.0338 -0.9063 -0.0789
15021TIP3    H266555   1.803   5.664  14.219  0.8511 -0.6693  0.9316
15022TIP3   OH266556   3.269   2.567  11.908  0.6294  0.3095  0.0644
15022TIP3    H166557   3.244   2.585  11.999  1.7623  1.1491  0.2386
15022TIP3    H266558   3.216   2.627  11.857  0.1218 -0.0345  0.1794
15023TIP3   OH266559   5.026   2.979  13.878  0.2415 -0.0007  0.2626
15023TIP3    H166560   4.982   2.944  13.801  2.2560 -0.9711 -0.5185
15023TIP3    H266561   5.034   2.904  13.938 -0.8234  0.6150  1.2047
15024TIP3   OH266562   1.008   6.655  12.775 -0.0065 -0.4897  0.0326
15024TIP3    H166563   1.012   6.725  12.711  1.3848 -0.1110  0.4955
15024TIP3    H266564   0.961   6.692  12.849 -0.5142 -0.5126 -0.2809
15025TIP3   OH266565   6.833   4.924   1.558  0.0283  0.0025  0.0935
15025TIP3    H166566   6.793   4.916   1.471 -1.8274  0.1108  0.9030
15025TIP3    H266567   6.877   5.009   1.556 -1.0013  0.5403 -0.3549
15026TIP3   OH266568   5.136   3.300  15.125  0.1925  0.1079  0.8361
15026TIP3    H166569   5.185   3.280  15.045  0.5536  0.8843  0.8536
15026TIP3    H266570   5.202   3.332  15.186 -0.3690  1.5166  0.7442
15027TIP3   OH266571   3.477   1.297  15.889  0.2055 -0.0408  0.6213
15027TIP3    H166572   3.539   1.368  15.905  0.9613 -0.5517  0.0171
15027TIP3    H266573   3.422   1.329  15.818  1.5557 -0.6441 -0.7578
15028TIP3   OH266574   0.817   2.792  12.630  0.3188  0.3688 -0.0235
15028TIP3    H166575   0.861   2.716  12.592  0.5276  0.2668  0.4126
15028TIP3    H266576   0.764   2.828  12.559 -1.1157 -1.1770  0.2205
15029TIP3   OH266577   2.332   0.290   3.082 -0.6877  0.3363  0.2238
15029TIP3    H166578   2.363   0.200   3.074 -1.3398 -0.0666  1.8279
15029TIP3    H266579   2.291   0.294   3.169  1.1135  2.7131  1.0923
15030TIP3   OH266580   1.014   5.135   6.656 -0.5579 -0.0466 -0.0313
15030TIP3    H166581   1.004   5.173   6.569 -0.6817  2.1784  0.8956
15030TIP3    H266582   0.952   5.182   6.711  0.0905 -0.8215  1.4380
15031TIP3   OH266583   3.195   1.756  17.076  0.0246 -0.0271  0.2335
15031TIP3    H166584   3.182   1.850  17.083 -2.2000  0.0072 -2.3579
15031TIP3    H266585   3.106   1.720  17.075  0.7873 -2.0300  0.1107
15032TIP3   OH266586   6.414   0.771   4.738  0.0612 -0.0491 -0.3864
15032TIP3    H166587   6.468   0.847   4.717  1.2700 -0.6396  0.4344
15032TIP3    H266588   6.457   0.731   4.814 -0.1276 -1.9392 -1.1991
15033TIP3   OH266589   4.449   4.939  11.703  0.3830  0.1648  0.3385
15033TIP3    H166590   4.523   4.953  11.644 -1.4051  2.5772 -1.5253
15033TIP3    H266591   4.407   4.860  11.669  1.9792 -1.2558  1.4387
15034TIP3   OH266592   1.810   0.994   2.950  0.7898  0.2763 -0.3284
15034TIP3    H166593   1.876   0.930   2.976  0.7877  0.1859 -0.5427
15034TIP3    H266594   1.846   1.078   2.978  0.8905  0.2030 -0.2391
15035TIP3   OH266595   2.280   3.827   3.809 -0.1035 -0.0780 -0.0603
15035TIP3    H166596   2.194   3.787   3.798 -0.7350  1.4309 -0.9715
15035TIP3    H266597   2.268   3.889   3.881  0.1237  0.3336 -0.3711
15036TIP3   OH266598   2.981   2.582  15.538 -0.2791  0.1535 -0.3433
15036TIP3    H166599   3.002   2.489  15.544 -0.3912  0.1147 -0.5541
15036TIP3    H266600   2.892   2.585  15.503 -0.5662  0.3202  0.3692
15037TIP3   OH266601   0.110   4.701  16.659 -0.1629 -0.3648 -0.3488
15037TIP3    H166602   0.133   4.627  16.603  2.4370  0.8819 -1.0785
15037TIP3    H266603   0.193   4.727  16.699 -1.5692  0.1148  2.5076
15038TIP3   OH266604   0.499   5.051  11.642  0.1121  0.3949  0.1010
15038TIP3    H166605   0.583   5.090  11.665  0.6306 -1.2380  1.1655
15038TIP3    H266606   0.463   5.108  11.574  0.4979  3.0709  1.9796
15039TIP3   OH266607   4.813   4.831   3.871  0.0539  0.3814 -0.1179
15039TIP3    H166608   4.769   4.847   3.788  0.3474  1.7629 -0.0382
15039TIP3    H266609   4.907   4.833   3.850  0.1148 -0.4704  0.0508
15040TIP3   OH266610   0.196   6.787   1.791  0.2692 -0.2858  0.5611
15040TIP3    H166611   0.120   6.729   1.794  0.4934 -0.5419  1.8111
15040TIP3    H266612   0.199   6.826   1.878  0.2436  1.4678 -0.1776
15041TIP3   OH266613   0.147   2.209   5.272 -0.0809 -0.3657  0.0002
15041TIP3    H166614   0.115   2.229   5.360  1.4520 -0.6060  0.6485
15041TIP3    H266615   0.068   2.185   5.223 -1.0831  0.6313  1.0470
15042TIP3   OH266616   4.839   5.645  12.052 -0.2770 -0.0595  0.0252
15042TIP3    H166617   4.929   5.674  12.060  0.6327 -2.0613 -1.8062
15042TIP3    H266618   4.797   5.712  11.997  0.2551  0.5737  0.3833
15043TIP3   OH266619   3.899   2.024  11.870  0.1834 -0.3151 -0.0288
15043TIP3    H166620   3.892   2.032  11.965  2.0045  1.2806  0.0410
15043TIP3    H266621   3.833   1.959  11.846 -0.3148 -0.7604  2.3111
15044TIP3   OH266622   5.910   3.454   6.257 -0.7559  0.2294  0.1107
15044TIP3    H166623   5.826   3.489   6.288 -0.9699 -0.5953  0.5065
15044TIP3    H266624   5.962   3.442   6.337 -1.9873 -3.7140  0.5647
15045TIP3   OH266625   2.480   4.574  13.207 -0.5614  0.0291 -0.2163
15045TIP3    H166626   2.508   4.550  13.295  2.2436  1.9919 -0.4382
15045TIP3    H266627   2.523   4.510  13.150  0.6212  0.9038 -0.3369
15046TIP3   OH266628   0.930   0.531   4.984  0.1080 -0.2665  0.4098
15046TIP3    H166629   0.955   0.510   4.894  0.2261 -0.6973  0.5427
15046TIP3    H266630   0.851   0.479   4.999 -1.0201  1.2172 -0.0739
15047TIP3   OH266631   5.127   1.466  13.534 -0.1577 -0.3624 -0.3638
15047TIP3    H166632   5.086   1.452  13.449 -1.1446  1.6256 -0.2610
15047TIP3    H266633   5.073   1.415  13.595  0.5086 -1.7253 -0.8611
15048TIP3   OH266634   0.464   2.151  16.911 -0.4789 -0.0750 -0.3867
15048TIP3    H166635   0.500   2.065  16.935 -0.4110  0.4853  1.7478
15048TIP3    H266636   0.418   2.136  16.828  3.1933 -1.2071 -2.4439
15049TIP3   OH266637   0.427   3.818  11.020  0.2602 -0.6124  0.1838
15049TIP3    H166638   0.424   3.902  10.973 -3.2391 -1.3726 -1.2625
15049TIP3    H266639   0.404   3.753  10.953  2.9114 -2.8307  1.2534
15050TIP3   OH266640   3.168   4.969   2.119  0.0326 -0.1131  0.5260
15050TIP3    H166641   3.102   4.903   2.142  0.7882 -1.6541 -1.4758
15050TIP3    H266642   3.171   4.969   2.024  1.1726  1.7439  0.5087
15051TIP3   OH266643   0.373   0.443   0.890 -0.3661  0.0330  0.2644
15051TIP3    H166644   0.291   0.449   0.841 -0.8423 -1.3542  0.8555
15051TIP3    H266645   0.410   0.531   0.883 -0.2708 -0.1233 -2.7769
15052TIP3   OH266646   3.085   4.624   3.010  0.2534  0.2537  0.5809
15052TIP3    H166647   3.021   4.696   3.020 -0.7290 -0.1679 -1.8280
15052TIP3    H266648   3.045   4.550   3.056 -0.6909  0.2058 -0.2670
15053TIP3   OH266649   5.597   0.238  16.823 -0.5571  0.9232  0.6278
15053TIP3    H166650   5.611   0.144  16.825 -0.2924  0.9164 -0.5151
15053TIP3    H266651   5.672   0.273  16.774 -0.7387  1.7003  0.8870
15054TIP3   OH266652   4.948   2.794  13.689  0.6341 -0.5268 -0.1009
15054TIP3    H166653   5.024   2.742  13.662  0.4644 -1.4498  1.1160
15054TIP3    H266654   4.874   2.750  13.648  0.4101 -1.7444  1.5075
15055TIP3   OH266655   2.753   0.220   5.577  0.2854 -0.4778 -0.4246
15055TIP3    H166656   2.792   0.208   5.664 -1.1247  0.4020  0.3821
15055TIP3    H266657   2.662   0.190   5.588 -0.4372  1.3620 -1.0591
15056TIP3   OH266658   3.545   2.711  16.484  0.2942  0.5038 -0.4712
15056TIP3    H166659   3.454   2.727  16.511  0.2852 -1.2082  0.6299
15056TIP3    H266660   3.544   2.721  16.389 -0.9139  1.0707 -0.4183
15057TIP3   OH266661   2.183   4.252   3.159  0.2175 -0.5439 -0.9714
15057TIP3    H166662   2.111   4.235   3.097 -2.6545  0.3078  1.8227
15057TIP3    H266663   2.189   4.172   3.211 -0.7941  0.3730  0.6390
15058TIP3   OH266664   0.435   0.793   2.488  0.1016 -0.0807  0.0063
15058TIP3    H166665   0.431   0.887   2.506  1.8568 -0.2588  1.7051
15058TIP3    H266666   0.344   0.764   2.489 -0.4044  1.4251  0.4447
15059TIP3   OH266667   5.698   1.669   2.561 -0.0214 -0.0969 -0.1465
15059TIP3    H166668   5.723   1.624   2.642 -0.1236 -0.1663 -0.1529
15059TIP3    H266669   5.669   1.599   2.502 -1.5534  0.0763  0.3375
15060TIP3   OH266670   0.221   4.499   0.247 -0.5909 -0.3252  0.0001
15060TIP3    H166671   0.308   4.522   0.213 -1.3856  1.2714 -1.0734
15060TIP3    H266672   0.208   4.558   0.321 -0.6256 -0.8288  0.4030
15061TIP3   OH266673   2.709   4.009   4.358  0.3345 -0.1227  0.4103
15061TIP3    H166674   2.640   4.075   4.357  0.2173 -0.2467 -1.0866
15061TIP3    H266675   2.790   4.059   4.345  0.1669 -0.3239 -1.6394
15062TIP3   OH266676   4.812   2.250   0.262 -0.1216 -0.0968 -0.0923
15062TIP3    H166677   4.785   2.159   0.260 -1.2913  0.2259 -0.3597
15062TIP3    H266678   4.894   2.251   0.311  1.0492 -1.5649 -1.8685
15063TIP3   OH266679   5.763   6.424   1.641  0.2992 -0.5488 -0.4520
15063TIP3    H166680   5.800   6.505   1.606  2.5351 -2.0190 -1.7806
15063TIP3    H266681   5.788   6.357   1.577 -1.3656 -2.3361  0.6520
15064TIP3   OH266682   5.892   6.007  14.154  0.3682 -0.0991  0.2460
15064TIP3    H166683   5.943   5.953  14.215 -1.2305 -0.1768  1.5828
15064TIP3    H266684   5.915   6.097  14.178  0.4122 -0.1424  0.3718
15065TIP3   OH266685   0.148   3.382  13.564 -0.1657 -0.0544  0.4148
15065TIP3    H166686   0.191   3.443  13.504  1.7120 -2.6391 -1.0630
15065TIP3    H266687   0.113   3.313  13.507 -0.0512 -1.6074  2.1364
15066TIP3   OH266688   6.255   3.316   2.476 -0.9435 -0.2174  0.0586
15066TIP3    H166689   6.165   3.284   2.488 -0.6143 -0.8527  0.9991
15066TIP3    H266690   6.305   3.270   2.544  0.2018 -0.3087 -0.8280
15067TIP3   OH266691   4.162   4.713   5.489 -0.0242  0.3960 -0.1194
15067TIP3    H166692   4.149   4.621   5.510 -0.5121  0.3865 -0.4467
15067TIP3    H266693   4.125   4.760   5.564  0.0480  0.3307 -0.0423
15068TIP3   OH266694   6.378   4.593  15.579  0.0829 -0.0886  0.7601
15068TIP3    H166695   6.325   4.615  15.503  2.9372 -0.7187 -1.5919
15068TIP3    H266696   6.431   4.671  15.595  0.3251 -0.3652  1.3410
15069TIP3   OH266697   5.160   0.341   3.830  0.1766  0.4878 -0.1451
15069TIP3    H166698   5.093   0.337   3.899  0.8765 -1.3635  0.4872
15069TIP3    H266699   5.110   0.346   3.749 -0.7115  0.4465  0.3790
15070TIP3   OH266700   0.334   0.375  11.429 -0.2561 -0.4339  0.1161
15070TIP3    H166701   0.257   0.387  11.486  0.8952  0.4137  1.5888
15070TIP3    H266702   0.319   0.435  11.356 -1.5753 -1.2362 -0.3093
15071TIP3   OH266703   3.836   4.487  11.871 -0.0298 -0.1991  0.4859
15071TIP3    H166704   3.752   4.475  11.826 -0.7347  0.5579  1.5466
15071TIP3    H266705   3.864   4.398  11.892 -1.8145 -0.4093  2.2882
15072TIP3   OH266706   6.145   4.340  15.304 -0.4569 -0.0221 -0.1809
15072TIP3    H166707   6.239   4.329  15.293 -0.4055 -0.8819  0.9600
15072TIP3    H266708   6.131   4.339  15.398 -1.2894  3.1915 -0.1604
15073TIP3   OH266709   6.434   1.299   1.099  0.2557  0.0475  0.2205
15073TIP3    H166710   6.497   1.353   1.051  0.3742  1.6730  2.0902
15073TIP3    H266711   6.478   1.214   1.110 -0.3541 -0.9738 -3.6907
15074TIP3   OH266712   3.597   3.162  14.104  0.0047 -0.3184  0.5759
15074TIP3    H166713   3.630   3.164  14.194 -1.6302 -0.8433  1.2379
15074TIP3    H266714   3.534   3.235  14.100 -0.2807 -0.5882  0.0109
15075TIP3   OH266715   6.749   6.518   2.671 -0.7566  0.4410  0.1654
15075TIP3    H166716   6.684   6.573   2.627 -0.3755  0.4297 -0.4177
15075TIP3    H266717   6.806   6.487   2.601 -0.9816 -0.7305  0.4808
15076TIP3   OH266718   1.320   2.251  15.686 -0.4364 -0.2803  0.5543
15076TIP3    H166719   1.384   2.218  15.748 -0.3812 -0.6816  0.2903
15076TIP3    H266720   1.273   2.320  15.733  0.4660  0.3008  0.6082
15077TIP3   OH266721   1.757   5.988  14.093 -0.2346  0.3199  0.6096
15077TIP3    H166722   1.830   6.044  14.118 -0.5953  0.3145  1.7248
15077TIP3    H266723   1.736   6.015  14.004 -0.2300  1.7876  1.0301
15078TIP3   OH266724   5.422   0.108  15.404 -0.1133  0.4349  0.1983
15078TIP3    H166725   5.341   0.133  15.359  0.1337  0.0977 -0.4479
15078TIP3    H266726   5.426   0.013  15.395  0.6606  0.5045 -0.3155
15079TIP3   OH266727   2.088   2.032  10.789  0.8119  0.0460  0.3937
15079TIP3    H166728   2.081   2.048  10.695 -0.1938 -1.7830  0.1151
15079TIP3    H266729   2.066   2.116  10.830 -1.7119  0.1201 -0.9589
15080TIP3   OH266730   4.939   0.076   0.511  0.0910  0.0946 -0.4542
15080TIP3    H166731   4.993   0.093   0.588 -2.9958 -0.2187  1.9577
15080TIP3    H266732   4.939   0.159   0.463  2.3466  0.1944 -0.3919
15081TIP3   OH266733   0.139   6.334   5.354 -0.0014 -0.7686 -0.0744
15081TIP3    H166734   0.235   6.341   5.349 -0.0956 -0.3280 -2.3548
15081TIP3    H266735   0.118   6.253   5.308 -0.7907 -0.2068 -0.7256
15082TIP3   OH266736   5.652   4.728  12.315  0.0620  0.2303  0.1728
15082TIP3    H166737   5.656   4.800  12.252  2.1056 -0.0725 -0.1289
15082TIP3    H266738   5.699   4.760  12.392 -1.2587  0.1113  1.0688
15083TIP3   OH266739   2.824   0.956   1.892 -0.5231 -0.0837  0.2379
15083TIP3    H166740   2.871   1.004   1.961 -0.3431  1.3431 -0.8490
15083TIP3    H266741   2.800   1.022   1.828 -1.9056 -1.1778 -0.4238
15084TIP3   OH266742   5.831   3.213   4.494  0.1139 -0.0368 -0.5799
15084TIP3    H166743   5.853   3.296   4.536 -0.7701  0.0871 -0.3488
15084TIP3    H266744   5.871   3.147   4.549 -2.2680  0.0154  1.3832
15085TIP3   OH266745   1.822   3.310  14.890  0.2114 -0.0916 -0.2564
15085TIP3    H166746   1.741   3.344  14.926  1.0130 -0.6408  2.3011
15085TIP3    H266747   1.797   3.228  14.847 -1.0278  1.3856 -2.4972
15086TIP3   OH266748   0.263   3.470   4.245  0.3085  0.3398  0.2906
15086TIP3    H166749   0.213   3.551   4.252 -0.0341  0.1042  0.5858
15086TIP3    H266750   0.223   3.411   4.309  0.5530 -0.0639  0.0759
15087TIP3   OH266751   3.269   2.748  15.520 -0.1391 -0.4427 -0.3203
15087TIP3    H166752   3.332   2.816  15.544  0.2716 -0.2572 -1.8628
15087TIP3    H266753   3.196   2.761  15.580  0.2558  0.8764 -0.0938
15088TIP3   OH266754   3.212   0.009  11.310  0.1004  0.0803  0.3160
15088TIP3    H166755   3.195  -0.071  11.359  1.4231 -0.5353 -0.1693
15088TIP3    H266756   3.282  -0.015  11.249  1.2253  1.8446  0.8408
15089TIP3   OH266757   2.012   6.797  11.776 -0.2192 -0.1697  0.6587
15089TIP3    H166758   2.033   6.779  11.867  0.2376  1.8356  1.0059
15089TIP3    H266759   2.096   6.818  11.735 -0.5136 -0.3073 -0.0396
15090TIP3   OH266760   2.008   1.317   2.108  0.6520  0.2541  0.1253
15090TIP3    H166761   2.079   1.298   2.169  0.8231  0.6435  0.0462
15090TIP3    H266762   1.929   1.294   2.156  0.7622  0.9549  0.6459
15091TIP3   OH266763   4.753   1.177  13.720  0.0570 -0.2105 -0.1644
15091TIP3    H166764   4.671   1.163  13.672  1.0522 -0.6933 -1.7917
15091TIP3    H266765   4.727   1.178  13.812 -1.8631  0.2973 -0.6723
15092TIP3   OH266766   1.867   3.851   0.945  0.0484 -0.0502 -0.1336
15092TIP3    H166767   1.855   3.756   0.937  0.8722 -0.2809  1.1094
15092TIP3    H266768   1.930   3.873   0.876  0.1247 -0.4547 -0.1956
15093TIP3   OH266769   2.950   6.725   5.116 -0.4658  0.0305 -0.1902
15093TIP3    H166770   2.854   6.729   5.119 -0.4733 -0.4715  0.8900
15093TIP3    H266771   2.974   6.679   5.197  0.6916  0.2294 -0.4070
15094TIP3   OH266772   4.495   5.798  14.627 -0.0672  0.3817  0.6629
15094TIP3    H166773   4.457   5.860  14.690 -1.4843  1.3500 -1.0469
15094TIP3    H266774   4.582   5.835  14.607  0.1853  0.3431  1.6331
15095TIP3   OH266775   3.806   6.771  16.316  0.0455  0.2659 -0.5804
15095TIP3    H166776   3.861   6.787  16.239  0.1882 -1.4126 -0.8840
15095TIP3    H266777   3.742   6.706  16.285 -0.4692  0.2569  0.4710
15096TIP3   OH266778   5.637   5.891  13.551 -0.6419 -0.6552 -0.6213
15096TIP3    H166779   5.650   5.986  13.553  2.4975 -0.9582  2.0653
15096TIP3    H266780   5.569   5.875  13.616  0.5499 -0.3479  0.7433
15097TIP3   OH266781   5.790   3.865  10.670 -0.5169  0.2869  0.7162
15097TIP3    H166782   5.797   3.776  10.636  0.0240  1.0864 -1.4195
15097TIP3    H266783   5.718   3.905  10.622  1.1265  1.8747 -0.5864
15098TIP3   OH266784   3.913   4.585   1.503 -0.0063  0.3633  0.0104
15098TIP3    H166785   3.852   4.532   1.452 -0.8582  1.1852  0.1299
15098TIP3    H266786   3.942   4.528   1.574 -0.4908 -0.1018 -0.1579
15099TIP3   OH266787   6.309   1.689  13.139  0.1887 -0.1606  0.2161
15099TIP3    H166788   6.321   1.595  13.121 -0.5884 -0.1156 -0.5759
15099TIP3    H266789   6.397   1.726  13.130  0.3402 -0.6573 -0.3976
15100TIP3   OH266790   3.719   1.244  15.680 -0.0283 -0.2972  0.1015
15100TIP3    H166791   3.813   1.224  15.679  0.0017 -0.3805  1.9741
15100TIP3    H266792   3.697   1.251  15.772 -1.3856  2.1500 -0.3385
15101TIP3   OH266793   1.782   5.397  15.834  0.2321 -0.0822 -0.1962
15101TIP3    H166794   1.695   5.358  15.828  0.5293 -0.7390 -0.3369
15101TIP3    H266795   1.795   5.441  15.750 -0.3732  0.9106  0.2139
15102TIP3   OH266796   4.759   4.674  14.484 -0.2933 -0.2053 -0.7465
15102TIP3    H166797   4.846   4.680  14.524 -0.1575 -0.8458 -0.9349
15102TIP3    H266798   4.776   4.653  14.392 -0.6166  0.9262 -1.0733
15103TIP3   OH266799   4.199   2.246  15.159 -0.1220 -0.5840  0.0439
15103TIP3    H166800   4.262   2.187  15.199  0.6817 -1.1207 -1.8904
15103TIP3    H266801   4.244   2.331  15.158 -0.3376 -0.4543  0.6674
15104TIP3   OH266802   6.081   5.903  11.577 -0.3286  0.4004  0.5311
15104TIP3    H166803   6.090   5.948  11.494  1.1522 -1.0254 -0.1398
15104TIP3    H266804   6.146   5.943  11.635 -0.9678  1.0081  0.8420
15105TIP3   OH266805   1.046   4.940  15.808 -0.3469  0.0713  0.3582
15105TIP3    H166806   1.004   4.965  15.890 -0.2440  1.3534  0.0368
15105TIP3    H266807   1.138   4.966  15.819  0.6035 -3.2508  1.2999
15106TIP3   OH266808   0.955   6.021  14.528  0.6483  0.4390  0.0681
15106TIP3    H166809   1.001   5.949  14.572 -2.9402 -2.0717  0.1636
15106TIP3    H266810   0.927   5.985  14.444 -1.8312  1.3547  0.3859
15107TIP3   OH266811   0.463   2.556   2.683 -0.5589 -0.1657  0.0982
15107TIP3    H166812   0.469   2.651   2.673 -3.2409  0.2300  1.3991
15107TIP3    H266813   0.383   2.532   2.636  0.0152 -1.7926 -0.1144
15108TIP3   OH266814   5.427   3.744   4.728  0.4645 -0.4917 -0.2877
15108TIP3    H166815   5.392   3.741   4.639 -1.2561 -0.3036  0.3373
15108TIP3    H266816   5.378   3.676   4.775  1.7687 -0.9917  0.3972
15109TIP3   OH266817   6.678   5.418   0.968  0.2382 -0.4504 -0.0910
15109TIP3    H166818   6.658   5.338   1.016  0.0989  0.4416  1.4212
15109TIP3    H266819   6.620   5.416   0.892 -0.6372 -1.1828  0.5817
15110TIP3   OH266820   6.508   1.019  13.389  0.2379 -0.7990  0.1676
15110TIP3    H166821   6.597   0.986  13.383  0.5683 -0.2422  1.6829
15110TIP3    H266822   6.456   0.961  13.333  1.6068 -0.8728 -1.0654
15111TIP3   OH266823   2.405   6.343   0.631 -0.0322 -0.1839 -0.0963
15111TIP3    H166824   2.411   6.267   0.689 -2.0743 -1.2495 -1.1634
15111TIP3    H266825   2.482   6.338   0.575  0.7541 -0.4377  0.9683
15112TIP3   OH266826   2.229   6.660  12.406  0.6630  0.4030  0.7599
15112TIP3    H166827   2.302   6.603  12.383  1.5013  1.4968  0.6362
15112TIP3    H266828   2.181   6.671  12.324  0.3010 -0.3730  0.8568
15113TIP3   OH266829   2.794   2.323   2.164  0.2131 -0.1307  0.3221
15113TIP3    H166830   2.848   2.396   2.132 -1.5824  0.7642 -0.8470
15113TIP3    H266831   2.840   2.292   2.242  2.0552  0.9897 -0.2505
15114TIP3   OH266832   0.055   0.579   2.174 -0.0980 -0.0238 -0.1390
15114TIP3    H166833   0.122   0.529   2.128 -0.4366 -0.5243 -0.0888
15114TIP3    H266834   0.043   0.534   2.257 -1.8374 -1.0672 -0.9042
15115TIP3   OH266835   6.035   4.327  12.741  0.4703 -0.2890  0.2667
15115TIP3    H166836   6.100   4.265  12.773  1.2046 -1.1946 -2.6285
15115TIP3    H266837   6.086   4.401  12.709 -0.0361 -0.1657 -0.2981
15116TIP3   OH266838   3.837   6.740  16.798  0.0564 -0.1649  0.2736
15116TIP3    H166839   3.770   6.771  16.859  1.3786  0.0830  1.6795
15116TIP3    H266840   3.904   6.808  16.801  0.2549 -0.2677 -1.3202
15117TIP3   OH266841   4.340   2.568   5.958  0.6409 -0.0524 -1.0016
15117TIP3    H166842   4.396   2.645   5.949 -0.3123  1.3274  2.8525
15117TIP3    H266843   4.399   2.498   5.983  0.9858  1.1519  2.0155
15118TIP3   OH266844   5.346   1.649  11.869  0.1760 -0.2183 -0.2353
15118TIP3    H166845   5.277   1.710  11.844 -0.0585 -0.9553 -1.4619
15118TIP3    H266846   5.361   1.667  11.962  0.6145  2.1736 -0.6888
15119TIP3   OH266847   4.032   2.972  13.470 -0.2725 -0.0232 -0.8779
15119TIP3    H166848   4.013   3.031  13.543  1.1532  0.7057 -1.0663
15119TIP3    H266849   4.042   3.030  13.394 -0.4481 -0.6521 -1.3875
15120TIP3   OH266850   2.463   6.611   0.737  0.0579  0.0241  0.4262
15120TIP3    H166851   2.433   6.524   0.710 -0.0891  0.6194 -1.4854
15120TIP3    H266852   2.473   6.660   0.655  1.0397  1.5335  1.3868
15121TIP3   OH266853   3.510   1.299  15.172 -0.1244  0.4661 -0.4378
15121TIP3    H166854   3.588   1.250  15.195  0.7986  0.6796 -2.7830
15121TIP3    H266855   3.523   1.386  15.211 -0.5293 -0.2942  1.4844
15122TIP3   OH266856   4.613   5.854   3.626  0.2668 -0.9681 -0.1588
15122TIP3    H166857   4.636   5.946   3.616 -1.5793 -0.4142  0.1337
15122TIP3    H266858   4.582   5.847   3.717 -2.1459 -1.1845 -0.9068
15123TIP3   OH266859   5.638   0.109   3.876  0.1583 -0.7937  0.4160
15123TIP3    H166860   5.598   0.106   3.963 -0.2002  0.1735  0.2905
15123TIP3    H266861   5.567   0.131   3.817  0.6535 -0.1224  0.0534
15124TIP3   OH266862   0.005   4.830  12.724 -0.0640  0.2505  0.2979
15124TIP3    H166863  -0.079   4.786  12.715  0.6887 -0.9808 -1.2749
15124TIP3    H266864  -0.001   4.877  12.807 -1.9357 -0.5678  0.6802
15125TIP3   OH266865   1.362   6.329  15.867 -0.4127 -0.6177  0.9944
15125TIP3    H166866   1.419   6.309  15.792 -1.3865 -0.8101  0.2890
15125TIP3    H266867   1.392   6.269  15.936 -2.0120 -3.2967 -0.4814
15126TIP3   OH266868   2.503   5.222   5.061  0.2473 -0.1195  0.2313
15126TIP3    H166869   2.457   5.289   5.112 -0.3533 -1.1631  1.1157
15126TIP3    H266870   2.499   5.144   5.116 -2.4450 -1.9981 -2.3307
15127TIP3   OH266871   1.225   4.768  14.656  1.2267 -0.1693 -0.2798
15127TIP3    H166872   1.157   4.830  14.626  1.0248  0.3972  1.2716
15127TIP3    H266873   1.177   4.687  14.672  0.6887  0.5000  1.7404
15128TIP3   OH266874   6.646   0.534  15.629 -0.7331 -0.4524 -0.4441
15128TIP3    H166875   6.623   0.489  15.548  0.4605 -1.5633 -0.1833
15128TIP3    H266876   6.742   0.530  15.633 -0.5818  1.9150 -0.2918
15129TIP3   OH266877   5.421   5.495  16.011 -0.7115  0.3394  0.0870
15129TIP3    H166878   5.473   5.515  15.933 -0.2525 -0.5759  0.1527
15129TIP3    H266879   5.331   5.497  15.981 -0.6090  1.1354 -0.2062
15130TIP3   OH266880   6.636   3.931  13.403 -0.0677 -0.1767 -0.1698
15130TIP3    H166881   6.581   4.001  13.368 -0.2275  0.1485  0.7156
15130TIP3    H266882   6.687   3.973  13.472 -0.9332 -1.1586  1.1102
15131TIP3   OH266883   2.415   6.348   5.972 -0.1482  0.2561  0.0199
15131TIP3    H166884   2.459   6.412   6.028 -0.7817  0.1573  0.6399
15131TIP3    H266885   2.332   6.331   6.015 -1.6480  1.8097 -2.0378
15132TIP3   OH266886   6.732   5.021  12.519  0.3354 -0.4947 -0.2446
15132TIP3    H166887   6.643   4.985  12.522 -0.0213  0.3802 -0.1585
15132TIP3    H266888   6.779   4.976  12.589  0.2118 -1.6018 -0.8474
15133TIP3   OH266889   1.957   4.453  12.823 -0.5748  0.3757  0.0846
15133TIP3    H166890   1.909   4.504  12.757 -1.7052  0.3276  0.8500
15133TIP3    H266891   2.031   4.415  12.775 -1.4807  0.1906 -1.2076
15134TIP3   OH266892   0.973   0.521  12.602  0.2615  0.6557  0.4095
15134TIP3    H166893   0.921   0.487  12.529 -0.0485  1.4390  0.2560
15134TIP3    H266894   1.027   0.447  12.630 -0.9371 -0.1874  0.5700
15135TIP3   OH266895   3.021   0.769   5.966 -0.2334  0.6884  0.2138
15135TIP3    H166896   2.993   0.847   5.918  1.3812  0.9589 -0.3626
15135TIP3    H266897   2.958   0.702   5.942  0.6109  0.7487 -2.5525
15136TIP3   OH266898   1.666   1.650   1.745 -0.2857 -0.2021  0.6723
15136TIP3    H166899   1.722   1.625   1.671  2.0108  2.1399  1.4370
15136TIP3    H266900   1.703   1.604   1.820  0.7504  1.3939  1.1905
15137TIP3   OH266901   4.750   1.467  12.193  0.1315  0.1675  0.0622
15137TIP3    H166902   4.705   1.529  12.250 -1.1809  0.7144 -1.4753
15137TIP3    H266903   4.829   1.514  12.164  0.8221 -0.1279  1.3862
15138TIP3   OH266904   0.041   4.417  15.196  0.1145  0.2724  0.0632
15138TIP3    H166905   0.136   4.424  15.196  0.1611  0.0606  1.9677
15138TIP3    H266906   0.020   4.356  15.267 -1.4496  0.3186 -0.3022
15139TIP3   OH266907   5.216   1.492   2.335  0.7413 -0.2299  0.1747
15139TIP3    H166908   5.139   1.472   2.281  0.5716 -0.3320  0.4477
15139TIP3    H266909   5.247   1.577   2.304  0.0887  0.1482  0.5395
15140TIP3   OH266910   2.065   6.356  13.991  0.6170  0.2673 -0.0533
15140TIP3    H166911   2.012   6.313  14.058 -0.3914 -2.0688 -2.1901
15140TIP3    H266912   2.151   6.314  13.999  0.8921  0.9255  0.5714
15141TIP3   OH266913   0.259   1.352  13.932 -0.2952  0.0452 -0.3740
15141TIP3    H166914   0.314   1.402  13.870 -1.0955 -1.2197 -2.2023
15141TIP3    H266915   0.169   1.369  13.902 -0.6911 -0.7226  0.3654
15142TIP3   OH266916   4.549   2.341  12.194 -0.1462 -0.4058  0.6415
15142TIP3    H166917   4.589   2.427  12.207 -0.8732  0.0301  0.0398
15142TIP3    H266918   4.476   2.339  12.256 -0.6758 -0.2278  0.0300
15143TIP3   OH266919   3.253   2.903  14.389 -0.1890  0.8035 -1.0081
15143TIP3    H166920   3.179   2.913  14.330 -1.2520 -0.6362  0.0084
15143TIP3    H266921   3.319   2.857  14.338  0.2668  2.5592 -2.0853
15144TIP3   OH266922   6.091   0.837  12.432 -0.1287  0.8218  0.3783
15144TIP3    H166923   6.114   0.927  12.409  0.2949  0.4146 -0.8424
15144TIP3    H266924   5.997   0.840  12.449 -0.2544  1.3543 -0.3724
15145TIP3   OH266925   4.745   1.978   5.036 -0.7049  0.0365  0.3333
15145TIP3    H166926   4.721   1.963   5.127  2.1147  0.2301  1.1876
15145TIP3    H266927   4.840   1.975   5.035 -0.6619 -1.0688 -2.8363
15146TIP3   OH266928   5.722   1.420   4.960  0.0685 -0.5109  0.0029
15146TIP3    H166929   5.766   1.395   5.042 -2.5289  2.0582  2.4261
15146TIP3    H266930   5.751   1.509   4.944 -0.1309 -0.6857 -1.3997
15147TIP3   OH266931   1.479   5.915   5.561 -0.2538 -0.2836 -0.1795
15147TIP3    H166932   1.466   5.951   5.649 -0.5079 -2.1041  0.5806
15147TIP3    H266933   1.572   5.893   5.558 -0.0304  0.7018 -0.7573
15148TIP3   OH266934   3.313   2.304  13.314 -0.2175 -0.1345 -0.0216
15148TIP3    H166935   3.391   2.351  13.281 -0.8433 -0.1171 -1.5767
15148TIP3    H266936   3.278   2.362  13.382  0.7561  0.1652  0.2513
15149TIP3   OH266937   5.116   5.653   0.244 -0.2628 -0.1796  0.2621
15149TIP3    H166938   5.129   5.615   0.331 -0.0408 -0.1160  0.2562
15149TIP3    H266939   5.035   5.613   0.213 -1.4129  1.2558  1.2872
15150TIP3   OH266940   1.012   2.477  14.176  0.1111  0.0865 -0.5940
15150TIP3    H166941   0.999   2.446  14.266  1.6944  1.4343  0.1509
15150TIP3    H266942   0.952   2.551  14.167 -1.5481 -1.2879 -1.3925
15151TIP3   OH266943   6.690   2.992  12.612  0.0476 -0.9734 -0.2981
15151TIP3    H166944   6.737   2.936  12.674 -1.3046  0.0280  1.7385
15151TIP3    H266945   6.718   3.081  12.634 -1.1873 -0.5275 -0.4492
15152TIP3   OH266946   3.795   5.201   3.695 -0.4415  0.0683 -0.3494
15152TIP3    H166947   3.718   5.144   3.696 -0.4630  0.0894  0.6944
15152TIP3    H266948   3.819   5.209   3.787 -1.1271  2.7142 -0.3417
15153TIP3   OH266949   4.092   3.656  12.768  0.1247  0.0404 -0.1994
15153TIP3    H166950   4.079   3.745  12.800 -1.3506 -0.3071  0.2344
15153TIP3    H266951   4.041   3.652  12.687  1.0084 -0.1280 -0.7663
15154TIP3   OH266952   6.354   5.933   0.276  0.1472  0.1458  0.1643
15154TIP3    H166953   6.372   5.868   0.208 -0.9107  1.4962 -1.4804
15154TIP3    H266954   6.426   5.996   0.269 -0.0705  0.3955  0.1371
15155TIP3   OH266955   6.263   5.926  17.095  0.1012 -0.2461  0.0142
15155TIP3    H166956   6.202   5.944  17.023 -0.3400 -0.9675  0.1963
15155TIP3    H266957   6.249   5.999  17.156  3.2006  2.5639 -2.2730
15156TIP3   OH266958   6.747   5.527  14.576 -0.1367 -0.3730  1.0752
15156TIP3    H166959   6.821   5.577  14.541 -1.5536  1.1429  0.1406
15156TIP3    H266960   6.735   5.560  14.665  0.3951 -0.7569  1.2990
15157TIP3   OH266961   4.938   2.420   3.501  0.0954  0.6983 -0.1162
15157TIP3    H166962   4.977   2.502   3.531  0.3861  0.3635  0.4373
15157TIP3    H266963   4.974   2.354   3.560  0.1767  0.1132 -0.8111
15158TIP3   OH266964   5.879   0.847   1.268 -0.1341 -0.4218 -0.1644
15158TIP3    H166965   5.852   0.834   1.359 -1.1632 -0.2031 -0.4286
15158TIP3    H266966   5.878   0.760   1.230 -1.2834 -0.3150 -0.3879
15159TIP3   OH266967   0.213   5.190  15.388  0.1862 -0.5140 -0.0493
15159TIP3    H166968   0.271   5.213  15.461 -0.1956  0.0434  0.0869
15159TIP3    H266969   0.271   5.187  15.312  0.2093  1.2788 -0.1345
15160TIP3   OH266970   2.004   6.498   0.259  0.5532 -0.4678  0.2255
15160TIP3    H166971   2.045   6.547   0.330 -1.0501  0.1245  0.7761
15160TIP3    H266972   1.961   6.424   0.301 -2.0885  0.9452  0.2263
15161TIP3   OH266973   6.618   6.676   2.451  0.3995 -0.0580 -0.1738
15161TIP3    H166974   6.578   6.595   2.418  1.0701 -0.1894 -0.6733
15161TIP3    H266975   6.543   6.734   2.469 -0.1186 -0.9348  0.6170
15162TIP3   OH266976   6.424   5.399  13.476  0.8526  0.0254  0.1945
15162TIP3    H166977   6.509   5.439  13.492  1.1147  0.8237 -2.6057
15162TIP3    H266978   6.380   5.460  13.416 -1.4824 -0.6522  1.0866
15163TIP3   OH266979   5.913   1.570   0.777  0.4676 -0.0945 -0.1328
15163TIP3    H166980   5.992   1.529   0.811  0.3194  0.0309  0.3734
15163TIP3    H266981   5.918   1.661   0.805  0.8791  0.2957 -1.4081
15164TIP3   OH266982   0.619   2.204   3.461  0.2175 -0.7164  0.2881
15164TIP3    H166983   0.631   2.118   3.501  2.0152 -1.5425 -1.8200
15164TIP3    H266984   0.691   2.257   3.496  1.9255 -1.5041 -1.8266
15165TIP3   OH266985   2.351   6.329   2.093  0.0309 -0.1043  0.5276
15165TIP3    H166986   2.341   6.264   2.024 -0.3531  0.9283 -0.4137
15165TIP3    H266987   2.275   6.316   2.150 -0.2755 -0.2066  0.1025
15166TIP3   OH266988   3.117   1.770   1.707  0.2326  0.2170  0.6287
15166TIP3    H166989   3.100   1.824   1.630 -1.2765  0.0081  0.7809
15166TIP3    H266990   3.077   1.685   1.686  2.3899 -0.8145  0.4746
15167TIP3   OH266991   2.658   6.180   3.417  0.6392  0.4855  0.4244
15167TIP3    H166992   2.582   6.139   3.376 -0.2377  2.7236 -0.3148
15167TIP3    H266993   2.733   6.134   3.379 -0.1976  1.2175 -2.3709
15168TIP3   OH266994   0.763   5.059   3.443 -0.3584 -0.2330 -0.7843
15168TIP3    H166995   0.856   5.075   3.458 -0.1714 -0.5868 -1.4992
15168TIP3    H266996   0.760   4.972   3.403 -0.8011  0.5750 -2.6274
15169TIP3   OH266997   3.293   5.115  15.986 -0.4931 -0.1965  0.0505
15169TIP3    H166998   3.334   5.039  15.945  1.8068 -0.4169  2.4341
15169TIP3    H266999   3.199   5.097  15.981 -0.1104 -2.1947 -1.2641
15170TIP3   OH267000   6.754   6.422   5.478 -0.1045 -0.3551  0.0030
15170TIP3    H167001   6.675   6.368   5.476  0.1042 -0.6591 -0.2600
15170TIP3    H267002   6.814   6.378   5.417  1.2907 -1.7433  2.2318
15171TIP3   OH267003   2.750   3.882   2.038  0.6515 -0.0741 -0.3439
15171TIP3    H167004   2.701   3.896   1.957  1.7496  0.0680 -1.0087
15171TIP3    H267005   2.687   3.898   2.108  0.1933  1.8464 -1.1428
15172TIP3   OH267006   3.765   2.097   3.273  0.4386 -0.1266 -0.0493
15172TIP3    H167007   3.719   2.121   3.193  2.1141  0.2247 -0.9593
15172TIP3    H267008   3.797   2.009   3.257  1.4785  0.2479 -0.1237
15173TIP3   OH267009   5.308   3.082   1.704  0.9130  0.6020 -0.1602
15173TIP3    H167010   5.315   3.061   1.611 -2.2895  0.9559 -0.5914
15173TIP3    H267011   5.269   3.169   1.707  0.8717  0.5655  1.5385
15174TIP3   OH267012   2.910   4.781  15.951  0.6937 -0.4658 -0.6685
15174TIP3    H167013   2.958   4.732  16.017 -0.0272 -0.0274  0.2037
15174TIP3    H267014   2.848   4.834  16.001 -1.1424 -1.4701 -1.7634
15175TIP3   OH267015   4.893   2.246   3.291  0.0076 -0.2974  0.1385
15175TIP3    H167016   4.909   2.304   3.365 -0.5601 -1.5258  1.2711
15175TIP3    H267017   4.978   2.204   3.275  0.0750 -0.2003  0.2392
15176TIP3   OH267018   4.353   2.047  15.238  0.5620  0.2186  0.3910
15176TIP3    H167019   4.434   2.035  15.188  0.8023  0.0401  0.8124
15176TIP3    H267020   4.292   1.983  15.201  0.0966  1.4109 -0.9824
15177TIP3   OH267021   4.172   5.287   0.562  0.1431  0.3965 -0.6465
15177TIP3    H167022   4.092   5.234   0.559  1.5519 -1.8365 -1.4425
15177TIP3    H267023   4.142   5.375   0.583 -2.4241 -0.5362 -0.0730
15178TIP3   OH267024   3.988   0.349  14.948 -0.1264  0.6633  0.0782
15178TIP3    H167025   3.963   0.398  14.870  0.7642 -0.5493 -1.0054
15178TIP3    H267026   4.063   0.297  14.921  0.3606  0.3910  1.8219
15179TIP3   OH267027   2.744   3.059  17.066  0.2413 -0.2148  0.2445
15179TIP3    H167028   2.757   3.051  16.971  1.5578 -0.1034  0.4082
15179TIP3    H267029   2.770   3.148  17.087 -0.9451  0.0669  0.5847
15180TIP3   OH267030   3.092   3.318   1.708 -0.2819 -0.2591  0.0582
15180TIP3    H167031   3.156   3.353   1.770 -1.5522  1.2834  0.5632
15180TIP3    H267032   3.141   3.311   1.626  0.6585  0.4782  0.5355
15181TIP3   OH267033   3.496   0.403   2.818 -0.2432  0.0540  0.3200
15181TIP3    H167034   3.584   0.417   2.785  0.0951 -1.8214  0.3294
15181TIP3    H267035   3.448   0.368   2.742 -0.9429  0.8532  0.3739
15182TIP3   OH267036   6.697   2.910  13.455  0.3523  0.3758 -0.3874
15182TIP3    H167037   6.686   2.933  13.547 -0.6488 -1.3255 -0.0322
15182TIP3    H267038   6.696   2.814  13.454  1.0208  0.3421 -2.1057
15183TIP3   OH267039   5.814   1.558   3.072 -0.4444 -0.8705  0.1390
15183TIP3    H167040   5.828   1.577   2.979  0.3914  1.7016  0.7056
15183TIP3    H267041   5.898   1.574   3.114 -1.8912  3.6394  2.0198
15184TIP3   OH267042   5.535   1.146   3.880  0.0560 -0.2830  0.1677
15184TIP3    H167043   5.481   1.195   3.942  1.2579  2.1017 -0.5758
15184TIP3    H267044   5.520   1.188   3.795  2.7299  0.2807 -0.1353
15185TIP3   OH267045   0.627   0.094   2.993 -0.3649  0.4396 -0.3074
15185TIP3    H167046   0.600   0.176   3.035 -1.0268 -0.4572  1.0950
15185TIP3    H267047   0.577   0.027   3.038 -0.6398 -0.6639 -2.1655
15186TIP3   OH267048   5.887   6.659   1.546  0.0005 -0.2117  0.1797
15186TIP3    H167049   5.923   6.711   1.617  0.2560 -1.6105  1.1159
15186TIP3    H267050   5.816   6.713   1.509 -2.1720 -0.5884  3.4134
15187TIP3   OH267051   6.477   1.525   3.912 -0.1523  0.2057  0.2683
15187TIP3    H167052   6.478   1.611   3.871 -0.2482  1.7902  3.3586
15187TIP3    H267053   6.570   1.502   3.921 -0.1290 -0.2266 -0.8261
15188TIP3   OH267054   1.532   4.389   2.082 -0.2062  0.1995 -0.5955
15188TIP3    H167055   1.584   4.446   2.024  0.9003 -0.6417 -0.4623
15188TIP3    H267056   1.460   4.358   2.027 -1.2568  2.2489 -0.4834
15189TIP3   OH267057   4.178   5.447  14.509 -0.5982  0.2326 -0.3337
15189TIP3    H167058   4.203   5.538  14.496 -1.2793  0.4335 -0.2666
15189TIP3    H267059   4.101   5.451  14.566 -0.3066 -0.4107  0.1138
15190TIP3   OH267060   0.323   1.471   5.979 -0.8134 -0.3875 -0.1542
15190TIP3    H167061   0.317   1.377   5.962  0.4421 -0.4710 -0.2318
15190TIP3    H267062   0.294   1.481   6.069 -1.2502 -0.8111 -0.2434
15191TIP3   OH267063   2.660   0.008  14.534 -0.5431  0.1745 -0.4530
15191TIP3    H167064   2.612  -0.053  14.478  0.3084  0.4878 -1.5505
15191TIP3    H267065   2.665   0.089  14.483  1.0273  0.1984 -0.3034
15192TIP3   OH267066   6.042   0.242  10.923  0.3154  0.4791 -0.2437
15192TIP3    H167067   6.014   0.188  10.849  1.0998  2.6438 -2.2554
15192TIP3    H267068   5.974   0.230  10.989  0.4701 -2.9050 -0.5463
15193TIP3   OH267069   2.334   4.378  11.514  0.3121 -0.1107 -0.4429
15193TIP3    H167070   2.336   4.313  11.444 -0.2988 -0.2672 -0.3194
15193TIP3    H267071   2.427   4.397  11.532  0.4699  0.3583 -1.6725
15194TIP3   OH267072   4.337   4.237  15.992 -0.3323  0.1190 -0.2566
15194TIP3    H167073   4.384   4.319  15.980 -2.8561  1.5804 -1.0352
15194TIP3    H267074   4.333   4.198  15.905 -0.0380 -0.2922 -0.0860
15195TIP3   OH267075   4.183   3.548  14.926  0.3900 -0.5388 -0.4036
15195TIP3    H167076   4.100   3.588  14.900  0.2425 -0.2126  0.5280
15195TIP3    H267077   4.249   3.612  14.898  0.1444  0.4987  1.2258
15196TIP3   OH267078   5.142   6.572  17.046 -0.5795  0.2673 -0.1090
15196TIP3    H167079   5.193   6.590  16.967 -0.6518 -0.6706 -0.3844
15196TIP3    H267080   5.152   6.650  17.100 -1.1341  1.2539 -1.3703
15197TIP3   OH267081   6.232   1.902   3.011  0.2238  0.0086 -0.1101
15197TIP3    H167082   6.300   1.902   2.943  1.2862  1.4345  0.8892
15197TIP3    H267083   6.203   1.993   3.015 -0.7184 -0.3086  0.4963
15198TIP3   OH267084   1.757   4.887  12.534 -0.3560 -0.7267  0.2148
15198TIP3    H167085   1.701   4.906  12.459  1.9444  1.5339 -1.0970
15198TIP3    H267086   1.818   4.820  12.502  0.1770 -0.2841  0.2965
15199TIP3   OH267087   6.672   4.259   6.321 -0.1744 -0.4667 -0.2737
15199TIP3    H167088   6.729   4.220   6.387 -1.3233  0.6993  1.4917
15199TIP3    H267089   6.731   4.291   6.253  1.0642 -1.4128  0.3244
15200TIP3   OH267090   5.023   5.462  12.713  0.4801  0.4522  0.2800
15200TIP3    H167091   4.960   5.513  12.662 -0.6529 -0.5783  0.6033
15200TIP3    H267092   5.069   5.409  12.647 -0.7446 -0.6268  0.2569
15201TIP3   OH267093   5.248   5.839   5.080 -0.8193  0.4514  0.1954
15201TIP3    H167094   5.293   5.821   5.162  0.5165  1.3203 -0.3115
15201TIP3    H267095   5.315   5.828   5.013 -1.6680  0.6280 -0.7081
15202TIP3   OH267096   5.879   2.595  12.279 -0.1569 -0.8805 -0.1123
15202TIP3    H167097   5.828   2.567  12.203  1.5907  0.1501 -1.7542
15202TIP3    H267098   5.866   2.689  12.284  1.8858 -0.4989 -0.8928
15203TIP3   OH267099   4.179   4.172  15.410 -0.2298 -0.8453 -0.1374
15203TIP3    H167100   4.243   4.102  15.403 -0.4892 -1.1359  0.3297
15203TIP3    H267101   4.230   4.252  15.400  0.2327 -1.0684  0.4117
15204TIP3   OH267102   3.936   2.567   3.647  0.0099 -0.1718 -0.4192
15204TIP3    H167103   3.967   2.517   3.571 -0.1139 -0.4333 -0.2997
15204TIP3    H267104   3.883   2.504   3.696  0.9084 -0.2952  0.4197
15205TIP3   OH267105   0.254   5.239  11.768 -0.1385  0.0512  0.5796
15205TIP3    H167106   0.176   5.236  11.712  1.1743  2.0349 -1.5859
15205TIP3    H267107   0.314   5.297  11.720  2.3223 -0.6984  2.5873
15206TIP3   OH267108   5.549   2.281   1.482  0.1218 -0.5253 -0.0989
15206TIP3    H167109   5.580   2.365   1.517  1.2325 -0.8984 -0.1662
15206TIP3    H267110   5.556   2.291   1.387 -2.6886  0.4066 -0.3098
15207TIP3   OH267111   5.061   3.146  17.037 -0.3040  0.3168  0.1952
15207TIP3    H167112   4.966   3.160  17.040 -0.7929 -2.5420  2.6522
15207TIP3    H267113   5.099   3.232  17.057 -2.2987  1.5403 -0.8919
15208TIP3   OH267114   4.083   5.626   6.534 -0.1747  0.0834  0.3659
15208TIP3    H167115   4.029   5.559   6.576 -1.2893  0.9642  0.3823
15208TIP3    H267116   4.134   5.578   6.469  0.1943 -1.0080  1.4242
15209TIP3   OH267117   4.292   2.096  15.511 -0.0576  0.0777 -0.4480
15209TIP3    H167118   4.252   2.022  15.556  2.5651 -0.6697  0.8461
15209TIP3    H267119   4.308   2.064  15.422  0.0294 -0.5411 -0.2165
15210TIP3   OH267120   1.463   3.072   5.847 -0.1730  0.4240 -0.0270
15210TIP3    H167121   1.417   3.084   5.765  0.8975 -0.3413 -0.7666
15210TIP3    H267122   1.555   3.086   5.825  0.0786  0.8019  1.1688
15211TIP3   OH267123   0.979   3.780   4.171  0.2640 -0.2863 -0.4886
15211TIP3    H167124   1.004   3.871   4.184  0.4845 -0.5291  0.9314
15211TIP3    H267125   0.890   3.774   4.207  1.1247 -1.1226  1.6774
15212TIP3   OH267126   1.779   2.734  11.141  0.3970 -0.1174  0.0375
15212TIP3    H167127   1.773   2.642  11.168 -0.3604 -0.0049  0.2753
15212TIP3    H267128   1.840   2.773  11.203  0.8485 -0.4889 -0.1605
15213TIP3   OH267129   1.262   3.949  12.030 -0.2182  0.1984  0.0517
15213TIP3    H167130   1.225   4.035  12.051  0.0414  0.5388 -0.8491
15213TIP3    H267131   1.214   3.888  12.086  0.6267  1.0832  1.8363
15214TIP3   OH267132   4.034   2.407   1.122  0.0131 -0.2002 -0.5557
15214TIP3    H167133   4.060   2.497   1.104  1.7071 -0.4008  0.5508
15214TIP3    H267134   4.104   2.373   1.179 -1.2506 -1.8009  0.1353
15215TIP3   OH267135   2.753   5.863   3.541 -0.3564 -0.1709 -0.0023
15215TIP3    H167136   2.820   5.916   3.585  0.6251 -1.6423  0.3507
15215TIP3    H267137   2.674   5.875   3.593 -0.4675  1.7489 -0.5269
15216TIP3   OH267138   3.787   4.213   3.551  0.0209  0.4538  0.6215
15216TIP3    H167139   3.809   4.304   3.530  1.2779 -0.1676 -0.9914
15216TIP3    H267140   3.696   4.203   3.524  0.9480  0.2761 -2.9885
15217TIP3   OH267141   3.367   5.058   2.463  0.2653  0.1383  0.3993
15217TIP3    H167142   3.378   5.144   2.504  1.6101  0.7288 -1.0704
15217TIP3    H267143   3.275   5.037   2.476 -0.3274  2.2249  0.0577
15218TIP3   OH267144   3.337   2.864   1.861  0.4004  0.3092 -0.2222
15218TIP3    H167145   3.394   2.795   1.826  0.5080  0.0029  0.5395
15218TIP3    H267146   3.388   2.905   1.931 -0.7645 -0.8192  1.3656
15219TIP3   OH267147   3.643   3.644  16.462 -0.0628 -0.4462  0.3774
15219TIP3    H167148   3.690   3.562  16.446  0.7277 -0.0896  0.8241
15219TIP3    H267149   3.624   3.644  16.556  1.6758  0.7575  0.7726
15220TIP3   OH267150   0.263   5.330   2.000 -0.3618  0.4482 -0.2979
15220TIP3    H167151   0.319   5.258   2.028 -0.8269 -0.0327 -0.5833
15220TIP3    H267152   0.176   5.291   1.991 -0.7610  1.2016  0.2120
15221TIP3   OH267153   6.137   1.604  16.384  0.3922  0.3910 -0.0167
15221TIP3    H167154   6.050   1.605  16.344 -0.4124 -0.3811  1.6349
15221TIP3    H267155   6.170   1.516  16.366  0.3212  0.2770  0.4148
15222TIP3   OH267156   0.897   0.808   5.306  0.7433  0.2459 -0.0890
15222TIP3    H167157   0.926   0.739   5.365 -0.8259  1.4528  2.2554
15222TIP3    H267158   0.977   0.852   5.279  1.7445 -2.1101 -1.2932
15223TIP3   OH267159   2.045   0.010   3.203  0.2528  0.3176 -0.4229
15223TIP3    H167160   1.953  -0.016   3.212  0.0597  0.7776 -1.0090
15223TIP3    H267161   2.094  -0.070   3.221 -0.2618  0.0671 -0.1039
15224TIP3   OH267162   4.801   1.898   2.765  0.7307  0.2757 -0.2377
15224TIP3    H167163   4.744   1.959   2.811  3.0403  1.5308  1.1884
15224TIP3    H267164   4.766   1.893   2.676  0.4767  3.8312 -0.4838
15225TIP3   OH267165   6.376   4.509   0.996  0.2387  0.1098 -0.4003
15225TIP3    H167166   6.392   4.506   0.902 -0.5310 -1.0900 -0.5068
15225TIP3    H267167   6.411   4.594   1.023  0.8874  0.2734 -1.6811
15226TIP3   OH267168   1.703   5.968   0.600 -0.2513 -0.0236  0.3238
15226TIP3    H167169   1.789   6.010   0.603  0.5727 -1.6041  0.1155
15226TIP3    H267170   1.641   6.037   0.623  1.2238  0.7304  2.2956
15227TIP3   OH267171   6.282   2.650   1.124  0.5836 -0.2876 -0.7805
15227TIP3    H167172   6.258   2.616   1.210 -1.6036 -1.1023 -1.6461
15227TIP3    H267173   6.201   2.686   1.088  1.4823  0.2288 -2.4289
15228TIP3   OH267174   2.183   1.235  15.610 -0.8526 -0.2644 -0.3227
15228TIP3    H167175   2.178   1.328  15.589 -2.0497 -0.4022 -0.6859
15228TIP3    H267176   2.092   1.207  15.619 -0.4888 -1.0830  1.2568
15229TIP3   OH267177   0.286   6.288   4.311  0.1337 -0.7822  0.4717
15229TIP3    H167178   0.252   6.376   4.325  0.6370 -0.8736  2.6350
15229TIP3    H267179   0.208   6.232   4.314 -0.2183 -0.4277 -1.1742
15230TIP3   OH267180   5.803   5.015   2.205 -0.8832 -0.2392 -0.1681
15230TIP3    H167181   5.844   4.999   2.290 -0.1786 -0.5451 -0.5552
15230TIP3    H267182   5.864   5.073   2.160  0.4030 -2.6184 -1.6931
15231TIP3   OH267183   5.217   3.929   1.634  0.3630  0.4773  0.0609
15231TIP3    H167184   5.263   3.852   1.667 -1.4817 -0.2251  1.1851
15231TIP3    H267185   5.272   4.003   1.661  0.3337 -0.2549  2.3707
15232TIP3   OH267186   3.607   2.201   2.149 -0.3399  0.1818 -0.3797
15232TIP3    H167187   3.536   2.201   2.086 -0.2396 -1.9565 -0.5629
15232TIP3    H267188   3.567   2.173   2.231  0.2133 -0.8486 -0.4372
15233TIP3   OH267189   3.584   0.849   0.988 -0.0797 -0.3452  0.4475
15233TIP3    H167190   3.679   0.844   0.976 -0.0254 -0.5643  0.9193
15233TIP3    H267191   3.558   0.759   1.009 -0.5299 -0.4688 -0.6041
15234TIP3   OH267192   1.299   6.781   0.018  0.3276  1.0113 -0.1753
15234TIP3    H167193   1.205   6.764   0.024  0.6432 -1.7850 -1.3548
15234TIP3    H267194   1.337   6.731   0.090  0.9501  2.0454  0.2365
15235TIP3   OH267195   0.820   1.187   4.291  0.0369  0.1517  0.0346
15235TIP3    H167196   0.801   1.174   4.384 -0.0146 -1.3124 -0.1431
15235TIP3    H267197   0.866   1.270   4.287  0.1730  0.1657  1.3935
15236TIP3   OH267198   3.762   2.893  16.262 -0.0860  0.4011  0.0819
15236TIP3    H167199   3.673   2.863  16.282 -0.4021  0.9115 -0.5250
15236TIP3    H267200   3.791   2.936  16.343 -0.0994 -0.4131  0.5347
15237TIP3   OH267201   5.361   1.671  14.492 -0.7130  0.1582 -0.4095
15237TIP3    H167202   5.401   1.758  14.493 -0.0597 -0.1403 -0.1086
15237TIP3    H267203   5.431   1.612  14.519 -1.5122 -0.3238  0.6537
15238TIP3   OH267204   6.803   5.134   6.176 -0.3883  0.5781  0.1368
15238TIP3    H167205   6.794   5.046   6.214 -1.1173 -0.5497 -2.4065
15238TIP3    H267206   6.750   5.190   6.232 -0.7508 -0.8118  1.2454
15239TIP3   OH267207   6.104   0.528  16.780  0.1963  0.2182  0.1271
15239TIP3    H167208   6.124   0.620  16.798 -2.1195  0.7270  0.4186
15239TIP3    H267209   6.111   0.520  16.685 -1.6694  1.3274 -0.1700
15240TIP3   OH267210   3.740   2.708   3.972 -0.0037  0.6717 -0.1802
15240TIP3    H167211   3.826   2.744   3.947 -0.2928  0.5936 -1.3470
15240TIP3    H267212   3.697   2.690   3.889 -0.1189 -1.8315  0.3345
15241TIP3   OH267213   0.389   2.020  13.130  0.7793  0.0012 -0.2296
15241TIP3    H167214   0.430   1.975  13.204  0.1617  0.6626  0.5291
15241TIP3    H267215   0.332   1.954  13.090  2.3015 -0.8310 -1.1023
15242TIP3   OH267216   5.143   4.337  12.568  0.3254  0.0791  0.7214
15242TIP3    H167217   5.183   4.255  12.540  0.7998  1.5406 -3.8427
15242TIP3    H267218   5.049   4.317  12.574  0.5954 -1.0963  1.2987
15243TIP3   OH267219   1.974   6.144  12.379 -0.7326 -0.1793  0.2516
15243TIP3    H167220   2.008   6.131  12.291 -1.6808 -3.8559  0.2562
15243TIP3    H267221   2.049   6.175  12.429 -0.1271  1.8103 -1.7371
15244TIP3   OH267222   5.173   1.697  16.685  0.2220 -0.4127 -0.7764
15244TIP3    H167223   5.112   1.770  16.676 -0.4123 -0.7561  0.5162
15244TIP3    H267224   5.239   1.712  16.618  0.2210  1.4683 -0.3991
15245TIP3   OH267225   2.525   6.214  13.067 -0.1696 -0.1040  0.6446
15245TIP3    H167226   2.443   6.209  13.017  0.4442  0.0309 -0.3968
15245TIP3    H267227   2.528   6.131  13.116 -1.9185  0.7399  2.3300
15246TIP3   OH267228   5.101   0.403  11.154  0.5060  0.3251 -0.4973
15246TIP3    H167229   5.123   0.397  11.061  0.2126 -0.3873 -0.5253
15246TIP3    H267230   5.076   0.495  11.167 -1.1297  0.0498 -1.4904
15247TIP3   OH267231   6.840   1.977  16.425  0.2969  0.1105  0.0718
15247TIP3    H167232   6.760   1.926  16.440  0.1665  0.5760  1.0139
15247TIP3    H267233   6.850   1.978  16.330  0.3055 -1.6717  0.0102
15248TIP3   OH267234   1.027   4.787   1.507  0.1136  0.0879  0.3323
15248TIP3    H167235   1.022   4.722   1.578 -0.3038 -0.7784 -0.4566
15248TIP3    H267236   1.084   4.856   1.540  0.3149 -0.5425  1.3217
15249TIP3   OH267237   5.754   0.687   5.133  0.6509  0.4222 -0.1716
15249TIP3    H167238   5.680   0.659   5.185  1.5415 -0.9810  0.4004
15249TIP3    H267239   5.795   0.757   5.184 -0.4504  1.4532 -0.6621
15250TIP3   OH267240   5.127   6.656   1.741  0.2655 -0.3852 -0.5070
15250TIP3    H167241   5.111   6.564   1.762 -2.6490 -0.2009 -1.4177
15250TIP3    H267242   5.089   6.668   1.654 -1.1426  2.0260  0.3268
15251TIP3   OH267243   4.925   2.035  14.379  0.2385 -0.0759 -0.0087
15251TIP3    H167244   4.988   2.102  14.353  1.7340 -2.1113 -1.9502
15251TIP3    H267245   4.883   2.008  14.298 -1.3761 -0.5204  0.9269
15252TIP3   OH267246   6.773   0.619  12.432 -0.1104  0.5244 -0.3136
15252TIP3    H167247   6.777   0.583  12.521 -0.7949  1.3520  0.0690
15252TIP3    H267248   6.681   0.638  12.418 -0.5978 -2.6704 -2.4930
15253TIP3   OH267249   2.932   0.814  16.413 -0.5407 -0.2589  0.4807
15253TIP3    H167250   2.856   0.859  16.450 -0.6404 -1.5909  1.9682
15253TIP3    H267251   2.938   0.732  16.461  1.3638 -0.5581 -0.1689
15254TIP3   OH267252   0.742   5.024  14.194  0.2030 -0.0674 -0.0192
15254TIP3    H167253   0.672   4.966  14.165 -1.3681  0.3153  2.6314
15254TIP3    H267254   0.781   4.978  14.269  0.0798  1.4642  1.0329
15255TIP3   OH267255   4.886   3.010   4.920  0.3155  0.3594 -0.5233
15255TIP3    H167256   4.827   2.939   4.893 -0.0708  0.1607  0.8066
15255TIP3    H267257   4.846   3.046   4.999  1.2455  1.1525 -0.4028
15256TIP3   OH267258   1.957   3.953   5.081 -0.3669  0.2775  0.1754
15256TIP3    H167259   1.925   4.027   5.030  2.8339 -0.1350 -2.8043
15256TIP3    H267260   1.998   3.992   5.158 -0.7605  1.3806 -0.1592
15257TIP3   OH267261   3.552   1.051  11.711  0.7008  0.0739  0.2572
15257TIP3    H167262   3.519   1.049  11.621  1.6180 -0.6497 -0.0793
15257TIP3    H267263   3.513   0.974  11.753 -1.0526  1.3001  0.9973
15258TIP3   OH267264   1.101   4.746  14.104  0.7400 -0.6029  0.2332
15258TIP3    H167265   1.096   4.652  14.125 -2.0331 -0.4002  0.7986
15258TIP3    H267266   1.143   4.785  14.180  0.4928 -1.2021  0.6874
15259TIP3   OH267267   0.650   4.495  10.789 -0.6095  0.0688  0.0588
15259TIP3    H167268   0.590   4.446  10.847 -1.2974  0.8466  0.0223
15259TIP3    H267269   0.624   4.586  10.799 -1.5860  0.1393 -2.3828
15260TIP3   OH267270   4.984   1.159  15.338 -0.1915 -0.6040  0.0765
15260TIP3    H167271   4.928   1.229  15.302  0.3678 -0.3497 -0.3087
15260TIP3    H267272   4.941   1.135  15.420 -0.7317 -0.2357 -0.0885
15261TIP3   OH267273   0.481   0.890   2.823  0.4421  0.1217 -0.3060
15261TIP3    H167274   0.408   0.828   2.824  0.3363  0.2276 -1.0445
15261TIP3    H267275   0.459   0.954   2.890  0.0157 -0.0316 -0.2958
15262TIP3   OH267276   0.871   6.464   4.541  0.0701 -0.4260 -0.2036
15262TIP3    H167277   0.861   6.397   4.608 -0.2341  0.1793  0.3613
15262TIP3    H267278   0.939   6.429   4.483  1.6691 -0.1869  1.4079
15263TIP3   OH267279   6.382   3.905  10.837 -0.2170  0.0861  0.5524
15263TIP3    H167280   6.291   3.909  10.808  0.0509 -0.3506 -0.3794
15263TIP3    H267281   6.403   3.812  10.840  0.3545  0.1959  0.2240
15264TIP3   OH267282   6.066   5.282   0.983 -0.1823  0.2446  0.2577
15264TIP3    H167283   6.097   5.344   1.049  2.0075  0.2800 -0.7302
15264TIP3    H267284   6.078   5.328   0.900  0.9793 -1.2740 -0.4504
15265TIP3   OH267285   2.393   6.046  15.892  0.0103 -0.0347 -0.1342
15265TIP3    H167286   2.422   6.003  15.972  0.2732 -2.4978 -1.4634
15265TIP3    H267287   2.315   6.095  15.918  1.7260  1.6599  2.1854
15266TIP3   OH267288   2.210   5.603  14.676 -0.1827 -0.1368 -0.0824
15266TIP3    H167289   2.214   5.688  14.633 -0.4875  0.3977  0.9192
15266TIP3    H267290   2.298   5.589  14.710  0.2846 -0.9367 -1.5477
15267TIP3   OH267291   6.081   0.091  14.569 -0.0938 -0.0689  0.2374
15267TIP3    H167292   6.124   0.024  14.516  0.6211  0.3608  0.2606
15267TIP3    H267293   6.028   0.141  14.506  1.6686  1.1910 -0.3406
15268TIP3   OH267294   5.466   4.371  15.751  0.0660  0.6001  0.2563
15268TIP3    H167295   5.529   4.333  15.812  0.6761  0.5935 -0.3598
15268TIP3    H267296   5.384   4.377  15.801 -0.2664 -2.1883  0.1761
15269TIP3   OH267297   4.063   6.572  11.395 -0.0797 -0.4451  0.1959
15269TIP3    H167298   4.085   6.514  11.468  0.5665  1.1082  1.2987
15269TIP3    H267299   3.995   6.525  11.346  2.3528 -3.4253 -0.6801
15270TIP3   OH267300   2.781   2.266   5.789  0.0921 -0.2986 -0.2448
15270TIP3    H167301   2.726   2.243   5.864 -0.4065  0.3527 -0.4033
15270TIP3    H267302   2.803   2.358   5.802 -0.8128  0.1055 -1.3866
15271TIP3   OH267303   3.789   1.983  12.119 -0.2033 -0.2392  0.3424
15271TIP3    H167304   3.735   1.929  12.062  0.5168 -0.4686 -0.1390
15271TIP3    H267305   3.815   1.925  12.191  0.9379 -0.6969 -0.4043
15272TIP3   OH267306   0.210   2.649   5.509  0.1316  0.3617  0.0520
15272TIP3    H167307   0.136   2.602   5.471  0.5405 -0.7718  0.5881
15272TIP3    H267308   0.285   2.591   5.493  0.5500  0.5456  1.2617
15273TIP3   OH267309   6.033   1.833  15.401  0.2825 -0.5927  0.3169
15273TIP3    H167310   6.064   1.747  15.372 -2.0854 -1.4391  0.1553
15273TIP3    H267311   6.097   1.894  15.363  1.0068 -2.1392 -1.0914
15274TIP3   OH267312   1.111   5.303   5.361  0.0330  0.3973 -0.2802
15274TIP3    H167313   1.181   5.273   5.304 -0.1217 -0.1159 -0.2009
15274TIP3    H267314   1.036   5.248   5.339 -0.0080  0.1506  0.4589
15275TIP3   OH267315   2.445   6.593  13.939 -0.0429  0.0389 -0.2299
15275TIP3    H167316   2.507   6.629  13.875  0.2108 -1.1819 -0.7020
15275TIP3    H267317   2.397   6.527  13.891 -2.9254  2.0241 -0.3431
15276TIP3   OH267318   5.720   5.695  11.828 -0.3424  0.2463 -0.6732
15276TIP3    H167319   5.647   5.751  11.854  0.4145  0.4319  1.2286
15276TIP3    H267320   5.798   5.750  11.839  0.2631 -0.6247 -0.4742
15277TIP3   OH267321   5.137   1.723   1.587  0.2368 -0.0640  0.5219
15277TIP3    H167322   5.106   1.716   1.497  0.4910  0.9530  0.3398
15277TIP3    H267323   5.071   1.777   1.630 -0.1158 -0.9156  1.0654
15278TIP3   OH267324   1.639   0.600   4.572  0.2189  0.5274  0.7312
15278TIP3    H167325   1.690   0.521   4.595  0.7371  1.1015  1.6202
15278TIP3    H267326   1.703   0.657   4.529  0.2458  1.0966  1.5092
15279TIP3   OH267327   5.154   2.747   5.462  0.3267 -0.1746  0.5340
15279TIP3    H167328   5.062   2.746   5.435  0.5652 -1.6921 -0.3216
15279TIP3    H267329   5.150   2.739   5.558 -0.4418 -0.6977  0.4712
15280TIP3   OH267330   6.563   4.519   3.048  0.2589  0.5990  0.7060
15280TIP3    H167331   6.481   4.518   2.999  0.8466  1.1991 -0.3275
15280TIP3    H267332   6.538   4.493   3.137 -1.4397  2.8535  0.9840
15281TIP3   OH267333   5.724   3.598   2.615 -0.1853  0.0935  0.0146
15281TIP3    H167334   5.726   3.639   2.529 -0.8784  0.9179  0.3784
15281TIP3    H267335   5.786   3.648   2.668 -2.9207  2.4909  1.2067
15282TIP3   OH267336   5.753   4.003  11.475  0.3406 -0.0701 -0.5514
15282TIP3    H167337   5.843   4.028  11.456  0.5419 -0.5486 -0.2467
15282TIP3    H267338   5.752   3.987  11.570 -0.5412  1.9028 -0.1848
15283TIP3   OH267339   5.137   2.204  14.320  0.3850  0.3720  0.1622
15283TIP3    H167340   5.214   2.221  14.374 -0.0048 -1.6522  1.4738
15283TIP3    H267341   5.173   2.181  14.234  1.0929  1.8514  0.0325
15284TIP3   OH267342   2.097   2.279   0.232 -0.3688 -0.5827  0.0111
15284TIP3    H167343   2.105   2.211   0.298 -0.5412 -1.2583 -0.6494
15284TIP3    H267344   2.166   2.342   0.253  1.7561 -2.4086 -1.0480
15285TIP3   OH267345   5.839   2.856   2.192  0.3321  0.1268 -0.1377
15285TIP3    H167346   5.744   2.849   2.195  0.3787 -1.3544 -0.8999
15285TIP3    H267347   5.865   2.870   2.283 -0.5747 -0.1666  0.1772
15286TIP3   OH267348   2.382   6.524   1.342  0.7544 -0.1835  0.4573
15286TIP3    H167349   2.313   6.480   1.392 -0.3925 -0.3744 -1.2033
15286TIP3    H267350   2.355   6.616   1.342  0.5487 -0.2451 -0.1225
15287TIP3   OH267351   6.555   4.103   0.906  0.1847  0.3276  0.0700
15287TIP3    H167352   6.478   4.160   0.904  0.7300  1.0695 -0.1958
15287TIP3    H267353   6.562   4.069   0.817  0.2520  0.3777  0.0564
15288TIP3   OH267354   1.417   6.715  12.223  0.5900  0.3306  1.2546
15288TIP3    H167355   1.383   6.710  12.134  2.4632  2.3706  0.3434
15288TIP3    H267356   1.406   6.626  12.258 -0.7614 -0.3511 -0.7609
15289TIP3   OH267357   4.485   5.722  13.038 -0.2582  0.5016 -0.3000
15289TIP3    H167358   4.433   5.689  12.964  0.3909  1.0060 -0.9898
15289TIP3    H267359   4.467   5.660  13.109 -1.1644  0.2084 -0.7693
15290TIP3   OH267360   1.447   1.241  15.795  0.3437 -0.6590  0.0090
15290TIP3    H167361   1.406   1.193  15.723  0.7846  1.7336 -1.9457
15290TIP3    H267362   1.540   1.243  15.772  0.1685  2.3263 -0.8090
15291TIP3   OH267363   1.880   0.055  15.430  0.0640 -0.3274  0.1701
15291TIP3    H167364   1.952  -0.001  15.401 -1.3505 -2.1743 -0.0426
15291TIP3    H267365   1.824  -0.004  15.481 -0.8003  1.2880  1.1529
15292TIP3   OH267366   5.123   2.259   5.143  0.0408  0.2458 -0.1047
15292TIP3    H167367   5.091   2.191   5.084  2.6424  0.7941 -2.3123
15292TIP3    H267368   5.212   2.232   5.165  0.7727  2.4061 -0.2072
15293TIP3   OH267369   3.625   3.672   2.580 -0.3740 -0.0674 -0.2574
15293TIP3    H167370   3.555   3.737   2.593  0.1927  0.5049  0.0156
15293TIP3    H267371   3.599   3.597   2.632  0.1160  0.8516  1.3679
15294TIP3   OH267372   3.406   0.651  14.884  0.0932 -0.1117  0.6999
15294TIP3    H167373   3.423   0.630  14.792 -2.2397 -2.6920  0.7377
15294TIP3    H267374   3.490   0.638  14.928  0.6309 -1.5194 -0.6541
15295TIP3   OH267375   5.684   1.341   0.642 -0.0506 -0.2016 -0.8006
15295TIP3    H167376   5.605   1.349   0.587 -0.5349 -2.7186 -0.6023
15295TIP3    H267377   5.662   1.272   0.704  2.1466 -0.6053 -0.4100
15296TIP3   OH267378   6.174   1.081   5.563 -0.2943 -0.4070 -0.2226
15296TIP3    H167379   6.179   0.990   5.535 -2.6924 -0.6758 -0.0324
15296TIP3    H267380   6.158   1.077   5.657 -0.8778  0.1787 -0.2857
15297TIP3   OH267381   1.431   0.532  16.348 -0.7500  0.5443 -0.2042
15297TIP3    H167382   1.368   0.601  16.369 -0.3539  0.5031  1.2158
15297TIP3    H267383   1.486   0.570  16.279 -1.1676  1.2559 -0.1571
15298TIP3   OH267384   0.053   3.257   0.451 -0.2746  0.4369  0.0493
15298TIP3    H167385   0.118   3.188   0.458  0.2475  1.0022  0.9158
15298TIP3    H267386  -0.031   3.212   0.459  0.0711 -0.0538  1.1533
15299TIP3   OH267387   4.075   1.856  12.601  0.4192  0.5002  0.1211
15299TIP3    H167388   4.004   1.871  12.664 -0.0491  0.4346 -0.3770
15299TIP3    H267389   4.030   1.836  12.519  1.0192 -0.2345 -0.0421
15300TIP3   OH267390   1.170   1.321   5.208 -0.4766  0.1115 -0.2081
15300TIP3    H167391   1.208   1.234   5.196  1.3617  0.9559 -0.9262
15300TIP3    H267392   1.131   1.318   5.295  0.7055 -1.0392  0.3250
15301TIP3   OH267393   1.519   5.534   2.351  0.1035  0.0487  0.2390
15301TIP3    H167394   1.482   5.597   2.290 -0.6839 -0.1302  0.5179
15301TIP3    H267395   1.474   5.452   2.332  1.2469 -0.4871 -0.2413
15302TIP3   OH267396   3.170   1.242  13.944  0.3391  0.0184 -0.8707
15302TIP3    H167397   3.161   1.150  13.918  2.4300 -0.8828  1.2341
15302TIP3    H267398   3.263   1.252  13.964 -0.0572  2.2772  0.0714
15303TIP3   OH267399   5.654   2.636  15.899 -0.0108 -0.1415 -0.1843
15303TIP3    H167400   5.638   2.544  15.880  0.3661  0.2810 -3.0755
15303TIP3    H267401   5.566   2.672  15.915 -0.3137 -0.7535 -0.4263
15304TIP3   OH267402   6.391   0.992  10.277 -0.6737 -0.1810 -0.2911
15304TIP3    H167403   6.328   1.017  10.210 -1.4743 -0.5616  0.3006
15304TIP3    H267404   6.353   1.025  10.359 -0.3692 -0.8764  0.1357
15305TIP3   OH267405   4.153   6.388  16.612 -0.3490 -0.0430 -0.4614
15305TIP3    H167406   4.200   6.472  16.617 -0.5718  0.0312  0.8778
15305TIP3    H267407   4.085   6.403  16.547 -0.8958  1.1043  0.3446
15306TIP3   OH267408   5.280   2.842  11.586  0.2893 -0.1190 -0.4332
15306TIP3    H167409   5.276   2.802  11.498  2.4979 -1.7493  0.1192
15306TIP3    H267410   5.305   2.770  11.643  0.8657  1.3493  1.2291
15307TIP3   OH267411   5.927   2.186  16.443 -0.0350  0.0114  0.7735
15307TIP3    H167412   5.929   2.204  16.349 -1.0254 -1.3506  0.4492
15307TIP3    H267413   5.973   2.259  16.483  0.7084  0.4425 -0.7996
15308TIP3   OH267414   3.043   5.410   2.824  0.4721 -0.2244 -0.6772
15308TIP3    H167415   2.965   5.463   2.812  0.2247 -0.3115  0.4167
15308TIP3    H267416   3.010   5.321   2.835  0.7322 -0.2798 -0.3316
15309TIP3   OH267417   5.081   3.685   4.475 -0.1965 -0.0227  0.3363
15309TIP3    H167418   5.074   3.705   4.568 -0.7512  2.8916 -0.2247
15309TIP3    H267419   4.994   3.706   4.440  0.1586 -0.5791 -0.9324
15310TIP3   OH267420   1.067   6.303  14.687  0.1278  0.1983 -0.4189
15310TIP3    H167421   1.096   6.213  14.703  1.4083  0.6837  0.1318
15310TIP3    H267422   1.081   6.317  14.593  0.1939 -0.0897 -0.4525
15311TIP3   OH267423   2.322   3.000  15.400 -0.0782 -0.3831  0.3136
15311TIP3    H167424   2.278   2.923  15.364 -0.5209  0.5601 -1.2416
15311TIP3    H267425   2.261   3.073  15.384  1.1886  0.6221 -0.1127
15312TIP3   OH267426   0.661   4.055  11.308 -0.1505 -0.4200  0.1919
15312TIP3    H167427   0.657   4.062  11.213  0.6855  1.3826  0.2617
15312TIP3    H267428   0.719   4.126  11.335 -0.7208 -0.6355  2.0866
15313TIP3   OH267429   3.112   5.262  12.084 -0.5702  0.0939 -0.7518
15313TIP3    H167430   3.144   5.256  11.994  1.0841 -0.2934 -0.1670
15313TIP3    H267431   3.182   5.225  12.137 -1.0107  1.3699  0.8095
15314TIP3   OH267432   6.440   6.430  15.869  0.3387  0.0811 -0.3315
15314TIP3    H167433   6.495   6.352  15.878  0.6536 -0.1338 -3.1001
15314TIP3    H267434   6.350   6.397  15.877  0.5077 -0.2395  0.2996
15315TIP3   OH267435   6.153   4.107  12.893 -0.4561  0.0089  1.0216
15315TIP3    H167436   6.118   4.021  12.870 -1.0317  0.0228  1.8243
15315TIP3    H267437   6.239   4.109  12.851 -0.6225 -0.7757  0.6170
15316TIP3   OH267438   5.636   5.635  11.231  0.0984 -0.1707 -0.0506
15316TIP3    H167439   5.626   5.663  11.140 -0.5105  0.1015  0.0940
15316TIP3    H267440   5.549   5.645  11.269  0.4515  0.2037  0.6947
15317TIP3   OH267441   5.035   5.767   4.276  0.0912  0.7687  0.0636
15317TIP3    H167442   4.939   5.772   4.281  0.0125  0.8417 -1.1486
15317TIP3    H267443   5.059   5.838   4.217  0.9758  1.2838  1.0273
15318TIP3   OH267444   1.431   4.743   5.136  0.0617  0.7542 -0.3289
15318TIP3    H167445   1.469   4.787   5.212 -0.9613  1.5917 -0.2882
15318TIP3    H267446   1.349   4.707   5.167 -0.0708  0.5696 -0.8848
15319TIP3   OH267447   4.797   2.122   4.803 -0.2419  0.1919 -0.4244
15319TIP3    H167448   4.761   2.064   4.870  0.0918 -0.4726 -0.8132
15319TIP3    H267449   4.842   2.190   4.852  0.6711 -0.7116  0.0276
15320TIP3   OH267450   1.756   3.594  16.740 -0.1943 -0.3566  0.2190
15320TIP3    H167451   1.759   3.583  16.836 -0.4655 -0.1917  0.2462
15320TIP3    H267452   1.781   3.508  16.706 -5.5399 -2.3373  0.3855
15321TIP3   OH267453   5.263   4.564  12.124  0.3961 -0.0862  0.2174
15321TIP3    H167454   5.237   4.505  12.053 -0.5032  0.6672 -0.0830
15321TIP3    H267455   5.272   4.649  12.082  0.5413  0.2252  0.8813
15322TIP3   OH267456   5.425   0.393  10.938  1.0891 -0.4166 -0.5036
15322TIP3    H167457   5.427   0.324  11.005  0.3398 -2.3378 -2.3273
15322TIP3    H267458   5.331   0.405  10.920  1.0108  2.8704  1.3966
15323TIP3   OH267459   6.146   5.107  12.230  0.1300  0.7535  0.2538
15323TIP3    H167460   6.146   5.020  12.270  0.2280  1.8132  2.7529
15323TIP3    H267461   6.082   5.101  12.160 -0.6675 -1.0642  1.0729
15324TIP3   OH267462   2.867   1.326   5.039  0.6605  0.1262  0.2031
15324TIP3    H167463   2.848   1.244   5.085  0.7722  0.8360  1.5889
15324TIP3    H267464   2.956   1.316   5.008  0.1746 -0.8384 -0.9388
15325TIP3   OH267465   4.851   2.179  11.532 -0.9006  0.4364  0.3693
15325TIP3    H167466   4.930   2.174  11.585 -0.6988  0.5277  0.0796
15325TIP3    H267467   4.841   2.272  11.510 -0.7609  0.3484 -0.0803
15326TIP3   OH267468   2.361   0.022   1.815  0.6973 -0.3309  0.1450
15326TIP3    H167469   2.453   0.002   1.794  0.7911 -0.7568  0.9035
15326TIP3    H267470   2.310  -0.037   1.760  0.7510  1.7108 -2.2683
15327TIP3   OH267471   0.374   0.583   1.512 -0.2100  0.3541  0.0072
15327TIP3    H167472   0.446   0.521   1.499 -0.2179  0.3793 -0.1554
15327TIP3    H267473   0.311   0.563   1.443 -0.6066 -0.0146  0.4711
15328TIP3   OH267474   0.574   3.319  12.239 -0.4432  0.3750 -0.0789
15328TIP3    H167475   0.563   3.294  12.147 -0.3669 -0.1397  0.0494
15328TIP3    H267476   0.539   3.245  12.288 -3.6014  1.9930  0.3334
15329TIP3   OH267477   6.391   2.801  10.963 -0.0342  0.7793  0.1260
15329TIP3    H167478   6.415   2.759  10.880  0.8022  1.4709 -0.0032
15329TIP3    H267479   6.451   2.763  11.027  1.6466  2.6508 -0.2282
15330TIP3   OH267480   5.457   2.976  12.741  0.0739 -0.0785  0.7472
15330TIP3    H167481   5.535   2.921  12.733 -0.4898 -0.9103  0.8463
15330TIP3    H267482   5.423   2.957  12.829  0.3830  1.1373  1.1530
15331TIP3   OH267483   5.184   6.452   4.541 -0.1127  0.7120 -0.7872
15331TIP3    H167484   5.182   6.531   4.595  0.8415  0.8781 -0.9879
15331TIP3    H267485   5.153   6.481   4.455  2.1050  1.3515 -1.4403
15332TIP3   OH267486   6.834   1.590   6.160  0.3994  0.3304 -0.4671
15332TIP3    H167487   6.784   1.544   6.227 -1.0360  0.8869 -1.1174
15332TIP3    H267488   6.921   1.551   6.165 -0.4249 -1.6235 -0.1838
15333TIP3   OH267489   5.349   2.174   5.821 -0.5964  0.1028  0.6463
15333TIP3    H167490   5.365   2.215   5.906  0.6687  2.8358 -0.7858
15333TIP3    H267491   5.300   2.239   5.772  0.8139 -0.3590 -1.5098
15334TIP3   OH267492   1.608   5.196  15.500  0.0297  0.3897 -0.3372
15334TIP3    H167493   1.514   5.207  15.506  0.1542  0.6602  2.5034
15334TIP3    H267494   1.641   5.283  15.478 -0.2441  1.2968  2.3853
15335TIP3   OH267495   2.334   5.458  12.083 -0.0012 -0.0985 -0.0753
15335TIP3    H167496   2.372   5.389  12.138 -0.3079  1.3313  2.0523
15335TIP3    H267497   2.243   5.464  12.112 -0.4078  0.1221 -1.3676
15336TIP3   OH267498   1.321   5.701   5.760 -0.2477 -0.1127 -1.1910
15336TIP3    H167499   1.260   5.753   5.710 -1.0790  0.7264  0.5999
15336TIP3    H267500   1.282   5.694   5.847  2.8281  1.7631  0.5358
15337TIP3   OH267501   5.119   0.220  11.441  0.1256 -0.2185 -0.0185
15337TIP3    H167502   5.125   0.282  11.368  0.3746  0.5046  0.6068
15337TIP3    H267503   5.207   0.184  11.450  0.4736  0.8374  0.9053
15338TIP3   OH267504   6.794   6.588   1.896  0.6872 -0.1653 -0.3023
15338TIP3    H167505   6.748   6.565   1.977 -0.3323  0.2990 -0.7173
15338TIP3    H267506   6.756   6.529   1.830 -0.4034  1.1730 -0.9398
15339TIP3   OH267507   1.992   4.788  15.173  0.5152  0.0739  0.0590
15339TIP3    H167508   2.066   4.831  15.131 -0.0989  0.3309 -0.7913
15339TIP3    H267509   2.018   4.696  15.178  0.1999 -0.1810 -1.8982
15340TIP3   OH267510   3.428   4.824  11.013  0.1400 -0.2092 -0.7346
15340TIP3    H167511   3.393   4.858  11.095 -0.7572  0.2663 -1.3047
15340TIP3    H267512   3.480   4.896  10.977 -1.5355  0.5232 -1.8062
15341TIP3   OH267513   0.315   1.361  15.165  0.0718 -0.4690  1.0405
15341TIP3    H167514   0.335   1.306  15.089  2.0697  1.3982  0.0755
15341TIP3    H267515   0.244   1.418  15.135  0.7887  0.1966  0.5191
15342TIP3   OH267516   3.627   1.004   0.759 -0.2028  0.4769 -0.2668
15342TIP3    H167517   3.597   0.960   0.839  2.3823 -0.1693  0.4364
15342TIP3    H267518   3.563   0.978   0.693 -1.6522 -0.0870  1.2606
15343TIP3   OH267519   0.552   1.660   2.045 -0.6457  0.5899 -0.2595
15343TIP3    H167520   0.574   1.571   2.019 -0.0013  0.8004 -0.4535
15343TIP3    H267521   0.458   1.658   2.061 -0.7428  0.0306 -0.8787
15344TIP3   OH267522   6.480   3.072   4.477  0.5144 -1.2107 -0.0987
15344TIP3    H167523   6.459   3.042   4.565  0.2344 -0.1181  0.2327
15344TIP3    H267524   6.556   3.020   4.450  1.1466 -0.9563  1.1404
15345TIP3   OH267525   6.626   5.752   2.490 -1.0056 -0.3671 -0.1935
15345TIP3    H167526   6.648   5.675   2.437  1.1670 -0.2504  0.4620
15345TIP3    H267527   6.654   5.729   2.578  0.8603  1.5904 -0.2001
15346TIP3   OH267528   3.038   5.829   2.084  0.2919  0.0353 -0.3393
15346TIP3    H167529   3.039   5.771   2.008 -2.5525  0.9492 -1.2110
15346TIP3    H267530   2.991   5.779   2.152  1.6685 -0.2758  0.4188
15347TIP3   OH267531   4.600   2.097  11.552  0.1177  0.5271 -0.2478
15347TIP3    H167532   4.582   2.105  11.645 -0.4243  0.0789 -0.3052
15347TIP3    H267533   4.694   2.111  11.543  0.8317 -2.7753  0.7882
15348TIP3   OH267534   4.799   3.992  12.296 -0.4855 -0.0393  0.3466
15348TIP3    H167535   4.769   4.075  12.260 -0.7992 -1.0605 -1.9492
15348TIP3    H267536   4.834   4.014  12.382  0.1735  2.5912 -0.5015
15349TIP3   OH267537   6.400   3.865   1.186  0.4079 -0.2952  0.1173
15349TIP3    H167538   6.477   3.826   1.145  1.1565  0.5731  0.6477
15349TIP3    H267539   6.346   3.893   1.112  0.6171 -0.8759 -0.2625
15350TIP3   OH267540   2.553   3.582   4.489 -0.4929 -0.0589 -0.0148
15350TIP3    H167541   2.496   3.527   4.436 -0.5200  1.6552 -1.8809
15350TIP3    H267542   2.539   3.553   4.579 -0.2647 -3.2627 -0.9119
15351TIP3   OH267543   3.224   2.636  11.253 -0.1040  0.3536  0.1222
15351TIP3    H167544   3.182   2.722  11.258 -1.3341 -0.2401  0.3442
15351TIP3    H267545   3.313   2.654  11.223 -0.6812  1.6033 -0.8994
15352TIP3   OH267546   3.573   0.168   0.313 -0.1612 -0.5216 -0.8379
15352TIP3    H167547   3.609   0.079   0.307 -1.0879 -1.4479  3.5868
15352TIP3    H267548   3.487   0.161   0.273 -0.0168 -1.5246 -1.0101
15353TIP3   OH267549   3.658   3.034  12.733 -0.6074  0.2084 -0.3436
15353TIP3    H167550   3.722   3.102  12.713 -0.3616  0.1164  0.1148
15353TIP3    H267551   3.574   3.079  12.730 -0.4585  0.5020 -0.1777
15354TIP3   OH267552   2.072   3.195  16.810  0.1052  0.0186  0.4095
15354TIP3    H167553   2.023   3.116  16.836  0.9456 -0.2787  1.1253
15354TIP3    H267554   2.084   3.244  16.892  0.4087  0.4239  0.1242
15355TIP3   OH267555   1.168   5.567  17.079  0.3989 -0.2548  0.0049
15355TIP3    H167556   1.218   5.620  17.017 -0.1066  1.1470  0.7448
15355TIP3    H267557   1.213   5.483  17.080  0.6848 -0.1743 -1.9048
15356TIP3   OH267558   1.091   0.074  11.596 -0.6943 -0.1458 -0.1730
15356TIP3    H167559   1.120  -0.017  11.589  2.4677  0.8624 -2.4510
15356TIP3    H267560   1.132   0.107  11.676 -3.1427 -0.9764  1.5652
15357TIP3   OH267561   5.134   5.044   1.734  0.5101  0.3506 -0.0014
15357TIP3    H167562   5.105   4.981   1.668 -0.5510 -0.4626  1.1895
15357TIP3    H267563   5.221   5.014   1.760  0.5373  0.1252 -0.3361
15358TIP3   OH267564   0.808   4.748  15.976 -0.0798 -0.3490  0.0618
15358TIP3    H167565   0.843   4.763  16.063 -0.2895  0.4069  0.0167
15358TIP3    H267566   0.756   4.825  15.957  0.9123  0.0454 -1.2060
15359TIP3   OH267567   4.082   0.137   1.828 -0.3513 -0.4691 -0.1228
15359TIP3    H167568   4.167   0.099   1.849 -0.2146  0.7171  1.6732
15359TIP3    H267569   4.018   0.071   1.855 -0.0262 -0.8800 -0.3681
15360TIP3   OH267570   4.504   5.805   3.869 -0.2458 -0.2684 -0.7098
15360TIP3    H167571   4.502   5.741   3.940 -2.3293 -0.3330 -0.7404
15360TIP3    H267572   4.461   5.882   3.906  1.7919  0.9785 -0.8326
15361TIP3   OH267573   1.300   4.349  14.935  1.0278  0.0965 -0.0997
15361TIP3    H167574   1.264   4.349  15.024 -0.0646 -2.5576 -0.4444
15361TIP3    H267575   1.304   4.441  14.911  0.5161  0.8407  2.3631
15362TIP3   OH267576   5.545   3.648  14.845 -0.2699  0.8691  0.0545
15362TIP3    H167577   5.505   3.565  14.821  0.0853  0.6530  0.2174
15362TIP3    H267578   5.630   3.625  14.880 -0.6524  1.2006  1.2436
15363TIP3   OH267579   6.374   4.250   0.033  0.5016  0.4706 -0.3814
15363TIP3    H167580   6.461   4.283   0.055  0.4981  1.2450 -1.4658
15363TIP3    H267581   6.353   4.291  -0.051 -1.5449  1.4702  0.5434
15364TIP3   OH267582   2.353   6.767  15.854  0.0980  0.4232  0.0837
15364TIP3    H167583   2.280   6.797  15.800  0.9122 -0.0223 -1.3190
15364TIP3    H267584   2.392   6.848  15.887 -0.6802  0.6878  0.3760
15365TIP3   OH267585   3.640   3.747   1.309  0.3180  0.3190 -0.6167
15365TIP3    H167586   3.571   3.785   1.253 -1.5737 -0.4124  1.0781
15365TIP3    H267587   3.707   3.814   1.314 -0.6376  1.4044 -1.6818
15366TIP3   OH267588   4.743   2.351  13.627  0.2036  0.0930 -0.0479
15366TIP3    H167589   4.766   2.385  13.541  1.1155  1.4969  0.6981
15366TIP3    H267590   4.826   2.322  13.665  0.1128  1.0864  0.9841
15367TIP3   OH267591   1.372   3.126   3.355 -0.0049  0.4570 -0.3032
15367TIP3    H167592   1.298   3.097   3.408 -2.0040  3.1462 -1.3478
15367TIP3    H267593   1.443   3.139   3.417 -0.2586 -2.3594  0.7209
15368TIP3   OH267594   5.147   4.360  13.935  0.3638 -0.7232 -1.1999
15368TIP3    H167595   5.219   4.417  13.964  0.6705 -1.0356 -1.3466
15368TIP3    H267596   5.182   4.313  13.859 -0.1586 -0.5185 -1.5759
15369TIP3   OH267597   3.080   5.764  10.220  0.0241 -0.0959 -0.7124
15369TIP3    H167598   3.035   5.712  10.153  1.3765 -0.6219 -1.2510
15369TIP3    H267599   3.117   5.838  10.172  0.7501 -0.3166 -0.5101
15370TIP3   OH267600   1.610   0.937  12.763 -1.0204  0.5056 -0.3010
15370TIP3    H167601   1.534   0.932  12.822 -0.4257  1.3384  0.5629
15370TIP3    H267602   1.639   0.846  12.755 -2.0634  0.1807 -0.5945
15371TIP3   OH267603   2.445   4.272   1.959  0.9965 -0.0400 -0.3979
15371TIP3    H167604   2.393   4.257   1.880 -0.7456 -1.8162  0.9563
15371TIP3    H267605   2.428   4.195   2.013  2.2669  1.0191  1.6417
15372TIP3   OH267606   5.826   2.921  15.526 -0.1647  0.4600  0.1458
15372TIP3    H167607   5.775   2.939  15.447  0.9992  1.4272 -0.4120
15372TIP3    H267608   5.916   2.912  15.495  0.1541 -0.2966  1.2299
15373TIP3   OH267609   5.099   3.154  10.882  0.0250 -0.1767  0.1200
15373TIP3    H167610   5.176   3.118  10.838  0.7666 -1.2102  2.1210
15373TIP3    H267611   5.033   3.084  10.877 -0.2669  0.1229 -0.2805
15374TIP3   OH267612   0.324   6.243  16.769 -0.0336  0.0689  0.2380
15374TIP3    H167613   0.375   6.318  16.798 -1.9469  1.4203  0.3123
15374TIP3    H267614   0.330   6.180  16.841  0.6050  0.6493  0.6980
15375TIP3   OH267615   1.751   5.643  11.212 -0.0275 -0.1608  0.1671
15375TIP3    H167616   1.784   5.658  11.301  1.7049 -0.7122 -0.3521
15375TIP3    H267617   1.764   5.549  11.197  4.6073  0.6066 -2.4379
15376TIP3   OH267618   1.305   3.913  11.726  0.1741 -0.0280 -0.3319
15376TIP3    H167619   1.293   3.948  11.815  1.9207  0.5223 -0.2725
15376TIP3    H267620   1.240   3.844  11.719  0.6103 -0.7440  1.7419
15377TIP3   OH267621   6.136   4.379  11.840 -0.0902  0.4074 -0.7096
15377TIP3    H167622   6.100   4.355  11.926  0.7772 -1.4625 -0.8288
15377TIP3    H267623   6.070   4.349  11.777  0.9612 -1.8068 -0.8542
15378TIP3   OH267624   0.205   2.208   1.763  0.1934  0.1517 -0.0037
15378TIP3    H167625   0.293   2.209   1.801  0.6634  2.9930 -0.9076
15378TIP3    H267626   0.152   2.261   1.822 -0.4277  0.0337 -0.4388
15379TIP3   OH267627   5.917   1.552   3.423 -0.3762  0.1966 -0.0103
15379TIP3    H167628   5.857   1.569   3.495 -0.2490  2.8908 -0.4439
15379TIP3    H267629   5.988   1.616   3.435  1.6089 -1.7880 -0.4369
15380TIP3   OH267630   3.791   1.873   3.156 -0.4314  0.4961 -0.1876
15380TIP3    H167631   3.831   1.915   3.080 -0.3071  1.0584  0.1840
15380TIP3    H267632   3.744   1.798   3.119 -0.0725  0.5492 -0.7740
15381TIP3   OH267633   4.889   0.463   0.647  0.2814 -0.2295 -0.4353
15381TIP3    H167634   4.796   0.446   0.638  0.0178  0.3172  0.9589
15381TIP3    H267635   4.931   0.379   0.627 -0.6990 -1.3575  1.8939
15382TIP3   OH267636   6.607   1.911   3.094  0.4172 -0.2253  0.0075
15382TIP3    H167637   6.575   1.824   3.117  0.8142 -0.2557  0.4700
15382TIP3    H267638   6.611   1.911   2.999  0.8126 -0.8595  0.0152
15383TIP3   OH267639   4.733   1.379   0.327  0.3396 -0.2857 -0.1797
15383TIP3    H167640   4.653   1.394   0.277  0.3175 -1.5690 -0.5583
15383TIP3    H267641   4.768   1.297   0.292  1.4451 -0.1120  0.4723
15384TIP3   OH267642   3.398   4.405   3.739 -0.4378  0.6798 -0.2030
15384TIP3    H167643   3.402   4.337   3.805 -0.2873 -0.6375 -1.5157
15384TIP3    H267644   3.306   4.410   3.715 -0.1849 -0.7070 -1.6827
15385TIP3   OH267645   4.359   3.313   3.959 -0.6170 -0.3400  0.1950
15385TIP3    H167646   4.292   3.276   3.901 -0.8453 -0.1510  0.3367
15385TIP3    H267647   4.427   3.346   3.900 -0.9859  0.1222  0.0208
15386TIP3   OH267648   0.632   5.772   6.700 -0.8104 -0.4029  0.1516
15386TIP3    H167649   0.615   5.828   6.624 -0.5021 -0.4514  0.0427
15386TIP3    H267650   0.565   5.704   6.695 -0.0267 -1.1512 -0.8159
15387TIP3   OH267651   3.924   6.299   5.730  0.4499 -0.0113  0.4116
15387TIP3    H167652   4.015   6.272   5.717  0.6345 -0.0674  1.7694
15387TIP3    H267653   3.873   6.225   5.697  0.8831 -0.0122 -0.2864
15388TIP3   OH267654   2.895   3.781   4.517  0.0235  0.0868 -0.1765
15388TIP3    H167655   2.976   3.775   4.467 -0.2001  0.4354 -0.5902
15388TIP3    H267656   2.825   3.775   4.451 -0.2667  1.2935 -0.0061
15389TIP3   OH267657   6.798   6.710   1.020 -0.0136  0.0511 -0.3295
15389TIP3    H167658   6.729   6.750   0.967 -0.4669  1.0986  0.9877
15389TIP3    H267659   6.878   6.722   0.968 -0.4543  1.0025 -0.8096
15390TIP3   OH267660   2.069   1.526   1.939  0.2958  0.1592 -0.4292
15390TIP3    H167661   2.090   1.458   2.003  2.4359  0.7959 -0.3994
15390TIP3    H267662   2.052   1.479   1.858  1.4679 -0.4381 -0.3363
15391TIP3   OH267663   1.624   6.192  12.651  0.0356  0.3271 -0.2160
15391TIP3    H167664   1.693   6.125  12.645  0.3406  0.5436  0.6832
15391TIP3    H267665   1.606   6.199  12.745 -0.5395  0.9592 -0.3690
15392TIP3   OH267666   0.272   6.366  10.533 -0.3801 -0.0554 -0.0463
15392TIP3    H167667   0.329   6.316  10.591  0.8372  0.9772 -0.3074
15392TIP3    H267668   0.271   6.316  10.451 -0.9266 -0.7578  0.3839
15393TIP3   OH267669   2.989   1.421  16.083 -0.4671  0.0676 -0.0613
15393TIP3    H167670   2.902   1.383  16.068 -0.9015  1.3107 -0.8972
15393TIP3    H267671   3.020   1.380  16.163 -1.5102 -0.9556 -0.1565
15394TIP3   OH267672   5.711   4.052  12.142  0.0262  0.0548  0.4544
15394TIP3    H167673   5.619   4.027  12.142  0.1157 -0.2809  0.0630
15394TIP3    H267674   5.714   4.132  12.194 -0.5185  0.1894  0.2842
15395TIP3   OH267675   4.896   3.495   2.920  0.0422  0.4001 -0.4164
15395TIP3    H167676   4.839   3.422   2.944  0.9215 -0.6139 -1.3084
15395TIP3    H267677   4.871   3.565   2.980 -0.4610 -0.7973  0.8396
15396TIP3   OH267678   5.513   0.228   2.856  0.1234  0.0705  0.2637
15396TIP3    H167679   5.481   0.137   2.855  0.2763  0.0064  0.9271
15396TIP3    H267680   5.463   0.270   2.926  0.0221  0.5182 -0.0700
15397TIP3   OH267681   5.337   5.753  15.803  0.3677  0.4716 -0.6229
15397TIP3    H167682   5.358   5.729  15.713 -0.4863 -1.3285 -0.3936
15397TIP3    H267683   5.250   5.715  15.818 -0.0959  1.9302  0.5362
15398TIP3   OH267684   4.001   3.461  12.087 -0.0128 -1.1947  0.5455
15398TIP3    H167685   4.069   3.399  12.111 -0.5961 -3.3418 -2.6916
15398TIP3    H267686   3.923   3.408  12.074 -0.7336  0.2423 -1.6616
15399TIP3   OH267687   5.694   4.538   1.589 -0.3239 -0.2113  0.7050
15399TIP3    H167688   5.630   4.601   1.622  2.6930  2.5633  1.9356
15399TIP3    H267689   5.738   4.505   1.667  1.1059 -0.3661 -0.1268
15400TIP3   OH267690   3.745   2.931   0.050  0.3563 -0.0790 -0.2018
15400TIP3    H167691   3.669   2.875   0.035  1.8042 -2.2959  0.1721
15400TIP3    H267692   3.780   2.948  -0.037  0.1349 -0.1110 -0.2968
15401TIP3   OH267693   4.121   5.824  16.630 -0.1686  0.0884 -0.3301
15401TIP3    H167694   4.056   5.787  16.570 -0.5691 -1.1722  0.8299
15401TIP3    H267695   4.186   5.754  16.640  0.1502  0.4743  0.3233
15402TIP3   OH267696   3.929   0.233  14.044  0.1430  0.2085 -0.2206
15402TIP3    H167697   3.887   0.312  14.078  0.2745 -0.9294  2.8699
15402TIP3    H267698   3.862   0.165  14.053  0.6879 -0.4516 -0.9953
15403TIP3   OH267699   3.534   1.784   2.789  0.2132 -0.2297  0.2924
15403TIP3    H167700   3.545   1.743   2.703 -0.6123 -1.2407  0.6432
15403TIP3    H267701   3.444   1.761   2.815  0.3238  0.3731  1.2584
15404TIP3   OH267702   6.553   4.730   1.024 -0.1001 -0.6409 -0.0052
15404TIP3    H167703   6.640   4.712   0.988  0.5967  0.4409  1.0402
15404TIP3    H267704   6.537   4.822   1.002 -2.1689 -1.4780 -2.4827
15405TIP3   OH267705   1.808   2.637   3.414 -0.1809  0.6403 -0.1266
15405TIP3    H167706   1.743   2.707   3.423  0.1894  0.9412  0.2121
15405TIP3    H267707   1.775   2.584   3.341 -1.0125  0.5696  0.2844
15406TIP3   OH267708   6.227   4.336   5.102  0.0169 -0.2637  0.8406
15406TIP3    H167709   6.285   4.307   5.172  0.3316  1.1297  1.1948
15406TIP3    H267710   6.220   4.431   5.114 -0.9809 -0.1698 -0.2230
15407TIP3   OH267711   1.401   3.520   5.947 -0.1845 -0.3835  0.4473
15407TIP3    H167712   1.427   3.591   6.006  2.1655 -0.4008 -0.4707
15407TIP3    H267713   1.456   3.446   5.973  0.0921 -0.7295 -1.0337
15408TIP3   OH267714   2.244   6.116  12.226  0.3705  0.4099 -0.0802
15408TIP3    H167715   2.257   6.023  12.243  0.1909  0.4240  0.1420
15408TIP3    H267716   2.303   6.161  12.286  1.6203  0.4169 -1.2755
15409TIP3   OH267717   3.995   5.285   0.857  0.1570  0.5882  0.0016
15409TIP3    H167718   3.971   5.315   0.769  1.3711  0.6021 -0.3530
15409TIP3    H267719   4.059   5.215   0.841  0.6714  0.8504  0.8652
15410TIP3   OH267720   2.122   0.792  14.932 -0.3569 -0.0644  0.0125
15410TIP3    H167721   2.194   0.852  14.948  1.0931 -1.8206  0.4182
15410TIP3    H267722   2.086   0.818  14.847  1.0305  0.5936 -0.3911
15411TIP3   OH267723   6.045   3.629   2.161  0.0813 -0.0441 -0.1083
15411TIP3    H167724   6.070   3.659   2.248 -0.1198  0.9870 -0.3927
15411TIP3    H267725   6.007   3.542   2.176 -0.1970  0.2333  0.8646
15412TIP3   OH267726   5.104   5.225   0.834  0.1877  0.1625 -0.1694
15412TIP3    H167727   5.125   5.184   0.918  0.9950  1.6544  0.3956
15412TIP3    H267728   5.165   5.185   0.772  0.7793  0.3087  0.3096
15413TIP3   OH267729   5.194   4.786  11.199  0.2242  0.0543  0.5719
15413TIP3    H167730   5.109   4.759  11.165  0.0332  1.5333 -0.2067
15413TIP3    H267731   5.218   4.717  11.261 -1.0032 -0.9680 -0.0356
15414TIP3   OH267732   0.828   5.122  14.742  0.2498  0.0063 -0.3647
15414TIP3    H167733   0.916   5.156  14.760  0.7867 -1.8306  0.8054
15414TIP3    H267734   0.834   5.083  14.655  1.5661 -2.7473  0.8238
15415TIP3   OH267735   6.524   2.412   0.266 -0.4103 -0.2103 -0.2286
15415TIP3    H167736   6.497   2.453   0.348 -2.2213 -2.0166  0.1660
15415TIP3    H267737   6.610   2.449   0.248 -1.0962  2.2020  1.0790
15416TIP3   OH267738   0.712   0.389   5.013  0.1948 -0.4480  0.2725
15416TIP3    H167739   0.690   0.310   5.062  0.7749 -0.7864 -0.0178
15416TIP3    H267740   0.626   0.426   4.989 -0.1003 -0.3141  1.4642
15417TIP3   OH267741   0.102   3.308   4.436 -0.0623 -0.9368 -0.4719
15417TIP3    H167742   0.133   3.235   4.383  2.5989 -0.2807  0.0102
15417TIP3    H267743   0.141   3.293   4.522 -2.4283 -0.7828  0.6916
15418TIP3   OH267744   3.817   4.109   1.075  0.1423 -0.4583  0.2856
15418TIP3    H167745   3.865   4.159   1.141  0.4149 -0.2430 -0.0730
15418TIP3    H267746   3.733   4.088   1.117 -0.1982  0.7567  0.2523
15419TIP3   OH267747   5.339   0.858  13.237 -0.2235 -0.1890  0.5354
15419TIP3    H167748   5.389   0.856  13.155 -0.8818  0.6790  0.0981
15419TIP3    H267749   5.405   0.859  13.306  0.3425 -0.2559  0.0007
15420TIP3   OH267750   3.662   1.075   5.376 -0.0043  0.3532  0.0508
15420TIP3    H167751   3.613   1.048   5.454 -0.8905 -0.1785 -0.6719
15420TIP3    H267752   3.728   1.007   5.365  1.2790  1.3291  1.3166
15421TIP3   OH267753   4.094   4.933   2.803 -0.3526  0.4496 -0.2572
15421TIP3    H167754   4.032   4.891   2.743 -0.7391 -0.7588  0.9611
15421TIP3    H267755   4.157   4.865   2.825  0.0887  1.0315  0.3072
15422TIP3   OH267756   3.216   0.170  12.565 -0.2508 -0.1916 -0.2126
15422TIP3    H167757   3.269   0.114  12.623  1.4433  0.2673 -1.2638
15422TIP3    H267758   3.160   0.219  12.625  2.7792  1.6906  1.3062
15423TIP3   OH267759   6.556   0.534   0.373 -0.5561  0.6188  0.3093
15423TIP3    H167760   6.467   0.538   0.336 -0.0067  1.1798 -1.0109
15423TIP3    H267761   6.574   0.623   0.403 -0.5449  0.4386  0.8405
15424TIP3   OH267762   1.688   2.439  16.519 -0.0967  0.2905  0.0660
15424TIP3    H167763   1.752   2.467  16.454 -0.9278 -0.3634 -1.0588
15424TIP3    H267764   1.669   2.518  16.569  0.8910  0.6996 -0.1832
15425TIP3   OH267765   3.573   0.097   5.874  0.0046 -0.1891  0.5370
15425TIP3    H167766   3.494   0.068   5.920 -0.2162  1.1983  1.0673
15425TIP3    H267767   3.632   0.125   5.944 -0.0865  1.3443  0.0330
15426TIP3   OH267768   2.654   6.343   4.607  0.5802  0.1369 -0.1143
15426TIP3    H167769   2.601   6.308   4.679 -1.2559  0.5392 -1.1954
15426TIP3    H267770   2.606   6.318   4.528  1.6087  1.2366 -1.1286
15427TIP3   OH267771   6.341   0.444  12.265  0.1091 -0.7439 -0.2615
15427TIP3    H167772   6.416   0.489  12.226  0.6241 -1.0755  0.3230
15427TIP3    H267773   6.300   0.509  12.322 -1.8599  0.4084 -2.7965
15428TIP3   OH267774   2.025   0.591  16.698  0.8926  0.1115 -0.0751
15428TIP3    H167775   2.040   0.514  16.753 -1.2488 -0.6486 -0.4834
15428TIP3    H267776   2.037   0.665  16.757  4.3626 -0.3365  0.0418
15429TIP3   OH267777   5.765   1.253  14.831 -0.1375  0.3520 -0.1315
15429TIP3    H167778   5.752   1.298  14.748 -2.6166 -0.1408 -0.0901
15429TIP3    H267779   5.737   1.316  14.898  3.2015  1.3006  0.5714
15430TIP3   OH267780   5.473   3.974   5.651 -0.0478  0.4598 -0.0189
15430TIP3    H167781   5.528   3.931   5.717  0.0277  1.8637  0.8886
15430TIP3    H267782   5.508   3.943   5.567  1.4638  0.4886  0.5579
15431TIP3   OH267783   0.821   0.375  16.208  0.3589 -0.7180 -0.1116
15431TIP3    H167784   0.817   0.342  16.118  0.8490  1.7113 -1.0899
15431TIP3    H267785   0.739   0.345  16.247  0.1526 -1.8614 -1.3269
15432TIP3   OH267786   1.700   5.194   4.313  0.0647  0.3049  0.2118
15432TIP3    H167787   1.654   5.278   4.318  0.7241  0.6466  0.8191
15432TIP3    H267788   1.634   5.129   4.335 -0.9014  0.4774 -1.9627
15433TIP3   OH267789   6.488   3.938   3.327  0.0094  0.3885 -0.0458
15433TIP3    H167790   6.452   3.944   3.238 -1.5427  0.4173  0.5623
15433TIP3    H267791   6.416   3.965   3.384  0.9448  0.2442  1.2423
15434TIP3   OH267792   2.679   2.627   5.627 -0.7462 -0.3717  0.5083
15434TIP3    H167793   2.728   2.576   5.561 -0.3887 -0.5160  0.8796
15434TIP3    H267794   2.684   2.574   5.706  0.5904  0.7528  1.2075
15435TIP3   OH267795   0.878   6.199  15.585  0.3906  0.1527 -0.5908
15435TIP3    H167796   0.895   6.288  15.554 -0.2064  0.3869 -0.2694
15435TIP3    H267797   0.915   6.197  15.673  0.3225  0.1152 -0.5621
15436TIP3   OH267798   6.086   0.877   2.634 -0.1109  0.3691  0.4522
15436TIP3    H167799   6.051   0.932   2.564 -0.6683 -0.0600  0.3806
15436TIP3    H267800   6.179   0.897   2.637 -0.3899  1.6730  0.7605
15437TIP3   OH267801   5.734   1.964   0.393  0.2712 -0.2898  0.3410
15437TIP3    H167802   5.726   2.023   0.467 -2.9583  0.4158 -0.4264
15437TIP3    H267803   5.698   1.881   0.424 -0.6959 -0.1134 -0.2611
15438TIP3   OH267804   2.691   5.687   3.325 -0.4921 -0.1657 -0.0747
15438TIP3    H167805   2.605   5.647   3.337 -1.1763  0.8931 -1.2265
15438TIP3    H267806   2.696   5.754   3.394 -0.2956 -0.6780  0.4166
15439TIP3   OH267807   5.595   4.012  16.624 -0.4430  0.3473  0.7448
15439TIP3    H167808   5.632   3.976  16.704 -1.1249 -0.3358  0.7645
15439TIP3    H267809   5.535   3.945  16.592  0.6715  0.1044 -0.9730
15440TIP3   OH267810   4.633   5.437   1.230 -0.9900 -0.0715 -0.2932
15440TIP3    H167811   4.664   5.419   1.319 -0.8854 -1.0482 -0.5160
15440TIP3    H267812   4.693   5.388   1.173 -1.1242  0.4492 -0.9056
15441TIP3   OH267813   2.135   4.268  14.232 -0.2455  0.0410 -0.2232
15441TIP3    H167814   2.116   4.322  14.155 -0.3943 -0.2359 -0.3815
15441TIP3    H267815   2.067   4.290  14.294  0.2181  0.7112  0.0625
15442TIP3   OH267816   5.610   3.933   0.237 -0.0343  0.1491 -0.5983
15442TIP3    H167817   5.628   3.900   0.325 -1.3844 -2.2727 -1.1381
15442TIP3    H267818   5.665   3.880   0.180  0.1842  1.1108 -1.2970
15443TIP3   OH267819   2.981   2.478   5.584  0.8198 -0.4684  0.5205
15443TIP3    H167820   3.056   2.525   5.546  0.0632  0.8020  0.5535
15443TIP3    H267821   2.998   2.479   5.678 -0.3011  1.7881  0.7391
15444TIP3   OH267822   1.241   3.237  16.319 -0.1010  0.1418 -0.0191
15444TIP3    H167823   1.193   3.310  16.360  0.0162  0.5637 -0.6179
15444TIP3    H267824   1.215   3.240  16.227 -0.0928 -0.5805 -0.0483
15445TIP3   OH267825   1.721   3.727  12.631  0.0097  0.3742 -0.1528
15445TIP3    H167826   1.688   3.762  12.714  1.8373 -0.8600  1.1881
15445TIP3    H267827   1.778   3.796  12.597 -0.3014  0.6641 -0.0918
15446TIP3   OH267828   4.805   6.468  13.958 -0.0581 -0.0035 -0.6752
15446TIP3    H167829   4.738   6.421  13.907 -1.9420 -1.1022  2.5395
15446TIP3    H267830   4.760   6.547  13.988  1.2419  0.9676 -1.1954
15447TIP3   OH267831   3.717   6.116  11.873  0.3093  0.5524 -0.2076
15447TIP3    H167832   3.783   6.083  11.811  0.1320  1.2421 -0.7895
15447TIP3    H267833   3.674   6.038  11.907  0.7669  0.1369 -0.5697
15448TIP3   OH267834   0.198   0.683  14.542  0.6442 -0.0923  0.2105
15448TIP3    H167835   0.251   0.761  14.550  1.0203  0.0360 -2.4101
15448TIP3    H267836   0.121   0.711  14.492  0.5550 -1.2654 -0.3600
15449TIP3   OH267837   1.653   5.263   1.281  0.2657  0.0554 -0.0730
15449TIP3    H167838   1.715   5.194   1.257 -1.7296 -1.5104 -0.9924
15449TIP3    H267839   1.602   5.278   1.201 -1.2502  0.5023  0.9399
15450TIP3   OH267840   6.585   2.332   3.408  0.1105  0.3286 -0.2748
15450TIP3    H167841   6.586   2.270   3.481  0.7898 -0.1948 -0.7178
15450TIP3    H267842   6.546   2.411   3.445 -1.1258 -0.4641  0.2045
15451TIP3   OH267843   1.647   5.128   6.529  0.1650 -0.3487  0.1493
15451TIP3    H167844   1.653   5.033   6.543 -1.4393 -0.3003  1.5210
15451TIP3    H267845   1.557   5.150   6.554  0.2677  1.4357 -0.8742
15452TIP3   OH267846   0.299   1.419  16.307  0.0179 -0.2476  0.4642
15452TIP3    H167847   0.266   1.433  16.396 -1.6833  0.2075 -0.1812
15452TIP3    H267848   0.262   1.335  16.281 -2.5862  1.2403 -1.0410
15453TIP3   OH267849   1.309   4.983  15.798 -0.8404  0.1229 -0.3532
15453TIP3    H167850   1.346   4.962  15.883  0.9132  0.2510 -1.0520
15453TIP3    H267851   1.333   4.909  15.742 -1.2322  0.4351 -0.9556
15454TIP3   OH267852   2.802   1.195  14.115 -0.7099  0.5110  0.4735
15454TIP3    H167853   2.756   1.279  14.123 -2.0228 -0.2224  0.9663
15454TIP3    H267854   2.836   1.178  14.202 -2.6124 -0.6262  1.0502
15455TIP3   OH267855   0.658   4.943   3.939 -0.7967  0.0853  0.3596
15455TIP3    H167856   0.625   4.875   3.882 -1.0789 -0.3115  0.9870
15455TIP3    H267857   0.585   4.964   3.997 -1.0293  1.6068 -0.4359
15456TIP3   OH267858   0.135   1.874   2.083 -0.2297  0.0340  0.1622
15456TIP3    H167859   0.153   1.853   1.991  1.5186  2.1058 -0.0619
15456TIP3    H267860   0.042   1.855   2.094 -0.9571  1.4009 -2.5927
15457TIP3   OH267861   3.066   4.244  16.408 -0.0291 -0.4225 -0.1270
15457TIP3    H167862   3.118   4.294  16.471  2.5037 -2.5116 -0.3997
15457TIP3    H267863   3.112   4.256  16.325  0.1642 -2.4717 -0.3553
15458TIP3   OH267864   0.345   2.766  11.787 -0.4840 -0.4052 -0.0279
15458TIP3    H167865   0.391   2.750  11.705  0.5185 -1.1505  0.6616
15458TIP3    H267866   0.383   2.847  11.821 -0.7748 -0.1934 -0.1945
15459TIP3   OH267867   2.699   0.443  10.918 -0.3667 -0.2140 -0.0499
15459TIP3    H167868   2.756   0.460  10.993  0.0721 -2.1867  0.1180
15459TIP3    H267869   2.628   0.507  10.927  1.0790  1.4121  0.4754
15460TIP3   OH267870   2.257   5.455  15.766 -0.1449 -0.0379 -0.5477
15460TIP3    H167871   2.241   5.447  15.672 -0.2932 -2.4869 -0.3773
15460TIP3    H267872   2.205   5.385  15.806  2.5559 -1.3428  0.9906
15461TIP3   OH267873   2.358   1.732  16.228  0.2176 -0.1446 -0.4812
15461TIP3    H167874   2.303   1.760  16.155 -0.4955  0.4837  0.2757
15461TIP3    H267875   2.431   1.794  16.229 -0.1812  0.3190 -0.1829
15462TIP3   OH267876   2.825   5.235   1.282 -0.3255  0.1986  0.2012
15462TIP3    H167877   2.840   5.301   1.214 -0.0396  1.0904  1.0969
15462TIP3    H267878   2.903   5.180   1.280 -0.4471  0.0320 -0.3698
15463TIP3   OH267879   5.260   4.913   0.228  0.3383 -0.6227 -0.3987
15463TIP3    H167880   5.175   4.939   0.191  0.4374  2.9565  1.3775
15463TIP3    H267881   5.239   4.843   0.290 -1.7176  1.2106  1.1643
15464TIP3   OH267882   4.334   3.344   1.431  0.4028 -0.1064  0.3464
15464TIP3    H167883   4.406   3.281   1.428 -0.0538 -0.5987 -1.9001
15464TIP3    H267884   4.257   3.294   1.403  0.0021  1.4008 -1.3844
15465TIP3   OH267885   0.392   3.274  11.511  0.4926  0.6981  0.3015
15465TIP3    H167886   0.401   3.226  11.594  0.2205 -0.3106 -0.2346
15465TIP3    H267887   0.425   3.361  11.530  0.7148  0.3888  1.3973
15466TIP3   OH267888   2.253   1.988   5.612  0.0259  0.3991  0.4650
15466TIP3    H167889   2.300   1.920   5.564 -1.3948 -0.4060  0.1496
15466TIP3    H267890   2.176   1.943   5.647 -0.9373  1.8435  0.2777
15467TIP3   OH267891   2.926   0.923   3.578  0.6761  0.0462  0.1909
15467TIP3    H167892   2.903   0.963   3.662 -2.7341 -1.0018 -0.1328
15467TIP3    H267893   2.967   0.840   3.601  2.7292  1.1432  0.7674
15468TIP3   OH267894   6.333   0.287   5.076 -0.4334 -0.6486 -0.2945
15468TIP3    H167895   6.382   0.222   5.126 -2.1663 -2.0653 -0.3331
15468TIP3    H267896   6.242   0.276   5.105 -0.7527  2.0801  0.0013
15469TIP3   OH267897   5.432   5.166   5.338 -0.4524  0.3536  0.0411
15469TIP3    H167898   5.464   5.196   5.253  0.2111  0.4305  0.3078
15469TIP3    H267899   5.500   5.192   5.400 -1.1225  0.6721  0.6596
15470TIP3   OH267900   2.904   5.457   2.555  0.1235 -0.4644  0.6230
15470TIP3    H167901   2.939   5.545   2.572 -1.0090 -0.1303  1.2831
15470TIP3    H267902   2.845   5.440   2.628 -0.6607 -1.2505 -0.1702
15471TIP3   OH267903   1.149   1.183   0.928 -0.4728 -0.4423 -0.3953
15471TIP3    H167904   1.121   1.177   0.837 -3.3409  1.5661  0.2437
15471TIP3    H267905   1.131   1.096   0.964  1.1993 -1.4319 -1.7710
15472TIP3   OH267906   5.643   2.335   5.303 -0.6901 -0.1017  0.1198
15472TIP3    H167907   5.718   2.393   5.290 -0.3779 -0.0043  2.1502
15472TIP3    H267908   5.566   2.391   5.294 -0.3963  0.6388  1.8761
15473TIP3   OH267909   2.425   2.749   5.969  0.3580  0.3141  0.2145
15473TIP3    H167910   2.353   2.701   5.928 -0.9864  1.9034  0.6139
15473TIP3    H267911   2.388   2.781   6.051  0.8740  2.7723 -0.4359
15474TIP3   OH267912   2.157   3.305   6.120  0.3486 -1.3348  0.2673
15474TIP3    H167913   2.220   3.240   6.089  0.3214 -0.4716 -1.7843
15474TIP3    H267914   2.204   3.389   6.116  0.0752 -1.0687  1.8998
15475TIP3   OH267915   3.017   4.779  10.958  0.1880  0.0287 -0.8349
15475TIP3    H167916   3.038   4.832  10.881 -2.1767 -1.2248 -2.4469
15475TIP3    H267917   2.968   4.705  10.924 -1.5606 -0.2394  1.9684
15476TIP3   OH267918   3.317   2.529   3.456  0.3524  0.0641  0.4473
15476TIP3    H167919   3.302   2.466   3.385 -0.2090  0.5617  0.1145
15476TIP3    H267920   3.292   2.613   3.419  1.0336  0.4801  0.9151
15477TIP3   OH267921   4.200   5.242   0.181 -0.4665  0.1541  0.6419
15477TIP3    H167922   4.179   5.329   0.215  1.8679  0.4510  1.5052
15477TIP3    H267923   4.295   5.241   0.175 -0.5355 -1.6395 -1.3533
15478TIP3   OH267924   5.300   4.744  13.679  0.0161 -0.0557 -0.0805
15478TIP3    H167925   5.254   4.689  13.616  0.6205 -0.4654 -0.1690
15478TIP3    H267926   5.392   4.737  13.655  0.2159  0.0832  0.6204
15479TIP3   OH267927   2.379   0.161  14.163  0.1128  0.4925  0.2367
15479TIP3    H167928   2.424   0.216  14.227  0.2658  0.6508 -0.0048
15479TIP3    H267929   2.310   0.217  14.127  1.8154  1.4259 -1.8380
15480TIP3   OH267930   0.434   1.408  13.730 -0.3101  0.1378 -0.1362
15480TIP3    H167931   0.482   1.375  13.806  1.1593 -0.3502 -1.2343
15480TIP3    H267932   0.365   1.343  13.714  0.5740 -0.7741 -0.3569
15481TIP3   OH267933   3.848   0.222  10.942 -0.0776  0.0107 -0.0695
15481TIP3    H167934   3.824   0.313  10.955 -1.0014 -0.3485  0.8817
15481TIP3    H267935   3.944   0.221  10.951 -0.2580  0.4450  3.1902
15482TIP3   OH267936   0.044   2.152  14.473 -0.5708  0.0769 -0.3340
15482TIP3    H167937  -0.004   2.077  14.438 -0.7551 -0.0831  0.2492
15482TIP3    H267938  -0.009   2.228  14.450 -2.1351 -0.2286  1.9276
15483TIP3   OH267939   6.023   2.709   3.602 -0.0009  0.1087  0.1676
15483TIP3    H167940   6.094   2.761   3.639 -0.6725  0.7623  0.5658
15483TIP3    H267941   6.055   2.618   3.606  1.7634  0.5628 -1.8198
15484TIP3   OH267942   4.292   2.949   3.594  0.6773  0.4294 -0.1295
15484TIP3    H167943   4.223   2.953   3.528  1.5687  0.9376 -1.0688
15484TIP3    H267944   4.355   2.885   3.559  0.2217 -0.7891  1.1954
15485TIP3   OH267945   6.695   3.554   3.124  0.1835  0.4092 -0.3456
15485TIP3    H167946   6.755   3.481   3.135  0.2362  0.4395 -0.4317
15485TIP3    H267947   6.734   3.607   3.054 -0.1303  0.2345 -0.6603
15486TIP3   OH267948   2.226   4.996   4.426  0.1857  0.1687 -0.1666
15486TIP3    H167949   2.132   5.013   4.440  0.2346  0.7475 -0.4963
15486TIP3    H267950   2.235   4.901   4.435 -0.5780  0.0141 -0.9394
15487TIP3   OH267951   5.155   0.453   2.820 -0.7144 -0.5637 -0.8428
15487TIP3    H167952   5.192   0.517   2.759  0.6037 -0.3918  0.0879
15487TIP3    H267953   5.145   0.501   2.902 -0.0147 -1.4440 -0.2191
15488TIP3   OH267954   1.414   0.094   4.870 -0.3209 -0.0502  0.5934
15488TIP3    H167955   1.473   0.164   4.897 -1.8638  0.7656  2.0712
15488TIP3    H267956   1.449   0.015   4.911 -0.6513  0.5653  2.1448
15489TIP3   OH267957   0.224   5.608   0.086 -0.0112 -0.5326 -0.5592
15489TIP3    H167958   0.154   5.643   0.031 -0.2937 -0.4074 -0.1224
15489TIP3    H267959   0.304   5.649   0.052 -0.5019  1.9440  1.0234
15490TIP3   OH267960   1.211   0.080  15.915  0.0853  0.1757  0.0233
15490TIP3    H167961   1.202   0.038  16.000 -1.0411 -0.2580 -0.2773
15490TIP3    H267962   1.239   0.170  15.934 -1.2106  0.4125  0.9380
15491TIP3   OH267963   0.950   1.209   3.017  0.2897 -0.3267 -0.1192
15491TIP3    H167964   1.034   1.202   3.062  0.1124  0.3785  0.3306
15491TIP3    H267965   0.916   1.294   3.042 -1.8011 -1.6229  1.8466
15492TIP3   OH267966   6.085   2.093  11.118 -0.2873 -0.3314  0.5285
15492TIP3    H167967   6.118   2.180  11.093 -0.1217 -0.2386  1.0619
15492TIP3    H267968   6.057   2.054  11.035 -0.1259  0.1306  0.2491
15493TIP3   OH267969   0.787   3.139  11.513  0.0018 -0.1351 -0.3903
15493TIP3    H167970   0.764   3.056  11.554  0.2075  0.6113  1.3353
15493TIP3    H267971   0.728   3.147  11.439  0.6720 -2.2822 -1.2259
15494TIP3   OH267972   3.774   1.779   3.658 -0.3966 -0.0842  0.2094
15494TIP3    H167973   3.679   1.769   3.654 -0.7170  2.5813 -1.4092
15494TIP3    H267974   3.788   1.867   3.692  1.5363 -0.5829  0.8654
15495TIP3   OH267975   5.041   0.531   1.978  0.4474  0.3387 -0.0729
15495TIP3    H167976   5.013   0.468   1.912  0.9877  0.1855 -0.1688
15495TIP3    H267977   4.975   0.599   1.977  0.9565  0.8500 -1.4749
15496TIP3   OH267978   6.243   3.785   6.663 -0.3169  0.0464  0.4936
15496TIP3    H167979   6.220   3.726   6.591 -0.6312  0.1086  0.5403
15496TIP3    H267980   6.162   3.792   6.714  0.1100 -0.6152  1.2931
15497TIP3   OH267981   3.833   0.918   6.056 -0.5275 -0.3525  0.8737
15497TIP3    H167982   3.898   0.987   6.039 -0.4502 -0.9610 -1.5820
15497TIP3    H267983   3.870   0.869   6.129  1.0106  0.2585  0.5481
15498TIP3   OH267984   5.450   4.009  10.274  0.6292 -0.0071 -0.2044
15498TIP3    H167985   5.387   4.070  10.312  1.5977  0.4694  0.6974
15498TIP3    H267986   5.446   4.026  10.180  0.8680  1.4588  0.0220
15499TIP3   OH267987   1.961   4.116  11.026  0.3044 -0.3503 -0.6051
15499TIP3    H167988   2.024   4.187  11.016  1.0663 -0.8352  0.5149
15499TIP3    H267989   2.000   4.042  10.980  0.0880 -0.3754 -0.7472
15500TIP3   OH267990   2.889   0.940  14.271  0.3720  0.1805 -0.2782
15500TIP3    H167991   2.860   1.026  14.302  1.1860  0.0524  0.8962
15500TIP3    H267992   2.923   0.897  14.349 -0.3056 -1.3415 -0.7930
15501TIP3   OH267993   1.765   5.549   5.450 -0.0417  0.6022 -0.0736
15501TIP3    H167994   1.698   5.553   5.519  0.5297 -0.7848  0.6028
15501TIP3    H267995   1.724   5.495   5.382 -0.1216  0.9220 -0.2844
15502TIP3   OH267996   6.396   0.435  12.692  0.5336  0.2152  0.1327
15502TIP3    H167997   6.309   0.452  12.728 -0.2012 -0.7041 -1.1083
15502TIP3    H267998   6.447   0.401  12.766 -0.7501 -1.0773  0.4721
15503TIP3   OH267999   5.008   5.021  12.949  0.0071 -0.1613 -0.0431
15503TIP3    H168000   5.004   4.933  12.911 -1.5128 -0.0199 -0.2738
15503TIP3    H268001   4.991   5.080  12.875 -1.8870  0.1686  0.5899
15504TIP3   OH268002   3.004   4.519  13.933 -0.5605  0.0202  0.3221
15504TIP3    H168003   3.032   4.597  13.981  0.8826  1.2171 -2.2270
15504TIP3    H268004   2.952   4.553  13.859  0.1205 -1.3848 -0.8639
15505TIP3   OH268005   2.845   0.176   0.737  0.2446 -0.0115  0.3841
15505TIP3    H168006   2.840   0.112   0.808  1.1464 -0.8803 -0.3092
15505TIP3    H268007   2.778   0.148   0.675 -0.0254  0.3029  0.5288
15506TIP3   OH268008   3.398   4.725   1.875  0.4582  0.3116  0.2048
15506TIP3    H168009   3.454   4.772   1.937  2.0183 -0.1351 -0.8388
15506TIP3    H268010   3.456   4.663   1.832 -0.8351 -0.1292 -0.9578
15507TIP3   OH268011   2.831   4.038  11.487 -0.1348  0.5497 -0.3898
15507TIP3    H168012   2.815   3.955  11.442 -1.0335  0.5746 -0.1221
15507TIP3    H268013   2.926   4.037  11.504 -0.1727 -0.5708 -0.0991
15508TIP3   OH268014   2.333   2.054  13.578 -0.0712 -0.4867 -0.0493
15508TIP3    H168015   2.348   2.025  13.667 -0.5326 -2.2204 -0.5075
15508TIP3    H268016   2.238   2.066  13.572 -0.0638 -0.5585 -0.3529
15509TIP3   OH268017   1.531   2.617  13.766  0.2354 -0.3736  0.5916
15509TIP3    H168018   1.487   2.700  13.785 -0.4113 -0.8754  1.3319
15509TIP3    H268019   1.605   2.615  13.827  0.8553  0.1088 -0.1192
15510TIP3   OH268020   4.817   6.129   1.608  0.2198 -0.5390 -0.4240
15510TIP3    H168021   4.863   6.057   1.651  0.5914  0.1734  0.3866
15510TIP3    H268022   4.779   6.089   1.529 -2.1091 -2.3714  1.4885
15511TIP3   OH268023   6.595   4.788   0.736 -0.2058 -0.2816  0.0936
15511TIP3    H168024   6.599   4.850   0.663 -1.6005  0.6008  0.7185
15511TIP3    H268025   6.635   4.834   0.809 -0.7472 -0.3213  0.4217
15512TIP3   OH268026   0.973   3.354  10.514  0.0365 -0.0341 -0.3196
15512TIP3    H168027   1.004   3.275  10.559 -2.5754 -1.0503 -0.1149
15512TIP3    H268028   0.960   3.418  10.584  0.2888 -0.0801 -0.2296
15513TIP3   OH268029   0.200   5.176  15.031  0.3456 -0.8107 -0.2121
15513TIP3    H168030   0.234   5.090  15.008  0.3145 -0.4433 -1.7454
15513TIP3    H268031   0.116   5.159  15.073  0.9492 -1.5740  0.7276
15514TIP3   OH268032   2.828   5.613  11.735 -0.9523  0.9703  0.2188
15514TIP3    H168033   2.842   5.630  11.642 -2.5749  0.2364 -0.1938
15514TIP3    H268034   2.913   5.582  11.767 -0.5262  0.6614 -1.1534
15515TIP3   OH268035   1.417   1.126   0.929 -0.0907 -0.1340  0.0008
15515TIP3    H168036   1.342   1.152   0.983 -1.4685  0.2243 -1.9729
15515TIP3    H268037   1.452   1.209   0.897  1.5804 -0.2612  1.3901
15516TIP3   OH268038   2.144   1.177   3.563 -0.1265  0.0838 -0.2705
15516TIP3    H168039   2.217   1.116   3.570 -1.6046 -1.6373  1.1539
15516TIP3    H268040   2.184   1.259   3.534  2.5256 -0.4681  1.4796
15517TIP3   OH268041   2.911   4.110   1.998  0.2765  0.3589 -0.4884
15517TIP3    H168042   2.844   4.179   1.991 -1.1542 -0.8053  0.9295
15517TIP3    H268043   2.866   4.037   2.039  2.2677 -0.7549 -0.1527
15518TIP3   OH268044   4.354   3.477  11.105  0.2997 -0.0327 -0.1035
15518TIP3    H168045   4.332   3.467  11.012 -1.3593 -1.9568  0.4067
15518TIP3    H268046   4.371   3.570  11.116 -1.5724  0.6141 -1.9448
15519TIP3   OH268047   2.325   5.749  13.750 -0.2196  0.6676 -0.6157
15519TIP3    H168048   2.268   5.700  13.810  3.1080 -0.0495  2.3610
15519TIP3    H268049   2.290   5.838  13.750 -0.3636  0.7488  2.7230
15520TIP3   OH268050   0.928   3.798  11.109  0.3044  0.0059  0.3563
15520TIP3    H168051   0.972   3.722  11.146  0.7710 -0.2602 -0.6985
15520TIP3    H268052   0.842   3.798  11.151  0.0740 -1.4496 -0.0366
15521TIP3   OH268053   3.379   2.484  15.491 -0.3771  0.0285 -0.0351
15521TIP3    H168054   3.352   2.570  15.522  0.4707 -0.0457  0.9585
15521TIP3    H268055   3.472   2.478  15.515 -0.5114 -1.2975  0.2214
15522TIP3   OH268056   1.067   2.897   3.296  0.0745 -0.4999  0.1665
15522TIP3    H168057   1.061   2.826   3.232 -1.3549  2.3633 -3.1706
15522TIP3    H268058   1.137   2.953   3.264 -0.2914  0.7525  1.4422
15523TIP3   OH268059   6.071   1.030  10.873  0.1300  0.4511 -0.1781
15523TIP3    H168060   5.978   1.038  10.854  0.3704  1.3017 -1.1031
15523TIP3    H268061   6.094   0.941  10.847 -0.3458  0.3558 -0.2694
15524TIP3   OH268062   4.782   1.220  12.508  0.6264 -0.7409  0.4910
15524TIP3    H168063   4.748   1.277  12.577  1.6179 -0.6398  0.9254
15524TIP3    H268064   4.876   1.213  12.527  1.1026 -0.0211 -1.3307
15525TIP3   OH268065   1.286   6.736   4.642  0.1191  0.3997 -0.2856
15525TIP3    H168066   1.323   6.821   4.667 -1.2563  1.0261 -0.2710
15525TIP3    H268067   1.282   6.740   4.546  3.0484 -0.9927 -0.5766
15526TIP3   OH268068   5.905   6.064   4.936  0.0852 -0.0289 -0.1999
15526TIP3    H168069   5.942   6.045   5.022 -0.3827 -0.2326 -0.0400
15526TIP3    H268070   5.899   6.159   4.933 -1.3465 -0.0713  0.6213
15527TIP3   OH268071   0.895   2.564   0.123  0.1833 -0.0540 -0.4378
15527TIP3    H168072   0.963   2.626   0.151  1.3777 -1.2587 -0.5899
15527TIP3    H268073   0.873   2.516   0.203 -2.0244  1.6804  0.0925
15528TIP3   OH268074   4.872   3.954   5.998  0.2498 -0.3337  0.1849
15528TIP3    H168075   4.916   4.011   5.935 -1.4752  0.0294 -0.7494
15528TIP3    H268076   4.867   3.869   5.954  0.7801 -0.6081  0.6426
15529TIP3   OH268077   4.445   0.068   3.363 -0.0468 -0.1180  0.0012
15529TIP3    H168078   4.432  -0.013   3.411  1.3963  0.3053  1.1730
15529TIP3    H268079   4.432   0.137   3.429 -2.2348  0.6901 -1.1768
15530TIP3   OH268080   4.839   1.071   3.857  0.5406 -0.5459 -0.3194
15530TIP3    H168081   4.869   1.107   3.941 -2.4971  0.5276  0.4212
15530TIP3    H268082   4.868   1.135   3.792 -0.3443  0.6134  0.3924
15531TIP3   OH268083   3.087   0.558  10.917 -0.0557 -0.0486 -0.1223
15531TIP3    H168084   3.067   0.651  10.912  0.2570  0.0404  0.2137
15531TIP3    H268085   3.143   0.541  10.841  0.3381  0.1575  0.1186
15532TIP3   OH268086   5.543   3.019  16.346 -0.0806  0.0791 -0.6683
15532TIP3    H168087   5.513   2.929  16.333  0.1429  0.0299 -0.8347
15532TIP3    H268088   5.610   3.012  16.414 -0.6346  0.2240 -0.0979
15533TIP3   OH268089   3.985   1.009  16.885  0.7707 -0.4332 -0.1371
15533TIP3    H168090   4.008   0.973  16.800  1.2344  0.6439 -0.4781
15533TIP3    H268091   4.068   1.015  16.932  0.3759 -2.2772  0.9309
15534TIP3   OH268092   5.614   0.821  13.932 -0.4061  0.7488  0.2880
15534TIP3    H168093   5.607   0.821  14.027 -1.6533 -0.1360  0.2271
15534TIP3    H268094   5.540   0.875  13.903  1.0968  2.6800 -0.1659
15535TIP3   OH268095   3.923   3.293  13.165  0.0179 -0.1955  0.5009
15535TIP3    H168096   3.946   3.319  13.076 -0.2335 -2.3570 -0.2618
15535TIP3    H268097   3.865   3.218  13.154 -0.9661  0.2018  2.4986
15536TIP3   OH268098   3.151   6.027  12.193  0.2461  0.3228 -0.1512
15536TIP3    H168099   3.175   6.023  12.286 -0.3382  0.9367  0.0397
15536TIP3    H268100   3.218   6.083  12.154  1.4978 -1.3292 -0.4626
15537TIP3   OH268101   0.915   3.110  13.929 -0.2125  0.0901  0.5210
15537TIP3    H168102   0.945   3.020  13.943  0.1334  0.2399  0.7357
15537TIP3    H268103   0.892   3.142  14.016 -0.2409  0.2466  0.4574
15538TIP3   OH268104   3.183   2.397  11.529  0.2874  0.0591  0.5753
15538TIP3    H168105   3.261   2.441  11.493  0.0017 -0.7507 -1.1226
15538TIP3    H268106   3.218   2.320  11.575  0.8015  1.9270  3.6459
15539TIP3   OH268107   6.594   1.923  14.992 -0.5914  0.2463  0.4696
15539TIP3    H168108   6.658   1.979  14.946 -1.2145 -1.0075 -2.0786
15539TIP3    H268109   6.645   1.845  15.017 -0.7511 -0.0556 -0.1341
15540TIP3   OH268110   5.063   6.156   5.470 -0.1470  0.1482 -0.0011
15540TIP3    H168111   5.115   6.236   5.471 -3.3954  2.5345 -1.7215
15540TIP3    H268112   5.010   6.161   5.549 -2.3336  1.3137 -1.4312
15541TIP3   OH268113   3.001   1.119   4.768 -0.2373  0.2743  0.1104
15541TIP3    H168114   3.059   1.193   4.789  2.4726 -1.5795 -0.3392
15541TIP3    H268115   2.958   1.146   4.687  1.3497  1.0748 -0.5176
15542TIP3   OH268116   5.769   2.125  15.944 -0.7236 -0.0204  0.2345
15542TIP3    H168117   5.834   2.173  15.893 -0.4044 -1.0192 -0.3260
15542TIP3    H268118   5.808   2.116  16.031 -0.1469 -0.5149 -0.0653
15543TIP3   OH268119   3.125   4.296   3.990  0.7755  0.0367  0.0318
15543TIP3    H168120   3.121   4.320   3.897 -0.1559  3.9396  0.9034
15543TIP3    H268121   3.125   4.200   3.990  0.4753 -0.1235 -3.9640
15544TIP3   OH268122   4.002   0.875  13.745  0.3495  0.0184  0.4224
15544TIP3    H168123   3.984   0.801  13.802 -0.4470 -0.0279  0.1269
15544TIP3    H268124   4.087   0.909  13.774 -0.1453  0.1308  1.7771
15545TIP3   OH268125   3.086   3.768   3.861  0.1242  0.2145  0.6996
15545TIP3    H168126   3.122   3.849   3.896  0.2926 -0.5504  2.4272
15545TIP3    H268127   3.163   3.714   3.842 -0.0062 -0.3582  1.7055
15546TIP3   OH268128   5.139   3.494  14.081 -0.4445  0.3099  0.6573
15546TIP3    H168129   5.145   3.515  14.174  0.6080 -0.0304  0.6742
15546TIP3    H268130   5.227   3.508  14.048 -0.6844 -0.1242 -0.1788
15547TIP3   OH268131   2.831   6.491   0.048 -0.3320  0.0642  0.1171
15547TIP3    H168132   2.739   6.504   0.069 -0.8839 -2.0367 -0.6728
15547TIP3    H268133   2.847   6.545  -0.029 -1.0461  0.0940 -0.0129
15548TIP3   OH268134   2.388   2.968   1.292  0.4993 -0.6131 -0.2420
15548TIP3    H168135   2.315   2.918   1.254 -0.1669 -0.7456  1.1401
15548TIP3    H268136   2.346   3.031   1.351  1.5135 -1.5626  1.5950
15549TIP3   OH268137   1.619   1.918   3.599 -0.0593  0.3762 -0.3031
15549TIP3    H168138   1.541   1.912   3.544 -0.6864  1.4146  0.4404
15549TIP3    H268139   1.586   1.924   3.688  0.8956  0.1033  0.0823
15550TIP3   OH268140   5.917   3.164  14.776  0.2903  0.1243  0.3184
15550TIP3    H168141   5.918   3.245  14.725 -0.3621 -0.4133 -0.5894
15550TIP3    H268142   5.989   3.174  14.838  1.9414  0.3022 -1.5336
15551TIP3   OH268143   0.065   4.455   5.037  0.8659 -0.1475 -0.1812
15551TIP3    H168144   0.032   4.397   5.105  0.2850  1.0344  0.5789
15551TIP3    H268145  -0.002   4.523   5.028  1.8335  0.7886 -0.5598
15552TIP3   OH268146   0.195   0.514   3.459 -0.2957 -0.3539 -0.1748
15552TIP3    H168147   0.268   0.490   3.401  1.6013  1.8816  1.1290
15552TIP3    H268148   0.232   0.512   3.547 -1.6708  1.2863  0.4956
15553TIP3   OH268149   1.272   1.123   3.403  0.3316  0.3679 -0.1035
15553TIP3    H168150   1.340   1.066   3.367 -0.6861 -3.1816  2.9648
15553TIP3    H268151   1.300   1.140   3.493 -2.4607 -0.7279  1.0743
15554TIP3   OH268152   5.045   5.667   5.333 -0.5024 -0.3728 -0.0190
15554TIP3    H168153   5.106   5.647   5.262 -0.6696 -3.1345  0.4971
15554TIP3    H268154   5.084   5.626   5.411 -2.4735 -1.3963  0.5164
15555TIP3   OH268155   1.333   1.103   5.103 -0.5517 -1.1675  0.2461
15555TIP3    H168156   1.372   1.043   5.167  1.4416 -1.4444 -1.1598
15555TIP3    H268157   1.376   1.187   5.120  0.4538 -1.3897 -1.0994
15556TIP3   OH268158   0.037   2.273  16.879  0.3158  0.1228  0.8973
15556TIP3    H168159   0.039   2.237  16.791 -0.1400 -0.0602  0.9549
15556TIP3    H268160  -0.025   2.216  16.926  0.9817 -0.1321  1.4829
15557TIP3   OH268161   2.202   2.117  11.373  0.1836 -0.3442 -0.4464
15557TIP3    H168162   2.138   2.057  11.412 -1.1332  0.9156 -0.6066
15557TIP3    H268163   2.155   2.200  11.363  1.9563  0.7485 -0.1950
15558TIP3   OH268164   2.200   4.141  14.620 -0.2743  0.0218 -0.1568
15558TIP3    H168165   2.194   4.091  14.538  1.0990  1.4584 -1.2050
15558TIP3    H268166   2.294   4.144  14.638 -0.4948  0.5388  0.9555
15559TIP3   OH268167   5.656   3.543   2.020 -0.7018  0.1761  0.1518
15559TIP3    H168168   5.649   3.594   1.939 -0.9619 -0.0165  0.0489
15559TIP3    H268169   5.572   3.557   2.064 -1.9374 -2.3319 -1.1810
15560TIP3   OH268170   2.614   2.167  12.129 -0.3896  0.1887 -0.3209
15560TIP3    H168171   2.600   2.231  12.199  0.0347 -0.9285  0.8015
15560TIP3    H268172   2.526   2.144  12.100 -0.7338 -1.5343  1.8934
15561TIP3   OH268173   2.065   3.653   4.005  0.3816  0.0595 -0.7886
15561TIP3    H168174   2.128   3.707   4.055 -0.0161 -0.7616  0.6560
15561TIP3    H268175   2.022   3.715   3.946  0.0248  1.3266  0.7375
15562TIP3   OH268176   0.951   4.380  13.587 -0.9238  0.1668  0.4269
15562TIP3    H168177   0.950   4.342  13.500 -0.4530  0.8943  0.0907
15562TIP3    H268178   0.861   4.370  13.619 -1.1066 -0.0722 -0.1539
15563TIP3   OH268179   5.509   1.630  13.184  0.2509 -0.5735  0.4730
15563TIP3    H168180   5.595   1.597  13.210 -0.3175  0.0028  3.3912
15563TIP3    H268181   5.449   1.593  13.249 -1.2234  1.5726  0.4172
15564TIP3   OH268182   4.677   2.824   1.394 -0.2374  0.2150 -0.8391
15564TIP3    H168183   4.671   2.920   1.386 -1.3810  0.1155 -1.3966
15564TIP3    H268184   4.727   2.797   1.317 -1.1207  0.2576 -1.4396
15565TIP3   OH268185   2.070   0.931  15.354  0.5019 -0.1054 -0.3008
15565TIP3    H168186   2.092   0.988  15.281  1.9426  0.1061  0.2699
15565TIP3    H268187   1.984   0.895  15.331  0.5461  0.6004 -1.6851
15566TIP3   OH268188   4.500   3.890  16.503  0.1751  0.5885  0.5055
15566TIP3    H168189   4.583   3.879  16.550 -0.6113 -0.3001  1.7563
15566TIP3    H268190   4.468   3.801  16.490 -0.0740  0.8727 -0.9478
15567TIP3   OH268191   5.991   5.275  16.347 -0.6327  0.0321  0.0137
15567TIP3    H168192   5.902   5.244  16.326 -0.7438  0.2131  0.2142
15567TIP3    H268193   6.007   5.243  16.435  0.8748 -3.0593 -1.2146
15568TIP3   OH268194   1.586   2.230  11.339 -0.6275  0.0947  0.6899
15568TIP3    H168195   1.496   2.237  11.306 -0.7698 -0.2669  1.0069
15568TIP3    H268196   1.598   2.308  11.393  0.1983  1.6849 -1.5988
15569TIP3   OH268197   3.644   4.121  11.327  0.3230  0.2581  0.0404
15569TIP3    H168198   3.644   4.110  11.232 -1.0360 -0.2607  0.0699
15569TIP3    H268199   3.709   4.058  11.358  0.5285  0.1821 -0.5253
15570TIP3   OH268200   3.316   1.707  16.119  0.0820  0.3414  0.4072
15570TIP3    H168201   3.328   1.779  16.058  1.2561  0.4446  0.7336
15570TIP3    H268202   3.222   1.691  16.119 -0.1424  1.5410 -0.0507
15571TIP3   OH268203   0.427   1.051   0.539 -0.5535  0.0069 -0.7939
15571TIP3    H168204   0.355   1.055   0.603 -0.0101  1.2579 -0.2049
15571TIP3    H268205   0.405   1.120   0.476  0.5832  1.0954 -0.0542
15572TIP3   OH268206   3.287   5.585  15.432  0.4831 -0.7956  0.5652
15572TIP3    H168207   3.343   5.656  15.464  0.1041 -0.1974 -0.0501
15572TIP3    H268208   3.302   5.513  15.492  0.9441 -0.2133  1.1631
15573TIP3   OH268209   4.835   5.279  16.103  0.1972 -0.0161 -0.1823
15573TIP3    H168210   4.834   5.374  16.091  1.0992  0.3644  2.1686
15573TIP3    H268211   4.748   5.258  16.137  0.6008  0.3189  1.1437
15574TIP3   OH268212   2.643   0.305  14.665 -0.0907 -0.6238  0.0438
15574TIP3    H168213   2.659   0.306  14.570 -0.8550  1.2531 -0.1077
15574TIP3    H268214   2.718   0.258  14.701  0.6317 -0.6666 -1.4268
15575TIP3   OH268215   6.812   0.058  15.913  0.0221 -0.1172  0.0642
15575TIP3    H168216   6.732   0.024  15.873 -0.4471  2.9760 -2.0255
15575TIP3    H268217   6.793   0.150  15.931  2.7995  0.4984  0.3562
15576TIP3   OH268218   4.845   2.578   0.475 -0.0826 -0.0408 -0.1170
15576TIP3    H168219   4.858   2.631   0.397  2.7653 -1.8349 -1.0175
15576TIP3    H268220   4.931   2.541   0.494 -1.2867 -1.9837  2.1637
15577TIP3   OH268221   5.018   4.849   1.581  0.3685 -0.1046  0.0780
15577TIP3    H168222   4.974   4.765   1.573  0.7393 -0.3251  0.3213
15577TIP3    H268223   4.949   4.914   1.567 -0.5746 -0.4103  2.7807
15578TIP3   OH268224   0.383   2.952   0.259  0.2980  0.2297 -0.0741
15578TIP3    H168225   0.382   2.956   0.163 -0.0982 -0.6782 -0.1177
15578TIP3    H268226   0.430   2.871   0.279 -1.2908 -0.6167  0.4396
15579TIP3   OH268227   0.356   4.965   4.956 -0.0208 -0.1670  0.2205
15579TIP3    H168228   0.351   4.972   4.860  1.2800  0.3824  0.1736
15579TIP3    H268229   0.386   4.876   4.971  2.2143  0.4912 -0.0212
15580TIP3   OH268230   6.091   1.316   6.257  0.5503  0.0858  0.3232
15580TIP3    H168231   6.015   1.261   6.279  1.5401 -1.6739 -0.4009
15580TIP3    H268232   6.060   1.372   6.186  0.0967 -1.1920 -0.5453
15581TIP3   OH268233   2.406   3.720   4.787 -0.3292  0.7366  0.0906
15581TIP3    H168234   2.328   3.694   4.738  0.7360  1.1848 -1.9494
15581TIP3    H268235   2.452   3.639   4.803  0.3138  0.7475 -1.5078
15582TIP3   OH268236   6.280   6.066   3.180 -0.2488  0.2884  0.6045
15582TIP3    H168237   6.264   5.976   3.152 -0.2678  0.4977 -0.0666
15582TIP3    H268238   6.193   6.103   3.192 -0.2469 -0.0956  1.9338
15583TIP3   OH268239   0.827   3.698   2.959  0.5054  0.7862  0.4446
15583TIP3    H168240   0.750   3.747   2.988  0.3900  1.1628 -0.4573
15583TIP3    H268241   0.791   3.622   2.913  0.6728 -0.6023  2.4807
15584TIP3   OH268242   0.020   6.023   3.286  0.1103 -0.4837  0.1644
15584TIP3    H168243   0.042   6.110   3.254  0.2080 -0.0930  1.2416
15584TIP3    H268244   0.045   5.964   3.215  1.6461  0.2170  0.0821
15585TIP3   OH268245   0.878   5.407  14.688  0.3805 -0.6387  0.4915
15585TIP3    H168246   0.823   5.361  14.751  1.6200 -0.3380  1.8579
15585TIP3    H268247   0.886   5.347  14.614  0.4667 -1.8669  1.4599
15586TIP3   OH268248   3.311   2.835   2.487  0.5137 -0.1298  0.4970
15586TIP3    H168249   3.320   2.929   2.476 -1.3905  0.0721  0.2949
15586TIP3    H268250   3.287   2.803   2.400 -0.3616 -0.5595  0.8793
15587TIP3   OH268251   4.541   5.672   5.244 -0.4067 -0.2820  0.2474
15587TIP3    H168252   4.478   5.688   5.314 -2.1360  0.4304 -1.3564
15587TIP3    H268253   4.624   5.705   5.277 -1.3458  0.8029  1.6247
15588TIP3   OH268254   0.357   6.468  14.368 -0.1252 -0.1796 -0.1947
15588TIP3    H168255   0.437   6.448  14.417  0.1195  0.6210 -0.2518
15588TIP3    H268256   0.297   6.397  14.390  0.7373 -1.0084 -0.4602
15589TIP3   OH268257   1.417   2.815   4.162  0.1830 -0.0584 -0.2563
15589TIP3    H168258   1.455   2.882   4.106  1.8489  0.4393  1.3468
15589TIP3    H268259   1.454   2.833   4.249 -1.5980 -1.3017  0.8320
15590TIP3   OH268260   4.478   6.819   1.315 -0.0319 -0.1977 -0.3026
15590TIP3    H168261   4.486   6.914   1.310 -0.0483 -0.1909 -0.1833
15590TIP3    H268262   4.384   6.803   1.325 -0.1980 -0.2809 -1.7859
15591TIP3   OH268263   3.653   1.947   0.926 -0.0499  0.2936  0.3637
15591TIP3    H168264   3.567   1.955   0.884  0.5617  0.1066 -0.9609
15591TIP3    H268265   3.677   2.037   0.947 -0.9884  0.2743  1.6640
15592TIP3   OH268266   1.180   2.644  11.730  0.6389 -0.0844  0.0457
15592TIP3    H168267   1.235   2.670  11.657  0.3603 -1.0005 -0.5033
15592TIP3    H268268   1.104   2.602  11.690  0.0622  0.1782  0.8305
15593TIP3   OH268269   3.596   2.953  12.321  0.4135  0.2145  0.0196
15593TIP3    H168270   3.512   2.984  12.355  0.0020  0.1490 -0.9137
15593TIP3    H268271   3.656   3.026  12.333 -0.5936  1.5495 -2.3823
15594TIP3   OH268272   0.836   2.409  14.406  0.0692  0.2658 -0.4474
15594TIP3    H168273   0.849   2.464  14.483 -0.8554 -0.2166  0.0679
15594TIP3    H268274   0.758   2.445  14.364 -0.4096 -0.5014 -0.2288
15595TIP3   OH268275   3.526   6.407   1.603  0.2386  0.2050  0.4516
15595TIP3    H168276   3.612   6.377   1.630  0.9703  1.8559  0.0670
15595TIP3    H268277   3.539   6.441   1.515 -1.5490 -2.6742 -1.1085
15596TIP3   OH268278   2.413   5.124   5.488  0.5604 -0.2131 -0.0076
15596TIP3    H168279   2.384   5.046   5.536  0.7371 -1.0112 -1.1636
15596TIP3    H268280   2.445   5.183   5.557 -0.3739 -0.7984  0.9594
15597TIP3   OH268281   4.815   3.426   3.262 -0.0284  0.0711  0.0328
15597TIP3    H168282   4.813   3.515   3.226 -1.0394 -0.5828 -1.6199
15597TIP3    H268283   4.723   3.399   3.263  0.5018 -2.3492 -3.2006
15598TIP3   OH268284   0.936   3.380  11.521  0.2239  0.0272  0.1805
15598TIP3    H168285   0.896   3.383  11.434  0.3215  1.3376  0.1479
15598TIP3    H268286   0.909   3.297  11.558 -0.3207 -0.2787 -0.8725
15599TIP3   OH268287   6.632   5.958   4.918  0.4454  0.1099 -0.1243
15599TIP3    H168288   6.712   5.911   4.896  0.6263 -0.3231  1.4010
15599TIP3    H268289   6.615   6.012   4.841  2.4784  0.6077 -0.2829
15600TIP3   OH268290   1.625   1.410  12.556  0.0586  0.2882 -0.4152
15600TIP3    H168291   1.583   1.324  12.554  1.7897 -0.5978 -0.6656
15600TIP3    H268292   1.553   1.472  12.547 -1.5337 -1.0206  2.1141
15601TIP3   OH268293   1.966   3.277  13.077 -0.0697 -0.4243  0.2494
15601TIP3    H168294   1.938   3.345  13.016 -1.1131  0.0405  1.2213
15601TIP3    H268295   1.886   3.229  13.099  0.5034 -1.4052  0.2710
15602TIP3   OH268296   4.561   5.213  15.898  0.0974 -0.5237  0.0777
15602TIP3    H168297   4.656   5.224  15.899 -0.1331  2.1860  0.1552
15602TIP3    H268298   4.533   5.246  15.813 -0.7894 -1.2613  0.0648
15603TIP3   OH268299   5.214   5.983   1.125  0.0504 -0.3910 -0.3901
15603TIP3    H168300   5.264   5.969   1.045 -0.0956 -2.1586 -0.2049
15603TIP3    H268301   5.280   5.986   1.195  0.0945  0.0711 -0.4476
15604TIP3   OH268302   6.326   2.370   1.709 -0.1213 -0.3942  0.2727
15604TIP3    H168303   6.263   2.307   1.673  0.1752 -1.4272  1.5059
15604TIP3    H268304   6.411   2.342   1.674 -0.0374 -0.4312  0.5093
15605TIP3   OH268305   4.423   3.665   3.568  0.5490 -0.0005 -0.6004
15605TIP3    H168306   4.389   3.745   3.607 -0.6714 -0.6148 -0.3687
15605TIP3    H268307   4.361   3.643   3.499 -0.3270 -1.8680  0.7002
15606TIP3   OH268308   4.293   3.800  14.350 -0.7717 -0.1613  0.5728
15606TIP3    H168309   4.381   3.768  14.328  0.5344  2.4820  1.4624
15606TIP3    H268310   4.266   3.748  14.425 -0.7582 -2.1498 -0.7227
15607TIP3   OH268311   5.251   6.644  16.807 -0.5498  0.0437  0.2689
15607TIP3    H168312   5.337   6.639  16.765 -0.5804 -2.9727  0.3268
15607TIP3    H268313   5.207   6.716  16.762  0.8504 -0.4559 -2.1334
15608TIP3   OH268314   3.099   4.801  12.962  0.1962 -0.3551  0.1143
15608TIP3    H168315   3.007   4.780  12.948  0.1925  0.8619 -2.0835
15608TIP3    H268316   3.098   4.879  13.018 -0.0714 -0.4904  0.3003
15609TIP3   OH268317   3.416   2.366   4.937 -0.3073 -0.1203 -0.3814
15609TIP3    H168318   3.390   2.288   4.985  0.5613 -1.0694 -1.3962
15609TIP3    H268319   3.510   2.376   4.954 -0.7879  2.0005  1.4940
15610TIP3   OH268320   4.223   0.914   5.454  0.1984 -0.4015 -0.0109
15610TIP3    H168321   4.256   0.979   5.516  0.9311 -0.6151 -0.1665
15610TIP3    H268322   4.228   0.831   5.501 -0.5790 -0.3747  0.1284
15611TIP3   OH268323   0.696   5.230   5.574 -0.2277 -0.3645  0.0779
15611TIP3    H168324   0.673   5.229   5.667 -0.7360  0.3399 -0.0297
15611TIP3    H268325   0.789   5.252   5.572 -0.7289  2.1092  0.3689
15612TIP3   OH268326   4.845   5.934  11.559  0.1126  0.2262 -0.2280
15612TIP3    H168327   4.875   5.967  11.643  0.5896  1.7207 -0.9439
15612TIP3    H268328   4.750   5.930  11.567  0.1028  1.0503  0.1524
15613TIP3   OH268329   1.381   5.174  13.800 -0.4013 -0.3691 -0.1889
15613TIP3    H168330   1.428   5.094  13.824 -1.2556 -0.5761  0.8218
15613TIP3    H268331   1.438   5.215  13.734  0.4612 -1.3678 -0.1027
15614TIP3   OH268332   6.545   3.801   2.436  0.3729 -0.1924 -0.0812
15614TIP3    H168333   6.468   3.750   2.413  0.6660 -0.6426 -0.0797
15614TIP3    H268334   6.617   3.737   2.438  0.7182  0.1920  0.0643
15615TIP3   OH268335   2.283   0.766   2.408 -0.5998  0.1148  0.6655
15615TIP3    H168336   2.321   0.733   2.326 -0.1147  1.1782  0.4423
15615TIP3    H268337   2.205   0.713   2.421 -0.5352 -0.2547 -0.3450
15616TIP3   OH268338   3.228   4.353  11.497  0.2223  0.6121 -0.8982
15616TIP3    H168339   3.290   4.295  11.453  0.4247  0.2723 -0.1788
15616TIP3    H268340   3.150   4.350  11.441  0.5709  0.4197 -1.3869
15617TIP3   OH268341   3.052   3.095   3.833 -0.1376  0.1374  0.4669
15617TIP3    H168342   3.051   3.180   3.789 -0.7732  0.2263  0.6552
15617TIP3    H268343   3.011   3.111   3.918 -2.0755 -0.7540 -0.2488
15618TIP3   OH268344   2.525   1.528   2.369 -0.4550 -0.6097 -0.6406
15618TIP3    H168345   2.608   1.529   2.416 -0.0404 -1.0000 -1.3473
15618TIP3    H268346   2.458   1.520   2.438  0.1415 -1.3375 -0.1316
15619TIP3   OH268347   0.486   3.142  13.821 -0.0561  0.1685  0.0495
15619TIP3    H168348   0.498   3.065  13.876  0.8821  0.0775 -0.2678
15619TIP3    H268349   0.461   3.107  13.735  0.0053  0.2382  0.0035
15620TIP3   OH268350   3.757   4.229   3.858 -0.5708 -0.4239 -0.1577
15620TIP3    H168351   3.728   4.320   3.858 -1.8771 -0.7945  1.0339
15620TIP3    H268352   3.811   4.220   3.779  0.0307  1.4967 -0.0105
15621TIP3   OH268353   3.419   0.466   3.630  0.1958  0.4793  0.1252
15621TIP3    H168354   3.383   0.552   3.654  0.6351  0.5151  0.6521
15621TIP3    H268355   3.353   0.404   3.659 -0.3283  0.6520 -0.6465
15622TIP3   OH268356   6.109   3.860  12.616  0.4099 -0.0307  0.2322
15622TIP3    H168357   6.074   3.833  12.700 -0.6964 -1.9374 -0.7646
15622TIP3    H268358   6.204   3.854  12.626  0.2793 -0.6388  1.2189
15623TIP3   OH268359   5.904   2.577   0.995 -0.5698  0.8911 -0.0578
15623TIP3    H168360   5.944   2.638   1.058  0.6559 -1.0909  1.1900
15623TIP3    H268361   5.823   2.550   1.036 -0.8737  1.2863 -0.3885
15624TIP3   OH268362   6.434   2.071   1.766  0.1146 -0.1551 -0.2236
15624TIP3    H168363   6.362   2.099   1.823  1.2667 -1.8159  2.2625
15624TIP3    H268364   6.402   1.992   1.724  0.5853 -1.2168  1.3178
15625TIP3   OH268365   2.619   6.501  14.152 -0.4270  0.9568 -0.4980
15625TIP3    H168366   2.684   6.447  14.108 -0.2496  0.4422  0.3618
15625TIP3    H268367   2.572   6.546  14.082  0.5419  0.9750 -1.1505
15626TIP3   OH268368   6.837   6.487   6.441 -0.4378  0.0134  0.5829
15626TIP3    H168369   6.853   6.420   6.374 -1.0831  0.1306  0.3058
15626TIP3    H268370   6.765   6.540   6.406 -1.4591 -0.5157  1.7784
15627TIP3   OH268371   5.323   3.396   3.083  0.5465 -0.2279 -0.3248
15627TIP3    H168372   5.273   3.474   3.105  0.1194 -0.4478 -0.5202
15627TIP3    H268373   5.325   3.394   2.987  1.5601  0.1847 -0.3245
15628TIP3   OH268374   1.891   4.134  13.846 -0.1308  0.1611  0.1906
15628TIP3    H168375   1.878   4.163  13.936 -0.5195  2.6655 -0.5785
15628TIP3    H268376   1.986   4.138  13.833 -0.1367  0.6167  0.2676
15629TIP3   OH268377   1.215   6.374  14.439  0.3296  0.3524 -0.0623
15629TIP3    H168378   1.292   6.327  14.471 -0.0181  0.5900  1.1659
15629TIP3    H268379   1.244   6.465  14.430 -0.2990  0.8696  2.3849
15630TIP3   OH268380   5.310   5.868  16.486  0.2571 -0.4850  0.3286
15630TIP3    H168381   5.320   5.773  16.493 -0.2012 -0.4596  1.7165
15630TIP3    H268382   5.285   5.896  16.574 -0.8768  0.7683 -0.3537
15631TIP3   OH268383   4.193   3.659   4.260 -0.4105 -0.5849  0.3390
15631TIP3    H168384   4.214   3.734   4.204  1.2183 -1.7729 -0.7390
15631TIP3    H268385   4.272   3.646   4.312 -0.2083 -2.2307 -0.3139
15632TIP3   OH268386   4.873   2.629   2.826  0.5615 -0.2777  0.7324
15632TIP3    H168387   4.952   2.649   2.875  1.4182 -2.0806  0.1863
15632TIP3    H268388   4.860   2.535   2.840  0.4310 -0.7109 -1.8638
15633TIP3   OH268389   6.093   2.096  12.033 -0.4065 -0.3431 -0.3066
15633TIP3    H168390   6.044   2.034  12.086  0.4927 -0.7318  0.0947
15633TIP3    H268391   6.149   2.041  11.978  2.0716  0.0664  1.6385
15634TIP3   OH268392   6.270   1.408  12.420  0.3067 -0.2232  0.1752
15634TIP3    H168393   6.191   1.455  12.447  1.2136  2.2219 -1.1142
15634TIP3    H268394   6.238   1.324  12.388 -1.7554  0.5467  0.0457
15635TIP3   OH268395   3.535   4.216   2.276  0.0554  0.2861  0.2760
15635TIP3    H168396   3.531   4.307   2.306 -0.3874  0.8506 -1.3742
15635TIP3    H268397   3.605   4.216   2.211 -0.6977 -0.2790 -0.5576
15636TIP3   OH268398   4.678   5.804   5.891 -0.4052  0.4063 -0.0503
15636TIP3    H168399   4.766   5.772   5.914 -0.7901  0.5030  1.7587
15636TIP3    H268400   4.674   5.798   5.796  1.1213 -0.7596 -0.0811
15637TIP3   OH268401   5.495   0.876  11.471  0.0338  0.2828 -0.5246
15637TIP3    H168402   5.485   0.962  11.429  0.1494  0.8806  0.6369
15637TIP3    H268403   5.423   0.872  11.534  1.3906  0.5625  1.1178
15638TIP3   OH268404   4.549   6.449  11.115  0.0782  0.1112 -0.1451
15638TIP3    H168405   4.507   6.455  11.029 -0.9918  1.1365  0.4239
15638TIP3    H268406   4.559   6.540  11.143 -0.3767 -0.2388  1.1859
15639TIP3   OH268407   6.372   1.960   1.530 -0.1876 -0.0113 -0.0370
15639TIP3    H168408   6.348   2.043   1.489  0.3897  0.5263  0.6956
15639TIP3    H268409   6.297   1.902   1.512 -1.5602  1.2868  1.2001
15640TIP3   OH268410   4.097   0.532   0.856 -0.4450  0.3121  0.1257
15640TIP3    H168411   4.190   0.553   0.865 -0.5047  1.7616 -1.9962
15640TIP3    H268412   4.062   0.599   0.798 -2.5136 -1.0531 -0.3405
15641TIP3   OH268413   1.733   3.232  14.453 -0.1054 -0.4080 -0.0980
15641TIP3    H168414   1.773   3.172  14.390 -2.5519  0.7428 -2.9740
15641TIP3    H268415   1.659   3.184  14.488  0.2920 -0.4535  0.6991
15642TIP3   OH268416   6.430   5.061  16.410  0.6385 -0.2371  0.3766
15642TIP3    H168417   6.351   5.010  16.392  0.5507 -0.4104  1.1873
15642TIP3    H268418   6.431   5.130  16.344  1.9988 -2.6324 -2.3254
15643TIP3   OH268419   1.792   4.012  11.356  0.4599  0.0912  0.1473
15643TIP3    H168420   1.805   3.919  11.374 -0.1587  0.2109  1.3079
15643TIP3    H268421   1.788   4.017  11.260  2.2334 -0.8114 -0.0140
15644TIP3   OH268422   3.469   1.869  13.287 -0.5101 -0.6032  0.3896
15644TIP3    H168423   3.563   1.886  13.285 -0.9047  1.8498 -1.5919
15644TIP3    H268424   3.442   1.890  13.377  0.4463  1.2191  0.2795
15645TIP3   OH268425   4.158   6.368   2.176 -0.1545  0.0667 -0.1218
15645TIP3    H168426   4.228   6.314   2.139 -0.0659  0.4546 -0.5394
15645TIP3    H268427   4.199   6.454   2.186 -0.2045 -0.0134  0.8163
15646TIP3   OH268428   6.571   1.771   5.854  0.8602  0.0616  0.2238
15646TIP3    H168429   6.507   1.774   5.925  1.7910  0.6667  1.0630
15646TIP3    H268430   6.638   1.711   5.884  2.1235  1.6218  0.6405
15647TIP3   OH268431   5.318   1.896  15.541  0.1692 -0.2543 -0.1258
15647TIP3    H168432   5.241   1.840  15.528 -1.2343  1.6384 -0.5262
15647TIP3    H268433   5.322   1.949  15.461  1.1780  0.5079  0.4134
15648TIP3   OH268434   1.669   4.447  15.898 -0.1062  0.2891  0.5810
15648TIP3    H168435   1.761   4.472  15.900  0.6409 -2.1824  0.4869
15648TIP3    H268436   1.661   4.390  15.822 -1.8128  0.7043  0.3996
15649TIP3   OH268437   0.982   4.388  15.775  0.3575  0.1430  0.1109
15649TIP3    H168438   0.999   4.392  15.869 -0.0598 -0.7984  0.2370
15649TIP3    H268439   1.036   4.458  15.738  0.5762  0.4812  1.0378
15650TIP3   OH268440   0.843   3.103  13.658  0.3548  0.2917  0.5388
15650TIP3    H168441   0.898   3.025  13.664  0.2648  0.3435  2.2912
15650TIP3    H268442   0.834   3.134  13.748  0.0477  2.0999 -0.0693
15651TIP3   OH268443   5.606   2.661   2.367  0.0952 -0.2040 -0.3387
15651TIP3    H168444   5.583   2.751   2.343  0.1387 -0.1042 -0.0041
15651TIP3    H268445   5.523   2.613   2.363 -0.0019 -0.0551 -0.0892
15652TIP3   OH268446   6.143   2.593  12.588  0.7143  0.1112 -0.7897
15652TIP3    H168447   6.215   2.623  12.533  0.4765  1.9416 -0.1878
15652TIP3    H268448   6.077   2.559  12.527  1.3171  0.1562 -1.4685
15653TIP3   OH268449   5.058   3.008  11.691 -0.4446  0.1992 -0.0719
15653TIP3    H168450   5.102   3.060  11.757 -2.0464 -0.2439  1.4219
15653TIP3    H268451   5.127   2.952  11.655  0.5493  0.7550  0.9053
15654TIP3   OH268452   1.315   4.150  16.675 -0.4397 -0.5666 -0.4863
15654TIP3    H168453   1.273   4.140  16.760  1.7622  1.1440  0.9172
15654TIP3    H268454   1.386   4.086  16.675 -1.1735 -1.4228 -1.6039
15655TIP3   OH268455   0.041   0.619   3.721 -0.2397  0.2844  0.4924
15655TIP3    H168456   0.013   0.532   3.692 -0.4273  1.0496 -1.8484
15655TIP3    H268457   0.136   0.613   3.729 -0.3797 -0.4931  1.7341
15656TIP3   OH268458   1.937   0.837  14.421 -0.3054 -0.4957  0.1984
15656TIP3    H168459   1.999   0.766  14.405  0.0665  0.1853 -1.6824
15656TIP3    H268460   1.851   0.797  14.406 -0.0574 -0.4047 -1.6797
15657TIP3   OH268461   1.263   0.822   1.941  0.5030  0.0098 -0.5030
15657TIP3    H168462   1.323   0.822   2.014 -0.5545 -0.3305  0.3965
15657TIP3    H268463   1.292   0.894   1.885  1.6371 -0.0718 -0.0301
15658TIP3   OH268464   4.444   5.970  12.738  0.4422  0.2484  0.2821
15658TIP3    H168465   4.532   5.977  12.775  0.7901  2.7723 -0.8616
15658TIP3    H268466   4.385   5.983  12.813  1.1265  2.6392  0.4915
15659TIP3   OH268467   2.177   0.385   0.684  0.3856 -0.4386  0.4094
15659TIP3    H168468   2.239   0.442   0.639 -0.8806  0.0687 -0.7305
15659TIP3    H268469   2.148   0.436   0.760  1.5267 -0.7832  1.1047
15660TIP3   OH268470   2.849   4.973   0.661 -0.0222  0.6246 -0.5488
15660TIP3    H168471   2.920   4.990   0.723 -0.5013  1.2864 -0.1709
15660TIP3    H268472   2.890   4.923   0.590  0.7569  0.7610 -0.1981
15661TIP3   OH268473   6.202   5.485  13.899  0.3139  0.5616 -0.2227
15661TIP3    H168474   6.203   5.532  13.983 -0.4888 -0.5635  0.4620
15661TIP3    H268475   6.166   5.548  13.837 -0.1486  1.0750  0.5331
15662TIP3   OH268476   0.941   1.593   1.014 -0.2241 -0.5021 -0.6053
15662TIP3    H168477   0.995   1.659   1.056  0.2520 -1.7481  0.8599
15662TIP3    H268478   0.968   1.593   0.923  1.0931  0.0296 -0.2376
15663TIP3   OH268479   5.697   4.846  13.390  0.0316  0.6687  0.0111
15663TIP3    H168480   5.634   4.821  13.457  1.4120 -0.5769  0.9119
15663TIP3    H268481   5.647   4.900  13.329 -1.4641  1.1823  1.6048
15664TIP3   OH268482   4.388   4.471   5.288 -0.0007 -0.4486 -0.4166
15664TIP3    H168483   4.315   4.473   5.225  1.1129 -0.5281 -1.7489
15664TIP3    H268484   4.432   4.388   5.271  1.2766  0.2652 -0.6718
15665TIP3   OH268485   2.551   2.465  16.485 -0.7317  0.2473 -0.1348
15665TIP3    H168486   2.519   2.428  16.567 -1.3068  0.2842 -0.3350
15665TIP3    H268487   2.606   2.397  16.447  1.1879  0.9687  1.2263
15666TIP3   OH268488   0.866   5.060  13.320  0.4347 -0.2042 -0.6525
15666TIP3    H168489   0.849   5.058  13.226 -1.0185  0.0564 -0.4201
15666TIP3    H268490   0.952   5.102  13.328  1.3946 -1.7954 -1.9311
15667TIP3   OH268491   4.731   0.656  16.961 -0.4177  0.0529 -0.3609
15667TIP3    H168492   4.803   0.684  17.020 -0.3042 -1.1688  0.0993
15667TIP3    H268493   4.756   0.568  16.933 -0.8900  0.3013 -1.6053
15668TIP3   OH268494   5.027   6.796   1.161  0.1136  0.1979  0.5188
15668TIP3    H168495   5.118   6.825   1.161 -0.1683  1.1746 -0.5422
15668TIP3    H268496   5.031   6.702   1.142  0.9249  0.0941  1.1774
15669TIP3   OH268497   3.777   1.460  10.455  0.0428  0.1588 -0.0713
15669TIP3    H168498   3.826   1.383  10.426 -1.9445 -1.0191 -0.4631
15669TIP3    H268499   3.823   1.534  10.414  0.1534 -1.0721 -2.3712
15670TIP3   OH268500   5.320   0.678  14.482 -0.3969  0.4040  0.1753
15670TIP3    H168501   5.263   0.601  14.484 -2.0741  1.6214  1.8352
15670TIP3    H268502   5.366   0.676  14.566 -1.1051  1.6575  0.6139
15671TIP3   OH268503   3.281   5.399   3.332  0.8907  0.1650  0.4630
15671TIP3    H168504   3.338   5.345   3.387  1.5424  1.1928  0.8255
15671TIP3    H268505   3.295   5.366   3.243 -0.0616 -1.4159  0.8593
15672TIP3   OH268506   1.035   6.616  16.270 -0.5648  0.4522  0.0467
15672TIP3    H168507   1.114   6.612  16.216 -1.5118 -0.5259 -1.3174
15672TIP3    H268508   1.064   6.582  16.356  0.0891 -1.8328 -0.9799
15673TIP3   OH268509   5.592   1.710   4.207  0.1094 -0.3249  0.1524
15673TIP3    H168510   5.619   1.766   4.280 -0.5253 -1.1007  1.0176
15673TIP3    H268511   5.505   1.741   4.183  0.2735 -0.1393 -0.2114
15674TIP3   OH268512   2.346   1.029   3.295  0.3819  0.5466 -0.1184
15674TIP3    H168513   2.301   0.946   3.311  0.4266  0.3024 -1.1948
15674TIP3    H268514   2.401   1.041   3.372 -1.4169  0.8010  1.1969
15675TIP3   OH268515   6.215   4.731   4.602  0.0554  0.0349 -0.4689
15675TIP3    H168516   6.282   4.697   4.543  0.4971 -0.3683  0.2381
15675TIP3    H268517   6.262   4.792   4.659 -0.6337  1.5002 -1.4075
15676TIP3   OH268518   0.386   3.374   3.035 -0.0140  0.2205 -0.1217
15676TIP3    H168519   0.469   3.367   2.988 -0.0146  1.2224 -0.2790
15676TIP3    H268520   0.411   3.374   3.127 -0.0344 -2.0998 -0.0540
15677TIP3   OH268521   2.309   2.979   2.660  0.3687  0.5690 -0.2776
15677TIP3    H168522   2.317   2.886   2.679  0.4256 -0.0648 -2.9504
15677TIP3    H268523   2.398   3.013   2.670  0.6598 -0.0191 -0.7584
15678TIP3   OH268524   1.484   6.162   0.660  0.0114 -0.0770  0.0750
15678TIP3    H168525   1.480   6.232   0.726  1.2229  2.2646 -2.1480
15678TIP3    H268526   1.411   6.181   0.601 -0.0326 -1.1001 -0.2076
15679TIP3   OH268527   4.104   1.464  15.871 -0.2536  0.2346  0.4704
15679TIP3    H168528   4.151   1.548  15.870 -0.5230  0.3929 -0.5281
15679TIP3    H268529   4.169   1.400  15.899  0.8692  0.3081 -1.7303
15680TIP3   OH268530   0.414   1.367  17.009  0.1188 -0.2331  0.3023
15680TIP3    H168531   0.383   1.312  16.937 -1.3999 -0.5837  1.1873
15680TIP3    H268532   0.358   1.445  17.005 -0.3334 -0.4851  1.3969
15681TIP3   OH268533   0.414   3.779  16.248  0.4537  0.0999  0.2509
15681TIP3    H168534   0.496   3.765  16.201  1.5398  1.3486  1.6915
15681TIP3    H268535   0.418   3.719  16.323 -0.3329 -0.4067 -0.0930
15682TIP3   OH268536   1.530   2.869   6.763  0.5982 -0.2315  0.4525
15682TIP3    H168537   1.459   2.874   6.827  0.1816  0.6813 -0.0595
15682TIP3    H268538   1.588   2.942   6.786 -0.3168  1.0455 -1.0630
15683TIP3   OH268539   6.217   1.040   5.080 -0.0949 -0.2393 -0.2124
15683TIP3    H168540   6.253   1.098   5.147  0.0289 -1.6419  1.0162
15683TIP3    H268541   6.224   1.089   4.999  4.7259 -0.3613 -0.1495
15684TIP3   OH268542   4.256   1.448   3.417  0.5975 -0.2207 -0.0009
15684TIP3    H168543   4.348   1.452   3.391  0.3747  0.6106 -0.6766
15684TIP3    H268544   4.233   1.538   3.438  0.4388 -0.6732  1.9934
15685TIP3   OH268545   3.498   6.186  16.503  0.4301 -0.3047 -0.1033
15685TIP3    H168546   3.534   6.226  16.582  0.3376  1.7949 -1.0643
15685TIP3    H268547   3.533   6.238  16.431 -2.1765  0.0356 -1.2468
15686TIP3   OH268548   2.215   5.238  13.685 -0.4252  0.9905 -0.0224
15686TIP3    H168549   2.263   5.318  13.705 -0.4937  1.3409 -1.1790
15686TIP3    H268550   2.136   5.267  13.641  0.1507  0.2693 -1.6365
15687TIP3   OH268551   0.992   3.254   1.577  0.3786 -0.1028 -0.3434
15687TIP3    H168552   0.907   3.232   1.539 -0.8863  3.2396  0.2424
15687TIP3    H268553   1.018   3.335   1.533  3.5831 -1.2474 -0.8474
15688TIP3   OH268554   3.309   2.089   2.590 -0.2570  0.3776  0.0338
15688TIP3    H168555   3.250   2.076   2.665  1.3125 -2.7477  0.8986
15688TIP3    H268556   3.329   2.182   2.592 -2.4779  0.9152  1.7640
15689TIP3   OH268557   3.430   2.218   0.358 -0.5456 -0.7091 -0.7529
15689TIP3    H168558   3.384   2.140   0.327  1.2811 -0.8930 -3.3405
15689TIP3    H268559   3.392   2.290   0.307  0.8097 -0.6309 -1.7031
15690TIP3   OH268560   5.930   0.632  14.849  0.8458 -0.0148 -0.1014
15690TIP3    H168561   5.850   0.673  14.883  1.5059  1.5130 -0.2660
15690TIP3    H268562   5.974   0.597  14.926  0.5959  0.2216  0.1501
15691TIP3   OH268563   0.651   6.060   4.483  0.2100  0.2430 -0.2855
15691TIP3    H168564   0.583   5.992   4.491  0.9851 -0.4924  0.1787
15691TIP3    H268565   0.602   6.141   4.470 -0.8428 -0.0293  1.6452
15692TIP3   OH268566   0.427   0.367   5.896 -0.0762  0.2507 -0.5236
15692TIP3    H168567   0.437   0.451   5.849  2.0620 -0.5318 -1.5865
15692TIP3    H268568   0.514   0.346   5.928 -1.0525 -0.3917  1.9651
15693TIP3   OH268569   5.902   1.920  12.250 -0.1742 -0.1313 -0.0700
15693TIP3    H168570   5.817   1.916  12.206  0.1485 -0.7219 -0.6478
15693TIP3    H268571   5.933   1.830  12.251 -0.2245 -0.1593  1.5032
15694TIP3   OH268572   4.815   2.050   5.715  0.6148  0.2402  0.2133
15694TIP3    H168573   4.803   1.962   5.678  1.7888 -0.3832  1.2694
15694TIP3    H268574   4.856   2.100   5.644  0.7768 -0.3032 -0.0857
15695TIP3   OH268575   0.836   1.536  14.225  0.0477 -0.4306  0.2783
15695TIP3    H168576   0.773   1.594  14.268  1.5490  1.3009  0.2559
15695TIP3    H268577   0.917   1.547  14.275  0.5015 -2.2375  0.0169
15696TIP3   OH268578   2.558   2.954   1.075 -0.2155 -0.1094  0.1902
15696TIP3    H168579   2.526   2.936   1.163 -1.4309 -0.4784 -0.3175
15696TIP3    H268580   2.481   2.981   1.026  0.3801 -0.2734 -0.8685
15697TIP3   OH268581   6.506   6.772  10.695 -0.1319 -0.0163 -0.1598
15697TIP3    H168582   6.582   6.737  10.742  0.8608  1.6440 -0.4194
15697TIP3    H268583   6.516   6.740  10.606 -0.6487 -1.1304  0.1685
15698TIP3   OH268584   1.149   1.178   1.923 -0.3138 -0.0603 -0.2967
15698TIP3    H168585   1.228   1.148   1.878  0.8009 -2.1381  2.7740
15698TIP3    H268586   1.180   1.246   1.982 -1.1504  0.2691 -0.2246
15699TIP3   OH268587   0.847   0.649  11.606  0.2873  0.5235  0.2578
15699TIP3    H168588   0.784   0.604  11.550  0.4528 -0.6536  0.9874
15699TIP3    H268589   0.793   0.686  11.677  0.4814 -1.4308  1.4939
15700TIP3   OH268590   0.397   1.216   2.898 -0.3392  0.1812 -0.1242
15700TIP3    H168591   0.378   1.246   2.988 -1.6129 -0.6447 -0.0905
15700TIP3    H268592   0.491   1.227   2.889 -0.2736  0.8850  1.0972
15701TIP3   OH268593   3.781   0.554   4.177 -0.3452 -0.6690  0.0708
15701TIP3    H168594   3.742   0.584   4.260 -1.4360  0.2917 -0.7446
15701TIP3    H268595   3.713   0.500   4.137 -1.3166  1.7293 -1.7824
15702TIP3   OH268596   4.005   1.587   2.303 -0.4086 -0.3442 -0.3479
15702TIP3    H168597   4.083   1.553   2.347 -0.1595 -1.8182 -1.8531
15702TIP3    H268598   4.010   1.682   2.315  1.8713 -0.3610 -0.8151
15703TIP3   OH268599   2.868   1.748  14.761  0.3488  0.7433 -0.4708
15703TIP3    H168600   2.926   1.823  14.772  0.4758  0.8722 -1.7715
15703TIP3    H268601   2.836   1.756  14.671 -0.6900 -0.0291 -0.1895
15704TIP3   OH268602   3.494   1.591   4.242 -0.4788 -0.0990 -0.6175
15704TIP3    H168603   3.492   1.571   4.335  0.0543  1.5287 -0.2268
15704TIP3    H268604   3.582   1.566   4.214 -1.0036 -1.6626 -0.9753
15705TIP3   OH268605   2.786   3.368   3.938  0.1773 -0.0955 -0.3114
15705TIP3    H168606   2.783   3.435   3.869  2.0557 -0.5407 -0.8727
15705TIP3    H268607   2.767   3.416   4.018 -0.1884  0.7809 -0.8953
15706TIP3   OH268608   0.810   4.500   0.405 -0.3206 -0.3254  0.1300
15706TIP3    H168609   0.741   4.519   0.341 -0.0473  1.7303  0.3738
15706TIP3    H268610   0.806   4.574   0.466  1.3648 -0.7480  0.7900
15707TIP3   OH268611   0.346   2.819  12.398  0.3346 -0.1310 -0.1339
15707TIP3    H168612   0.274   2.870  12.436  0.7904  0.0255  0.5427
15707TIP3    H268613   0.352   2.741  12.453  0.1188 -0.5719 -0.7224
15708TIP3   OH268614   4.485   6.502  14.225 -0.1416 -0.0194  0.2848
15708TIP3    H168615   4.407   6.507  14.281 -0.4921 -0.7381 -0.1257
15708TIP3    H268616   4.450   6.485  14.137  0.5737 -3.6282  0.5628
15709TIP3   OH268617   6.167   5.624  16.204  0.4946 -0.4875  0.0853
15709TIP3    H168618   6.210   5.545  16.170 -1.8351 -1.7036 -0.2634
15709TIP3    H268619   6.127   5.596  16.286  1.2526  0.9175  0.9772
15710TIP3   OH268620   5.928   0.033   2.646  0.0158  0.0701 -0.4102
15710TIP3    H168621   5.983   0.057   2.721 -0.0773 -1.5400  0.2260
15710TIP3    H268622   5.872   0.109   2.632  1.6029  1.3121 -0.3489
15711TIP3   OH268623   6.475   3.746  15.452  0.6076  0.0717 -0.0186
15711TIP3    H168624   6.479   3.652  15.466 -0.6083  0.0085  0.0128
15711TIP3    H268625   6.399   3.759  15.396  1.4129  0.9465 -0.9582
15712TIP3   OH268626   2.429   4.507  15.664 -0.8573 -0.3027  0.7042
15712TIP3    H168627   2.522   4.518  15.645 -1.3206  1.8926 -0.5376
15712TIP3    H268628   2.426   4.429  15.719  1.7872  0.0361  1.4717
15713TIP3   OH268629   5.588   3.934   1.554 -0.2562 -0.6916 -0.3091
15713TIP3    H168630   5.544   3.998   1.610  2.0191 -1.1241  2.1267
15713TIP3    H268631   5.620   3.986   1.480 -1.7871  0.2355 -0.3744
15714TIP3   OH268632   5.882   5.539  11.312  0.0539  0.2284  0.0422
15714TIP3    H168633   5.797   5.579  11.292  0.8639  1.7632 -0.5102
15714TIP3    H268634   5.903   5.486  11.235 -1.0669 -1.4273  0.8111
15715TIP3   OH268635   0.925   0.553  13.862 -0.1191 -0.2094  0.4379
15715TIP3    H168636   0.909   0.557  13.956 -1.3657 -0.3152  0.2487
15715TIP3    H268637   0.847   0.512  13.826 -1.2423  2.9058 -1.0163
15716TIP3   OH268638   5.684   5.491   2.976 -0.1359 -0.3067  0.1084
15716TIP3    H168639   5.747   5.554   3.012  2.0959 -1.2622 -1.8971
15716TIP3    H268640   5.673   5.426   3.045  1.2516 -0.2130  0.4545
15717TIP3   OH268641   1.344   1.657   4.544  0.0977 -0.0838 -0.0086
15717TIP3    H168642   1.434   1.627   4.541 -0.5163 -2.1939  0.5899
15717TIP3    H268643   1.306   1.611   4.619 -1.5619  0.5027 -0.4323
15718TIP3   OH268644   2.410   4.398  16.692 -0.5007 -0.0920  0.0871
15718TIP3    H168645   2.482   4.336  16.687 -0.9953 -0.7028  0.4245
15718TIP3    H268646   2.332   4.346  16.673 -1.0337  0.2011  1.4187
15719TIP3   OH268647   0.223   5.410   1.471  0.4144  0.6965 -0.1906
15719TIP3    H168648   0.189   5.330   1.510 -1.9007  2.1396  0.9500
15719TIP3    H268649   0.273   5.380   1.395 -0.5268 -1.8147  0.0916
15720TIP3   OH268650   1.423   4.489   1.108  0.2763 -0.3462  0.7376
15720TIP3    H168651   1.413   4.409   1.056 -0.1167 -1.0046  1.7928
15720TIP3    H268652   1.516   4.510   1.100  0.9226 -2.2688  2.3341
15721TIP3   OH268653   1.056   0.438   5.185 -0.0959  0.3922  0.3066
15721TIP3    H168654   0.999   0.470   5.115  1.8273  0.4172 -1.3525
15721TIP3    H268655   1.033   0.491   5.262 -1.8592  0.7778 -0.4547
15722TIP3   OH268656   2.437   6.786   3.275 -0.1106 -0.3155 -0.4081
15722TIP3    H168657   2.342   6.798   3.269 -0.2777 -1.7670 -1.0776
15722TIP3    H268658   2.458   6.726   3.204  1.2994 -0.1479 -0.1602
15723TIP3   OH268659   5.660   5.604  16.717 -0.2175  0.0491  0.2861
15723TIP3    H168660   5.599   5.592  16.790 -0.9371 -1.1280 -0.4733
15723TIP3    H268661   5.704   5.520  16.708 -0.9089 -0.1977 -1.2834
15724TIP3   OH268662   2.580   2.698  11.810  0.0727  0.6089  0.1075
15724TIP3    H168663   2.539   2.766  11.757  0.1866 -0.0379 -0.8316
15724TIP3    H268664   2.514   2.628  11.814  0.9036 -0.2591 -1.0527
15725TIP3   OH268665   0.046   2.549   3.603 -0.6799  0.4844  0.7603
15725TIP3    H168666   0.094   2.597   3.536 -2.2072  0.8384 -0.1171
15725TIP3    H268667   0.005   2.616   3.657 -0.6952  0.1833  1.1320
15726TIP3   OH268668   2.791   0.709   3.221  0.1867  0.9098  0.0511
15726TIP3    H168669   2.866   0.745   3.175 -0.9907  0.1035 -2.7421
15726TIP3    H268670   2.736   0.673   3.151 -2.1184  0.2346  2.0887
15727TIP3   OH268671   2.668   4.532  16.344  0.2342 -0.4403  0.3661
15727TIP3    H168672   2.711   4.617  16.340  0.7777 -0.7660 -1.0595
15727TIP3    H268673   2.734   4.469  16.315 -0.3956 -1.2641  0.6566
15728TIP3   OH268674   2.599   3.118   4.328  0.4467 -0.3409  0.2659
15728TIP3    H168675   2.625   3.050   4.391 -0.5952 -0.5791  0.4536
15728TIP3    H268676   2.682   3.151   4.293  0.9708 -1.6696  0.2075
15729TIP3   OH268677   1.247   5.627   4.200  0.0585 -0.8028  0.0217
15729TIP3    H168678   1.303   5.601   4.273 -0.8733 -0.5756  0.8366
15729TIP3    H268679   1.168   5.575   4.210 -1.0200  0.8369  0.5301
15730TIP3   OH268680   5.235   6.571   0.801 -0.7903  0.5276  0.4871
15730TIP3    H168681   5.194   6.488   0.774 -1.3488  1.9095 -3.5942
15730TIP3    H268682   5.328   6.550   0.809 -0.2682 -0.0129 -4.1589
15731TIP3   OH268683   0.616   3.769  13.771  0.2821 -0.1200  0.2528
15731TIP3    H168684   0.547   3.714  13.734 -0.9984  1.2784  0.4772
15731TIP3    H268685   0.580   3.858  13.768  2.4571  0.7949 -0.5216
15732TIP3   OH268686   1.343   5.818  11.498  0.0074  0.3774  0.1975
15732TIP3    H168687   1.263   5.846  11.541  0.6202  0.9940  0.9714
15732TIP3    H268688   1.336   5.853  11.409  0.6108  2.8488  1.0377
15733TIP3   OH268689   1.377   2.043  10.445  0.0382 -0.7220 -0.3780
15733TIP3    H168690   1.426   1.962  10.454  0.2854 -0.6718 -1.1570
15733TIP3    H268691   1.320   2.028  10.369  0.2358 -0.0948 -0.6556
15734TIP3   OH268692   6.387   6.561   5.832 -0.3824 -0.2218 -0.9518
15734TIP3    H168693   6.416   6.625   5.897  0.0372 -1.2392 -0.1052
15734TIP3    H268694   6.292   6.560   5.839 -0.4715  1.0227 -1.6903
15735TIP3   OH268695   1.471   4.836  13.207 -0.3417  0.1455 -0.1985
15735TIP3    H168696   1.545   4.777  13.191  0.2749  0.9052 -0.2580
15735TIP3    H268697   1.461   4.836  13.302  0.5212  0.9237 -0.0820
15736TIP3   OH268698   3.905   0.568  14.357  0.0367 -0.3493  0.0369
15736TIP3    H168699   3.958   0.608  14.425 -0.6877  0.5038  0.1196
15736TIP3    H268700   3.872   0.487  14.396 -0.5646  0.2500  0.7894
15737TIP3   OH268701   6.706   5.249  13.016  0.4799  0.5708  0.1235
15737TIP3    H168702   6.656   5.182  12.969 -0.5693  0.5498  1.2377
15737TIP3    H268703   6.640   5.303  13.059  1.3948  0.3049  1.9499
15738TIP3   OH268704   3.919   2.177   5.041  0.1468 -0.1631  0.3803
15738TIP3    H168705   4.014   2.167   5.051  0.3968  1.0601 -0.4651
15738TIP3    H268706   3.901   2.149   4.951 -0.0037  1.1330 -0.0304
15739TIP3   OH268707   4.417   6.431  13.968 -0.3301  0.1789  0.2992
15739TIP3    H168708   4.367   6.513  13.966 -0.8145 -0.1115 -0.9283
15739TIP3    H268709   4.358   6.367  13.928  0.2197 -0.6677  0.8245
15740TIP3   OH268710   6.436   1.713  16.167  0.3600  0.0257  0.4632
15740TIP3    H168711   6.428   1.781  16.234 -0.7737 -1.7256  2.2270
15740TIP3    H268712   6.357   1.722  16.114 -1.8703 -2.2196  3.1086
15741TIP3   OH268713   6.525   0.787   0.436  0.2015  0.1555  0.1984
15741TIP3    H168714   6.585   0.788   0.511  0.6590 -0.6786 -0.1363
15741TIP3    H268715   6.438   0.791   0.474  0.4138 -0.8270  0.8139
15742TIP3   OH268716   2.143   2.064  15.584 -0.1389 -0.6603 -0.9218
15742TIP3    H168717   2.186   2.076  15.499 -1.4612  1.5513 -1.3565
15742TIP3    H268718   2.050   2.063  15.564 -0.4439 -0.8852  0.4370
15743TIP3   OH268719   5.077   0.827   0.245  0.5599 -0.2743  0.0020
15743TIP3    H168720   5.057   0.798   0.334 -1.8964  1.2341  0.0253
15743TIP3    H268721   5.171   0.846   0.247  0.7890 -1.3079  1.9378
15744TIP3   OH268722   5.933   6.705  13.397  0.6499  0.2624  0.0614
15744TIP3    H168723   5.975   6.740  13.476  1.8711 -1.4496  0.2256
15744TIP3    H268724   6.002   6.655  13.354  0.6315  2.6540 -3.1619
15745TIP3   OH268725   4.509   2.665   4.390 -0.3537 -0.4934 -0.2008
15745TIP3    H168726   4.426   2.618   4.397  0.1557 -1.5730 -1.0757
15745TIP3    H268727   4.500   2.739   4.450 -2.2657 -0.1068 -0.8930
15746TIP3   OH268728   5.001   2.578  16.092  0.1025 -0.5507 -0.1368
15746TIP3    H168729   5.079   2.564  16.040  0.6434  1.4332  0.0661
15746TIP3    H268730   4.955   2.650  16.049  0.0049  0.4009  1.4669
15747TIP3   OH268731   4.457   4.141  16.963 -0.1449  0.1729 -0.4874
15747TIP3    H168732   4.451   4.088  17.042  1.4779  1.8570  0.8512
15747TIP3    H268733   4.391   4.209  16.973  0.0178  0.3526 -0.6119
15748TIP3   OH268734   3.646   5.029  12.276  0.4465  0.0879 -0.5308
15748TIP3    H168735   3.613   4.977  12.350 -0.6565  0.9603 -0.3813
15748TIP3    H268736   3.730   4.988  12.254  0.4862 -0.6023  0.7713
15749TIP3   OH268737   4.158   0.174   3.140 -0.0391 -0.3255  0.7608
15749TIP3    H168738   4.104   0.201   3.065  0.3650  1.4498  1.0714
15749TIP3    H268739   4.137   0.081   3.151 -4.5706  0.5887  2.0401
15750TIP3   OH268740   0.520   4.580  13.740 -0.6820 -0.2889  0.0881
15750TIP3    H168741   0.539   4.636  13.815  0.8464  0.7997 -1.0547
15750TIP3    H268742   0.473   4.637  13.679 -0.8314 -0.8131 -0.2944
15751TIP3   OH268743   2.645   1.653   3.111 -0.1673 -0.5198  0.4145
15751TIP3    H168744   2.660   1.673   3.204  0.1394 -2.2165  0.7609
15751TIP3    H268745   2.723   1.685   3.067  1.1461 -2.4659  1.1929
15752TIP3   OH268746   1.365   3.191   1.375  0.0350 -0.0077 -0.0217
15752TIP3    H168747   1.340   3.139   1.299  0.7888 -2.0504  1.0475
15752TIP3    H268748   1.456   3.214   1.359 -0.0348  0.2215 -0.0883
15753TIP3   OH268749   5.156   6.057   4.719 -0.4753  0.7815  0.3160
15753TIP3    H168750   5.206   6.040   4.640 -0.4662  3.9972 -0.5065
15753TIP3    H268751   5.201   6.008   4.787  0.4195 -0.8517 -1.3763
15754TIP3   OH268752   4.531   3.451  10.315  0.3220 -0.1093  0.3252
15754TIP3    H168753   4.604   3.429  10.373 -0.1158 -0.2638  0.8221
15754TIP3    H268754   4.538   3.546  10.304  0.3373 -0.0571  0.7422
15755TIP3   OH268755   2.873   5.828  11.423 -0.0156  0.6884 -0.5640
15755TIP3    H168756   2.893   5.800  11.333  0.0197 -0.7099 -0.1504
15755TIP3    H268757   2.783   5.801  11.437 -0.5198  2.2357 -0.6442
15756TIP3   OH268758   6.730   1.903   0.042 -0.6341  0.1686  0.4962
15756TIP3    H168759   6.801   1.858  -0.004  0.0018  3.1290 -1.7367
15756TIP3    H268760   6.710   1.979  -0.013 -4.0774  0.6840  2.1653
15757TIP3   OH268761   3.484   1.059  10.572 -0.3963  0.0025 -0.0811
15757TIP3    H168762   3.440   1.071  10.488 -0.3174 -0.3688 -0.1764
15757TIP3    H268763   3.470   0.967  10.593  2.9975 -1.0607 -1.6662
15758TIP3   OH268764   2.425   3.313   5.822 -0.3033 -0.0465 -0.4098
15758TIP3    H168765   2.334   3.284   5.825 -0.7855  1.4527  1.4714
15758TIP3    H268766   2.442   3.348   5.909  2.2664 -0.7626 -0.5464
15759TIP3   OH268767   1.118   1.406   1.698 -0.5447  0.2675 -0.1177
15759TIP3    H168768   1.080   1.460   1.628  0.1582 -0.6475 -1.2409
15759TIP3    H268769   1.212   1.405   1.679 -0.4067 -0.3883  0.5680
15760TIP3   OH268770   3.069   1.481  13.635  0.1799  0.1496  0.1131
15760TIP3    H168771   3.046   1.537  13.560 -0.5105 -0.4574 -0.1435
15760TIP3    H268772   2.994   1.487  13.694  0.1131 -0.4575  0.1031
15761TIP3   OH268773   6.160   1.380   0.711  0.2263 -0.0392 -0.1747
15761TIP3    H168774   6.205   1.305   0.750  0.1539  1.1142  2.3658
15761TIP3    H268775   6.219   1.411   0.642  0.0395 -2.6251 -1.6266
15762TIP3   OH268776   3.732   0.721  16.636  0.2001 -0.0969 -0.2170
15762TIP3    H168777   3.818   0.744  16.599 -0.1011 -0.9182 -1.4847
15762TIP3    H268778   3.670   0.736  16.564 -0.4205 -1.6307 -0.0308
15763TIP3   OH268779   0.274   1.884   1.530  0.0051 -0.4273 -0.2988
15763TIP3    H168780   0.339   1.931   1.478 -1.4885  0.3478 -1.5861
15763TIP3    H268781   0.190   1.907   1.488 -0.9482 -2.7786  0.1943
15764TIP3   OH268782   2.147   0.174   6.062  0.2733  0.3814 -0.1141
15764TIP3    H168783   2.152   0.270   6.064  0.2729  0.3761  0.1668
15764TIP3    H268784   2.061   0.156   6.024  0.2329  0.4941 -0.0777
15765TIP3   OH268785   4.550   4.375  13.923 -0.1997  0.2642  0.4085
15765TIP3    H168786   4.636   4.400  13.955 -0.2492 -1.1242  1.7357
15765TIP3    H268787   4.546   4.410  13.833  1.5055  0.8158  0.5198
15766TIP3   OH268788   2.650   6.025  12.559  0.6135 -0.0338 -0.1804
15766TIP3    H168789   2.720   6.088  12.540 -1.0880  2.3234  0.8242
15766TIP3    H268790   2.616   6.001  12.473  1.2205  0.5288 -0.5899
15767TIP3   OH268791   6.582   6.303  14.437  0.3069 -0.0474 -0.2317
15767TIP3    H168792   6.565   6.214  14.467 -0.1405 -0.9015 -2.7507
15767TIP3    H268793   6.674   6.303  14.412  0.4217  0.3342  0.1813
15768TIP3   OH268794   5.765   5.429   1.374 -1.1638 -0.0447  0.4938
15768TIP3    H168795   5.693   5.398   1.320 -0.1525  0.2772 -1.1264
15768TIP3    H268796   5.752   5.524   1.380 -0.0626  0.2417 -1.1412
15769TIP3   OH268797   5.604   4.542   5.674 -0.2870 -0.6276  0.0015
15769TIP3    H168798   5.629   4.594   5.597 -1.6993 -0.3532 -0.3104
15769TIP3    H268799   5.637   4.454   5.655  1.0758 -0.1348 -0.0144
15770TIP3   OH268800   6.082   0.901  13.994 -0.3782 -0.2097 -0.2678
15770TIP3    H168801   6.066   0.996  13.997 -1.3883 -0.2822 -2.0718
15770TIP3    H268802   6.040   0.872  13.913  2.4025 -1.7535 -1.3078
15771TIP3   OH268803   5.293   1.479  11.629 -0.4650  0.1886 -0.3966
15771TIP3    H168804   5.259   1.547  11.687  0.6149  0.8727 -0.5349
15771TIP3    H268805   5.227   1.472  11.560 -2.3437 -1.4354  1.4250
15772TIP3   OH268806   4.717   5.706   2.122  0.3262 -0.1795  0.2213
15772TIP3    H168807   4.694   5.771   2.188  1.1043  0.3176  0.0322
15772TIP3    H268808   4.636   5.660   2.103 -0.1066  0.3224  0.8195
15773TIP3   OH268809   3.603   4.948  15.220 -0.1573  0.4916  0.2844
15773TIP3    H168810   3.661   4.872  15.227  3.2286  2.6706 -1.2769
15773TIP3    H268811   3.515   4.911  15.214  1.2640 -3.2349 -0.1347
15774TIP3   OH268812   0.324   4.599  11.851  0.0741 -0.1037 -0.7313
15774TIP3    H168813   0.398   4.538  11.845  0.3818  0.2478 -0.6018
15774TIP3    H268814   0.362   4.677  11.891 -0.3801  0.0680 -0.6363
15775TIP3   OH268815   0.450   3.729   1.411  0.7333 -0.0830  0.3462
15775TIP3    H168816   0.398   3.684   1.477 -0.7235 -0.0344 -0.7285
15775TIP3    H268817   0.389   3.749   1.340  2.3378 -0.7105 -1.3332
15776TIP3   OH268818   6.429   6.058  16.111 -0.7065 -0.4554 -0.3344
15776TIP3    H168819   6.451   6.090  16.198 -0.2863  2.0711 -1.2838
15776TIP3    H268820   6.335   6.073  16.103 -0.6405 -0.1230 -0.5154
15777TIP3   OH268821   1.613   0.807  15.404  0.4403  0.2374 -0.1373
15777TIP3    H168822   1.585   0.718  15.426 -0.7292  0.5876 -0.1374
15777TIP3    H268823   1.543   0.841  15.349  0.9951  1.0815 -0.3413
15778TIP3   OH268824   4.255   3.733   3.335 -0.3279 -0.7257 -0.0628
15778TIP3    H168825   4.306   3.719   3.255 -1.8598 -2.7447 -0.7667
15778TIP3    H268826   4.164   3.724   3.307 -0.9232 -0.7561  1.7728
15779TIP3   OH268827   4.554   0.124   3.677  0.6763 -0.2072 -0.0464
15779TIP3    H168828   4.459   0.116   3.668  0.0830  1.7684  3.0104
15779TIP3    H268829   4.575   0.073   3.755  2.3116 -1.2552 -1.1148
15780TIP3   OH268830   3.873   5.776   0.636  0.5123  0.1364  0.2389
15780TIP3    H168831   3.836   5.688   0.642 -0.1669  0.3188 -0.8473
15780TIP3    H268832   3.821   5.828   0.698  0.9542 -0.2299  0.9260
15781TIP3   OH268833   1.695   6.471   2.785  0.6699 -0.3128  0.3548
15781TIP3    H168834   1.696   6.494   2.878 -0.4271 -2.3205  0.9063
15781TIP3    H268835   1.683   6.376   2.783  1.3283 -0.4049 -1.8399
15782TIP3   OH268836   3.262   5.331   4.627  0.0247  0.5491 -0.2876
15782TIP3    H168837   3.273   5.371   4.541 -0.9657 -0.7280 -1.0534
15782TIP3    H268838   3.173   5.296   4.625  0.6794 -1.2717  0.4985
15783TIP3   OH268839   2.713   1.879  15.910  0.0906  0.0610  1.0035
15783TIP3    H168840   2.731   1.789  15.883  0.9704  0.5760 -0.2151
15783TIP3    H268841   2.725   1.931  15.831 -1.3792  1.1480  1.4504
15784TIP3   OH268842   2.425   5.363   1.589  0.1464 -0.2513  0.0765
15784TIP3    H168843   2.496   5.371   1.524  1.5723  0.8620  1.6824
15784TIP3    H268844   2.443   5.280   1.633 -0.6762 -0.8826 -0.7297
15785TIP3   OH268845   3.282   1.310   3.730 -0.4987  0.4468 -0.1665
15785TIP3    H168846   3.367   1.267   3.731  0.1732  1.7124 -0.4207
15785TIP3    H268847   3.268   1.335   3.638 -1.8438 -1.0306 -0.4114
15786TIP3   OH268848   0.778   4.785   3.443  0.1986  0.1192  0.1291
15786TIP3    H168849   0.807   4.738   3.364  1.3773  0.2904  0.4397
15786TIP3    H268850   0.749   4.716   3.502 -0.0718 -0.0603 -0.2082
15787TIP3   OH268851   3.470   6.673  15.847  0.1475  0.2827 -0.5397
15787TIP3    H168852   3.396   6.689  15.789 -0.2688 -1.5379 -0.5728
15787TIP3    H268853   3.497   6.583  15.827  1.2676  0.3117  0.6845
15788TIP3   OH268854   4.232   6.708   6.729 -1.2783  0.4047  0.0147
15788TIP3    H168855   4.144   6.672   6.746 -1.1579 -0.3289 -0.8109
15788TIP3    H268856   4.263   6.658   6.653  0.2829 -0.1006  0.9463
15789TIP3   OH268857   2.658   4.240   6.188 -0.5182  0.2345  0.0435
15789TIP3    H168858   2.584   4.255   6.247 -0.2521 -1.0432  0.7309
15789TIP3    H268859   2.729   4.211   6.245  0.8489  2.3605 -0.4920
15790TIP3   OH268860   1.545   3.631   5.619 -0.4026 -0.0504  0.1574
15790TIP3    H168861   1.575   3.546   5.586  1.1616  1.3970 -2.5307
15790TIP3    H268862   1.613   3.657   5.683 -0.4268 -0.4362  0.3424
15791TIP3   OH268863   4.633   4.689  11.767  0.7296 -0.2751 -0.2366
15791TIP3    H168864   4.658   4.597  11.771  1.2927 -0.1024  0.4111
15791TIP3    H268865   4.545   4.689  11.731 -0.1217 -1.2263  1.7085
15792TIP3   OH268866   3.232   4.741   5.314  0.5719 -0.2016 -0.2927
15792TIP3    H168867   3.143   4.718   5.340 -0.1206  1.3796 -1.1627
15792TIP3    H268868   3.249   4.825   5.356  0.8836  0.4804 -1.7282
15793TIP3   OH268869   4.370   3.103   5.552  0.1798 -0.0588 -0.0633
15793TIP3    H168870   4.335   3.170   5.611  0.5082 -0.1777  0.2672
15793TIP3    H268871   4.451   3.074   5.593  0.8263  0.4131 -0.9660
15794TIP3   OH268872   3.849   2.487  12.284  0.1631 -0.4545  0.3027
15794TIP3    H168873   3.881   2.509  12.371  0.0654 -0.9724  0.4663
15794TIP3    H268874   3.801   2.406  12.295 -2.3338  0.9354  0.2933
15795TIP3   OH268875   3.238   5.955  11.581  0.1176 -0.0865 -0.2625
15795TIP3    H168876   3.236   6.030  11.641 -0.0399 -0.9054  0.7924
15795TIP3    H268877   3.330   5.927  11.581 -0.3530 -1.9465  2.0516
15796TIP3   OH268878   5.144   6.091   3.054  0.0861 -0.5833  0.0689
15796TIP3    H168879   5.080   6.161   3.066  1.2779  0.6163 -0.2471
15796TIP3    H268880   5.107   6.036   2.985 -2.0386 -1.7412  2.0167
15797TIP3   OH268881   0.502   4.487   3.500 -0.1135  0.4278 -0.1849
15797TIP3    H168882   0.566   4.436   3.551  0.3667  2.6741  1.6388
15797TIP3    H268883   0.423   4.433   3.501 -0.5031  0.7407  4.0305
15798TIP3   OH268884   0.719   5.383   2.725 -0.4377  0.3353  0.0995
15798TIP3    H168885   0.735   5.436   2.803  2.7419 -0.3508  0.0350
15798TIP3    H268886   0.800   5.334   2.712 -0.9977  0.0725 -3.3684
15799TIP3   OH268887   1.801   1.456  11.234 -0.5104 -0.0997 -0.3132
15799TIP3    H168888   1.727   1.467  11.293  0.5720  0.8481  0.9121
15799TIP3    H268889   1.815   1.361  11.231 -1.2299 -0.2260  0.1031
15800TIP3   OH268890   2.112   3.248  13.545  0.3369  0.1266  0.4495
15800TIP3    H168891   2.133   3.336  13.514  3.4218 -0.8038 -0.4425
15800TIP3    H268892   2.044   3.218  13.485  2.1482  0.4838 -1.9555
15801TIP3   OH268893   0.803   0.400  14.329  0.9716 -0.2335  0.2312
15801TIP3    H168894   0.841   0.370  14.412 -0.0821 -0.2465  0.7233
15801TIP3    H268895   0.726   0.345  14.316  0.7840  0.1735 -0.4507
15802TIP3   OH268896   6.668   1.794   6.241 -0.1715 -0.3364  0.0545
15802TIP3    H168897   6.751   1.755   6.214 -0.0866 -0.3965  0.3991
15802TIP3    H268898   6.617   1.720   6.275  0.0398 -0.1265  0.8339
15803TIP3   OH268899   2.965   1.374   4.356 -0.6081 -0.5071  0.4478
15803TIP3    H168900   2.932   1.455   4.395 -0.7180 -0.6136  0.5775
15803TIP3    H268901   3.037   1.402   4.299 -2.1297 -0.0689 -1.3151
15804TIP3   OH268902   5.340   4.914  12.763  0.1789  0.1626 -0.1277
15804TIP3    H168903   5.264   4.940  12.815  0.4659  0.8931 -0.0728
15804TIP3    H268904   5.310   4.837  12.715 -0.4706  0.2059  0.1958
15805TIP3   OH268905   4.783   5.769   0.463 -0.2273  0.2214 -0.2344
15805TIP3    H168906   4.747   5.773   0.374 -0.0347  1.1781 -0.2750
15805TIP3    H268907   4.713   5.803   0.518  0.0087  0.5199 -0.1232
15806TIP3   OH268908   5.206   3.853  10.806  0.3979  0.1262  0.1826
15806TIP3    H168909   5.171   3.863  10.717 -1.1822 -1.8905  0.5114
15806TIP3    H268910   5.288   3.806  10.794  0.0180 -0.4504 -0.1949
15807TIP3   OH268911   2.957   1.474   5.268  0.3866  0.3049  0.5771
15807TIP3    H168912   3.034   1.520   5.234 -1.1511  2.4464 -0.2692
15807TIP3    H268913   2.929   1.418   5.196  0.1530  0.8716  0.2191
15808TIP3   OH268914   0.863   3.426   1.037  0.0327  0.1600  0.6205
15808TIP3    H168915   0.805   3.388   0.971 -0.6436  0.7069  0.8826
15808TIP3    H268916   0.951   3.417   1.000 -0.2386 -0.4882  0.1205
15809TIP3   OH268917   4.158   6.402  11.632  0.7033  0.1106 -0.2003
15809TIP3    H168918   4.220   6.422  11.701  1.1108 -0.2649 -0.4551
15809TIP3    H268919   4.187   6.318  11.596 -0.5010 -0.5656  0.3167
15810TIP3   OH268920   2.515   4.174   2.633  0.2850  0.0717  0.1738
15810TIP3    H168921   2.477   4.087   2.645  0.5685 -0.1714 -0.6038
15810TIP3    H268922   2.541   4.202   2.721 -0.4532 -0.3243  0.5278
15811TIP3   OH268923   4.858   5.111   5.508 -0.0649  0.1124 -0.4374
15811TIP3    H168924   4.952   5.104   5.522  0.0074  0.0186 -0.9398
15811TIP3    H268925   4.844   5.201   5.479 -0.3505  0.6265  1.2209
15812TIP3   OH268926   1.537   2.727  12.067  0.1729  0.2488  0.2848
15812TIP3    H168927   1.598   2.674  12.016 -0.1938 -0.5004  0.5997
15812TIP3    H268928   1.514   2.671  12.142 -0.0060  0.9663  0.7782
15813TIP3   OH268929   2.531   1.238   3.536 -0.5627  0.6037 -0.1563
15813TIP3    H168930   2.501   1.185   3.610  1.7839  0.2826  0.6279
15813TIP3    H268931   2.462   1.303   3.524 -1.3772  0.1678  1.7938
15814TIP3   OH268932   0.593   6.765   5.647  0.3655  0.0553 -0.2725
15814TIP3    H168933   0.541   6.844   5.647  1.3743  0.7798  1.2402
15814TIP3    H268934   0.684   6.796   5.650  0.7572 -1.0959  1.4685
15815TIP3   OH268935   4.105   0.884  15.002  0.2189 -0.5514 -0.1044
15815TIP3    H168936   4.095   0.979  14.994  2.2230  0.0033  2.4647
15815TIP3    H268937   4.079   0.864  15.092  1.2952 -2.1639 -0.0997
15816TIP3   OH268938   0.073   0.517  11.401 -0.1205 -0.0688  0.1188
15816TIP3    H168939   0.101   0.600  11.440  0.5733 -0.5554  0.6955
15816TIP3    H268940   0.121   0.512  11.319 -0.3525  0.2132 -0.0354
15817TIP3   OH268941   5.375   3.465  12.745 -0.9246 -0.0937  0.8014
15817TIP3    H168942   5.459   3.486  12.706 -1.3662 -0.7589 -0.5484
15817TIP3    H268943   5.369   3.523  12.821  0.1469  0.9265  0.1408
15818TIP3   OH268944   5.144   1.583  14.374 -0.0463  0.2030  0.1696
15818TIP3    H168945   5.115   1.532  14.450 -0.3306  0.8597  0.5031
15818TIP3    H268946   5.225   1.625  14.403 -0.0689  0.3307  0.0475
15819TIP3   OH268947   3.483   3.024   5.021 -0.0664 -0.2736 -0.3187
15819TIP3    H168948   3.464   3.109   5.060 -2.3631 -0.8250 -0.0937
15819TIP3    H268949   3.536   2.979   5.086  0.0691  0.5012  0.1199
15820TIP3   OH268950   4.201   3.567   0.836  0.1592 -0.8445 -0.5566
15820TIP3    H168951   4.292   3.589   0.814  1.3413 -3.6145  0.9328
15820TIP3    H268952   4.191   3.594   0.927  0.0297 -1.9138 -0.2415
15821TIP3   OH268953   2.705   2.029   1.261 -0.2053 -0.1509  0.5624
15821TIP3    H168954   2.648   1.952   1.267 -2.1528  1.1016 -0.6481
15821TIP3    H268955   2.736   2.028   1.170 -0.3673  0.5393  0.4935
15822TIP3   OH268956   5.966   4.233  11.633 -0.0056  0.1565  0.4690
15822TIP3    H168957   5.957   4.171  11.560 -1.7939  1.4623 -0.5386
15822TIP3    H268958   5.955   4.180  11.712  0.6887 -1.1131 -0.2573
15823TIP3   OH268959   3.217   6.103  14.201 -0.5153 -0.1769 -0.2047
15823TIP3    H168960   3.195   6.061  14.284  2.0395  1.7200  1.5896
15823TIP3    H268961   3.302   6.067  14.177 -0.3586  0.6790 -1.0027
15824TIP3   OH268962   3.936   2.748  13.335  0.2509 -0.6382 -1.3372
15824TIP3    H168963   3.857   2.714  13.378  1.0866 -0.7723  0.1739
15824TIP3    H268964   3.943   2.838  13.366  1.1078 -0.8749 -0.7939
15825TIP3   OH268965   5.098   4.428   0.913  0.4474 -0.2857  0.8493
15825TIP3    H168966   5.191   4.403   0.907  0.5034 -0.3051  1.7331
15825TIP3    H268967   5.097   4.504   0.970 -0.0585 -0.1142  0.6165
15826TIP3   OH268968   4.196   0.662  13.449  0.3248 -0.4694 -0.4152
15826TIP3    H168969   4.122   0.603  13.463 -0.5020  0.7948  0.8504
15826TIP3    H268970   4.156   0.739  13.407  1.0665 -0.0925 -0.4359
15827TIP3   OH268971   3.058   1.845  16.340 -0.4046 -0.4274 -0.1971
15827TIP3    H168972   3.080   1.820  16.250 -0.0316 -0.1306 -0.1945
15827TIP3    H268973   3.108   1.926  16.354 -0.6811 -0.3228  0.1805
15828TIP3   OH268974   3.649   4.281   2.696 -0.4118  0.3756  0.2940
15828TIP3    H168975   3.658   4.335   2.617  0.0672  0.6353  0.5168
15828TIP3    H268976   3.673   4.193   2.667  0.8282  0.6618  0.3706
15829TIP3   OH268977   3.581   5.268   0.682  0.6293 -0.4020 -0.2472
15829TIP3    H168978   3.543   5.320   0.753 -0.9829 -0.9121 -0.7055
15829TIP3    H268979   3.591   5.181   0.719  0.8974 -0.3924 -0.2922
15830TIP3   OH268980   6.777   4.643  15.324 -0.5527 -0.4081  0.0876
15830TIP3    H168981   6.717   4.599  15.385  1.7611 -0.2121  2.7298
15830TIP3    H268982   6.821   4.571  15.278  0.4444 -0.7808  1.5549
15831TIP3   OH268983   5.553   3.524   0.558 -0.6161  0.0985 -0.2577
15831TIP3    H168984   5.548   3.587   0.630  0.7209  1.2474 -1.1088
15831TIP3    H268985   5.620   3.462   0.585 -0.2195  0.4438 -0.4459
15832TIP3   OH268986   3.018   1.693  12.811 -0.1215 -0.1653  0.5788
15832TIP3    H168987   2.978   1.626  12.867 -0.6843  0.6949  1.2441
15832TIP3    H268988   3.046   1.761  12.872 -1.0769  0.9626 -0.1916
15833TIP3   OH268989   2.973   6.417   2.905  0.5974  0.1255 -0.6374
15833TIP3    H168990   2.896   6.457   2.866  1.0690 -0.1375 -1.8682
15833TIP3    H268991   2.940   6.341   2.953  0.1257 -0.1664 -1.4227
15834TIP3   OH268992   5.052   6.077   0.907  0.1345  0.0166 -0.8329
15834TIP3    H168993   5.031   6.167   0.933 -1.6196 -0.6050  0.0236
15834TIP3    H268994   5.068   6.031   0.990 -1.6562 -1.0776 -1.0615
15835TIP3   OH268995   1.077   5.880  11.561  0.8331  0.0813 -0.7975
15835TIP3    H168996   1.087   5.953  11.622  1.3285  0.9468 -1.8850
15835TIP3    H268997   1.007   5.907  11.501  0.4237 -0.7140 -0.7043
15836TIP3   OH268998   3.255   5.497  14.539  0.2945  0.3452 -0.2667
15836TIP3    H168999   3.211   5.510  14.455  0.7775  0.3168 -0.5307
15836TIP3    H269000   3.192   5.448  14.592 -0.3143  1.0270 -0.3450
15837TIP3   OH269001   4.560   2.872  10.557 -0.3776  0.0000  0.3373
15837TIP3    H169002   4.646   2.835  10.537 -0.6937 -0.7001  0.2471
15837TIP3    H269003   4.567   2.963  10.529  1.1283  0.6420  2.5300
15838TIP3   OH269004   4.181   0.641   5.128 -0.2342 -0.2732  0.4703
15838TIP3    H169005   4.269   0.643   5.092  0.1656  0.0967  1.4434
15838TIP3    H269006   4.162   0.732   5.150 -0.6791 -0.4149  0.6806
15839TIP3   OH269007   1.173   5.907   5.991 -0.3688 -0.3153 -0.2020
15839TIP3    H169008   1.181   5.815   6.015  0.8002  0.0880  1.0677
15839TIP3    H269009   1.086   5.914   5.951 -0.0418 -2.1608 -1.3238
15840TIP3   OH269010   1.926   2.618   3.764  0.0425  0.5561  0.3696
15840TIP3    H169011   1.959   2.538   3.804 -0.4535  0.1105 -0.0953
15840TIP3    H269012   1.915   2.596   3.671 -1.0679  0.8418  0.4195
15841TIP3   OH269013   0.450   5.689  12.353  0.3338 -0.3750 -0.1765
15841TIP3    H169014   0.535   5.679  12.395 -0.1914  1.0910  1.3294
15841TIP3    H269015   0.435   5.783  12.349 -1.8808 -0.5908  1.0272
15842TIP3   OH269016   1.614   1.289   3.561  0.0409  0.6759  0.3532
15842TIP3    H169017   1.704   1.311   3.534  0.2868 -0.7524 -0.0353
15842TIP3    H269018   1.592   1.211   3.510 -1.1248  0.5307  1.0591
15843TIP3   OH269019   3.969   4.474  14.541 -0.8474 -0.2046 -1.1712
15843TIP3    H169020   3.929   4.542  14.486 -1.4078 -0.5421 -1.1931
15843TIP3    H269021   4.058   4.504  14.556 -1.2672  0.8229 -0.6932
15844TIP3   OH269022   3.362   3.682  14.944 -0.5792  0.0305 -0.5056
15844TIP3    H169023   3.386   3.775  14.945 -0.8476  0.1001 -0.6397
15844TIP3    H269024   3.272   3.680  14.976 -0.7158 -0.1457 -0.8993
15845TIP3   OH269025   3.708   0.081   5.458  0.3773 -0.3149 -0.2267
15845TIP3    H169026   3.693   0.079   5.364 -0.8870 -2.0961 -0.0493
15845TIP3    H269027   3.678  -0.005   5.489 -0.5382  0.7039  1.9798
15846TIP3   OH269028   6.125   3.131  13.320 -0.3585 -0.0937  0.1759
15846TIP3    H169029   6.065   3.179  13.377 -0.6373  0.8666 -0.9080
15846TIP3    H269030   6.078   3.121  13.237 -0.0637 -1.7099  0.1590
15847TIP3   OH269031   2.959   5.713   5.592  0.4661 -0.3702 -0.6807
15847TIP3    H169032   2.967   5.753   5.679  0.2523 -0.1631 -0.7556
15847TIP3    H269033   3.045   5.725   5.552  0.9710 -1.5722 -0.0337
15848TIP3   OH269034   6.557   5.355   1.640 -0.3180 -0.7416  0.0786
15848TIP3    H169035   6.476   5.378   1.595  0.5454  0.9458 -0.6940
15848TIP3    H269036   6.596   5.286   1.587 -0.2541 -0.1136 -0.7097
15849TIP3   OH269037   0.295   2.071   2.173  0.1231  0.0600 -0.0989
15849TIP3    H169038   0.366   2.027   2.220  0.1007  0.0169 -0.1061
15849TIP3    H269039   0.238   2.001   2.144  0.9421 -0.0474 -1.5306
15850TIP3   OH269040   5.717   3.001   1.691 -0.1247 -0.2355 -0.0882
15850TIP3    H169041   5.746   3.068   1.629  1.6051  0.2519  1.1687
15850TIP3    H269042   5.797   2.953   1.713 -1.0312 -1.5761  0.3971
15851TIP3   OH269043   6.561   5.015   0.991 -1.1591 -0.4435 -0.1670
15851TIP3    H169044   6.509   5.041   0.915  3.2105  1.9778 -2.7222
15851TIP3    H269045   6.547   5.086   1.055  0.2767  1.2471 -1.6169
15852TIP3   OH269046   3.198   3.643  12.623 -0.3349  0.4944 -0.0512
15852TIP3    H169047   3.292   3.626  12.625 -0.1395  1.5770  0.4206
15852TIP3    H269048   3.159   3.574  12.677  0.0967 -0.3924 -0.8390
15853TIP3   OH269049   1.437   2.457   2.463 -0.3831  0.5571 -1.0402
15853TIP3    H169050   1.489   2.533   2.486 -0.0314  0.0010  0.0649
15853TIP3    H269051   1.347   2.489   2.458 -0.1284  1.2127 -1.4389
15854TIP3   OH269052   6.126   2.939   0.094  0.1133  0.3773 -0.0046
15854TIP3    H169053   6.182   2.941   0.017 -0.4321  1.1796 -0.3861
15854TIP3    H269054   6.095   3.029   0.104 -2.4434 -0.3363 -0.7970
15855TIP3   OH269055   4.875   1.428  14.820 -0.6615 -0.3077  0.0591
15855TIP3    H169056   4.936   1.502  14.829 -0.7288 -0.5244  2.9556
15855TIP3    H269057   4.930   1.351  14.832 -0.9327 -0.6931 -1.0400
15856TIP3   OH269058   1.105   4.109   1.003 -0.4634 -0.1972  0.1433
15856TIP3    H169059   1.078   4.127   0.913 -0.1330  0.7293  0.2244
15856TIP3    H269060   1.059   4.028   1.025 -1.3066  0.0779 -0.5272
15857TIP3   OH269061   0.295   6.099  11.696  0.1986 -0.0219  0.4021
15857TIP3    H169062   0.345   6.057  11.625 -0.6778  1.3898 -1.0869
15857TIP3    H269063   0.362   6.125  11.760  1.1727  0.0540 -0.6251
15858TIP3   OH269064   5.573   2.700  14.867  0.3637  0.1096 -0.2091
15858TIP3    H169065   5.629   2.767  14.907  2.6837 -1.0038 -1.3929
15858TIP3    H269066   5.557   2.732  14.779 -2.5063  1.2789  0.6401
15859TIP3   OH269067   5.071   1.913  14.589  0.1151  0.0070 -0.0479
15859TIP3    H169068   5.061   1.931  14.495  1.0139 -1.7807 -0.5381
15859TIP3    H269069   5.037   1.823  14.599 -0.5312  0.3863  1.4676
15860TIP3   OH269070   2.050   1.129  13.576 -0.0417 -0.0067 -0.0987
15860TIP3    H169071   2.105   1.052  13.563 -0.2677  0.0349 -1.4218
15860TIP3    H269072   1.964   1.094  13.600 -0.2427 -0.1925 -1.0607
15861TIP3   OH269073   1.390   6.413   5.008 -0.5202 -0.1574 -0.1518
15861TIP3    H169074   1.462   6.378   5.061 -0.2811  0.8949  0.2434
15861TIP3    H269075   1.337   6.463   5.070  0.3614  2.0123 -1.0628
15862TIP3   OH269076   0.022   5.256   4.670  0.3199  0.2399 -0.5525
15862TIP3    H169077   0.101   5.310   4.673  0.5248 -0.0619  1.6373
15862TIP3    H269078  -0.031   5.294   4.599  1.8690  1.2309 -1.2309
15863TIP3   OH269079   1.934   3.689  13.732  0.6538 -0.1870 -0.0988
15863TIP3    H169080   1.973   3.708  13.647  0.9503  1.4397  0.3541
15863TIP3    H269081   2.004   3.648  13.782  0.5066 -1.0607 -0.5944
15864TIP3   OH269082   3.921   6.188  14.352  0.1510  0.0553 -0.2632
15864TIP3    H169083   3.998   6.213  14.301  1.4804 -2.6764  0.2418
15864TIP3    H269084   3.883   6.114  14.305 -0.5341 -0.3988  0.9343
15865TIP3   OH269085   2.273   3.506  15.528 -0.5373 -0.0104 -0.4838
15865TIP3    H169086   2.189   3.552  15.533  0.1895  1.4549 -0.9845
15865TIP3    H269087   2.317   3.545  15.452  0.3612 -1.1701 -0.5945
15866TIP3   OH269088   3.042   0.966   2.082 -0.1417  0.3912  0.0981
15866TIP3    H169089   3.054   0.878   2.118  2.8899  0.8546  0.4844
15866TIP3    H269090   3.024   1.021   2.159  2.3860  0.7342  0.5373
15867TIP3   OH269091   4.076   4.689  13.215  0.5944 -0.0565 -0.1861
15867TIP3    H169092   4.129   4.628  13.165  0.9462 -0.6476  0.8691
15867TIP3    H269093   3.987   4.678  13.181  0.8467 -0.3638 -0.7502
15868TIP3   OH269094   2.872   1.227   4.555  0.0109  0.1538  0.3736
15868TIP3    H169095   2.806   1.291   4.581  1.4201  1.4485  0.9163
15868TIP3    H269096   2.893   1.251   4.464  1.1991  1.1131  0.8666
15869TIP3   OH269097   1.548   4.642   2.336 -0.2605  0.0436 -0.0702
15869TIP3    H169098   1.537   4.727   2.377 -1.7938  0.1251 -0.5928
15869TIP3    H269099   1.642   4.636   2.319 -0.3621  2.6696 -2.1696
15870TIP3   OH269100   4.924   3.262  11.922 -0.4852  0.4766  0.1037
15870TIP3    H169101   4.841   3.238  11.882 -1.1646  2.5930  0.1390
15870TIP3    H269102   4.906   3.344  11.969  1.6002  0.9918  0.1266
15871TIP3   OH269103   2.788   2.129   1.937 -0.1639  0.6285 -0.2802
15871TIP3    H169104   2.706   2.081   1.945 -0.1959  0.7576  0.2225
15871TIP3    H269105   2.774   2.209   1.987  0.1422  0.8186 -0.4978
15872TIP3   OH269106   3.705   5.635  13.394  0.4621  0.0543  0.5931
15872TIP3    H169107   3.774   5.638  13.460  0.3179  0.8537  0.7160
15872TIP3    H269108   3.732   5.565  13.335  1.6314  0.6597  0.3688
15873TIP3   OH269109   1.360   0.835   0.455  0.1515  0.0593 -0.4571
15873TIP3    H169110   1.312   0.912   0.424  1.6008  1.4877  0.6765
15873TIP3    H269111   1.361   0.844   0.550  1.8905 -0.3657 -0.3958
15874TIP3   OH269112   5.026   3.382   4.979  0.2562 -0.1227 -0.2131
15874TIP3    H169113   5.113   3.345   4.995 -0.1147 -0.2636  1.8130
15874TIP3    H269114   4.983   3.379   5.065 -1.0054  1.8765 -0.7082
15875TIP3   OH269115   4.571   3.316   5.449 -0.3829  0.1619 -0.5439
15875TIP3    H169116   4.615   3.386   5.497  2.7500 -1.3021 -1.0249
15875TIP3    H269117   4.568   3.243   5.511 -0.3445 -0.3697 -1.1613
15876TIP3   OH269118   2.679   4.110   0.473  0.4558  0.1969 -0.0495
15876TIP3    H169119   2.625   4.170   0.422  0.4871  0.6084  0.3949
15876TIP3    H269120   2.739   4.167   0.522  0.0688 -0.1564  0.8556
15877TIP3   OH269121   0.102   4.493   4.380 -0.0437  0.0279  0.6199
15877TIP3    H169122   0.016   4.526   4.355  1.3592  2.5707 -1.2951
15877TIP3    H269123   0.085   4.405   4.414 -3.3587  0.4234  0.2787
15878TIP3   OH269124   3.408   4.794  13.184  0.1227 -0.3388 -0.0879
15878TIP3    H169125   3.471   4.765  13.251 -0.2727 -1.3751 -0.1472
15878TIP3    H269126   3.429   4.741  13.107  2.3262  2.6516 -1.7458
15879TIP3   OH269127   1.061   2.873  11.536 -0.6422  0.7803 -0.1555
15879TIP3    H169128   1.113   2.950  11.515  1.7667 -0.9433 -0.9843
15879TIP3    H269129   1.061   2.869  11.632  1.9301  0.1777 -0.1203
15880TIP3   OH269130   3.416   2.856   1.533  0.3886  0.1654 -0.7829
15880TIP3    H169131   3.376   2.788   1.587  1.5389  1.1490  1.4497
15880TIP3    H269132   3.351   2.875   1.466 -1.8122 -0.1068  1.1481
15881TIP3   OH269133   3.899   5.577  11.409  0.4467  0.3610 -0.4772
15881TIP3    H169134   3.887   5.627  11.490  1.3358  1.1425 -0.8112
15881TIP3    H269135   3.994   5.572  11.398  0.3354  0.2338 -1.4520
15882TIP3   OH269136   1.530   0.225  14.284 -0.3206 -0.1294  0.1898
15882TIP3    H169137   1.500   0.312  14.259  0.3675  0.2319  0.6008
15882TIP3    H269138   1.504   0.217  14.376  0.8504  0.1955  0.5568
15883TIP3   OH269139   4.022   3.770  14.843 -0.2340  0.5015 -0.7398
15883TIP3    H169140   4.077   3.798  14.916 -0.1705  0.0154 -0.5974
15883TIP3    H269141   3.935   3.758  14.882 -0.3013  0.6577 -0.8369
15884TIP3   OH269142   4.034   1.704  12.322 -0.2627 -0.5411  0.4645
15884TIP3    H169143   4.060   1.615  12.346 -0.7028 -0.6964  0.3583
15884TIP3    H269144   4.026   1.703  12.227  0.2947 -0.2345  0.4074
15885TIP3   OH269145   0.458   1.051  14.808  0.1740  0.2781  0.5963
15885TIP3    H169146   0.496   1.039  14.895 -1.5172  0.4310  1.3971
15885TIP3    H269147   0.422   1.140  14.809  0.2417  0.3315 -0.3228
15886TIP3   OH269148   3.598   1.733   6.242  0.5446 -0.2092 -0.6459
15886TIP3    H169149   3.667   1.667   6.236 -1.4026 -2.4720  0.1296
15886TIP3    H269150   3.562   1.722   6.330  0.7703  2.6462 -0.1139
15887TIP3   OH269151   2.727   0.455  16.319  0.1992  0.4328  0.0063
15887TIP3    H169152   2.770   0.376  16.351  0.8079 -0.1403 -2.0528
15887TIP3    H269153   2.697   0.500  16.398  1.0244 -1.1706  1.2961
15888TIP3   OH269154   6.305   3.837   4.096  0.0843 -0.1375  0.1949
15888TIP3    H169155   6.378   3.792   4.053  0.8310 -0.4686  1.7127
15888TIP3    H269156   6.229   3.818   4.041  0.8463 -1.1724 -0.5422
15889TIP3   OH269157   4.161   2.489   0.105 -0.0458 -0.1383 -0.5464
15889TIP3    H169158   4.151   2.395   0.095  0.3458 -0.2672  0.2111
15889TIP3    H269159   4.215   2.500   0.183  0.8850  0.6843 -1.2705
15890TIP3   OH269160   6.572   0.259  15.186 -0.2278  0.4287  0.2609
15890TIP3    H169161   6.666   0.257  15.167 -0.2016  0.5485  0.3799
15890TIP3    H269162   6.533   0.296  15.107 -0.2895 -0.6671 -0.2403
15891TIP3   OH269163   3.306   5.830  14.946 -0.2407  0.3347  0.1473
15891TIP3    H169164   3.271   5.854  15.032  0.3214  0.3582  0.3740
15891TIP3    H269165   3.261   5.890  14.885 -0.1814  0.7416  0.4959
15892TIP3   OH269166   4.120   2.589   1.482 -0.2270  0.0595 -0.2746
15892TIP3    H169167   4.064   2.612   1.408  0.1055  1.0403 -0.2312
15892TIP3    H269168   4.110   2.661   1.543 -0.1265 -0.5143  0.4370
15893TIP3   OH269169   1.461   3.538   1.320 -0.1169  0.1320  0.8344
15893TIP3    H169170   1.398   3.595   1.274  0.7406  1.5495  1.3636
15893TIP3    H269171   1.546   3.578   1.304  0.2237  0.7118  3.6695
15894TIP3   OH269172   2.375   2.135  16.245 -0.1509 -0.1649 -0.3045
15894TIP3    H169173   2.339   2.123  16.334 -0.2386 -0.3268 -0.3612
15894TIP3    H269174   2.316   2.085  16.189 -0.2181  0.1111 -0.4799
15895TIP3   OH269175   0.680   1.800   1.825 -0.1561 -0.4579  1.1064
15895TIP3    H169176   0.620   1.795   1.751 -0.7098  0.8736  1.4486
15895TIP3    H269177   0.640   1.744   1.892 -0.9319  0.2512  1.2560
15896TIP3   OH269178   4.250   4.965   2.310 -0.1547  0.5692 -0.1716
15896TIP3    H169179   4.275   4.882   2.349 -0.2405 -0.0992 -1.4704
15896TIP3    H269180   4.331   4.998   2.270 -0.0825  1.2016  0.4770
15897TIP3   OH269181   2.930   6.765  12.498 -0.2928  0.2408 -0.3575
15897TIP3    H169182   2.915   6.681  12.455  0.4049  0.0283 -0.1930
15897TIP3    H269183   2.976   6.743  12.579  0.7666  0.8414 -0.7721
15898TIP3   OH269184   1.040   1.066   6.553 -0.8095 -0.4716  0.2271
15898TIP3    H169185   1.074   1.080   6.464 -0.3271  2.0983  0.7470
15898TIP3    H269186   1.115   1.034   6.603 -0.8549 -1.0609 -0.0729
15899TIP3   OH269187   1.591   1.213  16.204 -0.1721 -0.4328 -0.3501
15899TIP3    H169188   1.621   1.303  16.191  1.3252 -0.9344 -0.5428
15899TIP3    H269189   1.655   1.159  16.157 -0.1039 -1.7016  1.1309
15900TIP3   OH269190   3.613   2.921   2.816 -0.0090  0.3315 -0.3988
15900TIP3    H169191   3.573   2.837   2.795 -0.4827  1.0044 -2.4136
15900TIP3    H269192   3.540   2.983   2.820  0.3116  0.6607  1.2260
15901TIP3   OH269193   4.299   1.529  16.638 -0.6056 -0.2167  0.0520
15901TIP3    H169194   4.354   1.606  16.646 -1.0877  0.3000 -1.3458
15901TIP3    H269195   4.320   1.476  16.715  1.9597 -0.1155 -0.4930
15902TIP3   OH269196   1.531   0.216  12.600  0.1071 -0.2064 -0.1739
15902TIP3    H169197   1.546   0.188  12.509  0.1300  0.9716 -0.5486
15902TIP3    H269198   1.447   0.263  12.596  1.0899  1.6310 -0.0072
15903TIP3   OH269199   6.461   1.939  14.656 -0.3541  0.3930 -0.1290
15903TIP3    H169200   6.439   1.949  14.563 -0.5605 -1.1242 -0.2682
15903TIP3    H269201   6.505   1.855  14.662  2.5845  1.8422  0.6966
15904TIP3   OH269202   6.367   4.119   2.472 -0.5406  0.0555 -0.1365
15904TIP3    H169203   6.335   4.030   2.482  1.8739 -1.4869 -3.7761
15904TIP3    H269204   6.298   4.164   2.423 -1.4159  0.0049  1.0110
15905TIP3   OH269205   2.098   4.668   1.625  0.0392 -0.4508  0.6106
15905TIP3    H169206   2.022   4.632   1.580  1.0723  1.5128 -3.1155
15905TIP3    H269207   2.084   4.763   1.625  2.5638 -0.0025 -0.4740
15906TIP3   OH269208   6.355   1.241  15.876 -0.1419 -0.4424  0.0108
15906TIP3    H169209   6.402   1.323  15.861  2.0061 -1.8257 -1.4072
15906TIP3    H269210   6.358   1.228  15.971  1.7613 -0.0932  0.0300
15907TIP3   OH269211   5.743   6.571  13.756  0.2277 -0.4176  0.2987
15907TIP3    H169212   5.735   6.588  13.662  4.0778  0.4353 -0.0254
15907TIP3    H269213   5.732   6.657  13.797  1.2420 -0.2870  0.3305
15908TIP3   OH269214   5.249   1.019  15.274 -0.0116 -0.3488 -0.5147
15908TIP3    H169215   5.171   1.075  15.276  0.7242  0.6869  1.2453
15908TIP3    H269216   5.322   1.079  15.267  0.7302 -1.1627  0.0336
15909TIP3   OH269217   0.400   0.330   1.794  0.6139  0.0755 -0.2006
15909TIP3    H169218   0.466   0.361   1.732  1.0120  0.1513  0.2576
15909TIP3    H269219   0.398   0.235   1.782 -0.2845  0.2086 -1.2862
15910TIP3   OH269220   1.841   5.869  15.188 -0.3399 -0.8480 -0.1367
15910TIP3    H169221   1.872   5.840  15.274 -0.3252  0.1899  0.2228
15910TIP3    H269222   1.919   5.904  15.145 -0.7167  0.5789  0.2682
15911TIP3   OH269223   2.069   2.006  15.104  0.4289 -0.3024 -0.3674
15911TIP3    H169224   2.053   1.943  15.174  2.0382  0.3548  0.6677
15911TIP3    H269225   2.162   1.994  15.083  0.3871  0.7131 -1.1718
15912TIP3   OH269226   3.734   1.421   1.106 -0.0599 -0.2176  0.1934
15912TIP3    H169227   3.765   1.480   1.037  0.9171 -0.9896 -0.0401
15912TIP3    H269228   3.650   1.459   1.134 -0.3977  0.1847 -1.2970
15913TIP3   OH269229   4.177   1.277   1.153  0.8931  0.0002  0.0268
15913TIP3    H169230   4.217   1.344   1.096 -0.5676 -0.2521 -1.3710
15913TIP3    H269231   4.233   1.201   1.143  2.4334  0.8710  1.4352
15914TIP3   OH269232   4.936   2.844   6.135  0.3285  0.2038 -0.1382
15914TIP3    H169233   4.841   2.845   6.127  0.2310 -1.4671  0.5394
15914TIP3    H269234   4.954   2.904   6.208 -0.3529 -0.7850  0.8705
15915TIP3   OH269235   4.439   2.879   3.193  0.4196  0.5232 -0.4433
15915TIP3    H169236   4.520   2.872   3.142  0.6282 -1.0922  0.0693
15915TIP3    H269237   4.391   2.951   3.151  3.1614  3.2752  0.7719
15916TIP3   OH269238   2.074   1.617  14.773 -0.1464 -0.1723 -0.3129
15916TIP3    H169239   2.006   1.648  14.713 -0.6883 -0.9622 -0.1286
15916TIP3    H269240   2.134   1.691  14.782 -1.0406  0.5788 -0.3963
15917TIP3   OH269241   3.657   4.060   0.611 -0.0514  0.0188  0.0202
15917TIP3    H169242   3.584   4.061   0.549 -0.0429 -0.5681 -0.0006
15917TIP3    H269243   3.726   4.110   0.566 -0.1329 -0.1829 -0.3386
15918TIP3   OH269244   2.763   3.439  13.864 -0.7605  0.0688  1.0570
15918TIP3    H169245   2.836   3.405  13.915 -0.8133 -0.9696  0.4833
15918TIP3    H269246   2.740   3.521  13.906  0.7567  0.4360  1.2153
15919TIP3   OH269247   3.292   1.223  12.765 -0.0070  0.0369  0.0393
15919TIP3    H169248   3.197   1.233  12.755 -0.0594 -1.2266 -0.9179
15919TIP3    H269249   3.328   1.287  12.704 -0.2681 -0.3855 -0.5717
15920TIP3   OH269250   3.939   0.169  16.271  0.1902 -0.3587 -0.0408
15920TIP3    H169251   4.003   0.231  16.236 -0.5919  1.2492  1.1933
15920TIP3    H269252   3.879   0.153  16.199  1.4579 -1.1866 -0.9394
15921TIP3   OH269253   0.296   2.409  13.266  0.2920  0.3852 -0.3885
15921TIP3    H169254   0.353   2.383  13.194 -0.5366  1.8808 -1.6752
15921TIP3    H269255   0.337   2.487  13.302 -0.1880  0.6539 -0.4081
15922TIP3   OH269256   0.946   2.355  15.489 -0.1106  0.1634  0.2062
15922TIP3    H169257   0.958   2.260  15.483 -3.9623 -0.4417 -0.1673
15922TIP3    H269258   0.914   2.381  15.402  0.1515  1.7044  0.5403
15923TIP3   OH269259   1.749   3.925   4.288  0.2474  0.9372 -0.4200
15923TIP3    H169260   1.655   3.941   4.296  0.0780  0.4879 -1.3348
15923TIP3    H269261   1.757   3.871   4.210  1.3341  1.5088 -0.7204
15924TIP3   OH269262   4.712   0.942   4.928 -0.0787 -0.0386 -0.0018
15924TIP3    H169263   4.776   0.920   4.861 -0.2896  0.7879 -0.4944
15924TIP3    H269264   4.645   0.993   4.882 -0.5587 -0.0133  0.7033
15925TIP3   OH269265   1.269   4.463   4.336 -0.0540 -0.0766  0.2084
15925TIP3    H169266   1.271   4.511   4.419 -1.4919  1.0436 -0.3616
15925TIP3    H269267   1.361   4.442   4.319  0.3357  0.2062  1.7647
15926TIP3   OH269268   1.996   4.394   4.213 -0.2218 -0.2209 -0.5038
15926TIP3    H169269   1.991   4.384   4.118 -1.3471  0.0420 -0.4887
15926TIP3    H269270   1.920   4.347   4.246 -0.8393  1.1589  0.1340
15927TIP3   OH269271   4.115   1.623   0.567 -0.3166  0.1217 -0.1947
15927TIP3    H169272   4.126   1.698   0.509 -0.1917 -0.7556 -1.3198
15927TIP3    H269273   4.184   1.634   0.633 -0.7137  1.3289  0.0529
15928TIP3   OH269274   1.683   6.787   0.661  0.0054 -0.0316 -0.2313
15928TIP3    H169275   1.775   6.793   0.689 -0.1835 -0.8037  0.6079
15928TIP3    H269276   1.638   6.856   0.710 -0.0486 -0.3738  0.2110
15929TIP3   OH269277   3.608   5.830   1.064  0.7101  0.0199 -0.3799
15929TIP3    H169278   3.607   5.890   1.139 -2.1297 -1.6593  1.1046
15929TIP3    H269279   3.647   5.750   1.099  0.3928 -0.4186 -1.0123
15930TIP3   OH269280   3.745   2.346   6.701  0.0083 -0.2051 -0.0497
15930TIP3    H169281   3.780   2.430   6.729 -0.8192  0.0632  0.2091
15930TIP3    H269282   3.758   2.344   6.606  3.7528 -1.5438  0.3242
15931TIP3   OH269283   6.249   3.244  12.318  0.0228 -0.0175  0.7810
15931TIP3    H169284   6.268   3.337  12.309  1.8883 -0.2986  1.3082
15931TIP3    H269285   6.168   3.240  12.370 -0.2269  1.2926  0.5122
15932TIP3   OH269286   5.952   3.343  14.340  0.0234 -0.3907  0.1141
15932TIP3    H169287   6.033   3.315  14.299 -0.5093 -1.5839 -0.1568
15932TIP3    H269288   5.952   3.439  14.331  1.0525 -0.4387 -0.4956
15933TIP3   OH269289   0.060   2.276   4.423  0.2860  0.3450  0.0649
15933TIP3    H169290  -0.028   2.240   4.430  1.2580 -2.3998 -0.6924
15933TIP3    H269291   0.078   2.279   4.329  1.6493 -0.9624  0.2426
15934TIP3   OH269292   6.259   4.071  11.857 -0.5464 -0.1194 -0.8200
15934TIP3    H169293   6.258   4.002  11.923 -2.5205 -0.1357 -0.7895
15934TIP3    H269294   6.175   4.061  11.810 -0.4872  1.6713 -1.4113
15935TIP3   OH269295   6.318   3.680   3.779 -0.4401  0.0603 -0.0307
15935TIP3    H169296   6.342   3.724   3.698 -0.5905 -0.8368 -0.5762
15935TIP3    H269297   6.242   3.728   3.811 -0.2664  0.5351 -0.3234
15936TIP3   OH269298   5.720   3.928   6.482  0.6048 -0.2171 -0.2033
15936TIP3    H169299   5.624   3.926   6.483  0.6121 -0.6866  0.2595
15936TIP3    H269300   5.742   4.015   6.449  0.0269 -0.4486 -1.2274
15937TIP3   OH269301   3.927   1.399   3.494 -0.1042 -0.7660  0.1927
15937TIP3    H169302   3.925   1.312   3.453  2.9790 -0.4932 -0.8519
15937TIP3    H269303   4.003   1.396   3.552 -1.1638  0.6455  1.7315
15938TIP3   OH269304   3.325   4.556   2.440  0.0472  0.2208  0.1098
15938TIP3    H169305   3.341   4.479   2.494 -2.6777 -0.5881 -0.1132
15938TIP3    H269306   3.354   4.531   2.352  1.1492  0.2631  0.4431
15939TIP3   OH269307   4.086   3.633  15.847  0.0548 -0.1969  0.3533
15939TIP3    H169308   4.066   3.657  15.756 -0.2950  1.1812  0.7752
15939TIP3    H269309   4.003   3.642  15.893 -0.1279 -2.3275  0.5704
15940TIP3   OH269310   4.325   5.625  16.621  0.0999  0.0563  0.0994
15940TIP3    H169311   4.380   5.585  16.689 -1.3232 -2.6490 -0.2204
15940TIP3    H269312   4.375   5.612  16.540  1.0863  1.9211  0.3348
15941TIP3   OH269313   4.947   0.966   1.932 -0.3109  0.9208  0.2986
15941TIP3    H169314   4.993   1.003   1.857 -1.1022 -0.6074 -1.0050
15941TIP3    H269315   4.870   1.022   1.943 -0.5606  0.7501 -0.4983
15942TIP3   OH269316   4.780   2.586  16.381 -0.3184  0.2028 -0.3383
15942TIP3    H169317   4.709   2.648  16.365 -1.0592 -0.7592 -0.9248
15942TIP3    H269318   4.856   2.641  16.398 -1.4154  1.2765  1.4571
15943TIP3   OH269319   6.239   5.471   4.793  0.1968 -0.4049  0.3344
15943TIP3    H169320   6.331   5.465   4.817  0.1533  0.2100  0.6728
15943TIP3    H269321   6.229   5.560   4.759 -0.0122 -0.8478 -0.8283
15944TIP3   OH269322   1.733   3.394   4.990  0.3243  0.2124  0.8007
15944TIP3    H169323   1.770   3.347   5.064  0.0346  0.5102  1.1404
15944TIP3    H269324   1.680   3.464   5.030  1.0098  1.0298  0.3132
15945TIP3   OH269325   2.508   5.607   0.231 -0.3186 -0.4466  0.2404
15945TIP3    H169326   2.484   5.525   0.275 -0.4114  0.1093  1.2734
15945TIP3    H269327   2.598   5.623   0.259 -0.8634  0.6761  1.4849
15946TIP3   OH269328   3.585   2.334  12.597  0.0611 -0.1498 -0.3004
15946TIP3    H169329   3.615   2.420  12.625 -2.9717  0.6983  0.7203
15946TIP3    H269330   3.544   2.296  12.675  0.0212 -1.9024 -1.1182
15947TIP3   OH269331   0.516   6.800   0.196 -0.1707  0.7179 -0.0450
15947TIP3    H169332   0.463   6.735   0.241 -1.3365  1.9332  0.4142
15947TIP3    H269333   0.458   6.836   0.129  0.7052  0.7573 -0.8133
15948TIP3   OH269334   2.163   1.762   2.166  0.1336 -0.6235 -0.1581
15948TIP3    H169335   2.193   1.685   2.214 -0.3772 -1.1709 -0.7110
15948TIP3    H269336   2.125   1.728   2.085  0.3992  0.2447 -0.6683
15949TIP3   OH269337   4.106   0.086  16.730 -0.5986  0.2590 -0.1460
15949TIP3    H169338   4.184   0.141  16.735 -0.3594 -0.2202  2.5266
15949TIP3    H269339   4.084   0.067  16.821 -2.4061 -1.6609 -0.9158
15950TIP3   OH269340   4.279   1.567  17.146  0.0582  0.0042  0.1828
15950TIP3    H169341   4.192   1.593  17.116  0.4098  2.3704  0.9596
15950TIP3    H269342   4.280   1.590  17.239  0.6355 -2.5698  0.8878
15951TIP3   OH269343   3.985   1.385   3.891 -0.0314  0.0657 -0.1369
15951TIP3    H169344   3.970   1.471   3.853  0.3596 -0.9306 -2.7486
15951TIP3    H269345   4.071   1.359   3.859 -0.2143 -1.3746  0.4726
15952TIP3   OH269346   3.896   1.911   5.896 -0.2586 -0.0307 -0.1074
15952TIP3    H169347   3.952   1.982   5.863  0.6020 -0.9820 -0.7481
15952TIP3    H269348   3.814   1.954   5.921  0.5690  1.3235  0.3667
15953TIP3   OH269349   4.401   4.331   3.337 -0.0454  0.2418 -0.1339
15953TIP3    H169350   4.335   4.310   3.403  1.6778 -1.3075  1.2182
15953TIP3    H269351   4.442   4.412   3.367  1.2496 -0.8536  1.2170
15954TIP3   OH269352   4.449   4.680  14.452  0.3224 -0.1306  0.4598
15954TIP3    H169353   4.519   4.643  14.400 -0.4757 -0.2972 -0.5278
15954TIP3    H269354   4.369   4.651  14.409 -0.3448  1.3960  0.6040
15955TIP3   OH269355   1.166   5.867  13.754  0.1274  0.3005 -0.5034
15955TIP3    H169356   1.142   5.956  13.779  1.5801  1.1210 -1.8841
15955TIP3    H269357   1.151   5.863  13.660 -3.1251 -2.0399 -0.0809
15956TIP3   OH269358   1.024   1.097   2.136 -0.1709 -0.1476  0.2934
15956TIP3    H169359   0.943   1.052   2.110  0.6945 -1.4896 -0.2066
15956TIP3    H269360   1.071   1.111   2.054  0.3011  0.2208  0.6257
15957TIP3   OH269361   6.648   5.445   2.648  0.8577 -0.4353 -0.3826
15957TIP3    H169362   6.673   5.353   2.656 -1.4609 -1.3482 -2.2967
15957TIP3    H269363   6.721   5.486   2.602  0.8826 -1.9573 -1.8156
15958TIP3   OH269364   6.173   3.381  12.946 -0.0746 -0.3342 -0.6306
15958TIP3    H169365   6.237   3.436  12.901 -0.0858 -0.2837 -0.5850
15958TIP3    H269366   6.189   3.293  12.912  1.5762 -0.7557  1.0694
15959TIP3   OH269367   4.818   5.328  12.872  0.4867  0.4655 -0.2308
15959TIP3    H169368   4.855   5.354  12.788  0.7690  1.4634  0.1855
15959TIP3    H269369   4.801   5.235  12.863  0.0586  0.6564 -1.5584
15960TIP3   OH269370   5.413   0.435  12.833 -0.0478 -0.4281  0.2451
15960TIP3    H169371   5.459   0.386  12.765  0.2886  2.5730 -1.9227
15960TIP3    H269372   5.334   0.384  12.851  1.0527 -2.5233 -0.5826
15961TIP3   OH269373   6.064   2.655   1.836 -0.6403 -0.4775  0.3560
15961TIP3    H169374   6.017   2.601   1.899  0.6394 -0.4989  1.3442
15961TIP3    H269375   6.157   2.636   1.852 -0.2545  0.1748 -0.9478
15962TIP3   OH269376   3.963   2.060   0.219 -0.2894 -0.3914 -0.4635
15962TIP3    H169377   3.996   2.145   0.249 -0.7340 -0.6234  0.7364
15962TIP3    H269378   3.867   2.071   0.218 -0.3237 -0.7054 -0.8628
15963TIP3   OH269379   2.789   3.533  12.231  0.2739  0.1884  0.4169
15963TIP3    H169380   2.812   3.618  12.268 -0.9626  0.1347  1.3879
15963TIP3    H269381   2.863   3.477  12.251  1.0525  0.9944 -0.1243
15964TIP3   OH269382   3.610   5.083   4.124 -0.6221 -0.1344  0.0284
15964TIP3    H169383   3.647   5.140   4.192 -1.1587  0.5024 -0.2001
15964TIP3    H269384   3.664   5.004   4.127  1.8586  1.3617 -1.4030
15965TIP3   OH269385   3.709   2.004  13.432 -0.4206 -0.3399 -0.4187
15965TIP3    H169386   3.780   2.066  13.448  1.1915 -1.6532 -2.0220
15965TIP3    H269387   3.630   2.050  13.459  1.0004  1.2614  1.2593
15966TIP3   OH269388   0.004   4.842  12.146  0.4639  0.0605  0.0582
15966TIP3    H169389  -0.084   4.849  12.109  0.5292 -0.0131 -0.1102
15966TIP3    H269390   0.051   4.918  12.111  0.2658  0.4918  0.7043
15967TIP3   OH269391   3.947   2.682   2.568 -0.6154  0.0715 -0.3540
15967TIP3    H169392   4.027   2.709   2.614 -0.4657 -1.5149  0.3885
15967TIP3    H269393   3.884   2.751   2.587  0.0434  0.4332  0.6020
15968TIP3   OH269394   0.156   3.163   3.011 -0.0063  0.1460 -0.4831
15968TIP3    H169395   0.120   3.248   3.039  0.3457  0.4706 -0.9903
15968TIP3    H269396   0.096   3.098   3.048  0.9268  0.4852  1.7815
15969TIP3   OH269397   5.268   0.783  11.050 -0.1227  0.3661 -0.5300
15969TIP3    H169398   5.257   0.875  11.030  1.7734  0.3532 -1.8209
15969TIP3    H269399   5.293   0.742  10.967  1.0641 -0.9276  0.4051
15970TIP3   OH269400   1.441   0.776  11.621 -0.2763 -0.2493  0.2776
15970TIP3    H169401   1.500   0.703  11.638  0.5904  0.5278  0.6408
15970TIP3    H269402   1.354   0.736  11.617  0.2942 -1.4549 -0.5914
15971TIP3   OH269403   4.854   3.834  14.265  0.0292  0.2771  0.2931
15971TIP3    H169404   4.876   3.811  14.175  0.8333  1.7881  0.0682
15971TIP3    H269405   4.933   3.877  14.299  0.6653 -2.3371  2.5407
15972TIP3   OH269406   5.191   1.780   3.540 -0.5205  0.1833 -0.3803
15972TIP3    H169407   5.279   1.743   3.544 -1.3033 -1.7092  0.5195
15972TIP3    H269408   5.138   1.712   3.498 -1.4972  1.4261 -1.2146
15973TIP3   OH269409   0.721   2.546   1.783  0.2023 -0.0509 -0.5512
15973TIP3    H169410   0.632   2.531   1.752 -0.9823  0.2888  2.3376
15973TIP3    H269411   0.749   2.460   1.817  0.0345  0.3536  0.6499
15974TIP3   OH269412   1.699   3.618   4.644  0.0915 -0.4856 -0.4315
15974TIP3    H169413   1.747   3.577   4.571 -0.0524 -0.0624 -0.7721
15974TIP3    H269414   1.766   3.665   4.693  0.0210  0.1638 -0.9483
15975TIP3   OH269415   2.422   1.905   4.363  0.1090 -0.2629 -0.1637
15975TIP3    H169416   2.406   1.856   4.443  2.3963 -0.0367  0.5104
15975TIP3    H269417   2.336   1.912   4.321 -0.7593 -2.3444  1.1144
15976TIP3   OH269418   0.250   6.544  12.878 -0.0266 -0.1183 -0.2399
15976TIP3    H169419   0.190   6.532  12.951  2.5027  0.5717  2.1087
15976TIP3    H269420   0.193   6.553  12.801 -2.8317 -0.1650  1.6938
15977TIP3   OH269421   4.802   3.609  14.435  0.0511 -0.2216  0.6224
15977TIP3    H169422   4.817   3.675  14.368 -1.3551 -1.5914 -1.1557
15977TIP3    H269423   4.723   3.637  14.480 -0.2777 -0.4263  0.1823
15978TIP3   OH269424   0.171   5.917  13.458  0.4813  0.0542 -1.0112
15978TIP3    H169425   0.115   5.914  13.536 -0.3543  0.3860 -1.5827
15978TIP3    H269426   0.112   5.899  13.385  1.2740 -0.3616 -1.5670
15979TIP3   OH269427   2.414   1.359   3.195 -0.2526  0.8039  0.3749
15979TIP3    H169428   2.454   1.368   3.109  0.7994 -1.4221  0.5597
15979TIP3    H269429   2.473   1.301   3.243 -2.0468  0.0442  1.7864
15980TIP3   OH269430   2.211   0.341  11.706 -0.8705  0.0311  0.1324
15980TIP3    H169431   2.214   0.421  11.759 -1.4006  0.9781 -1.2193
15980TIP3    H269432   2.137   0.291  11.741  1.4136 -1.5385  3.1943
15981TIP3   OH269433   5.563   2.804   5.033  0.5421  0.1634 -0.2579
15981TIP3    H169434   5.513   2.799   4.952  0.7504  0.3311 -0.3966
15981TIP3    H269435   5.601   2.892   5.033  0.4926  0.1861  0.0491
15982TIP3   OH269436   3.643   0.326   4.375 -0.0158 -0.2284 -0.5682
15982TIP3    H169437   3.625   0.321   4.469  0.5468  0.7014 -0.3940
15982TIP3    H269438   3.603   0.248   4.338 -0.8376 -0.2586  0.3536
15983TIP3   OH269439   1.636   0.319  15.726  0.2972 -0.1662 -0.2547
15983TIP3    H169440   1.560   0.261  15.727  0.2214 -0.0694 -0.3070
15983TIP3    H269441   1.684   0.298  15.806  0.2671 -0.2962 -0.2718
15984TIP3   OH269442   5.241   6.621  16.000  0.4928  0.7971 -0.3513
15984TIP3    H169443   5.197   6.564  16.063  3.4140 -0.8990  0.3064
15984TIP3    H269444   5.237   6.573  15.917  0.8735  0.7775 -0.3570
15985TIP3   OH269445   6.580   3.274   2.563  0.2729  0.2640 -0.0832
15985TIP3    H169446   6.541   3.194   2.529  2.5554 -1.8658  1.9440
15985TIP3    H269447   6.651   3.294   2.502  1.2366 -0.7307  0.6630
15986TIP3   OH269448   1.321   6.021  13.052 -0.1247 -0.8050 -0.5116
15986TIP3    H169449   1.231   5.989  13.046 -0.0883 -0.7974 -1.1686
15986TIP3    H269450   1.326   6.064  13.137 -0.6682 -1.0364 -0.3621
15987TIP3   OH269451   3.693   3.772  12.556  0.1648 -0.0632 -0.3622
15987TIP3    H169452   3.638   3.710  12.508 -0.0372 -0.4948  0.4206
15987TIP3    H269453   3.777   3.726  12.567  0.7141  0.5924 -1.5556
15988TIP3   OH269454   2.477   5.399  10.063 -0.3166  0.4486 -0.0172
15988TIP3    H169455   2.423   5.354   9.998  0.5790  0.0000 -0.4814
15988TIP3    H269456   2.418   5.417  10.136 -0.5071 -2.4876  0.7012
15989TIP3   OH269457   4.564   4.619  14.758 -0.1575 -0.7318 -0.1335
15989TIP3    H169458   4.526   4.639  14.844  0.2222 -0.8735  0.0700
15989TIP3    H269459   4.579   4.525  14.760 -0.3502 -0.7672 -0.4399
15990TIP3   OH269460   6.185   6.314  10.507 -0.2928 -0.0455 -0.5919
15990TIP3    H169461   6.175   6.223  10.479 -1.0385  0.5117 -2.2624
15990TIP3    H269462   6.146   6.365  10.437  0.2139  1.5861  0.2615
15991TIP3   OH269463   3.381   1.810  11.481 -0.0232  0.3020  0.0748
15991TIP3    H169464   3.410   1.724  11.451  0.6039  0.4795  0.1454
15991TIP3    H269465   3.316   1.838  11.417  2.0888  1.1610 -1.8061
15992TIP3   OH269466   4.781   4.740  13.337  0.1124 -0.2130  0.2449
15992TIP3    H169467   4.832   4.736  13.256 -1.9740 -0.5617 -1.1406
15992TIP3    H269468   4.743   4.652  13.345  0.3159 -0.1949  1.6638
15993TIP3   OH269469   1.793   4.432  11.597  0.2089  0.1060  0.7465
15993TIP3    H169470   1.815   4.339  11.587  1.6778  0.5231 -0.2784
15993TIP3    H269471   1.877   4.477  11.588 -0.4721  1.5351  1.3302
15994TIP3   OH269472   5.574   5.764  14.588  0.4876  0.1818 -0.3631
15994TIP3    H169473   5.590   5.805  14.673 -0.9813  0.7711 -0.3344
15994TIP3    H269474   5.620   5.820  14.526 -0.0900  0.9303 -0.1433
15995TIP3   OH269475   2.148   5.243   4.079 -0.3230  0.6072 -0.1334
15995TIP3    H169476   2.064   5.280   4.105 -0.7677 -1.4361  1.6305
15995TIP3    H269477   2.131   5.150   4.064  1.5787  0.1332  0.2553
15996TIP3   OH269478   2.589   6.399  10.388  0.4492 -0.4059 -0.2315
15996TIP3    H169479   2.536   6.365  10.315 -3.1585  2.6702  0.6262
15996TIP3    H269480   2.561   6.347  10.463  0.4199 -0.3556 -0.2067
15997TIP3   OH269481   0.533   1.925  12.557 -0.3589 -0.0636 -0.4124
15997TIP3    H169482   0.520   1.864  12.484 -2.0964 -1.1592  0.7378
15997TIP3    H269483   0.591   1.879  12.617 -1.0213 -0.2572  0.0844
15998TIP3   OH269484   6.724   6.424  14.710  0.4034  0.1833 -0.0913
15998TIP3    H169485   6.730   6.414  14.805 -1.5094 -0.7098 -0.0172
15998TIP3    H269486   6.753   6.341  14.674  1.6088  0.6929 -0.3344
15999TIP3   OH269487   1.285   3.566   2.808 -0.1572  0.7030 -0.2548
15999TIP3    H169488   1.307   3.543   2.717 -0.3532 -1.3385  0.1635
15999TIP3    H269489   1.289   3.483   2.855 -3.0155  1.1525  1.0172
16000TIP3   OH269490   5.137   1.039   5.191 -0.0266 -0.5089  0.3790
16000TIP3    H169491   5.125   1.009   5.281  0.7204  0.1606  0.7181
16000TIP3    H269492   5.097   1.125   5.188 -1.5805 -1.2172 -0.4168
16001TIP3   OH269493   2.541   4.915   4.121 -0.3168  0.1039  0.0556
16001TIP3    H169494   2.475   4.983   4.105 -1.1335 -0.5997  0.3199
16001TIP3    H269495   2.580   4.940   4.205  0.5930  1.1589 -0.6487
16002TIP3   OH269496   3.196   0.817  14.754  0.1470  0.4353  1.1247
16002TIP3    H169497   3.276   0.808  14.806  1.0802  2.4558  0.1783
16002TIP3    H269498   3.139   0.872  14.808 -0.2469 -0.2442  1.4088
16003TIP3   OH269499   3.531   6.781  16.094 -0.0095 -0.2677  0.8205
16003TIP3    H169500   3.504   6.754  16.007  0.6210  0.5502  0.3450
16003TIP3    H269501   3.592   6.854  16.078  0.2470 -0.2186  1.9339
16004TIP3   OH269502   1.856   6.537  14.171  0.7655  0.0130 -0.1233
16004TIP3    H169503   1.860   6.447  14.205  1.8174  0.1161  0.0579
16004TIP3    H269504   1.942   6.573  14.190 -0.1455  1.6059  1.2776
16005TIP3   OH269505   2.564   0.044  14.805  0.9592  0.1942  0.2198
16005TIP3    H169506   2.591  -0.011  14.731 -1.0098 -0.2852 -0.1980
16005TIP3    H269507   2.565   0.133  14.770  1.1006  0.0935 -0.0390
16006TIP3   OH269508   4.064   2.623  14.344 -0.2933 -0.2767 -0.2977
16006TIP3    H169509   4.027   2.710  14.359 -0.7135 -0.4421 -0.3710
16006TIP3    H269510   4.075   2.618  14.249  0.5958  0.0469 -0.2164
16007TIP3   OH269511   1.646   5.736   2.491 -0.1995 -0.3583  0.5406
16007TIP3    H169512   1.589   5.695   2.426 -0.3225  0.6076  0.0154
16007TIP3    H269513   1.706   5.666   2.517 -0.8373 -1.0561  0.1936
16008TIP3   OH269514   1.786   0.512   3.527  0.1787  0.2054 -0.3033
16008TIP3    H169515   1.846   0.453   3.482 -0.7384  0.6135 -2.1632
16008TIP3    H269516   1.793   0.487   3.619  2.6073 -0.2409 -0.5370
16009TIP3   OH269517   5.779   4.998  15.202  0.7309  0.0857  0.4159
16009TIP3    H169518   5.809   4.944  15.129  0.1050 -0.7475  0.7619
16009TIP3    H269519   5.685   4.982  15.206  0.7428  0.2031  1.3421
16010TIP3   OH269520   3.009   6.226  13.249 -0.4769  0.4995  0.7529
16010TIP3    H169521   2.972   6.159  13.192  0.9002  0.0399  0.3650
16010TIP3    H269522   3.076   6.180  13.301 -0.3542  1.3151  1.3440
16011TIP3   OH269523   0.274   2.532  16.033 -0.4126  0.1789  0.3606
16011TIP3    H169524   0.225   2.499  16.108  1.3390 -1.0257  1.0648
16011TIP3    H269525   0.350   2.473  16.027  0.5106  1.4433 -1.1495
16012TIP3   OH269526   3.953   6.151  12.094 -0.8381  0.4511  0.3745
16012TIP3    H169527   4.039   6.183  12.069 -0.0343 -2.2031 -0.5985
16012TIP3    H269528   3.901   6.155  12.013 -1.3931  1.2790  0.7603
16013TIP3   OH269529   6.672   1.737   4.050  0.1418 -0.2565  0.3307
16013TIP3    H169530   6.607   1.760   3.983  0.8207  0.3213 -0.1443
16013TIP3    H269531   6.624   1.683   4.112 -0.5169 -0.7879 -0.6113
16014TIP3   OH269532   5.724   4.701  13.750  0.0492 -0.0738  0.1113
16014TIP3    H169533   5.784   4.743  13.812  0.0172  1.2318 -0.7139
16014TIP3    H269534   5.660   4.656  13.806  0.8097 -0.0804  1.0028
16015TIP3   OH269535   4.796   5.098  12.734  0.0800  0.0664  0.3946
16015TIP3    H169536   4.776   5.005  12.742  2.2487 -0.4412  0.4383
16015TIP3    H269537   4.785   5.118  12.641 -1.5482  0.0870  0.5703
16016TIP3   OH269538   3.553   1.136   2.583  0.3033 -0.5906 -0.2109
16016TIP3    H169539   3.582   1.182   2.505 -2.0342 -2.3934 -2.2791
16016TIP3    H269540   3.568   1.043   2.564 -1.0170 -1.1301  1.1559
16017TIP3   OH269541   2.620   6.095   3.128 -0.6482  0.3388  0.0474
16017TIP3    H169542   2.589   6.021   3.076  0.2857 -0.5494  0.7239
16017TIP3    H269543   2.636   6.164   3.064 -1.6968  0.0356 -0.5765
16018TIP3   OH269544   4.419   1.392  15.258 -0.9019  0.2986  0.6817
16018TIP3    H169545   4.335   1.430  15.285 -1.2130 -0.6426  1.1067
16018TIP3    H269546   4.484   1.440  15.308 -1.2344  0.6467  0.7893
16019TIP3   OH269547   2.922   0.669   0.676 -0.1701 -0.2431  0.1059
16019TIP3    H169548   2.877   0.727   0.615  1.4609  0.5174 -0.4097
16019TIP3    H269549   2.860   0.597   0.690 -0.0058 -1.3549 -3.7480
16020TIP3   OH269550   0.183   6.622  11.981  0.2812 -0.1210 -0.3584
16020TIP3    H169551   0.097   6.661  11.963  0.3558 -0.0260 -0.5053
16020TIP3    H269552   0.171   6.576  12.064 -0.0536 -0.5161 -0.6161
16021TIP3   OH269553   2.766   0.918  17.138 -0.5549 -0.2595  0.0535
16021TIP3    H169554   2.740   0.830  17.107  0.6682 -0.6675  0.1314
16021TIP3    H269555   2.806   0.959  17.061 -2.7117  0.9507 -0.5085
16022TIP3   OH269556   3.945   4.070   1.917  0.5518  0.5305 -0.0500
16022TIP3    H169557   3.988   3.998   1.870 -3.7013 -2.6976  0.3655
16022TIP3    H269558   3.973   4.059   2.008  2.0957  1.2733 -0.4098
16023TIP3   OH269559   2.611   1.210   4.414 -0.3519  0.5155  0.5015
16023TIP3    H169560   2.646   1.157   4.342 -1.2038 -1.7254  1.6251
16023TIP3    H269561   2.527   1.243   4.381 -0.4060  0.0926  0.2094
16024TIP3   OH269562   5.183   0.976  11.966  0.2722 -0.0187 -0.0115
16024TIP3    H169563   5.132   0.958  12.045  1.7439 -1.4253  0.6838
16024TIP3    H269564   5.232   1.056  11.988  0.0097  0.0938  0.1676
16025TIP3   OH269565   0.726   2.217   6.045  0.7754 -0.5267 -0.1650
16025TIP3    H169566   0.747   2.258   6.128 -3.6793  0.4294  0.7158
16025TIP3    H269567   0.673   2.141   6.068 -0.9014 -0.0192 -2.0576
16026TIP3   OH269568   3.426   2.212   1.798  0.0181  0.6298 -0.1698
16026TIP3    H169569   3.408   2.160   1.876  1.1328 -0.6312 -0.7136
16026TIP3    H269570   3.340   2.242   1.769 -0.6399 -0.7072  0.3167
16027TIP3   OH269571   0.103   0.679  12.011  0.6235  0.8644 -0.2410
16027TIP3    H169572   0.020   0.691  12.058  0.1220 -1.7809 -0.2925
16027TIP3    H269573   0.163   0.644  12.077  0.6581 -0.4692 -0.9475
16028TIP3   OH269574   1.661   4.612   1.801 -0.1534 -0.2675  0.3501
16028TIP3    H169575   1.639   4.665   1.725  0.9075 -0.3157 -0.0126
16028TIP3    H269576   1.653   4.672   1.875  1.2280  0.4886 -0.0761
16029TIP3   OH269577   1.180   6.508  14.097 -0.0348 -0.2031 -0.2684
16029TIP3    H169578   1.264   6.549  14.115  0.0613 -0.7722  0.6468
16029TIP3    H269579   1.195   6.458  14.016  0.1020  0.7743 -0.8693
16030TIP3   OH269580   0.436   3.915   4.392  0.2776  0.2779  0.4436
16030TIP3    H169581   0.409   4.005   4.410  2.0145  0.9232  0.0842
16030TIP3    H269582   0.489   3.921   4.313  1.7282 -0.7887  1.2815
16031TIP3   OH269583   1.304   0.815   5.143  0.3956 -0.2448 -0.0378
16031TIP3    H169584   1.374   0.802   5.080 -0.4633 -1.3553 -0.8025
16031TIP3    H269585   1.224   0.820   5.090 -0.0362  2.0779  0.7125
16032TIP3   OH269586   4.623   4.870   4.990 -0.1744 -0.4773  0.0367
16032TIP3    H169587   4.632   4.785   5.033  3.0941 -0.9070 -1.1959
16032TIP3    H269588   4.667   4.931   5.049 -1.3680  0.1736  0.2915
16033TIP3   OH269589   5.358   4.937  16.073 -0.3405  0.3001  0.2069
16033TIP3    H169590   5.289   4.958  16.010  1.7521  0.5108 -2.2078
16033TIP3    H269591   5.433   4.911  16.019  0.8132 -2.2167  2.7395
16034TIP3   OH269592   1.754   0.578  13.146  0.3878 -0.4615 -0.1580
16034TIP3    H169593   1.663   0.605  13.144  0.6876  0.5461 -1.1350
16034TIP3    H269594   1.801   0.654  13.180  0.7985 -1.2569  1.1620
16035TIP3   OH269595   6.592   6.449   6.104 -0.4816  0.5720  0.5329
16035TIP3    H169596   6.587   6.446   6.199  0.9967  1.4978  0.6708
16035TIP3    H269597   6.593   6.542   6.082 -2.1975  0.3842 -0.5072
16036TIP3   OH269598   6.837   1.005  11.975 -0.3686  0.3994 -0.3087
16036TIP3    H169599   6.792   0.944  12.032 -0.0474  0.7718  0.3518
16036TIP3    H269600   6.807   0.982  11.887 -1.0403 -0.0307  0.0254
16037TIP3   OH269601   2.672   4.204   2.923  0.2765  0.1719 -0.3095
16037TIP3    H169602   2.586   4.241   2.943 -0.1184 -0.7163 -0.3654
16037TIP3    H269603   2.667   4.114   2.954  1.1684  0.0958 -0.3765
16038TIP3   OH269604   4.365   6.525   4.071 -0.0988  0.0329  0.5626
16038TIP3    H169605   4.351   6.620   4.068  2.6228  0.6452  2.9294
16038TIP3    H269606   4.317   6.497   4.149  1.7824  0.1148  1.8023
16039TIP3   OH269607   1.874   5.063   4.981 -0.0479  0.1754  0.2585
16039TIP3    H169608   1.784   5.086   4.958 -0.4212 -1.0655  0.4356
16039TIP3    H269609   1.868   5.025   5.069  0.7537  0.7191  0.5687
16040TIP3   OH269610   6.490   3.494   2.706  0.0484 -0.4511  0.6149
16040TIP3    H169611   6.574   3.540   2.701 -0.1578 -0.1940 -1.6083
16040TIP3    H269612   6.500   3.418   2.648 -1.1022 -0.6512  0.6432
16041TIP3   OH269613   0.573   1.351  13.974 -0.1707  0.0550 -0.1912
16041TIP3    H169614   0.668   1.353  13.982 -0.1411 -0.6503 -0.2866
16041TIP3    H269615   0.541   1.387  14.057  0.1731 -1.7819  0.7875
16042TIP3   OH269616   0.798   5.772   4.474  0.0618 -0.1961 -0.5079
16042TIP3    H169617   0.854   5.695   4.480 -0.8632 -0.7957  1.1796
16042TIP3    H269618   0.857   5.843   4.450  1.6457 -0.7493  1.4749
16043TIP3   OH269619   0.542   4.044   4.167 -0.6177  0.3595 -0.4353
16043TIP3    H169620   0.638   4.050   4.163 -0.5386 -0.2300  0.4330
16043TIP3    H269621   0.513   4.135   4.172 -0.0994  0.5415 -0.5939
16044TIP3   OH269622   0.557   1.434   0.119 -0.6230 -0.0187 -0.1213
16044TIP3    H169623   0.522   1.383   0.192 -1.1795 -0.0400 -0.3974
16044TIP3    H269624   0.511   1.401   0.042  1.4316 -1.4114 -0.8146
16045TIP3   OH269625   6.695   5.191   0.370 -0.1620  0.0764  0.1798
16045TIP3    H169626   6.743   5.109   0.379  0.9303  0.4528 -1.6878
16045TIP3    H269627   6.604   5.165   0.360 -0.3118 -0.7033  2.8274
16046TIP3   OH269628   6.582   0.334  14.935  0.3043  0.0860 -0.9580
16046TIP3    H169629   6.487   0.332  14.926  0.3671 -1.2482 -1.4831
16046TIP3    H269630   6.614   0.290  14.856  1.2862 -1.2122  0.1395
16047TIP3   OH269631   5.627   0.008   2.250  0.1545  0.3909 -0.4026
16047TIP3    H169632   5.677   0.089   2.236  0.0024  0.2509 -1.8768
16047TIP3    H269633   5.685  -0.062   2.220 -0.7699  0.2011 -1.8091
16048TIP3   OH269634   3.580   6.178   3.947  0.1004  1.3773 -0.5174
16048TIP3    H169635   3.613   6.177   4.037 -1.6333 -0.0813  0.1859
16048TIP3    H269636   3.577   6.271   3.924 -0.4146  1.8818  1.3524
16049TIP3   OH269637   0.371   5.172   1.781 -0.0986 -0.3038 -0.0424
16049TIP3    H169638   0.401   5.136   1.864  1.5828 -2.2148 -1.3840
16049TIP3    H269639   0.394   5.265   1.785  0.1812 -0.4217  1.5098
16050TIP3   OH269640   1.703   4.729  11.143  0.2974  0.1051  0.0006
16050TIP3    H169641   1.642   4.707  11.072  0.3063 -2.5327  0.6895
16050TIP3    H269642   1.708   4.649  11.195  2.6738  0.9644  1.2273
16051TIP3   OH269643   2.930   2.812   5.115  0.1132 -0.0700  0.3227
16051TIP3    H169644   2.866   2.875   5.150  0.4866 -1.2640  3.4777
16051TIP3    H269645   3.004   2.866   5.087 -0.8043  1.0806  0.0334
16052TIP3   OH269646   3.323   2.259   2.316  0.2526 -0.1400  0.7031
16052TIP3    H169647   3.344   2.329   2.378  1.3125 -0.2735  0.5064
16052TIP3    H269648   3.385   2.189   2.336 -0.6754 -0.9708  0.7770
16053TIP3   OH269649   5.529   5.715   1.214  0.1793 -0.0871 -0.0872
16053TIP3    H169650   5.457   5.777   1.223  0.6875  0.6039 -0.7079
16053TIP3    H269651   5.498   5.650   1.152  0.7063  1.1730 -1.7401
16054TIP3   OH269652   0.485   5.927   6.194 -0.1517  0.8042  0.5684
16054TIP3    H169653   0.549   5.995   6.170 -2.1989  2.5486 -0.2792
16054TIP3    H269654   0.402   5.974   6.200 -1.2518 -1.2398  2.4634
16055TIP3   OH269655   2.451   1.718  13.930 -0.2558  0.2277 -0.1531
16055TIP3    H169656   2.480   1.655  13.995  0.7176 -0.3785 -1.1444
16055TIP3    H269657   2.437   1.667  13.850 -1.6046  0.9231 -0.3937
16056TIP3   OH269658   0.569   6.803  13.454  0.1789 -0.0320  0.0274
16056TIP3    H169659   0.577   6.769  13.543 -1.8194 -1.1055 -0.1637
16056TIP3    H269660   0.659   6.806  13.421  0.7641 -1.4857  1.4076
16057TIP3   OH269661   6.038   3.717   0.398  0.6775  0.5668  0.0538
16057TIP3    H169662   6.034   3.629   0.360  0.2672  0.3882  0.5078
16057TIP3    H269663   6.048   3.703   0.492  2.0857  1.0124 -0.0162
16058TIP3   OH269664   0.926   5.911   1.165  0.0277 -0.0118 -0.2108
16058TIP3    H169665   0.914   5.926   1.258 -0.6788 -0.7654 -0.1774
16058TIP3    H269666   0.857   5.962   1.123  0.8986  1.0531 -0.3799
16059TIP3   OH269667   4.356   4.227   0.477  0.0118 -0.0658 -0.2340
16059TIP3    H169668   4.432   4.286   0.474  0.4045 -0.5405  0.2197
16059TIP3    H269669   4.372   4.171   0.553 -1.2762  0.4802  0.4938
16060TIP3   OH269670   1.490   2.126  13.245 -0.1053  0.2572  0.1130
16060TIP3    H169671   1.407   2.079  13.238 -0.5466  0.8954  0.8447
16060TIP3    H269672   1.528   2.123  13.157 -1.8819  1.6865 -0.7698
16061TIP3   OH269673   0.489   0.348  12.966 -0.0007 -0.4070 -0.7134
16061TIP3    H169674   0.502   0.274  12.906  2.5294 -0.8083  0.1896
16061TIP3    H269675   0.473   0.307  13.051  1.1901  0.0593 -0.2473
16062TIP3   OH269676   3.250   0.579   2.381 -0.1718  0.2805  0.0256
16062TIP3    H169677   3.280   0.639   2.313  0.6616  0.6700  0.7105
16062TIP3    H269678   3.293   0.496   2.360 -0.5116  0.1971 -0.3449
16063TIP3   OH269679   2.543   6.671  16.231  0.5600  0.4934  0.6924
16063TIP3    H169680   2.555   6.576  16.237  3.1521  0.5843 -1.1843
16063TIP3    H269681   2.456   6.682  16.192  1.3823 -1.3210 -1.9007
16064TIP3   OH269682   2.213   4.990  16.592  0.4455 -0.1424 -0.5175
16064TIP3    H169683   2.277   5.051  16.555 -0.4123  0.0723 -1.7101
16064TIP3    H269684   2.199   4.925  16.523 -0.3626 -0.3768 -0.1464
16065TIP3   OH269685   0.955   4.335  14.812  0.8312  0.0433 -0.0459
16065TIP3    H169686   0.963   4.259  14.869 -0.4695  0.2742  0.4925
16065TIP3    H269687   0.973   4.410  14.868  0.4628  0.2172 -0.1522
16066TIP3   OH269688   6.617   6.067  14.991  0.4391 -0.3098 -0.1198
16066TIP3    H169689   6.574   6.119  14.924 -1.4390  0.6334  1.7030
16066TIP3    H269690   6.696   6.033  14.949 -1.9812 -2.1422 -3.6910
16067TIP3   OH269691   6.534   1.419   4.956  0.3400 -0.0591 -0.3521
16067TIP3    H169692   6.552   1.474   5.033 -0.1503 -1.2291  0.6281
16067TIP3    H269693   6.542   1.479   4.882 -0.5416  1.4445  0.6992
16068TIP3   OH269694   3.502   4.147   0.877  0.6004 -0.7686 -0.5214
16068TIP3    H169695   3.560   4.070   0.872  0.6818 -0.7433  0.0099
16068TIP3    H269696   3.549   4.215   0.828  0.4810 -1.0860 -1.0821
16069TIP3   OH269697   3.396   0.286   1.046 -0.8382 -0.3712 -0.4401
16069TIP3    H169698   3.445   0.204   1.041 -0.4105 -0.1468  0.0329
16069TIP3    H269699   3.411   0.318   1.135 -0.1280  0.7499 -0.9424
16070TIP3   OH269700   1.181   0.089  16.326  0.1726 -0.1452 -0.0593
16070TIP3    H169701   1.215   0.179  16.326 -2.2373  0.8375 -0.8512
16070TIP3    H269702   1.244   0.040  16.272 -0.1721  1.8214 -2.4203
16071TIP3   OH269703   0.779   5.403   0.775 -0.1343 -0.0187  0.4628
16071TIP3    H169704   0.859   5.381   0.823 -1.6095 -1.0656  2.6011
16071TIP3    H269705   0.784   5.498   0.763  1.5547 -0.0951  0.1979
16072TIP3   OH269706   6.235   2.743   2.203 -0.4930 -0.6049 -0.2833
16072TIP3    H169707   6.282   2.689   2.140  1.0354 -0.2536  0.5264
16072TIP3    H269708   6.221   2.826   2.158  0.9399 -0.2198 -0.0401
16073TIP3   OH269709   6.442   3.634  10.619 -0.6200 -0.1829  1.0886
16073TIP3    H169710   6.534   3.655  10.630 -0.2704 -1.8592  1.5540
16073TIP3    H269711   6.408   3.705  10.565  0.6969  0.9961  1.7519
16074TIP3   OH269712   2.262   2.331   4.881  0.0241  0.1423 -0.1553
16074TIP3    H169713   2.356   2.328   4.862 -0.3872 -0.4872 -2.2789
16074TIP3    H269714   2.230   2.406   4.832 -0.6770  0.0710  0.1839
16075TIP3   OH269715   1.606   4.405  12.727  0.4072 -0.1432  0.4478
16075TIP3    H169716   1.567   4.425  12.812  1.5278  0.6990  0.7903
16075TIP3    H269717   1.672   4.473  12.714  1.2714 -1.1063 -0.4313
16076TIP3   OH269718   6.254   5.397   3.750 -0.1111  0.3050  0.2805
16076TIP3    H169719   6.284   5.420   3.662  0.6939  2.6441  1.0984
16076TIP3    H269720   6.163   5.368   3.738  0.3863 -0.6676 -1.4474
16077TIP3   OH269721   1.335   1.901  14.837 -0.4689 -0.7130  0.0434
16077TIP3    H169722   1.399   1.835  14.812  0.5576  0.6717 -1.1444
16077TIP3    H269723   1.251   1.864  14.810  0.0190 -1.7879 -0.0297
16078TIP3   OH269724   6.203   6.518  15.077  0.6054 -0.3585 -0.6009
16078TIP3    H169725   6.141   6.544  15.009 -0.5328 -2.3528 -0.3819
16078TIP3    H269726   6.240   6.436  15.045 -1.1089 -2.2086  1.8080
16079TIP3   OH269727   2.850   5.261  16.693 -0.1340 -0.0015  0.0641
16079TIP3    H169728   2.841   5.254  16.788  0.4989 -2.1441  0.0324
16079TIP3    H269729   2.891   5.178  16.667 -0.4168  0.4728 -2.0963
16080TIP3   OH269730   6.585   1.806   1.556  0.2562 -0.1052  0.2025
16080TIP3    H169731   6.515   1.870   1.543  1.1157  1.0955  1.2168
16080TIP3    H269732   6.577   1.746   1.482 -1.9626 -0.1336  0.4117
16081TIP3   OH269733   4.152   6.439   0.677  0.4703 -0.0799 -0.2840
16081TIP3    H169734   4.102   6.396   0.747 -1.6881 -0.4963 -1.9798
16081TIP3    H269735   4.155   6.531   0.704 -0.2026 -0.2570  0.4582
16082TIP3   OH269736   0.099   3.597  17.018 -0.5353  0.2952  0.6174
16082TIP3    H169737   0.190   3.623  17.030 -0.2850  0.3242 -1.0570
16082TIP3    H269738   0.064   3.659  16.953 -0.8498 -1.4689 -1.0043
16083TIP3   OH269739   5.084   4.890   0.856  0.1025  0.5500  0.1128
16083TIP3    H169740   5.009   4.863   0.804 -0.6011  1.6322  0.5489
16083TIP3    H269741   5.142   4.813   0.856 -0.4904  0.0887 -1.1399
16084TIP3   OH269742   2.088   3.555   2.486  0.3717  0.3144 -0.2989
16084TIP3    H169743   2.123   3.507   2.561  1.8455 -0.0650 -1.1796
16084TIP3    H269744   2.142   3.635   2.483 -1.5973  1.7792  0.7466
16085TIP3   OH269745   3.662   0.203   1.807  1.0326  0.0922 -0.0381
16085TIP3    H169746   3.702   0.263   1.744  1.8957 -0.2020  0.2107
16085TIP3    H269747   3.688   0.116   1.777  1.1982 -0.0659  0.5493
16086TIP3   OH269748   4.010   5.674   3.652  0.2441  0.1752 -0.3605
16086TIP3    H169749   4.067   5.626   3.593  1.3607 -0.5729  1.2659
16086TIP3    H269750   3.933   5.695   3.599  1.9700  1.2505 -2.6520
16087TIP3   OH269751   3.368   4.209  14.962  0.1518  0.6354  0.1836
16087TIP3    H169752   3.334   4.156  15.034  0.5444  1.2965  0.8638
16087TIP3    H269753   3.442   4.257  15.000  0.0759  1.3354 -0.5309
16088TIP3   OH269754   5.314   6.781  13.190  0.0824 -0.3358 -0.5336
16088TIP3    H169755   5.362   6.801  13.110  1.3703 -0.9672  0.0553
16088TIP3    H269756   5.232   6.741  13.159  1.1477 -1.8483 -1.5466
16089TIP3   OH269757   1.646   1.500   5.645 -0.1326  0.2423 -0.2427
16089TIP3    H169758   1.565   1.516   5.596 -1.2700 -1.5269  0.9332
16089TIP3    H269759   1.629   1.537   5.732  0.2460 -0.3346  0.0799
16090TIP3   OH269760   5.844   3.380  14.608 -0.1840  0.2644 -0.4348
16090TIP3    H169761   5.872   3.328  14.532  0.1963  0.9325 -0.7664
16090TIP3    H269762   5.778   3.439  14.572  0.1776  0.7551 -0.3031
16091TIP3   OH269763   2.602   2.194  13.332  0.5120 -0.2638  0.2994
16091TIP3    H169764   2.548   2.128  13.376  0.0911  0.6061  1.1229
16091TIP3    H269765   2.566   2.200  13.244  1.1834 -1.8250 -0.1158
16092TIP3   OH269766   3.422   6.835   1.318 -0.0321 -0.1153 -0.4063
16092TIP3    H169767   3.413   6.823   1.223  1.1075 -0.8488 -0.4417
16092TIP3    H269768   3.346   6.887   1.343 -0.9249 -0.8216 -1.5538
16093TIP3   OH269769   4.526   1.796   1.808 -0.8885  0.3851 -0.1914
16093TIP3    H169770   4.558   1.846   1.733  2.3052 -0.7622  0.2808
16093TIP3    H269771   4.537   1.704   1.783 -1.1026 -0.0390  1.1657
16094TIP3   OH269772   0.893   1.309   3.964  0.6856  0.0489 -0.5006
16094TIP3    H169773   0.940   1.355   4.033 -0.2681  0.1006  0.1250
16094TIP3    H269774   0.820   1.366   3.941 -0.5445 -1.1261  0.3102
16095TIP3   OH269775   4.673   1.149  14.746 -0.1015 -0.5531 -0.2142
16095TIP3    H169776   4.642   1.233  14.711 -0.6859 -0.2205  1.0283
16095TIP3    H269777   4.737   1.119  14.683 -1.6742 -0.3833 -1.9830
16096TIP3   OH269778   1.225   0.493   0.006 -0.5586  0.4578 -0.7076
16096TIP3    H169779   1.227   0.588   0.002 -0.2157  0.5211  0.5197
16096TIP3    H269780   1.312   0.466  -0.025  0.0042  0.6438  0.6614
16097TIP3   OH269781   6.675   3.943   0.694  0.7644 -0.0891  0.1393
16097TIP3    H169782   6.748   3.982   0.741 -0.3441  1.0696  0.9807
16097TIP3    H269783   6.658   3.860   0.738  0.9982  0.0691  0.5299
16098TIP3   OH269784   6.317   1.487   3.307 -0.0497 -0.1256  0.1711
16098TIP3    H169785   6.312   1.553   3.377 -1.9736 -2.0320  2.0142
16098TIP3    H269786   6.385   1.427   3.336  1.2493  0.6583 -1.1747
16099TIP3   OH269787   2.547   4.873  14.764  0.0836  0.3953 -0.1507
16099TIP3    H169788   2.478   4.810  14.782 -0.8675  0.9226 -1.7372
16099TIP3    H269789   2.626   4.834  14.802 -1.1483  0.0854  2.2813
16100TIP3   OH269790   6.441   4.658   0.439 -0.2005  0.3709  0.7946
16100TIP3    H169791   6.515   4.720   0.440  0.8691 -0.8108 -0.7483
16100TIP3    H269792   6.365   4.712   0.419  0.5802  1.3113  0.2897
16101TIP3   OH269793   2.083   5.191   1.384 -0.1398 -0.3472  0.4004
16101TIP3    H169794   2.163   5.165   1.429 -1.3283 -1.1509  2.1633
16101TIP3    H269795   2.068   5.282   1.411  1.1127  0.4476 -1.4132
16102TIP3   OH269796   6.331   3.819  12.322 -0.2015 -0.4637 -0.1147
16102TIP3    H169797   6.391   3.836  12.250 -1.0826 -0.5488 -0.8980
16102TIP3    H269798   6.247   3.856  12.292 -0.5236 -0.2648  0.9760
16103TIP3   OH269799   5.596   5.369   3.987  0.2470 -0.0789 -0.3837
16103TIP3    H169800   5.566   5.294   3.935  0.2087  0.0305 -0.5217
16103TIP3    H269801   5.690   5.353   3.999 -0.1536 -1.3140  1.5377
16104TIP3   OH269802   3.083   3.981   1.470  0.5090  0.0358 -0.3473
16104TIP3    H169803   3.004   4.005   1.421  2.0252  0.0340 -3.0103
16104TIP3    H269804   3.080   4.034   1.549 -2.3846 -0.3412 -0.0929
16105TIP3   OH269805   1.519   3.188  12.110 -0.2683 -0.0266 -0.4693
16105TIP3    H169806   1.491   3.265  12.061  0.1043 -0.0704 -0.7519
16105TIP3    H269807   1.547   3.222  12.195 -2.9272 -0.1650  0.5488
16106TIP3   OH269808   3.816   3.655  11.618 -0.4793  0.5154 -0.0037
16106TIP3    H169809   3.724   3.649  11.641 -0.8001  3.4130 -0.2593
16106TIP3    H269810   3.846   3.736  11.659  1.6659  0.2322 -0.8871
16107TIP3   OH269811   6.169   4.521   4.763  0.4786 -0.8298  0.0301
16107TIP3    H169812   6.161   4.582   4.690  0.8250 -0.5162  0.2479
16107TIP3    H269813   6.262   4.499   4.765 -0.0547 -3.8329 -2.0180
16108TIP3   OH269814   1.303   4.717   0.277 -0.2362  0.0555 -0.3348
16108TIP3    H169815   1.259   4.802   0.284 -0.0335  0.1127  0.3423
16108TIP3    H269816   1.233   4.655   0.259 -0.4450  0.2959 -0.3612
16109TIP3   OH269817   5.791   4.732  11.506  0.4935 -0.1011 -0.3334
16109TIP3    H169818   5.856   4.662  11.514 -0.6527 -1.2271 -0.5956
16109TIP3    H269819   5.790   4.773  11.592  0.6042 -0.9247  0.0697
16110TIP3   OH269820   5.137   1.991  13.583 -0.3350  0.2109 -0.3542
16110TIP3    H169821   5.166   1.900  13.578 -0.3061  0.2672 -1.7448
16110TIP3    H269822   5.117   2.014  13.492 -2.4755  0.8998  0.2343
16111TIP3   OH269823   5.781   5.675  15.712  0.3721 -0.0695 -0.0448
16111TIP3    H169824   5.770   5.581  15.696  1.5848  0.0534 -1.8230
16111TIP3    H269825   5.712   5.696  15.776  2.2927 -2.8473  3.2930
16112TIP3   OH269826   3.565   6.588   1.390 -0.2188  0.5660  0.1722
16112TIP3    H169827   3.522   6.673   1.399  2.0217  1.7752  0.3288
16112TIP3    H269828   3.637   6.605   1.329  1.9379 -0.5032  2.2763
16113TIP3   OH269829   2.452   2.278  10.978  0.7603 -0.1942  0.1452
16113TIP3    H169830   2.419   2.222  10.908 -0.7187 -0.5016  1.0322
16113TIP3    H269831   2.451   2.366  10.941  1.3337 -0.5201 -0.6638
16114TIP3   OH269832   6.658   4.251  14.371  0.2567  0.2580  0.2146
16114TIP3    H169833   6.643   4.157  14.357 -0.5981  0.1752  1.5277
16114TIP3    H269834   6.573   4.292  14.354  0.9360  0.9913 -1.6524
16115TIP3   OH269835   4.391   5.741   5.461 -0.3042 -0.3366  0.4949
16115TIP3    H169836   4.410   5.711   5.550  0.1163 -0.4486  0.3723
16115TIP3    H269837   4.366   5.833   5.472 -0.8507 -0.5194  0.7927
16116TIP3   OH269838   3.363   5.227   3.506 -0.1868 -0.0911 -0.1760
16116TIP3    H169839   3.358   5.133   3.520  1.7215 -0.2203 -0.0516
16116TIP3    H269840   3.392   5.262   3.590  0.6376  0.4118 -0.6537
16117TIP3   OH269841   2.090   3.678   3.641  0.4338  0.2630 -0.5008
16117TIP3    H169842   2.134   3.605   3.597  2.5323  0.4181  1.1460
16117TIP3    H269843   1.997   3.657   3.635  0.8962 -1.9701 -1.0664
16118TIP3   OH269844   1.842   3.587   2.611  0.1841  0.4381  0.2315
16118TIP3    H169845   1.893   3.515   2.647 -1.5424 -0.5086  0.9187
16118TIP3    H269846   1.843   3.572   2.516  0.7307  0.1451  0.2791
16119TIP3   OH269847   4.902   4.432   3.461  0.2465  0.1931  0.0413
16119TIP3    H169848   4.829   4.419   3.522  0.0298  0.0285 -0.2507
16119TIP3    H269849   4.862   4.425   3.374  0.6139  0.0785 -0.1195
16120TIP3   OH269850   1.030   4.462  14.139 -0.1501  0.6453 -0.2669
16120TIP3    H169851   1.048   4.436  14.229 -0.4001  1.4670  0.0290
16120TIP3    H269852   1.062   4.389  14.086  1.3802  0.8035  0.3862
16121TIP3   OH269853   6.613   3.391  13.845 -0.6987  0.2077  0.2549
16121TIP3    H169854   6.615   3.465  13.906  1.0552  0.8377 -0.4786
16121TIP3    H269855   6.650   3.427  13.764 -1.5370 -1.0094 -0.7054
16122TIP3   OH269856   0.692   4.236   3.946  0.1140 -1.0599 -0.1382
16122TIP3    H169857   0.693   4.217   4.040 -4.7390  0.4881  0.5030
16122TIP3    H269858   0.699   4.331   3.940 -1.9382 -0.9078 -1.0297
16123TIP3   OH269859   5.259   2.115  14.074  0.4157  0.0501  0.1145
16123TIP3    H169860   5.254   2.028  14.113  1.7859  0.4696  1.3575
16123TIP3    H269861   5.342   2.115  14.026  1.0104  0.9855  1.0832
16124TIP3   OH269862   3.549   2.009   0.555 -0.5165 -0.1650 -0.1239
16124TIP3    H169863   3.556   2.097   0.518  0.4794 -0.6381 -1.1291
16124TIP3    H269864   3.474   1.970   0.510 -1.7902  0.5791  1.2731
16125TIP3   OH269865   5.220   0.073   4.424 -0.4195  0.0851  0.2303
16125TIP3    H169866   5.134   0.031   4.425 -0.2185 -0.3364  1.8555
16125TIP3    H269867   5.203   0.162   4.393 -1.3483 -0.1708 -0.0157
16126TIP3   OH269868   5.194   1.779   0.744 -0.1081 -0.1360  0.0032
16126TIP3    H169869   5.243   1.699   0.760  0.4082  0.5825  2.5008
16126TIP3    H269870   5.260   1.841   0.711  0.0313 -0.0473  0.4396
16127TIP3   OH269871   3.881   3.141  15.326 -0.1207 -0.2008 -0.3097
16127TIP3    H169872   3.977   3.147  15.327 -0.1407  0.1463 -0.1820
16127TIP3    H269873   3.854   3.198  15.398 -0.5348  1.7632 -1.9599
16128TIP3   OH269874   6.011   2.661  13.781 -0.0248  0.3357 -0.5315
16128TIP3    H169875   6.045   2.716  13.710  1.7281 -0.1352 -0.1039
16128TIP3    H269876   6.072   2.675  13.853 -0.2892 -1.1941  0.0189
16129TIP3   OH269877   2.516   2.317   4.359  0.0450  0.2014 -0.4121
16129TIP3    H169878   2.462   2.303   4.281  0.8759 -1.2503 -0.7610
16129TIP3    H269879   2.483   2.398   4.397 -3.5522 -1.4646  0.3880
16130TIP3   OH269880   6.055   1.794   0.106 -0.1518  0.0953  0.4986
16130TIP3    H169881   6.059   1.889   0.112 -1.7656  0.1824  0.7350
16130TIP3    H269882   6.055   1.776   0.012  0.0398  0.3434  0.4520
16131TIP3   OH269883   4.191   3.589   3.821 -0.2358  0.4272 -0.1148
16131TIP3    H169884   4.196   3.680   3.790  0.0472  0.1536 -0.8941
16131TIP3    H269885   4.169   3.597   3.914 -0.2551  1.2930 -0.1819
16132TIP3   OH269886   4.305   1.857  14.462 -0.5630  0.5171 -0.4835
16132TIP3    H169887   4.341   1.768  14.466 -0.5054  0.5670  0.1321
16132TIP3    H269888   4.235   1.851  14.397 -1.1045 -0.1835  0.1503
16133TIP3   OH269889   0.007   1.420   4.238 -0.3558  0.1257 -0.1636
16133TIP3    H169890   0.051   1.335   4.241 -1.3802 -0.3945  1.4121
16133TIP3    H269891   0.034   1.463   4.320 -0.3820  1.0486 -0.6315
16134TIP3   OH269892   3.045   2.007  11.882 -0.3118  0.5392 -0.5047
16134TIP3    H169893   3.029   1.989  11.789  2.0803  1.3382 -1.1439
16134TIP3    H269894   3.033   2.101  11.890 -0.4395  0.4809 -0.0046
16135TIP3   OH269895   5.302   3.792   3.511 -0.0094 -0.5878 -0.5294
16135TIP3    H169896   5.339   3.724   3.453 -1.5430 -0.8135 -1.2848
16135TIP3    H269897   5.270   3.744   3.587  3.1672 -0.1747  1.2694
16136TIP3   OH269898   1.387   0.837  15.226 -0.5260 -0.3066  0.6594
16136TIP3    H169899   1.340   0.834  15.143  2.8707 -1.0218 -1.4361
16136TIP3    H269900   1.366   0.922  15.263 -1.5843  0.3348 -1.2860
16137TIP3   OH269901   1.804   0.133  14.946  0.1193  0.2527  0.7525
16137TIP3    H169902   1.742   0.068  14.978  1.2046 -1.6719 -0.8077
16137TIP3    H269903   1.887   0.086  14.940  0.8506  1.6415 -0.8747
16138TIP3   OH269904   3.715   3.199   3.355  0.1478  0.3456  0.2519
16138TIP3    H169905   3.766   3.189   3.436  0.3370 -0.8850  0.0014
16138TIP3    H269906   3.739   3.123   3.302 -1.0574  0.3670 -0.3621
16139TIP3   OH269907   6.755   0.890  12.780  0.1494  0.3956 -0.0567
16139TIP3    H169908   6.794   0.974  12.805 -0.2803  0.4006  0.6126
16139TIP3    H269909   6.770   0.833  12.856  0.9226 -0.3005 -0.7175
16140TIP3   OH269910   1.629   4.006   0.957 -0.5996  0.1363 -0.4625
16140TIP3    H169911   1.713   3.970   0.985 -0.8137 -0.0195 -0.0156
16140TIP3    H269912   1.647   4.047   0.872  0.0552  0.6059 -0.0991
16141TIP3   OH269913   4.182   5.087  15.961  0.2600  0.7793 -0.1353
16141TIP3    H169914   4.136   5.142  15.897 -1.4036 -0.5217 -0.1296
16141TIP3    H269915   4.113   5.034  16.001  1.5374  0.1696  1.3491
16142TIP3   OH269916   1.777   6.390  13.790  0.1299 -0.0452 -0.4596
16142TIP3    H169917   1.724   6.310  13.792 -2.1122  1.2994  2.9956
16142TIP3    H269918   1.858   6.367  13.835 -0.6332 -0.3273  0.7908
16143TIP3   OH269919   4.211   2.273  13.499 -0.2387  0.1810  0.0498
16143TIP3    H169920   4.224   2.193  13.550 -0.9184  0.2543  0.3501
16143TIP3    H269921   4.216   2.245  13.408 -0.9086 -0.2890  0.1476
16144TIP3   OH269922   0.732   1.011  14.720  0.4373 -0.0191 -0.5981
16144TIP3    H169923   0.677   0.935  14.738  0.1428  0.6117  1.3305
16144TIP3    H269924   0.738   1.013  14.624 -1.7352 -0.9082 -0.8193
16145TIP3   OH269925   1.462   5.794   4.661  0.0799  0.2613 -0.2345
16145TIP3    H169926   1.503   5.793   4.747  1.7012  1.4493 -0.9372
16145TIP3    H269927   1.368   5.789   4.679  0.4036 -0.0944  1.5526
16146TIP3   OH269928   2.124   2.677   5.900  0.3355  0.3925  0.1191
16146TIP3    H169929   2.059   2.743   5.874 -0.1958  0.2556  1.0566
16146TIP3    H269930   2.125   2.681   5.995  0.1727 -1.0825  0.2052
16147TIP3   OH269931   6.513   5.857   4.351 -0.3256 -0.7499 -0.1845
16147TIP3    H169932   6.488   5.879   4.261  2.8190 -1.9719 -1.5099
16147TIP3    H269933   6.445   5.796   4.380 -1.7233  0.1029 -1.4799
16148TIP3   OH269934   2.586   3.413  17.141  0.6040 -0.3222  0.0703
16148TIP3    H169935   2.623   3.441  17.057  2.1600  1.3263  1.2236
16148TIP3    H269936   2.649   3.348  17.173 -0.1816 -1.2209 -0.1784
16149TIP3   OH269937   1.353   5.098   6.051  0.3092  0.2608  0.1312
16149TIP3    H169938   1.374   5.093   5.957 -0.5349  2.2444 -0.2070
16149TIP3    H269939   1.382   5.014   6.086  0.0700 -0.7879 -2.0242
16150TIP3   OH269940   1.180   2.106   3.522  0.3611  0.1380  0.2928
16150TIP3    H169941   1.164   2.095   3.616 -0.4867 -0.9821  0.0368
16150TIP3    H269942   1.113   2.167   3.493 -1.9352 -2.4346 -0.2517
16151TIP3   OH269943   5.524   3.398  15.890  0.1902 -0.2471 -0.3757
16151TIP3    H169944   5.485   3.407  15.977 -0.1460  0.4133 -0.5938
16151TIP3    H269945   5.610   3.359  15.907 -0.0459 -0.5237  0.2140
16152TIP3   OH269946   1.076   2.899   4.795  0.0485  0.2186 -0.0079
16152TIP3    H169947   1.121   2.858   4.869  2.0490  1.5488 -0.3877
16152TIP3    H269948   1.014   2.959   4.836 -0.8450 -1.0385  0.5435
16153TIP3   OH269949   1.620   2.074  13.494  0.1198 -0.5727  0.0116
16153TIP3    H169950   1.705   2.117  13.485  0.8194 -1.9959 -0.6289
16153TIP3    H269951   1.581   2.080  13.406 -0.0532 -0.7049  0.0786
16154TIP3   OH269952   2.790   6.262  14.024  0.2101 -0.2726 -0.0070
16154TIP3    H169953   2.764   6.174  13.995  1.6372 -0.1781 -1.8073
16154TIP3    H269954   2.817   6.306  13.943  1.0392  1.2885  1.0697
16155TIP3   OH269955   2.108   0.446  16.365 -0.4497 -0.7191  0.4649
16155TIP3    H169956   2.193   0.477  16.335 -0.1886 -1.5721  0.2926
16155TIP3    H269957   2.127   0.387  16.437 -1.0121  0.4327  1.5895
16156TIP3   OH269958   2.032   0.205  17.131 -0.3998 -0.0373  0.4730
16156TIP3    H169959   1.959   0.176  17.076  1.1333 -3.7947  0.1493
16156TIP3    H269960   2.016   0.166  17.217  0.6766 -0.0560  0.6878
16157TIP3   OH269961   0.603   5.162   5.320  0.8435 -0.0447  0.2499
16157TIP3    H169962   0.559   5.092   5.368 -1.4950  1.6276  0.7587
16157TIP3    H269963   0.625   5.227   5.387 -0.5256  1.3775 -0.5951
16158TIP3   OH269964   1.162   3.797  12.559 -0.0562  0.3304 -0.2424
16158TIP3    H169965   1.101   3.841  12.618  1.2685  0.7182  0.9274
16158TIP3    H269966   1.112   3.727  12.518 -0.5679 -1.4716  3.0809
16159TIP3   OH269967   4.600   2.198   4.648  0.0242 -0.7319 -0.1460
16159TIP3    H169968   4.662   2.190   4.721  1.2086 -2.2644 -1.2465
16159TIP3    H269969   4.581   2.292   4.644 -1.9941 -0.7882  3.5819
16160TIP3   OH269970   1.749   3.122  10.518  0.3312 -0.4369  0.0242
16160TIP3    H169971   1.759   3.201  10.465  0.3165  0.3470  1.1737
16160TIP3    H269972   1.656   3.101  10.513  0.2223 -0.0046  0.2547
16161TIP3   OH269973   6.298   6.589   1.014  0.3270 -0.4645 -0.4902
16161TIP3    H169974   6.343   6.634   1.086 -0.9638 -0.7680  0.5588
16161TIP3    H269975   6.315   6.496   1.029 -1.1725 -0.6483  0.3685
16162TIP3   OH269976   0.884   4.989  15.230 -0.5728  0.7521 -0.3978
16162TIP3    H169977   0.790   4.976  15.240 -0.6558  0.3307 -1.6008
16162TIP3    H269978   0.906   5.057  15.294 -1.8084  1.3320 -0.5722
16163TIP3   OH269979   4.631   6.622  16.117 -0.2377  0.2187  0.1829
16163TIP3    H169980   4.691   6.659  16.182  0.2626  3.2914 -1.7942
16163TIP3    H269981   4.546   6.663  16.136 -0.6252 -0.5476  0.1662
16164TIP3   OH269982   3.421   3.413   2.617 -0.3549  0.0746 -0.5957
16164TIP3    H169983   3.415   3.453   2.531  0.8086  0.0543 -0.7060
16164TIP3    H269984   3.500   3.358   2.612  0.8419  1.5255  1.0441
16165TIP3   OH269985   2.243   5.893  14.218 -0.2640  0.1032  0.4119
16165TIP3    H169986   2.319   5.888  14.160 -0.1686  2.0014  0.3198
16165TIP3    H269987   2.173   5.927  14.163 -0.0589  2.3780  1.4083
16166TIP3   OH269988   3.132   1.967  15.433 -0.4512 -0.0322  0.3230
16166TIP3    H169989   3.167   1.884  15.401 -0.2742  1.2953 -3.4700
16166TIP3    H269990   3.210   2.017  15.459  0.0405  0.5877 -2.0454
16167TIP3   OH269991   0.130   4.283   1.195 -0.1372 -0.3059  0.2794
16167TIP3    H169992   0.218   4.244   1.202 -0.3188 -0.5127  1.8340
16167TIP3    H269993   0.139   4.368   1.239 -1.1591 -1.1596  2.2316
16168TIP3   OH269994   2.261   4.274  12.140  0.1920 -0.0322  0.1241
16168TIP3    H169995   2.218   4.340  12.194  1.3976  1.1825 -0.3598
16168TIP3    H269996   2.205   4.268  12.062  1.2882  2.2023 -0.9138
16169TIP3   OH269997   1.585   1.939  16.533  0.7822 -0.6193 -0.5089
16169TIP3    H169998   1.537   2.017  16.559  0.9487  0.1543 -2.3480
16169TIP3    H269999   1.570   1.876  16.603 -3.6587 -0.7659 -1.3337
16170TIP3   OH270000   3.563   1.907  15.693  0.1387 -0.1494 -0.7383
16170TIP3    H170001   3.628   1.858  15.742  0.0924  0.3369 -0.1771
16170TIP3    H270002   3.603   1.993  15.679 -0.1488 -0.0381 -0.8907
16171TIP3   OH270003   1.631   6.283   4.323  1.0016  0.3604  0.2500
16171TIP3    H170004   1.543   6.263   4.291  1.2690 -0.2437 -0.1283
16171TIP3    H270005   1.630   6.253   4.414  0.9572 -0.0786  0.1081
16172TIP3   OH270006   6.080   3.725  11.512  0.0424 -0.4420  0.1607
16172TIP3    H170007   6.155   3.717  11.571 -0.2464  1.6736  0.9218
16172TIP3    H270008   6.013   3.768  11.565 -0.5472  0.7101 -1.4426
16173TIP3   OH270009   4.734   4.469   1.265  0.4858  0.3654 -0.7970
16173TIP3    H170010   4.726   4.413   1.343  1.2318  0.6830 -0.4854
16173TIP3    H270011   4.718   4.409   1.192 -1.4360  0.3055 -0.3767
16174TIP3   OH270012   5.698   6.028   1.023 -0.0346  0.0658 -0.5963
16174TIP3    H170013   5.778   6.061   0.982 -0.6161  2.0694 -0.2043
16174TIP3    H270014   5.715   6.033   1.117  0.0136 -1.2079 -0.5197
16175TIP3   OH270015   2.413   3.017   2.013  0.6152  0.4948  0.3556
16175TIP3    H170016   2.318   3.017   2.001  0.6508 -1.4280 -0.3106
16175TIP3    H270017   2.431   3.095   2.065 -1.4598  0.2398  1.5523
16176TIP3   OH270018   2.403   2.445  14.381  0.2799  0.3430 -0.1681
16176TIP3    H170019   2.489   2.484  14.365  0.9964 -0.2476  1.9788
16176TIP3    H270020   2.343   2.520  14.381  1.1252  1.0488  0.5056
16177TIP3   OH270021   2.063   2.020   6.973  0.1185  0.5919  0.5966
16177TIP3    H170022   2.005   2.096   6.975 -0.0592  0.5620 -1.3228
16177TIP3    H270023   2.077   2.003   6.880 -0.3454 -2.1057  0.9427
16178TIP3   OH270024   5.585   3.296   6.015 -0.2610 -0.7584 -0.3415
16178TIP3    H170025   5.551   3.353   6.083 -1.2955 -1.3664 -0.3245
16178TIP3    H270026   5.508   3.249   5.982  0.3800 -1.2522 -1.1874
16179TIP3   OH270027   2.847   0.734  12.124 -0.2076  0.0846  0.2213
16179TIP3    H170028   2.791   0.666  12.161 -0.4863 -0.3251 -0.9113
16179TIP3    H270029   2.914   0.749  12.190 -1.1271 -0.0612  1.2142
16180TIP3   OH270030   6.645   5.825   1.328 -0.4125  0.4913  0.3068
16180TIP3    H170031   6.626   5.763   1.259  0.5495  0.0106  0.4544
16180TIP3    H270032   6.663   5.771   1.405 -0.0295  0.9577  0.5559
16181TIP3   OH270033   5.151   3.113  13.594  0.4098  0.2196  0.0078
16181TIP3    H170034   5.092   3.188  13.594 -0.8291 -0.7233  0.4850
16181TIP3    H270035   5.110   3.050  13.535  0.5418 -0.7422  0.9146
16182TIP3   OH270036   5.982   1.585   2.066  0.4803  0.0381  0.3403
16182TIP3    H170037   5.905   1.604   2.013 -0.6731  0.1989  2.0018
16182TIP3    H270038   6.025   1.512   2.021 -0.2182  0.4297 -1.0079
16183TIP3   OH270039   4.226   0.989  13.829  0.0894 -0.2205  0.0348
16183TIP3    H170040   4.321   0.991  13.840  0.4503 -2.0442 -2.0702
16183TIP3    H270041   4.201   1.081  13.820  1.5809  0.3171  0.9400
16184TIP3   OH270042   0.788   2.292  12.034 -0.1786 -0.1860 -0.6844
16184TIP3    H170043   0.871   2.302  11.987 -1.7887  1.1307 -3.5560
16184TIP3    H270044   0.778   2.197  12.043  1.6088 -0.3801 -0.2143
16185TIP3   OH270045   1.709   6.531  14.491  0.1856 -0.1442 -0.5149
16185TIP3    H170046   1.784   6.572  14.448  0.5479 -2.0943 -1.8285
16185TIP3    H270047   1.745   6.452  14.532 -0.9639 -0.5336 -0.2274
16186TIP3   OH270048   4.233   2.295  16.160  0.2137  0.3460  0.2877
16186TIP3    H170049   4.218   2.215  16.109  1.0716 -0.2826  0.9767
16186TIP3    H270050   4.194   2.277  16.245  2.3279 -0.2725  1.2081
16187TIP3   OH270051   2.085   3.447  14.886 -0.2318 -0.0693 -0.0746
16187TIP3    H170052   2.012   3.389  14.905 -0.2286 -0.0501 -0.0023
16187TIP3    H270053   2.115   3.477  14.972 -0.2564  0.0679 -0.1137
16188TIP3   OH270054   3.065   0.463   0.862  0.1263  0.4717  0.0563
16188TIP3    H170055   3.151   0.468   0.820 -0.0925  1.2328 -0.3196
16188TIP3    H270056   3.056   0.371   0.886  1.2640  0.4797  0.5729
16189TIP3   OH270057   0.270   6.295   3.419 -1.0804  0.0506  0.5219
16189TIP3    H170058   0.352   6.296   3.369  0.4854 -1.3672  2.8938
16189TIP3    H270059   0.241   6.204   3.415 -2.6575  0.5458 -0.3457
16190TIP3   OH270060   6.175   4.410   3.047  0.2009 -0.2924  0.2095
16190TIP3    H170061   6.180   4.315   3.057  0.7223 -0.3106 -0.1266
16190TIP3    H270062   6.257   4.433   3.002  0.4190  0.4012  0.9320
16191TIP3   OH270063   1.169   6.270  15.548  0.3976 -0.3343  0.2699
16191TIP3    H170064   1.093   6.212  15.537 -1.1732  1.3822  1.3493
16191TIP3    H270065   1.173   6.320  15.466 -1.0520  1.0557  0.9851
16192TIP3   OH270066   1.731   4.390   0.532 -0.4805 -0.2358  0.7095
16192TIP3    H170067   1.703   4.435   0.452  2.8413  0.8044 -0.0143
16192TIP3    H270068   1.665   4.412   0.597 -2.1393  0.6716 -1.1949
16193TIP3   OH270069   1.917   6.719  16.174  0.0393 -0.0517  0.9110
16193TIP3    H170070   1.909   6.631  16.209 -0.9144 -0.8917 -1.2792
16193TIP3    H270071   1.827   6.752  16.169  0.2023  0.2509 -0.2070
16194TIP3   OH270072   6.025   6.664  13.089  0.4209  0.4770  0.4332
16194TIP3    H170073   5.953   6.717  13.121 -0.4080 -1.0048  1.1299
16194TIP3    H270074   6.098   6.684  13.147  0.2280  1.1233  0.4526
16195TIP3   OH270075   0.066   4.463  13.768 -0.3046 -0.1714  0.4999
16195TIP3    H170076   0.041   4.471  13.860  1.7480 -2.9170  1.4476
16195TIP3    H270077   0.035   4.376  13.742  0.4821 -0.0690 -0.8949
16196TIP3   OH270078   5.463   3.447   5.250 -0.7538  0.2268  0.0142
16196TIP3    H170079   5.483   3.518   5.189  0.5587 -0.9354 -0.9665
16196TIP3    H270080   5.546   3.431   5.296 -0.7347 -1.3410 -0.5124
16197TIP3   OH270081   1.447   4.024  10.695 -0.1187  0.1706  0.0806
16197TIP3    H170082   1.390   3.947  10.700  0.6302 -0.3504  0.7607
16197TIP3    H270083   1.411   4.075  10.622 -2.1399  0.4226  1.1822
16198TIP3   OH270084   2.283   4.599  15.433  0.1163  0.5160 -0.2828
16198TIP3    H170085   2.260   4.522  15.381 -1.1863  0.1682  0.7738
16198TIP3    H270086   2.365   4.574  15.476 -0.2551 -0.2528 -0.0076
16199TIP3   OH270087   5.819   2.818   1.411 -0.0028  0.3570  0.1251
16199TIP3    H170088   5.889   2.775   1.459 -1.1592  0.5284  2.0968
16199TIP3    H270089   5.739   2.777   1.443 -1.0306  2.6584  0.7654
16200TIP3   OH270090   3.852   0.477  16.760 -0.1622  0.0431  0.2218
16200TIP3    H170091   3.929   0.446  16.808 -0.4094 -1.7974 -0.5164
16200TIP3    H270092   3.877   0.564  16.728  2.3857 -1.2319 -1.6066
16201TIP3   OH270093   6.298   2.135   3.732  0.2783  0.0626  0.9974
16201TIP3    H170094   6.299   2.215   3.785  0.2191  1.1031 -0.4953
16201TIP3    H270095   6.388   2.127   3.700  0.0642  0.0976  0.3634
16202TIP3   OH270096   5.354   3.731   3.953 -0.2894 -0.0691 -0.1828
16202TIP3    H170097   5.313   3.754   4.037  0.1781  0.8872 -0.1990
16202TIP3    H270098   5.317   3.794   3.891 -1.4039 -1.4068 -0.9296
16203TIP3   OH270099   1.750   4.964   5.986  0.7949 -0.0916  0.0391
16203TIP3    H170100   1.804   4.915   5.924  0.6862 -2.2429  1.5620
16203TIP3    H270101   1.789   4.948   6.071 -0.6990  0.5006  0.8755
16204TIP3   OH270102   3.015   2.817  12.755  0.1989  0.5972  0.1186
16204TIP3    H170103   3.058   2.865  12.826  0.4456 -0.0173  0.3906
16204TIP3    H270104   2.985   2.736  12.796  0.9241 -0.0608 -0.6281
16205TIP3   OH270105   4.760   6.449   5.845  0.0098  0.5603  1.1048
16205TIP3    H170106   4.699   6.398   5.899 -0.5419  0.0202  0.0102
16205TIP3    H270107   4.703   6.506   5.793  0.4558  0.3563  0.3753
16206TIP3   OH270108   6.168   1.208  16.822 -0.3273  0.3846  0.2223
16206TIP3    H170109   6.114   1.246  16.753 -0.0529  3.0575  1.3396
16206TIP3    H270110   6.165   1.272  16.893  2.4940 -0.3977  1.2052
16207TIP3   OH270111   0.752   5.663  12.963 -0.0240  0.0855 -0.4789
16207TIP3    H170112   0.818   5.710  13.014  1.3120 -1.4266 -0.7538
16207TIP3    H270113   0.731   5.722  12.890 -2.4381  2.5767  1.9831
16208TIP3   OH270114   5.797   6.775  10.240  0.2790  0.2246  0.2751
16208TIP3    H170115   5.857   6.837  10.198 -1.0535  1.3787 -0.0063
16208TIP3    H270116   5.829   6.767  10.329  0.1397  1.8273  0.4962
16209TIP3   OH270117   2.772   6.821   0.944  0.1019  0.4731  0.0439
16209TIP3    H170118   2.696   6.804   1.000  0.6137 -1.0825  0.3296
16209TIP3    H270119   2.776   6.744   0.886  1.4705  0.5030  0.0698
16210TIP3   OH270120   2.857   6.745   3.195 -0.6837  0.8080 -0.6699
16210TIP3    H170121   2.824   6.757   3.284 -0.1157  1.5426 -0.5419
16210TIP3    H270122   2.787   6.778   3.139 -1.3078 -0.2441 -0.5371
16211TIP3   OH270123   2.158   4.536   1.956 -0.0407 -0.3084  0.2893
16211TIP3    H170124   2.070   4.572   1.956 -0.1923 -0.6551 -0.6738
16211TIP3    H270125   2.145   4.442   1.973  0.0928 -0.4533 -0.3861
16212TIP3   OH270126   5.393   1.440  14.978  0.4014  0.0137  0.2663
16212TIP3    H170127   5.480   1.481  14.977  0.0401  0.8320  0.9219
16212TIP3    H270128   5.332   1.513  14.993 -0.4524 -0.4697 -0.7061
16213TIP3   OH270129   3.291   6.701  13.906 -0.1289  0.0987  0.0929
16213TIP3    H170130   3.309   6.794  13.896  0.1512  0.1424  0.8799
16213TIP3    H270131   3.220   6.683  13.845 -0.0826  0.7923 -0.1762
16214TIP3   OH270132   4.721   4.692   1.068  0.8250 -0.3054  0.1055
16214TIP3    H170133   4.722   4.658   0.979 -0.9366 -0.3351  0.0728
16214TIP3    H270134   4.696   4.617   1.122 -2.4913  0.6619  0.0987
16215TIP3   OH270135   1.942   0.991   1.120  0.2798  0.1761 -0.1925
16215TIP3    H170136   1.896   1.025   1.197 -0.1601 -1.9467  0.5491
16215TIP3    H270137   2.013   0.939   1.156  0.1001 -0.8143 -1.2287
16216TIP3   OH270138   1.304   4.580   1.636 -0.2086  0.0662  0.3166
16216TIP3    H170139   1.211   4.578   1.659 -0.1454 -2.0668  0.5630
16216TIP3    H270140   1.306   4.550   1.545  0.0920  2.3775 -0.5094
16217TIP3   OH270141   6.727   2.144  10.713 -0.1477 -0.0444  0.1555
16217TIP3    H170142   6.697   2.153  10.803  0.7008  0.2928  0.4126
16217TIP3    H270143   6.647   2.146  10.661 -0.5097  2.4962  0.6908
16218TIP3   OH270144   3.023   4.206   1.102 -0.3787  0.3829 -0.3256
16218TIP3    H170145   3.030   4.185   1.009 -2.8362  3.2444 -1.3248
16218TIP3    H270146   3.089   4.274   1.116  0.4812 -0.5494  0.2516
16219TIP3   OH270147   2.769   5.989  15.043  0.0971 -0.3626  1.0587
16219TIP3    H170148   2.803   6.008  15.130  1.4043 -0.4105  0.5708
16219TIP3    H270149   2.843   6.002  14.984 -1.2785  1.9215 -0.3353
16220TIP3   OH270150   5.888   6.178   2.551 -0.2551 -0.0635  0.5786
16220TIP3    H170151   5.885   6.110   2.619  1.4788  1.0334  1.8444
16220TIP3    H270152   5.940   6.139   2.481  0.3634 -0.2298  1.1155
16221TIP3   OH270153   3.809   0.210   2.432 -0.0673  0.2921 -0.4528
16221TIP3    H170154   3.792   0.301   2.456  1.0842  0.3644  0.1879
16221TIP3    H270155   3.842   0.215   2.342  0.1431  0.5327 -0.3661
16222TIP3   OH270156   1.675   4.245   0.203  0.1235  0.2432 -0.0895
16222TIP3    H170157   1.738   4.258   0.133 -1.9731  1.1212 -1.9223
16222TIP3    H270158   1.655   4.333   0.234  0.0589 -0.0556  0.7387
16223TIP3   OH270159   5.699   0.020  14.147 -0.1875  0.5669  0.1263
16223TIP3    H170160   5.767   0.006  14.212  0.4593 -0.6861 -0.7818
16223TIP3    H270161   5.664  -0.067  14.129 -1.2694  1.0529 -0.2354
16224TIP3   OH270162   3.578   0.433  15.732  0.5738 -0.3894  0.2526
16224TIP3    H170163   3.565   0.425  15.638  2.2321 -0.0271 -0.0394
16224TIP3    H270164   3.659   0.385  15.749  1.3696  1.1860  1.1466
16225TIP3   OH270165   1.870   3.717   3.433  0.2164  0.1922 -0.0119
16225TIP3    H170166   1.834   3.699   3.347 -0.4069  0.3262  0.2124
16225TIP3    H270167   1.799   3.761   3.480  1.1056  1.6847  0.0075
16226TIP3   OH270168   4.004   2.752  16.888  0.2642 -0.1138 -0.0994
16226TIP3    H170169   4.098   2.741  16.896  0.5629  0.6449 -1.9159
16226TIP3    H270170   3.967   2.665  16.901  1.2544 -0.5043  0.1315
16227TIP3   OH270171   1.953   5.952  12.912 -0.6553 -0.1016  0.8823
16227TIP3    H170172   1.956   5.906  12.828 -1.1596  0.1032  0.7546
16227TIP3    H270173   1.952   5.882  12.978  2.3192 -0.3215  0.8530
16228TIP3   OH270174   5.236   4.716  15.526 -0.1467  0.6717  0.0404
16228TIP3    H170175   5.268   4.629  15.551  0.3638  0.3746 -1.5623
16228TIP3    H270176   5.155   4.727  15.578 -0.3537 -0.8544  0.0923
16229TIP3   OH270177   4.290   5.298  14.304  0.0443  0.2646  0.2281
16229TIP3    H170178   4.233   5.253  14.241  0.2327 -0.2224  0.3993
16229TIP3    H270179   4.232   5.359  14.350 -0.0475  0.8098 -0.5881
16230TIP3   OH270180   0.949   3.410   0.646  0.3106 -0.0371  0.2952
16230TIP3    H170181   0.943   3.322   0.609  1.6047 -0.0613  0.1021
16230TIP3    H270182   0.933   3.397   0.740 -2.2951 -0.0658 -0.0969
16231TIP3   OH270183   0.268   6.564   5.926 -0.3278 -0.0348 -0.0192
16231TIP3    H170184   0.189   6.510   5.932  0.1900 -0.8901 -0.6956
16231TIP3    H270185   0.286   6.570   5.832  0.2938  0.3158  0.1149
16232TIP3   OH270186   1.607   2.467   1.231  0.1212  0.0857 -0.3358
16232TIP3    H170187   1.681   2.433   1.282 -0.4156  0.7922  0.9507
16232TIP3    H270188   1.643   2.545   1.187  0.5877 -0.5303 -1.0698
16233TIP3   OH270189   5.419   0.171  12.492 -0.5160 -0.5892  0.0701
16233TIP3    H170190   5.469   0.090  12.488 -1.1631 -0.9696 -0.5290
16233TIP3    H270191   5.450   0.223  12.418  1.7749  0.8578  1.9284
16234TIP3   OH270192   1.919   0.455   1.973  0.1170 -0.0265  0.3679
16234TIP3    H170193   1.860   0.400   2.024 -1.8282  3.3949  2.1480
16234TIP3    H270194   1.863   0.500   1.911  1.3200  1.2114  0.1237
16235TIP3   OH270195   4.275   4.086  15.072 -0.2709  0.2151 -0.3841
16235TIP3    H170196   4.316   4.006  15.040  0.5335  1.8857 -3.9499
16235TIP3    H270197   4.190   4.089  15.028 -2.0533 -0.4154  2.6701
16236TIP3   OH270198   5.446   1.334   0.471  0.1202 -0.9357  0.1557
16236TIP3    H170199   5.366   1.329   0.523  0.4168  0.4392  0.8077
16236TIP3    H270200   5.442   1.258   0.413 -1.1635 -1.4423  0.8590
16237TIP3   OH270201   2.661   3.338   4.931 -0.6316  0.4221 -0.0077
16237TIP3    H170202   2.638   3.386   4.850 -1.2069  1.4176  0.7206
16237TIP3    H270203   2.675   3.248   4.902  0.1549  0.9461 -1.3802
16238TIP3   OH270204   5.333   5.924  14.225  0.3446 -0.0314  0.5938
16238TIP3    H170205   5.272   5.854  14.199  0.9391 -0.7717  1.1377
16238TIP3    H270206   5.328   5.988  14.154 -0.6537 -0.3433  0.3692
16239TIP3   OH270207   0.556   2.199  11.050 -0.1821  0.2929 -0.1896
16239TIP3    H170208   0.487   2.252  11.090  0.6371  2.8776 -1.9559
16239TIP3    H270209   0.509   2.134  10.999 -1.2400 -1.8941  3.2296
16240TIP3   OH270210   6.518   5.270   1.131 -0.0642 -0.2323  0.5900
16240TIP3    H170211   6.534   5.303   1.220 -0.9844 -0.6950  0.9463
16240TIP3    H270212   6.474   5.343   1.086  1.7212  0.5531  0.0194
16241TIP3   OH270213   1.682   4.610   1.006 -0.6412 -0.5423 -0.2704
16241TIP3    H170214   1.699   4.664   0.928 -2.4149 -1.7208 -1.5784
16241TIP3    H270215   1.741   4.644   1.073  0.9849  0.5177 -2.1354
16242TIP3   OH270216   3.034   4.365  15.851 -0.2448  0.2642  0.4202
16242TIP3    H170217   2.985   4.346  15.771  0.1749  0.0863  0.2053
16242TIP3    H270218   2.969   4.405  15.910 -0.8624 -0.7782  0.4623
16243TIP3   OH270219   0.804   5.606  16.298 -0.5867  0.3627 -0.4233
16243TIP3    H170220   0.767   5.518  16.293  0.6574 -0.2672  0.6686
16243TIP3    H270221   0.754   5.657  16.235 -1.4718 -1.0766 -0.9334
16244TIP3   OH270222   2.210   2.628   1.330  0.0172  0.1078 -0.1943
16244TIP3    H170223   2.163   2.633   1.413  1.4382  1.8370  0.5916
16244TIP3    H270224   2.293   2.586   1.352 -1.2214 -3.4817 -1.6743
16245TIP3   OH270225   1.288   5.690  15.274  0.1525 -0.0205 -0.0661
16245TIP3    H170226   1.254   5.702  15.185  1.9587  0.5824 -0.7217
16245TIP3    H270227   1.290   5.779  15.311  1.7318  0.0896 -0.3536
16246TIP3   OH270228   5.395   4.424  14.022  0.0658  0.5375 -0.1549
16246TIP3    H170229   5.425   4.443  14.111 -2.4231  0.7516  0.7099
16246TIP3    H270230   5.460   4.467  13.966  0.0858  3.0308  1.6170
16247TIP3   OH270231   0.681   3.357  16.817  0.4766  0.0642 -0.3537
16247TIP3    H170232   0.713   3.319  16.899 -0.5421  1.9342  0.9777
16247TIP3    H270233   0.655   3.281  16.764 -1.3726 -1.1888  2.1202
16248TIP3   OH270234   3.820   2.735   1.663 -0.1788 -0.8938  0.1996
16248TIP3    H170235   3.821   2.742   1.758  1.3813 -1.9355  0.3069
16248TIP3    H270236   3.767   2.809   1.634 -1.2378 -0.9319  1.8839
16249TIP3   OH270237   4.218   3.749  13.560 -0.0394  0.0597 -0.2089
16249TIP3    H170238   4.193   3.657  13.567 -2.7722  0.7829  0.8394
16249TIP3    H270239   4.288   3.760  13.625 -0.6845 -0.9818  0.6987
16250TIP3   OH270240   5.712   3.969   3.892 -0.1492 -0.0850 -0.2580
16250TIP3    H170241   5.767   3.940   3.819 -0.8194  1.1978 -1.3094
16250TIP3    H270242   5.682   3.888   3.932 -1.1215 -0.8946 -2.4414
16251TIP3   OH270243   0.642   3.621   4.727 -0.0494  0.4377  0.3354
16251TIP3    H170244   0.727   3.665   4.738 -0.3344  1.5524 -1.5135
16251TIP3    H270245   0.665   3.530   4.707  0.9267  1.2680 -2.9049
16252TIP3   OH270246   3.615   4.859  14.874 -0.1858  0.3173  0.2237
16252TIP3    H170247   3.682   4.920  14.903 -0.6096  0.1894  1.5468
16252TIP3    H270248   3.655   4.810  14.803  0.3702  1.7063 -0.4551
16253TIP3   OH270249   2.443   1.845   0.663  0.0030  0.3892 -0.1220
16253TIP3    H170250   2.410   1.858   0.752  1.0174  1.4738  0.1232
16253TIP3    H270251   2.385   1.897   0.608  0.1247  0.7343  0.0708
16254TIP3   OH270252   4.477   1.588  16.036 -0.5472  0.6800 -0.1582
16254TIP3    H170253   4.447   1.597  16.127 -0.9574  1.6246 -0.3853
16254TIP3    H270254   4.415   1.638  15.984 -0.6510 -0.3296 -1.0418
16255TIP3   OH270255   6.368   2.962   1.109 -0.5066  0.5439 -0.1926
16255TIP3    H170256   6.275   2.984   1.096 -0.5488  0.9482  0.7422
16255TIP3    H270257   6.368   2.868   1.125 -0.8314  0.6512  0.4627
16256TIP3   OH270258   5.759   6.653  11.204  0.4263  0.3880 -0.2817
16256TIP3    H170259   5.699   6.584  11.231 -0.2293  0.8965 -0.4044
16256TIP3    H270260   5.793   6.623  11.120  1.3222 -0.4911  0.3747
16257TIP3   OH270261   6.230   4.276  14.330 -0.8801  0.0805  0.5758
16257TIP3    H170262   6.187   4.192  14.345 -1.0169  0.2417  1.1217
16257TIP3    H270263   6.160   4.333  14.298 -1.1635  0.4315  1.7700
16258TIP3   OH270264   2.823   0.188   0.245  0.3136  0.1955 -0.0326
16258TIP3    H170265   2.896   0.249   0.257  0.2030  0.3797 -0.2830
16258TIP3    H270266   2.748   0.233   0.284  0.2527  0.1748 -0.1258
16259TIP3   OH270267   4.152   1.065  15.314  0.2163 -0.1566  0.9314
16259TIP3    H170268   4.239   1.040  15.285 -0.1451 -1.2064  0.7001
16259TIP3    H270269   4.098   0.987  15.298 -0.6729  0.3360  1.4431
16260TIP3   OH270270   3.713   0.320   5.737 -0.5500  0.2023  0.0506
16260TIP3    H170271   3.625   0.311   5.774 -1.2565 -0.7031 -1.7224
16260TIP3    H270272   3.749   0.231   5.738  0.3634  0.5635  0.7532
16261TIP3   OH270273   4.277   5.725  16.965 -0.4842  0.2333  0.3592
16261TIP3    H170274   4.345   5.671  16.924 -1.1140 -0.2883 -0.0212
16261TIP3    H270275   4.196   5.697  16.923 -0.7524  1.9819 -0.3654
16262TIP3   OH270276   5.841   1.925   1.383  0.4203  0.7989 -0.7165
16262TIP3    H170277   5.786   1.984   1.434  0.1546  0.9295 -1.1470
16262TIP3    H270278   5.817   1.837   1.414  1.0902  0.9242  0.1908
16263TIP3   OH270279   4.032   2.811  11.106 -0.4831 -0.1769  0.1975
16263TIP3    H170280   3.942   2.784  11.126 -0.9979  1.3315  0.0372
16263TIP3    H270281   4.049   2.774  11.019 -0.8474 -0.6731  0.3318
16264TIP3   OH270282   5.759   3.211  15.650 -0.5738 -0.5333  0.3549
16264TIP3    H170283   5.770   3.128  15.604  1.2873 -0.1240  0.0097
16264TIP3    H270284   5.799   3.196  15.736 -0.1506  0.0422  0.2557
16265TIP3   OH270285   6.511   1.653   3.141 -0.4784  0.1662  0.2610
16265TIP3    H170286   6.586   1.593   3.138 -0.2182  0.5163 -1.3272
16265TIP3    H270287   6.437   1.597   3.163  0.2495 -0.1496  2.0960
16266TIP3   OH270288   5.427   2.070  10.569  0.4070  0.1519  0.0986
16266TIP3    H170289   5.464   2.099  10.653 -1.3808  3.5038 -0.1378
16266TIP3    H270290   5.494   2.094  10.504  1.2691 -1.3544  0.3814
16267TIP3   OH270291   4.751   0.129  11.374  0.4586 -0.4052  0.2476
16267TIP3    H170292   4.715   0.216  11.392 -0.5757 -0.7890  0.0373
16267TIP3    H270293   4.793   0.137  11.288  1.2073  0.1276  0.6431
16268TIP3   OH270294   3.139   2.250   3.931 -0.1558  0.6584  0.3138
16268TIP3    H170295   3.118   2.159   3.952 -0.3445  0.5860 -0.1742
16268TIP3    H270296   3.192   2.280   4.005  2.0855 -0.6158 -0.6684
16269TIP3   OH270297   2.365   4.027  13.777 -0.0655 -0.1217  0.3784
16269TIP3    H170298   2.385   4.002  13.867 -0.3241  1.8768  1.0494
16269TIP3    H270299   2.444   4.074  13.747  0.1451 -1.0430 -0.5707
16270TIP3   OH270300   0.203   4.593  12.971 -0.5953  0.3897 -0.6133
16270TIP3    H170301   0.228   4.641  13.050  0.7034  2.0852 -1.9655
16270TIP3    H270302   0.217   4.501  12.993 -0.6649  0.7787  1.2322
16271TIP3   OH270303   6.581   0.266   4.324 -0.1074  0.4037  0.0873
16271TIP3    H170304   6.513   0.204   4.296  0.9506 -0.4105 -0.7963
16271TIP3    H270305   6.539   0.352   4.319 -0.4474  0.1791 -2.7598
16272TIP3   OH270306   3.931   5.902   3.823  0.4397 -0.3416 -0.2745
16272TIP3    H170307   3.924   5.812   3.790  0.4559 -0.5375  0.2437
16272TIP3    H270308   3.994   5.944   3.765  2.5101 -1.4360  1.0724
16273TIP3   OH270309   0.812   4.096  16.655 -0.1807  0.2778  0.1354
16273TIP3    H170310   0.880   4.148  16.611 -1.2109  0.8219 -0.8725
16273TIP3    H270311   0.766   4.158  16.711  0.9836 -0.3705  1.9120
16274TIP3   OH270312   1.260   5.995   0.971  0.2128 -0.3472  0.0478
16274TIP3    H170313   1.249   5.939   0.893  1.5505 -2.5999  1.3514
16274TIP3    H270314   1.192   5.965   1.031  1.3116 -1.0444  0.9836
16275TIP3   OH270315   1.514   2.395  13.610  0.2794  1.1747  0.3201
16275TIP3    H170316   1.460   2.324  13.644  0.7873  1.0976  0.9791
16275TIP3    H270317   1.493   2.470  13.665  1.5614  0.8871  1.2355
16276TIP3   OH270318   6.182   4.869   2.599  0.4085  0.0526  0.3914
16276TIP3    H170319   6.143   4.887   2.685 -0.9680 -0.0738 -0.1802
16276TIP3    H270320   6.195   4.955   2.560  0.0664  0.0720  0.3179
16277TIP3   OH270321   0.716   4.015   0.505 -0.2284 -0.5349 -0.4401
16277TIP3    H170322   0.626   4.015   0.472 -0.4910 -1.0805  0.2403
16277TIP3    H270323   0.736   4.107   0.520 -0.9996 -0.4620  0.2283
16278TIP3   OH270324   3.435   6.016  13.376  0.0633 -0.8204  0.3876
16278TIP3    H170325   3.450   6.107  13.349 -1.4846 -1.1368 -1.8338
16278TIP3    H270326   3.491   5.964  13.318  0.0898 -1.3556  0.8823
16279TIP3   OH270327   0.734   4.960   1.332 -0.4509 -0.3890  0.2335
16279TIP3    H170328   0.673   4.931   1.399 -0.3863 -0.2286  0.3600
16279TIP3    H270329   0.759   5.049   1.358 -1.0669 -0.0001 -0.4382
16280TIP3   OH270330   3.036   6.663   2.976 -0.3779  0.6773  0.0713
16280TIP3    H170331   3.035   6.571   2.948 -2.0975  1.1096 -1.4455
16280TIP3    H270332   3.005   6.659   3.067  0.7954 -0.3184  0.4710
16281TIP3   OH270333   4.197   1.435  13.438  0.2977  0.2191  0.1390
16281TIP3    H170334   4.153   1.398  13.514 -0.5162 -0.3547 -0.5967
16281TIP3    H270335   4.287   1.402  13.444 -0.6074 -2.7348 -0.9731
16282TIP3   OH270336   1.390   4.631  11.235 -0.0095  0.1185 -0.2179
16282TIP3    H170337   1.446   4.578  11.292 -0.2993  0.0950  0.0513
16282TIP3    H270338   1.405   4.596  11.147  2.6113  1.9940 -0.6286
16283TIP3   OH270339   4.639   2.735  14.863  0.1104  0.1690 -0.2639
16283TIP3    H170340   4.580   2.748  14.788  2.4838  4.1104 -1.7360
16283TIP3    H270341   4.645   2.822  14.904  1.1559 -1.2218  2.8309
16284TIP3   OH270342   0.339   4.946   0.576 -0.4224 -0.1838 -0.0477
16284TIP3    H170343   0.310   5.032   0.608  0.2578  0.0478 -0.0345
16284TIP3    H270344   0.392   4.911   0.647  0.4101 -0.0262 -0.5776
16285TIP3   OH270345   4.994   6.671   1.498 -0.0929  0.2203  0.0825
16285TIP3    H170346   5.019   6.579   1.494 -0.8530  0.0593 -1.5695
16285TIP3    H270347   4.920   6.679   1.438 -1.9541  1.3190  2.3327
16286TIP3   OH270348   3.259   3.398   3.976 -0.2278 -0.2568 -0.4108
16286TIP3    H170349   3.327   3.465   3.974  0.5257 -0.9712  0.5345
16286TIP3    H270350   3.179   3.446   3.999  0.6495  0.0951  2.3190
16287TIP3   OH270351   0.248   1.281   3.645 -0.2279  0.0114 -0.1693
16287TIP3    H170352   0.157   1.268   3.671 -0.5898 -0.1735 -1.4201
16287TIP3    H270353   0.268   1.205   3.590  0.7161 -0.0024  0.1870
16288TIP3   OH270354   2.511   5.080  10.465 -0.1237  0.0778  0.3363
16288TIP3    H170355   2.495   5.174  10.466 -1.4553 -0.1163 -0.0797
16288TIP3    H270356   2.463   5.047  10.541 -1.9647 -0.5456 -1.0145
16289TIP3   OH270357   2.476   3.954  14.028  0.1064 -0.7107 -0.1878
16289TIP3    H170358   2.529   4.003  14.091 -0.6873  0.5198 -0.4530
16289TIP3    H270359   2.539   3.922  13.963  0.5922  0.3444 -0.2483
16290TIP3   OH270360   4.619   5.817  11.307 -0.2751  0.2625  0.3209
16290TIP3    H170361   4.585   5.728  11.309  0.0799  0.0132 -2.2132
16290TIP3    H270362   4.709   5.808  11.274 -0.1045  1.5193  0.3775
16291TIP3   OH270363   0.707   2.323  10.623  0.1020  0.1511 -0.1091
16291TIP3    H170364   0.681   2.372  10.701 -0.4628 -1.4614  0.7585
16291TIP3    H270365   0.802   2.333  10.619  0.1109  0.4554  0.6401
16292TIP3   OH270366   6.184   0.820   4.886 -0.3733  0.0292  0.2850
16292TIP3    H170367   6.184   0.910   4.920 -0.6525 -0.7722  2.6193
16292TIP3    H270368   6.273   0.807   4.854 -0.1754  0.9749  0.4150
16293TIP3   OH270369   0.934   2.198  10.381  0.2306 -0.2865 -0.0979
16293TIP3    H170370   0.891   2.176  10.298 -1.0948 -0.2344  0.5496
16293TIP3    H270371   0.986   2.275  10.360 -1.0596  0.4860 -0.6212
16294TIP3   OH270372   2.109   5.578  13.836 -0.3085 -0.0102 -0.4170
16294TIP3    H170373   2.041   5.538  13.782 -0.9698 -1.1311  1.1826
16294TIP3    H270374   2.065   5.599  13.919  0.4463  2.5069 -0.5683
16295TIP3   OH270375   0.891   5.310  12.768  0.1746  0.3619 -0.0808
16295TIP3    H170376   0.887   5.336  12.860  0.9189  1.9112 -0.4496
16295TIP3    H270377   0.810   5.261  12.753 -0.8522  1.6893  0.9309
16296TIP3   OH270378   1.750   2.766   0.125 -0.2803  0.2771  0.5159
16296TIP3    H170379   1.799   2.761   0.207  2.9338 -0.4839 -1.2674
16296TIP3    H270380   1.768   2.683   0.081 -1.4913  0.8536 -1.1555
16297TIP3   OH270381   3.010   4.799   0.889  0.1973  0.6839  0.2796
16297TIP3    H170382   3.039   4.874   0.939  1.1414 -0.1182  0.9658
16297TIP3    H270383   3.052   4.724   0.930  1.1663 -0.0038 -1.7985
16298TIP3   OH270384   1.858   2.746   2.934  0.4936  0.1681 -0.3024
16298TIP3    H170385   1.891   2.684   3.000 -0.9953 -0.0090  0.3106
16298TIP3    H270386   1.922   2.742   2.863  2.7005  1.0889  1.5080
16299TIP3   OH270387   4.128   0.150  14.411 -0.1933  0.1699 -0.5500
16299TIP3    H170388   4.107   0.057  14.403  1.9954 -0.3935 -0.2599
16299TIP3    H270389   4.221   0.152  14.434 -0.3254  2.4209  0.0118
16300TIP3   OH270390   6.222   1.151  11.514  0.1274 -0.7328  0.4881
16300TIP3    H170391   6.231   1.109  11.429 -0.9033 -0.7238  0.3626
16300TIP3    H270392   6.210   1.078  11.576 -0.7570 -0.6776  0.3935
16301TIP3   OH270393   2.668   0.286   3.713 -0.0590 -0.4247 -0.2478
16301TIP3    H170394   2.616   0.208   3.694 -0.5068  0.0555 -1.0315
16301TIP3    H270395   2.692   0.321   3.628  0.6220 -0.0095  0.1016
16302TIP3   OH270396   4.966   3.725  12.416 -0.0836 -0.6077  0.1310
16302TIP3    H170397   4.915   3.732  12.497  0.7366 -0.6669  0.6570
16302TIP3    H270398   5.008   3.640  12.421  0.4872 -0.3420 -0.0514
16303TIP3   OH270399   6.203   5.036   3.797 -0.0765 -0.4593 -0.0190
16303TIP3    H170400   6.136   5.025   3.729  2.4507  0.8601 -2.9612
16303TIP3    H270401   6.223   4.946   3.825 -3.1057 -0.8907  1.1891
16304TIP3   OH270402   4.603   1.254   2.517  0.7298  0.2267 -0.0392
16304TIP3    H170403   4.550   1.214   2.586 -1.6622  0.8404 -1.4076
16304TIP3    H270404   4.659   1.183   2.486  0.2771 -0.6312  1.0339
16305TIP3   OH270405   4.423   5.094  14.029 -0.0730 -0.2123 -0.0994
16305TIP3    H170406   4.462   5.165  14.081  0.8766  0.2234 -1.3665
16305TIP3    H270407   4.421   5.020  14.089  0.7161  0.3559  0.6572
16306TIP3   OH270408   3.581   4.544   5.596  0.2445  0.6545 -0.2310
16306TIP3    H170409   3.663   4.503   5.627  0.6833  1.4552 -0.3046
16306TIP3    H270410   3.539   4.476   5.543  0.9677  0.3001 -0.3667
16307TIP3   OH270411   2.220   1.021  14.492 -0.0073 -0.2414  0.0379
16307TIP3    H170412   2.153   0.994  14.429 -0.7488 -1.2762  1.2201
16307TIP3    H270413   2.283   1.070  14.440 -1.8427  1.0761 -1.0900
16308TIP3   OH270414   0.245   4.269  16.851  0.7628 -0.5025  0.1754
16308TIP3    H170415   0.180   4.214  16.806  1.2853 -1.7348  0.9089
16308TIP3    H270416   0.193   4.321  16.912  0.4903 -1.9032  1.1843
16309TIP3   OH270417   6.560   5.288  10.753  0.1365  0.0359 -1.2019
16309TIP3    H170418   6.630   5.300  10.689  2.2652  0.6442  1.0794
16309TIP3    H270419   6.588   5.213  10.806  0.0879  1.4059  0.8963
16310TIP3   OH270420   3.403   6.037   3.803  0.2649  0.8671  0.0394
16310TIP3    H170421   3.462   5.967   3.776  0.3610  0.9157  0.1225
16310TIP3    H270422   3.455   6.091   3.862 -0.2886  0.1138  1.2615
16311TIP3   OH270423   5.035   2.853  16.344  0.0155 -0.0496  0.6118
16311TIP3    H170424   5.002   2.854  16.434 -0.3959 -2.4198  0.5628
16311TIP3    H270425   5.081   2.936  16.334  0.2585  0.1944  3.0882
16312TIP3   OH270426   1.405   1.381  12.797  0.6044 -0.4397  0.3121
16312TIP3    H170427   1.465   1.349  12.729  0.7900  1.0943 -0.2854
16312TIP3    H270428   1.366   1.460  12.760 -0.4786 -0.4382  1.3884
16313TIP3   OH270429   4.052   4.531   3.686 -0.2883  0.6018  0.4112
16313TIP3    H170430   4.021   4.575   3.765 -0.6657 -0.8376  1.0915
16313TIP3    H270431   3.989   4.556   3.618 -0.6254  0.9203  0.8408
16314TIP3   OH270432   0.553   3.851  15.773  0.1025 -0.1192  0.3766
16314TIP3    H170433   0.567   3.882  15.684 -1.8950 -0.1843 -0.0199
16314TIP3    H270434   0.603   3.770  15.779 -0.5150 -0.6366 -1.0433
16315TIP3   OH270435   0.038   1.962  11.602  0.1195 -0.0363  0.2225
16315TIP3    H170436  -0.003   1.912  11.674  0.9463  1.1325  1.5575
16315TIP3    H270437   0.099   2.021  11.646  0.6839  0.6944 -1.4764
16316TIP3   OH270438   3.838   5.258  14.356 -0.2648  0.8659  0.3979
16316TIP3    H170439   3.811   5.231  14.268 -0.2382  0.9356  0.3684
16316TIP3    H270440   3.859   5.351  14.347  4.1061  0.0328 -0.6061
16317TIP3   OH270441   5.964   5.153  11.019 -0.7864 -0.6269  0.2946
16317TIP3    H170442   5.943   5.076  11.073 -1.4137  0.4763  1.7045
16317TIP3    H270443   5.887   5.164  10.963 -0.6938 -1.0255  0.0857
16318TIP3   OH270444   1.298   2.380  11.440  0.0248 -1.0107  0.4739
16318TIP3    H170445   1.329   2.455  11.389  0.1919 -2.6789 -2.1154
16318TIP3    H270446   1.209   2.366  11.410  0.1175 -2.0327  0.6420
16319TIP3   OH270447   3.948   3.670  12.539  0.1016  0.5997 -0.3630
16319TIP3    H170448   3.947   3.753  12.491  3.5528  1.0161  0.0449
16319TIP3    H270449   3.930   3.604  12.472 -1.1294  1.5322 -0.9973
16320TIP3   OH270450   1.036   4.982   4.973 -0.1046 -0.5615 -0.4889
16320TIP3    H170451   0.949   4.949   4.954 -0.5233  1.0443 -1.5001
16320TIP3    H270452   1.029   5.077   4.965  1.3517 -0.2601  1.0557
16321TIP3   OH270453   5.350   0.206  16.938  0.0763 -0.4130  0.0870
16321TIP3    H170454   5.386   0.193  17.026  0.8789 -0.4090 -0.2254
16321TIP3    H270455   5.421   0.249  16.890 -0.7376  0.5466 -0.2735
16322TIP3   OH270456   6.337   3.731   3.504  0.1362  0.3938 -0.3341
16322TIP3    H170457   6.336   3.827   3.505 -1.9887  0.4144  1.3014
16322TIP3    H270458   6.289   3.708   3.425 -0.3170  0.7037 -0.1561
16323TIP3   OH270459   0.680   3.329  10.639  0.2254 -0.4241  0.2469
16323TIP3    H170460   0.767   3.368  10.640 -0.5560  1.4595 -0.7969
16323TIP3    H270461   0.638   3.363  10.560 -0.9956 -2.4155 -0.0570
16324TIP3   OH270462   3.212   0.054  16.850  0.0436  0.0251  0.1861
16324TIP3    H170463   3.276   0.044  16.920 -0.3237  1.4798  0.7570
16324TIP3    H270464   3.248   0.123  16.794  0.8249 -1.7772 -1.6719
16325TIP3   OH270465   1.871   4.575   4.454 -0.1163  1.0254 -0.1088
16325TIP3    H170466   1.900   4.665   4.465  0.4808  0.6750  1.3208
16325TIP3    H270467   1.950   4.527   4.430  0.8619 -0.0479  4.4251
16326TIP3   OH270468   4.583   6.684   4.362  0.5173 -0.0412  0.0514
16326TIP3    H170469   4.574   6.589   4.349 -0.0010  0.0321 -0.1454
16326TIP3    H270470   4.662   6.707   4.313  2.1617 -0.7821  2.1921
16327TIP3   OH270471   0.841   5.577   6.494  0.0158 -0.5279  0.3170
16327TIP3    H170472   0.759   5.626   6.491  0.5219  0.3166 -0.0221
16327TIP3    H270473   0.820   5.499   6.546 -0.9781 -0.2916  0.2940
16328TIP3   OH270474   1.018   0.188   0.740 -0.7811  0.5267 -0.3093
16328TIP3    H170475   1.061   0.109   0.775 -2.4078  0.4923  1.8470
16328TIP3    H270476   0.946   0.204   0.801 -1.6879  2.5709 -1.8271
16329TIP3   OH270477   0.810   1.984   4.365 -0.2505 -0.3174  0.0457
16329TIP3    H170478   0.846   2.032   4.290 -0.2030  0.2673  0.4368
16329TIP3    H270479   0.870   1.911   4.378 -0.9547 -1.1736 -1.2815
16330TIP3   OH270480   1.710   1.158  14.239  0.2206  0.1010  0.1242
16330TIP3    H170481   1.704   1.197  14.151  0.4570  1.2189  0.5831
16330TIP3    H270482   1.802   1.132  14.247 -0.2508 -1.9942 -0.7496
16331TIP3   OH270483   1.363   2.861   4.648 -0.3430  0.1799 -0.3324
16331TIP3    H170484   1.327   2.908   4.722  0.0860 -1.0498  0.7041
16331TIP3    H270485   1.337   2.770   4.663 -0.0325 -0.1305 -1.5614
16332TIP3   OH270486   3.940   4.481  12.406  0.5976 -0.5866  0.3660
16332TIP3    H170487   3.914   4.522  12.323  3.2733 -0.7005 -0.6123
16332TIP3    H270488   3.930   4.550  12.471 -0.7605 -0.2491 -0.1623
16333TIP3   OH270489   5.934   6.328  16.636  0.7792  0.2499  0.2492
16333TIP3    H170490   5.973   6.361  16.717 -0.0504 -0.8568  1.1274
16333TIP3    H270491   5.865   6.269  16.665 -0.2778  0.6848 -1.2712
16334TIP3   OH270492   0.661   3.580  12.328 -0.3847  0.4762 -0.1340
16334TIP3    H170493   0.670   3.598  12.234  0.6260  0.0026 -0.1452
16334TIP3    H270494   0.611   3.499  12.333  0.2025  0.0952 -0.3032
16335TIP3   OH270495   1.734   6.270  16.190  0.1600  0.3646  0.8629
16335TIP3    H170496   1.749   6.226  16.274  0.1209 -0.4680  0.4426
16335TIP3    H270497   1.697   6.355  16.214 -1.3101 -0.4499  1.6560
16336TIP3   OH270498   0.935   4.671   5.002 -0.2423  0.1275  0.1287
16336TIP3    H170499   0.884   4.615   5.061 -0.1733  0.0096  0.0768
16336TIP3    H270500   0.872   4.735   4.970 -0.1479  0.5528  0.7820
16337TIP3   OH270501   4.960   5.092   6.157  0.1938 -0.4437  0.0957
16337TIP3    H170502   4.902   5.071   6.084  1.0194 -1.3430 -0.3130
16337TIP3    H270503   4.905   5.080   6.235 -0.9038  1.2184 -0.3595
16338TIP3   OH270504   5.911   4.921  11.168 -0.2103  0.1198  0.2250
16338TIP3    H170505   5.823   4.911  11.204  0.7369 -1.8800  2.2182
16338TIP3    H270506   5.963   4.952  11.242  0.7969  1.2106 -0.9142
16339TIP3   OH270507   0.355   4.390  13.820 -0.2516  0.5366 -0.1372
16339TIP3    H170508   0.265   4.417  13.800 -0.5286  0.7087  1.2526
16339TIP3    H270509   0.409   4.460  13.784 -0.6978  0.6946 -0.5232
16340TIP3   OH270510   3.470   6.691   1.660  0.2291 -0.7267  0.0275
16340TIP3    H170511   3.385   6.730   1.681  0.4155  0.3862 -1.1666
16340TIP3    H270512   3.449   6.615   1.606  0.0197  0.2126 -1.2448
16341TIP3   OH270513   3.546   1.053   2.204 -0.0617  0.2845  0.0769
16341TIP3    H170514   3.615   1.119   2.203  0.6949 -0.4703 -1.9633
16341TIP3    H270515   3.474   1.092   2.154 -0.3212  0.2448  0.4117
16342TIP3   OH270516   5.198   1.719  12.188 -0.1455  0.0762  0.5412
16342TIP3    H170517   5.172   1.802  12.147 -0.2139  0.6799  1.7469
16342TIP3    H270518   5.188   1.735  12.282  3.4219 -0.0452  1.0798
16343TIP3   OH270519   2.106   1.995   0.024 -0.5331  0.4071 -0.5201
16343TIP3    H170520   2.103   2.084  -0.011  1.3669  1.8209  2.4617
16343TIP3    H270521   2.017   1.980   0.057 -1.3390  0.4573 -2.5370
16344TIP3   OH270522   5.908   4.075   5.548 -0.1719  0.1262  0.3701
16344TIP3    H170523   5.904   4.122   5.465  2.0586  0.5310  0.4073
16344TIP3    H270524   5.994   4.097   5.583 -0.0060 -2.0807  1.5532
16345TIP3   OH270525   1.400   1.370  16.558  0.1347 -0.4048 -0.3890
16345TIP3    H170526   1.310   1.401  16.552  0.2674 -0.1667 -1.3009
16345TIP3    H270527   1.396   1.279  16.528  0.1173 -0.5668  0.0899
16346TIP3   OH270528   0.406   3.801   4.081 -0.5329  0.3597 -0.1239
16346TIP3    H170529   0.444   3.885   4.106  0.3218 -0.5790  1.9815
16346TIP3    H270530   0.477   3.756   4.034  0.4667 -0.6223  2.1232
16347TIP3   OH270531   2.419   0.592  15.533 -0.3602 -0.0173 -0.0453
16347TIP3    H170532   2.510   0.610  15.558  0.5995  0.3729 -3.3441
16347TIP3    H270533   2.380   0.678  15.520 -0.3167 -0.1652 -1.3038
16348TIP3   OH270534   5.258   1.870   3.146 -0.1744 -0.2940  0.4486
16348TIP3    H170535   5.320   1.818   3.197 -1.5868 -2.1476  0.3835
16348TIP3    H270536   5.192   1.807   3.117 -0.6334  1.0974 -1.7852
16349TIP3   OH270537   6.211   6.480   4.732  0.6724  0.0380  0.1714
16349TIP3    H170538   6.172   6.518   4.654 -0.2976 -0.7607  0.2473
16349TIP3    H270539   6.234   6.555   4.787 -1.1273  0.5332  0.2886
16350TIP3   OH270540   2.896   5.922  14.333 -0.0408 -0.5868 -0.1197
16350TIP3    H170541   2.816   5.938  14.283  0.4210 -0.8617 -0.9802
16350TIP3    H270542   2.881   5.839  14.377 -0.8018  0.0874  0.9493
16351TIP3   OH270543   4.412   0.374  14.706 -0.3111 -0.3859 -0.0110
16351TIP3    H170544   4.472   0.398  14.776 -1.3320  1.8518  0.2020
16351TIP3    H270545   4.468   0.344  14.635  1.0770  1.2452  0.3089
16352TIP3   OH270546   2.121   6.449   5.035 -0.4018 -0.2630  0.3217
16352TIP3    H170547   2.064   6.399   4.976  1.1382 -0.8082 -0.7642
16352TIP3    H270548   2.066   6.468   5.110 -1.3832 -2.6694  0.3157
16353TIP3   OH270549   2.567   5.510   2.072  0.5356 -0.5218 -0.0112
16353TIP3    H170550   2.587   5.603   2.082  0.6680 -0.3369 -1.6788
16353TIP3    H270551   2.652   5.467   2.082  0.4097 -0.5043  1.1612
16354TIP3   OH270552   4.301   6.140   3.470 -0.1693 -0.0291  0.2706
16354TIP3    H170553   4.236   6.109   3.533 -0.2985  0.5534  0.4348
16354TIP3    H270554   4.366   6.070   3.465 -0.1307 -0.0624  1.0804
16355TIP3   OH270555   5.608   2.262   0.005  0.3086 -0.1496  0.2336
16355TIP3    H170556   5.538   2.314  -0.034  0.4898 -0.1164 -0.0474
16355TIP3    H270557   5.688   2.299  -0.031  0.4467 -0.4975  0.1838
16356TIP3   OH270558   0.004   4.521  14.408 -0.0775 -0.0858  0.2826
16356TIP3    H170559   0.078   4.464  14.388 -0.1147  0.5584 -2.0315
16356TIP3    H270560  -0.073   4.473  14.378 -0.2477  0.5632 -0.3526
16357TIP3   OH270561   1.794   1.041  10.560  0.7721 -0.3025  0.1928
16357TIP3    H170562   1.876   1.086  10.581 -0.2713  1.0596  1.4745
16357TIP3    H270563   1.753   1.095  10.493  0.7496 -0.8358 -0.2405
16358TIP3   OH270564   5.343   2.500  15.650 -0.3767  0.0318  0.3027
16358TIP3    H170565   5.408   2.475  15.715 -0.2806  0.2962  0.3112
16358TIP3    H270566   5.279   2.429  15.651 -0.2693 -0.0626  0.5397
16359TIP3   OH270567   1.889   0.325  10.647  0.6612  0.2351 -0.2743
16359TIP3    H170568   1.852   0.242  10.618  0.4212  0.1431  0.2957
16359TIP3    H270569   1.884   0.381  10.569 -0.1762  0.0551 -0.3596
16360TIP3   OH270570   6.219   1.194  13.243  0.2983 -0.0928 -0.7440
16360TIP3    H170571   6.169   1.112  13.237  0.3533 -0.0692 -1.6913
16360TIP3    H270572   6.154   1.263  13.236  0.1681 -0.0286  0.7652
16361TIP3   OH270573   3.925   6.352  13.241 -0.8623  0.4324 -0.3383
16361TIP3    H170574   3.918   6.312  13.155  2.2240  0.1641 -0.6034
16361TIP3    H270575   3.969   6.436  13.225  3.1110 -1.1078  1.0714
16362TIP3   OH270576   0.022   6.704   3.016  0.0704 -0.5200 -0.2082
16362TIP3    H170577   0.013   6.682   3.109 -3.2212 -0.0723 -0.3115
16362TIP3    H270578   0.029   6.799   3.014 -1.0565 -0.4295 -0.4358
16363TIP3   OH270579   5.424   3.647   3.321 -0.5081  0.1064 -0.3815
16363TIP3    H170580   5.399   3.713   3.256 -0.2217  0.0962 -0.5022
16363TIP3    H270581   5.506   3.610   3.288 -0.8354 -0.5411 -0.4820
16364TIP3   OH270582   2.370   6.746  11.869 -0.0886  0.6095 -0.0454
16364TIP3    H170583   2.359   6.661  11.827  0.2750  1.1110 -1.1850
16364TIP3    H270584   2.419   6.728  11.949  0.3838 -0.1906 -0.5109
16365TIP3   OH270585   1.216   0.559  12.026 -0.5349 -0.5949  0.5057
16365TIP3    H170586   1.130   0.572  11.987 -0.2160  0.6529  0.1700
16365TIP3    H270587   1.221   0.625  12.096  0.7298  0.4261 -0.5051
16366TIP3   OH270588   4.391   5.152  11.867 -0.1688 -0.1483  0.3888
16366TIP3    H170589   4.412   5.066  11.832  0.0431  0.4271 -0.9282
16366TIP3    H270590   4.430   5.214  11.806 -0.7020  0.8972  1.0709
16367TIP3   OH270591   5.766   5.948   1.354 -0.2716  0.2589 -0.2531
16367TIP3    H170592   5.728   5.866   1.321 -0.3420  0.8017 -1.5877
16367TIP3    H270593   5.819   5.921   1.429  2.3750 -1.5403 -2.5524
16368TIP3   OH270594   0.990   3.112  12.436 -0.2321  0.1798 -0.7145
16368TIP3    H170595   0.939   3.186  12.403 -1.1258 -0.1945 -0.1992
16368TIP3    H270596   1.007   3.058  12.359 -1.4110 -0.1619 -0.7410
16369TIP3   OH270597   3.042   6.761  15.385 -0.1674 -0.1277  0.2954
16369TIP3    H170598   3.088   6.845  15.385  0.1617 -0.2878 -0.9018
16369TIP3    H270599   2.949   6.785  15.383 -0.1366  0.1937  1.9010
16370TIP3   OH270600   1.600   1.904  10.178 -0.3610 -0.2505 -0.1511
16370TIP3    H170601   1.690   1.893  10.146 -0.6511 -3.8543 -0.0934
16370TIP3    H270602   1.601   1.868  10.266 -2.0111 -1.1253 -0.4573
16371TIP3   OH270603   5.292   1.348  17.074  0.2918 -0.0357  0.1308
16371TIP3    H170604   5.278   1.372  16.983  0.4039  0.1616  0.1665
16371TIP3    H270605   5.372   1.296  17.073 -0.5449 -1.3845 -0.1147
16372TIP3   OH270606   2.700   3.333   3.263  0.5319 -0.5879  0.0458
16372TIP3    H170607   2.774   3.322   3.322  0.5319 -0.1804  0.1242
16372TIP3    H270608   2.647   3.402   3.302  0.1944 -0.7583 -0.0974
16373TIP3   OH270609   2.549   4.064  12.989  0.2414 -0.3423 -0.2464
16373TIP3    H170610   2.557   4.148  12.944 -1.8740 -0.3479 -0.7431
16373TIP3    H270611   2.454   4.048  12.992  0.6022 -3.1403 -0.9994
16374TIP3   OH270612   2.400   3.348  13.915 -0.3684 -0.4441 -0.6248
16374TIP3    H170613   2.383   3.384  13.828 -1.8903  0.9949  0.2093
16374TIP3    H270614   2.441   3.420  13.963 -1.9571 -0.2784  0.5877
16375TIP3   OH270615   3.194   6.184  13.934 -0.1163  0.1301 -0.0260
16375TIP3    H170616   3.251   6.234  13.992  0.6208 -0.8335  0.1067
16375TIP3    H270617   3.116   6.165  13.986  0.6338 -0.9161  0.7390
16376TIP3   OH270618   0.648   3.928   1.645 -0.3322 -0.5070 -0.3977
16376TIP3    H170619   0.736   3.897   1.663 -0.0960  1.1221  1.6459
16376TIP3    H270620   0.646   4.018   1.680 -2.7484 -0.4561 -0.4835
16377TIP3   OH270621   4.643   0.292  14.575  0.1891  0.2216  0.7514
16377TIP3    H170622   4.680   0.368  14.531  1.4781  0.3294  1.9372
16377TIP3    H270623   4.695   0.218  14.544 -0.6396 -0.0968  0.0935
16378TIP3   OH270624   5.057   5.369   5.835  0.1585  0.5704 -0.9344
16378TIP3    H170625   4.974   5.418   5.833 -0.1244  0.1847  0.4890
16378TIP3    H270626   5.030   5.277   5.835  0.6095  0.4387 -1.0883
16379TIP3   OH270627   5.058   1.650   4.339 -0.4368 -0.3676  0.5581
16379TIP3    H170628   5.091   1.688   4.421 -0.3638  1.8419 -0.4184
16379TIP3    H270629   5.136   1.630   4.288 -0.4941 -1.3331  0.8286
16380TIP3   OH270630   4.345   1.184  11.359  0.5134 -0.0901 -0.4379
16380TIP3    H170631   4.307   1.104  11.324 -0.8220 -0.6563  2.0486
16380TIP3    H270632   4.275   1.223  11.412  1.3244  2.4338 -1.0755
16381TIP3   OH270633   3.138   4.933  12.159 -0.3830 -0.8484  0.1001
16381TIP3    H170634   3.066   4.878  12.129 -0.0566  0.0825 -2.6505
16381TIP3    H270635   3.099   4.989  12.227 -2.1669 -0.6923 -0.9994
16382TIP3   OH270636   2.106   6.568  11.136 -0.1785  0.3930 -0.2530
16382TIP3    H170637   2.026   6.543  11.091  0.0602 -1.4117  0.2509
16382TIP3    H270638   2.173   6.568  11.068 -0.2136 -0.2415 -0.2963
16383TIP3   OH270639   3.152   2.512  10.782 -0.3425 -0.1649 -0.2730
16383TIP3    H170640   3.078   2.546  10.732  0.2545 -2.1823 -2.7262
16383TIP3    H270641   3.120   2.508  10.872 -3.6054 -1.7981 -1.3408
16384TIP3   OH270642   1.290   1.033  11.646  0.0612  0.4786  0.2726
16384TIP3    H170643   1.232   0.995  11.712  0.8128 -0.4579  0.4280
16384TIP3    H270644   1.351   0.962  11.626 -0.2502  0.6933 -1.5467
16385TIP3   OH270645   5.212   2.381  11.260  0.2932 -0.9603  0.0043
16385TIP3    H170646   5.208   2.438  11.182 -1.3603 -0.5525  0.3533
16385TIP3    H270647   5.127   2.338  11.263  0.9020 -2.1645  0.7389
16386TIP3   OH270648   3.690   3.004   3.174 -0.7713 -0.1275  0.2695
16386TIP3    H170649   3.767   2.948   3.171 -1.4668 -1.0522 -1.3963
16386TIP3    H270650   3.616   2.944   3.165 -1.6082  0.9138  0.0451
16387TIP3   OH270651   5.050   4.913  16.437  0.0084 -0.2230 -0.2931
16387TIP3    H170652   5.016   4.955  16.358 -1.1741 -1.9734 -0.7636
16387TIP3    H270653   4.984   4.931  16.504  0.9548  1.1609  0.3227
16388TIP3   OH270654   6.340   1.641  13.496  0.2916 -0.3712 -0.4288
16388TIP3    H170655   6.331   1.734  13.518 -1.1837 -1.2184  3.2311
16388TIP3    H270656   6.324   1.637  13.402 -0.5116  2.9556 -0.5658
16389TIP3   OH270657   4.729   1.814   5.631  0.1588  0.0679  0.1975
16389TIP3    H170658   4.751   1.727   5.597 -1.9636 -0.3604 -0.1814
16389TIP3    H270659   4.635   1.811   5.648 -0.1242  2.5538 -0.5600
16390TIP3   OH270660   2.133   2.589   5.065  0.3457 -0.2129  0.2582
16390TIP3    H170661   2.139   2.547   5.151 -0.1191 -2.0365 -0.5453
16390TIP3    H270662   2.072   2.534   5.016  1.9087 -0.2258 -1.7927
16391TIP3   OH270663   2.096   2.630   2.517  0.6042  0.3191  0.1051
16391TIP3    H170664   2.116   2.576   2.593 -0.2402 -0.9565 -0.5406
16391TIP3    H270665   2.145   2.711   2.531 -0.3701  0.5598  2.5200
16392TIP3   OH270666   1.614   5.668  13.369 -0.8321 -0.1076  0.8509
16392TIP3    H170667   1.641   5.588  13.414 -2.1758  0.3753  2.6755
16392TIP3    H270668   1.671   5.736  13.405 -0.1109 -0.1345 -0.2248
16393TIP3   OH270669   0.453   5.403  15.646  0.1824 -0.1283 -0.1196
16393TIP3    H170670   0.390   5.439  15.708 -0.2476  1.0640 -1.1991
16393TIP3    H270671   0.458   5.469  15.577  1.1917 -1.0843 -0.9841
16394TIP3   OH270672   2.471   5.445  12.803 -0.2100 -0.2521 -0.4282
16394TIP3    H170673   2.459   5.352  12.783 -0.0326 -0.3805  0.0458
16394TIP3    H270674   2.386   5.485  12.784 -1.3588 -1.0703  2.5387
16395TIP3   OH270675   3.034   4.671   3.880  0.0994  0.0266  0.0840
16395TIP3    H170676   3.056   4.760   3.852  0.3970 -0.3327 -0.8464
16395TIP3    H270677   2.939   4.664   3.867  0.3960 -0.5331 -2.0581
16396TIP3   OH270678   5.315   2.391   0.439 -0.1386  0.0166  0.4508
16396TIP3    H170679   5.268   2.472   0.459  0.4630  0.2174  1.1073
16396TIP3    H270680   5.390   2.420   0.386  2.5943  0.6030  4.1835
16397TIP3   OH270681   1.979   6.138   2.743 -0.0082  0.3706 -0.1499
16397TIP3    H170682   1.984   6.142   2.647  0.2211 -0.8958 -0.2045
16397TIP3    H270683   2.063   6.103   2.770 -0.2253  0.3399  0.4973
16398TIP3   OH270684   6.371   5.625  16.707 -0.4690 -0.1710 -0.0535
16398TIP3    H170685   6.380   5.558  16.639 -0.5059 -0.0322 -0.1934
16398TIP3    H270686   6.309   5.688  16.671 -0.4699 -0.0844  0.0993
16399TIP3   OH270687   2.220   1.803  14.484 -0.5684 -0.0568  0.4517
16399TIP3    H170688   2.298   1.802  14.540 -0.2590 -0.9599  0.0189
16399TIP3    H270689   2.252   1.780  14.397 -1.5202 -2.1697  0.5797
16400TIP3   OH270690   6.223   4.043   1.552  0.1134  0.0359 -0.3329
16400TIP3    H170691   6.181   4.011   1.472 -1.1651  0.9764 -0.0724
16400TIP3    H270692   6.183   3.992   1.622  0.4830 -0.0735 -0.1993
16401TIP3   OH270693   6.752   6.300   3.707 -0.1215 -0.0080  0.1287
16401TIP3    H170694   6.770   6.370   3.645 -0.2959  0.1070  0.2091
16401TIP3    H270695   6.692   6.339   3.771  2.9829  1.1517  2.6402
16402TIP3   OH270696   3.764   0.491  10.978 -0.6480  0.3769 -0.5961
16402TIP3    H170697   3.761   0.550  10.902 -0.5414  0.1114 -0.8082
16402TIP3    H270698   3.678   0.500  11.019 -0.7755  0.3762 -0.8600
16403TIP3   OH270699   1.301   5.367   4.077 -0.2464  0.2237 -0.5393
16403TIP3    H170700   1.311   5.388   4.170 -0.3887  0.8401 -0.6610
16403TIP3    H270701   1.289   5.272   4.075 -0.1268  0.1934  0.0629
16404TIP3   OH270702   5.891   2.447   3.863 -0.4194  0.4879 -0.0032
16404TIP3    H170703   5.984   2.444   3.886 -0.8048  1.8756  2.1111
16404TIP3    H270704   5.887   2.506   3.788  0.4656 -0.2731 -0.6735
16405TIP3   OH270705   0.744   1.650  16.451  0.0045  0.2435  0.3075
16405TIP3    H170706   0.663   1.643  16.401  1.3627 -0.4604 -1.9464
16405TIP3    H270707   0.787   1.729  16.417  2.1677 -1.6361 -1.7098
16406TIP3   OH270708   6.350   4.831   4.338 -0.2736 -0.0874 -0.1102
16406TIP3    H170709   6.396   4.860   4.259  2.1533  0.9066  1.5326
16406TIP3    H270710   6.296   4.906   4.364  0.2278  0.2149  0.0684
16407TIP3   OH270711   3.818   5.917   2.645  0.1228  0.1739  0.3345
16407TIP3    H170712   3.803   5.824   2.626  0.7440  0.2567 -0.6698
16407TIP3    H270713   3.733   5.950   2.672 -0.2793 -0.5261 -0.0306
16408TIP3   OH270714   0.290   0.916  12.588  0.3980  0.2288 -0.1930
16408TIP3    H170715   0.244   0.964  12.519  0.8254 -0.9922 -1.3619
16408TIP3    H270716   0.382   0.935  12.572  0.5194 -0.3390 -0.1641
16409TIP3   OH270717   6.081   0.131  12.291 -0.7457 -0.0034 -0.1153
16409TIP3    H170718   6.086   0.058  12.230  2.1339 -0.7340  0.7927
16409TIP3    H270719   6.035   0.095  12.367  1.7474 -1.4261  0.8440
16410TIP3   OH270720   1.587   3.237   3.506 -0.3473 -0.4441  0.1326
16410TIP3    H170721   1.583   3.317   3.454 -2.5661 -0.8668 -0.4532
16410TIP3    H270722   1.680   3.212   3.505  0.6143  2.6959  1.3239
16411TIP3   OH270723   1.884   0.437  14.316 -0.3979  0.3337  0.3521
16411TIP3    H170724   1.866   0.384  14.394 -1.4211 -0.6985 -0.5477
16411TIP3    H270725   1.968   0.404  14.283 -0.3258  0.2645  0.6074
16412TIP3   OH270726   3.718   5.314   4.251  0.2227  0.1598  0.0346
16412TIP3    H170727   3.677   5.400   4.251 -0.4491 -0.1332  1.2472
16412TIP3    H270728   3.809   5.330   4.277  0.4462  0.6129 -0.9505
16413TIP3   OH270729   3.320   1.549  14.831  0.1983 -0.6613  0.3469
16413TIP3    H170730   3.397   1.578  14.782  0.0960  0.2304  0.6868
16413TIP3    H270731   3.311   1.613  14.901 -0.0922 -1.4988  1.0903
16414TIP3   OH270732   2.443   2.518   1.458 -0.6132  0.0549 -0.2685
16414TIP3    H170733   2.475   2.429   1.469 -1.2767 -0.3729 -1.6666
16414TIP3    H270734   2.441   2.554   1.547  3.8219  0.1751  0.0208
16415TIP3   OH270735   3.945   5.490   4.692 -0.7068  0.5834  0.6997
16415TIP3    H170736   3.939   5.395   4.705 -3.0469  0.7518  1.2942
16415TIP3    H270737   3.855   5.518   4.676  0.1016  2.5544 -0.7700
16416TIP3   OH270738   5.910   1.230  10.653  0.5302 -0.1268 -0.0632
16416TIP3    H170739   5.890   1.212  10.745  0.1245 -0.3443 -0.1907
16416TIP3    H270740   5.836   1.193  10.605 -0.9492  2.8407 -0.2847
16417TIP3   OH270741   2.985   5.179   1.882 -0.3327  0.3049 -0.2438
16417TIP3    H170742   3.014   5.138   1.800 -0.7202 -1.2247  0.3502
16417TIP3    H270743   2.902   5.135   1.903 -0.9025  1.5909  0.3099
16418TIP3   OH270744   5.983   2.578  10.471 -0.0904  0.5084  0.0390
16418TIP3    H170745   6.009   2.491  10.442  0.4661  1.4895 -2.7354
16418TIP3    H270746   5.891   2.569  10.497 -0.6256 -0.5914 -2.0105
16419TIP3   OH270747   4.430   0.446  12.568 -0.5913  0.3666  0.4069
16419TIP3    H170748   4.427   0.537  12.597 -0.7773  0.3350  0.4919
16419TIP3    H270749   4.488   0.402  12.630 -0.6457  0.3896  0.4740
16420TIP3   OH270750   0.379   0.819   1.651  0.2101 -0.2085 -0.0665
16420TIP3    H170751   0.390   0.731   1.614  2.1517 -0.6041  1.2571
16420TIP3    H270752   0.342   0.804   1.738  1.7995  0.1115  0.7091
16421TIP3   OH270753   5.838   3.448  13.423 -0.5240  0.3826 -0.3638
16421TIP3    H170754   5.808   3.454  13.332  0.4441 -1.4788 -0.8535
16421TIP3    H270755   5.921   3.495  13.423 -0.4068  0.1756 -0.4965
16422TIP3   OH270756   0.785   6.555  11.717  0.6637  0.3564  0.2780
16422TIP3    H170757   0.716   6.615  11.745  0.0087 -0.4073  0.3247
16422TIP3    H270758   0.763   6.534  11.626  0.0942 -0.9191  0.7064
16423TIP3   OH270759   0.936   3.826  17.099 -0.6114 -0.5423 -0.5473
16423TIP3    H170760   0.975   3.849  17.014 -0.8820 -0.1360 -0.5599
16423TIP3    H270761   0.904   3.908  17.134  0.9580 -0.4251  0.7143
16424TIP3   OH270762   5.188   4.278   1.429 -0.3007  0.0674 -0.0956
16424TIP3    H170763   5.203   4.305   1.520 -0.6184  2.5346 -0.6854
16424TIP3    H270764   5.269   4.300   1.384 -0.3902 -0.4962 -0.5385
16425TIP3   OH270765   3.784   6.641   2.383  0.4089 -0.3313  0.1464
16425TIP3    H170766   3.776   6.573   2.316 -1.7971 -0.2587  0.2693
16425TIP3    H270767   3.809   6.719   2.333 -0.5598 -0.4300 -0.5244
16426TIP3   OH270768   1.290   4.044  12.705  0.2745  0.0796 -0.4654
16426TIP3    H170769   1.294   4.016  12.613  1.4457  2.0109 -1.0703
16426TIP3    H270770   1.325   3.970  12.754 -1.1789 -1.3318 -1.4507
16427TIP3   OH270771   3.066   3.153  13.116  0.2009 -0.2413 -0.0669
16427TIP3    H170772   3.078   3.067  13.074 -0.4164  0.0033 -0.7735
16427TIP3    H270773   3.013   3.135  13.193 -1.1010 -0.3336 -0.9519
16428TIP3   OH270774   5.419   4.800   5.640  0.4342  0.1337 -0.3754
16428TIP3    H170775   5.478   4.848   5.583  0.2881 -0.9630 -1.4880
16428TIP3    H270776   5.391   4.725   5.588 -0.5231 -0.3386  0.7749
16429TIP3   OH270777   3.896   2.862   5.375 -0.5600 -0.6865 -0.0397
16429TIP3    H170778   3.826   2.796   5.374  0.3313 -1.6727 -1.9246
16429TIP3    H270779   3.972   2.816   5.339  0.1147  1.3572 -1.3524
16430TIP3   OH270780   6.774   1.216   0.675  0.0451  0.0257 -0.6355
16430TIP3    H170781   6.684   1.203   0.645  0.5094 -0.2024 -2.0165
16430TIP3    H270782   6.827   1.163   0.615  0.9571 -1.4998  1.4201
16431TIP3   OH270783   1.604   2.021  12.138 -0.3574  0.4001 -0.1011
16431TIP3    H170784   1.611   1.925  12.138 -0.1122  0.3848  1.5318
16431TIP3    H270785   1.609   2.045  12.046 -2.0266 -1.2599 -0.7042
16432TIP3   OH270786   0.186   6.224   1.153 -0.3771  0.6512 -0.0710
16432TIP3    H170787   0.155   6.263   1.235  2.1096  2.2923  0.1708
16432TIP3    H270788   0.182   6.129   1.169  0.6951  0.9378  2.2220
16433TIP3   OH270789   5.233   5.734   2.530 -0.4445  0.2925  0.0009
16433TIP3    H170790   5.154   5.690   2.499 -0.1092 -0.4229  0.1512
16433TIP3    H270791   5.305   5.686   2.490  0.0727 -1.3814  2.6727
16434TIP3   OH270792   5.011   4.107   3.337 -0.2009 -0.5309 -0.0655
16434TIP3    H170793   4.947   4.160   3.384 -0.5512 -0.5115 -0.5597
16434TIP3    H270794   4.983   4.017   3.353 -0.5019 -0.5133 -0.4948
16435TIP3   OH270795   0.339   0.099   4.969 -0.5955  0.2925  0.2566
16435TIP3    H170796   0.287   0.022   4.992  0.8875 -1.2288 -1.2167
16435TIP3    H270797   0.351   0.145   5.052 -4.1614  0.7298  0.6920
16436TIP3   OH270798   6.029   6.769  15.356  0.3863 -0.0648  0.5876
16436TIP3    H170799   5.969   6.796  15.425  0.5797 -1.4715  1.3424
16436TIP3    H270800   6.116   6.788  15.391  0.4549  0.0682  0.3484
16437TIP3   OH270801   6.331   6.407  12.402 -0.1164  0.2174 -0.3905
16437TIP3    H170802   6.238   6.413  12.424  0.0812 -0.1491  0.5573
16437TIP3    H270803   6.338   6.324  12.354  0.0836 -0.9017  1.4921
16438TIP3   OH270804   3.296   5.658   4.045  0.1031  0.3112  0.5789
16438TIP3    H170805   3.224   5.624   4.099 -0.3757  0.2449 -0.0900
16438TIP3    H270806   3.257   5.671   3.959  1.3261 -1.4893 -0.3048
16439TIP3   OH270807   3.629   2.987  16.655 -0.5456  0.2585  0.7229
16439TIP3    H170808   3.605   3.026  16.739  1.0352  3.7311 -0.2204
16439TIP3    H270809   3.717   2.952  16.669 -0.7784 -0.3034  0.8076
16440TIP3   OH270810   4.792   5.096   2.556 -0.3039 -0.2408 -0.1830
16440TIP3    H170811   4.812   5.158   2.487 -0.2089 -2.0261 -1.8589
16440TIP3    H270812   4.774   5.150   2.633  0.0053  1.8067 -1.4729
16441TIP3   OH270813   0.705   0.069   6.449  0.0512  0.0266  0.5775
16441TIP3    H170814   0.730   0.141   6.507  0.5915  0.2271  0.1007
16441TIP3    H270815   0.609   0.077   6.442 -0.2203 -0.8596  2.5666
16442TIP3   OH270816   4.457   1.112  15.399 -0.3456  0.3529 -0.2920
16442TIP3    H170817   4.449   1.190  15.345  1.3826  1.2201  0.6262
16442TIP3    H270818   4.497   1.143  15.481 -2.3982 -0.9719  1.3317
16443TIP3   OH270819   6.257   5.372  12.525 -0.2698  0.4357 -0.0366
16443TIP3    H170820   6.244   5.397  12.434 -0.4302 -0.0873 -0.1594
16443TIP3    H270821   6.351   5.380  12.539 -0.0777 -0.6084 -0.5936
16444TIP3   OH270822   1.301   1.567  15.467 -0.0819 -0.1447 -0.5118
16444TIP3    H170823   1.236   1.615  15.415 -1.4890 -0.5684  0.7828
16444TIP3    H270824   1.350   1.516  15.404  0.6735  2.0644 -1.8132
16445TIP3   OH270825   3.188   0.656  13.859  0.0472 -0.2178 -0.2187
16445TIP3    H170826   3.174   0.698  13.944  0.6370 -0.3183 -0.0693
16445TIP3    H270827   3.120   0.694  13.803  0.3046  0.6316  0.0222
16446TIP3   OH270828   0.945   2.562   1.183 -0.2405 -0.3291  0.1381
16446TIP3    H170829   0.922   2.498   1.250  0.4063 -0.1637  0.5283
16446TIP3    H270830   1.039   2.549   1.169  0.0878  1.1067  0.8398
16447TIP3   OH270831   3.753   0.364  12.615 -0.0331  0.0248 -0.2131
16447TIP3    H170832   3.828   0.423  12.618 -1.5927  2.0610  0.4037
16447TIP3    H270833   3.769   0.302  12.686  1.0366  0.4520 -0.0547
16448TIP3   OH270834   5.591   5.057   4.822  0.0777  0.0171 -0.1902
16448TIP3    H170835   5.573   5.107   4.743 -2.0100  1.8896  1.3593
16448TIP3    H270836   5.574   4.966   4.797 -2.5545  0.7540 -1.4441
16449TIP3   OH270837   2.562   4.518   2.908 -0.2038  0.0646 -0.1699
16449TIP3    H170838   2.537   4.511   2.816 -0.3221 -1.2375 -0.0607
16449TIP3    H270839   2.483   4.547   2.952 -0.8710 -1.6219 -0.1714
16450TIP3   OH270840   6.524   2.920   4.213  0.4820  0.1936  0.0861
16450TIP3    H170841   6.604   2.961   4.245 -0.5909  1.2369  1.5349
16450TIP3    H270842   6.459   2.991   4.210 -0.4340 -0.6494 -0.9212
16451TIP3   OH270843   2.312   1.378  12.680  0.9210 -0.2022  0.6095
16451TIP3    H170844   2.302   1.352  12.588  2.8424 -0.8738  0.5349
16451TIP3    H270845   2.407   1.386  12.692  0.6225  2.1361  1.9538
16452TIP3   OH270846   4.147   6.014   0.661 -0.0475  0.2985 -0.0587
16452TIP3    H170847   4.165   5.932   0.708  0.2518 -0.6258 -1.7351
16452TIP3    H270848   4.145   5.989   0.569 -0.4254  2.1138 -0.5731
16453TIP3   OH270849   3.997   2.024   1.357 -0.3765  1.2072  0.2163
16453TIP3    H170850   3.995   1.994   1.266  1.4220 -0.5862  0.6854
16453TIP3    H270851   4.087   2.055   1.370 -0.6162  1.4704  1.3855
16454TIP3   OH270852   0.374   5.943   1.654 -0.2511  0.3576  0.0049
16454TIP3    H170853   0.407   5.942   1.564 -0.9348  1.0279 -0.2636
16454TIP3    H270854   0.452   5.956   1.708  0.5174 -2.3020 -0.2882
16455TIP3   OH270855   4.822   5.938  16.309  0.0641  0.0935 -0.2129
16455TIP3    H170856   4.737   5.948  16.353  1.1244 -2.2746  2.6825
16455TIP3    H270857   4.873   6.013  16.340 -0.5448  0.8253 -0.9444
16456TIP3   OH270858   2.215   6.077   4.141 -0.6127 -0.0839  0.1071
16456TIP3    H170859   2.300   6.099   4.103  0.2450  0.7599  2.3105
16456TIP3    H270860   2.187   5.998   4.094  2.4664 -1.7502  0.7701
16457TIP3   OH270861   3.279   6.011   0.043 -0.0287  0.2902 -0.1485
16457TIP3    H170862   3.366   5.972   0.059  0.0840 -0.5880 -2.5103
16457TIP3    H270863   3.237   5.951  -0.019 -2.1494  0.9764  0.5489
16458TIP3   OH270864   6.347   6.079   5.366  0.1927  0.5322  0.3127
16458TIP3    H170865   6.276   6.083   5.430  0.8977 -2.5310  1.5174
16458TIP3    H270866   6.305   6.092   5.281 -1.7127 -0.4262  1.0431
16459TIP3   OH270867   5.283   4.670   4.902 -0.1893 -0.1354  0.2705
16459TIP3    H170868   5.288   4.594   4.844  1.5043  0.0214  0.1508
16459TIP3    H270869   5.217   4.727   4.862 -0.3609 -0.8499 -0.4861
16460TIP3   OH270870   3.091   4.971   5.979 -0.3716 -0.4765 -0.2091
16460TIP3    H170871   2.998   4.956   5.968 -0.7215  1.0511  0.3806
16460TIP3    H270872   3.116   5.024   5.903 -0.6339  1.5098  1.0034
16461TIP3   OH270873   6.158   4.838  14.050 -0.0462  0.3018  0.1489
16461TIP3    H170874   6.191   4.754  14.020  0.1371  0.6716 -0.7073
16461TIP3    H270875   6.223   4.902  14.021 -0.5527  0.8202  0.1312
16462TIP3   OH270876   2.133   2.139   3.998  0.0481  0.0458  0.1958
16462TIP3    H170877   2.159   2.054   4.033  0.9875 -0.6308 -1.9245
16462TIP3    H270878   2.195   2.201   4.037  0.5141 -0.5263  0.3829
16463TIP3   OH270879   4.431   2.069  14.576  0.1903 -0.3761  0.2993
16463TIP3    H170880   4.360   2.009  14.552 -0.3725  0.8957 -1.3777
16463TIP3    H270881   4.421   2.079  14.671 -3.0699  1.1087 -0.0452
16464TIP3   OH270882   4.008   5.115  16.866 -0.3987  0.2213  0.3339
16464TIP3    H170883   4.081   5.092  16.924 -0.3675 -1.5175 -0.3178
16464TIP3    H270884   3.951   5.037  16.867  0.4608 -0.6494 -3.2483
16465TIP3   OH270885   4.425   5.597   4.203  0.9146 -0.0994  0.0050
16465TIP3    H170886   4.470   5.546   4.136  0.9225 -1.4097  0.9765
16465TIP3    H270887   4.340   5.618   4.164  0.5378 -1.6649 -0.0771
16466TIP3   OH270888   0.321   5.459   4.124  0.4091  0.4392  0.0959
16466TIP3    H170889   0.319   5.540   4.176 -1.4879  0.3518  0.2149
16466TIP3    H270890   0.235   5.419   4.139  0.9576 -1.1234 -0.7340
16467TIP3   OH270891   4.872   4.502   4.326  0.1996  0.2815  0.2254
16467TIP3    H170892   4.930   4.577   4.311  1.3829 -0.8892 -1.4295
16467TIP3    H270893   4.924   4.443   4.380  0.5069 -0.6560 -1.0422
16468TIP3   OH270894   4.760   3.670  11.877  0.1018  0.0724 -0.0962
16468TIP3    H170895   4.780   3.640  11.966  1.7729 -0.4713 -0.6180
16468TIP3    H270896   4.672   3.639  11.861  0.5489 -1.6902  0.6247
16469TIP3   OH270897   5.847   5.495  13.591  0.4432  0.4474 -0.1220
16469TIP3    H170898   5.856   5.587  13.566 -0.4919 -0.0482 -2.5078
16469TIP3    H270899   5.755   5.484  13.612  0.8172  0.3360  1.6448
16470TIP3   OH270900   1.643   4.368  13.472  0.3800 -0.2793 -0.2927
16470TIP3    H170901   1.709   4.299  13.479 -0.6693 -1.2000  0.7591
16470TIP3    H270902   1.581   4.350  13.542  0.0267  1.7005 -0.0267
16471TIP3   OH270903   0.818   1.623   4.562  0.4327  0.4615  0.0286
16471TIP3    H170904   0.756   1.560   4.598  0.9570 -0.8492 -1.2487
16471TIP3    H270905   0.885   1.632   4.631 -0.4030  0.7801  0.8209
16472TIP3   OH270906   1.664   5.240  10.901 -0.3687 -0.3704  0.4329
16472TIP3    H170907   1.591   5.279  10.853  0.3785  1.1107  0.4575
16472TIP3    H270908   1.627   5.217  10.986 -1.2152 -1.2080 -0.1475
16473TIP3   OH270909   0.138   1.148   4.327 -0.0257 -0.6051  0.0371
16473TIP3    H170910   0.068   1.083   4.322 -0.7373  0.2038 -0.9572
16473TIP3    H270911   0.120   1.195   4.408 -0.5687 -0.4885 -0.1437
16474TIP3   OH270912   6.299   4.639  16.828  0.3931  0.5584 -0.6111
16474TIP3    H170913   6.246   4.570  16.788  0.2360 -0.5224  1.3556
16474TIP3    H270914   6.336   4.687  16.754 -1.2225 -0.2939 -2.0227
16475TIP3   OH270915   4.144   1.360   3.083  0.2494  0.0380 -0.1018
16475TIP3    H170916   4.210   1.430   3.085  1.0239 -0.6773  0.1422
16475TIP3    H270917   4.071   1.396   3.133  0.8398  0.4819  0.4713
16476TIP3   OH270918   1.918   6.510   5.189 -0.0109  0.4788  0.7505
16476TIP3    H170919   1.867   6.551   5.118 -1.8906 -1.1697  1.0452
16476TIP3    H270920   1.864   6.524   5.267  0.1009 -1.0788  1.1338
16477TIP3   OH270921   3.400   3.923   3.643 -0.6389  0.3737 -0.4625
16477TIP3    H170922   3.474   3.895   3.697 -1.2673  0.0565  0.2518
16477TIP3    H270923   3.432   4.000   3.597  0.6823 -0.7369 -1.4607
16478TIP3   OH270924   3.173   5.899   4.292 -0.2735 -0.1093  0.0371
16478TIP3    H170925   3.160   5.994   4.296  0.0871  0.0220 -1.2914
16478TIP3    H270926   3.163   5.869   4.382  2.7850  1.6011  1.0913
16479TIP3   OH270927   0.624   3.201  11.271 -0.0388  0.4773 -0.0515
16479TIP3    H170928   0.616   3.293  11.245 -0.6045  1.0902  2.0723
16479TIP3    H270929   0.543   3.161  11.242  0.9202  0.1894 -2.5141
16480TIP3   OH270930   1.404   0.894   3.753 -0.0878 -0.2730  0.1778
16480TIP3    H170931   1.324   0.866   3.799  0.5218 -1.9519  0.3052
16480TIP3    H270932   1.382   0.980   3.717 -1.3459  0.1048  1.7160
16481TIP3   OH270933   3.651   5.624  16.911 -0.0170  0.2220  0.5045
16481TIP3    H170934   3.714   5.558  16.882 -0.7203  0.4108 -1.6277
16481TIP3    H270935   3.700   5.679  16.972  2.1273  0.7052 -1.5020
16482TIP3   OH270936   5.683   6.793  15.105  0.2063 -0.3584  0.1605
16482TIP3    H170937   5.691   6.886  15.127  1.2040 -0.5170  0.4809
16482TIP3    H270938   5.591   6.772  15.123  0.2476  0.2921  1.1553
16483TIP3   OH270939   1.266   5.550  11.154  0.0835  0.2767  0.2996
16483TIP3    H170940   1.324   5.613  11.112 -0.6808  0.8077  0.0345
16483TIP3    H270941   1.254   5.481  11.089 -1.5314  1.3575 -0.6047
16484TIP3   OH270942   5.287   2.988   1.012 -0.1325  0.4412 -0.2840
16484TIP3    H170943   5.303   2.898   1.042 -0.8437  0.7059  1.0044
16484TIP3    H270944   5.233   2.978   0.934 -0.7302 -0.2683  0.1961
16485TIP3   OH270945   6.223   5.105   3.038  0.1218  0.4700 -0.0278
16485TIP3    H170946   6.314   5.102   3.010  0.1467 -0.6392  0.1219
16485TIP3    H270947   6.225   5.074   3.129 -0.5531 -0.9119 -0.4650
16486TIP3   OH270948   0.753   5.673  14.399 -0.1326 -0.0717  0.5686
16486TIP3    H170949   0.780   5.736  14.331  1.1080 -1.4752 -0.2960
16486TIP3    H270950   0.665   5.647  14.373 -0.0373  0.1192  0.0345
16487TIP3   OH270951   1.726   0.606  15.806  0.6742  0.2323 -0.0712
16487TIP3    H170952   1.664   0.544  15.767 -1.3507  1.6776  0.6358
16487TIP3    H270953   1.803   0.554  15.827 -0.9045 -2.0570  0.4450
16488TIP3   OH270954   0.817   0.147   5.590  0.3320  0.0588 -0.1793
16488TIP3    H170955   0.901   0.191   5.579  0.4683 -0.5164 -1.7809
16488TIP3    H270956   0.752   0.214   5.567  0.3796  0.3280  0.4677
16489TIP3   OH270957   0.745   5.212   1.478 -0.3309  0.2844 -0.0668
16489TIP3    H170958   0.782   5.299   1.495  2.4349 -0.6070 -0.8492
16489TIP3    H270959   0.786   5.156   1.544 -0.7281 -0.7235 -0.6618
16490TIP3   OH270960   3.068   3.678   3.111  0.5822 -0.8101  0.2772
16490TIP3    H170961   3.068   3.706   3.020  1.6309  2.1264  1.0696
16490TIP3    H270962   3.155   3.703   3.144 -0.8992  1.4180  2.9118
16491TIP3   OH270963   0.633   1.979  10.203 -0.4522  0.4085  0.4846
16491TIP3    H170964   0.613   1.887  10.189  1.3453  0.1916 -1.1761
16491TIP3    H270965   0.633   1.990  10.298 -0.8172 -1.2677  0.7062
16492TIP3   OH270966   6.683   5.132   5.299 -0.2006 -0.1181  0.6888
16492TIP3    H170967   6.591   5.116   5.278 -0.7464  0.2710  2.6038
16492TIP3    H270968   6.710   5.057   5.351  1.1532 -1.1354 -1.3445
16493TIP3   OH270969   4.606   6.262  14.078  0.1959 -0.3842 -0.0321
16493TIP3    H170970   4.544   6.334  14.067 -1.4904 -1.6327  0.8967
16493TIP3    H270971   4.663   6.290  14.149 -0.8859 -0.2329  0.7995
16494TIP3   OH270972   6.825   1.713   4.396  0.2634  0.3918 -0.1051
16494TIP3    H170973   6.895   1.767   4.359  0.7879  0.7642  1.3833
16494TIP3    H270974   6.756   1.715   4.329  1.5208  0.2944 -1.4447
16495TIP3   OH270975   0.841   3.987  16.246 -0.7634  0.2336  0.4436
16495TIP3    H170976   0.812   4.067  16.290 -0.4979  0.8019 -0.3920
16495TIP3    H270977   0.900   4.017  16.177 -1.2461 -0.6334 -0.3700
16496TIP3   OH270978   5.272   5.425   4.069 -0.0107 -0.2471  0.0426
16496TIP3    H170979   5.295   5.336   4.093 -0.3124 -0.0660  1.0766
16496TIP3    H270980   5.274   5.426   3.974 -0.4939 -1.4874  0.0056
16497TIP3   OH270981   2.667   3.198   1.158  0.5899 -0.0150  0.5010
16497TIP3    H170982   2.678   3.103   1.164  0.1230 -0.1748 -0.8939
16497TIP3    H270983   2.582   3.215   1.198 -0.6715 -0.5788 -1.7434
16498TIP3   OH270984   6.822   1.644   1.813 -0.1788  0.0098 -0.1401
16498TIP3    H170985   6.856   1.577   1.873  0.5577 -0.0445 -0.6037
16498TIP3    H270986   6.775   1.594   1.747 -2.7130  0.1738  1.4081
16499TIP3   OH270987   1.196   1.047   5.618  0.0588 -0.5685 -0.2867
16499TIP3    H170988   1.225   1.071   5.706  2.9125  0.2682 -1.3484
16499TIP3    H270989   1.101   1.056   5.621 -0.0727 -1.5942  2.9786
16500TIP3   OH270990   5.536   4.504   2.581  0.3612 -0.6511 -0.0867
16500TIP3    H170991   5.595   4.548   2.641  0.0003 -0.2238 -0.0374
16500TIP3    H270992   5.591   4.475   2.509  1.0877 -2.5450  1.1475
16501TIP3   OH270993   2.896   4.809  12.092 -0.2642 -0.0852 -0.7319
16501TIP3    H170994   2.833   4.748  12.131  0.4352 -1.0600 -1.0828
16501TIP3    H270995   2.844   4.860  12.030 -0.9220 -0.0977 -0.2081
16502TIP3   OH270996   2.108   3.889   4.861 -0.3677  0.1486  0.0068
16502TIP3    H170997   2.086   3.909   4.952  0.0557  1.3722 -0.1482
16502TIP3    H270998   2.099   3.794   4.854 -0.7059  0.0845  1.2435
16503TIP3   OH270999   4.542   2.710   4.112  0.1214 -0.4265 -0.7731
16503TIP3    H171000   4.622   2.674   4.076  0.9225 -0.8600  1.2788
16503TIP3    H271001   4.550   2.697   4.207 -1.0629  2.0913 -0.2184
16504TIP3   OH271002   2.636   4.043   3.561  0.4492 -0.0023  0.6083
16504TIP3    H171003   2.569   3.974   3.563  0.5997 -0.1441  0.7296
16504TIP3    H271004   2.603   4.105   3.497  0.7193 -0.5964 -0.1164
16505TIP3   OH271005   3.943   2.212   5.820  0.0884  0.5422  0.1717
16505TIP3    H171006   3.931   2.227   5.914  1.4439 -1.1547  0.6547
16505TIP3    H271007   3.857   2.233   5.782 -0.5314  1.1246  1.7795
16506TIP3   OH271008   5.412   5.089   3.268 -0.3235 -0.0630 -0.4441
16506TIP3    H171009   5.418   5.013   3.211 -1.8063 -0.8347  0.3578
16506TIP3    H271010   5.401   5.163   3.207  1.0195 -0.4701 -1.2241
16507TIP3   OH271011   6.696   6.200  13.454  0.0762 -0.9485  0.0210
16507TIP3    H171012   6.717   6.158  13.371 -0.1285 -1.5085  0.2448
16507TIP3    H271013   6.758   6.162  13.517 -0.5404 -1.4184  0.3587
16508TIP3   OH271014   3.877   1.227   0.940  0.5794  0.6239  0.4307
16508TIP3    H171015   3.872   1.150   0.996  0.4354  0.0188 -0.3832
16508TIP3    H271016   3.848   1.300   0.995  1.6602  0.2677  1.5026
16509TIP3   OH271017   4.471   1.952  13.520 -0.3408  0.1458 -0.3116
16509TIP3    H171018   4.438   1.962  13.610 -1.0772 -0.4198 -0.5023
16509TIP3    H271019   4.555   1.998  13.519 -1.3672  2.1233  0.0670
16510TIP3   OH271020   5.644   5.235  14.548  0.7076  0.0830 -0.4700
16510TIP3    H171021   5.647   5.242  14.453  2.4194  0.5178 -0.4212
16510TIP3    H271022   5.735   5.246  14.576  0.1894  0.3588  1.2452
16511TIP3   OH271023   5.844   4.734   5.285 -0.1945 -0.1154 -0.2978
16511TIP3    H171024   5.852   4.645   5.252 -1.6153 -1.0374  1.6380
16511TIP3    H271025   5.930   4.753   5.324 -0.4881 -1.4306  1.0497
16512TIP3   OH271026   1.100   1.152  12.580 -0.1195 -0.0651  0.4527
16512TIP3    H171027   1.048   1.226  12.612  1.3318  0.8663  0.7742
16512TIP3    H271028   1.124   1.103  12.658  0.8151  0.4427  0.5046
16513TIP3   OH271029   1.497   6.081   4.837  0.3877 -0.2345  0.1349
16513TIP3    H171030   1.409   6.058   4.870 -0.7703  0.0557 -2.5311
16513TIP3    H271031   1.554   6.015   4.876 -1.4973 -2.3334 -0.4353
16514TIP3   OH271032   0.584   3.458  10.857  0.1827 -0.6887 -0.0480
16514TIP3    H171033   0.535   3.539  10.848 -0.5670 -1.1836 -0.5695
16514TIP3    H271034   0.640   3.455  10.780  1.7477  0.3175  0.9934
16515TIP3   OH271035   5.703   1.024   4.645  0.4384  0.1662 -0.5882
16515TIP3    H171036   5.675   1.096   4.701  0.3580 -0.0097 -0.4043
16515TIP3    H271037   5.696   0.946   4.700  0.1970 -0.0301 -0.8899
16516TIP3   OH271038   1.498   2.860  11.027  0.0150 -0.4617  0.4961
16516TIP3    H171039   1.484   2.772  11.063  0.6053 -1.6617 -1.9686
16516TIP3    H271040   1.458   2.857  10.940  2.7969  0.6175 -0.9571
16517TIP3   OH271041   1.126   4.042  16.443  0.3604 -0.0745 -0.0030
16517TIP3    H171042   1.188   4.050  16.515  0.2481  0.1702  0.0659
16517TIP3    H271043   1.114   4.131  16.410  0.6055 -0.2165 -0.4891
16518TIP3   OH271044   3.491   4.057   3.137 -0.3044  0.9490  0.3351
16518TIP3    H171045   3.400   4.081   3.120  0.0851  1.1767 -1.7129
16518TIP3    H271046   3.541   4.134   3.111  0.5572  0.3205  0.0848
16519TIP3   OH271047   0.499   0.729   3.621  0.3720  0.1036 -0.0142
16519TIP3    H171048   0.413   0.730   3.662  1.4216  0.1870  2.3493
16519TIP3    H271049   0.524   0.821   3.613 -0.0661  0.1230 -1.5063
16520TIP3   OH271050   5.626   6.310  13.817 -0.0842  0.0691  0.1708
16520TIP3    H171051   5.627   6.347  13.906 -1.4223 -0.6909  0.5242
16520TIP3    H271052   5.687   6.366  13.768  0.1878  0.9058  1.4000
16521TIP3   OH271053   0.550   4.527   3.227  0.0177 -0.4468  0.1008
16521TIP3    H171054   0.553   4.519   3.322 -0.0391 -3.4324 -0.0628
16521TIP3    H271055   0.473   4.477   3.201  0.5324 -0.4455 -1.5565
16522TIP3   OH271056   5.302   0.942  11.635 -0.1754 -0.3953 -0.3416
16522TIP3    H171057   5.282   0.948  11.729 -0.9383 -0.8664 -0.4658
16522TIP3    H271058   5.236   0.881  11.601  0.1317 -0.2629 -1.1748
16523TIP3   OH271059   3.272   2.163   6.646 -0.4962 -0.4312 -0.5027
16523TIP3    H171060   3.264   2.213   6.727 -2.8040 -1.7043  0.1605
16523TIP3    H271061   3.277   2.228   6.577 -1.4537  0.7160  0.4692
16524TIP3   OH271062   4.669   1.834  14.351 -0.0793 -1.0475  0.2253
16524TIP3    H171063   4.741   1.864  14.406 -1.5385  3.4417  0.1031
16524TIP3    H271064   4.708   1.768  14.295  3.8725  0.7571  0.4730
16525TIP3   OH271065   5.444   6.625  11.022  0.3902  0.3833  0.1690
16525TIP3    H171066   5.412   6.624  10.932 -1.2259  2.2259  0.6591
16525TIP3    H271067   5.421   6.539  11.057  0.1814 -0.0055 -0.8922
16526TIP3   OH271068   4.433   2.996  15.981  0.0338  0.9459 -0.6567
16526TIP3    H171069   4.434   2.905  15.952 -0.4418  0.8978 -0.5303
16526TIP3    H271070   4.525   3.022  15.984  0.2309  0.1882  0.2063
16527TIP3   OH271071   4.925   4.750   0.040  0.2772 -0.0648  0.2944
16527TIP3    H171072   4.973   4.833   0.036 -0.9027  0.6731  0.7677
16527TIP3    H271073   4.949   4.713   0.125  3.7659 -2.1566 -1.3606
16528TIP3   OH271074   4.236   0.999  12.031 -0.5449 -0.1036 -0.3084
16528TIP3    H171075   4.322   1.036  12.012 -0.2969 -0.0954  0.7643
16528TIP3    H271076   4.253   0.905  12.044 -0.6942 -0.0911 -0.0274
16529TIP3   OH271077   1.965   3.406   1.613  0.5354  0.0305 -0.3389
16529TIP3    H171078   1.904   3.335   1.632 -0.0348  0.7567  0.6046
16529TIP3    H271079   1.909   3.482   1.594  1.1270  0.6278  0.2315
16530TIP3   OH271080   2.385   4.696  14.859 -0.2139  0.5499  0.1911
16530TIP3    H171081   2.323   4.639  14.813 -0.5693 -0.7266  2.1249
16530TIP3    H271082   2.347   4.707  14.946  3.2206 -2.1018  2.2507
16531TIP3   OH271083   3.695   1.401  13.907 -0.6153  0.0353 -0.7258
16531TIP3    H171084   3.656   1.418  13.821  1.2594  0.3307 -1.5584
16531TIP3    H271085   3.717   1.488  13.940 -0.9188 -0.1085 -0.1336
16532TIP3   OH271086   0.240   4.293   2.698  0.2006 -0.2126 -0.1653
16532TIP3    H171087   0.218   4.273   2.789  1.3207 -2.1564 -0.2557
16532TIP3    H271088   0.156   4.300   2.654 -0.3378 -0.3354  0.8200
16533TIP3   OH271089   6.068   1.532   3.785 -0.2799  0.7384  0.0277
16533TIP3    H171090   6.046   1.498   3.872  0.8750 -1.1238 -0.3595
16533TIP3    H271091   6.085   1.625   3.800  0.5815  0.3187  1.9307
16534TIP3   OH271092   6.075   0.092   2.865  0.2393  0.1321  0.0001
16534TIP3    H171093   6.136   0.020   2.853 -0.0049 -0.3257  1.3011
16534TIP3    H271094   6.087   0.118   2.957 -0.3200  1.1547 -0.1954
16535TIP3   OH271095   2.690   0.748   1.039 -0.3446  0.0444 -0.0541
16535TIP3    H171096   2.755   0.818   1.052 -1.4618  1.0917  0.0832
16535TIP3    H271097   2.737   0.667   1.059  1.4824  0.5744 -1.8242
16536TIP3   OH271098   4.716   2.040  12.164 -0.2179  0.0272 -0.3927
16536TIP3    H171099   4.726   2.135  12.173  0.8060 -0.1874  1.0958
16536TIP3    H271100   4.741   2.005  12.249 -0.4154 -1.5988 -0.9686
16537TIP3   OH271101   3.538   3.591   2.881 -0.5086  0.7652  0.2164
16537TIP3    H171102   3.454   3.636   2.888 -1.5493 -0.8139 -1.1450
16537TIP3    H271103   3.551   3.550   2.966  0.4981  3.5221  1.5101
16538TIP3   OH271104   1.666   5.118   3.591  0.2587  0.4171  0.0087
16538TIP3    H171105   1.646   5.079   3.505  0.1838 -2.0301  1.0476
16538TIP3    H271106   1.753   5.155   3.581  0.4424 -0.2405 -1.0247
16539TIP3   OH271107   4.633   0.917   1.069  0.0446  0.2526 -1.1426
16539TIP3    H171108   4.689   0.888   0.996 -0.3282  0.9495 -1.7167
16539TIP3    H271109   4.556   0.860   1.064  0.8745 -1.0376 -0.0539
16540TIP3   OH271110   1.915   2.179   5.721 -0.2485 -0.1184 -0.3374
16540TIP3    H171111   1.911   2.093   5.763 -0.3103 -0.6711 -1.4304
16540TIP3    H271112   1.984   2.225   5.768 -2.0245  0.2710  2.0833
16541TIP3   OH271113   3.019   2.232   2.314  0.3030  0.6033  0.1202
16541TIP3    H171114   2.982   2.145   2.329 -2.0568  1.5128 -0.1340
16541TIP3    H271115   3.114   2.219   2.324 -0.0692 -1.7164  1.3476
16542TIP3   OH271116   6.596   3.825   5.062 -0.2932  0.6743  0.1900
16542TIP3    H171117   6.656   3.840   4.990 -1.8580  1.0527 -1.1020
16542TIP3    H271118   6.639   3.759   5.116  0.5553 -0.2807 -1.5638
16543TIP3   OH271119   1.218   5.904   3.108  0.5440  0.3165 -0.4431
16543TIP3    H171120   1.304   5.870   3.083  0.5122  0.4488 -0.7433
16543TIP3    H271121   1.159   5.870   3.041  0.0622 -1.1717  0.6929
16544TIP3   OH271122   1.379   5.888  16.527  0.0747 -0.1045 -0.1834
16544TIP3    H171123   1.414   5.952  16.464 -2.0032  2.5138  1.1345
16544TIP3    H271124   1.342   5.819  16.472 -0.0370  1.1647 -1.7985
16545TIP3   OH271125   2.817   6.798   2.231 -0.2170  0.0402  0.9157
16545TIP3    H171126   2.767   6.879   2.223  0.9204  0.7376  0.6312
16545TIP3    H271127   2.870   6.795   2.151 -0.9057 -1.4615  0.4849
16546TIP3   OH271128   3.038   0.718   0.980  0.1382 -0.2191 -0.3770
16546TIP3    H171129   3.022   0.652   0.913  3.8441  0.3128 -2.0668
16546TIP3    H271130   3.043   0.669   1.062 -0.1901 -1.5793 -1.1444
16547TIP3   OH271131   3.459   6.237  14.724 -0.4186  0.1798 -0.3486
16547TIP3    H171132   3.412   6.275  14.649 -0.5763 -0.3184 -0.5042
16547TIP3    H271133   3.529   6.185  14.685  1.4512  2.3478 -0.0990
16548TIP3   OH271134   2.753   3.592  13.094 -0.0105  0.2522 -0.5914
16548TIP3    H171135   2.746   3.651  13.018  0.2476  0.2895 -0.5886
16548TIP3    H271136   2.692   3.628  13.158  0.1121  0.4944 -0.6062
16549TIP3   OH271137   1.312   4.631   6.128 -0.3907  0.1524  0.2280
16549TIP3    H171138   1.349   4.544   6.137 -0.8380 -0.1154 -0.4760
16549TIP3    H271139   1.385   4.685   6.095  0.7155  0.7196  3.2738
16550TIP3   OH271140   1.917   1.880   4.866  0.3771 -0.1020 -0.3250
16550TIP3    H171141   1.837   1.835   4.895 -0.1578  1.2375  0.3524
16550TIP3    H271142   1.886   1.964   4.833  1.3921 -0.0890 -1.3007
16551TIP3   OH271143   6.782   2.423   2.130 -0.0474  0.2011  0.3710
16551TIP3    H171144   6.812   2.496   2.185  0.9224 -0.6809  1.0616
16551TIP3    H271145   6.732   2.367   2.190 -0.3712  0.0471 -0.0382
16552TIP3   OH271146   6.678   0.132  12.191 -0.2312  0.3535 -0.6319
16552TIP3    H171147   6.760   0.083  12.185  0.6818  1.4650  1.5277
16552TIP3    H271148   6.646   0.136  12.101  2.4079  0.4168 -1.6750
16553TIP3   OH271149   3.317   2.976  11.943  0.4545 -0.4287 -0.1798
16553TIP3    H171150   3.237   2.974  11.996  0.1880 -2.0181 -0.6125
16553TIP3    H271151   3.366   2.899  11.970  1.8211  0.4692 -0.0040
16554TIP3   OH271152   6.581   3.792   4.202 -0.6990 -0.2120 -0.8947
16554TIP3    H171153   6.530   3.761   4.276 -1.6585 -0.0650 -1.4828
16554TIP3    H271154   6.581   3.719   4.139 -0.6825  0.0000 -1.1460
16555TIP3   OH271155   4.135   2.015  16.580 -0.1539  0.2757  0.2728
16555TIP3    H171156   4.217   1.967  16.565 -0.6839 -0.1909 -1.3280
16555TIP3    H271157   4.082   1.955  16.632 -0.8554 -1.0024 -1.8057
16556TIP3   OH271158   0.350   0.808   1.935 -0.5971 -0.2818 -0.2577
16556TIP3    H171159   0.442   0.803   1.912 -0.7707  0.7390 -1.2522
16556TIP3    H271160   0.343   0.759   2.017  1.0260  0.6058  0.4573
16557TIP3   OH271161   2.753   3.733   4.266 -0.1928  0.1323 -0.5746
16557TIP3    H171162   2.847   3.720   4.256 -0.4021 -0.2815 -2.4200
16557TIP3    H271163   2.741   3.827   4.256 -0.0459  0.0844 -1.2849
16558TIP3   OH271164   2.508   5.265   2.004  0.7705  0.5265  0.1064
16558TIP3    H171165   2.502   5.361   1.998  2.6592  0.6922  0.2845
16558TIP3    H271166   2.471   5.245   2.090  1.6183  1.2521  0.6587
16559TIP3   OH271167   3.801   6.385   3.875  0.3646 -0.2352  0.1674
16559TIP3    H171168   3.727   6.393   3.815  0.6750 -2.3893 -0.6210
16559TIP3    H271169   3.860   6.322   3.832  0.6228 -1.8615  2.6870
16560TIP3   OH271170   3.785   4.045   2.580  0.1428  0.4055 -0.4540
16560TIP3    H171171   3.855   3.985   2.604 -0.5180 -0.3531 -0.4017
16560TIP3    H271172   3.711   4.020   2.635 -0.5268  0.4565 -1.3079
16561TIP3   OH271173   5.740   0.297   2.527  0.1709  0.0286 -0.2017
16561TIP3    H171174   5.717   0.370   2.584 -1.2212  0.3204 -1.0842
16561TIP3    H271175   5.792   0.335   2.457  1.6346 -0.2841  0.6633
16562TIP3   OH271176   2.133   5.074  14.299  0.0083  0.2353 -0.5853
16562TIP3    H171177   2.161   5.159  14.334 -2.0240  0.7527 -0.1000
16562TIP3    H271178   2.103   5.025  14.375  0.7055 -0.7749 -0.9294
16563TIP3   OH271179   2.747   2.631   1.351  0.7424 -0.2886 -1.0867
16563TIP3    H171180   2.657   2.597   1.353  0.9421 -0.9666 -2.2995
16563TIP3    H271181   2.784   2.606   1.435 -0.8553  1.9519  0.3935
16564TIP3   OH271182   4.520   1.189   0.245  0.2698  0.4444 -0.3044
16564TIP3    H171183   4.458   1.258   0.272  1.5543  1.8649 -0.8415
16564TIP3    H271184   4.478   1.149   0.168 -1.1377 -0.3606  0.8336
16565TIP3   OH271185   1.343   4.466   2.352  0.0688  0.3380  0.1877
16565TIP3    H171186   1.403   4.524   2.305  1.2086 -1.0986 -0.2224
16565TIP3    H271187   1.343   4.500   2.442  0.8491  0.8646  0.0037
16566TIP3   OH271188   6.513   5.441   0.697  0.2554  0.5160 -0.3506
16566TIP3    H171189   6.481   5.420   0.609  0.6540  0.8268 -0.5774
16566TIP3    H271190   6.549   5.530   0.689  1.1906  0.1717 -0.1230
16567TIP3   OH271191   3.296   2.238  13.931  0.6548  0.4588 -0.4530
16567TIP3    H171192   3.231   2.282  13.878  1.5277 -0.4363 -2.3610
16567TIP3    H271193   3.246   2.180  13.989 -0.2697  0.4507 -1.2469
16568TIP3   OH271194   1.482   6.304  15.041  0.0372  0.0517  0.5898
16568TIP3    H171195   1.559   6.272  14.993 -0.9486  0.3045 -1.2596
16568TIP3    H271196   1.419   6.326  14.973 -1.4253  0.5414  2.0357
16569TIP3   OH271197   1.739   1.246  13.576 -0.2881  0.3882  0.2744
16569TIP3    H171198   1.671   1.233  13.510 -0.8033  0.1635  0.8383
16569TIP3    H271199   1.718   1.183  13.645  0.5118  0.2965  0.4479
16570TIP3   OH271200   2.400   4.165   5.251  0.0152  0.5203 -0.1201
16570TIP3    H171201   2.335   4.107   5.290 -1.4459  1.5632 -0.9011
16570TIP3    H271202   2.440   4.211   5.325 -0.4113  0.1596  0.3392
16571TIP3   OH271203   5.800   1.930   3.500 -0.5275  0.2135  0.0929
16571TIP3    H171204   5.892   1.931   3.528 -0.0484  0.8693 -1.3569
16571TIP3    H271205   5.796   1.999   3.434 -2.3267  0.9081  0.8744
16572TIP3   OH271206   1.600   4.994   5.091 -1.1007  0.2633 -1.0260
16572TIP3    H171207   1.523   5.033   5.132 -0.0714  0.8578  0.3908
16572TIP3    H271208   1.578   4.901   5.084 -1.7486  0.3415 -0.1962
16573TIP3   OH271209   1.535   4.836   1.251  0.7183  0.1260 -0.1234
16573TIP3    H171210   1.468   4.790   1.199  0.2386 -0.9074  1.3477
16573TIP3    H271211   1.599   4.768   1.272  2.0531  1.0178 -1.1563
16574TIP3   OH271212   5.384   4.068   2.985 -0.2460 -0.7938  0.2677
16574TIP3    H171213   5.352   4.142   3.038  1.0228 -0.3342  0.4170
16574TIP3    H271214   5.320   4.060   2.915 -1.7297 -1.1328  1.5967
16575TIP3   OH271215   3.858   6.424   1.659  0.7603 -0.4004  0.3620
16575TIP3    H171216   3.840   6.473   1.579 -2.7313 -1.6268  0.2306
16575TIP3    H271217   3.850   6.488   1.730 -1.2954 -0.2120  0.0152
16576TIP3   OH271218   0.825   0.146   0.942 -0.8206 -0.4493  0.0966
16576TIP3    H171219   0.836   0.123   1.034  1.4168  2.1577  0.6305
16576TIP3    H271220   0.747   0.202   0.940 -1.0496 -0.7547  0.3328
16577TIP3   OH271221   4.270   3.087   0.833 -0.1911  0.0433 -0.1827
16577TIP3    H171222   4.308   3.050   0.753 -0.8192  0.6065 -0.7509
16577TIP3    H271223   4.317   3.170   0.846 -0.6134  0.3222 -0.4032
16578TIP3   OH271224   1.074   6.134   0.674 -0.4484 -0.0044 -0.2890
16578TIP3    H171225   1.148   6.129   0.614  0.4446 -0.7853  0.8393
16578TIP3    H271226   1.085   6.218   0.719 -2.2422  1.5821 -2.5370
16579TIP3   OH271227   0.771   4.122  15.234  0.3416 -0.3590 -0.6843
16579TIP3    H171228   0.804   4.124  15.323 -0.3784 -2.6240 -0.3071
16579TIP3    H271229   0.716   4.200  15.227 -0.4811 -0.7254  1.2150
16580TIP3   OH271230   5.390   5.395   2.464 -0.0490 -0.0268 -0.5960
16580TIP3    H171231   5.434   5.475   2.436  2.4604 -0.3191  2.0781
16580TIP3    H271232   5.340   5.421   2.542  1.1253 -1.0569  0.5521
16581TIP3   OH271233   0.195   0.491  14.312  0.1390  0.1323  0.0955
16581TIP3    H171234   0.236   0.407  14.331 -1.3770 -0.3818  1.3246
16581TIP3    H271235   0.204   0.541  14.394  0.0543  0.7454 -0.2646
16582TIP3   OH271236   5.232   6.430   2.985  0.1921  0.0406  0.3567
16582TIP3    H171237   5.197   6.372   2.917  0.7167  0.1807 -0.0368
16582TIP3    H271238   5.221   6.380   3.066  0.0311 -0.3351  0.1066
16583TIP3   OH271239   1.167   4.820  15.521  0.0648 -0.1332  0.4437
16583TIP3    H171240   1.235   4.826  15.588  1.6209  3.3466 -1.2200
16583TIP3    H271241   1.213   4.792  15.442 -0.7577  0.5980 -0.3111
16584TIP3   OH271242   2.624   1.708   1.164 -0.3306 -0.0771 -0.4825
16584TIP3    H171243   2.662   1.705   1.076  1.2493  0.8350  0.1294
16584TIP3    H271244   2.700   1.712   1.223 -1.3319  2.7050  0.7599
16585TIP3   OH271245   4.586   4.941  16.333  0.3559  0.4668 -0.3240
16585TIP3    H171246   4.588   4.866  16.393  2.2267 -0.1994 -1.1521
16585TIP3    H271247   4.510   4.992  16.361 -1.3905 -2.0705 -0.1610
16586TIP3   OH271248   0.471   5.701   0.345  0.0675  0.5101 -0.2816
16586TIP3    H171249   0.416   5.679   0.270  0.2537 -0.4186 -0.1623
16586TIP3    H271250   0.530   5.625   0.354  0.2800  0.7688  0.5822
16587TIP3   OH271251   6.722   0.455   1.466 -0.3611 -0.1593 -0.0436
16587TIP3    H171252   6.744   0.403   1.389  0.3861  1.1500 -0.7273
16587TIP3    H271253   6.718   0.545   1.435 -1.5973  0.2241  1.1395
16588TIP3   OH271254   2.168   5.015   5.125 -0.5443  0.5361 -0.2548
16588TIP3    H171255   2.104   5.049   5.187 -0.6644  0.0796 -0.1262
16588TIP3    H271256   2.164   5.076   5.051  0.8047  2.0564  0.8620
16589TIP3   OH271257   6.633   1.775  11.606  0.1927 -0.3554 -0.1446
16589TIP3    H171258   6.693   1.701  11.600 -0.7193 -1.1888  0.8333
16589TIP3    H271259   6.608   1.779  11.698  0.4083  1.3305 -0.1273
16590TIP3   OH271260   4.449   0.832   3.774  0.1200 -0.3963 -0.3144
16590TIP3    H171261   4.377   0.820   3.836  1.0778  0.3739  1.0011
16590TIP3    H271262   4.440   0.922   3.744 -0.5386 -0.8616 -1.6136
16591TIP3   OH271263   3.987   3.563   4.380 -0.7260 -0.0616  0.4527
16591TIP3    H171264   4.030   3.535   4.460 -1.0550  0.4154  0.8000
16591TIP3    H271265   4.057   3.602   4.327 -0.6100  0.1126  0.7355
16592TIP3   OH271266   0.839   1.076   0.264  0.0026  0.2836  0.2059
16592TIP3    H171267   0.759   1.037   0.228 -0.4365  1.8145 -0.5582
16592TIP3    H271268   0.856   1.027   0.344 -1.1079 -0.7565 -0.1719
16593TIP3   OH271269   1.938   4.507   0.753  0.1458  0.4898  0.5012
16593TIP3    H171270   2.011   4.556   0.791  1.0565 -0.3983 -0.0393
16593TIP3    H271271   1.917   4.441   0.818  0.5796  0.0360  0.1846
16594TIP3   OH271272   2.756   3.440   1.257 -0.0942  0.3689  0.8978
16594TIP3    H171273   2.720   3.365   1.210  0.5173  1.3195 -1.2271
16594TIP3    H271274   2.833   3.406   1.301 -0.3099 -0.4246  0.6825
16595TIP3   OH271275   6.365   3.430   5.372 -0.2498  0.2824  0.1344
16595TIP3    H171276   6.329   3.343   5.386 -1.0019  0.6997  0.8758
16595TIP3    H271277   6.288   3.487   5.370  0.0868  0.7516 -1.9213
16596TIP3   OH271278   3.844   3.918   6.556  0.2770  0.1464  0.2050
16596TIP3    H171279   3.824   3.826   6.575  0.8517 -0.0759 -0.2360
16596TIP3    H271280   3.909   3.914   6.486 -0.2855  0.9043 -0.3744
16597TIP3   OH271281   2.214   2.110   5.918 -0.2937 -0.7252 -0.3004
16597TIP3    H171282   2.270   2.037   5.892  0.2817 -1.0638  1.6954
16597TIP3    H271283   2.204   2.100   6.013  0.7769  2.4194  0.2613
16598TIP3   OH271284   4.020   6.136  16.875  1.0104  0.5030  0.0867
16598TIP3    H171285   4.023   6.083  16.954  1.1069 -0.0060 -0.2488
16598TIP3    H271286   4.076   6.211  16.894  1.7066 -0.0371  0.2070
16599TIP3   OH271287   6.506   5.833  15.655  0.1112 -0.0172 -0.4316
16599TIP3    H171288   6.562   5.840  15.733 -1.1246  1.4592  0.3856
16599TIP3    H271289   6.442   5.765  15.677 -0.1294  0.2759 -0.2124
16600TIP3   OH271290   6.581   2.651   4.182  0.3281 -0.0863  0.0316
16600TIP3    H171291   6.565   2.746   4.177 -1.2474 -0.3507 -0.3005
16600TIP3    H271292   6.616   2.638   4.270 -0.1444  0.7155  0.3579
16601TIP3   OH271293   5.531   6.183  12.941  0.2618  0.1331 -0.1182
16601TIP3    H171294   5.475   6.179  12.864  1.2575  0.6802 -0.8863
16601TIP3    H271295   5.541   6.092  12.969 -1.2276  0.0474  0.2111
16602TIP3   OH271296   2.444   1.919   0.937 -0.2354 -0.4301 -0.4205
16602TIP3    H171297   2.383   1.863   0.985 -0.3587  0.2529  0.2340
16602TIP3    H271298   2.528   1.873   0.944 -0.3998 -0.7024 -0.1897
16603TIP3   OH271299   3.602   2.054   2.793 -0.0411  0.0425 -0.0603
16603TIP3    H171300   3.692   2.042   2.824 -0.6872 -0.7453  1.6337
16603TIP3    H271301   3.569   1.965   2.782 -1.4777  0.2429  2.0788
16604TIP3   OH271302   5.966   4.607   5.729 -0.3073  0.0196  0.5893
16604TIP3    H171303   5.980   4.679   5.667 -1.7927 -0.9841 -1.0177
16604TIP3    H271304   5.915   4.543   5.680 -0.6970 -1.2901  2.5787
16605TIP3   OH271305   4.174   5.169  14.754  0.4153 -0.9884 -0.3469
16605TIP3    H171306   4.236   5.235  14.783 -0.5253 -0.4960  0.6306
16605TIP3    H271307   4.143   5.199  14.669 -0.7971  0.4344  0.5501
16606TIP3   OH271308   2.990   0.585   4.405 -0.4039  0.2851  0.0561
16606TIP3    H171309   2.969   0.538   4.324 -0.9991  0.9728 -0.2084
16606TIP3    H271310   3.061   0.644   4.381 -0.1261  0.0110  0.2079
16607TIP3   OH271311   4.480   5.619   6.792  0.2182  0.2578 -0.3669
16607TIP3    H171312   4.543   5.689   6.808  1.4763 -0.9059 -0.0521
16607TIP3    H271313   4.404   5.663   6.755  0.8926  1.8104  0.0348
16608TIP3   OH271314   5.202   1.896   5.475 -0.8797 -0.4574  0.6527
16608TIP3    H171315   5.113   1.927   5.457 -0.6803 -0.2961 -0.1357
16608TIP3    H271316   5.213   1.905   5.569 -1.5935 -0.1856  0.7127
16609TIP3   OH271317   1.188   6.459   0.122 -0.1679 -0.4994 -0.1540
16609TIP3    H171318   1.275   6.422   0.135  0.8238  1.0274 -1.9563
16609TIP3    H271319   1.177   6.461   0.027 -1.3757  1.0675 -0.0162
16610TIP3   OH271320   3.170   4.265  11.738  0.3366  0.4548 -0.7920
16610TIP3    H171321   3.102   4.331  11.746  1.0829  1.1397  0.0549
16610TIP3    H271322   3.218   4.288  11.658  0.9703  1.3093 -0.1778
16611TIP3   OH271323   3.260   3.824  10.606  0.0157 -0.0500 -0.0584
16611TIP3    H171324   3.228   3.896  10.660 -0.9868  1.0640 -2.0041
16611TIP3    H271325   3.355   3.834  10.607 -0.1124  1.4439 -0.4175
16612TIP3   OH271326   4.464   1.268   1.300 -0.2050  0.2052  0.3420
16612TIP3    H171327   4.548   1.235   1.332  0.9503  1.3416 -1.3531
16612TIP3    H271328   4.437   1.333   1.364 -0.9954 -1.7080  2.0969
16613TIP3   OH271329   4.657   3.298   1.850  0.0022 -0.4980  0.1352
16613TIP3    H171330   4.746   3.333   1.848 -0.3759  0.6478  1.3808
16613TIP3    H271331   4.621   3.318   1.764  0.9181 -0.9357 -0.3670
16614TIP3   OH271332   4.009   1.433   4.930 -0.2966 -0.1133  0.2789
16614TIP3    H171333   3.918   1.459   4.910  0.1718  1.2511 -0.1969
16614TIP3    H271334   4.060   1.467   4.857  0.5583 -1.2504  0.3281
16615TIP3   OH271335   0.742   0.382  16.780  0.0009 -0.9374 -0.3973
16615TIP3    H171336   0.791   0.311  16.821 -2.2433 -2.3290  0.0005
16615TIP3    H271337   0.780   0.390  16.692  1.9324 -0.8735  0.3809
16616TIP3   OH271338   3.583   6.701  13.654 -0.7270  0.0089  0.1134
16616TIP3    H171339   3.612   6.690  13.563  0.9065 -1.2093  0.7424
16616TIP3    H271340   3.591   6.795  13.670  1.4261 -0.0505 -0.2739
16617TIP3   OH271341   1.810   4.257  15.416 -0.6323  0.1937 -0.1592
16617TIP3    H171342   1.817   4.260  15.321  0.7387  2.0509 -0.0501
16617TIP3    H271343   1.822   4.348  15.444 -1.6948 -0.1935  1.7633
16618TIP3   OH271344   0.880   4.192   5.987  0.4768 -0.1449 -0.4290
16618TIP3    H171345   0.901   4.101   6.005  2.9218  0.4846  0.3053
16618TIP3    H271346   0.944   4.219   5.921  0.0622  1.1422 -0.3446
16619TIP3   OH271347   1.496   3.052  14.199 -0.2225 -0.5756 -0.0384
16619TIP3    H171348   1.423   3.112  14.183 -0.6361 -1.5991 -2.2978
16619TIP3    H271349   1.519   3.067  14.291 -1.1079  2.1195 -0.1760
16620TIP3   OH271350   4.111   4.173  16.797  0.3099 -0.5804 -0.7419
16620TIP3    H171351   4.016   4.182  16.805  0.5209  1.2648  0.1265
16620TIP3    H271352   4.126   4.165  16.702 -0.6444  0.0639 -0.9583
16621TIP3   OH271353   2.408   4.239   6.330  0.0224  0.0611  0.6852
16621TIP3    H171354   2.398   4.147   6.355 -0.1466 -0.0132  0.3608
16621TIP3    H271355   2.375   4.288   6.405 -1.0564 -0.1636  0.3736
16622TIP3   OH271356   0.985   4.595  15.442 -0.2173 -0.0956 -0.2857
16622TIP3    H171357   1.075   4.576  15.414 -0.1817  0.5460 -0.6367
16622TIP3    H271358   0.996   4.660  15.512 -0.4121  0.1600 -0.4898
16623TIP3   OH271359   5.169   3.020  12.788 -0.0394  0.1764 -0.3011
16623TIP3    H171360   5.207   3.063  12.865 -1.6975  0.3708  0.4580
16623TIP3    H271361   5.199   3.072  12.714 -0.9798  1.9279  0.4862
16624TIP3   OH271362   5.457   3.937  15.552 -0.5161 -0.3016  0.0224
16624TIP3    H171363   5.496   3.930  15.465 -0.4578 -0.1899  0.0395
16624TIP3    H271364   5.363   3.946  15.536 -0.4762  0.0124 -0.0399
16625TIP3   OH271365   2.042   2.517   1.552 -0.3451 -0.6534  0.3334
16625TIP3    H171366   1.954   2.555   1.554  0.0736  0.3216  0.9556
16625TIP3    H271367   2.040   2.449   1.620 -1.2078 -2.0422 -1.0394
16626TIP3   OH271368   1.898   3.520   4.485 -0.2042  0.4923 -0.4319
16626TIP3    H171369   1.842   3.449   4.455  0.2572  0.3848 -1.0454
16626TIP3    H271370   1.944   3.550   4.407 -0.6843  1.7314 -0.2611
16627TIP3   OH271371   3.262   1.116  15.179  0.1837  0.3024  0.1207
16627TIP3    H171372   3.280   1.136  15.088 -0.5184  0.2450 -0.0357
16627TIP3    H271373   3.329   1.165  15.228  0.9733 -0.1865 -0.4418
16628TIP3   OH271374   2.870   0.191  12.097  0.3065  0.2638  0.8811
16628TIP3    H171375   2.953   0.176  12.143  1.1213 -0.4781 -0.7340
16628TIP3    H271376   2.892   0.252  12.027 -0.9934  1.6918  1.6590
16629TIP3   OH271377   2.631   1.205   0.371 -0.3764 -0.1050  0.2366
16629TIP3    H171378   2.705   1.155   0.407  0.6715  0.6176 -0.8501
16629TIP3    H271379   2.670   1.262   0.305 -1.6964  1.4136  0.7047
16630TIP3   OH271380   3.440   3.167   2.780 -0.2492 -0.1197  1.3396
16630TIP3    H171381   3.435   3.156   2.875 -0.0202  0.9699  1.4864
16630TIP3    H271382   3.412   3.257   2.764 -1.9044 -0.7764  0.2109
16631TIP3   OH271383   0.159   4.975  14.293  0.8710  0.2464  0.0412
16631TIP3    H171384   0.082   5.030  14.277  1.5497  1.2230  0.0194
16631TIP3    H271385   0.141   4.894  14.245 -0.3134  0.2953  0.3692
16632TIP3   OH271386   1.142   6.315   2.344  0.1944  0.1495 -0.3175
16632TIP3    H171387   1.061   6.268   2.322  0.3374 -0.3860  0.2864
16632TIP3    H271388   1.113   6.404   2.366 -0.0027  0.5851 -2.1764
16633TIP3   OH271389   3.632   5.509  14.372  0.1028 -0.4693  0.2727
16633TIP3    H171390   3.712   5.558  14.393 -1.9851  2.9127  0.9434
16633TIP3    H271391   3.584   5.505  14.454 -2.0408  0.8913 -0.8340
16634TIP3   OH271392   4.860   0.147   0.865 -0.8234  0.1398  0.2636
16634TIP3    H171393   4.931   0.211   0.878 -1.9443  1.2423  1.2041
16634TIP3    H271394   4.786   0.199   0.833 -1.1730 -1.0333 -0.9602
16635TIP3   OH271395   3.449   6.611   4.643  0.2262  0.0609  0.0403
16635TIP3    H171396   3.447   6.555   4.566 -0.4558 -0.3193  0.3194
16635TIP3    H271397   3.449   6.550   4.717 -1.5927  0.3994  0.3630
16636TIP3   OH271398   0.143   0.062   0.004  0.1297 -0.0005 -0.1917
16636TIP3    H171399   0.237   0.076  -0.012  0.8866 -2.6656  1.1969
16636TIP3    H271400   0.116  -0.001  -0.063 -0.2050 -0.4847  0.3775
16637TIP3   OH271401   0.714   2.800   2.981 -0.5148  0.1083  0.8494
16637TIP3    H171402   0.755   2.818   3.066  3.8994 -3.2347 -0.1782
16637TIP3    H271403   0.712   2.704   2.975 -0.7844  0.1958 -2.7541
16638TIP3   OH271404   6.185   0.504  14.488 -0.1582  0.0477 -0.0285
16638TIP3    H171405   6.237   0.510  14.568 -1.0596  1.3085  0.4954
16638TIP3    H271406   6.247   0.475  14.421  0.3769 -2.1139  1.3149
16639TIP3   OH271407   5.525   0.680   4.639 -0.1252  0.1830 -0.5600
16639TIP3    H171408   5.582   0.716   4.707  1.5138  2.8329 -3.0895
16639TIP3    H271409   5.582   0.622   4.588 -0.4474  0.6035 -1.4242
16640TIP3   OH271410   1.456   3.987   4.364  0.2854 -0.0679 -0.4884
16640TIP3    H171411   1.461   4.056   4.430  0.5375  0.2409 -0.8250
16640TIP3    H271412   1.368   3.950   4.375  0.2188  0.1753 -0.1750
16641TIP3   OH271413   5.255   6.239  12.824  0.5609  0.2549  0.0949
16641TIP3    H171414   5.178   6.204  12.779 -0.0390 -0.2015  1.4311
16641TIP3    H271415   5.265   6.328  12.789 -0.6354  0.3488 -0.0314
16642TIP3   OH271416   4.008   4.055  15.217 -0.2870  0.2215 -0.4569
16642TIP3    H171417   4.075   4.114  15.251  0.2880 -0.5672 -0.1875
16642TIP3    H271418   4.014   4.065  15.122  0.4772 -0.1165 -0.4505
16643TIP3   OH271419   1.381   2.711  15.100  0.0727 -0.2896  0.3082
16643TIP3    H171420   1.347   2.677  15.183 -0.3446 -1.1709 -0.2051
16643TIP3    H271421   1.357   2.803  15.099 -2.0233 -0.7963  0.1290
16644TIP3   OH271422   5.649   0.246  10.890  0.3933 -0.0026 -0.4862
16644TIP3    H171423   5.560   0.216  10.871 -0.3004 -0.3201  2.6236
16644TIP3    H271424   5.705   0.174  10.863 -0.4281 -0.3583 -1.2928
16645TIP3   OH271425   0.556   0.624   5.825 -0.1442 -0.3147 -0.4439
16645TIP3    H171426   0.650   0.614   5.812 -0.3918 -0.3827 -2.6356
16645TIP3    H271427   0.538   0.717   5.807 -0.2526  0.2171  2.0975
16646TIP3   OH271428   3.517   4.840   2.575 -0.0832  0.5194  0.0174
16646TIP3    H171429   3.511   4.930   2.544  1.6566  0.9871  0.8942
16646TIP3    H271430   3.574   4.845   2.652  1.8670 -1.5898 -1.1404
16647TIP3   OH271431   4.419   1.035  11.697 -0.0283  0.0093 -0.2053
16647TIP3    H171432   4.436   0.957  11.645 -0.4666 -0.5922  0.5456
16647TIP3    H271433   4.332   1.064  11.669  0.5853  0.8905 -1.2880
16648TIP3   OH271434   4.802   6.562  16.638 -0.3235 -0.1004  0.4689
16648TIP3    H171435   4.860   6.532  16.707  0.4811  2.1299  0.8456
16648TIP3    H271436   4.841   6.528  16.557  1.0795  0.6451  0.7940
16649TIP3   OH271437   3.657   2.815   1.880  0.1362  0.0360 -0.1743
16649TIP3    H171438   3.669   2.763   1.960  1.2446 -0.7865 -0.8449
16649TIP3    H271439   3.610   2.756   1.821  0.0951  0.3246 -0.4300
16650TIP3   OH271440   5.520   2.309  12.658 -0.3119  0.1951 -0.6315
16650TIP3    H171441   5.613   2.334  12.660 -0.2628 -0.0370  0.1739
16650TIP3    H271442   5.519   2.225  12.612  0.4043 -1.8374  2.7520
16651TIP3   OH271443   5.135   4.904   5.058 -0.2658  0.3966 -0.4405
16651TIP3    H171444   5.222   4.929   5.026 -0.2942 -0.4299 -1.1976
16651TIP3    H271445   5.117   4.965   5.129  1.4567 -0.1779  0.5490
16652TIP3   OH271446   1.853   6.354  16.822 -0.0883 -0.1556 -0.6900
16652TIP3    H171447   1.910   6.284  16.851 -0.5330 -0.2911 -0.1240
16652TIP3    H271448   1.847   6.343  16.727  1.1575  0.1205 -0.8159
16653TIP3   OH271449   5.817   5.114   3.266 -0.2578  0.1733 -0.0478
16653TIP3    H171450   5.812   5.081   3.355  0.2559  0.6961  0.1770
16653TIP3    H271451   5.792   5.039   3.211  1.9047 -0.9393  0.3915
16654TIP3   OH271452   0.816   5.893   5.601 -0.2869  0.2207 -0.0039
16654TIP3    H171453   0.857   5.878   5.686  0.9660 -0.5785 -0.7302
16654TIP3    H271454   0.854   5.975   5.569  0.1931 -0.1266 -0.3387
16655TIP3   OH271455   2.957   0.183  14.502 -0.0463 -0.4773 -0.3953
16655TIP3    H171456   2.888   0.206  14.439 -1.6441 -1.4903  0.9232
16655TIP3    H271457   3.011   0.118  14.456  0.1351  0.4121 -1.4841
16656TIP3   OH271458   2.650   2.445   0.091  0.3744 -0.2378 -0.0865
16656TIP3    H171459   2.578   2.504   0.070 -0.3772 -0.7897  0.8772
16656TIP3    H271460   2.713   2.459   0.020 -1.2933 -0.7822 -1.7520
16657TIP3   OH271461   4.901   4.395   4.917  0.0892 -0.5140 -0.0986
16657TIP3    H171462   4.833   4.434   4.972 -0.4512 -0.1990 -0.9699
16657TIP3    H271463   4.883   4.301   4.921 -0.3479 -0.4407 -0.2529
16658TIP3   OH271464   3.351   6.174   5.964 -0.0215 -0.0465 -0.1438
16658TIP3    H171465   3.437   6.180   6.005 -1.0736  0.5592  2.1625
16658TIP3    H271466   3.336   6.260   5.926  0.0256  0.1512  0.2786
16659TIP3   OH271467   2.440   3.852   3.564  0.1652  0.1218  0.1240
16659TIP3    H171468   2.388   3.846   3.645 -1.0459 -1.4565 -0.7150
16659TIP3    H271469   2.452   3.762   3.536  1.6718  0.5761 -0.8155
16660TIP3   OH271470   3.511   4.057   3.956 -0.0486 -0.0525  0.0199
16660TIP3    H171471   3.521   3.968   3.990  0.3850 -0.0075  0.0097
16660TIP3    H271472   3.599   4.094   3.959 -0.0423  0.0224 -0.9710
16661TIP3   OH271473   1.616   2.088   1.367 -0.0942  0.6437 -0.0251
16661TIP3    H171474   1.555   2.048   1.305 -0.8828 -0.6394  1.5076
16661TIP3    H271475   1.659   2.013   1.410 -0.1595  1.4682  1.5287
16662TIP3   OH271476   0.506   2.819  13.122 -0.0749  0.3552 -0.4403
16662TIP3    H171477   0.498   2.725  13.104 -0.1523  0.3161 -0.2021
16662TIP3    H271478   0.513   2.825  13.217  2.2703  0.4285 -0.5734
16663TIP3   OH271479   4.468   4.668   1.767 -0.3177  0.6033 -0.4107
16663TIP3    H171480   4.376   4.693   1.757 -0.3759  0.4982 -0.1440
16663TIP3    H271481   4.475   4.585   1.720 -0.8120 -0.3770  1.1644
16664TIP3   OH271482   3.163   3.312  12.874  0.4456 -0.3444  0.2998
16664TIP3    H171483   3.215   3.377  12.922 -0.3292  1.5489 -1.2823
16664TIP3    H271484   3.135   3.249  12.941  0.9191  1.1664  1.9835
16665TIP3   OH271485   5.114   5.468   4.713  0.6126 -0.1328 -0.2949
16665TIP3    H171486   5.186   5.431   4.664  0.8661 -0.4462  0.3025
16665TIP3    H271487   5.152   5.542   4.760  0.2493  0.5121 -0.9882
16666TIP3   OH271488   4.108   6.432   1.234  0.3183 -0.0866 -0.0776
16666TIP3    H171489   4.199   6.451   1.213 -0.0701  0.8012 -1.0168
16666TIP3    H271490   4.099   6.457   1.326  0.9995 -0.1294  0.0082
16667TIP3   OH271491   3.187   4.952   3.301 -0.1496  0.1677  0.4550
16667TIP3    H171492   3.274   4.945   3.340  1.1241 -2.2336 -2.4174
16667TIP3    H271493   3.153   4.862   3.304 -2.2693  0.9361  0.8485
16668TIP3   OH271494   2.601   2.782  15.130  0.4053 -0.1821  0.3616
16668TIP3    H171495   2.559   2.811  15.212  1.2466  0.5514  0.5514
16668TIP3    H271496   2.690   2.757  15.156  0.2171 -1.3502 -0.0958
16669TIP3   OH271497   6.420   1.959  13.502  0.3363  0.3021  0.6208
16669TIP3    H171498   6.447   2.025  13.566 -2.1408  1.8256  0.2051
16669TIP3    H271499   6.343   1.996  13.459 -0.3356 -2.2915 -0.6392
16670TIP3   OH271500   3.475   1.967   6.704 -0.4098 -0.5079 -0.7479
16670TIP3    H171501   3.403   2.029   6.705 -0.2732 -0.3515 -0.5535
16670TIP3    H271502   3.552   2.018   6.731  0.2247 -0.0954 -3.1040
16671TIP3   OH271503   5.211   5.253  15.893 -0.3509  0.6150 -0.3378
16671TIP3    H171504   5.293   5.264  15.845 -0.3477  0.9714 -0.2548
16671TIP3    H271505   5.174   5.172  15.858  0.3470  0.0985  0.0763
16672TIP3   OH271506   2.991   5.786  16.204  0.2086 -0.3741 -0.7547
16672TIP3    H171507   3.019   5.737  16.281  2.2069  0.1609 -1.0817
16672TIP3    H271508   3.012   5.878  16.225  1.6176 -0.3121 -2.2225
16673TIP3   OH271509   4.591   1.539  15.414 -0.0616 -0.2091  0.3154
16673TIP3    H171510   4.539   1.555  15.493  0.2070  0.5885  0.3410
16673TIP3    H271511   4.657   1.608  15.414 -0.4551  0.2072 -0.9460
16674TIP3   OH271512   0.109   2.511   2.423  0.3941  0.3837 -0.5227
16674TIP3    H171513   0.166   2.581   2.457 -1.2342  0.6596  1.8398
16674TIP3    H271514   0.046   2.557   2.367  0.6491  0.4837 -0.7332
16675TIP3   OH271515   3.632   0.618  14.702 -0.2358  0.7153 -0.4531
16675TIP3    H171516   3.606   0.588  14.615 -0.7213  1.6376 -0.6396
16675TIP3    H271517   3.621   0.713  14.699  0.1287  0.7993  0.4883
16676TIP3   OH271518   3.458   1.040  16.412  0.9531 -0.6925 -0.4937
16676TIP3    H171519   3.436   1.129  16.385  1.2852 -0.7608 -0.9882
16676TIP3    H271520   3.378   0.989  16.398 -0.2153  0.0731  2.4412
16677TIP3   OH271521   4.771   6.644  14.645  0.1851 -0.2007 -0.1092
16677TIP3    H171522   4.793   6.682  14.560  0.5052 -2.3476 -1.0524
16677TIP3    H271523   4.849   6.659  14.699  0.6198 -0.2466 -0.7164
16678TIP3   OH271524   4.591   2.507   2.831  0.0829 -0.9875 -0.0728
16678TIP3    H171525   4.496   2.515   2.823  0.1008 -0.5112  0.1152
16678TIP3    H271526   4.613   2.563   2.906  0.1541 -3.6574  2.0762
16679TIP3   OH271527   0.225   6.813  15.902 -0.0275  0.3962  0.1319
16679TIP3    H171528   0.258   6.763  15.976 -0.9974  0.3498  0.5383
16679TIP3    H271529   0.133   6.829  15.922  0.1990  2.1839 -0.0638
16680TIP3   OH271530   4.925   0.871   5.560 -0.0656 -0.8028  0.5091
16680TIP3    H171531   4.963   0.955   5.586  0.8260 -0.6837 -1.0631
16680TIP3    H271532   4.993   0.828   5.509 -0.7828 -2.1682  0.6447
16681TIP3   OH271533   4.226   5.417  13.978  0.1192  0.2823  0.0357
16681TIP3    H171534   4.278   5.461  14.044 -0.6321  0.9736  0.1825
16681TIP3    H271535   4.290   5.372  13.922  0.7893  0.2069  0.8508
16682TIP3   OH271536   6.465   1.390  13.366 -0.0825 -0.5140  0.0914
16682TIP3    H171537   6.484   1.422  13.454  0.7027  0.6322 -0.4681
16682TIP3    H271538   6.458   1.295  13.376 -0.1681 -0.3872  1.4133
16683TIP3   OH271539   2.127   1.515   5.386  0.3297  0.3294  0.2509
16683TIP3    H171540   2.044   1.479   5.357  1.6340 -0.8765 -2.2827
16683TIP3    H271541   2.161   1.564   5.311  1.9390  0.6980  1.1558
16684TIP3   OH271542   6.416   2.345  13.112 -0.5466  0.2934 -0.7045
16684TIP3    H171543   6.457   2.382  13.190  2.0089 -2.6700 -0.4594
16684TIP3    H271544   6.322   2.358  13.126 -0.0523  1.8732  1.7446
16685TIP3   OH271545   3.673   2.210  12.216 -0.7412 -0.1661 -0.6356
16685TIP3    H171546   3.699   2.121  12.194 -1.1099  0.0430 -1.9819
16685TIP3    H271547   3.597   2.199  12.274 -2.1868 -0.7634 -2.5482
16686TIP3   OH271548   0.132   6.763   5.070  0.2014  0.4671  0.2823
16686TIP3    H171549   0.047   6.771   5.025  0.1795 -1.0592 -0.0245
16686TIP3    H271550   0.129   6.675   5.109  0.8876  1.1274  1.9080
16687TIP3   OH271551   6.362   1.636   0.397 -0.0811  0.3737 -0.2527
16687TIP3    H171552   6.349   1.621   0.304 -2.0212  1.6806 -0.2444
16687TIP3    H271553   6.334   1.726   0.412  0.6232  0.3556  1.5364
16688TIP3   OH271554   0.807   2.730   2.082 -0.4181 -0.8851 -0.0357
16688TIP3    H171555   0.734   2.689   2.127 -0.0005 -2.0358 -0.3799
16688TIP3    H271556   0.839   2.663   2.021  0.9051 -0.3981  0.0902
16689TIP3   OH271557   5.447   2.703   6.217 -0.0712 -0.4813  0.3605
16689TIP3    H171558   5.499   2.783   6.221 -0.3426  0.0059 -2.8385
16689TIP3    H271559   5.509   2.635   6.190 -0.4648 -0.5878 -0.3064
16690TIP3   OH271560   3.856   6.759  14.575 -0.2337  0.1427 -0.0181
16690TIP3    H171561   3.763   6.765  14.554 -0.3703 -0.7979  0.2584
16690TIP3    H271562   3.899   6.752  14.490 -0.3222  1.4994 -0.1929
16691TIP3   OH271563   0.344   1.805  16.343  0.2356 -0.5067 -1.0652
16691TIP3    H171564   0.303   1.815  16.257  2.8284 -0.4209 -2.3817
16691TIP3    H271565   0.404   1.732  16.332 -1.1158 -2.1317  1.4532
16692TIP3   OH271566   2.653   5.225  17.080  0.5959 -0.1754 -0.4183
16692TIP3    H171567   2.569   5.200  17.043  0.3753  1.1758 -0.9059
16692TIP3    H271568   2.685   5.294  17.022  0.9018  1.0321  1.1106
16693TIP3   OH271569   2.663   0.486  12.133 -0.2210  0.0815  0.9725
16693TIP3    H171570   2.679   0.425  12.204  1.1164 -0.6506  0.0887
16693TIP3    H271571   2.617   0.434  12.067  0.3445  0.2019  0.4792
16694TIP3   OH271572   4.940   3.479   3.862  0.1829  0.0038 -0.1660
16694TIP3    H171573   4.875   3.539   3.826 -0.4825 -1.1607 -0.9417
16694TIP3    H271574   4.902   3.450   3.945  0.3596  0.3818  0.0526
16695TIP3   OH271575   2.281   5.417   1.133 -0.2398  0.7382 -0.4948
16695TIP3    H171576   2.349   5.421   1.065 -0.8982  1.3057 -1.1321
16695TIP3    H271577   2.317   5.467   1.206  0.0398  1.0069 -0.8149
16696TIP3   OH271578   6.038   4.328   5.822 -0.4610  0.8527 -0.2134
16696TIP3    H171579   5.997   4.399   5.871  0.3904  1.8987 -0.9691
16696TIP3    H271580   6.079   4.273   5.889 -3.3226 -0.4430  0.5972
16697TIP3   OH271581   6.252   0.416  15.649 -0.2409  0.2158 -0.4904
16697TIP3    H171582   6.261   0.342  15.588  1.9729 -0.0222  0.0327
16697TIP3    H271583   6.340   0.428  15.685 -1.0484  1.6654  1.1475
16698TIP3   OH271584   0.026   4.958   3.945  0.0369 -0.1579  0.3562
16698TIP3    H171585   0.023   4.952   3.850 -0.8398 -1.6011  0.4414
16698TIP3    H271586   0.116   4.933   3.968 -0.2433 -1.5781 -0.0185
16699TIP3   OH271587   1.034   1.812  11.302 -0.4066  0.3998 -0.4600
16699TIP3    H171588   0.998   1.866  11.232 -0.6182 -0.1324 -0.7719
16699TIP3    H271589   0.958   1.786  11.354 -0.2832  0.5652 -0.1933
16700TIP3   OH271590   1.315   1.886  13.607  0.5610  0.4973 -0.2784
16700TIP3    H171591   1.221   1.882  13.592  0.4926 -0.5540  0.3913
16700TIP3    H271592   1.348   1.800  13.581  1.2876  0.7445 -0.1983
16701TIP3   OH271593   3.136   5.698  11.570  0.2888 -0.4719 -0.3139
16701TIP3    H171594   3.096   5.690  11.483 -0.0715  1.2266 -0.3337
16701TIP3    H271595   3.173   5.786  11.572  1.5018 -0.9690  0.7765
16702TIP3   OH271596   0.340   4.833  16.759  0.3729 -0.1021 -0.2752
16702TIP3    H171597   0.374   4.744  16.768  2.3276  0.4139 -1.7417
16702TIP3    H271598   0.407   4.888  16.798 -0.5770  0.7766  0.1599
16703TIP3   OH271599   2.942   6.549  15.243 -0.3875 -0.4678 -0.4692
16703TIP3    H171600   2.911   6.592  15.164 -0.9003  0.0808  0.0132
16703TIP3    H271601   2.994   6.616  15.287  0.1692 -0.8767 -0.5049
16704TIP3   OH271602   3.222   0.345   2.871 -0.1163  0.3494  0.1181
16704TIP3    H171603   3.222   0.393   2.788 -0.1195 -1.0257 -0.6957
16704TIP3    H271604   3.304   0.371   2.914 -1.1218  2.7967  0.7567
16705TIP3   OH271605   3.838   2.297  14.577 -0.4622  0.1241  0.0320
16705TIP3    H171606   3.760   2.329  14.532 -0.9269 -1.1517 -0.1182
16705TIP3    H271607   3.823   2.316  14.670 -1.1294 -0.4194  0.0457
16706TIP3   OH271608   1.118   4.399  10.618  0.3306 -0.3059 -0.3714
16706TIP3    H171609   1.126   4.466  10.550  1.0293  0.2205  0.2158
16706TIP3    H271610   1.024   4.388  10.630  0.0874  2.6775  1.5194
16707TIP3   OH271611   5.078   1.905  10.219  0.1941  0.1887  0.0810
16707TIP3    H171612   5.125   1.983  10.191  1.2096 -0.5181 -0.2686
16707TIP3    H271613   5.071   1.851  10.139  0.1805 -0.3954  0.4676
16708TIP3   OH271614   3.610   1.114  12.511  0.3294  0.5179 -0.0560
16708TIP3    H171615   3.544   1.045  12.518 -1.1254  1.8518 -0.0983
16708TIP3    H271616   3.628   1.139  12.602  1.2077 -0.2059 -0.0169
16709TIP3   OH271617   3.533   5.652  16.360  0.3885 -0.1139 -0.2625
16709TIP3    H171618   3.565   5.685  16.276 -2.1760 -1.5905 -1.9666
16709TIP3    H271619   3.518   5.731  16.412  0.3230  0.9845 -1.8567
16710TIP3   OH271620   5.614   4.798   5.048  0.0946 -0.3462 -0.2497
16710TIP3    H171621   5.692   4.783   5.102 -0.0642  0.9423  0.3687
16710TIP3    H271622   5.646   4.795   4.958  0.0269 -4.7002 -0.3443
16711TIP3   OH271623   5.438   5.737   1.766  0.1169 -0.2685 -0.2728
16711TIP3    H171624   5.473   5.820   1.733 -0.9939  0.3635  0.0895
16711TIP3    H271625   5.374   5.711   1.701  0.5303 -0.9022 -0.4308
16712TIP3   OH271626   2.538   0.671  10.319  0.0555 -0.0109  0.4207
16712TIP3    H171627   2.629   0.643  10.308 -0.0094  0.0838 -0.4291
16712TIP3    H271628   2.488   0.590  10.310  0.0438 -0.0494  0.8031
16713TIP3   OH271629   3.063   0.145   4.175  0.0248  0.2887 -0.0848
16713TIP3    H171630   2.979   0.122   4.212 -0.5150  2.8512  0.4431
16713TIP3    H271631   3.050   0.138   4.080 -0.5088 -0.1713  0.0197
16714TIP3   OH271632   5.670   1.893   1.790 -0.3957  0.1966 -0.2186
16714TIP3    H171633   5.687   1.941   1.709  0.0658 -0.4583 -0.5237
16714TIP3    H271634   5.585   1.924   1.820 -1.5609 -1.0267 -2.0541
16715TIP3   OH271635   1.936   2.974  16.909 -0.4122  0.3408 -0.1367
16715TIP3    H171636   1.947   2.899  16.850 -0.0593 -0.3779  0.8189
16715TIP3    H271637   1.844   2.969  16.937 -0.2513 -0.0531  0.3345
16716TIP3   OH271638   5.871   4.785  13.949 -0.2198  0.3386  0.4690
16716TIP3    H171639   5.835   4.734  14.022 -0.9944  0.5605  0.2544
16716TIP3    H271640   5.952   4.822  13.983 -0.1086 -0.3109  0.9164
16717TIP3   OH271641   1.006   3.041  16.288 -0.1953  0.0523  0.2633
16717TIP3    H171642   1.093   3.070  16.259 -1.5392  2.0623 -2.1442
16717TIP3    H271643   1.017   3.025  16.382  2.8695 -0.2593 -0.0376
16718TIP3   OH271644   3.660   2.465  15.525 -0.3379  0.4714  0.2302
16718TIP3    H171645   3.727   2.435  15.587 -1.3645 -0.1283  1.0889
16718TIP3    H271646   3.690   2.551  15.497  0.9372  0.0998  0.3650
16719TIP3   OH271647   6.355   6.337   4.512  0.5880  0.0599  0.2395
16719TIP3    H171648   6.353   6.242   4.504 -2.3645  0.1277 -1.0523
16719TIP3    H271649   6.287   6.357   4.576  1.1770  1.3314  0.5001
16720TIP3   OH271650   5.642   1.068  15.318 -0.5796 -0.5088 -0.7496
16720TIP3    H171651   5.575   1.095  15.381 -1.3645 -0.9407 -1.3835
16720TIP3    H271652   5.723   1.068  15.368 -0.8027  1.3432 -0.2862
16721TIP3   OH271653   1.350   3.181  12.857 -0.2265 -0.4471 -0.0816
16721TIP3    H171654   1.408   3.247  12.895  0.8969 -1.4293 -0.0369
16721TIP3    H271655   1.289   3.160  12.928 -0.7150  0.6426 -0.1504
16722TIP3   OH271656   1.502   1.848  13.180  0.3174 -0.5638 -0.5974
16722TIP3    H171657   1.414   1.885  13.176  0.9313  0.9979 -0.0906
16722TIP3    H271658   1.549   1.890  13.108  0.6513 -1.4496 -0.9187
16723TIP3   OH271659   4.758   5.062   1.163  0.6117  0.3281 -0.0853
16723TIP3    H171660   4.711   5.002   1.221  0.9959 -1.8190 -1.8636
16723TIP3    H271661   4.799   5.124   1.223 -0.2017 -0.8751  1.8527
16724TIP3   OH271662   5.872   0.707   0.266 -0.3187  0.3664 -0.2625
16724TIP3    H171663   5.922   0.722   0.186 -0.5105  0.8155 -0.3016
16724TIP3    H271664   5.790   0.669   0.236 -0.2179  0.1302 -0.2418
16725TIP3   OH271665   6.278   4.800   5.645  0.4298 -0.1631  0.8323
16725TIP3    H171666   6.373   4.793   5.638  0.1897 -2.8744 -2.2002
16725TIP3    H271667   6.256   4.753   5.725  1.5814 -1.6913  0.3173
16726TIP3   OH271668   1.341   0.845  13.925 -0.4464 -0.4190  0.0585
16726TIP3    H171669   1.381   0.926  13.959 -1.9874  0.1559  0.5895
16726TIP3    H271670   1.328   0.791  14.003 -0.6229 -0.6445 -0.1275
16727TIP3   OH271671   4.184   2.411   6.122 -0.1329  0.3488  0.0256
16727TIP3    H171672   4.221   2.339   6.071  0.3840  1.1569 -0.7695
16727TIP3    H271673   4.240   2.486   6.102 -0.5644  0.9459  0.9623
16728TIP3   OH271674   3.319   4.619  11.561  0.4642  0.0366  0.3910
16728TIP3    H171675   3.409   4.597  11.583  0.5278 -0.8818 -0.7055
16728TIP3    H271676   3.288   4.545  11.508 -0.5980  0.8089 -0.1156
16729TIP3   OH271677   4.399   0.364   2.032 -0.0327  0.4385 -0.6569
16729TIP3    H171678   4.456   0.382   2.107  0.0569  2.2377 -1.1073
16729TIP3    H271679   4.394   0.447   1.985 -1.6620 -0.1265 -1.5789
16730TIP3   OH271680   3.212   0.170  15.353  0.1193 -0.3958  0.3640
16730TIP3    H171681   3.285   0.229  15.331  0.3952 -0.6898  0.4767
16730TIP3    H271682   3.198   0.184  15.446  0.5283 -0.8813  0.5030
16731TIP3   OH271683   5.155   5.983   3.876 -0.0169  0.3137  0.0555
16731TIP3    H171684   5.100   5.950   3.805  2.1920  0.0981 -1.6753
16731TIP3    H271685   5.093   6.004   3.946 -2.1158 -1.3717 -1.1549
16732TIP3   OH271686   1.143   0.117   4.919 -0.0290 -0.5093 -0.1576
16732TIP3    H171687   1.230   0.135   4.954 -1.0956  0.8433  2.0347
16732TIP3    H271688   1.142   0.160   4.834  0.9789  0.7568  0.4304
16733TIP3   OH271689   3.317   1.233   4.396 -0.3174 -0.0144 -0.4796
16733TIP3    H171690   3.365   1.160   4.357 -0.4404 -0.7361  0.6664
16733TIP3    H271691   3.272   1.275   4.322  0.0261 -0.8914 -1.2027
16734TIP3   OH271692   3.811   4.485   3.460 -0.4535 -0.1781  0.0098
16734TIP3    H171693   3.756   4.563   3.456  0.8002  0.9664  2.6026
16734TIP3    H271694   3.838   4.471   3.369 -3.0439  0.5947 -0.9882
16735TIP3   OH271695   4.402   1.601  12.175  0.1926 -0.7247  0.0545
16735TIP3    H171696   4.321   1.555  12.151 -1.0952  1.3090  0.3253
16735TIP3    H271697   4.453   1.601  12.094 -0.4375 -1.2688 -0.3586
16736TIP3   OH271698   6.060   4.178   4.678  0.0677 -0.1359  0.0328
16736TIP3    H171699   6.018   4.254   4.640 -1.4156 -0.6200  0.6277
16736TIP3    H271700   6.147   4.209   4.704 -0.5514  1.3745  0.3887
16737TIP3   OH271701   5.032   1.529  11.832 -0.1759 -0.6666 -0.7669
16737TIP3    H171702   4.941   1.507  11.812 -0.6365  0.2466  0.2466
16737TIP3    H271703   5.043   1.618  11.799 -0.5018  0.2793  1.5057
16738TIP3   OH271704   4.569   3.080  13.101  0.4986 -0.3096  0.3984
16738TIP3    H171705   4.532   3.162  13.132 -0.6626 -0.2524 -1.0165
16738TIP3    H271706   4.581   3.093  13.007  1.9602 -1.1658  0.4299
16739TIP3   OH271707   1.775   4.978   0.911  0.0221 -0.0985  0.1087
16739TIP3    H171708   1.814   4.898   0.874 -1.8674 -1.4517  0.9192
16739TIP3    H271709   1.681   4.965   0.902 -0.3393  1.8009  0.8137
16740TIP3   OH271710   4.513   2.419  11.330 -0.2293  0.7623  0.0919
16740TIP3    H171711   4.422   2.448  11.335 -0.6211 -0.5137  0.7177
16740TIP3    H271712   4.510   2.325  11.345  0.9816  0.3177 -1.9650
16741TIP3   OH271713   3.930   3.911  12.352  0.0505  0.1920 -0.3593
16741TIP3    H171714   3.948   3.845  12.285 -0.2108  0.2530 -0.4917
16741TIP3    H271715   3.972   3.990  12.319  0.2056  0.1378 -0.2908
16742TIP3   OH271716   5.915   5.050  11.520 -0.3364 -0.0661 -0.5260
16742TIP3    H171717   5.917   5.146  11.515 -0.7089 -0.1094 -3.3720
16742TIP3    H271718   5.833   5.030  11.566 -0.1303  0.9471  0.3270
16743TIP3   OH271719   1.834   3.552   0.949 -0.0460 -0.7357  0.5652
16743TIP3    H171720   1.907   3.582   1.005 -0.0604  2.5176 -0.9082
16743TIP3    H271721   1.877   3.513   0.873  0.0437 -1.6408  1.0631
16744TIP3   OH271722   3.203   5.379  15.262  0.3514  0.0226  0.4087
16744TIP3    H171723   3.198   5.475  15.271  0.4602 -0.0163  0.8892
16744TIP3    H271724   3.266   5.352  15.329 -0.1866 -0.4604  0.7220
16745TIP3   OH271725   1.267   3.409  14.904  0.0889  0.3549 -0.1579
16745TIP3    H171726   1.269   3.384  14.996  0.5908 -1.8768 -0.7029
16745TIP3    H271727   1.347   3.460  14.891  0.2699  0.2585  0.5299
16746TIP3   OH271728   3.988   1.095  15.645 -0.2736 -0.1457  0.0549
16746TIP3    H171729   3.964   1.065  15.732 -4.4728 -1.5119 -1.3041
16746TIP3    H271730   3.982   1.017  15.590 -2.2560  1.3607 -2.1002
16747TIP3   OH271731   5.122   0.353  15.124 -0.0736 -0.0732 -0.3880
16747TIP3    H171732   5.202   0.405  15.123  0.1418 -0.4063 -1.1830
16747TIP3    H271733   5.146   0.274  15.173 -0.1664  0.2071  0.1148
16748TIP3   OH271734   6.296   0.686  15.866  0.1126 -0.1161 -0.2195
16748TIP3    H171735   6.224   0.749  15.858 -0.0439 -0.3594 -0.7672
16748TIP3    H271736   6.326   0.672  15.777  0.2558 -0.6895 -0.0858
16749TIP3   OH271737   6.263   1.853   3.798  0.1372 -0.3511  0.4528
16749TIP3    H171738   6.273   1.945   3.774 -1.2275 -0.6027 -1.2146
16749TIP3    H271739   6.182   1.850   3.848  0.4147 -0.5961  0.8990
16750TIP3   OH271740   6.268   0.245  16.688  0.2430 -0.0915 -0.2086
16750TIP3    H171741   6.192   0.187  16.689 -0.0897  0.2641 -1.6044
16750TIP3    H271742   6.314   0.227  16.770 -1.7254  0.2008  1.0247
16751TIP3   OH271743   1.508   3.211  14.730  0.5570  0.0470 -0.0888
16751TIP3    H171744   1.579   3.188  14.790 -0.3504 -1.3440  0.5051
16751TIP3    H271745   1.491   3.304  14.748  0.1628 -0.3765  2.0176
16752TIP3   OH271746   2.117   5.957  15.864  0.7077  0.0329  0.1894
16752TIP3    H171747   2.086   5.912  15.785  0.6794  0.1576  0.1273
16752TIP3    H271748   2.177   5.896  15.905  0.8101  0.0116  0.0088
16753TIP3   OH271749   2.236   5.139  12.511  0.5606  0.1769 -0.2731
16753TIP3    H171750   2.190   5.073  12.563  0.2024 -0.2467 -1.1101
16753TIP3    H271751   2.168   5.178  12.456  0.9119  0.7105 -0.3362
16754TIP3   OH271752   5.414   1.698  11.038  0.2360 -0.4988 -0.2673
16754TIP3    H171753   5.439   1.790  11.042 -0.9840 -0.1495 -0.2408
16754TIP3    H271754   5.362   1.690  10.958 -0.6414 -0.9034  0.3264
16755TIP3   OH271755   3.793   2.690   0.773  0.0365 -0.2027  0.5866
16755TIP3    H171756   3.710   2.726   0.742  0.3100 -1.2294 -1.5840
16755TIP3    H271757   3.849   2.766   0.784 -1.1375  0.5004  2.0239
16756TIP3   OH271758   2.113   1.283   4.214  0.4944  0.3811  0.2195
16756TIP3    H171759   2.157   1.300   4.298 -0.3981 -0.2163  0.8263
16756TIP3    H271760   2.184   1.284   4.150  1.0623  1.9757  0.8070
16757TIP3   OH271761   3.307   2.852   6.440  0.0522  0.0167  0.1038
16757TIP3    H171762   3.392   2.876   6.402 -0.2963  0.0559 -0.6638
16757TIP3    H271763   3.323   2.768   6.484  1.0612  1.1307  2.0331
16758TIP3   OH271764   2.917   6.466   0.764  0.2897  0.2466  0.4747
16758TIP3    H171765   2.887   6.396   0.706  1.9426 -0.9147  0.9394
16758TIP3    H271766   2.838   6.497   0.807 -0.4078 -2.0428  0.9944
16759TIP3   OH271767   4.104   3.152   2.527 -0.0083 -0.3330  0.1720
16759TIP3    H171768   4.090   3.102   2.608  2.6613 -1.1470  0.2102
16759TIP3    H271769   4.123   3.241   2.557  2.1596 -0.8841  0.5994
16760TIP3   OH271770   5.509   3.989  15.301 -0.4095 -0.0121 -0.2999
16760TIP3    H171771   5.542   3.922  15.240 -2.3390 -0.8018 -0.5247
16760TIP3    H271772   5.516   4.070  15.251  2.1177  0.0684  0.0314
16761TIP3   OH271773   0.356   6.282  12.884 -0.4040 -0.0330 -0.5330
16761TIP3    H171774   0.298   6.353  12.856  0.6746  1.0115 -0.1839
16761TIP3    H271775   0.443   6.308  12.852  0.3894 -0.1354  1.4079
16762TIP3   OH271776   2.874   5.188   3.896  0.3968 -0.5074 -0.5364
16762TIP3    H171777   2.864   5.102   3.937 -3.0216  0.3421  0.6917
16762TIP3    H271778   2.891   5.248   3.968 -2.3101  0.5037 -0.6336
16763TIP3   OH271779   1.019   1.619   3.248  0.3290  0.6378  0.1758
16763TIP3    H171780   1.044   1.711   3.246 -0.7222  0.9244 -0.0421
16763TIP3    H271781   1.056   1.585   3.330  0.5541  1.2924  0.3465
16764TIP3   OH271782   3.650   4.750   0.733 -0.4055 -0.6163  0.5476
16764TIP3    H171783   3.578   4.761   0.670 -0.2755  0.1345  0.5221
16764TIP3    H271784   3.648   4.657   0.755 -1.4831 -0.5792  0.6672
16765TIP3   OH271785   2.663   1.998  16.580  0.0105  0.2684 -0.1766
16765TIP3    H171786   2.601   1.984  16.652  1.4171 -0.5616  0.9549
16765TIP3    H271787   2.743   1.954  16.610  0.3324 -1.0330 -2.7399
16766TIP3   OH271788   6.621   0.136   4.889 -0.1373  0.3860 -0.1243
16766TIP3    H171789   6.536   0.097   4.868 -0.1246  0.3879 -0.1782
16766TIP3    H271790   6.672   0.064   4.927 -0.6689  0.7293  1.2909
16767TIP3   OH271791   5.401   4.417  11.874 -0.2331 -0.3229  0.0713
16767TIP3    H171792   5.438   4.476  11.807  2.8453  0.3314  2.1430
16767TIP3    H271793   5.323   4.380  11.832 -0.2908  2.4466 -2.6702
16768TIP3   OH271794   0.327   3.951  14.256 -0.5618  0.2128 -0.2678
16768TIP3    H171795   0.350   4.038  14.288 -0.4244 -0.7695  2.5753
16768TIP3    H271796   0.338   3.894  14.332  2.1253 -2.8305 -2.6593
16769TIP3   OH271797   6.611   1.084  12.339  0.4031 -0.2357  0.4752
16769TIP3    H171798   6.668   1.030  12.393  1.4241  1.3639  1.0816
16769TIP3    H271799   6.662   1.103  12.260  0.2544  0.2239  0.4824
16770TIP3   OH271800   1.558   2.399   0.317 -0.1614  0.2656 -0.2566
16770TIP3    H171801   1.513   2.430   0.238  1.0018 -0.7779 -1.3814
16770TIP3    H271802   1.552   2.472   0.378  1.4491  2.3036 -2.3579
16771TIP3   OH271803   0.914   1.971   3.613  0.0647  0.4608  0.6353
16771TIP3    H171804   0.955   1.940   3.693 -0.3498 -2.6930 -0.2448
16771TIP3    H271805   0.868   1.894   3.577  1.7970  1.0878 -3.5814
16772TIP3   OH271806   2.328   4.735   1.841  0.2405  0.2066 -0.1786
16772TIP3    H171807   2.276   4.671   1.891 -0.8411  1.6848  0.6660
16772TIP3    H271808   2.349   4.689   1.760  2.2310 -2.3682  1.6252
16773TIP3   OH271809   2.953   6.712  17.019  0.1624 -0.3694  0.0914
16773TIP3    H171810   2.950   6.785  16.957  1.4147 -0.2932  0.0964
16773TIP3    H271811   3.003   6.745  17.093 -1.2701 -0.4851  1.1462
16774TIP3   OH271812   1.176   1.820   4.112 -0.0020  0.0939  0.0382
16774TIP3    H171813   1.214   1.818   4.199  0.5254 -0.6974 -0.1981
16774TIP3    H271814   1.229   1.884   4.064 -0.1900  0.4067  0.2370
16775TIP3   OH271815   2.695   2.492  13.211 -0.3857 -0.2297 -0.0830
16775TIP3    H171816   2.623   2.431  13.225 -1.4044  1.1406  0.8579
16775TIP3    H271817   2.681   2.562  13.275 -0.4703  2.0687 -2.4169
16776TIP3   OH271818   2.186   0.335  15.150  0.1387  0.1390  0.0680
16776TIP3    H171819   2.260   0.278  15.169 -1.2375 -1.2909  1.4556
16776TIP3    H271820   2.213   0.385  15.073  1.6370 -1.9655 -0.8641
16777TIP3   OH271821   4.756   0.233   6.083  0.5413 -0.2553 -0.0260
16777TIP3    H171822   4.747   0.153   6.031 -1.1160  0.2266 -0.5634
16777TIP3    H271823   4.850   0.247   6.091  0.8417 -1.4193 -1.2264
16778TIP3   OH271824   1.676   6.441   4.126  0.0238  0.3377  0.3225
16778TIP3    H171825   1.743   6.387   4.085  1.4985  1.8493  0.6506
16778TIP3    H271826   1.667   6.405   4.215 -0.1583 -0.3259  0.0422
16779TIP3   OH271827   0.715   6.599  15.431 -0.3135  0.0277 -0.2500
16779TIP3    H171828   0.660   6.525  15.453 -0.7425  0.5665  0.5111
16779TIP3    H271829   0.703   6.661  15.503  0.8208  0.4078 -0.3643
16780TIP3   OH271830   1.588   2.122  11.875  0.0919  0.6186  0.4274
16780TIP3    H171831   1.545   2.204  11.902 -0.0097  0.7474 -0.1061
16780TIP3    H271832   1.517   2.069  11.838  0.1334  0.2282  0.8973
16781TIP3   OH271833   1.449   4.279  11.200  0.0764 -0.1650  0.7517
16781TIP3    H171834   1.476   4.246  11.285 -1.6412 -0.3344  1.2686
16781TIP3    H271835   1.372   4.227  11.176 -0.8532  1.3779  0.1719
16782TIP3   OH271836   1.113   0.729   3.528  0.6589 -0.1412  0.6113
16782TIP3    H171837   1.060   0.768   3.598  0.3645 -1.2187  1.0260
16782TIP3    H271838   1.101   0.786   3.453  1.5355  1.4339  1.6290
16783TIP3   OH271839   6.315   5.480  16.474  0.2562 -0.2081  0.1489
16783TIP3    H171840   6.307   5.386  16.489  2.1238 -0.9772 -2.8441
16783TIP3    H271841   6.225   5.511  16.466 -0.3845 -2.1882 -0.8688
16784TIP3   OH271842   6.502   2.252   2.184  0.2214  0.3696 -0.2952
16784TIP3    H171843   6.504   2.259   2.088 -1.5528  0.3986 -0.3685
16784TIP3    H271844   6.481   2.160   2.200  0.5177  0.3663  0.0776
16785TIP3   OH271845   0.885   4.998  16.035  0.2308  0.7514  0.3143
16785TIP3    H171846   0.894   5.077  15.982  2.4387  1.0721  1.0451
16785TIP3    H271847   0.841   5.027  16.115 -0.6845  0.8071 -0.1898
16786TIP3   OH271848   4.668   2.000  15.357  0.5886  0.0939 -0.0723
16786TIP3    H171849   4.730   1.928  15.363  1.1786  0.5877 -0.0654
16786TIP3    H271850   4.711   2.064  15.299 -0.9629 -0.6034 -2.1457
16787TIP3   OH271851   1.203   6.782  13.081 -0.0161  0.2773  0.3387
16787TIP3    H171852   1.254   6.809  13.157  1.7358  0.3610 -0.8270
16787TIP3    H271853   1.236   6.695  13.060 -1.0474 -0.0755  0.1248
16788TIP3   OH271854   1.977   5.082  15.285 -0.2959 -0.1862 -0.2277
16788TIP3    H171855   1.917   5.092  15.212 -0.5756 -0.7426 -0.0804
16788TIP3    H271856   1.953   4.999  15.325 -1.0456  0.7219  1.3158
16789TIP3   OH271857   6.820   2.071  10.346 -0.0920 -0.0519  0.0661
16789TIP3    H171858   6.892   2.115  10.302 -1.2263  1.7298 -0.1130
16789TIP3    H271859   6.834   2.090  10.439 -0.3521  0.3252  0.0279
16790TIP3   OH271860   1.234   1.008  13.685  0.0403  0.1100  0.1982
16790TIP3    H171861   1.219   0.924  13.729 -0.4298 -0.0013 -0.1619
16790TIP3    H271862   1.214   1.074  13.751  0.3829 -0.0602  0.4729
16791TIP3   OH271863   3.782   3.866   3.983 -0.0537 -0.1868 -0.3159
16791TIP3    H171864   3.835   3.787   3.972 -0.8675 -0.7882 -0.0321
16791TIP3    H271865   3.819   3.909   4.061  1.8020  0.8993 -1.7190
16792TIP3   OH271866   4.898   6.741   4.039 -0.1328  0.1052  0.3580
16792TIP3    H171867   4.887   6.655   3.998 -0.0081 -0.0042  0.5509
16792TIP3    H271868   4.851   6.801   3.982 -1.4132 -0.2910  0.9459
16793TIP3   OH271869   1.031   2.489   2.016  0.3776  0.1724  0.0165
16793TIP3    H171870   1.087   2.566   2.014 -1.2380  1.3901 -1.3927
16793TIP3    H271871   1.023   2.463   1.924 -2.2003  0.7388  0.0015
16794TIP3   OH271872   0.538   4.300  15.585 -0.2590  0.4931  0.3235
16794TIP3    H171873   0.584   4.336  15.661 -1.6449 -0.7284  1.8002
16794TIP3    H271874   0.551   4.366  15.516  2.9627  0.5696  0.8635
16795TIP3   OH271875   4.165   2.602  11.703 -0.4053  0.5347 -0.4315
16795TIP3    H171876   4.130   2.683  11.739  0.0524  0.8830 -0.7473
16795TIP3    H271877   4.137   2.602  11.612 -1.6247 -0.3806 -0.0744
16796TIP3   OH271878   1.576   3.981   2.132 -0.0695 -0.6512 -0.4509
16796TIP3    H171879   1.559   3.888   2.150  0.4186 -0.3273  2.1858
16796TIP3    H271880   1.545   4.026   2.211 -0.2617  1.4399 -1.6630
16797TIP3   OH271881   3.304   3.179  15.205  0.6853 -0.6780  0.5475
16797TIP3    H171882   3.398   3.192  15.193  0.0171  3.1664 -2.2969
16797TIP3    H271883   3.275   3.258  15.251 -1.1522 -2.0061  1.8107
16798TIP3   OH271884   5.588   5.038  14.797 -0.5325 -0.5220 -0.2742
16798TIP3    H171885   5.650   5.072  14.860 -1.4706  0.4211  0.1714
16798TIP3    H271886   5.601   4.943  14.798 -1.1508 -0.6386  2.0385
16799TIP3   OH271887   3.479   6.491   0.357  0.5820 -0.3284  0.0517
16799TIP3    H171888   3.520   6.404   0.359 -1.2870 -1.3162 -0.9087
16799TIP3    H271889   3.399   6.481   0.409 -0.5046  0.2742 -1.4006
16800TIP3   OH271890   0.826   3.159   2.630 -0.0357  1.0020  0.0699
16800TIP3    H171891   0.909   3.163   2.679 -0.3944  1.2230  0.6733
16800TIP3    H271892   0.847   3.108   2.552  0.0104 -1.4391  1.5545
16801TIP3   OH271893   0.408   0.049   1.520  0.3523 -0.2422  0.4833
16801TIP3    H171894   0.315   0.066   1.510  0.8583  2.3189 -0.7790
16801TIP3    H271895   0.441   0.042   1.430  1.2886 -1.9515  0.9169
16802TIP3   OH271896   4.376   6.464  15.985 -0.3110  0.5007 -0.4090
16802TIP3    H171897   4.394   6.382  15.938 -1.3147  1.3549 -2.4123
16802TIP3    H271898   4.463   6.497  16.009  0.1842 -0.4473 -0.8300
16803TIP3   OH271899   4.350   0.609  17.088  0.0374  0.3945 -0.1471
16803TIP3    H171900   4.340   0.655  17.171  0.2007  1.1179 -0.5131
16803TIP3    H271901   4.374   0.678  17.026 -2.2800  0.3021 -1.2715
16804TIP3   OH271902   6.252   3.769   1.757 -0.5002 -0.1572  0.9778
16804TIP3    H171903   6.239   3.750   1.664 -1.5912  0.6038  0.9519
16804TIP3    H271904   6.271   3.685   1.797  2.1681 -0.2506 -0.2488
16805TIP3   OH271905   1.571   0.905  16.449  0.0724  0.4649 -0.0672
16805TIP3    H171906   1.592   0.955  16.528  0.2867  1.4795 -0.7403
16805TIP3    H271907   1.486   0.940  16.421 -0.1058 -0.0439 -0.1709
16806TIP3   OH271908   0.420   2.730   4.941 -0.3162  0.1477  0.2561
16806TIP3    H171909   0.342   2.694   4.983 -0.9452  0.9856 -0.1539
16806TIP3    H271910   0.489   2.667   4.959 -0.9172 -0.2379  1.2785
16807TIP3   OH271911   0.538   2.204  15.059  0.3637 -0.4513 -0.0572
16807TIP3    H171912   0.610   2.164  15.010 -0.4151 -0.4205 -1.2658
16807TIP3    H271913   0.504   2.133  15.113  0.3677 -0.8645 -0.5876
16808TIP3   OH271914   2.828   5.277  13.561 -0.5321 -0.1492  0.4330
16808TIP3    H171915   2.868   5.198  13.526 -0.8279  0.1259 -0.5406
16808TIP3    H271916   2.855   5.347  13.502 -1.0279  0.3279  0.7518
16809TIP3   OH271917   2.656   4.899  10.675 -0.0298 -0.1520 -0.0761
16809TIP3    H171918   2.691   4.812  10.654 -4.1669 -1.6597 -1.6290
16809TIP3    H271919   2.590   4.882  10.742 -0.1245  2.0270  0.4347
16810TIP3   OH271920   4.834   2.145  14.629 -0.8101  0.2582  0.0600
16810TIP3    H171921   4.857   2.092  14.553  0.1629 -0.9087  1.1184
16810TIP3    H271922   4.782   2.086  14.685 -1.3388  1.0282  0.4119
16811TIP3   OH271923   0.396   2.342   0.848 -0.2475  0.0498 -0.3845
16811TIP3    H171924   0.359   2.340   0.760  0.7942 -0.3095 -0.8222
16811TIP3    H271925   0.389   2.434   0.875  0.6054  0.4159 -1.3625
16812TIP3   OH271926   5.407   6.630   1.558 -0.2748  0.2501  0.2431
16812TIP3    H171927   5.487   6.645   1.508 -0.0795 -2.8829 -0.5634
16812TIP3    H271928   5.371   6.718   1.573  4.5349  2.1060  2.9021
16813TIP3   OH271929   3.314   0.585  15.817 -0.0837 -0.3557  0.3685
16813TIP3    H171930   3.406   0.566  15.796 -0.2364 -0.4832 -0.2070
16813TIP3    H271931   3.309   0.575  15.912  0.0092 -2.5507  0.1892
16814TIP3   OH271932   5.728   5.833   2.534 -0.0682 -0.4265 -0.7886
16814TIP3    H171933   5.762   5.859   2.448  0.7275  1.2077 -0.0267
16814TIP3    H271934   5.802   5.789   2.576 -0.0488 -0.0855 -0.4666
16815TIP3   OH271935   2.926   3.577  10.647  0.0630  0.4352  0.3460
16815TIP3    H171936   2.954   3.631  10.573 -2.7161  0.6951 -0.6197
16815TIP3    H271937   2.836   3.606  10.665 -0.2030 -1.3512  2.2205
16816TIP3   OH271938   6.422   1.025   3.838 -0.1425 -0.3273 -0.0318
16816TIP3    H171939   6.454   0.951   3.889  0.1602  1.3032  2.3063
16816TIP3    H271940   6.327   1.018   3.841 -0.1259 -1.5843 -1.4149
16817TIP3   OH271941   3.608   4.495  13.886  1.1109 -0.1821 -0.1389
16817TIP3    H171942   3.659   4.570  13.853  1.5311 -0.2592  0.3205
16817TIP3    H271943   3.517   4.522  13.876  1.2578  0.3667 -0.0414
16818TIP3   OH271944   4.659   2.239   3.850  0.2589 -0.1185  0.5802
16818TIP3    H171945   4.654   2.186   3.771  1.1625  0.3512  0.1870
16818TIP3    H271946   4.596   2.310   3.836  0.7213  0.2030  0.0844
16819TIP3   OH271947   5.615   4.595  16.224  0.9830 -0.6222  0.4274
16819TIP3    H171948   5.591   4.534  16.294  1.2971 -2.3968 -0.9426
16819TIP3    H271949   5.531   4.621  16.185  0.8856 -0.9698  0.3982
16820TIP3   OH271950   4.558   3.935  16.156  0.0941 -0.1259 -0.0511
16820TIP3    H171951   4.582   3.973  16.071  0.2765 -0.1225 -0.0008
16820TIP3    H271952   4.527   3.847  16.135  2.8333 -1.2316  0.1037
16821TIP3   OH271953   2.415   3.579   1.029 -0.3318  0.4927 -0.5013
16821TIP3    H171954   2.443   3.621   1.111 -3.6850 -1.0096  1.6522
16821TIP3    H271955   2.484   3.516   1.009  1.3689  2.0594  0.1717
16822TIP3   OH271956   3.216   4.201   3.105 -0.3861  0.6434 -0.2254
16822TIP3    H171957   3.189   4.133   3.043 -0.8171  1.5437 -1.0511
16822TIP3    H271958   3.149   4.269   3.097 -0.3305  0.8818  1.0876
16823TIP3   OH271959   0.800   6.343   0.240 -0.8199 -0.6659  0.3442
16823TIP3    H171960   0.784   6.422   0.292  2.0953 -0.7123  1.5182
16823TIP3    H271961   0.801   6.375   0.149 -1.2483  0.3473  0.6776
16824TIP3   OH271962   2.500   3.996  12.498 -0.2616 -0.9981  0.4623
16824TIP3    H171963   2.493   3.988  12.403 -1.7405 -0.6090  0.5161
16824TIP3    H271964   2.577   4.053  12.511  0.6958 -2.0345 -0.4306
16825TIP3   OH271965   3.678   4.828   5.695 -0.7321 -0.3245 -0.5465
16825TIP3    H171966   3.606   4.772   5.666 -1.0697 -0.0592 -0.2390
16825TIP3    H271967   3.640   4.916   5.695 -0.5365 -0.2413  0.0515
16826TIP3   OH271968   1.013   3.847   0.252  0.3546  0.1521 -0.0880
16826TIP3    H171969   0.935   3.853   0.307  0.5109  0.3947  0.1092
16826TIP3    H271970   0.984   3.875   0.165 -0.6467 -3.0670 -0.9242
16827TIP3   OH271971   2.764   3.961   5.559 -0.4186 -0.2463 -0.1672
16827TIP3    H171972   2.683   3.913   5.577 -0.0146 -0.7540  0.3643
16827TIP3    H271973   2.815   3.902   5.503  0.0490 -0.4173  0.4252
16828TIP3   OH271974   2.836   5.505  14.997 -0.6228  0.0296  0.0241
16828TIP3    H171975   2.894   5.488  15.071 -1.8490  0.9031  1.2492
16828TIP3    H271976   2.891   5.548  14.932  0.6283 -1.3299  0.1503
16829TIP3   OH271977   1.346   5.253   5.201  0.5362 -0.4090 -0.3056
16829TIP3    H171978   1.390   5.292   5.276  0.5700 -0.0082 -0.5289
16829TIP3    H271979   1.363   5.314   5.129  0.8599 -1.0010 -0.7385
16830TIP3   OH271980   2.283   3.988  14.902  0.3450 -0.2784 -0.1011
16830TIP3    H171981   2.216   3.958  14.841  0.2084  1.9544 -1.1383
16830TIP3    H271982   2.362   3.998  14.849  0.3081  1.3923  0.1252
16831TIP3   OH271983   5.434   2.243  15.456 -0.1010 -0.6745  0.1427
16831TIP3    H171984   5.424   2.172  15.392  0.9931  1.4820 -2.6466
16831TIP3    H271985   5.351   2.291  15.451  0.4278  0.1818 -0.5945
16832TIP3   OH271986   3.943   0.027   3.467  0.1654  0.5584  0.0540
16832TIP3    H171987   3.883  -0.041   3.435 -2.1372  0.9741  2.9763
16832TIP3    H271988   3.941   0.095   3.399 -0.0282 -0.8531 -1.4238
16833TIP3   OH271989   6.697   5.478   4.654 -0.5070 -0.0959  0.6854
16833TIP3    H171990   6.739   5.472   4.740  1.2191 -1.4391 -0.1929
16833TIP3    H271991   6.624   5.415   4.659  0.8989 -1.8154  0.5143
16834TIP3   OH271992   3.335   5.381   3.053  0.2984  0.7177  0.1982
16834TIP3    H171993   3.431   5.386   3.046  0.2341  0.1030 -1.6296
16834TIP3    H271994   3.307   5.345   2.968 -1.5472  0.7898  0.7477
16835TIP3   OH271995   5.958   5.738   2.654  0.2090  0.3712  0.0710
16835TIP3    H171996   5.964   5.656   2.704 -1.0376 -0.0964 -0.5091
16835TIP3    H271997   5.996   5.717   2.569 -0.3664  0.3107 -0.1729
16836TIP3   OH271998   2.010   1.147  15.166  0.4742 -0.0816 -0.4625
16836TIP3    H171999   1.931   1.114  15.210  1.4212 -2.0710 -0.1278
16836TIP3    H272000   1.987   1.148  15.073 -0.8737  2.1893 -0.1649
16837TIP3   OH272001   4.056   1.833  16.162  0.1927 -0.2110  0.5041
16837TIP3    H172002   4.044   1.927  16.175 -0.5588 -0.3000  0.4719
16837TIP3    H272003   4.107   1.826  16.081 -1.9642  0.1049 -0.9540
16838TIP3   OH272004   5.347   4.287  11.475  0.5288  0.0273  0.0063
16838TIP3    H172005   5.429   4.330  11.499  1.2999  1.2724 -4.0563
16838TIP3    H272006   5.374   4.210  11.426 -0.7398 -0.0230 -0.6510
16839TIP3   OH272007   5.389   3.448  10.320  0.4008 -0.1792 -0.2991
16839TIP3    H172008   5.337   3.371  10.301 -0.6590  0.4706 -0.1411
16839TIP3    H272009   5.475   3.429  10.283 -0.0807 -1.0871 -0.9986
16840TIP3   OH272010   2.621   1.820  16.785  0.1210 -0.0562 -0.0831
16840TIP3    H172011   2.660   1.890  16.837  0.2505 -0.2609  0.0941
16840TIP3    H272012   2.608   1.748  16.847  0.6912 -0.4610 -0.4288
16841TIP3   OH272013   0.287   4.803   5.647 -0.4970  0.2077 -0.6395
16841TIP3    H172014   0.307   4.837   5.734 -0.4386  1.4665 -1.1329
16841TIP3    H272015   0.308   4.709   5.653 -0.8225  0.2099  0.7908
16842TIP3   OH272016   0.479   4.102  13.059  0.4577 -0.3688  0.2058
16842TIP3    H172017   0.469   4.019  13.012  0.6160 -0.2969  0.0453
16842TIP3    H272018   0.475   4.077  13.152 -2.8159 -0.1767  0.2242
16843TIP3   OH272019   2.018   4.859   0.102 -0.6398  0.1861 -0.0476
16843TIP3    H172020   2.015   4.776   0.150 -1.5691  0.7761  0.9608
16843TIP3    H272021   1.987   4.924   0.165  0.5049  1.3831 -0.6622
16844TIP3   OH272022   3.749   6.460   4.452  0.1116 -0.1115 -0.3188
16844TIP3    H172023   3.673   6.518   4.463  1.1043  1.0089  0.9592
16844TIP3    H272024   3.744   6.432   4.360 -2.5497 -1.1270  0.0360
16845TIP3   OH272025   5.147   2.141   1.843 -0.3736  0.2901  0.2530
16845TIP3    H172026   5.077   2.167   1.783 -0.1154  0.2858 -0.0510
16845TIP3    H272027   5.227   2.162   1.797 -0.1702  0.1126  0.5232
16846TIP3   OH272028   0.882   5.147   5.329  0.1623 -0.3590  0.1683
16846TIP3    H172029   0.787   5.139   5.322 -0.3645  0.4542  3.8659
16846TIP3    H272030   0.914   5.058   5.336 -0.0973 -0.7060 -2.2974
16847TIP3   OH272031   2.752   3.105  14.826  0.9782 -0.5169 -0.0510
16847TIP3    H172032   2.680   3.147  14.778  0.7180 -0.3610  0.4721
16847TIP3    H272033   2.817   3.086  14.758  0.2606 -1.0726 -0.6049
16848TIP3   OH272034   3.935   3.563  11.239  0.5422 -0.0779 -0.1210
16848TIP3    H172035   3.998   3.497  11.212  0.8802  0.1430  0.1105
16848TIP3    H272036   3.988   3.641  11.257 -0.0121  0.8833 -2.2857
16849TIP3   OH272037   4.742   2.593   0.117 -0.0660 -0.2078 -0.3400
16849TIP3    H172038   4.817   2.653   0.120  0.1294 -0.4252 -0.6922
16849TIP3    H272039   4.675   2.635   0.169  1.0173 -0.9819  1.7944
16850TIP3   OH272040   0.421   3.921   2.670  0.6480 -0.5112 -0.1988
16850TIP3    H172041   0.413   3.960   2.583  1.3101 -0.3083 -0.1727
16850TIP3    H272042   0.476   3.982   2.719 -0.4611 -0.1622  0.6503
16851TIP3   OH272043   4.663   6.622   0.850  0.4897 -0.5378 -0.0155
16851TIP3    H172044   4.683   6.575   0.931  1.0637  0.8443  0.6748
16851TIP3    H272045   4.745   6.665   0.827  0.1577 -0.4241 -1.0058
16852TIP3   OH272046   6.614   3.602   4.838  1.0133  0.3198 -0.3078
16852TIP3    H172047   6.567   3.610   4.755  1.8486  1.1434 -0.7224
16852TIP3    H272048   6.548   3.570   4.900  0.5621 -1.0656 -1.4514
16853TIP3   OH272049   5.858   0.575   1.997 -0.0946 -0.7241 -0.3090
16853TIP3    H172050   5.932   0.580   2.057  0.3168 -0.1161 -0.8470
16853TIP3    H272051   5.884   0.631   1.923 -0.7675 -1.1133 -0.8487
16854TIP3   OH272052   6.814   4.747   5.697  0.3407 -0.1387 -0.0244
16854TIP3    H172053   6.775   4.703   5.772  0.2322  0.5400  0.3247
16854TIP3    H272054   6.871   4.681   5.658 -0.9362 -1.0582 -0.3954
16855TIP3   OH272055   2.968   1.493  12.035 -0.1374  0.0087 -0.3668
16855TIP3    H172056   2.983   1.545  11.957 -1.5893 -1.6212 -1.8141
16855TIP3    H272057   2.907   1.545  12.087  1.0050  1.1981 -0.1839
16856TIP3   OH272058   4.270   4.163   4.890  0.0146 -0.2628 -0.6377
16856TIP3    H172059   4.185   4.203   4.904 -0.0313 -0.0351 -1.5378
16856TIP3    H272060   4.263   4.119   4.805  0.6451 -0.6259 -0.5097
16857TIP3   OH272061   4.022   3.963   0.681  0.4509  0.0188 -0.2510
16857TIP3    H172062   4.098   3.937   0.733  1.0013 -0.4316 -1.2398
16857TIP3    H272063   3.963   4.005   0.743  0.9337 -0.8001  0.7987
16858TIP3   OH272064   1.175   1.397   0.119 -0.0601 -0.0683 -0.1426
16858TIP3    H172065   1.106   1.332   0.107 -0.3247  0.2508 -0.3790
16858TIP3    H272066   1.130   1.473   0.154  0.0919  0.2951 -0.7186
16859TIP3   OH272067   1.973   2.983   1.822  0.1406  0.7126 -0.0279
16859TIP3    H172068   1.967   2.899   1.778  0.1440  0.7470 -0.0936
16859TIP3    H272069   2.011   2.962   1.908  1.0716  0.7759 -0.4155
16860TIP3   OH272070   1.694   3.544  13.772 -0.2172 -0.2597  0.6639
16860TIP3    H172071   1.745   3.465  13.754 -1.8165 -1.1380 -0.3280
16860TIP3    H272072   1.754   3.616  13.753  0.9024 -1.2271  0.3634
16861TIP3   OH272073   6.745   4.244  15.622 -0.4282  0.1910 -0.4089
16861TIP3    H172074   6.663   4.199  15.604  0.1462 -0.1429 -2.4445
16861TIP3    H272075   6.780   4.199  15.699 -2.0890  0.3128  0.4738
16862TIP3   OH272076   5.546   5.632   2.528  0.2207  0.4187 -0.1851
16862TIP3    H172077   5.604   5.708   2.536  2.0453 -0.9702  0.1295
16862TIP3    H272078   5.580   5.568   2.589 -1.3456 -0.6648 -0.3801
16863TIP3   OH272079   1.994   2.318  15.364 -0.5305 -0.3390  0.6191
16863TIP3    H172080   2.063   2.274  15.413  0.4766 -0.6330 -1.0060
16863TIP3    H272081   1.924   2.332  15.428  1.2422  0.4966  2.4567
16864TIP3   OH272082   3.730   5.756  15.778 -0.4675 -0.4081  0.5973
16864TIP3    H172083   3.795   5.799  15.834  0.6752 -1.2306 -0.0613
16864TIP3    H272084   3.782   5.699  15.721 -1.8697 -2.2207  1.0387
16865TIP3   OH272085   5.585   1.823  13.501 -0.3196  0.7102 -0.1208
16865TIP3    H172086   5.640   1.759  13.547 -0.2230  1.2201  0.5030
16865TIP3    H272087   5.616   1.908  13.534 -0.0301  1.1090 -1.3876
16866TIP3   OH272088   2.926   1.942  12.655  0.2695  0.8362  0.3516
16866TIP3    H172089   2.965   1.997  12.586  0.4672 -0.3373 -0.4979
16866TIP3    H272090   3.000   1.896  12.694 -0.0117  0.2725  0.2374
16867TIP3   OH272091   1.387   2.162  10.686 -0.5555  0.2693 -0.5361
16867TIP3    H172092   1.320   2.181  10.621 -1.4134 -1.6078 -0.2607
16867TIP3    H272093   1.418   2.074  10.663  0.7482  0.4975  0.2438
16868TIP3   OH272094   2.940   0.344  16.982  0.3492  0.3141  0.0296
16868TIP3    H172095   2.879   0.393  16.928  2.0610 -1.0464 -3.5011
16868TIP3    H272096   3.004   0.409  17.012 -2.1345  1.5889  3.0720
16869TIP3   OH272097   5.962   3.215  13.544 -0.1953  0.2774  0.4993
16869TIP3    H172098   5.888   3.273  13.526  1.5326  2.0729 -1.3741
16869TIP3    H272099   6.003   3.254  13.621  1.0987  1.8249 -0.8936
16870TIP3   OH272100   6.501   3.372  14.871  0.3652 -0.1030 -0.2431
16870TIP3    H172101   6.453   3.421  14.803 -0.1455  1.4658  1.1795
16870TIP3    H272102   6.591   3.403  14.862  0.5276 -0.7342 -0.9021
16871TIP3   OH272103   0.431   5.088  13.542 -0.1367  0.4835 -0.1051
16871TIP3    H172104   0.388   5.171  13.523  0.9972  1.2393  0.4932
16871TIP3    H272105   0.497   5.110  13.608  0.3102 -0.8600 -0.0763
16872TIP3   OH272106   0.551   5.469   6.650  0.0529  0.8871  0.4612
16872TIP3    H172107   0.549   5.385   6.695 -0.5441  0.7382  0.1646
16872TIP3    H272108   0.464   5.506   6.663  0.1515  1.2347  0.1653
16873TIP3   OH272109   1.104   3.160   3.803  0.1519  0.0377 -0.1517
16873TIP3    H172110   1.054   3.123   3.731 -0.3203  0.6069 -0.1189
16873TIP3    H272111   1.152   3.234   3.765 -1.1304  1.1868  0.3752
16874TIP3   OH272112   2.425   4.438  15.045  0.0177 -1.0313  0.4991
16874TIP3    H172113   2.388   4.521  15.076 -0.8763 -0.2022 -2.4809
16874TIP3    H272114   2.510   4.461  15.009 -0.3194 -1.3397 -0.5220
16875TIP3   OH272115   2.409   3.164  14.588 -0.2713  0.3156 -0.4606
16875TIP3    H172116   2.406   3.203  14.675 -1.3734  2.3597 -1.3257
16875TIP3    H272117   2.502   3.153  14.569 -0.0353 -1.3027  1.4042
16876TIP3   OH272118   0.381   2.214   4.008  0.1216  0.8946  0.4158
16876TIP3    H172119   0.357   2.147   3.945 -0.5727  1.8816 -0.4097
16876TIP3    H272120   0.311   2.279   4.002  0.8223  1.7448  1.1093
16877TIP3   OH272121   3.441   5.308  12.867 -0.1270 -0.0868  0.4046
16877TIP3    H172122   3.452   5.326  12.960 -0.0989 -0.1000  0.4041
16877TIP3    H272123   3.525   5.274  12.839  0.4576  1.5786 -0.0178
16878TIP3   OH272124   6.442   4.140   6.188  0.1987  0.0359  0.0359
16878TIP3    H172125   6.521   4.169   6.233 -0.7814 -0.0228  1.8995
16878TIP3    H272126   6.459   4.049   6.167  0.7326  0.0914  0.1955
16879TIP3   OH272127   4.883   4.289  13.902  0.4101 -0.2272  0.1135
16879TIP3    H172128   4.964   4.281  13.953  0.2313 -0.2032  0.4023
16879TIP3    H272129   4.897   4.367  13.848  0.8756 -0.6467 -0.3814
16880TIP3   OH272130   0.658   6.643  15.818 -0.2835 -0.4176  0.3123
16880TIP3    H172131   0.735   6.700  15.814  0.8034 -1.8797 -2.0387
16880TIP3    H272132   0.692   6.558  15.848 -0.7367 -1.3248 -1.5862
16881TIP3   OH272133   1.098   2.412  10.352 -0.3009  0.2002 -0.3175
16881TIP3    H172134   1.084   2.506  10.340  0.9032  0.5934  1.0687
16881TIP3    H272135   1.191   2.399  10.336 -0.3283 -0.6332  0.1525
16882TIP3   OH272136   5.031   5.405  15.140  0.4762 -0.2869 -0.8614
16882TIP3    H172137   5.123   5.378  15.143  0.5722  0.0328 -0.8892
16882TIP3    H272138   4.982   5.323  15.131  0.6739 -0.5685  0.4881
16883TIP3   OH272139   2.882   2.024   3.758  0.5847  0.0349 -0.1368
16883TIP3    H172140   2.907   2.072   3.680 -2.7646  2.3753  0.0211
16883TIP3    H272141   2.816   1.961   3.728  0.5288 -0.2429  0.5409
16884TIP3   OH272142   3.022   5.904  13.656  0.9002 -0.6087  0.1409
16884TIP3    H172143   3.026   5.817  13.696 -1.1254 -0.1619  1.4933
16884TIP3    H272144   2.991   5.887  13.567  1.1591 -1.3265  0.1800
16885TIP3   OH272145   2.792   2.112  12.866  0.7485  0.2512  0.1424
16885TIP3    H172146   2.851   2.071  12.803  0.4715 -0.2840  0.2303
16885TIP3    H272147   2.809   2.067  12.948  0.0883 -0.0453  0.1262
16886TIP3   OH272148   5.844   3.488  14.033 -0.4495  0.1267  0.1682
16886TIP3    H172149   5.797   3.571  14.026 -0.4198  0.1585  0.3540
16886TIP3    H272150   5.934   3.510  14.006  0.5701  1.0244  3.7477
16887TIP3   OH272151   1.848   2.553   2.322 -0.3192  0.2837  0.4303
16887TIP3    H172152   1.853   2.515   2.410 -0.9970  0.9580  0.7729
16887TIP3    H272153   1.931   2.599   2.311 -0.7654  1.3381  1.2755
16888TIP3   OH272154   5.463   6.162   3.345  0.0269 -0.2331 -0.2971
16888TIP3    H172155   5.459   6.241   3.399 -0.5252 -0.7922  0.5012
16888TIP3    H272156   5.503   6.096   3.402  2.8194  0.0658 -1.7337
16889TIP3   OH272157   5.040   4.333   2.818 -0.2381  0.2887  0.1298
16889TIP3    H172158   5.110   4.290   2.770 -0.0755 -0.6803  1.2078
16889TIP3    H272159   5.064   4.426   2.817 -0.4308  0.3580 -1.9452
16890TIP3   OH272160   5.586   5.959  13.099 -0.1741 -0.6789 -0.2662
16890TIP3    H172161   5.623   5.958  13.188 -0.6047  1.7676  0.0201
16890TIP3    H272162   5.656   5.926  13.043  1.3093  0.7671  0.6454
16891TIP3   OH272163   5.979   5.008   4.699  0.2969 -0.0145  0.1011
16891TIP3    H172164   5.968   4.987   4.792 -2.0724 -0.7093 -0.2655
16891TIP3    H272165   5.995   5.102   4.696 -0.8542  0.2357  1.1695
16892TIP3   OH272166   5.994   2.792  10.969  0.0628  0.1206 -0.3703
16892TIP3    H172167   6.043   2.759  10.894  0.6656 -0.8898  0.4319
16892TIP3    H272168   6.002   2.887  10.962  0.4405  0.0329 -1.3653
16893TIP3   OH272169   0.646   4.133  13.368 -0.4788 -0.3821 -0.3164
16893TIP3    H172170   0.597   4.139  13.450  0.1510  0.5474  0.0070
16893TIP3    H272171   0.617   4.050  13.329 -3.3889  0.7679 -0.8642
16894TIP3   OH272172   0.089   5.581  12.072 -0.4980 -0.6406 -0.2036
16894TIP3    H172173   0.163   5.547  12.121  1.1945  1.2769 -1.2964
16894TIP3    H272174   0.076   5.518  12.002  0.1081 -0.9908 -0.0092
16895TIP3   OH272175   3.687   3.589  12.089 -0.3502  0.4122 -0.3750
16895TIP3    H172176   3.644   3.636  12.161  0.6594  0.2445  0.3745
16895TIP3    H272177   3.642   3.505  12.084 -1.3016  0.9340 -0.8422
16896TIP3   OH272178   3.911   2.500  12.799 -0.1393 -1.1691 -0.4954
16896TIP3    H172179   3.983   2.531  12.854 -0.9647 -0.4493  0.1862
16896TIP3    H272180   3.894   2.411  12.830 -1.8387 -0.1553  1.7666
16897TIP3   OH272181   5.735   1.250  16.459  0.1874 -0.1555 -0.4034
16897TIP3    H172182   5.735   1.294  16.544  1.6810  0.2900 -0.6023
16897TIP3    H272183   5.756   1.159  16.479 -0.0341 -0.1770 -0.2564
16898TIP3   OH272184   2.906   2.974  11.280 -0.0575 -0.3970  0.0757
16898TIP3    H172185   2.841   2.911  11.251 -0.1346 -1.0955  1.7014
16898TIP3    H272186   2.932   2.944  11.367  2.5349 -0.2251 -0.5540
16899TIP3   OH272187   3.726   1.134  14.554  0.2207 -0.2410 -0.1784
16899TIP3    H172188   3.739   1.229  14.562  0.8259 -0.2899 -0.5269
16899TIP3    H272189   3.787   1.107  14.486 -1.0496 -0.6450 -1.1980
16900TIP3   OH272190   1.719   2.476  11.427 -0.2028  0.0831 -0.3235
16900TIP3    H172191   1.812   2.488  11.447 -0.5772  0.1330  1.5960
16900TIP3    H272192   1.715   2.472  11.331  1.7405  0.2711 -0.4500
16901TIP3   OH272193   2.500   0.003  17.101  0.2601  0.3198  0.1159
16901TIP3    H172194   2.590   0.034  17.092  0.2327  0.0193 -1.5635
16901TIP3    H272195   2.450   0.081  17.125  0.7152  0.8625 -0.6359
16902TIP3   OH272196   6.042   3.975   0.378  0.8414  0.3431  0.1303
16902TIP3    H172197   6.125   3.993   0.423  0.7488  1.2281 -0.0431
16902TIP3    H272198   6.033   3.879   0.383  0.9954  0.3800  1.7171
16903TIP3   OH272199   2.894   4.523   2.267  0.7965  0.1149 -0.0567
16903TIP3    H172200   2.837   4.584   2.220  0.2848 -0.4626 -0.2056
16903TIP3    H272201   2.947   4.482   2.198  2.9211  2.1414  0.2600
16904TIP3   OH272202   1.015   0.490  15.643 -0.1260 -0.1935 -0.5289
16904TIP3    H172203   1.089   0.462  15.589 -0.4431 -1.8160 -0.1742
16904TIP3    H272204   0.938   0.476  15.588 -0.2197  1.4131 -0.8670
16905TIP3   OH272205   5.541   3.225  11.507  0.5073 -0.0672 -0.0727
16905TIP3    H172206   5.623   3.178  11.492  0.1295 -0.8337  0.1667
16905TIP3    H272207   5.493   3.169  11.568 -0.3378  0.2041 -0.4746
16906TIP3   OH272208   4.020   4.430   6.022  0.2802  0.2038 -0.3276
16906TIP3    H172209   3.949   4.372   5.994  0.4016 -0.4485  0.6669
16906TIP3    H272210   3.976   4.509   6.052 -0.0019 -0.0064 -0.1777
16907TIP3   OH272211   0.352   4.714  16.343  0.0123  0.3118 -0.1065
16907TIP3    H172212   0.318   4.737  16.257  1.2818 -1.7310 -1.2546
16907TIP3    H272213   0.368   4.798  16.386  0.6473  1.4665 -2.4170
16908TIP3   OH272214   4.710   6.052  10.650 -0.0486 -0.0460 -0.3927
16908TIP3    H172215   4.681   6.143  10.648 -0.1148 -0.0715 -0.6446
16908TIP3    H272216   4.631   6.003  10.672 -0.1272 -0.0845 -0.7431
16909TIP3   OH272217   4.703   3.028   1.867 -0.0284  0.1725 -0.9086
16909TIP3    H172218   4.669   3.114   1.891 -2.8445 -1.0111 -0.3119
16909TIP3    H272219   4.699   3.027   1.771 -0.2736  0.5953 -0.9055
16910TIP3   OH272220   4.154   1.117   4.445  0.9078 -0.4088 -0.5907
16910TIP3    H172221   4.222   1.078   4.500  0.3899 -1.7586 -0.8734
16910TIP3    H272222   4.072   1.095   4.488  0.4992 -1.3967 -1.8247
16911TIP3   OH272223   1.528   1.509  14.782 -0.2172  0.1410 -0.2046
16911TIP3    H172224   1.453   1.453  14.801 -2.8442  2.9341 -1.5301
16911TIP3    H272225   1.494   1.575  14.721  3.1472  2.0388 -0.2604
16912TIP3   OH272226   4.736   6.146  15.781  0.8182  0.1765  0.1537
16912TIP3    H172227   4.644   6.155  15.806  1.1142  0.2724  1.2587
16912TIP3    H272228   4.743   6.056  15.747 -0.0121  0.6944 -1.4851
16913TIP3   OH272229   0.405   2.339  16.638 -0.0778 -0.1587 -0.7085
16913TIP3    H172230   0.351   2.406  16.596 -2.0444 -0.5760  0.9885
16913TIP3    H272231   0.347   2.264  16.649 -0.0708  0.1671  3.3240
16914TIP3   OH272232   0.304   5.311  12.367  0.1621 -0.0353  0.2023
16914TIP3    H172233   0.287   5.376  12.435  0.2884 -1.1831  1.3813
16914TIP3    H272234   0.217   5.287  12.336  0.0817  0.2339  0.2159
16915TIP3   OH272235   0.016   5.010  16.079  0.2425  0.6350  0.1873
16915TIP3    H172236  -0.032   4.927  16.077 -1.6439  1.5883  1.9373
16915TIP3    H272237   0.049   5.020  15.990 -1.8951 -0.6539 -0.8291
16916TIP3   OH272238   0.166   0.137  13.140 -0.1764  0.1195 -0.3431
16916TIP3    H172239   0.243   0.191  13.159  0.9391 -1.2636 -0.7369
16916TIP3    H272240   0.196   0.075  13.074 -1.3494 -1.0978  0.2161
16917TIP3   OH272241   3.141   5.073  15.463  0.3767 -0.3809 -0.3016
16917TIP3    H172242   3.236   5.072  15.456  0.2729 -1.6993 -2.2861
16917TIP3    H272243   3.123   5.136  15.534  2.6707  0.2128 -0.1605
16918TIP3   OH272244   5.591   0.251   1.326  0.1550  0.5798 -0.4452
16918TIP3    H172245   5.655   0.305   1.281 -1.4095  2.8091 -0.1589
16918TIP3    H272246   5.585   0.289   1.414  0.1721 -1.1058  0.3227
16919TIP3   OH272247   5.437   3.806   1.376 -0.1555  0.1913  0.0229
16919TIP3    H172248   5.345   3.821   1.396 -0.8420 -0.7146 -2.2159
16919TIP3    H272249   5.484   3.840   1.453 -2.2776  1.4185  0.8549
16920TIP3   OH272250   3.164   5.100   1.670 -0.2895 -0.0560  0.1301
16920TIP3    H172251   3.234   5.080   1.607  0.3986  1.0357  0.5222
16920TIP3    H272252   3.143   5.015   1.710  0.2970 -0.5196 -0.5117
16921TIP3   OH272253   4.185   0.093  11.699 -0.2556  0.4767  0.0592
16921TIP3    H172254   4.139   0.115  11.780  0.6518 -0.0885  0.7505
16921TIP3    H272255   4.129   0.028  11.657 -0.6301  0.6115  0.3384
16922TIP3   OH272256   1.362   2.095   4.421 -0.7055  0.6155  0.1747
16922TIP3    H172257   1.334   2.010   4.387  1.9978 -0.5198  0.5186
16922TIP3    H272258   1.318   2.159   4.365 -2.0138 -1.0081 -0.7524
16923TIP3   OH272259   2.551   5.050  12.944  0.1670 -0.4219  0.3372
16923TIP3    H172260   2.576   4.965  12.909 -2.1442 -0.6006 -1.1312
16923TIP3    H272261   2.504   5.030  13.025  0.8413 -0.4230  0.7322
16924TIP3   OH272262   0.610   1.695   5.389  0.1526 -0.1452  0.2334
16924TIP3    H172263   0.649   1.619   5.433 -0.8888  0.1097  1.7005
16924TIP3    H272264   0.682   1.757   5.380  0.8699 -1.0451 -0.3985
16925TIP3   OH272265   4.382   2.905   0.080 -0.0965  0.2140  0.0931
16925TIP3    H172266   4.364   2.844   0.151  0.0774  0.8527  0.7031
16925TIP3    H272267   4.300   2.954   0.069  0.4698  1.5569  1.3209
16926TIP3   OH272268   4.328   0.924  15.888 -0.4731  0.0670 -0.0245
16926TIP3    H172269   4.326   1.011  15.848 -1.4940 -1.2150 -3.0261
16926TIP3    H272270   4.257   0.876  15.846  0.6336 -2.5229  0.8328
16927TIP3   OH272271   1.631   2.916  16.462  0.0511  0.6939  0.1163
16927TIP3    H172272   1.572   2.988  16.482  0.1208  0.6752  0.4002
16927TIP3    H272273   1.690   2.951  16.395 -0.1926  0.7559 -0.0687
16928TIP3   OH272274   5.479   4.501  15.318  0.0691  0.8174  0.1711
16928TIP3    H172275   5.440   4.468  15.398 -1.1178  0.5809 -0.4805
16928TIP3    H272276   5.413   4.559  15.280  0.2597  0.2881 -1.0402
16929TIP3   OH272277   5.093   3.345   4.560  0.2115 -0.4824 -0.1773
16929TIP3    H172278   5.021   3.377   4.615  0.6158 -1.7249  1.1318
16929TIP3    H272279   5.059   3.354   4.471 -0.6317  1.1787  0.2582
16930TIP3   OH272280   0.621   5.434  13.217  0.9246  0.4134 -0.1926
16930TIP3    H172281   0.609   5.497  13.288  1.7233 -0.9621  1.2420
16930TIP3    H272282   0.551   5.370  13.229  1.1533  0.0903 -0.5439
16931TIP3   OH272283   2.655   0.109  16.253  0.1817  0.3691 -0.2674
16931TIP3    H172284   2.622   0.023  16.225  1.1695  0.5483 -2.1011
16931TIP3    H272285   2.735   0.121  16.203 -0.6415  2.9573 -1.0964
16932TIP3   OH272286   2.421   0.268  17.128 -0.1854 -0.0469 -0.1194
16932TIP3    H172287   2.505   0.315  17.123 -0.0239 -0.1150  1.4303
16932TIP3    H272288   2.355   0.338  17.134 -0.1247  0.0044 -0.0390
16933TIP3   OH272289   0.458   3.376   1.074 -0.1180 -0.1871  0.2604
16933TIP3    H172290   0.381   3.337   1.116 -1.9510  1.1326 -1.6847
16933TIP3    H272291   0.503   3.302   1.032 -2.8351 -0.5683 -2.3261
16934TIP3   OH272292   5.203   0.972  12.509 -0.0439 -0.5935 -0.4500
16934TIP3    H172293   5.279   0.980  12.567 -0.6774  0.0333  0.3185
16934TIP3    H272294   5.234   1.003  12.424  1.1281 -2.2576 -0.6856
16935TIP3   OH272295   4.476   6.752   5.229 -0.3624  0.4418 -0.0540
16935TIP3    H172296   4.427   6.800   5.296 -2.5060 -0.0074 -1.1956
16935TIP3    H272297   4.463   6.803   5.149 -0.4707 -0.6315 -0.7428
16936TIP3   OH272298   4.162   6.341  15.757 -0.0126 -0.7503 -0.6476
16936TIP3    H172299   4.128   6.384  15.836  1.2865  2.9049 -1.8623
16936TIP3    H272300   4.249   6.310  15.781  0.4454  0.4985 -0.6217
16937TIP3   OH272301   2.356   0.787   2.698  0.1178 -0.0137  1.1051
16937TIP3    H172302   2.345   0.795   2.603  1.7464  1.1100  0.9817
16937TIP3    H272303   2.285   0.840   2.734  1.1661  1.9007  0.4485
16938TIP3   OH272304   4.175   2.692  13.836  0.1063  0.0844 -0.3902
16938TIP3    H172305   4.080   2.693  13.846  0.0732 -1.3017 -0.3602
16938TIP3    H272306   4.189   2.708  13.743 -0.2170 -0.7886 -0.5980
16939TIP3   OH272307   1.649   1.055  16.707 -0.0616 -0.2830 -0.2299
16939TIP3    H172308   1.731   1.104  16.713 -0.3026 -0.0101  2.7250
16939TIP3    H272309   1.581   1.121  16.699 -0.1292 -0.3385 -0.1326
16940TIP3   OH272310   4.904   3.915   5.382  0.2294 -0.3829 -0.9032
16940TIP3    H172311   4.913   4.007   5.355 -1.5241  0.6092  1.5816
16940TIP3    H272312   4.994   3.883   5.386  1.0367  1.7704 -0.1967
16941TIP3   OH272313   1.664   3.776   6.417  0.0972 -0.1094  0.2641
16941TIP3    H172314   1.659   3.683   6.435 -0.3390 -0.0572  0.4275
16941TIP3    H272315   1.573   3.806   6.421  0.2984  0.4395  0.8245
16942TIP3   OH272316   6.158   6.602   5.370 -0.0670 -0.1161 -0.4247
16942TIP3    H172317   6.236   6.555   5.398 -0.2686 -0.7602 -0.9266
16942TIP3    H272318   6.128   6.648   5.448  1.4762  1.0962 -0.5074
16943TIP3   OH272319   3.388   5.893  15.287 -0.1634  0.3633 -0.0240
16943TIP3    H172320   3.479   5.876  15.311  0.0534 -1.0046 -1.6529
16943TIP3    H272321   3.371   5.982  15.319  2.0458  1.0365 -0.5556
16944TIP3   OH272322   0.816   0.175   0.564  0.3366  0.1759 -0.5296
16944TIP3    H172323   0.753   0.108   0.588  0.3722  0.1005 -0.6439
16944TIP3    H272324   0.886   0.167   0.629  0.2392  0.2467 -0.4152
16945TIP3   OH272325   3.310   1.447  12.607  0.1614 -0.6846 -0.4791
16945TIP3    H172326   3.330   1.534  12.641  0.9223  0.1744 -2.8954
16945TIP3    H272327   3.217   1.435  12.623  0.6008 -0.7574  2.5754
16946TIP3   OH272328   2.059   3.810  11.797  0.0784 -0.1300  0.1257
16946TIP3    H172329   2.056   3.836  11.889  0.5522  1.2429 -0.2236
16946TIP3    H272330   1.976   3.763  11.783 -1.0863  1.6345  0.7115
16947TIP3   OH272331   0.982   1.214  12.210 -0.5440  0.3205  0.2733
16947TIP3    H172332   1.069   1.238  12.243  1.0090 -0.1619 -3.0297
16947TIP3    H272333   0.997   1.132  12.162 -2.9473 -0.0119 -0.0379
16948TIP3   OH272334   0.943   5.476   0.511  0.7946 -0.1732  0.5744
16948TIP3    H172335   1.009   5.439   0.570 -0.1539  0.2291  1.9497
16948TIP3    H272336   0.899   5.544   0.564  0.4421  0.7668 -0.8711
16949TIP3   OH272337   4.545   4.582   5.929 -0.2574 -0.1276  0.6229
16949TIP3    H172338   4.624   4.608   5.976  0.1334 -1.3980  0.7131
16949TIP3    H272339   4.565   4.600   5.837  0.9692 -2.2474  0.3950
16950TIP3   OH272340   1.363   6.823   2.933  0.8730 -0.3568 -0.1325
16950TIP3    H172341   1.454   6.798   2.915  0.4294 -2.6287  0.5505
16950TIP3    H272342   1.321   6.822   2.847  0.8193 -2.3923 -0.1332
16951TIP3   OH272343   3.488   0.053   4.584 -0.1337 -0.0996 -0.3730
16951TIP3    H172344   3.415   0.107   4.554 -0.0407  0.6413  0.6841
16951TIP3    H272345   3.448  -0.027   4.616 -0.3978 -0.0790 -0.6446
16952TIP3   OH272346   1.300   4.837  11.431 -0.3417  0.4562 -0.6061
16952TIP3    H172347   1.325   4.752  11.395 -0.2522 -0.5140  1.6159
16952TIP3    H272348   1.237   4.816  11.500  0.2536  2.1248  0.4887
16953TIP3   OH272349   2.704   4.521  15.690 -0.4900 -0.6184  0.3719
16953TIP3    H172350   2.700   4.610  15.724  2.4083 -0.4228  0.4374
16953TIP3    H272351   2.751   4.471  15.758 -0.1959 -1.6967 -0.5915
16954TIP3   OH272352   4.045   0.295  13.011 -0.3254  0.3960  0.3793
16954TIP3    H172353   4.110   0.251  12.957 -2.3607 -1.4242 -0.7493
16954TIP3    H272354   3.998   0.353  12.951 -2.4931 -1.5217  0.0543
16955TIP3   OH272355   0.012   0.307  11.041  0.2978  0.2596 -1.0458
16955TIP3    H172356  -0.040   0.242  10.994  1.2523 -1.3655  0.0443
16955TIP3    H272357  -0.052   0.359  11.089 -0.4499 -0.3618 -1.3539
16956TIP3   OH272358   3.253   3.923   1.920  0.1619  0.0566 -0.4476
16956TIP3    H172359   3.315   3.852   1.902 -1.1701 -1.7371  1.5904
16956TIP3    H272360   3.288   3.965   1.999 -1.3727 -1.2755  1.0026
16957TIP3   OH272361   0.742   0.354  14.805 -0.4543  0.0101 -0.7360
16957TIP3    H172362   0.684   0.410  14.857  1.3277  1.3619 -0.0873
16957TIP3    H272363   0.828   0.368  14.843  0.5307 -0.8199 -2.5670
16958TIP3   OH272364   0.759   4.042   5.051  0.8724  0.0562 -0.4231
16958TIP3    H172365   0.811   4.119   5.076 -1.3096  0.3875  4.1785
16958TIP3    H272366   0.684   4.078   5.005  0.6442  0.5770  0.3260
16959TIP3   OH272367   0.940   2.076  13.454 -0.2000 -0.4688  0.3074
16959TIP3    H172368   0.847   2.096  13.451 -0.2589 -0.6195  1.1084
16959TIP3    H272369   0.978   2.140  13.513  0.5596  0.8694 -1.5306
16960TIP3   OH272370   0.734   6.776   0.783 -0.1395  0.3629  0.1565
16960TIP3    H172371   0.796   6.789   0.854  0.7839 -2.0725 -0.1168
16960TIP3    H272372   0.671   6.712   0.817 -1.0765  0.9588 -0.4105
16961TIP3   OH272373   6.466   0.977  14.260  0.4219  0.2020  0.4568
16961TIP3    H172374   6.417   0.896  14.252 -1.0417  0.6014  3.6950
16961TIP3    H272375   6.558   0.950  14.253 -0.0398 -1.7273  1.1221
16962TIP3   OH272376   0.656   4.925  11.888  0.5973  0.1117 -0.3083
16962TIP3    H172377   0.604   4.983  11.833 -1.8301 -1.2278  0.4451
16962TIP3    H272378   0.689   4.981  11.958 -2.0028  0.6029  0.6077
16963TIP3   OH272379   6.573   6.245   5.364 -0.3534 -0.2119 -0.2937
16963TIP3    H172380   6.623   6.205   5.293 -0.6255 -1.7409  0.3407
16963TIP3    H272381   6.495   6.190   5.373 -0.8950  0.6469  0.4163
16964TIP3   OH272382   1.071   0.462  13.077 -0.5345 -0.0483  0.1728
16964TIP3    H172383   1.037   0.379  13.044 -0.9501  0.2134 -0.0805
16964TIP3    H272384   1.095   0.444  13.168 -0.6245 -0.4419  0.1206
16965TIP3   OH272385   4.324   2.294   4.859 -0.4670  0.3669  0.3649
16965TIP3    H172386   4.378   2.271   4.935  0.1495  2.1122  0.4825
16965TIP3    H272387   4.387   2.318   4.791 -1.0388 -0.4297 -0.4703
16966TIP3   OH272388   0.784   2.438  15.951 -0.5116  0.0634 -0.6333
16966TIP3    H172389   0.823   2.443  15.864  0.6616  0.6467 -0.0920
16966TIP3    H272390   0.694   2.465  15.939 -0.0901  1.1317 -1.5021
16967TIP3   OH272391   3.483   6.266   1.194 -0.1090  0.4581 -0.6777
16967TIP3    H172392   3.402   6.231   1.157 -0.4221 -0.0049  0.3840
16967TIP3    H272393   3.463   6.358   1.214 -0.0183  0.6383 -1.4093
16968TIP3   OH272394   4.537   4.826  15.312 -0.1459 -0.2425  0.2020
16968TIP3    H172395   4.457   4.876  15.326  0.9889  1.5384  0.7079
16968TIP3    H272396   4.607   4.885  15.339  1.4634 -1.1040 -1.8373
16969TIP3   OH272397   5.020   2.452  14.354 -0.1766 -0.3455  0.5073
16969TIP3    H172398   5.037   2.358  14.343  0.7387 -0.1184 -0.2390
16969TIP3    H272399   5.001   2.462  14.447  2.5739 -0.9085  1.2482
16970TIP3   OH272400   5.355   3.678   1.648 -0.2105  0.3076 -0.5683
16970TIP3    H172401   5.354   3.691   1.743 -1.1374 -0.6019 -0.4297
16970TIP3    H272402   5.402   3.595   1.636 -0.4270  0.2247 -0.8658
16971TIP3   OH272403   1.943   2.175  11.523  0.2906 -0.4851  0.7816
16971TIP3    H172404   1.932   2.175  11.427  0.3163  2.9229  0.6600
16971TIP3    H272405   1.859   2.143  11.556 -0.7502  0.8927 -0.3929
16972TIP3   OH272406   6.833   5.083  16.808  0.1319 -0.1199  0.3960
16972TIP3    H172407   6.757   5.064  16.753  0.2648  1.7074 -0.4676
16972TIP3    H272408   6.907   5.047  16.759 -0.1733 -2.4726  1.5346
16973TIP3   OH272409   5.962   4.808   4.529  0.0201 -0.0578  0.4696
16973TIP3    H172410   6.032   4.749   4.558 -1.1733 -0.6103  2.4802
16973TIP3    H272411   5.963   4.880   4.592 -1.8500 -0.6310  1.2592
16974TIP3   OH272412   2.402   6.003  16.382  0.3383 -0.6165 -0.6209
16974TIP3    H172413   2.429   5.954  16.460 -1.0562  1.6538  1.4570
16974TIP3    H272414   2.309   6.020  16.396 -0.5476 -1.9584 -3.9391
16975TIP3   OH272415   5.116   1.518   3.438 -0.3644  0.3220 -0.2296
16975TIP3    H172416   5.169   1.458   3.385 -0.6652  0.3976 -0.6207
16975TIP3    H272417   5.071   1.461   3.501  0.8251  0.3442  0.6706
16976TIP3   OH272418   6.407   0.000   2.488 -0.1364 -0.1729  0.0593
16976TIP3    H172419   6.362   0.031   2.409  2.2875 -1.1158 -1.8392
16976TIP3    H272420   6.348  -0.064   2.526 -1.2806  0.1353 -1.1270
16977TIP3   OH272421   6.255   1.377   4.024 -0.4138 -0.1465  0.1158
16977TIP3    H172422   6.325   1.312   4.024  0.1474  0.4301 -0.6069
16977TIP3    H272423   6.299   1.459   4.002 -1.5310 -0.0080 -1.7912
16978TIP3   OH272424   1.833   5.562   0.048  0.5057 -0.0191 -0.0934
16978TIP3    H172425   1.902   5.627   0.061 -0.7660  1.5420 -0.7929
16978TIP3    H272426   1.870   5.500  -0.015  1.5188  0.3524  0.1134
16979TIP3   OH272427   0.608   2.204  12.213  0.2450 -0.3827  0.0935
16979TIP3    H172428   0.673   2.264  12.176  1.2622  0.2555  2.6906
16979TIP3    H272429   0.527   2.225  12.167  1.1833  1.0084 -1.0353
16980TIP3   OH272430   2.945   4.351  12.391  0.3719 -0.1146  0.8072
16980TIP3    H172431   2.908   4.298  12.320  3.6788 -0.4830 -0.8518
16980TIP3    H272432   3.018   4.299  12.425  1.0815  1.5790  2.0445
16981TIP3   OH272433   5.465   2.013  13.900 -0.0145 -0.0194  0.1047
16981TIP3    H172434   5.545   1.961  13.895 -1.6665 -2.5929 -1.6386
16981TIP3    H272435   5.496   2.103  13.907  3.0364 -0.8688 -0.8342
16982TIP3   OH272436   1.951   3.794  16.378  0.7645  0.2382  0.4473
16982TIP3    H172437   1.962   3.829  16.289  2.1858  1.2229  0.9669
16982TIP3    H272438   1.962   3.870  16.435 -1.1464 -0.1965  1.4606
16983TIP3   OH272439   0.018   3.759   2.963 -0.0361  0.4705 -0.4523
16983TIP3    H172440   0.106   3.736   2.934  0.6357  2.3162  0.0030
16983TIP3    H272441   0.030   3.836   3.018 -1.7795 -0.1374  0.8773
16984TIP3   OH272442   5.932   1.898  14.685  0.3709 -0.1686  0.4486
16984TIP3    H172443   5.971   1.950  14.615  0.1938 -0.9626 -0.2599
16984TIP3    H272444   5.839   1.922  14.684 -0.2076 -2.0809 -1.4262
16985TIP3   OH272445   5.333   3.991   2.062 -0.0827  0.4418  0.1220
16985TIP3    H172446   5.256   3.939   2.085  0.3418 -1.3617 -2.1636
16985TIP3    H272447   5.299   4.065   2.012 -0.5266  1.3318  1.6868
16986TIP3   OH272448   5.571   4.861   6.492  0.0315  0.2921  0.0166
16986TIP3    H172449   5.574   4.896   6.581 -0.9455  0.7763 -0.1208
16986TIP3    H272450   5.558   4.767   6.503 -0.4049  0.3929  0.3861
16987TIP3   OH272451   2.125   5.809  16.912  0.1472 -0.2095  0.3584
16987TIP3    H172452   2.091   5.735  16.861 -0.0197 -1.6922  2.4533
16987TIP3    H272453   2.057   5.876  16.905 -0.6176 -1.0042 -0.0564
16988TIP3   OH272454   1.121   4.432   5.307 -0.0719  0.2686 -0.2639
16988TIP3    H172455   1.146   4.515   5.267 -1.7457  0.0207 -1.9780
16988TIP3    H272456   1.037   4.449   5.350  0.9633  0.1301  1.9401
16989TIP3   OH272457   2.096   1.978  12.055  0.3846 -0.5010 -0.1289
16989TIP3    H172458   2.091   1.883  12.051 -1.7629 -0.4804  0.8787
16989TIP3    H272459   2.008   2.009  12.032  0.8356  1.2048  0.2355
16990TIP3   OH272460   5.905   0.260   1.971 -0.4968  0.2172  0.1906
16990TIP3    H172461   5.897   0.317   2.047 -1.6401  0.4780 -0.1060
16990TIP3    H272462   5.934   0.318   1.900 -1.6183  0.4452 -0.1008
16991TIP3   OH272463   4.171   0.767  15.754  0.5420  0.1185  0.0546
16991TIP3    H172464   4.216   0.684  15.767 -1.3407 -0.8722  0.5480
16991TIP3    H272465   4.169   0.779  15.659 -1.2391 -1.6509 -0.1922
16992TIP3   OH272466   5.630   6.157  12.382 -0.3844  0.2262  0.3420
16992TIP3    H172467   5.598   6.077  12.342  1.3602 -0.9932  1.2689
16992TIP3    H272468   5.597   6.154  12.472 -1.1093  1.0595  0.1231
16993TIP3   OH272469   1.398   0.672   4.468 -0.0256  0.7210  0.4726
16993TIP3    H172470   1.474   0.657   4.525 -0.2785 -1.7133  0.2938
16993TIP3    H272471   1.333   0.608   4.498 -0.4624 -0.0835 -1.9693
16994TIP3   OH272472   2.137   5.361  16.712  0.0871 -0.4848  0.3201
16994TIP3    H172473   2.069   5.419  16.677 -0.7061 -0.4472  1.8478
16994TIP3    H272474   2.219   5.396  16.675 -0.5099  0.7940  0.1373
16995TIP3   OH272475   1.895   3.921   3.005 -0.0301  0.3919  0.1778
16995TIP3    H172476   1.887   3.844   3.060  0.6555 -0.4562 -0.8829
16995TIP3    H272477   1.860   3.895   2.920  0.2646  1.2197 -0.2157
16996TIP3   OH272478   4.313   3.772  11.697  0.1964  0.3398  0.3520
16996TIP3    H172479   4.354   3.853  11.670  1.3206 -0.0072  0.9617
16996TIP3    H272480   4.251   3.798  11.766 -1.3748  0.9828 -1.2307
16997TIP3   OH272481   0.694   0.753  14.024  0.3957  0.0739 -0.2491
16997TIP3    H172482   0.754   0.689  14.062  1.2111 -0.0465 -1.6809
16997TIP3    H272483   0.731   0.838  14.048  0.1193  0.0265  0.3929
16998TIP3   OH272484   3.232   1.939   3.687 -0.7441 -0.1996  0.2339
16998TIP3    H172485   3.188   1.976   3.611  0.4993  0.0468 -0.3856
16998TIP3    H272486   3.207   1.846   3.687  0.7897 -0.6881 -1.6651
16999TIP3   OH272487   3.627   1.391   4.012  0.2325  0.8659 -0.7037
16999TIP3    H172488   3.580   1.468   3.979  0.5047  1.1894 -0.3430
16999TIP3    H272489   3.711   1.425   4.043  0.3002  0.4472 -0.4168
17000TIP3   OH272490   4.983   5.930   0.316 -0.0023 -0.5099  0.0152
17000TIP3    H172491   4.938   5.878   0.250  0.7566  0.9155 -1.7269
17000TIP3    H272492   4.930   5.921   0.394 -2.2913 -0.4193 -1.4329
17001TIP3   OH272493   4.413   1.224  11.896 -0.7418  0.2372 -0.3541
17001TIP3    H172494   4.504   1.200  11.911 -0.3368  2.3371  1.0212
17001TIP3    H272495   4.385   1.170  11.822  1.0828 -1.6670  0.2682
17002TIP3   OH272496   0.185   0.944  14.295 -0.0084  0.2158 -0.7423
17002TIP3    H172497   0.193   1.007  14.366  1.1891 -1.2871  0.5031
17002TIP3    H272498   0.191   0.997  14.215 -1.4255  1.9399  0.2158
17003TIP3   OH272499   4.199   1.729  12.869  0.1406  0.2220  0.0956
17003TIP3    H172500   4.167   1.768  12.951  0.0491  1.5019 -0.5238
17003TIP3    H272501   4.138   1.762  12.802  1.1403  0.4801 -0.7052
17004TIP3   OH272502   2.180   2.664   0.746  0.1524  0.2962  0.2530
17004TIP3    H172503   2.272   2.662   0.772  0.5862  1.1689 -1.1249
17004TIP3    H272504   2.139   2.594   0.796  1.3774  0.4833  1.5716
17005TIP3   OH272505   1.317   2.963   3.785 -0.0198 -0.0232  0.4253
17005TIP3    H172506   1.370   2.938   3.860 -0.8564 -0.6847  0.8130
17005TIP3    H272507   1.254   3.026   3.820  1.0838  1.5359 -0.2308
17006TIP3   OH272508   5.334   6.061  15.061 -0.1649 -0.1896  0.1947
17006TIP3    H172509   5.269   6.022  15.002  0.0771  0.9844 -0.8923
17006TIP3    H272510   5.341   5.998  15.133 -0.8373 -1.4368 -0.7763
17007TIP3   OH272511   3.258   2.595  12.192 -0.4949 -0.0230  0.2740
17007TIP3    H172512   3.277   2.503  12.205 -0.9914 -0.1346  0.2395
17007TIP3    H272513   3.167   2.605  12.219 -0.0149  0.7531  1.7399
17008TIP3   OH272514   0.318   1.221   0.353 -0.0795  0.0771  0.6669
17008TIP3    H172515   0.284   1.265   0.275  0.6085 -0.3344  0.1331
17008TIP3    H272516   0.251   1.156   0.375 -0.2495  0.1574  0.3930
17009TIP3   OH272517   2.796   4.504   6.083 -0.1046  0.2664  0.4715
17009TIP3    H172518   2.724   4.456   6.124  0.4650  0.3501  1.5979
17009TIP3    H272519   2.874   4.478   6.133  0.6330  0.2945 -0.6232
17010TIP3   OH272520   5.273   1.091  13.091  0.6383 -0.2510  0.1556
17010TIP3    H172521   5.248   1.052  13.008  0.0295 -1.1396  0.7453
17010TIP3    H272522   5.278   1.018  13.152  0.8186  0.4219  0.9728
17011TIP3   OH272523   5.596   3.617  13.871 -0.1671 -0.1173  0.0455
17011TIP3    H172524   5.629   3.618  13.781 -1.9506  0.5705 -0.6407
17011TIP3    H272525   5.633   3.696  13.911 -0.2989  0.1897 -0.4391
17012TIP3   OH272526   4.933   5.943   3.347  0.7663 -0.5814  0.6408
17012TIP3    H172527   4.918   5.851   3.371 -1.2349 -0.8641 -1.3512
17012TIP3    H272528   5.028   5.954   3.353  0.9406 -2.4144  2.0944
17013TIP3   OH272529   6.730   6.826  14.643 -0.0169 -0.1747  0.3958
17013TIP3    H172530   6.638   6.807  14.629  0.0693 -0.3508  0.0728
17013TIP3    H272531   6.777   6.763  14.589  0.3377 -1.3234  1.9738
17014TIP3   OH272532   1.935   5.261   2.374  0.5232  0.1156  0.1326
17014TIP3    H172533   1.909   5.169   2.379  0.6077  0.1310  1.0380
17014TIP3    H272534   2.030   5.258   2.364  0.4432  0.0980 -0.6752
17015TIP3   OH272535   2.474   6.044  16.914  0.0491  0.5177  0.0507
17015TIP3    H172536   2.531   6.071  16.986  0.7431 -0.6784 -0.0252
17015TIP3    H272537   2.520   6.075  16.835  0.7557 -0.6653 -0.0258
17016TIP3   OH272538   0.589   1.410   6.064 -0.2425 -0.4203  0.3094
17016TIP3    H172539   0.556   1.491   6.102  0.7333  0.0685  0.1549
17016TIP3    H272540   0.516   1.349   6.069 -1.1836  0.6506 -0.1456
17017TIP3   OH272541   5.407   3.116   2.835 -0.1081 -0.2365  0.3140
17017TIP3    H172542   5.415   3.207   2.806 -3.3596 -0.1317 -0.6440
17017TIP3    H272543   5.419   3.064   2.755  0.0394 -0.5533  0.5389
17018TIP3   OH272544   3.251   1.572   0.607  0.1836  0.3689  0.5054
17018TIP3    H172545   3.182   1.505   0.613 -0.4385  0.9998  0.4348
17018TIP3    H272546   3.247   1.617   0.692 -2.8085  3.6161 -1.0998
17019TIP3   OH272547   0.768   6.447   5.208 -0.3147 -0.0590 -0.4821
17019TIP3    H172548   0.689   6.415   5.165 -1.1305 -0.1277  1.0057
17019TIP3    H272549   0.736   6.510   5.273  0.5680 -1.8793  1.8542
17020TIP3   OH272550   4.499   5.078  12.854 -0.4033  0.3746 -0.0899
17020TIP3    H172551   4.437   5.006  12.862 -0.0593 -0.2189 -2.1268
17020TIP3    H272552   4.584   5.035  12.848  0.1763  1.1470  1.9137
17021TIP3   OH272553   6.811   4.724   3.113 -0.1783  0.1198 -0.0652
17021TIP3    H172554   6.861   4.683   3.184  1.1762  0.8203 -0.5685
17021TIP3    H272555   6.723   4.688   3.121 -0.4026  1.1101  2.7171
17022TIP3   OH272556   0.895   0.906  12.927 -0.0945  0.6420  0.2028
17022TIP3    H172557   0.874   0.847  12.999 -0.7634  0.6126 -0.0154
17022TIP3    H272558   0.861   0.862  12.849  2.7045 -0.5000 -0.5087
17023TIP3   OH272559   1.389   3.349  13.920  0.0914 -0.2723 -0.1326
17023TIP3    H172560   1.456   3.308  13.865 -0.8589 -1.1070 -0.6927
17023TIP3    H272561   1.362   3.427  13.871  2.6070  1.7111  1.3856
17024TIP3   OH272562   2.718   5.156  12.399  0.0710  0.0797 -0.2250
17024TIP3    H172563   2.753   5.190  12.317  1.8508  1.0084  0.8524
17024TIP3    H272564   2.784   5.092  12.428  0.0334  0.5634  0.9927
17025TIP3   OH272565   0.315   0.761   1.102  0.0327 -0.5706  0.4351
17025TIP3    H172566   0.329   0.682   1.154  1.4302  0.0702  1.0792
17025TIP3    H272567   0.305   0.831   1.167 -0.0716 -0.0495 -0.1357
17026TIP3   OH272568   2.622   5.475   0.550 -0.0720 -0.1170 -0.3005
17026TIP3    H172569   2.623   5.420   0.471 -1.0261 -1.0332  0.3004
17026TIP3    H272570   2.663   5.421   0.617  0.2487  0.4537 -0.0311
17027TIP3   OH272571   0.115   6.623  14.945 -0.6769 -0.7086  0.4708
17027TIP3    H172572   0.063   6.552  14.984  0.4076 -0.5811  2.2316
17027TIP3    H272573   0.196   6.624  14.994 -0.5795  1.6700  0.3922
17028TIP3   OH272574   4.993   6.772   4.471  0.0956 -0.0262  0.3874
17028TIP3    H172575   4.952   6.720   4.540 -0.7632  0.9980  0.6629
17028TIP3    H272576   4.921   6.792   4.411  0.4042  0.9109  0.3265
17029TIP3   OH272577   2.069   3.151  13.814  0.5330 -0.0569 -0.4155
17029TIP3    H172578   2.094   3.188  13.729  3.2822  0.2475  0.4088
17029TIP3    H272579   2.074   3.226  13.875 -0.8305 -0.3847  0.1407
17030TIP3   OH272580   0.194   1.026  10.781  0.5218 -0.5722 -0.3268
17030TIP3    H172581   0.180   1.004  10.689 -1.1774 -1.0162  0.0096
17030TIP3    H272582   0.282   0.994  10.800  1.4856  0.8308 -2.1611
17031TIP3   OH272583   0.806   6.132   5.399  0.0141 -0.4946 -0.3513
17031TIP3    H172584   0.806   6.178   5.483 -0.3587 -1.6083  0.2693
17031TIP3    H272585   0.862   6.186   5.343 -0.9401  1.0890  0.1367
17032TIP3   OH272586   3.150   4.807  16.263 -0.1752  0.1859 -0.4881
17032TIP3    H172587   3.138   4.877  16.199 -1.6191  0.9545  0.5463
17032TIP3    H272588   3.221   4.838  16.319 -0.5162  0.6471 -0.2981
17033TIP3   OH272589   4.658   4.985  14.456 -0.5096 -0.9793 -0.4155
17033TIP3    H172590   4.623   5.032  14.532  0.9949 -1.2080  0.4828
17033TIP3    H272591   4.624   5.033  14.380  0.1209  0.9470  0.4383
17034TIP3   OH272592   6.722   6.402  13.725 -0.5118  0.1328  0.2560
17034TIP3    H172593   6.814   6.411  13.750 -0.7509 -0.1676  1.3040
17034TIP3    H272594   6.719   6.431  13.634  0.8807 -1.2392 -0.2756
17035TIP3   OH272595   6.223   5.206  13.364 -0.2295 -0.5927 -0.0223
17035TIP3    H172596   6.271   5.273  13.413  1.1067 -0.1089 -1.8915
17035TIP3    H272597   6.151   5.181  13.422 -0.6378  2.2743  0.8717
17036TIP3   OH272598   2.803   1.279   2.348  0.1315  0.2012 -0.2692
17036TIP3    H172599   2.741   1.260   2.418  1.0086  0.4923  0.6217
17036TIP3    H272600   2.850   1.197   2.334  0.6112  0.3959  0.1692
17037TIP3   OH272601   2.683   4.446  13.720  0.6100 -0.7135  0.1673
17037TIP3    H172602   2.745   4.518  13.729  0.7268 -0.8615  0.5875
17037TIP3    H272603   2.690   4.398  13.803  1.2772 -1.8033 -0.5029
17038TIP3   OH272604   5.079   4.716   4.152  0.3535 -0.0220 -0.5911
17038TIP3    H172605   5.106   4.727   4.061 -0.5096  1.6795 -0.6821
17038TIP3    H272606   4.987   4.742   4.153  0.8010  1.6515  1.0563
17039TIP3   OH272607   0.579   5.383  12.587 -0.3679 -0.0546 -0.5071
17039TIP3    H172608   0.646   5.443  12.555 -1.1136  0.4967 -1.0856
17039TIP3    H272609   0.525   5.437  12.645 -0.7614 -0.2771 -0.6597
17040TIP3   OH272610   3.169   1.818  13.781 -0.1740 -0.6588  0.1323
17040TIP3    H172611   3.130   1.859  13.704 -1.0507 -2.7330 -0.6097
17040TIP3    H272612   3.249   1.869  13.797  0.6152 -0.7579 -2.8200
17041TIP3   OH272613   2.895   3.552   4.735 -0.1361 -0.0589  0.1124
17041TIP3    H172614   2.953   3.480   4.712 -0.3570 -0.1874 -0.0401
17041TIP3    H272615   2.860   3.528   4.821  1.9340  1.1786  1.3789
17042TIP3   OH272616   3.942   2.218  11.137  0.1832 -0.0701  0.0127
17042TIP3    H172617   3.879   2.149  11.158  0.2170 -0.3540 -0.7712
17042TIP3    H272618   3.921   2.243  11.047  0.9318  0.1150 -0.1212
17043TIP3   OH272619   5.785   6.004  11.757 -0.1862 -0.5701  0.1322
17043TIP3    H172620   5.703   6.023  11.804  0.6221 -1.4845  2.0279
17043TIP3    H272621   5.765   6.024  11.665 -2.0301  0.7508  0.7533
17044TIP3   OH272622   4.723   4.318   6.158  0.3314  0.5253 -0.1680
17044TIP3    H172623   4.731   4.337   6.065  1.2116  0.4771 -0.1055
17044TIP3    H272624   4.751   4.399   6.201 -0.5375  0.7160  0.0572
17045TIP3   OH272625   2.277   3.859   4.417  0.4138 -0.0644  0.0381
17045TIP3    H172626   2.361   3.890   4.451  0.3938 -1.6931  1.6974
17045TIP3    H272627   2.255   3.783   4.471 -1.0692 -1.0276 -1.7866
17046TIP3   OH272628   6.629   2.484  15.798  0.5175 -0.2567  0.3256
17046TIP3    H172629   6.624   2.450  15.887  1.3316 -2.3611 -0.3706
17046TIP3    H272630   6.681   2.419  15.750 -0.5624  0.3996 -1.8744
17047TIP3   OH272631   3.366   6.046  15.529  0.0534  0.1323 -0.1698
17047TIP3    H172632   3.286   6.096  15.546  0.1592 -0.1910  1.5478
17047TIP3    H272633   3.372   5.985  15.604  1.4840 -0.3925 -0.6757
17048TIP3   OH272634   0.217   3.265   2.765  0.0599 -0.8702  0.1985
17048TIP3    H172635   0.127   3.297   2.759  1.0754  2.4587  0.7130
17048TIP3    H272636   0.234   3.255   2.859  1.1674  2.0632  0.4464
17049TIP3   OH272637   0.160   0.539   0.757 -0.1307  0.1857 -0.7196
17049TIP3    H172638   0.090   0.527   0.693 -1.0096  0.1770  0.2234
17049TIP3    H272639   0.176   0.634   0.757 -0.3383  0.2212 -0.7390
17050TIP3   OH272640   0.041   3.338   1.912 -0.0139 -0.2491  0.2522
17050TIP3    H172641  -0.021   3.342   1.839 -0.5273 -0.7334  0.6523
17050TIP3    H272642   0.127   3.333   1.870 -0.0982  2.0615 -0.3028
17051TIP3   OH272643   6.681   3.488   4.082 -0.1576  0.1917  0.5087
17051TIP3    H172644   6.717   3.432   4.151  1.5691 -1.2685 -1.4387
17051TIP3    H272645   6.609   3.535   4.124  1.4729  0.2258  3.5805
17052TIP3   OH272646   0.556   2.226   0.627  0.2325  0.1840  0.7613
17052TIP3    H172647   0.468   2.255   0.602  0.5365  0.7656  0.3336
17052TIP3    H272648   0.580   2.283   0.700 -0.5571 -1.3560  2.2799
17053TIP3   OH272649   5.227   2.078  12.325  0.2279 -0.0636 -0.3259
17053TIP3    H172650   5.173   2.156  12.316  0.5916  0.2000 -0.2623
17053TIP3    H272651   5.168   2.012  12.360 -0.1157  0.1437 -0.5027
17054TIP3   OH272652   0.868   3.730  10.848 -0.8922 -0.1780  0.2817
17054TIP3    H172653   0.935   3.773  10.795 -0.9051 -0.2610  0.1985
17054TIP3    H272654   0.886   3.758  10.937 -1.7931  1.2192  0.0640
17055TIP3   OH272655   2.425   2.474  11.210  0.1040 -0.2360  0.0954
17055TIP3    H172656   2.515   2.504  11.220 -0.3139  0.6309  1.5908
17055TIP3    H272657   2.425   2.386  11.248  0.8606 -1.4099 -2.3742
17056TIP3   OH272658   4.018   5.252  11.327 -0.8878  0.4601 -0.2877
17056TIP3    H172659   3.980   5.280  11.410 -1.1600  2.1058 -0.9269
17056TIP3    H272660   4.112   5.248  11.344 -1.0450 -0.5750  0.4502
17057TIP3   OH272661   3.273   2.921   3.058 -0.3437  0.2510 -0.0840
17057TIP3    H172662   3.348   2.970   3.092 -0.8515  0.1712  1.2212
17057TIP3    H272663   3.228   2.982   3.000  1.1902  0.0229 -1.5866
17058TIP3   OH272664   0.560   4.383   0.292 -0.1769  0.2545 -0.0741
17058TIP3    H172665   0.502   4.425   0.228 -1.2925  0.6793  1.1678
17058TIP3    H272666   0.516   4.394   0.376  0.8796 -0.9503  0.6904
17059TIP3   OH272667   3.843   4.487   1.780  0.3717 -0.5072  0.2955
17059TIP3    H172668   3.761   4.463   1.822 -0.3049  2.3395  0.8402
17059TIP3    H272669   3.910   4.472   1.847 -0.1230 -0.0441  0.9005
17060TIP3   OH272670   5.148   5.188  11.823  0.3654  0.1090 -0.0996
17060TIP3    H172671   5.217   5.133  11.785  0.5287  0.9071 -1.0013
17060TIP3    H272672   5.067   5.153  11.787  0.2731 -0.9042  1.0510
17061TIP3   OH272673   3.514   4.182  13.393 -0.4734  0.4964 -0.3154
17061TIP3    H172674   3.431   4.136  13.380 -0.8973  0.8437  0.9755
17061TIP3    H272675   3.573   4.114  13.426 -0.7515  0.6004  0.4198
17062TIP3   OH272676   3.525   0.023   2.802 -0.2224  0.0769  0.3212
17062TIP3    H172677   3.434   0.047   2.787  0.0764  1.3394  0.3957
17062TIP3    H272678   3.551  -0.024   2.723 -0.6375  0.6306 -0.1551
17063TIP3   OH272679   0.522   1.846   3.445  0.6667  0.4140 -0.2640
17063TIP3    H172680   0.529   1.907   3.518 -1.0531 -2.7686  2.8752
17063TIP3    H272681   0.435   1.861   3.408  1.9741  2.8540 -2.7166
17064TIP3   OH272682   1.741   0.023   0.156  0.0535 -0.2525  0.4380
17064TIP3    H172683   1.711  -0.036   0.087  1.4579 -2.0693  1.3165
17064TIP3    H272684   1.748   0.108   0.112 -0.9974 -0.9218 -1.1357
17065TIP3   OH272685   1.356   1.211  13.032  0.4811 -1.0818  0.2291
17065TIP3    H172686   1.403   1.275  12.979 -1.3515  1.3484  1.3686
17065TIP3    H272687   1.354   1.132  12.977 -1.2346  1.2187 -3.4333
17066TIP3   OH272688   4.083   3.679  11.850 -0.0153 -0.4255  0.0426
17066TIP3    H172689   4.039   3.620  11.911 -0.2155  0.5589  0.8954
17066TIP3    H272690   4.140   3.623  11.799 -0.8813 -1.4721  0.1924
17067TIP3   OH272691   6.272   5.651  15.347 -0.2683  0.5335  0.3165
17067TIP3    H172692   6.231   5.623  15.265  0.8445 -0.2004 -0.0169
17067TIP3    H272693   6.341   5.712  15.320  0.0575  0.3381  0.6996
17068TIP3   OH272694   4.114   3.596   1.836  0.2494 -0.0431 -0.3542
17068TIP3    H172695   4.045   3.561   1.892 -0.1468 -0.3854 -1.0469
17068TIP3    H272696   4.146   3.520   1.787  1.5099 -0.0020  0.3515
17069TIP3   OH272697   2.845   1.682  13.541  0.0791 -0.2651  0.6281
17069TIP3    H172698   2.894   1.760  13.514 -2.4327  0.2634 -3.2281
17069TIP3    H272699   2.782   1.715  13.606  0.7514  0.3126  1.0067
17070TIP3   OH272700   3.519   6.379   5.171 -0.1527  0.3255 -0.3000
17070TIP3    H172701   3.532   6.309   5.107  0.0646 -0.0184  0.1169
17070TIP3    H272702   3.561   6.347   5.251  1.8878  1.8482 -0.6898
17071TIP3   OH272703   5.948   2.103   0.028 -0.2871  0.3146  0.2853
17071TIP3    H172704   5.924   2.146  -0.054 -2.4719 -0.7602  0.3019
17071TIP3    H272705   6.044   2.102   0.027 -0.2511  0.9682 -1.9004
17072TIP3   OH272706   3.632   1.839  10.866 -0.0167 -0.0604 -0.3621
17072TIP3    H172707   3.564   1.775  10.889 -0.4607  0.0139 -1.4079
17072TIP3    H272708   3.631   1.841  10.770 -0.4347  1.9773 -0.3566
17073TIP3   OH272709   5.602   5.004   0.901  0.0538  0.0585  0.0278
17073TIP3    H172710   5.663   5.066   0.940 -1.0456  0.1138  1.7973
17073TIP3    H272711   5.542   4.982   0.972  0.6729 -3.4279 -0.3271
17074TIP3   OH272712   1.510   1.457  13.369  0.6148  0.0526  0.1948
17074TIP3    H172713   1.483   1.495  13.285 -3.2627  0.9070  1.6056
17074TIP3    H272714   1.508   1.362  13.353  1.0907  0.2134 -0.9378
17075TIP3   OH272715   0.671   2.351   4.712  0.1139  0.1689 -0.4048
17075TIP3    H172716   0.661   2.256   4.701 -0.1190  0.2941 -1.3559
17075TIP3    H272717   0.603   2.389   4.657  1.1544  0.9131 -1.2299
17076TIP3   OH272718   6.686   3.082  15.200 -0.0626 -0.0543  0.0558
17076TIP3    H172719   6.700   3.170  15.235 -1.7774 -0.4314  1.8713
17076TIP3    H272720   6.653   3.096  15.111 -1.8812  1.2679  0.8664
17077TIP3   OH272721   0.910   2.444  13.266  0.5691 -0.0581 -0.3288
17077TIP3    H172722   0.817   2.455  13.286  0.2954 -0.8869 -1.0690
17077TIP3    H272723   0.917   2.460  13.172  1.2937  0.6286 -0.1755
17078TIP3   OH272724   2.489   1.528  14.550  0.4701 -0.0911  0.1551
17078TIP3    H172725   2.429   1.542  14.477 -1.1051 -1.2044  1.1557
17078TIP3    H272726   2.472   1.602  14.609  2.4485  1.3555 -0.9704
17079TIP3   OH272727   5.217   5.553   1.283  0.6451  0.3331  0.1591
17079TIP3    H172728   5.223   5.459   1.296  0.3490  0.3769  0.6088
17079TIP3    H272729   5.236   5.565   1.189 -0.3540 -0.2692 -0.1348
17080TIP3   OH272730   1.338   2.280   6.114 -0.1581 -0.4313 -0.0818
17080TIP3    H172731   1.398   2.208   6.092 -0.1977 -0.0183 -1.7495
17080TIP3    H272732   1.393   2.358   6.108 -0.4018 -0.2209  0.4373
17081TIP3   OH272733   4.261   4.415  13.878 -0.2703  1.0955 -0.5374
17081TIP3    H172734   4.316   4.493  13.866  0.0458  0.7939 -1.0821
17081TIP3    H272735   4.320   4.349  13.914 -0.4223  0.9564 -0.5422
17082TIP3   OH272736   5.570   5.248  14.046 -0.6501 -0.7183 -0.0367
17082TIP3    H172737   5.618   5.186  13.991 -2.6478 -2.2262 -0.1968
17082TIP3    H272738   5.488   5.203  14.066 -0.8458  0.6272  2.5021
17083TIP3   OH272739   0.982   3.847   4.581  0.2736  0.0133  0.2992
17083TIP3    H172740   0.956   3.823   4.670 -0.8176  0.7817  0.1974
17083TIP3    H272741   0.941   3.780   4.526  2.1390 -1.3412  0.4284
17084TIP3   OH272742   2.502   4.772  17.111 -0.4753 -0.4031 -0.2181
17084TIP3    H172743   2.430   4.714  17.086 -2.0591  1.5057 -0.3470
17084TIP3    H272744   2.459   4.845  17.155  1.6875 -0.6285  2.5168
17085TIP3   OH272745   5.756   5.643  16.054 -0.5527 -0.3415 -0.5235
17085TIP3    H172746   5.784   5.590  16.129 -3.2858  1.4589  2.0307
17085TIP3    H272747   5.783   5.732  16.076 -1.7344  0.2906 -1.4746
17086TIP3   OH272748   0.278   1.561  11.621 -0.3036  0.2005 -0.0387
17086TIP3    H172749   0.268   1.485  11.678 -0.1473  1.1347  1.2790
17086TIP3    H272750   0.248   1.635  11.673  0.6542  1.2121 -0.8596
17087TIP3   OH272751   4.787   1.998   4.502 -0.4337  0.0935 -0.0042
17087TIP3    H172752   4.777   2.054   4.579 -2.5677  0.2394 -0.3455
17087TIP3    H272753   4.725   2.032   4.438 -1.0049 -1.9555 -0.6308
17088TIP3   OH272754   2.064   2.198   3.186 -0.0292 -0.5407  0.2455
17088TIP3    H172755   2.098   2.112   3.160 -0.0359 -0.1796 -1.0084
17088TIP3    H272756   1.979   2.178   3.227  0.6069 -1.2397  1.2657
17089TIP3   OH272757   1.262   4.052  13.618  0.7127 -0.5536 -0.1915
17089TIP3    H172758   1.180   4.004  13.631  0.5779 -0.6358 -1.2328
17089TIP3    H272759   1.291   4.076  13.706 -0.7545  0.0241  0.1537
17090TIP3   OH272760   5.825   4.725   2.336 -0.4666 -0.4356 -0.2393
17090TIP3    H172761   5.872   4.807   2.326  0.8404 -1.2556 -1.1148
17090TIP3    H272762   5.733   4.751   2.348 -0.4511  1.1052 -2.7563
17091TIP3   OH272763   2.087   4.656   1.234  1.1569  0.0731 -0.4325
17091TIP3    H172764   2.134   4.592   1.287 -0.3274 -0.5840  0.1376
17091TIP3    H272765   2.145   4.733   1.231  1.3222  0.1184  2.0921
17092TIP3   OH272766   3.462   1.665  13.984 -0.1450  0.3232 -0.4220
17092TIP3    H172767   3.394   1.609  13.947 -0.6826  2.2599 -2.6188
17092TIP3    H272768   3.431   1.754  13.969  2.0863  1.2508  0.0750
17093TIP3   OH272769   4.098   1.773   2.851  0.0128  0.0135 -0.4357
17093TIP3    H172770   4.160   1.700   2.847 -0.1742 -0.1578 -0.2657
17093TIP3    H272771   4.133   1.830   2.920 -0.0192 -0.0836 -0.3387
17094TIP3   OH272772   1.938   2.996  15.195 -0.5384  0.5357  0.1089
17094TIP3    H172773   1.988   2.928  15.150  0.1022  1.6586 -0.9418
17094TIP3    H272774   2.004   3.058  15.226 -1.0676  0.4153  1.5650
17095TIP3   OH272775   5.699   1.019  13.470 -0.4707 -0.1925  0.3822
17095TIP3    H172776   5.723   0.954  13.404 -1.7709 -0.0586 -0.2653
17095TIP3    H272777   5.617   0.986  13.507  0.3230 -0.3492  2.0838
17096TIP3   OH272778   1.165   5.190  15.668 -0.4537 -0.5371 -0.1719
17096TIP3    H172779   1.226   5.180  15.595 -0.2328 -0.1692 -0.0407
17096TIP3    H272780   1.201   5.133  15.736 -0.6041 -0.8032 -0.3138
17097TIP3   OH272781   2.342   0.789   0.158  0.4544 -0.1748  0.4067
17097TIP3    H172782   2.412   0.850   0.135 -1.1136  1.3737 -0.4566
17097TIP3    H272783   2.268   0.845   0.182 -0.8879 -1.7348  0.0796
17098TIP3   OH272784   2.763   0.898   6.118 -0.3505  0.1807  0.1178
17098TIP3    H172785   2.858   0.889   6.112 -0.2612  0.3297  1.2581
17098TIP3    H272786   2.744   0.898   6.211 -1.5190 -0.2921 -0.0999
17099TIP3   OH272787   3.450   3.964   2.117 -0.0586 -0.3037  0.2934
17099TIP3    H172788   3.411   3.878   2.132 -1.7321  0.5158  0.8947
17099TIP3    H272789   3.486   3.990   2.202 -1.7730  0.6006  0.8026
17100TIP3   OH272790   5.647   6.105   0.196  0.5146 -0.1559  0.0354
17100TIP3    H172791   5.673   6.173   0.258 -1.3864 -0.3734  1.1452
17100TIP3    H272792   5.730   6.067   0.166  1.5257  0.8279  1.4578
17101TIP3   OH272793   4.350   4.124   2.531 -0.8538 -0.4541  0.5126
17101TIP3    H172794   4.265   4.158   2.560 -0.0670  0.0001  2.4847
17101TIP3    H272795   4.402   4.121   2.611  1.8596  1.7675 -1.0086
17102TIP3   OH272796   3.637   4.727   2.354  0.2965 -0.4051  0.0339
17102TIP3    H172797   3.564   4.758   2.406 -0.0774 -2.4403  0.7944
17102TIP3    H272798   3.708   4.789   2.372 -0.4002  0.0077  1.4745
17103TIP3   OH272799   4.659   4.382   4.591  0.5459 -0.5456 -0.5902
17103TIP3    H172800   4.603   4.332   4.651  2.7764 -1.8473  0.5207
17103TIP3    H272801   4.641   4.344   4.505  0.1178 -1.3332 -0.1700
17104TIP3   OH272802   3.854   5.391  12.659  0.0713  0.3263 -0.2716
17104TIP3    H172803   3.817   5.348  12.736  1.9051 -0.1897  0.3703
17104TIP3    H272804   3.860   5.323  12.593 -0.7996  0.5940 -0.6433
17105TIP3   OH272805   0.212   6.538   4.256  0.6544  0.1595 -0.0110
17105TIP3    H172806   0.186   6.499   4.172 -0.6014  2.4471 -0.7987
17105TIP3    H272807   0.169   6.624   4.256  0.4827  0.1618  3.0919
17106TIP3   OH272808   2.396   4.735   0.801  0.9246 -0.3580  0.3227
17106TIP3    H172809   2.472   4.769   0.754  1.1942 -1.0217  0.2595
17106TIP3    H272810   2.433   4.682   0.872  0.5277 -0.9847  0.0751
17107TIP3   OH272811   4.562   3.631  16.371 -1.0046 -0.2651  0.4792
17107TIP3    H172812   4.551   3.563  16.437  0.7886  0.1461  1.2876
17107TIP3    H272813   4.590   3.585  16.293  4.2144 -0.4187  2.0556
17108TIP3   OH272814   0.413   1.117  13.164  0.8867  1.0750  0.0466
17108TIP3    H172815   0.426   1.100  13.257 -0.3404  0.7226  0.1720
17108TIP3    H272816   0.348   1.187  13.161 -0.9513 -0.5572 -0.5142
17109TIP3   OH272817   4.529   3.043   4.116 -0.0941  0.4786  0.1992
17109TIP3    H172818   4.519   3.007   4.028  1.8537  1.2249 -0.3974
17109TIP3    H272819   4.462   2.999   4.168 -1.6874  0.4471 -1.7660
17110TIP3   OH272820   0.157   0.602  12.272 -0.1149  0.5133 -0.3060
17110TIP3    H172821   0.072   0.619  12.314 -0.6162 -1.1759 -0.5892
17110TIP3    H272822   0.173   0.509  12.287  1.6325  0.7709 -0.4023
17111TIP3   OH272823   2.238   1.683  13.233 -0.0436 -0.0588  0.2539
17111TIP3    H172824   2.174   1.688  13.304  0.8217 -0.1797  1.0507
17111TIP3    H272825   2.305   1.623  13.264  0.5853  0.2406 -0.4759
17112TIP3   OH272826   1.149   3.310   0.205 -0.2940 -0.0822 -0.3434
17112TIP3    H172827   1.204   3.318   0.283 -0.9653  0.5858  0.0665
17112TIP3    H272828   1.174   3.226   0.168 -0.3428 -0.6592  0.8800
17113TIP3   OH272829   2.711   0.594   4.767  0.2060  0.1105  0.2395
17113TIP3    H172830   2.700   0.499   4.774 -1.9411  0.2051 -0.9302
17113TIP3    H272831   2.770   0.607   4.693  0.7978 -0.2953  0.6303
17114TIP3   OH272832   3.115   1.668   4.284 -0.3251 -0.1459 -0.1412
17114TIP3    H172833   3.175   1.594   4.283  0.9069  0.8077 -2.0259
17114TIP3    H272834   3.143   1.721   4.358  1.4659  0.4894 -1.2255
17115TIP3   OH272835   1.430   0.790  14.350  0.8326  0.4415 -0.2902
17115TIP3    H172836   1.441   0.846  14.427  0.8477 -0.8586  0.6765
17115TIP3    H272837   1.433   0.701  14.384  0.7591 -0.1655 -1.7944
17116TIP3   OH272838   0.542   4.999  16.852 -0.0794 -0.2776 -0.2217
17116TIP3    H172839   0.534   5.086  16.811  0.3138  0.2606  0.7996
17116TIP3    H272840   0.605   4.953  16.797 -0.4099  0.0285 -0.8697
17117TIP3   OH272841   2.712   3.211  15.345 -0.6485 -0.2829 -0.0341
17117TIP3    H172842   2.789   3.175  15.390 -1.5276 -0.8498  1.0802
17117TIP3    H272843   2.644   3.145  15.358 -1.6733  0.7693  0.1061
17118TIP3   OH272844   6.227   0.241   3.946  0.2081 -0.5428 -0.2788
17118TIP3    H172845   6.166   0.314   3.951  1.5497  0.6758 -0.8557
17118TIP3    H272846   6.227   0.216   3.854 -0.6197 -1.6386 -0.0014
17119TIP3   OH272847   4.954   3.041  12.981  0.2967  0.2061 -0.4957
17119TIP3    H172848   5.023   3.010  12.923 -0.0627 -0.0703 -0.7850
17119TIP3    H272849   4.998   3.063  13.063  0.4067 -2.3919  0.2301
17120TIP3   OH272850   3.473   4.029  12.372  0.5896  0.1913 -0.5903
17120TIP3    H172851   3.534   4.075  12.429  0.9582 -0.8726 -0.0939
17120TIP3    H272852   3.392   4.079  12.378 -0.1327 -1.1234  2.7221
17121TIP3   OH272853   2.873   2.918  11.592 -0.3927 -1.1042 -0.3441
17121TIP3    H172854   2.823   2.991  11.629 -1.3373 -0.7789 -2.1495
17121TIP3    H272855   2.856   2.845  11.652 -0.0657 -0.0777  1.0605
17122TIP3   OH272856   5.450   0.825   2.481  0.4875 -1.0491 -0.4439
17122TIP3    H172857   5.485   0.745   2.443 -0.1569 -1.3021 -0.5152
17122TIP3    H272858   5.527   0.880   2.497  1.0893 -2.1882  0.8263
17123TIP3   OH272859   0.088   2.624  15.141 -0.0298  0.2459  0.1957
17123TIP3    H172860   0.042   2.706  15.161  1.2814  0.7717  1.1827
17123TIP3    H272861   0.057   2.562  15.206  0.0138  0.3518  0.3178
17124TIP3   OH272862   2.363   5.057  11.500  0.4128  0.7257  0.3377
17124TIP3    H172863   2.287   5.086  11.449 -0.9056 -0.7572  1.3110
17124TIP3    H272864   2.325   5.027  11.583  2.3754  2.3017  1.9198
17125TIP3   OH272865   1.704   4.347   2.334  0.3199  0.7811 -0.8099
17125TIP3    H172866   1.655   4.357   2.252 -0.0396 -0.1402 -0.7183
17125TIP3    H272867   1.790   4.317   2.307 -0.3999 -1.4769 -0.7746
17126TIP3   OH272868   2.760   1.209  15.532 -0.2285  0.9440 -0.3606
17126TIP3    H172869   2.713   1.127  15.543 -1.3351  1.5971 -0.0612
17126TIP3    H272870   2.730   1.264  15.605  0.3837  1.6571 -0.6344
17127TIP3   OH272871   4.348   2.160   4.530  0.4060 -0.4929  0.2792
17127TIP3    H172872   4.443   2.151   4.530  0.5937  1.1224  1.0961
17127TIP3    H272873   4.323   2.148   4.622  0.1780  1.8835  0.5916
17128TIP3   OH272874   0.713   3.025  14.565 -0.7668 -0.1271  0.1148
17128TIP3    H172875   0.751   2.938  14.554  0.2406  0.2158  0.7752
17128TIP3    H272876   0.787   3.086  14.553 -1.0903  0.5549  1.3557
17129TIP3   OH272877   2.308   3.452  15.796 -0.1041  0.4419 -0.2403
17129TIP3    H172878   2.289   3.487  15.708 -0.7124  0.6752 -0.0180
17129TIP3    H272879   2.356   3.523  15.839 -2.1109  1.3922  0.5176
17130TIP3   OH272880   2.420   5.217   3.217  0.0017  0.1351 -0.0253
17130TIP3    H172881   2.398   5.251   3.131 -0.0876 -1.2325 -0.5790
17130TIP3    H272882   2.515   5.207   3.216 -0.1229 -1.3757 -0.6045
17131TIP3   OH272883   3.429   2.447  16.297 -0.7326 -0.1388 -0.4988
17131TIP3    H172884   3.519   2.479  16.302 -0.7060 -0.0728 -1.2344
17131TIP3    H272885   3.407   2.421  16.386 -0.1051  0.1743 -0.2499
17132TIP3   OH272886   3.198   5.099  11.418 -0.7738  0.5154  0.1329
17132TIP3    H172887   3.259   5.096  11.344  0.7374  0.1338  1.3545
17132TIP3    H272888   3.180   5.007  11.438  0.8777  0.4994  1.8260
17133TIP3   OH272889   0.304   0.264  16.803  0.4725 -0.2109  0.0426
17133TIP3    H172890   0.222   0.309  16.826  1.3468  0.4601  2.1581
17133TIP3    H272891   0.277   0.188  16.752 -1.2471  1.3781 -1.5558
17134TIP3   OH272892   1.885   4.906  12.180  0.0165 -0.5774  1.0662
17134TIP3    H172893   1.791   4.919  12.191 -0.3268 -1.6369 -0.3062
17134TIP3    H272894   1.912   4.855  12.257 -0.6608 -0.8351  1.1338
17135TIP3   OH272895   0.104   1.517   5.294 -0.2728  0.1311  0.3211
17135TIP3    H172896   0.156   1.597   5.284 -0.3292 -0.0068 -1.2277
17135TIP3    H272897   0.164   1.446   5.271 -0.6563 -0.1521  0.1786
17136TIP3   OH272898   5.698   1.262   3.623 -0.4282 -0.0113  0.2448
17136TIP3    H172899   5.606   1.287   3.623 -0.1166  1.2021 -0.0027
17136TIP3    H272900   5.703   1.187   3.683 -1.6426 -0.4023 -0.1193
17137TIP3   OH272901   2.876   5.438  11.039  0.2518 -0.3890  0.3680
17137TIP3    H172902   2.782   5.444  11.052  0.2655 -1.8629  1.4580
17137TIP3    H272903   2.914   5.457  11.125  0.9671  0.4122 -0.1091
17138TIP3   OH272904   5.598   6.627  11.741 -0.4004 -0.4737  0.2300
17138TIP3    H172905   5.503   6.642  11.743 -0.2599  0.5789 -0.5981
17138TIP3    H272906   5.635   6.700  11.790  0.0172 -0.6592  0.1981
17139TIP3   OH272907   4.627   1.644   5.248 -0.2752  0.4428 -0.4170
17139TIP3    H172908   4.659   1.701   5.178  0.7917 -2.7015 -2.7266
17139TIP3    H272909   4.582   1.573   5.203  1.8504 -2.6319  1.8595
17140TIP3   OH272910   6.566   3.290  11.412  1.3443  0.3929  0.4847
17140TIP3    H172911   6.532   3.286  11.501  2.0767  1.6118  0.8471
17140TIP3    H272912   6.508   3.352  11.367 -0.0752 -1.5044 -0.4079
17141TIP3   OH272913   0.377   2.813  12.876 -0.6746 -0.0931 -0.0363
17141TIP3    H172914   0.316   2.793  12.947  0.9656 -1.8393  0.9770
17141TIP3    H272915   0.460   2.774  12.904  0.5040  0.7586 -2.1063
17142TIP3   OH272916   0.243   3.260   4.690  0.1803  0.0526 -0.0582
17142TIP3    H172917   0.336   3.284   4.695 -0.0535  0.7599  1.5381
17142TIP3    H272918   0.243   3.176   4.644  1.5668  0.2131 -0.4215
17143TIP3   OH272919   4.670   0.633   2.364  0.1990  0.2282  0.7480
17143TIP3    H172920   4.764   0.636   2.345  0.2623 -2.6330  0.2325
17143TIP3    H272921   4.665   0.634   2.460  0.7310  0.5336  0.7769
17144TIP3   OH272922   3.177   2.321   1.740  0.2797 -0.2362  0.4800
17144TIP3    H172923   3.146   2.368   1.818  2.0381  0.3359  0.8980
17144TIP3    H272924   3.112   2.253   1.725 -1.1780  0.9261  1.2098
17145TIP3   OH272925   1.773   6.330  12.379 -0.3363  0.2023  0.0363
17145TIP3    H172926   1.733   6.276  12.311 -0.4189 -2.7254  2.2448
17145TIP3    H272927   1.864   6.299  12.383 -0.2097  0.6682  0.9623
17146TIP3   OH272928   4.855   2.554  11.856  0.3929 -0.1076  0.1345
17146TIP3    H172929   4.878   2.480  11.913  0.2672  0.7286  1.2993
17146TIP3    H272930   4.855   2.630  11.914  1.3644  0.9595 -1.2133
17147TIP3   OH272931   6.218   3.508  10.688 -0.5806  0.4741 -0.7442
17147TIP3    H172932   6.299   3.555  10.666  0.0018  0.5615  1.3922
17147TIP3    H272933   6.165   3.572  10.735 -1.6051  0.1801 -1.4481
17148TIP3   OH272934   2.935   5.758  10.514  0.2518  0.5451  0.6841
17148TIP3    H172935   3.015   5.753  10.462 -0.8010  0.7914 -1.0533
17148TIP3    H272936   2.939   5.682  10.572  0.3052 -1.2900 -1.5803
17149TIP3   OH272937   4.645   6.462   4.141  0.3243  0.9243 -0.0091
17149TIP3    H172938   4.587   6.428   4.208  1.0500  2.2926  1.3816
17149TIP3    H272939   4.589   6.475   4.064 -0.7204  0.1906  0.6159
17150TIP3   OH272940   4.703   5.032   3.419  0.0478  0.5731 -0.4752
17150TIP3    H172941   4.789   5.017   3.382  0.3449 -0.0103  0.4233
17150TIP3    H272942   4.643   5.022   3.345  0.6338 -0.4132 -0.8272
17151TIP3   OH272943   5.178   0.849   2.390 -0.1975  0.1940  0.1648
17151TIP3    H172944   5.272   0.843   2.406 -0.2909 -1.4427  0.3248
17151TIP3    H272945   5.165   0.935   2.351  1.4623  0.1612 -0.5249
17152TIP3   OH272946   0.734   0.752  15.714  0.7184 -0.2868  0.1819
17152TIP3    H172947   0.732   0.658  15.699 -2.4437 -0.3585  0.4829
17152TIP3    H272948   0.732   0.762  15.809  3.4930  0.1870  0.2839
17153TIP3   OH272949   1.997   4.967   3.780 -0.7887  0.2743  0.2974
17153TIP3    H172950   2.054   4.946   3.854 -1.0524 -0.4685  0.2948
17153TIP3    H272951   2.052   4.956   3.703 -0.8623 -0.1827  0.3100
17154TIP3   OH272952   1.659   3.811  14.975 -0.8103  0.4025 -0.1276
17154TIP3    H172953   1.661   3.821  15.071  0.8681  1.0644 -0.1831
17154TIP3    H272954   1.726   3.745  14.958 -1.0992  0.2957 -0.8545
17155TIP3   OH272955   1.066   5.703  16.053  0.7096  0.6694  0.0147
17155TIP3    H172956   1.044   5.638  16.119 -0.3841  1.5516  0.5512
17155TIP3    H272957   0.982   5.725  16.012  1.3597  0.1714 -1.6527
17156TIP3   OH272958   5.770   1.198   3.342 -0.3006  0.4466  0.5645
17156TIP3    H172959   5.852   1.243   3.319  0.5431 -0.4784  1.6317
17156TIP3    H272960   5.759   1.217   3.435  0.1289 -1.5742  1.0719
17157TIP3   OH272961   2.955   0.659   2.096 -1.1133 -0.2390 -0.6191
17157TIP3    H172962   3.025   0.658   2.031  1.0285  0.1722  1.5314
17157TIP3    H272963   2.987   0.604   2.167 -3.3049 -0.6007  0.1679
17158TIP3   OH272964   0.267   5.549   2.710 -0.1691 -0.1231 -0.3828
17158TIP3    H172965   0.331   5.606   2.668  1.2043 -1.4630 -0.1909
17158TIP3    H272966   0.208   5.524   2.639  0.4357 -0.0971 -0.9035
17159TIP3   OH272967   1.750   0.909  13.920  0.0297 -0.5370 -0.2521
17159TIP3    H172968   1.715   0.867  13.998  1.2653 -0.2209  0.4917
17159TIP3    H272969   1.672   0.931  13.868 -0.7685 -1.3817  0.5430
17160TIP3   OH272970   6.082   6.556  11.877  0.1687 -0.2807 -0.3245
17160TIP3    H172971   6.017   6.542  11.946  0.9711 -3.8634 -0.0927
17160TIP3    H272972   6.132   6.632  11.906 -1.6673  0.4070  1.2477
17161TIP3   OH272973   4.789   0.046   4.807  0.3433 -0.7181  0.4065
17161TIP3    H172974   4.865  -0.012   4.802 -0.2914 -1.4578 -1.7315
17161TIP3    H272975   4.740   0.029   4.727 -1.3990  0.7108  1.0871
17162TIP3   OH272976   0.772   6.642   2.649 -0.2108 -0.2209 -0.5806
17162TIP3    H172977   0.807   6.583   2.715 -0.7429 -0.4571 -0.5026
17162TIP3    H272978   0.788   6.730   2.684 -3.3622 -0.3110  1.4833
17163TIP3   OH272979   6.607   4.551   1.344  0.3972 -0.4379 -0.4359
17163TIP3    H172980   6.658   4.476   1.313  1.7802  0.0379  0.5952
17163TIP3    H272981   6.611   4.614   1.272  0.0440 -0.9655 -0.9253
17164TIP3   OH272982   4.651   3.058  13.720  0.3231 -0.6648 -0.0994
17164TIP3    H172983   4.594   3.029  13.792 -0.0428  0.5900  0.1452
17164TIP3    H272984   4.702   3.130  13.757 -0.1720  0.2895 -1.1913
17165TIP3   OH272985   2.094   6.155  11.094 -0.2009 -0.1306 -0.6800
17165TIP3    H172986   2.152   6.192  11.161 -0.5020 -1.4512  0.3564
17165TIP3    H272987   2.097   6.218  11.022 -1.7101  2.6084  1.4601
17166TIP3   OH272988   3.851   4.869   3.948 -0.0849 -0.1311  0.1610
17166TIP3    H172989   3.777   4.853   4.006 -1.4494  1.2947 -1.0813
17166TIP3    H272990   3.893   4.947   3.983  0.6325 -0.7264  0.6519
17167TIP3   OH272991   0.465   0.833  12.215  0.7469  0.3056  0.1177
17167TIP3    H172992   0.454   0.893  12.289  0.9516  1.9159 -1.1030
17167TIP3    H272993   0.389   0.850  12.159  0.9476 -0.3927 -0.3794
17168TIP3   OH272994   3.428   6.190   5.671 -0.1260  0.8084  0.1196
17168TIP3    H172995   3.398   6.210   5.759 -2.4066  1.8198 -0.7950
17168TIP3    H272996   3.348   6.186   5.619  1.2311  2.1680 -2.2713
17169TIP3   OH272997   5.204   3.993   0.822  0.1160 -0.0114  0.4118
17169TIP3    H172998   5.197   3.914   0.767 -1.0342  0.0537  0.4493
17169TIP3    H272999   5.290   4.028   0.801 -0.7369  0.6927 -2.2931
17170TIP3   OH273000   5.381   3.266  17.056  0.2370  0.5968 -0.4755
17170TIP3    H173001   5.317   3.336  17.061 -0.5973 -0.1424 -0.5046
17170TIP3    H273002   5.405   3.247  17.146  1.3167  1.6657 -0.5207
17171TIP3   OH273003   0.108   1.606   3.120  0.7403  0.9817 -0.0597
17171TIP3    H173004   0.106   1.579   3.212 -0.5526  0.8448 -0.1046
17171TIP3    H273005   0.116   1.701   3.122 -0.8170  1.1341  0.2558
17172TIP3   OH273006   5.185   1.025   5.500  0.1633 -0.0792  0.2021
17172TIP3    H173007   5.244   1.097   5.475 -1.7894  1.2928 -0.6990
17172TIP3    H273008   5.229   0.983   5.573  0.9862  2.6239  1.3843
17173TIP3   OH273009   5.016   1.533   4.678  0.4068  0.4309  0.1023
17173TIP3    H173010   5.072   1.555   4.752 -0.0508  2.5077 -0.1181
17173TIP3    H273011   5.033   1.440   4.662 -0.2582 -0.4258  3.4703
17174TIP3   OH273012   6.219   2.648  13.998 -0.5944  0.2032  0.3846
17174TIP3    H173013   6.200   2.585  14.067 -3.8887 -0.3769 -0.8587
17174TIP3    H273014   6.288   2.606  13.946 -1.6642 -1.7763  0.4474
17175TIP3   OH273015   5.045   4.873  15.168 -0.5828  0.6607  0.0744
17175TIP3    H173016   5.013   4.822  15.093  1.2265  1.4481 -1.3238
17175TIP3    H273017   5.048   4.963  15.135  1.2277  0.8742  0.7276
17176TIP3   OH273018   0.896   1.964   1.924  0.4721 -0.1184  0.6297
17176TIP3    H173019   0.929   1.923   2.003  0.0200 -0.3642  0.6925
17176TIP3    H273020   0.849   1.895   1.877  1.1730 -0.1065 -0.1098
17177TIP3   OH273021   5.313   4.434  15.525  0.6959 -0.0270 -0.4414
17177TIP3    H173022   5.373   4.383  15.579  0.1226  0.6626  0.8979
17177TIP3    H273023   5.228   4.390  15.537  0.4416  0.5111 -0.2514
17178TIP3   OH273024   5.787   5.080  16.047 -0.3402 -0.1776  0.3023
17178TIP3    H173025   5.743   5.159  16.078 -0.4187 -0.9950  2.4663
17178TIP3    H273026   5.718   5.013  16.046 -0.3497 -0.2084 -1.8081
17179TIP3   OH273027   2.805   2.590  15.173 -0.1681 -0.1276  0.9565
17179TIP3    H173028   2.781   2.580  15.080  2.9406 -0.0626  0.0383
17179TIP3    H273029   2.861   2.515  15.191  1.4608  1.2658  1.9665
17180TIP3   OH273030   6.111   4.346   0.634  0.2026  0.0251 -0.2594
17180TIP3    H173031   6.196   4.387   0.618  0.1855  0.6271  1.1175
17180TIP3    H273032   6.077   4.326   0.546  1.4759  0.3510 -0.8380
17181TIP3   OH273033   6.380   6.059  14.254  0.5852 -0.0767 -0.4311
17181TIP3    H173034   6.420   6.146  14.257  1.2585 -0.4020  0.5459
17181TIP3    H273035   6.293   6.072  14.293  0.6771  0.1619 -0.2981
17182TIP3   OH273036   4.343   2.597   0.560  0.4631  0.7945 -0.0324
17182TIP3    H173037   4.415   2.659   0.568 -0.1307  1.3827  0.9046
17182TIP3    H273038   4.309   2.588   0.649 -0.4417  0.3082 -0.4117
17183TIP3   OH273039   0.327   0.233  14.297  0.8474 -0.1694  0.5392
17183TIP3    H173040   0.422   0.236  14.289  1.0040 -1.0418  1.7267
17183TIP3    H273041   0.312   0.199  14.386 -0.5712  0.6139  0.6217
17184TIP3   OH273042   4.224   0.684  13.918 -0.3449 -0.1931 -0.4815
17184TIP3    H173043   4.239   0.724  13.832  1.2663 -0.8629 -0.5408
17184TIP3    H273044   4.189   0.755  13.971 -2.1245  0.0461 -1.8632
17185TIP3   OH273045   1.095   3.846  15.944  0.2737  0.2672  0.4687
17185TIP3    H173046   1.027   3.894  15.898 -0.2495 -0.0624  0.8836
17185TIP3    H273047   1.076   3.859  16.037 -0.7891 -1.9272  0.6287
17186TIP3   OH273048   3.889   1.962   2.918 -0.0206  0.3046  0.5093
17186TIP3    H173049   3.927   2.050   2.919 -0.7404  0.6376 -0.3981
17186TIP3    H273050   3.961   1.906   2.890  0.3438  0.6582  0.7261
17187TIP3   OH273051   1.950   2.699   1.928  0.2909  0.3649  0.1673
17187TIP3    H173052   1.863   2.663   1.948 -0.0198  1.2568  0.4509
17187TIP3    H273053   1.967   2.672   1.838 -0.2929  0.2000  0.1039
17188TIP3   OH273054   6.276   6.208  12.769  0.0722  0.0027  0.0081
17188TIP3    H173055   6.321   6.141  12.718  1.2884  0.5204  0.3677
17188TIP3    H273056   6.193   6.221  12.723  0.2534 -1.0019 -0.6499
17189TIP3   OH273057   2.251   3.044  12.178 -0.3721  0.3168 -0.0465
17189TIP3    H173058   2.256   2.985  12.102 -0.3877 -0.2000  0.3533
17189TIP3    H273059   2.198   3.118  12.147  0.6460  0.7098 -0.9329
17190TIP3   OH273060   2.887   1.625   0.304  0.2495 -0.3045  0.3989
17190TIP3    H173061   2.981   1.606   0.310  0.3563  0.2327  0.5257
17190TIP3    H273062   2.880   1.716   0.334 -0.4649 -0.7255  1.6021
17191TIP3   OH273063   3.697   5.369  14.144  0.5034  0.4301  0.0842
17191TIP3    H173064   3.649   5.400  14.067  0.7531  1.7348  0.4345
17191TIP3    H273065   3.682   5.436  14.211  2.0297  0.3959  0.4974
17192TIP3   OH273066   6.362   3.329  13.716  0.7440 -0.2441 -0.1249
17192TIP3    H173067   6.377   3.344  13.623  0.2718  1.3837  0.0403
17192TIP3    H273068   6.450   3.330  13.755  0.8864 -0.1536 -0.4421
17193TIP3   OH273069   2.516   1.071  14.807 -0.0356  0.2989 -0.2770
17193TIP3    H173070   2.443   1.132  14.806  0.9952  1.6104  0.3936
17193TIP3    H273071   2.589   1.120  14.769  0.4544 -1.0652 -1.1856
17194TIP3   OH273072   2.467   1.170  12.907 -0.1575 -0.2205 -0.3525
17194TIP3    H173073   2.552   1.212  12.895 -0.2203 -0.5267 -2.1495
17194TIP3    H273074   2.435   1.156  12.818 -2.0547 -0.1893  0.2926
17195TIP3   OH273075   4.460   4.109  14.027  0.3128 -0.6944  0.3817
17195TIP3    H173076   4.517   4.033  14.033 -0.6362 -1.5551 -0.8381
17195TIP3    H273077   4.502   4.167  13.963 -0.2834 -1.4688 -0.7499
17196TIP3   OH273078   4.544   4.061  15.384 -1.1810 -0.2927  0.4644
17196TIP3    H173079   4.472   4.099  15.436 -1.2729 -0.2163  0.2805
17196TIP3    H273080   4.548   4.115  15.305 -0.9617 -0.3366  0.4451
17197TIP3   OH273081   0.034   4.788  15.605  0.2480 -0.1716  0.3177
17197TIP3    H173082   0.129   4.795  15.595  0.0766 -0.0203 -1.4251
17197TIP3    H273083   0.020   4.697  15.634  1.0014  0.3009  2.3500
17198TIP3   OH273084   4.238   4.969   5.771  0.1425  0.7440  0.0799
17198TIP3    H173085   4.257   4.883   5.808 -0.1458 -0.0557 -1.5636
17198TIP3    H273086   4.145   4.966   5.748 -0.0945  1.8259  0.7759
17199TIP3   OH273087   6.328   6.783   3.779 -0.1403 -0.1589  0.1103
17199TIP3    H173088   6.281   6.764   3.860 -2.0558  0.6235 -0.7518
17199TIP3    H273089   6.286   6.861   3.744  1.4664  0.2635 -1.0372
17200TIP3   OH273090   5.364   5.464  16.392 -0.1788  0.0677 -0.0217
17200TIP3    H173091   5.304   5.503  16.456 -0.6377  0.4708 -0.6807
17200TIP3    H273092   5.312   5.395  16.350 -0.4343  0.8673 -1.0778
17201TIP3   OH273093   1.178   1.319   4.395  0.4523  0.4965 -0.1772
17201TIP3    H173094   1.154   1.227   4.387 -0.2682  0.6563  0.0056
17201TIP3    H273095   1.269   1.318   4.424  1.1190 -0.1228 -2.1343
17202TIP3   OH273096   1.661   6.690  14.106  0.4058  0.4925  0.0165
17202TIP3    H173097   1.693   6.755  14.043  0.9541 -0.5742 -0.8331
17202TIP3    H273098   1.734   6.629  14.118  0.1221  0.3683  1.2837
17203TIP3   OH273099   0.798   3.627  11.598  0.4248 -0.0420 -0.4379
17203TIP3    H173100   0.812   3.668  11.513 -0.2916 -1.8799 -1.4995
17203TIP3    H273101   0.850   3.546  11.594  2.7328  1.1550  2.0076
17204TIP3   OH273102   3.703   6.803   1.673  0.0405 -0.1900  0.3764
17204TIP3    H173103   3.620   6.755   1.678  0.3326 -0.7343  0.0711
17204TIP3    H273104   3.714   6.824   1.580  0.7085 -0.9651  0.2664
17205TIP3   OH273105   1.832   6.685   4.996  0.4277 -0.3760 -0.6453
17205TIP3    H173106   1.766   6.752   5.017 -0.0510 -1.3114  1.0609
17205TIP3    H273107   1.825   6.673   4.902 -0.4836  0.9497 -0.7729
17206TIP3   OH273108   0.508   5.265   4.152  0.5875 -0.5468  0.0347
17206TIP3    H173109   0.430   5.319   4.136  0.4778 -0.8377 -0.4170
17206TIP3    H273110   0.577   5.328   4.171  0.1694 -0.2927  0.7974
17207TIP3   OH273111   4.484   0.718  12.595 -0.3864 -0.8208 -0.4191
17207TIP3    H173112   4.545   0.668  12.650 -0.3955 -0.3138  0.0570
17207TIP3    H273113   4.539   0.785  12.554 -0.4160 -1.0774 -0.8809
17208TIP3   OH273114   1.083   4.408   2.658 -0.8443 -0.2158  0.2274
17208TIP3    H173115   1.131   4.352   2.719 -1.9440  0.6343  1.9622
17208TIP3    H273116   1.045   4.348   2.594 -0.1308 -1.2013  0.7161
17209TIP3   OH273117   3.031   4.190   6.572  0.4902 -0.1359  0.5375
17209TIP3    H173118   3.100   4.208   6.508  1.1676  0.4316  1.4067
17209TIP3    H273119   3.077   4.182   6.656 -0.5190  0.5524  1.1799
17210TIP3   OH273120   6.376   5.532   2.662 -0.0890  1.0320  0.1785
17210TIP3    H173121   6.329   5.453   2.690 -2.1848  2.7670  1.9447
17210TIP3    H273122   6.466   5.503   2.649 -0.4654 -1.3879  2.1312
17211TIP3   OH273123   3.351   0.136   4.008 -0.2599 -0.1218 -0.0323
17211TIP3    H173124   3.302   0.053   4.014 -0.2940 -0.0224  2.3623
17211TIP3    H273125   3.285   0.203   4.024 -0.2494  0.4207 -2.0682
17212TIP3   OH273126   5.637   4.798  12.582  0.8860  0.3106 -0.0772
17212TIP3    H173127   5.718   4.835  12.618  2.0615 -0.5762 -1.6736
17212TIP3    H273128   5.642   4.705  12.604  0.9858  0.0080 -1.3325
17213TIP3   OH273129   4.879   6.528   5.458  0.3953  0.0531  0.2775
17213TIP3    H173130   4.838   6.577   5.387  0.9094  0.3401  0.1750
17213TIP3    H273131   4.806   6.488   5.505  0.0490 -0.0787 -0.3660
17214TIP3   OH273132   4.606   2.792  11.243  0.0553  0.2261  0.0243
17214TIP3    H173133   4.686   2.831  11.208 -1.2306  1.5060 -1.6482
17214TIP3    H273134   4.570   2.859  11.301  0.7641 -0.8131  1.7121
17215TIP3   OH273135   2.937   0.236  12.823  0.5143 -0.2766 -0.6282
17215TIP3    H173136   2.925   0.142  12.808 -0.8127 -0.3295  0.5731
17215TIP3    H273137   2.917   0.249  12.915  0.8823  1.1642 -0.7238
17216TIP3   OH273138   1.059   0.400  16.881  0.3903  0.4062  0.0442
17216TIP3    H173139   1.049   0.490  16.912 -0.2501  0.1217  0.6920
17216TIP3    H273140   1.030   0.402  16.790 -0.3527  0.7136  0.2792
17217TIP3   OH273141   1.313   4.795  15.275 -0.4962  0.3049 -0.3940
17217TIP3    H173142   1.401   4.832  15.271 -0.3930 -0.0107 -3.1462
17217TIP3    H273143   1.260   4.851  15.219 -1.3666 -1.0907 -1.0414
17218TIP3   OH273144   2.950   4.589  17.046 -0.0661  0.7168  0.0048
17218TIP3    H173145   2.978   4.546  17.126 -0.5509  2.1806  0.9956
17218TIP3    H273146   3.022   4.649  17.024  1.0540 -1.1597 -1.9110
17219TIP3   OH273147   5.217   6.564   5.753  0.4305 -0.3067 -0.3778
17219TIP3    H173148   5.141   6.519   5.790 -0.8204  1.2228 -0.9671
17219TIP3    H273149   5.189   6.589   5.665  2.1632 -0.9922 -1.1554
17220TIP3   OH273150   4.076   3.709  13.251 -0.0645 -0.2333  0.1911
17220TIP3    H173151   4.027   3.699  13.332 -0.7699  0.7443 -0.0882
17220TIP3    H273152   4.031   3.781  13.205  1.1973  0.2006 -0.4027
17221TIP3   OH273153   5.178   6.655   4.715 -0.5147  0.5009 -0.2802
17221TIP3    H173154   5.144   6.724   4.772  1.4557  0.2639  1.3119
17221TIP3    H273155   5.271   6.676   4.706 -0.5346 -0.1844 -2.4351
17222TIP3   OH273156   1.761   0.462  16.783 -0.0024  0.1087 -0.1898
17222TIP3    H173157   1.803   0.418  16.709  0.1234 -0.5631  0.2747
17222TIP3    H273158   1.765   0.555  16.760  0.0929 -0.0797 -0.9941
17223TIP3   OH273159   2.891   1.280   1.100  0.0379  0.9793 -0.0518
17223TIP3    H173160   2.950   1.207   1.117 -0.2554  0.8746  0.5603
17223TIP3    H273161   2.938   1.336   1.039  0.9918  1.1611  0.8182
17224TIP3   OH273162   5.485   0.671   5.270 -0.0454  0.4170 -0.1043
17224TIP3    H173163   5.437   0.617   5.207  0.0671  1.6614 -1.3117
17224TIP3    H273164   5.505   0.612   5.342  1.0793 -1.4854 -1.8464
17225TIP3   OH273165   5.106   4.708   3.359 -0.4811  0.2910 -0.1591
17225TIP3    H173166   5.077   4.646   3.426 -1.0722  1.1036  0.3675
17225TIP3    H273167   5.123   4.789   3.407  0.0198  0.6133 -0.8642
17226TIP3   OH273168   3.773   0.747  16.051  0.2325  0.1507 -0.1831
17226TIP3    H173169   3.729   0.715  16.130  0.4200 -0.7257 -0.4180
17226TIP3    H273170   3.841   0.681  16.033 -1.6827 -1.3277 -2.7504
17227TIP3   OH273171   2.050   1.655   6.507 -0.4289 -0.0019  0.5275
17227TIP3    H173172   2.039   1.723   6.439 -0.6341 -0.8525 -0.3118
17227TIP3    H273173   1.968   1.605   6.504  0.1161 -0.9003  0.4401
17228TIP3   OH273174   1.222   0.396  15.485  0.1790 -0.2785 -0.6628
17228TIP3    H173175   1.307   0.354  15.471  0.9746  1.3697 -1.0607
17228TIP3    H273176   1.204   0.441  15.402 -0.4175  0.5186 -0.1138
17229TIP3   OH273177   0.782   6.215   3.130  0.0382  0.0356  0.9852
17229TIP3    H173178   0.792   6.207   3.225 -0.0330 -0.4575  0.9546
17229TIP3    H273179   0.866   6.250   3.100  0.3371 -0.5307  1.1469
17230TIP3   OH273180   3.634   1.819   4.953  0.4565 -0.0168 -0.1114
17230TIP3    H173181   3.717   1.867   4.953  0.2562  0.3982 -1.6907
17230TIP3    H273182   3.658   1.729   4.932  0.5142  0.1094 -0.5966
17231TIP3   OH273183   5.784   1.403   6.099 -0.1205 -0.3233  0.1434
17231TIP3    H173184   5.729   1.466   6.145  0.3433  0.1235  0.0970
17231TIP3    H273185   5.859   1.454   6.068  0.9117 -1.1222  1.1932
17232TIP3   OH273186   3.359   4.324   2.612  0.0060  0.2886 -0.0743
17232TIP3    H173187   3.322   4.297   2.696  2.1533  0.1428  0.8995
17232TIP3    H273188   3.452   4.303   2.619  0.5210  1.6748 -1.9258
17233TIP3   OH273189   2.308   2.209   0.696 -0.1845  0.1419 -0.3468
17233TIP3    H173190   2.221   2.240   0.672 -0.9812 -1.9542 -0.3026
17233TIP3    H273191   2.362   2.227   0.619 -1.3452 -1.1541 -1.4951
17234TIP3   OH273192   1.233   3.340   4.644 -0.4709 -1.1019 -0.2019
17234TIP3    H173193   1.292   3.372   4.576  0.2810  0.0949  0.9825
17234TIP3    H273194   1.145   3.353   4.607 -0.1785  1.6115 -0.1324
17235TIP3   OH273195   2.702   6.652   1.485 -0.1795  0.2158 -0.0702
17235TIP3    H173196   2.744   6.684   1.405 -2.5607  2.6811 -0.4727
17235TIP3    H273197   2.623   6.607   1.454  0.2151 -1.1785  0.8325
17236TIP3   OH273198   4.144   0.307   4.146  0.0683 -0.1099  0.2564
17236TIP3    H173199   4.058   0.276   4.174 -1.1849  1.3069 -1.7671
17236TIP3    H273200   4.170   0.247   4.076 -1.1518  1.6677 -1.8359
17237TIP3   OH273201   1.642   4.624   4.124 -0.1362  0.1067  0.2932
17237TIP3    H173202   1.617   4.716   4.114 -0.8744 -0.1730 -0.5656
17237TIP3    H273203   1.562   4.575   4.105 -0.2425 -0.6799  2.4743
17238TIP3   OH273204   0.672   3.764   0.310 -0.2549 -0.5414 -0.2464
17238TIP3    H173205   0.747   3.705   0.311 -1.0492 -1.5758  0.3226
17238TIP3    H273206   0.596   3.707   0.326 -0.9466  0.7518  1.4916
17239TIP3   OH273207   6.083   4.392   5.402  0.1199  0.4507  0.3784
17239TIP3    H173208   6.073   4.457   5.332  0.9343 -1.8783 -2.0792
17239TIP3    H273209   6.177   4.388   5.418  0.0003  0.4239  1.1131
17240TIP3   OH273210   3.588   1.972   5.174  0.0074  0.0074  0.6287
17240TIP3    H173211   3.570   1.954   5.081 -1.9506  1.7088  0.6165
17240TIP3    H273212   3.646   1.900   5.201 -0.5185 -1.3229 -1.5281
17241TIP3   OH273213   3.027   6.587   1.021 -0.4584 -0.4599  0.1721
17241TIP3    H173214   2.967   6.522   0.985 -1.1519  0.6311 -0.7364
17241TIP3    H273215   2.996   6.670   0.984  1.9874  0.0747 -0.8746
17242TIP3   OH273216   0.156   1.063  16.566 -0.6128 -0.1068 -0.1654
17242TIP3    H173217   0.123   1.152  16.553  0.6666  0.3589 -0.3731
17242TIP3    H273218   0.175   1.031  16.478  1.6903  0.5435  0.0183
17243TIP3   OH273219   3.626   0.134   1.446 -0.0837  0.6151  0.5332
17243TIP3    H173220   3.552   0.097   1.399 -0.6905  0.1756  1.7914
17243TIP3    H273221   3.703   0.108   1.395 -0.7865  1.4637 -1.0415
17244TIP3   OH273222   2.800   6.024  11.901  0.6679 -0.0861 -0.1302
17244TIP3    H173223   2.853   5.993  11.827 -0.9541 -2.0643 -0.5331
17244TIP3    H273224   2.788   5.947  11.956  0.2516  0.9205  1.2576
17245TIP3   OH273225   1.804   3.464  12.632  0.2170  0.1637  0.0220
17245TIP3    H173226   1.773   3.553  12.646  2.6993  1.3549 -1.3728
17245TIP3    H273227   1.739   3.424  12.574  0.0347  1.7362 -0.8955
17246TIP3   OH273228   1.507   5.311  14.355  0.4243 -0.5769 -0.0064
17246TIP3    H173229   1.433   5.302  14.415  1.1927 -0.2350  1.0117
17246TIP3    H273230   1.583   5.282  14.406  0.5906 -5.0082 -2.2374
17247TIP3   OH273231   2.174   4.516  11.251  0.6792  0.8565 -0.4408
17247TIP3    H173232   2.111   4.575  11.210 -0.1146 -1.4428 -2.8440
17247TIP3    H273233   2.257   4.537  11.208  0.4561  0.4631 -1.0837
17248TIP3   OH273234   1.573   2.733  15.848  0.1330 -0.1627  0.2509
17248TIP3    H173235   1.637   2.665  15.872 -0.5552 -0.6168  0.8521
17248TIP3    H273236   1.504   2.726  15.915 -0.4358  0.4686 -0.2529
17249TIP3   OH273237   2.994   6.420  13.574  0.4779  0.3219  0.0045
17249TIP3    H173238   3.019   6.328  13.586  2.3781  0.8970  0.9400
17249TIP3    H273239   2.919   6.417  13.514  0.8598 -1.7860 -0.4596
17250TIP3   OH273240   2.987   0.939  14.976 -0.3708  0.0797 -0.3906
17250TIP3    H173241   2.973   0.956  15.069 -0.4767  3.1043 -0.8405
17250TIP3    H273242   2.913   0.981  14.932  0.6989  0.4556 -1.9238
17251TIP3   OH273243   2.532   2.761   2.372  0.5630 -0.2228 -0.3513
17251TIP3    H173244   2.439   2.752   2.355  0.5411 -0.5608 -0.0758
17251TIP3    H273245   2.560   2.836   2.319 -0.2311  1.0401  0.9385
17252TIP3   OH273246   3.521   2.418   1.220  0.1172  0.2293  0.2117
17252TIP3    H173247   3.520   2.454   1.131  0.9896  1.3568  0.6141
17252TIP3    H273248   3.463   2.343   1.218 -1.4389  1.4060 -0.8293
17253TIP3   OH273249   0.329   1.302   3.139 -0.3488  0.3781  0.0245
17253TIP3    H173250   0.239   1.297   3.170 -0.4748  0.5115 -0.3243
17253TIP3    H273251   0.366   1.378   3.185  0.2114 -0.8829  1.7746
17254TIP3   OH273252   2.621   1.682   4.754  0.5347  0.0901  0.1464
17254TIP3    H173253   2.586   1.731   4.680  0.7873 -2.5512 -1.8957
17254TIP3    H273254   2.702   1.727   4.777 -0.7843  2.4059  0.5655
17255TIP3   OH273255   1.640   4.274  14.759 -0.3169  0.1690 -0.0276
17255TIP3    H173256   1.597   4.261  14.843 -0.1272 -2.9983 -0.3038
17255TIP3    H273257   1.573   4.312  14.703 -0.5896  1.8521  1.3677
17256TIP3   OH273258   0.201   1.199   2.250 -0.1526 -0.1759 -0.5989
17256TIP3    H173259   0.254   1.146   2.191 -0.3049 -0.4663 -0.4781
17256TIP3    H273260   0.263   1.263   2.287  0.1292 -0.5506 -0.4125
17257TIP3   OH273261   2.358   0.523  16.364  0.3353 -0.4045 -0.6092
17257TIP3    H173262   2.328   0.568  16.443 -1.2402 -2.0806 -0.1827
17257TIP3    H273263   2.435   0.474  16.393  0.9880  0.5650 -0.6454
17258TIP3   OH273264   6.468   5.444   3.992 -0.2787  0.1721  0.0447
17258TIP3    H173265   6.444   5.513   3.930  0.2643 -0.1004 -0.4848
17258TIP3    H273266   6.435   5.364   3.952  1.2380 -0.1766 -0.5767
17259TIP3   OH273267   3.895   5.042   6.497  0.1348 -0.6754 -0.2201
17259TIP3    H173268   3.809   5.014   6.528 -0.2802 -0.4444 -1.1418
17259TIP3    H273269   3.937   4.963   6.465  0.3046 -0.8040  0.3145
17260TIP3   OH273270   0.509   6.602   2.690  0.4128 -0.2928  0.2300
17260TIP3    H173271   0.519   6.517   2.733 -0.4858 -0.6713 -0.2904
17260TIP3    H273272   0.594   6.617   2.649  0.2938 -1.4182 -0.4935
17261TIP3   OH273273   4.360   4.011  13.386 -0.0042  0.2392 -0.4360
17261TIP3    H173274   4.400   3.929  13.413  0.7329  0.3560 -1.1451
17261TIP3    H273275   4.424   4.078  13.410 -1.4325  0.8577  1.9849
17262TIP3   OH273276   0.587   4.878  15.427  1.0243 -0.2786  0.7207
17262TIP3    H173277   0.594   4.864  15.332  0.5424 -0.5742  0.7262
17262TIP3    H273278   0.612   4.970  15.439  1.0562 -0.2272  0.3018
17263TIP3   OH273279   0.855   2.818   2.743 -0.0914 -0.1972  0.1859
17263TIP3    H173280   0.777   2.818   2.798 -0.8974  1.4012 -0.8816
17263TIP3    H273281   0.917   2.761   2.789 -0.7977  0.8703  2.6296
17264TIP3   OH273282   4.298   3.805   2.657 -0.6250 -0.0562 -0.4760
17264TIP3    H173283   4.336   3.859   2.726 -0.1898 -0.7814 -0.1369
17264TIP3    H273284   4.356   3.729   2.651 -0.2722  0.3116 -2.1135
17265TIP3   OH273285   5.367   4.473  12.793 -0.0167 -0.0166 -0.4884
17265TIP3    H173286   5.325   4.387  12.789  2.0013 -1.0226 -1.4825
17265TIP3    H273287   5.402   4.479  12.881 -2.1097  0.8353  0.3557
17266TIP3   OH273288   3.887   3.678   5.244 -0.2492 -0.2720  0.7876
17266TIP3    H173289   3.941   3.695   5.321  2.1213 -0.5924 -0.7055
17266TIP3    H273290   3.919   3.595   5.210 -0.4451  0.3925 -1.1462
17267TIP3   OH273291   1.716   1.642   2.276  0.4499  0.2388  0.3216
17267TIP3    H173292   1.637   1.683   2.311  0.0985 -0.9352  0.9661
17267TIP3    H273293   1.785   1.707   2.290 -0.4240  1.3889 -0.4951
17268TIP3   OH273294   4.827   3.699   4.226  0.0425 -1.0197 -0.1624
17268TIP3    H173295   4.761   3.706   4.157 -1.8524  0.3996  1.6624
17268TIP3    H273296   4.785   3.645   4.294  1.0533 -0.7285  0.7194
17269TIP3   OH273297   3.093   6.368   0.055  0.3753 -0.2828 -0.1624
17269TIP3    H173298   3.018   6.428   0.050 -0.5579 -1.4653 -0.9340
17269TIP3    H273299   3.117   6.352  -0.036  1.0637 -0.5471  0.0562
17270TIP3   OH273300   6.389   2.000   2.344  0.1048 -0.1947  0.0390
17270TIP3    H173301   6.307   2.049   2.337  0.5147  0.4056 -0.7046
17270TIP3    H273302   6.444   2.053   2.403  0.4389  0.1049 -0.5295
17271TIP3   OH273303   3.108   4.001   6.021  0.0521  0.5084 -0.0231
17271TIP3    H173304   3.042   4.059   6.059  0.6540  1.1995 -0.0043
17271TIP3    H273305   3.183   4.058   6.003  0.7816 -0.3184  0.2854
17272TIP3   OH273306   6.037   1.043   3.499  0.9842 -0.6555 -0.0410
17272TIP3    H173307   6.133   1.040   3.491  1.0084  0.5621 -0.3592
17272TIP3    H273308   6.017   1.136   3.509  0.0732 -1.0809  3.0963
17273TIP3   OH273309   1.776   6.091  15.590 -0.6821  0.1546  0.3849
17273TIP3    H173310   1.731   6.101  15.506 -2.0866 -1.7099  0.8586
17273TIP3    H273311   1.791   5.997  15.598  0.7715  0.4511  1.5798
17274TIP3   OH273312   6.298   0.406  16.922 -0.1951 -0.0301  0.1484
17274TIP3    H173313   6.228   0.457  16.881 -0.4395 -0.6508 -0.2342
17274TIP3    H273314   6.377   0.431  16.875 -0.8085 -2.5099 -2.5059
17275TIP3   OH273315   0.966   4.292   3.741  0.0754  0.6157  0.3175
17275TIP3    H173316   0.941   4.358   3.677 -0.0973 -0.7208 -1.0314
17275TIP3    H273317   0.939   4.209   3.703  0.8200 -0.3113  1.7036
17276TIP3   OH273318   3.894   3.165   1.818  0.6261  0.4831 -0.5387
17276TIP3    H173319   3.915   3.081   1.859  0.0210 -0.7745 -2.6177
17276TIP3    H273320   3.799   3.172   1.824  0.3764 -0.2938 -2.5655
17277TIP3   OH273321   6.163   2.769  16.434  0.2334  0.0143  0.7527
17277TIP3    H173322   6.239   2.751  16.490  0.9017 -0.5611 -0.2947
17277TIP3    H273323   6.096   2.708  16.465  0.0474  0.7830  1.9316
17278TIP3   OH273324   3.319   4.023   0.706  0.5882 -0.1864 -0.6301
17278TIP3    H173325   3.350   4.029   0.616 -0.1046  1.7068 -0.7936
17278TIP3    H273326   3.376   4.082   0.755  1.4673 -1.8028  0.3572
17279TIP3   OH273327   4.631   2.534  11.038 -0.1905  0.3517  0.4021
17279TIP3    H173328   4.546   2.498  11.065  0.6466 -0.4609  2.0937
17279TIP3    H273329   4.640   2.614  11.091  0.5329 -0.0982  0.9615
17280TIP3   OH273330   5.803   1.690   4.035 -0.7324  0.1668 -0.2679
17280TIP3    H173331   5.738   1.687   4.105  0.5513 -0.2976  0.9460
17280TIP3    H273332   5.851   1.608   4.043 -0.8984 -0.1442 -2.0599
17281TIP3   OH273333   6.787   1.059   1.151  0.0996  0.7133  0.0256
17281TIP3    H173334   6.730   1.031   1.222  1.2273  0.3367  0.7961
17281TIP3    H273335   6.749   1.019   1.072  0.0102 -0.5865  0.7048
17282TIP3   OH273336   5.319   4.983  14.946  0.2340 -0.6884 -0.0146
17282TIP3    H173337   5.256   5.026  14.888  0.6569  1.3243  0.9418
17282TIP3    H273338   5.405   5.009  14.911  0.5027 -0.7576  0.5841
17283TIP3   OH273339   2.302   5.861   5.244 -0.1516  0.3594  0.5409
17283TIP3    H173340   2.336   5.930   5.302  2.2831  0.6797 -1.1300
17283TIP3    H273341   2.379   5.809   5.221 -1.0726  0.0538 -2.1247
17284TIP3   OH273342   1.238   1.514  15.196 -0.0431 -0.0435 -0.2493
17284TIP3    H173343   1.268   1.439  15.146 -0.3904  0.7522 -1.6922
17284TIP3    H273344   1.173   1.556  15.140  1.2950  2.2594 -0.2016
17285TIP3   OH273345   5.108   4.918  16.805  0.4068  0.4718 -0.0642
17285TIP3    H173346   5.171   4.940  16.736  0.0115 -1.2035 -1.0243
17285TIP3    H273347   5.161   4.878  16.873  0.3587 -1.6311 -1.1922
17286TIP3   OH273348   2.333   2.445   5.903 -0.6069  0.5028  0.1261
17286TIP3    H173349   2.360   2.494   5.825 -1.0041 -0.0082 -0.3369
17286TIP3    H273350   2.403   2.382   5.918 -1.5879 -0.9562 -1.1910
17287TIP3   OH273351   0.580   3.397  13.853 -0.4142  0.5636  0.3899
17287TIP3    H173352   0.598   3.385  13.947  2.1245 -0.8236 -0.1984
17287TIP3    H273353   0.531   3.319  13.828 -0.4616  0.5843  0.4172
17288TIP3   OH273354   1.770   0.934   5.047 -0.3728  0.9583 -0.3209
17288TIP3    H173355   1.774   0.890   4.962 -1.2820  0.0086  0.0980
17288TIP3    H273356   1.829   0.883   5.103 -0.1790  1.2622 -0.2474
17289TIP3   OH273357   0.262   3.424   1.284 -0.3022 -0.0008  0.1755
17289TIP3    H173358   0.197   3.480   1.325 -0.6207 -1.4068  1.7067
17289TIP3    H273359   0.239   3.335   1.313  0.1490 -0.9615 -2.1892
17290TIP3   OH273360   3.688   1.116  17.139  0.0940 -0.2965 -0.2644
17290TIP3    H173361   3.728   1.056  17.203 -0.4586 -0.0573  0.3247
17290TIP3    H273362   3.705   1.076  17.054 -1.6599 -2.1552  0.2059
17291TIP3   OH273363   3.578   6.402  15.851 -0.5236 -0.2722 -0.7593
17291TIP3    H173364   3.537   6.316  15.858 -1.0179  0.0120 -0.0868
17291TIP3    H273365   3.583   6.418  15.757  1.1801 -1.7761 -0.9915
17292TIP3   OH273366   4.546   6.261  11.608  0.4653 -0.4395 -0.4230
17292TIP3    H173367   4.521   6.295  11.522 -0.6860  1.1081  0.4874
17292TIP3    H273368   4.503   6.176  11.613  0.7050 -0.6354 -1.4456
17293TIP3   OH273369   0.394   2.169   5.504  0.4340 -0.7162 -0.2791
17293TIP3    H173370   0.323   2.149   5.565  1.1099 -0.2004  0.7012
17293TIP3    H273371   0.473   2.140   5.549  1.0607  0.7061 -0.4148
17294TIP3   OH273372   6.732   0.785   2.512 -0.5299 -0.7174 -0.0226
17294TIP3    H173373   6.719   0.692   2.497  1.1825 -0.9329 -0.3819
17294TIP3    H273374   6.726   0.825   2.426  0.5120 -0.7539 -0.1231
17295TIP3   OH273375   2.871   5.690   1.061  0.0379 -0.4302 -0.3242
17295TIP3    H173376   2.804   5.697   0.993  0.8260  0.1540 -1.0701
17295TIP3    H273377   2.858   5.767   1.116  0.2983 -0.1283 -0.6753
17296TIP3   OH273378   3.453   4.387  15.687  0.2277 -0.2900 -0.1601
17296TIP3    H173379   3.382   4.411  15.747  0.3893 -0.6324  0.1788
17296TIP3    H273380   3.521   4.350  15.744 -0.3873 -2.4059 -0.7098
17297TIP3   OH273381   3.881   0.071   0.699  0.9355  0.5399 -0.8791
17297TIP3    H173382   3.811   0.042   0.641 -0.9654 -0.0901  1.5791
17297TIP3    H273383   3.883   0.166   0.689  0.8054  0.4301 -2.1016
17298TIP3   OH273384   4.060   5.825   0.837  0.0663 -0.2729 -0.0799
17298TIP3    H173385   4.000   5.844   0.909 -0.1503 -0.7603 -0.1289
17298TIP3    H273386   4.005   5.783   0.770  0.5107 -1.0103  0.0004
17299TIP3   OH273387   3.392   6.565  16.439  0.1719 -0.5597 -0.0008
17299TIP3    H173388   3.403   6.654  16.473  1.9161 -0.5897 -0.3867
17299TIP3    H273389   3.377   6.512  16.517 -1.3127  0.1048  0.1977
17300TIP3   OH273390   3.152   2.098   4.440  0.0538  0.0673  0.6229
17300TIP3    H173391   3.102   2.134   4.513  0.2295 -0.6368  1.0960
17300TIP3    H273392   3.144   2.164   4.371 -1.5478 -0.0376  0.6676
17301TIP3   OH273393   0.781   4.393   0.067  0.1193  0.6260  0.3674
17301TIP3    H173394   0.794   4.398  -0.028  1.7059 -0.2621  0.5058
17301TIP3    H273395   0.693   4.426   0.081  0.7950  3.3132 -1.1473
17302TIP3   OH273396   5.719   5.721  13.855  0.3921 -0.5893 -1.1148
17302TIP3    H173397   5.714   5.629  13.878  0.3228 -0.1641  0.7530
17302TIP3    H273398   5.638   5.738  13.807 -0.5962 -1.0931  0.2878
17303TIP3   OH273399   0.218   1.885   5.099  0.3093  0.4970 -0.2134
17303TIP3    H173400   0.268   1.933   5.166 -1.6489  0.0249  1.6873
17303TIP3    H273401   0.150   1.946   5.072 -0.0828 -0.0087 -0.3697
17304TIP3   OH273402   6.361   0.099   5.256  0.1488 -0.3265 -0.3119
17304TIP3    H173403   6.387   0.114   5.346 -0.1398  1.4444 -0.4788
17304TIP3    H273404   6.267   0.080   5.261  0.3291 -1.2055 -0.1702
17305TIP3   OH273405   0.975   0.247  12.407 -0.3636  0.0377 -0.0564
17305TIP3    H173406   0.947   0.165  12.365  0.0329 -0.8241  1.2888
17305TIP3    H273407   1.063   0.229  12.440 -0.7353  0.5738  1.3222
17306TIP3   OH273408   4.085   1.954  10.149  0.1387  0.3902 -0.0054
17306TIP3    H173409   4.100   2.029  10.091 -0.0999 -0.5238 -1.2876
17306TIP3    H273410   4.167   1.905  10.148 -0.1720 -0.1432 -0.3746
17307TIP3   OH273411   6.038   1.300  16.598  0.0090 -0.4205  0.0354
17307TIP3    H173412   6.000   1.213  16.584 -0.1929 -0.0902 -1.7182
17307TIP3    H273413   5.977   1.360  16.555  1.4377  0.3310 -1.0199
17308TIP3   OH273414   4.963   2.883  16.605  0.1507 -0.0569 -0.1556
17308TIP3    H173415   4.989   2.955  16.661  1.7362 -1.0237  0.4155
17308TIP3    H273416   5.022   2.811  16.628 -0.5961 -1.1815 -1.5245
17309TIP3   OH273417   1.854   4.123   2.741 -0.0973 -0.3021  0.0377
17309TIP3    H173418   1.861   4.028   2.729  0.7629  0.0431 -2.7237
17309TIP3    H273419   1.764   4.136   2.774  0.6315 -2.1937  3.2453
17310TIP3   OH273420   0.619   5.489  16.732  0.0044  0.4257 -0.6445
17310TIP3    H173421   0.701   5.505  16.687 -0.0057 -1.5277 -1.4699
17310TIP3    H273422   0.634   5.410  16.783 -1.8176 -1.0192 -2.1851
17311TIP3   OH273423   4.673   4.424   0.246  0.5239 -0.2909 -0.3592
17311TIP3    H173424   4.588   4.386   0.222  0.3553  1.0454 -2.0072
17311TIP3    H273425   4.737   4.358   0.220  0.1105 -0.4110 -1.1092
17312TIP3   OH273426   1.189   1.321  11.176  0.6789  0.3672  0.1973
17312TIP3    H173427   1.165   1.323  11.083 -1.1170  0.6807  0.6283
17312TIP3    H273428   1.156   1.237  11.208  1.2358  0.2865  0.5638
17313TIP3   OH273429   0.234   5.742   6.468  0.1599  0.1522  0.2828
17313TIP3    H173430   0.265   5.833   6.471 -0.5299  0.3722  1.0215
17313TIP3    H273431   0.138   5.750   6.463  0.1252 -0.5299 -0.3544
17314TIP3   OH273432   5.965   3.251   1.029  0.1073 -0.4789 -0.0886
17314TIP3    H173433   5.980   3.332   0.981 -3.2640 -0.4661 -1.3777
17314TIP3    H273434   5.922   3.278   1.110  1.6079 -0.8523  0.8838
17315TIP3   OH273435   2.379   3.096   0.938  0.4735 -0.2391  0.1183
17315TIP3    H173436   2.286   3.117   0.933  0.9199  1.9509  0.1962
17315TIP3    H273437   2.420   3.155   0.875  1.7075 -2.1377 -0.9521
17316TIP3   OH273438   5.028   2.607  11.284 -0.4249  0.7894  0.3251
17316TIP3    H173439   5.045   2.619  11.191 -1.1323  1.7971  0.3109
17316TIP3    H273440   4.945   2.559  11.287  0.8291 -1.4965  0.4282
17317TIP3   OH273441   5.138   6.486  11.171  0.1112 -0.2147  0.3071
17317TIP3    H173442   5.169   6.477  11.081  0.7786 -0.6228  0.5652
17317TIP3    H273443   5.121   6.396  11.199 -1.3763 -0.0032  0.1669
17318TIP3   OH273444   0.772   1.392  12.332  0.1910 -0.0238 -0.6535
17318TIP3    H173445   0.783   1.390  12.427  0.8679 -0.7644 -0.7277
17318TIP3    H273446   0.857   1.363  12.297  0.1049  0.6799 -1.5008
17319TIP3   OH273447   1.324   3.537   2.530  0.5665  0.3943 -0.4783
17319TIP3    H173448   1.398   3.597   2.526 -0.1210  1.6032  2.5649
17319TIP3    H273449   1.256   3.580   2.478  1.1707  0.4680 -1.2374
17320TIP3   OH273450   0.773   5.686  15.023 -0.1564 -0.7665 -0.3316
17320TIP3    H173451   0.687   5.661  14.989 -0.7341  0.8400 -0.1249
17320TIP3    H273452   0.832   5.671  14.949 -0.9750  0.1202 -1.2083
17321TIP3   OH273453   4.702   6.131   5.478  0.4264 -0.3978  0.4495
17321TIP3    H173454   4.756   6.165   5.550  0.4009  0.0196  0.2728
17321TIP3    H273455   4.614   6.163   5.497  0.5090  0.1300 -0.0252
17322TIP3   OH273456   1.020   3.648  16.172  0.3506  0.2083 -0.2190
17322TIP3    H173457   1.076   3.726  16.180  1.5477 -0.7331  1.0431
17322TIP3    H273458   0.935   3.676  16.206  1.2169  0.5619  1.8327
17323TIP3   OH273459   5.883   3.699  10.979 -0.0200  0.2197 -0.3081
17323TIP3    H173460   5.840   3.639  10.918  0.2946 -1.0514  0.6814
17323TIP3    H273461   5.816   3.764  11.000 -0.8364 -0.6069 -0.3028
17324TIP3   OH273462   5.234   5.462  14.194  0.7987  0.1484  0.1854
17324TIP3    H173463   5.236   5.435  14.285 -0.4428  1.7758  0.7426
17324TIP3    H273464   5.303   5.410  14.152  0.9479 -1.1073  1.8889
17325TIP3   OH273465   3.143   5.670  15.189  0.1611  0.2137  0.2158
17325TIP3    H173466   3.111   5.723  15.262 -0.5548 -2.1564  1.7370
17325TIP3    H273467   3.232   5.647  15.213 -0.5802 -1.8515  1.1948
17326TIP3   OH273468   6.038   5.657   5.780  0.4226  0.4917 -0.1030
17326TIP3    H173469   6.089   5.669   5.860  0.9996  3.3517 -0.7917
17326TIP3    H273470   6.092   5.696   5.711 -1.6506  1.5066 -1.2442
17327TIP3   OH273471   5.359   3.733   4.467  0.0266 -0.2568  0.2237
17327TIP3    H173472   5.382   3.797   4.399 -2.5319 -1.9255 -2.4707
17327TIP3    H273473   5.263   3.737   4.472 -0.0187 -2.0316  1.8784
17328TIP3   OH273474   0.611   6.068   2.127 -0.1328 -0.1569 -0.0422
17328TIP3    H173475   0.605   6.023   2.043  2.1535 -0.6618  0.0257
17328TIP3    H273476   0.593   6.160   2.106 -1.4370 -0.5406 -0.7316
17329TIP3   OH273477   1.005   2.474  14.854  0.2074 -0.2077  0.1862
17329TIP3    H173478   0.943   2.493  14.783 -0.1744  0.5358  0.7064
17329TIP3    H273479   0.954   2.484  14.934  1.0568  0.7171  0.6384
17330TIP3   OH273480   5.727   4.017  15.055  0.8937  0.3167 -0.1419
17330TIP3    H173481   5.764   3.929  15.049 -0.9690 -0.6543  1.5608
17330TIP3    H273482   5.734   4.040  15.147 -1.7201  0.4942  0.0766
17331TIP3   OH273483   1.371   4.004   1.606  0.6099 -0.4827  0.0521
17331TIP3    H173484   1.435   4.060   1.563  0.4180 -1.3390 -1.4058
17331TIP3    H273485   1.287   4.029   1.568  0.4014 -1.0971  0.0828
17332TIP3   OH273486   3.648   1.305  12.758 -0.4815  0.6256  0.0474
17332TIP3    H173487   3.730   1.347  12.730  0.8132 -1.1602  0.9268
17332TIP3    H273488   3.582   1.373  12.748  1.1814  2.2920 -0.2881
17333TIP3   OH273489   2.012   3.591   3.249  0.0583  0.5661 -0.2193
17333TIP3    H173490   1.939   3.534   3.224 -0.5566  1.6437 -0.9761
17333TIP3    H273491   1.992   3.619   3.338  0.5005 -0.5738  0.2620
17334TIP3   OH273492   4.026   0.126  12.396  0.0079  0.3980 -0.2116
17334TIP3    H173493   4.106   0.109  12.445  0.2497  0.7315 -0.4853
17334TIP3    H273494   4.056   0.157  12.311 -0.4128  1.6275  0.0761
17335TIP3   OH273495   4.183   2.720  13.540  0.0346  0.3160 -0.0692
17335TIP3    H173496   4.141   2.799  13.506 -0.1800 -0.1091 -0.8175
17335TIP3    H273497   4.118   2.651  13.527  1.3507 -0.5823 -2.2959
17336TIP3   OH273498   3.348   2.176   2.989 -0.4894  0.1462  0.0347
17336TIP3    H173499   3.280   2.129   2.940 -1.4881  2.4912 -1.0157
17336TIP3    H273500   3.425   2.173   2.932 -0.7599  0.3634 -0.3486
17337TIP3   OH273501   4.754   6.440   2.570 -0.1037 -0.0383 -0.4656
17337TIP3    H173502   4.805   6.497   2.628 -0.6283  0.8777 -0.8900
17337TIP3    H273503   4.674   6.490   2.551 -1.3116 -1.5249  0.3885
17338TIP3   OH273504   2.540   2.132  15.509 -0.3988 -0.4583 -0.0865
17338TIP3    H173505   2.602   2.196  15.475 -1.5895  0.8249  0.1138
17338TIP3    H273506   2.530   2.154  15.602 -0.3469 -1.3344  0.1416
17339TIP3   OH273507   4.636   4.209   4.377  0.1588  0.0062 -0.2431
17339TIP3    H173508   4.553   4.224   4.330 -0.8372 -0.3168  1.3200
17339TIP3    H273509   4.655   4.116   4.362 -0.6943 -0.3529  0.7595
17340TIP3   OH273510   2.603   0.431   3.937 -0.3820 -0.2726  0.4018
17340TIP3    H173511   2.640   0.386   3.861  0.1295 -0.3303  0.6794
17340TIP3    H273512   2.633   0.380   4.012 -1.6632 -0.7682  0.6048
17341TIP3   OH273513   6.478   0.550  13.769  0.5843  0.2284 -0.1760
17341TIP3    H173514   6.479   0.519  13.679  2.3202 -1.8810  0.5043
17341TIP3    H273515   6.562   0.593  13.781  1.0620 -0.9533  0.8790
17342TIP3   OH273516   4.347   1.583   0.725 -0.1613 -0.2859 -0.0497
17342TIP3    H173517   4.369   1.644   0.795 -0.5572 -0.9799  0.7042
17342TIP3    H273518   4.415   1.596   0.659  0.1519  0.4635  0.4067
17343TIP3   OH273519   2.580   2.993  15.467 -0.1147  0.1777 -0.4872
17343TIP3    H173520   2.489   3.015  15.446 -0.2606  1.9280  1.5670
17343TIP3    H273521   2.574   2.922  15.530 -0.1311  0.7603  0.1860
17344TIP3   OH273522   1.782   0.477   5.222  0.5604  0.5747  0.5913
17344TIP3    H173523   1.688   0.475   5.202  0.4116  1.6488  1.0771
17344TIP3    H273524   1.788   0.445   5.312  0.8060 -0.6784  0.1365
17345TIP3   OH273525   3.537   6.802  11.453 -0.6340 -0.5869  0.0401
17345TIP3    H173526   3.519   6.883  11.405 -1.2061 -0.8470 -0.1929
17345TIP3    H273527   3.588   6.830  11.529 -0.7452 -0.0166 -0.0905
17346TIP3   OH273528   1.935   5.558   2.370  0.1128  0.4048  0.7039
17346TIP3    H173529   1.989   5.607   2.307  1.4895 -0.9731  0.7754
17346TIP3    H273530   1.916   5.475   2.326 -0.3797  0.1234  1.4252
17347TIP3   OH273531   5.654   3.584   1.009 -0.7754 -0.5488 -0.2270
17347TIP3    H173532   5.649   3.672   1.045  1.1974  0.4801 -2.2367
17347TIP3    H273533   5.604   3.588   0.927 -0.3974 -1.1890 -0.4988
17348TIP3   OH273534   1.839   0.375  14.579  0.1261  0.2730 -0.4970
17348TIP3    H173535   1.898   0.437  14.621  2.2004 -1.2908 -0.9111
17348TIP3    H273536   1.773   0.355  14.646  0.6163  1.3611  0.3334
17349TIP3   OH273537   2.733   3.556  11.261  0.1159  0.0593 -0.1811
17349TIP3    H173538   2.672   3.495  11.219 -0.8484  0.1757  1.0057
17349TIP3    H273539   2.746   3.521  11.349  0.7101  0.7682  0.0274
17350TIP3   OH273540   0.688   1.580   0.703 -0.4807 -0.0453 -0.0895
17350TIP3    H173541   0.594   1.595   0.691 -1.1922  0.6412  4.5484
17350TIP3    H273542   0.694   1.495   0.745  0.5769  1.1077  2.2943
17351TIP3   OH273543   4.964   3.884  13.169  0.8494 -0.0799 -0.0733
17351TIP3    H173544   4.968   3.905  13.262  0.1035  1.3295 -0.3236
17351TIP3    H273545   4.872   3.863  13.153  0.6463  1.1874 -0.7558
17352TIP3   OH273546   4.313   4.964  15.347 -0.0998  0.3577 -0.2281
17352TIP3    H173547   4.316   5.026  15.420  0.2258  2.2726 -1.7894
17352TIP3    H273548   4.225   4.927  15.351 -0.2971  0.8908  0.7709
17353TIP3   OH273549   0.396   3.228   1.810 -0.0426 -0.4176 -0.1402
17353TIP3    H173550   0.357   3.307   1.846 -0.5710 -0.4833 -0.5431
17353TIP3    H273551   0.469   3.208   1.867 -0.4604 -0.1463  0.4939
17354TIP3   OH273552   0.108   3.832   2.518 -0.2186 -0.3754  0.3949
17354TIP3    H173553   0.153   3.845   2.602  1.5545 -1.1456 -0.3862
17354TIP3    H273554   0.117   3.916   2.473  0.9775 -0.6910  0.0178
17355TIP3   OH273555   2.306   1.918   2.696  0.0034  0.0394 -0.1178
17355TIP3    H173556   2.283   1.884   2.783  1.2380 -1.1066 -0.2083
17355TIP3    H273557   2.369   1.987   2.713 -0.0668  0.0949 -0.0823
17356TIP3   OH273558   0.977   1.318  14.493  0.3432 -0.3657 -0.3772
17356TIP3    H173559   0.971   1.240  14.548 -2.6977  1.1245  1.6830
17356TIP3    H273560   1.070   1.328  14.475  1.5584 -1.3192  4.1546
17357TIP3   OH273561   1.253   0.749   0.068  0.0403 -0.0030 -0.3636
17357TIP3    H173562   1.283   0.796   0.146 -1.3677  0.4471 -0.0539
17357TIP3    H273563   1.287   0.800  -0.005 -0.1655  0.6264 -0.0296
17358TIP3   OH273564   1.886   0.115   5.991  0.0904 -0.2123 -0.2552
17358TIP3    H173565   1.890   0.033   5.941  1.9698  0.3746 -1.1449
17358TIP3    H273566   1.862   0.181   5.927  0.0966  0.1743  0.1371
17359TIP3   OH273567   2.603   5.353  15.736  0.3180  0.2481 -0.4011
17359TIP3    H173568   2.632   5.322  15.822 -1.6659  1.4209  0.7806
17359TIP3    H273569   2.619   5.448  15.739  2.3079  0.0274 -2.2484
17360TIP3   OH273570   6.080   5.654  13.437 -0.1000  0.3419 -0.6869
17360TIP3    H173571   6.149   5.711  13.403 -0.6005  1.3450 -0.0565
17360TIP3    H273572   6.124   5.595  13.498  0.7315 -1.1622 -2.6173
17361TIP3   OH273573   3.844   1.548   0.826  0.2306  0.1547 -0.1919
17361TIP3    H173574   3.824   1.584   0.740 -1.1398 -0.6870 -0.2575
17361TIP3    H273575   3.914   1.484   0.809  0.7501  0.7843 -0.4861
17362TIP3   OH273576   6.319   4.894   4.943 -0.6226  0.5667 -0.1966
17362TIP3    H173577   6.358   4.880   4.857  0.5938  1.4035  0.1861
17362TIP3    H273578   6.276   4.980   4.936 -0.1245  0.8520  0.1444
17363TIP3   OH273579   5.056   4.135  11.968 -0.0440  0.1086  0.1524
17363TIP3    H173580   5.132   4.076  11.966 -0.4502 -0.4321  0.4518
17363TIP3    H273581   5.086   4.214  11.923  1.3779  0.7274  2.1007
17364TIP3   OH273582   1.165   0.198   5.311  0.0836 -0.6352 -0.1979
17364TIP3    H173583   1.127   0.267   5.257  0.7632  0.1913  0.3483
17364TIP3    H273584   1.113   0.200   5.392  0.7074 -0.0924  0.2027
17365TIP3   OH273585   4.897   6.039   5.298  0.7502  0.3977  0.1461
17365TIP3    H173586   4.970   6.067   5.353 -0.4803  0.5296  1.8097
17365TIP3    H273587   4.820   6.074   5.342 -0.4229 -0.9989 -0.7171
17366TIP3   OH273588   3.450   1.596   3.943  0.6609  0.4941  0.1582
17366TIP3    H173589   3.457   1.642   4.027 -0.0412  0.0824  0.4605
17366TIP3    H273590   3.362   1.558   3.945 -0.4306  2.7354 -1.9565
17367TIP3   OH273591   4.022   6.088  11.057 -0.4708 -0.4231  0.0713
17367TIP3    H173592   3.986   6.011  11.013 -2.0270 -0.1616  0.8005
17367TIP3    H273593   4.054   6.144  10.987 -0.3702 -1.2191 -0.5349
17368TIP3   OH273594   4.430   4.683   5.504  0.2829 -0.2807 -0.2255
17368TIP3    H173595   4.339   4.711   5.513 -0.1074 -2.0826  2.7080
17368TIP3    H273596   4.426   4.608   5.444 -0.1679 -0.2505 -0.2374
17369TIP3   OH273597   1.557   1.196   4.848  0.4042 -0.4959  0.1793
17369TIP3    H173598   1.532   1.104   4.837 -2.4158  0.1804  0.2405
17369TIP3    H273599   1.517   1.222   4.931  1.3375  0.7541  0.2570
17370TIP3   OH273600   0.788   1.009  14.109 -0.6222  0.3082  0.0283
17370TIP3    H173601   0.827   1.039  14.027 -0.4194  2.8094  0.9304
17370TIP3    H273602   0.804   1.082  14.170 -1.2002 -1.2531  2.1439
17371TIP3   OH273603   5.039   0.690   1.089  0.4200 -0.3709 -0.5175
17371TIP3    H173604   4.979   0.728   1.153 -0.0751 -0.4943 -0.9054
17371TIP3    H273605   4.995   0.702   1.005  0.8269 -0.6882 -0.7777
17372TIP3   OH273606   5.522   4.942   3.064  0.5123  0.2995  0.2818
17372TIP3    H173607   5.592   4.883   3.091 -0.0500  0.3408  1.9472
17372TIP3    H273608   5.560   4.994   2.992  1.8791 -0.2762  0.5666
17373TIP3   OH273609   5.572   2.461   4.456  0.0017  0.4576  0.2300
17373TIP3    H173610   5.598   2.388   4.399 -0.3811  0.7188 -0.2879
17373TIP3    H273611   5.588   2.540   4.403 -1.5447  0.6459 -0.0028
17374TIP3   OH273612   0.351   2.672  15.006  0.6960  0.3777  0.0049
17374TIP3    H173613   0.403   2.627  15.074  0.5427  2.1229  1.3515
17374TIP3    H273614   0.260   2.651  15.027  0.7262 -0.7236 -0.9064
17375TIP3   OH273615   0.137   2.736   6.075 -0.3578 -0.5854 -0.9763
17375TIP3    H173616   0.131   2.713   6.168 -0.7169  2.3824 -0.1653
17375TIP3    H273617   0.218   2.694   6.045  0.8521  0.0377  1.2142
17376TIP3   OH273618   0.473   1.520  13.300  0.0712 -0.4101 -0.3449
17376TIP3    H173619   0.556   1.565  13.314  1.3974 -2.2682 -1.6416
17376TIP3    H273620   0.468   1.508  13.205 -1.7643 -0.2464 -0.3098
17377TIP3   OH273621   0.572   3.018   3.630 -0.3930 -0.0938  0.1767
17377TIP3    H173622   0.622   3.099   3.615  0.5034 -1.0106 -2.2600
17377TIP3    H273623   0.619   2.974   3.700 -0.0348  0.8283  0.5374
17378TIP3   OH273624   3.981   3.307   0.368 -0.1910 -0.1827 -0.1502
17378TIP3    H173625   3.997   3.354   0.286 -1.3208  0.0085 -0.2803
17378TIP3    H273626   3.952   3.220   0.341 -1.5447  0.1890 -0.0155
17379TIP3   OH273627   1.192   3.047   0.093 -0.2106  0.4002 -0.2545
17379TIP3    H173628   1.170   2.962   0.055  1.0692 -0.8518  1.6146
17379TIP3    H273629   1.183   3.109   0.021 -1.1655 -1.3047 -1.6815
17380TIP3   OH273630   1.205   1.694   5.346  0.7632  0.1371 -0.5795
17380TIP3    H173631   1.168   1.774   5.382  2.0313  0.5582 -0.1738
17380TIP3    H273632   1.130   1.633   5.341  0.1327  0.7759  0.6986
17381TIP3   OH273633   4.043   5.580  14.834 -0.5001 -1.1395 -0.0342
17381TIP3    H173634   4.000   5.495  14.831 -3.0524  0.0610 -2.5359
17381TIP3    H273635   3.988   5.637  14.780  0.6974  2.3149  2.0250
17382TIP3   OH273636   0.560   3.335   3.289 -0.3801  0.2235 -0.0388
17382TIP3    H173637   0.470   3.314   3.313 -1.3086  0.4403 -2.9934
17382TIP3    H273638   0.598   3.371   3.370 -2.6510 -0.6119  1.5062
17383TIP3   OH273639   5.019   4.026   5.080 -0.3363  0.6275  0.1845
17383TIP3    H173640   4.973   4.057   5.159 -3.8883  1.0674 -1.8180
17383TIP3    H273641   5.058   4.105   5.043 -2.2985  1.2994 -0.5973
17384TIP3   OH273642   0.802   2.621   3.600  0.0492 -0.4866  0.1069
17384TIP3    H173643   0.729   2.639   3.541  0.0556 -1.2106 -0.1238
17384TIP3    H273644   0.823   2.529   3.586  3.7997  0.5136 -3.0407
17385TIP3   OH273645   0.735   6.203   1.290 -0.2210 -0.3603 -0.8811
17385TIP3    H173646   0.717   6.126   1.236 -0.4719  0.4411 -1.9785
17385TIP3    H273647   0.797   6.255   1.238  1.1669 -0.5364  0.5182
17386TIP3   OH273648   5.066   1.298  13.123 -0.2936  0.1251 -0.2561
17386TIP3    H173649   5.010   1.230  13.160  0.8507 -1.1080 -0.7050
17386TIP3    H273650   5.143   1.251  13.091  1.5277  1.8399  1.2984
17387TIP3   OH273651   6.183   2.738  11.807  0.2972  0.8102  0.1106
17387TIP3    H173652   6.101   2.695  11.830  0.4159 -0.3560 -1.4765
17387TIP3    H273653   6.163   2.785  11.726  1.3080  0.0407 -0.6126
17388TIP3   OH273654   1.062   3.747  11.744  0.1263  0.1161  0.1264
17388TIP3    H173655   1.105   3.676  11.697  2.4567  1.1731  0.5641
17388TIP3    H273656   1.020   3.703  11.819 -0.2104 -1.0217 -0.6897
17389TIP3   OH273657   3.961   3.421  11.521 -0.6099  0.7901 -0.5718
17389TIP3    H173658   4.013   3.476  11.463  2.2583  1.8727  2.6860
17389TIP3    H273659   3.902   3.482  11.566 -0.2982  0.5788  0.1413
17390TIP3   OH273660   4.596   5.495  16.628 -0.5262  0.0887  0.1913
17390TIP3    H173661   4.626   5.520  16.541  1.5187 -1.2622  0.4376
17390TIP3    H273662   4.599   5.399  16.627  0.4629  0.0680  2.0261
17391TIP3   OH273663   4.761   1.784  13.160  0.0403 -0.0771  0.3913
17391TIP3    H173664   4.711   1.758  13.237 -0.0465 -1.3936 -0.0892
17391TIP3    H273665   4.725   1.732  13.088 -0.5282  1.8184 -0.7683
17392TIP3   OH273666   0.395   3.560  14.213  0.2542  0.2316 -0.2485
17392TIP3    H173667   0.422   3.634  14.160 -0.5826  1.6067  1.1603
17392TIP3    H273668   0.300   3.556  14.203  0.1814 -0.0217  0.4900
17393TIP3   OH273669   1.781   6.332   3.250  0.4953  0.3862 -0.2068
17393TIP3    H173670   1.740   6.246   3.257  2.2055 -0.3772  1.3079
17393TIP3    H273671   1.868   6.320   3.289  0.8590  2.7561 -0.1614
17394TIP3   OH273672   4.388   0.369   4.259 -0.2064 -0.0224  0.0101
17394TIP3    H173673   4.423   0.280   4.252  0.8415  0.5079 -3.0305
17394TIP3    H273674   4.296   0.361   4.232  0.5076  0.0650 -2.7173
17395TIP3   OH273675   4.687   6.025   2.600  0.0374  0.3832  0.2917
17395TIP3    H173676   4.669   5.989   2.513  2.0401 -0.3303  0.1157
17395TIP3    H273677   4.617   5.992   2.655 -0.3181 -0.5648 -0.7040
17396TIP3   OH273678   2.994   2.240  11.194  0.4627 -0.5644 -0.1741
17396TIP3    H173679   2.960   2.153  11.217  0.9313 -0.5431  0.6312
17396TIP3    H273680   2.967   2.296  11.267  0.0692 -0.0073 -0.7466
17397TIP3   OH273681   0.600   6.252   0.943 -0.4230 -0.1682 -0.1119
17397TIP3    H173682   0.683   6.203   0.940 -0.8437 -0.9030 -0.0595
17397TIP3    H273683   0.624   6.337   0.978  0.4529 -0.0819 -0.8576
17398TIP3   OH273684   2.364   5.000  13.702 -0.1598 -0.0510  0.5579
17398TIP3    H173685   2.319   5.085  13.699  0.4113  0.2365 -1.1866
17398TIP3    H273686   2.454   5.021  13.678 -0.2705 -1.2870 -1.0977
17399TIP3   OH273687   6.185   1.789   1.431 -0.4239  0.4015  0.3681
17399TIP3    H173688   6.215   1.768   1.343 -2.3976  1.0652 -0.5197
17399TIP3    H273689   6.176   1.704   1.474 -2.2321 -0.2213 -1.0861
17400TIP3   OH273690   0.857   4.691   5.624 -0.2126 -0.7001 -0.6645
17400TIP3    H173691   0.802   4.769   5.639  2.7187  1.7034 -1.3759
17400TIP3    H273692   0.862   4.649   5.710 -1.0853  0.4601 -0.0165
17401TIP3   OH273693   3.216   4.054  14.540  0.3498  0.4200  0.0083
17401TIP3    H173694   3.223   4.107  14.620  0.8844  0.6026 -0.1522
17401TIP3    H273695   3.178   4.114  14.476  0.4769  0.4587 -0.0327
17402TIP3   OH273696   5.994   0.049   6.113 -0.7372  0.1115  1.2381
17402TIP3    H173697   6.010   0.137   6.147  1.8060 -0.7504  2.5067
17402TIP3    H273698   5.912   0.057   6.064  0.6810  3.7858 -0.9432
17403TIP3   OH273699   1.960   4.340   3.941  0.4652  0.7881  0.2216
17403TIP3    H173700   1.886   4.393   3.912 -0.4391  0.1262  1.2546
17403TIP3    H273701   2.026   4.352   3.873 -1.3812 -0.3787 -1.9111
17404TIP3   OH273702   3.974   2.891  14.387  0.0712 -0.1490  0.4682
17404TIP3    H173703   3.996   2.888  14.480  0.0887 -0.7737  0.4483
17404TIP3    H273704   3.986   2.983  14.362  3.5157 -0.5082  0.2699
17405TIP3   OH273705   5.267   5.036  13.732  0.3578  0.4289 -0.2474
17405TIP3    H173706   5.199   5.061  13.670  1.2285  0.9090 -1.0324
17405TIP3    H273707   5.283   4.943  13.715  0.6825  0.5889 -0.8471
17406TIP3   OH273708   1.703   6.266   4.903  0.2139  0.4873  0.5926
17406TIP3    H173709   1.677   6.250   4.994  0.9234  1.3287  0.9520
17406TIP3    H273710   1.628   6.234   4.852 -0.8311  1.3362  1.5297
17407TIP3   OH273711   2.979   3.103   1.127  0.4302  0.7893 -0.6729
17407TIP3    H173712   3.028   3.182   1.150  1.1076  0.6390 -1.5434
17407TIP3    H273713   2.887   3.131   1.127  0.3884  0.8591  1.8628
17408TIP3   OH273714   0.545   1.700   4.118  0.2351  0.3165 -0.0514
17408TIP3    H173715   0.499   1.743   4.046  0.3327  2.1464  0.9332
17408TIP3    H273716   0.546   1.765   4.188 -1.6399 -2.0979  2.3956
17409TIP3   OH273717   4.274   3.550  12.534 -0.1174  0.4076 -0.0019
17409TIP3    H173718   4.253   3.623  12.475  0.3544 -0.2160 -0.9626
17409TIP3    H273719   4.358   3.517  12.502  0.2730  0.2059  1.1842
17410TIP3   OH273720   4.361   2.256   2.157 -0.5224  0.2704  0.0804
17410TIP3    H173721   4.387   2.346   2.176 -1.3998  0.2536  1.5467
17410TIP3    H273722   4.268   2.261   2.136 -0.7374 -0.3507  0.8284
17411TIP3   OH273723   4.107   4.094   2.781  0.7321  0.0047 -0.2715
17411TIP3    H173724   4.149   4.110   2.866 -1.2170  0.8370  0.6048
17411TIP3    H273725   4.112   4.178   2.736 -2.8343  1.2412  1.2516
17412TIP3   OH273726   4.242   5.812  12.133 -0.3347 -0.0747 -0.3403
17412TIP3    H173727   4.172   5.783  12.192  1.3174 -0.9877  1.2660
17412TIP3    H273728   4.233   5.907  12.129  1.3489  0.4635  4.0340
17413TIP3   OH273729   4.760   3.969   3.004 -0.3018  0.0701  0.0959
17413TIP3    H173730   4.780   3.890   3.053  0.9853  1.1318  1.3775
17413TIP3    H273731   4.788   3.949   2.914  1.5683 -0.3942  0.7403
17414TIP3   OH273732   3.922   4.113   5.730  0.1321 -0.6691  0.1521
17414TIP3    H173733   3.954   4.203   5.718  2.0251 -1.2066  0.7879
17414TIP3    H273734   3.828   4.118   5.711  0.2077  1.4221  0.0942
17415TIP3   OH273735   4.032   0.105  16.985 -0.1426 -0.4793 -0.1335
17415TIP3    H173736   3.938   0.086  16.985 -0.9669  2.8274  2.0013
17415TIP3    H273737   4.062   0.075  17.071 -0.5789  3.2739  1.5130
17416TIP3   OH273738   5.710   4.656   2.724  0.0776  0.9183  0.4362
17416TIP3    H173739   5.719   4.720   2.653  2.0425 -0.3514 -0.5568
17416TIP3    H273740   5.800   4.637   2.750 -0.5825  1.2823  3.2861
17417TIP3   OH273741   1.975   2.915  14.395 -0.4411 -0.3274  0.3579
17417TIP3    H173742   1.983   2.972  14.471  1.8904  1.4523 -1.1014
17417TIP3    H273743   1.907   2.957  14.341  1.7746  1.6768 -1.0616
17418TIP3   OH273744   2.574   3.358  11.183 -0.1023 -0.4351  1.0307
17418TIP3    H173745   2.525   3.399  11.111 -0.4008  0.9901  1.9843
17418TIP3    H273746   2.511   3.298  11.222 -0.0045 -1.0694  0.2397
17419TIP3   OH273747   2.073   5.125  12.153 -0.2200 -0.1728 -0.1073
17419TIP3    H173748   2.039   5.196  12.207 -0.3226  0.7519 -1.3513
17419TIP3    H273749   1.996   5.070  12.135 -0.6757  0.7655 -1.1643
17420TIP3   OH273750   4.980   0.030  12.419 -0.6039  0.5792 -0.4422
17420TIP3    H173751   4.890   0.057  12.437 -0.0738  1.6551  0.7709
17420TIP3    H273752   5.029   0.112  12.417  0.4536 -0.0414 -0.4537
17421TIP3   OH273753   2.025   1.722   5.094 -0.3487  0.0500  0.3974
17421TIP3    H173754   1.992   1.646   5.045 -0.1208  0.6008 -0.6408
17421TIP3    H273755   2.018   1.795   5.032  1.4735  0.4641  0.6438
17422TIP3   OH273756   1.442   5.381   5.415  0.6494 -0.0179  0.2346
17422TIP3    H173757   1.481   5.347   5.496 -0.9346  1.7945  1.8657
17422TIP3    H273758   1.456   5.476   5.420  0.9663  0.1052 -1.9249
17423TIP3   OH273759   3.841   1.457  11.382  0.1181  0.8243  0.1106
17423TIP3    H173760   3.820   1.538  11.429 -0.0584  0.9977 -0.2684
17423TIP3    H273761   3.925   1.429  11.419  0.1025  1.0956  0.3536
17424TIP3   OH273762   5.171   5.065  13.170  0.3642 -0.1529 -0.6548
17424TIP3    H173763   5.124   5.136  13.213 -0.4471  0.2782 -2.1635
17424TIP3    H273764   5.122   5.049  13.089  0.6898 -2.2332 -0.5144
17425TIP3   OH273765   4.382   0.667   2.810  0.1138  0.0589 -0.3278
17425TIP3    H173766   4.365   0.736   2.746  0.5035  0.2926 -0.1865
17425TIP3    H273767   4.468   0.690   2.847 -0.4499  0.3916  0.8456
17426TIP3   OH273768   5.820   2.995   0.417 -0.4426  0.5249 -0.6150
17426TIP3    H173769   5.851   2.958   0.500 -0.5606 -1.1971 -1.3056
17426TIP3    H273770   5.744   2.942   0.394  0.4698 -0.0292 -2.5634
17427TIP3   OH273771   1.974   3.076   1.480 -0.7186 -0.4370  0.3661
17427TIP3    H173772   1.937   3.137   1.543 -0.1805  2.2713 -1.7610
17427TIP3    H273773   1.905   3.064   1.415  0.1393  0.1902 -0.6893
17428TIP3   OH273774   6.386   4.821  11.843  0.0461  0.0487 -0.2802
17428TIP3    H173775   6.334   4.897  11.872 -0.3655  0.0900 -1.1007
17428TIP3    H273776   6.371   4.755  11.910  0.5617  0.7513  0.5513
17429TIP3   OH273777   6.175   1.165   1.086  0.1995  0.2652  0.8595
17429TIP3    H173778   6.213   1.167   0.999  0.0927 -1.2503  0.7582
17429TIP3    H273779   6.240   1.209   1.141  0.5903  0.6053  0.1455
17430TIP3   OH273780   1.327   4.338  17.072  0.2767 -0.0248 -0.2679
17430TIP3    H173781   1.306   4.397  17.000  0.2141  1.1406  0.6665
17430TIP3    H273782   1.351   4.396  17.144  0.7352 -1.1673  0.5312
17431TIP3   OH273783   2.030   4.801  15.842  0.4149  0.3079 -0.4890
17431TIP3    H173784   2.118   4.776  15.814  1.4973  1.4855  1.6276
17431TIP3    H273785   2.008   4.737  15.910  0.4833  1.1535  0.3510
17432TIP3   OH273786   6.796   1.493  16.271  0.0759 -0.6518  0.3825
17432TIP3    H173787   6.705   1.474  16.291  0.4998 -3.1187  0.2866
17432TIP3    H273788   6.846   1.429  16.322  1.6347 -0.8857 -1.3271
17433TIP3   OH273789   6.658   1.664   5.618  0.6967 -0.2085  0.3110
17433TIP3    H173790   6.708   1.745   5.611 -0.5537  0.5733  0.2593
17433TIP3    H273791   6.591   1.683   5.684 -0.7440 -0.5829 -0.9878
17434TIP3   OH273792   4.446   2.088   5.119 -0.1933  0.3583 -0.3290
17434TIP3    H173793   4.437   2.031   5.043 -0.0204  0.1106 -0.1670
17434TIP3    H273794   4.513   2.151   5.094 -1.0374  1.0690 -0.8516
17435TIP3   OH273795   1.901   1.281   3.500  0.4151  1.0344  0.3878
17435TIP3    H173796   1.870   1.248   3.416 -0.4242 -0.5701  1.2827
17435TIP3    H273797   1.984   1.236   3.515  0.3243  0.9461  0.6367
17436TIP3   OH273798   4.008   5.841   4.260 -0.0997 -0.6595 -0.7604
17436TIP3    H173799   4.073   5.893   4.308 -1.7881 -0.0359  0.9446
17436TIP3    H273800   3.946   5.905   4.225 -1.2249 -1.3764 -0.1433
17437TIP3   OH273801   2.385   2.685  14.997 -0.1403  0.1496 -0.1854
17437TIP3    H173802   2.475   2.696  15.027  0.1454 -1.1986 -0.4667
17437TIP3    H273803   2.371   2.757  14.936  1.0866 -0.1514 -0.8632
17438TIP3   OH273804   5.222   4.246   3.129 -0.3744 -0.0215  0.2927
17438TIP3    H173805   5.153   4.276   3.070 -0.2495  1.5452  0.8914
17438TIP3    H273806   5.177   4.225   3.211 -0.1273  1.5163  0.8600
17439TIP3   OH273807   1.141   3.070   4.545 -0.7235  0.4683  0.0164
17439TIP3    H173808   1.231   3.085   4.516 -0.8212  0.8782 -0.0758
17439TIP3    H273809   1.149   3.052   4.639 -0.4043 -0.8637 -0.2444
17440TIP3   OH273810   0.429   2.461   5.505 -0.4372  0.6478 -0.0718
17440TIP3    H173811   0.417   2.366   5.505  0.8613  0.4009 -2.1010
17440TIP3    H273812   0.453   2.483   5.595 -1.1781 -0.8618  0.5295
17441TIP3   OH273813   2.090   5.975  11.891  0.1676 -0.3344 -0.1209
17441TIP3    H173814   2.070   5.920  11.967  0.9784 -0.9648 -0.3604
17441TIP3    H273815   2.139   5.919  11.832 -0.2436  0.2282 -1.0167
17442TIP3   OH273816   1.013   5.448   0.920  0.2394  0.0439  0.8191
17442TIP3    H173817   1.044   5.537   0.938 -1.8674  1.4020 -1.5903
17442TIP3    H273818   0.962   5.425   0.998  0.1686  1.2857  1.1617
17443TIP3   OH273819   5.413   3.918   4.279 -0.0305 -0.1812 -0.3027
17443TIP3    H173820   5.376   3.991   4.229  1.0065 -0.0701 -0.9423
17443TIP3    H273821   5.507   3.938   4.285  0.1132 -0.9860  0.3389
17444TIP3   OH273822   6.543   2.620  15.483  0.3682  0.8973  0.1200
17444TIP3    H173823   6.540   2.592  15.574 -1.0614 -2.8549 -0.8789
17444TIP3    H273824   6.568   2.541  15.434 -1.4350  2.0051 -2.9213
17445TIP3   OH273825   2.362   0.178  13.549  0.0578  0.3966  0.1846
17445TIP3    H173826   2.270   0.177  13.575 -0.1943 -2.2032 -0.5141
17445TIP3    H273827   2.374   0.261  13.503 -2.0051  0.6665  0.0727
17446TIP3   OH273828   6.409   4.725   5.276  0.7449 -0.7425 -0.2874
17446TIP3    H173829   6.444   4.811   5.254 -0.8490  0.5177  1.7065
17446TIP3    H273830   6.468   4.690   5.342  1.3907 -1.2396 -1.0955
17447TIP3   OH273831   0.545   6.198  15.506  1.1193  0.0893  0.0065
17447TIP3    H173832   0.545   6.220  15.599  2.8912  0.9596 -0.1551
17447TIP3    H273833   0.547   6.103  15.503 -0.9826 -0.0294  0.8029
17448TIP3   OH273834   1.305   2.656   0.402 -0.0518  0.3112 -0.7577
17448TIP3    H173835   1.356   2.671   0.481 -1.1981 -0.0315  0.0677
17448TIP3    H273836   1.368   2.667   0.331  1.0241  0.5150  0.1952
17449TIP3   OH273837   2.236   0.499   5.161  0.1965 -0.1157  0.1206
17449TIP3    H173838   2.228   0.589   5.130  1.6746 -0.1190 -0.3916
17449TIP3    H273839   2.221   0.504   5.255 -0.5667  0.5245 -0.0314
17450TIP3   OH273840   2.150   2.854  15.094  0.2832  0.5640 -0.3987
17450TIP3    H173841   2.175   2.847  15.002  0.6780  0.8974 -0.3182
17450TIP3    H273842   2.230   2.834  15.143 -0.2830 -1.1533 -0.0932
17451TIP3   OH273843   2.519   6.613   2.719  0.1625  0.4359  0.8046
17451TIP3    H173844   2.485   6.583   2.634  1.0861  2.8769 -0.5330
17451TIP3    H273845   2.441   6.633   2.770 -0.4137 -0.9787  0.5367
17452TIP3   OH273846   2.924   3.584  13.464  0.7719  0.2744  0.4176
17452TIP3    H173847   3.019   3.581  13.454  0.5449 -0.0773 -2.8771
17452TIP3    H273848   2.896   3.493  13.450 -0.0674  0.4335  1.0291
17453TIP3   OH273849   0.288   4.529   5.719 -0.2405  0.0780 -0.0250
17453TIP3    H173850   0.380   4.503   5.733 -0.0736 -0.5981 -2.0312
17453TIP3    H273851   0.258   4.557   5.805  1.3831 -1.1859  1.0275
17454TIP3   OH273852   4.309   3.176  16.124  1.0583 -0.4356 -0.2569
17454TIP3    H173853   4.218   3.148  16.115  1.4140 -2.1305  0.8159
17454TIP3    H273854   4.357   3.121  16.062  1.5988 -1.2802  0.8557
17455TIP3   OH273855   5.708   4.705   1.921  0.0805  0.0049  0.4835
17455TIP3    H173856   5.627   4.657   1.904  0.6336 -1.6759  2.2423
17455TIP3    H273857   5.680   4.796   1.931 -1.1796 -0.0957 -1.5827
17456TIP3   OH273858   1.908   4.241   6.259  0.8892  0.2693  0.2175
17456TIP3    H173859   1.896   4.155   6.300  0.5918  0.8291  1.3610
17456TIP3    H273860   1.890   4.304   6.329 -0.2118  1.2953 -0.9308
17457TIP3   OH273861   0.018   6.176   4.322 -0.1536  0.8565 -0.2315
17457TIP3    H173862  -0.014   6.101   4.371 -0.3592  1.7010  0.9768
17457TIP3    H273863   0.028   6.144   4.232 -1.3080 -0.2887  0.0205
17458TIP3   OH273864   5.970   1.288   1.707 -0.5196 -0.4769  0.0519
17458TIP3    H173865   5.978   1.203   1.749 -1.1588 -0.7607 -0.3979
17458TIP3    H273866   6.047   1.294   1.650  0.4510 -0.0174  1.3539
17459TIP3   OH273867   5.526   3.647  11.876  1.0531  0.2955 -0.8461
17459TIP3    H173868   5.562   3.572  11.827  0.3295 -0.6899  0.0817
17459TIP3    H273869   5.519   3.717  11.811  0.0870 -0.9761 -2.1720
17460TIP3   OH273870   2.777   1.924  13.363  0.7146  0.0525 -0.2453
17460TIP3    H173871   2.781   1.971  13.446 -0.4102  0.5818 -0.4773
17460TIP3    H273872   2.687   1.893  13.356  1.0478 -0.8408 -0.8194
17461TIP3   OH273873   2.334   5.196   4.600  0.5389  0.1165 -0.0707
17461TIP3    H173874   2.260   5.256   4.604  0.1665 -0.2409 -1.2505
17461TIP3    H273875   2.302   5.121   4.550  1.3052 -0.6274  0.5263
17462TIP3   OH273876   6.805   0.170   2.764  0.0880  0.0411  0.0963
17462TIP3    H173877   6.757   0.102   2.811  0.8627 -1.1698 -0.7817
17462TIP3    H273878   6.835   0.230   2.832  0.9342 -1.5016  1.1482
17463TIP3   OH273879   2.204   4.879  17.027 -0.1547  0.1092 -0.3721
17463TIP3    H173880   2.162   4.894  17.111 -1.6698  0.9136 -1.2301
17463TIP3    H273881   2.169   4.948  16.970  0.5209 -0.6625 -1.7762
17464TIP3   OH273882   3.681   0.120  14.237  0.1426 -0.6377 -0.3022
17464TIP3    H173883   3.618   0.146  14.304 -0.5599  0.0937 -1.2142
17464TIP3    H273884   3.759   0.095  14.286  1.1271  3.6468  0.7800
17465TIP3   OH273885   3.316   4.184  13.748  0.3268  0.3537  0.4632
17465TIP3    H173886   3.396   4.200  13.798 -0.2532 -0.7312  1.8164
17465TIP3    H273887   3.321   4.091  13.724  0.8069  0.9333 -1.9857
17466TIP3   OH273888   3.065   5.531  13.895  0.0058  0.2008  0.5106
17466TIP3    H173889   2.999   5.595  13.921  0.1933  0.3674  0.5859
17466TIP3    H273890   3.089   5.556  13.806 -0.2517 -0.0448  0.3718
17467TIP3   OH273891   6.842   4.775  16.913 -0.3630  0.0653  0.0356
17467TIP3    H173892   6.819   4.772  16.820 -0.2425 -0.2268  0.0131
17467TIP3    H273893   6.932   4.745  16.916 -0.2673  0.3669  0.2172
17468TIP3   OH273894   1.542   4.063  11.687 -0.2464 -0.6318 -0.1731
17468TIP3    H173895   1.454   4.036  11.713 -0.9415  0.0573 -1.6516
17468TIP3    H273896   1.546   4.156  11.712  0.1189 -0.7026  0.0311
17469TIP3   OH273897   1.883   1.309   1.261 -0.0717  0.1529  0.6721
17469TIP3    H173898   1.818   1.238   1.262  1.6140 -1.4639  0.8138
17469TIP3    H273899   1.859   1.362   1.185 -2.5744  0.6494  1.7205
17470TIP3   OH273900   5.595   4.983  12.181  0.0569 -0.5458 -0.8300
17470TIP3    H173901   5.562   4.977  12.270  1.5874  0.7414 -0.1343
17470TIP3    H273902   5.530   4.937  12.128 -0.9290 -1.2390  0.9222
17471TIP3   OH273903   5.550   4.178  10.955 -0.1260 -0.3359 -0.8407
17471TIP3    H173904   5.600   4.096  10.959  1.4035  0.5917  0.2542
17471TIP3    H273905   5.458   4.151  10.956  0.3310 -2.0299  0.6212
17472TIP3   OH273906   1.216   6.642   4.936  0.0280  0.3347  0.2887
17472TIP3    H173907   1.218   6.677   4.847 -1.3989  1.1626  0.5388
17472TIP3    H273908   1.123   6.626   4.953  0.2819  0.1349  1.6097
17473TIP3   OH273909   1.467   1.186  14.400 -0.2153 -0.3417 -0.3636
17473TIP3    H173910   1.540   1.185  14.338  0.3949 -0.7218  0.3513
17473TIP3    H273911   1.395   1.228  14.351  0.7873  1.0452 -0.7186
17474TIP3   OH273912   2.139   2.626  13.752 -0.3596 -0.0915 -0.5226
17474TIP3    H173913   2.064   2.674  13.787 -0.1801  0.0168 -0.2833
17474TIP3    H273914   2.106   2.538  13.735  0.1085 -0.8580  2.1160
17475TIP3   OH273915   0.273   4.442  15.653 -0.2151  0.4469 -0.3002
17475TIP3    H173916   0.287   4.413  15.743  0.2025  0.0941 -0.4793
17475TIP3    H273917   0.326   4.521  15.645  0.9577 -0.3532 -0.6839
17476TIP3   OH273918   0.110   6.425   0.320  0.1245 -0.3695  0.1736
17476TIP3    H173919   0.105   6.519   0.303 -0.4284 -0.4434 -0.0943
17476TIP3    H273920   0.161   6.390   0.246  0.1126 -0.3179  0.1407
17477TIP3   OH273921   3.829   4.743  11.583 -0.1457  0.0587  0.0286
17477TIP3    H173922   3.734   4.737  11.581 -0.3169  1.6196  1.4291
17477TIP3    H273923   3.859   4.657  11.554 -1.9163  0.1801 -2.4971
17478TIP3   OH273924   2.871   4.468   1.785  0.6613 -0.3157  0.2006
17478TIP3    H173925   2.871   4.421   1.701  1.6721 -0.3550  0.2127
17478TIP3    H273926   2.809   4.418   1.839 -0.1558 -0.1737 -0.5715
17479TIP3   OH273927   4.395   3.464   1.131  0.8616  0.5866 -0.0371
17479TIP3    H173928   4.314   3.494   1.171  1.2035  0.5097  0.7284
17479TIP3    H273929   4.378   3.374   1.104  0.7664  0.4955  0.3303
17480TIP3   OH273930   5.283   2.626   0.255 -0.1986  0.7001 -0.0574
17480TIP3    H173931   5.261   2.547   0.206 -2.1551  0.9498  0.3478
17480TIP3    H273932   5.292   2.694   0.188  1.8739  0.1106 -0.4443
17481TIP3   OH273933   3.902   6.392   2.312 -0.2671  0.1080  0.7241
17481TIP3    H173934   3.976   6.445   2.281 -1.3970  0.5625 -1.3547
17481TIP3    H273935   3.937   6.303   2.317  0.1058  0.0547 -1.6449
17482TIP3   OH273936   0.914   2.972   0.254 -0.5270  0.1906  0.2151
17482TIP3    H173937   0.907   2.906   0.323  0.5385  0.0546  0.2051
17482TIP3    H273938   0.923   2.922   0.173 -1.1403  0.3536  0.0420
17483TIP3   OH273939   5.606   6.037  15.849  0.8856 -0.3481 -0.0705
17483TIP3    H173940   5.512   6.034  15.834  0.7810  2.1955 -0.3911
17483TIP3    H273941   5.633   5.945  15.854 -1.3121 -1.1576 -1.6544
17484TIP3   OH273942   4.117   1.217  12.253 -0.2091 -0.4542  0.3876
17484TIP3    H173943   4.021   1.215  12.261 -0.1315  1.6025  2.5540
17484TIP3    H273944   4.147   1.152  12.317 -0.1224  0.0806  0.8915
17485TIP3   OH273945   1.327   0.461  12.584  0.1144 -0.4279  0.0520
17485TIP3    H173946   1.266   0.417  12.643 -1.3623 -1.0289 -1.8344
17485TIP3    H273947   1.295   0.441  12.496 -0.9317  4.6206 -1.0553
17486TIP3   OH273948   4.570   4.865  14.210  0.1437  0.2682 -0.0327
17486TIP3    H173949   4.484   4.895  14.240  0.0748 -0.0273  0.0782
17486TIP3    H273950   4.567   4.770  14.221  0.7123  0.3116  0.5518
17487TIP3   OH273951   5.236   5.671   6.089  0.3154  0.8610  0.1222
17487TIP3    H173952   5.153   5.695   6.130 -1.4141 -3.3707 -0.4003
17487TIP3    H273953   5.292   5.645   6.162 -0.2053  0.1480  0.2808
17488TIP3   OH273954   1.580   2.084   3.242 -0.5374  0.1358 -0.4008
17488TIP3    H173955   1.534   2.006   3.213 -0.5076 -0.0217 -0.0304
17488TIP3    H273956   1.527   2.118   3.314 -1.7472  1.6968 -1.9416
17489TIP3   OH273957   5.719   2.073   1.584  0.5554  0.0584  0.0023
17489TIP3    H173958   5.756   2.120   1.658  1.1372 -1.4765  0.7256
17489TIP3    H273959   5.656   2.134   1.545  1.6314  1.5813  0.5973
17490TIP3   OH273960   1.294   5.317  11.690  0.4775 -0.0104  0.1151
17490TIP3    H173961   1.358   5.303  11.621 -1.0330 -2.1932 -0.9776
17490TIP3    H273962   1.236   5.385  11.656 -0.9961 -1.9212 -1.4706
17491TIP3   OH273963   3.007   0.078   3.922 -0.0676 -0.8511 -0.1171
17491TIP3    H173964   2.978   0.149   3.865 -0.7658 -1.2072 -0.2060
17491TIP3    H273965   3.073   0.031   3.870  1.3713  0.4789  0.4095
17492TIP3   OH273966   6.046   3.467   0.317  0.4391  0.6743 -0.5039
17492TIP3    H173967   6.110   3.398   0.302 -0.7213 -0.4536 -0.4290
17492TIP3    H273968   5.975   3.448   0.256 -1.5189 -0.3455  1.8977
17493TIP3   OH273969   6.102   0.024  16.678 -0.1928  0.7418 -0.4212
17493TIP3    H173970   6.030   0.022  16.740  0.3706  0.4787  0.2436
17493TIP3    H273971   6.141  -0.064  16.683 -0.4553  0.5478 -1.5344
17494TIP3   OH273972   2.457   6.071   2.410 -0.0137 -0.5677  0.1040
17494TIP3    H173973   2.417   6.033   2.331 -2.2373  2.2355 -0.2849
17494TIP3    H273974   2.501   6.150   2.379  0.3438 -0.2067  1.4770
17495TIP3   OH273975   0.875   0.782  16.052  0.1574 -0.2478 -0.3605
17495TIP3    H173976   0.891   0.854  15.991  1.7905 -1.5624 -1.6004
17495TIP3    H273977   0.938   0.715  16.027 -0.4581 -1.6425  1.5460
17496TIP3   OH273978   4.943   0.386   4.020  0.2503  0.3565 -0.4015
17496TIP3    H173979   4.982   0.428   4.097 -0.6809  0.3524  0.0904
17496TIP3    H273980   4.864   0.437   4.002 -0.3469 -0.5520 -0.4226
17497TIP3   OH273981   1.773   6.380   5.402  0.0404 -0.1731 -0.2681
17497TIP3    H173982   1.707   6.411   5.464  1.5329  0.8555  0.8579
17497TIP3    H273983   1.786   6.288   5.425  0.2954  0.0957  0.7052
17498TIP3   OH273984   2.468   3.600   2.100  0.2462  0.0444  0.2208
17498TIP3    H173985   2.552   3.576   2.060 -1.2494 -1.6797 -2.1474
17498TIP3    H273986   2.436   3.673   2.048 -0.8628 -1.0075 -0.6409
17499TIP3   OH273987   0.548   5.226   0.751  0.0593 -0.4413  0.4238
17499TIP3    H173988   0.499   5.235   0.670 -0.5455  0.6751  0.8837
17499TIP3    H273989   0.625   5.282   0.739 -0.0010 -0.3206  0.5828
17500TIP3   OH273990   2.937   1.469  12.979  0.3812 -0.3132  0.5045
17500TIP3    H173991   2.848   1.488  13.007  0.2003  2.3215 -1.4329
17500TIP3    H273992   2.992   1.497  13.052 -0.3281 -2.1139  1.7820
17501TIP3   OH273993   6.608   0.474   3.799  0.2596  0.3013 -0.3475
17501TIP3    H173994   6.644   0.494   3.713 -0.7614  0.5298 -0.7382
17501TIP3    H273995   6.670   0.411   3.838  0.6707  0.1200 -1.2840
17502TIP3   OH273996   6.792   0.222  13.743 -0.2281  0.3147 -0.1896
17502TIP3    H173997   6.887   0.223  13.726 -0.2499 -2.7575 -1.1653
17502TIP3    H273998   6.785   0.203  13.836  0.0882  1.5374  0.0939
17503TIP3   OH273999   1.572   3.392   2.402 -0.2819 -0.3438  0.2850
17503TIP3    H174000   1.557   3.303   2.370 -1.2999 -0.9076  2.1733
17503TIP3    H274001   1.489   3.437   2.387 -0.6353 -0.4953  1.6011
17504TIP3   OH274002   2.485   3.510   1.817 -0.5712 -0.3512 -0.2560
17504TIP3    H174003   2.557   3.545   1.871 -0.4609  1.1861 -1.3423
17504TIP3    H274004   2.454   3.434   1.866  0.5018  0.1135  1.2283
17505TIP3   OH274005   0.575   2.360  15.588 -0.0493 -0.3203  0.6074
17505TIP3    H174006   0.578   2.284  15.647  0.1024 -1.2898 -0.5975
17505TIP3    H274007   0.496   2.345  15.534  0.5618 -0.1817 -0.3482
17506TIP3   OH274008   4.338   6.833   0.660  0.1431  0.2358 -0.6667
17506TIP3    H174009   4.245   6.853   0.660  0.3752  1.3965 -0.6490
17506TIP3    H274010   4.351   6.777   0.583 -0.8552 -1.5281  0.3764
17507TIP3   OH274011   6.394   4.601   1.633 -0.0922  0.0356  0.0582
17507TIP3    H174012   6.411   4.687   1.593 -2.1199  0.9609  1.0126
17507TIP3    H274013   6.414   4.613   1.726  1.4823 -1.1369 -0.1026
17508TIP3   OH274014   3.929   6.636   0.416  0.7650  0.4069  0.0899
17508TIP3    H174015   3.977   6.598   0.342 -0.8747  0.6640 -1.1611
17508TIP3    H274016   3.891   6.560   0.461  0.5059  0.3456 -0.2336
17509TIP3   OH274017   4.421   0.005  16.638 -1.1125 -0.4080 -0.2167
17509TIP3    H174018   4.391   0.077  16.693 -1.5479  0.6447 -1.7717
17509TIP3    H274019   4.452   0.046  16.557  1.3683 -1.7470 -0.0567
17510TIP3   OH274020   1.464   6.455  10.669 -0.3724 -0.0608 -0.4250
17510TIP3    H174021   1.533   6.467  10.735 -0.0324 -0.6803 -0.6549
17510TIP3    H274022   1.490   6.376  10.622 -1.9365 -1.0917  0.3478
17511TIP3   OH274023   0.880   3.480  10.755  0.3640  0.1983 -0.6582
17511TIP3    H174024   0.851   3.571  10.768 -0.8084 -0.1914 -0.3938
17511TIP3    H274025   0.946   3.466  10.823  0.7477  0.9259 -0.8653
17512TIP3   OH274026   3.067   1.108  14.548  0.4545  0.3054  0.0861
17512TIP3    H174027   3.100   1.143  14.630 -1.9207  1.6633  0.5517
17512TIP3    H274028   2.998   1.047  14.574 -1.2588  1.7623 -0.8726
17513TIP3   OH274029   6.505   0.530   3.498  0.0687 -0.0907  0.0856
17513TIP3    H174030   6.586   0.482   3.510 -0.3466 -0.6053  0.9361
17513TIP3    H274031   6.437   0.463   3.496 -0.3853  0.3647 -0.0482
17514TIP3   OH274032   0.755   0.785   0.040  0.4598 -0.2802 -0.2943
17514TIP3    H174033   0.722   0.875   0.041  2.1927  0.3901  1.2584
17514TIP3    H274034   0.692   0.736   0.093 -0.3246  0.0645 -0.8853
17515TIP3   OH274035   6.122   0.868   2.271 -0.7255  0.0913  0.2097
17515TIP3    H174036   6.094   0.927   2.341  2.1457  0.1737  1.4332
17515TIP3    H274037   6.193   0.915   2.227  1.1483 -2.0888  0.7462
17516TIP3   OH274038   6.109   0.968   4.514 -0.2209  0.1649 -0.0579
17516TIP3    H174039   6.153   0.884   4.512  0.2091  0.3948 -0.8406
17516TIP3    H274040   6.178   1.031   4.535 -0.2032  0.4989 -1.0481
17517TIP3   OH274041   6.310   4.626  13.998 -0.4421  0.3478  0.0995
17517TIP3    H174042   6.393   4.633  13.952 -0.7437  1.1954 -0.3216
17517TIP3    H274043   6.332   4.642  14.090 -0.0819  0.1359  0.0530
17518TIP3   OH274044   2.578   3.824   0.151  0.3297 -0.2817  0.7296
17518TIP3    H174045   2.616   3.762   0.214  1.4954 -1.0011 -0.6274
17518TIP3    H274046   2.621   3.907   0.170  1.1336 -0.6355  0.5202
17519TIP3   OH274047   2.856   6.512  12.338  0.1839  0.6244  0.3773
17519TIP3    H174048   2.951   6.508  12.325  0.0324  2.0041 -1.7030
17519TIP3    H274049   2.821   6.453  12.272 -0.4320  0.8129  0.5329
17520TIP3   OH274050   5.388   2.504   1.790  0.5773  0.3626 -0.1109
17520TIP3    H174051   5.461   2.514   1.729  0.9946 -1.3769  0.0504
17520TIP3    H274052   5.356   2.415   1.775 -0.3662  0.4788  1.0532
17521TIP3   OH274053   2.112   0.562   0.260 -0.0827  0.5042  0.4066
17521TIP3    H174054   2.038   0.553   0.320 -0.2824  0.5793  0.1743
17521TIP3    H274055   2.183   0.514   0.303 -0.6005 -0.6080  0.0614
17522TIP3   OH274056   0.729   5.147  15.433 -0.2513 -0.2448 -0.0121
17522TIP3    H174057   0.787   5.100  15.493  1.2845  0.8130 -0.6223
17522TIP3    H274058   0.778   5.224  15.407 -1.6316  0.2829 -1.1839
17523TIP3   OH274059   4.858   3.000  10.821 -0.6214  0.1215 -0.4933
17523TIP3    H174060   4.843   3.058  10.746  1.6256  1.2626 -0.1850
17523TIP3    H274061   4.871   2.914  10.783  2.2800  0.9728 -1.7485
17524TIP3   OH274062   2.968   3.130  15.874  0.4629 -0.3694  0.0556
17524TIP3    H174063   2.899   3.156  15.935  0.7641  0.1383  0.1866
17524TIP3    H274064   3.050   3.142  15.923  0.8532  1.7672 -0.9699
17525TIP3   OH274065   4.545   1.181   1.055 -0.3475  0.0487 -0.2928
17525TIP3    H174066   4.564   1.094   1.090  3.5310  0.7858 -0.0580
17525TIP3    H274067   4.515   1.232   1.130  1.7039 -0.0410  0.6753
17526TIP3   OH274068   3.064   5.740  12.277 -0.3505 -0.0541 -0.1431
17526TIP3    H174069   3.046   5.829  12.248 -0.9891 -0.1961 -0.1965
17526TIP3    H274070   3.041   5.685  12.201  0.5195 -0.2316 -0.2897
17527TIP3   OH274071   3.026   2.017   3.491  0.0073 -0.4138  0.6149
17527TIP3    H174072   3.066   2.041   3.407  0.3836 -0.2395  0.8425
17527TIP3    H274073   2.934   1.998   3.470 -0.0306  0.1650  0.2573
17528TIP3   OH274074   1.727   5.625   4.284 -0.4331 -0.0965 -0.1180
17528TIP3    H174075   1.721   5.540   4.242  0.8591 -0.1832 -0.1800
17528TIP3    H274076   1.675   5.684   4.229  0.7409 -0.3251 -1.5259
17529TIP3   OH274077   2.834   1.137   3.789  0.4605  0.1052 -0.0767
17529TIP3    H174078   2.885   1.177   3.861  0.2609  2.1994 -1.0099
17529TIP3    H274079   2.838   1.202   3.719  0.3927 -1.7531 -1.8775
17530TIP3   OH274080   0.035   5.360   0.151  0.1299 -0.4675 -0.6786
17530TIP3    H174081   0.032   5.373   0.056 -0.8215 -2.5547 -1.0021
17530TIP3    H274082  -0.037   5.412   0.185  0.4973  0.3190 -1.0806
17531TIP3   OH274083   6.816   6.235   4.024  0.5298 -0.3079  0.6366
17531TIP3    H174084   6.861   6.307   3.980  0.1856  0.0699  0.8930
17531TIP3    H274085   6.737   6.275   4.060 -0.5592 -1.1782 -0.7146
17532TIP3   OH274086   4.199   1.699   5.383  0.5889 -0.2026 -0.0044
17532TIP3    H174087   4.238   1.776   5.426  0.3798 -0.4810  0.6858
17532TIP3    H274088   4.112   1.692   5.421 -0.7876  1.2763 -2.5654
17533TIP3   OH274089   0.382   0.239   0.054 -0.3872 -0.6595 -0.3123
17533TIP3    H174090   0.299   0.276   0.023  0.0473  0.5980 -0.0481
17533TIP3    H274091   0.426   0.208  -0.025  0.0670  1.1746 -0.8209
17534TIP3   OH274092   1.641   5.749   2.165  0.3514 -0.3560 -0.1052
17534TIP3    H174093   1.557   5.726   2.125 -0.2551  0.9375  0.3814
17534TIP3    H274094   1.698   5.675   2.143  0.1461  0.3485 -3.5888
17535TIP3   OH274095   3.097   3.087   1.476  0.0219  0.0052 -0.0996
17535TIP3    H174096   3.107   3.051   1.564 -0.4951  0.2693  0.0651
17535TIP3    H274097   3.149   3.167   1.477 -0.1224  0.0970  0.0152
17536TIP3   OH274098   2.157   0.090   1.008 -0.0405  0.1294  0.6665
17536TIP3    H174099   2.207   0.008   1.004 -1.5371 -0.8354  0.5529
17536TIP3    H274100   2.116   0.097   0.922  0.5929  1.3744  0.4525
17537TIP3   OH274101   2.814   0.572  12.541 -0.4110  0.1409 -0.0046
17537TIP3    H174102   2.774   0.586  12.627  1.0626 -0.4929  0.8230
17537TIP3    H274103   2.817   0.659  12.502  0.2883  0.7079  1.2340
17538TIP3   OH274104   1.262   3.671   1.967 -0.5445 -0.4769  1.0577
17538TIP3    H174105   1.232   3.614   1.896 -0.5203 -0.5207  1.0826
17538TIP3    H274106   1.220   3.635   2.046  0.5993 -1.3308  1.2944
17539TIP3   OH274107   4.966   4.923   0.493  0.6247 -0.3849 -0.6505
17539TIP3    H174108   4.913   4.973   0.554  0.6263 -1.0856 -0.0507
17539TIP3    H274109   5.010   4.988   0.439  0.0073  0.2262 -0.4219
17540TIP3   OH274110   3.058   2.761  13.192 -0.1556 -0.4212 -0.2369
17540TIP3    H174111   2.964   2.776  13.192 -0.1437 -0.2192 -1.5787
17540TIP3    H274112   3.068   2.670  13.219 -0.7879 -0.6766 -0.8348
17541TIP3   OH274113   3.079   3.984  13.137  0.3225  0.8384 -0.1857
17541TIP3    H174114   2.988   4.009  13.119  0.1037  0.2896  0.1054
17541TIP3    H274115   3.072   3.920  13.208  0.8529 -0.0206 -0.8924
17542TIP3   OH274116   2.173   0.459  13.859 -0.0060 -0.3768 -0.1713
17542TIP3    H174117   2.255   0.411  13.846  1.1190  1.5061 -0.5049
17542TIP3    H274118   2.164   0.467  13.954  1.2017  0.9471 -0.1385
17543TIP3   OH274119   1.693   3.519  11.304 -0.1092 -0.0833  0.2484
17543TIP3    H174120   1.722   3.456  11.370  0.5659 -1.0569 -0.9443
17543TIP3    H274121   1.747   3.597  11.320  0.4778 -0.5278  0.4486
17544TIP3   OH274122   2.840   2.417   6.915  0.3598 -0.0620 -0.6546
17544TIP3    H174123   2.819   2.326   6.895  0.3861 -0.2658  0.2200
17544TIP3    H274124   2.899   2.412   6.990 -0.2130  0.7000 -0.1428
17545TIP3   OH274125   3.050   3.827  16.099 -0.0467  0.5796  0.7280
17545TIP3    H174126   3.118   3.794  16.157  0.5556  0.2804 -0.1238
17545TIP3    H274127   3.055   3.922  16.106  1.5083  0.6317 -0.4514
17546TIP3   OH274128   2.250   3.976   3.232 -0.1951  0.0691 -0.1224
17546TIP3    H174129   2.195   3.942   3.303 -2.5477  1.1584 -1.3332
17546TIP3    H274130   2.258   3.902   3.171 -0.0839 -0.1630  0.1664
17547TIP3   OH274131   2.662   1.902  12.444 -0.0489  0.3192 -0.4928
17547TIP3    H174132   2.587   1.957  12.424 -0.5215 -0.4499 -0.8846
17547TIP3    H274133   2.645   1.868  12.532 -0.6148 -0.5650 -0.9288
17548TIP3   OH274134   4.850   4.131  16.382  0.0786 -0.5535  0.4133
17548TIP3    H174135   4.917   4.195  16.359  0.0006  0.2154  2.1416
17548TIP3    H274136   4.773   4.158  16.332  0.0914  0.6525  1.0059
17549TIP3   OH274137   2.753   2.449   5.356 -0.4785  0.6318  0.9863
17549TIP3    H174138   2.790   2.493   5.280 -1.3352  2.4145  1.5254
17549TIP3    H274139   2.815   2.380   5.377 -0.1286  0.2194 -1.1933
17550TIP3   OH274140   4.786   1.295  13.442  0.4562  0.0724 -0.6516
17550TIP3    H174141   4.809   1.311  13.534 -1.1950  2.0298 -0.5084
17550TIP3    H274142   4.820   1.372  13.395  1.2084 -0.8688 -1.7003
17551TIP3   OH274143   1.089   3.472   4.354  0.1931 -0.2518 -0.6037
17551TIP3    H174144   1.035   3.540   4.395  0.0161 -0.1824 -0.9477
17551TIP3    H274145   1.048   3.390   4.380  0.3565 -0.2265 -0.2587
17552TIP3   OH274146   0.312   4.603   1.035  0.2806  0.2213 -0.0139
17552TIP3    H174147   0.354   4.633   1.115 -0.8119 -0.4985  0.8587
17552TIP3    H274148   0.218   4.607   1.054  0.0194 -0.4169 -1.0844
17553TIP3   OH274149   4.064   5.056   1.813  0.0509  0.0148  0.0508
17553TIP3    H174150   4.151   5.063   1.775  0.2674 -3.6848 -0.4829
17553TIP3    H274151   4.080   5.041   1.907  0.0659 -1.2924 -0.1461
17554TIP3   OH274152   6.799   1.011  14.723  0.3296  0.0532 -0.5558
17554TIP3    H174153   6.872   0.964  14.763 -0.9240 -1.6398 -0.0988
17554TIP3    H274154   6.730   0.945  14.716 -0.7827  1.2962 -2.0068
17555TIP3   OH274155   4.685   0.827  12.387  0.0159 -0.3848 -0.1810
17555TIP3    H174156   4.668   0.772  12.310 -0.7159 -1.0397  0.4277
17555TIP3    H274157   4.655   0.914  12.361 -0.8783 -0.7462 -0.4027
17556TIP3   OH274158   1.050   2.720   0.365  0.3535  0.2346 -0.4387
17556TIP3    H174159   1.124   2.670   0.401  1.3721  2.0491  0.0917
17556TIP3    H274160   1.088   2.771   0.294 -0.3191  1.3775 -0.0068
17557TIP3   OH274161   4.913   4.757  11.742  0.0909 -0.5534 -0.0106
17557TIP3    H174162   4.928   4.670  11.703  0.1004 -0.0499 -1.1898
17557TIP3    H274163   4.819   4.771  11.733  0.3541  0.3912 -1.7396
17558TIP3   OH274164   3.930   1.830   3.367 -0.8653  0.3796 -0.0786
17558TIP3    H174165   3.887   1.800   3.446  0.0592 -1.3506 -0.1721
17558TIP3    H274166   3.869   1.808   3.296  0.0267 -1.9529 -0.2007
17559TIP3   OH274167   0.715   6.698  10.916 -0.0534 -0.0779 -0.2941
17559TIP3    H174168   0.706   6.607  10.888  0.9553  0.0251 -0.9990
17559TIP3    H274169   0.730   6.747  10.835 -0.7623  0.7503  0.0568
17560TIP3   OH274170   4.553   1.793   0.116 -1.0103  0.0000 -0.0380
17560TIP3    H174171   4.521   1.817   0.203 -0.6381 -0.4111  0.2149
17560TIP3    H274172   4.520   1.862   0.059 -2.4244 -0.4539  0.1972
17561TIP3   OH274173   2.298   4.242   3.725 -0.5883 -0.0136 -0.3712
17561TIP3    H174174   2.279   4.332   3.752 -2.3989 -0.4084 -0.2513
17561TIP3    H274175   2.303   4.246   3.630  0.7212  0.4339 -0.3139
17562TIP3   OH274176   2.122   1.816   5.758 -0.0148  0.3273 -0.1629
17562TIP3    H174177   2.071   1.813   5.839  1.0999  1.0960  0.5899
17562TIP3    H274178   2.072   1.761   5.697 -0.3336 -1.1657  1.3501
17563TIP3   OH274179   2.581   4.270  14.602  0.5310 -0.1392  0.0435
17563TIP3    H174180   2.512   4.291  14.540  1.4074  1.6872 -0.3861
17563TIP3    H274181   2.623   4.191  14.566 -0.6311 -0.6482 -0.2343
17564TIP3   OH274182   1.751   5.141  11.803  0.5463 -0.1199 -0.3774
17564TIP3    H174183   1.695   5.096  11.740 -1.5576  1.6427  0.1089
17564TIP3    H274184   1.696   5.152  11.881  2.7107 -1.2519  1.4219
17565TIP3   OH274185   0.265   3.438   0.839 -0.0589 -0.1212 -0.1238
17565TIP3    H174186   0.318   3.452   0.918 -1.1846 -1.6224  0.9562
17565TIP3    H274187   0.175   3.429   0.871 -0.7020  0.2792 -1.7025
17566TIP3   OH274188   2.965   6.572   4.890  0.2999  0.2802  0.5608
17566TIP3    H174189   2.996   6.636   4.954  1.6495 -1.3516  1.6568
17566TIP3    H274190   2.899   6.521   4.937  1.7362 -1.3216  0.9523
17567TIP3   OH274191   4.135   1.878  11.031 -0.0578  0.5932 -0.0857
17567TIP3    H174192   4.109   1.866  11.122 -0.0999 -2.9917 -0.4467
17567TIP3    H274193   4.054   1.867  10.981  0.2391  0.9074 -0.6439
17568TIP3   OH274194   5.300   3.237  11.332 -0.9220 -0.3043 -0.3769
17568TIP3    H174195   5.261   3.150  11.328  0.1266 -0.7780 -0.6131
17568TIP3    H274196   5.376   3.227  11.388 -0.9549  0.5308 -0.1663
17569TIP3   OH274197   6.195   2.664   0.179 -0.2259  0.4945  0.2946
17569TIP3    H174198   6.276   2.648   0.130  1.4892  2.0715  2.4311
17569TIP3    H274199   6.166   2.750   0.150 -2.0243 -0.6047 -1.4629
17570TIP3   OH274200   0.780   0.024   0.135  0.1141 -0.3470  0.2293
17570TIP3    H174201   0.758   0.081   0.061  0.3631  1.4709  1.4834
17570TIP3    H274202   0.701  -0.027   0.151  0.2825 -1.2963 -1.6979
17571TIP3   OH274203   1.682   6.520  16.207 -0.6640 -0.5942  0.0506
17571TIP3    H174204   1.648   6.589  16.265  0.9486 -0.9301  1.4934
17571TIP3    H274205   1.653   6.545  16.120 -3.6471 -0.3306  1.0113
17572TIP3   OH274206   3.545   0.462  15.449 -0.2510 -0.2388 -0.3406
17572TIP3    H174207   3.510   0.540  15.405 -1.7093 -0.7495 -0.1360
17572TIP3    H274208   3.580   0.408  15.378  0.6051  0.5049 -0.5028
17573TIP3   OH274209   4.887   5.045   4.892  0.2026  0.6232  0.1474
17573TIP3    H174210   4.815   5.094   4.853 -0.8982 -0.4232  0.7864
17573TIP3    H274211   4.875   5.056   4.986  1.9241  1.8617  0.2665
17574TIP3   OH274212   3.323   1.672  10.603  0.2121  0.1408  0.3208
17574TIP3    H174213   3.288   1.617  10.532 -0.0038  0.7071 -0.0173
17574TIP3    H274214   3.290   1.759  10.584  0.2654  0.3251  1.0514
17575TIP3   OH274215   3.639   4.047  12.597 -0.1406 -0.2906  0.0884
17575TIP3    H174216   3.732   4.040  12.617  0.1189 -0.8737 -1.1954
17575TIP3    H274217   3.612   3.957  12.577 -0.5846  0.0781 -1.0814
17576TIP3   OH274218   5.666   1.779  10.089  0.1002  0.2594 -0.3001
17576TIP3    H174219   5.757   1.808  10.095  0.2762 -0.0779 -1.2469
17576TIP3    H274220   5.628   1.832  10.019 -0.7573  1.1788  0.8040
17577TIP3   OH274221   2.053   4.728  16.672  0.1914  0.3174  0.2474
17577TIP3    H174222   2.141   4.742  16.707  0.0364  2.0382  0.0100
17577TIP3    H274223   2.008   4.677  16.740  0.8640  0.8672  1.1222
17578TIP3   OH274224   5.387   0.648  10.840  0.5209 -0.1475  1.1142
17578TIP3    H174225   5.462   0.691  10.798  1.2987 -1.5766  0.9747
17578TIP3    H274226   5.401   0.554  10.824 -2.1507 -0.3752 -0.2893
17579TIP3   OH274227   4.463   5.239  10.709 -0.6213  0.2741 -0.3180
17579TIP3    H174228   4.408   5.163  10.731 -0.6308  0.0436 -1.1048
17579TIP3    H274229   4.467   5.239  10.613 -1.4709  1.8730 -0.3935
17580TIP3   OH274230   0.666   4.563  11.709 -0.7522 -0.5408 -0.1269
17580TIP3    H174231   0.745   4.513  11.687 -0.2101  0.7901 -1.3151
17580TIP3    H274232   0.689   4.610  11.790 -0.7946 -1.1336  0.2382
17581TIP3   OH274233   1.344   0.416  16.769  0.0531  0.1392 -0.7516
17581TIP3    H174234   1.271   0.475  16.786  0.5871  1.3409 -2.3129
17581TIP3    H274235   1.311   0.329  16.791 -2.0413  0.5706 -1.9023
17582TIP3   OH274236   2.791   2.396  12.797  0.5106  0.0370 -0.2052
17582TIP3    H174237   2.792   2.310  12.838 -1.4433 -0.4400 -1.0643
17582TIP3    H274238   2.822   2.381  12.708  1.1960  0.4352 -0.0465
17583TIP3   OH274239   1.834   1.197   4.092  0.0398  0.1760 -0.3757
17583TIP3    H174240   1.849   1.106   4.064 -0.3036 -0.3176  0.9691
17583TIP3    H274241   1.916   1.242   4.072  0.3265 -0.4986 -0.7737
17584TIP3   OH274242   3.175   0.625  15.057 -0.0880  0.2837 -0.4086
17584TIP3    H174243   3.186   0.705  15.108 -0.4938  0.6482 -0.8762
17584TIP3    H274244   3.245   0.629  14.991  0.6229 -0.3345  0.2935
17585TIP3   OH274245   0.968   4.867  14.562  0.2966 -0.0927  0.6019
17585TIP3    H174246   0.948   4.790  14.509  2.3444  0.3575 -0.9258
17585TIP3    H274247   0.947   4.840  14.652 -1.5938 -1.4680 -0.1965
17586TIP3   OH274248   4.789   6.600   4.804 -0.2323 -0.3433 -0.3004
17586TIP3    H174249   4.748   6.625   4.886  0.3993  0.3108 -0.1729
17586TIP3    H274250   4.786   6.504   4.803  0.8175 -0.4220  1.0537
17587TIP3   OH274251   5.645   3.201   1.924  0.2209 -0.1939  0.0457
17587TIP3    H174252   5.723   3.256   1.919 -0.8431  1.3132 -1.1068
17587TIP3    H274253   5.662   3.129   1.862  1.1476 -0.5335  0.6795
17588TIP3   OH274254   4.942   3.498  12.023 -0.2908  0.2303 -0.2119
17588TIP3    H174255   4.976   3.550  12.096  0.3117 -0.1998 -0.1881
17588TIP3    H274256   4.930   3.562  11.953  0.4836  0.4048 -0.1938
17589TIP3   OH274257   3.988   3.663  15.586 -0.4840  0.2436  0.0141
17589TIP3    H174258   3.905   3.634  15.550 -0.1976  1.2812 -1.5671
17589TIP3    H274259   4.028   3.715  15.517  1.0950  0.5027  1.0573
17590TIP3   OH274260   4.595   4.821  10.953 -0.0826  0.7904  0.0839
17590TIP3    H174261   4.504   4.807  10.926 -0.4482  0.0788  1.5551
17590TIP3    H274262   4.609   4.915  10.943 -1.0336  0.9274 -0.0497
17591TIP3   OH274263   6.362   3.817  14.328  0.4719  0.1609 -0.0761
17591TIP3    H174264   6.283   3.870  14.343 -0.6320 -1.5842  0.5735
17591TIP3    H274265   6.395   3.798  14.415 -0.6748 -2.3459 -0.1042
17592TIP3   OH274266   5.015   2.718   4.588  0.0600  0.2947 -0.1957
17592TIP3    H174267   5.044   2.636   4.628  0.5304  0.7169  0.3437
17592TIP3    H274268   4.986   2.693   4.500  2.2586 -0.1417 -0.8607
17593TIP3   OH274269   1.547   0.013   1.379 -0.4611 -0.3478  0.1866
17593TIP3    H174270   1.611   0.063   1.430 -1.4324  1.9373 -0.6693
17593TIP3    H274271   1.581   0.017   1.289 -0.7144 -0.9863  0.0634
17594TIP3   OH274272   1.156   6.426   6.111  0.0763 -0.4961 -0.1294
17594TIP3    H174273   1.138   6.361   6.043 -2.6289  0.3152 -0.3125
17594TIP3    H274274   1.233   6.473   6.080  0.1560 -1.5127 -1.5605
17595TIP3   OH274275   4.456   0.288  12.985 -0.1797  0.0401  0.2353
17595TIP3    H174276   4.454   0.373  13.029 -0.3409 -0.4181  1.1168
17595TIP3    H274277   4.418   0.227  13.048 -2.6710 -0.2445 -1.3740
17596TIP3   OH274278   4.823   1.708  15.385 -0.3069  0.2476 -0.1880
17596TIP3    H174279   4.866   1.718  15.470 -0.1638 -1.3101 -0.0362
17596TIP3    H274280   4.894   1.714  15.321 -0.6006  2.9563 -0.3730
17597TIP3   OH274281   0.534   2.456   5.749  0.0231  0.5329 -0.0803
17597TIP3    H174282   0.611   2.399   5.744 -0.3656  0.0457 -0.7648
17597TIP3    H274283   0.564   2.534   5.795  1.1953  0.7920 -1.2391
17598TIP3   OH274284   1.077   1.049  15.516  0.0999  0.0847  0.2832
17598TIP3    H174285   1.138   1.020  15.584  1.3616  0.2022 -0.7632
17598TIP3    H274286   1.067   1.143  15.531 -3.6145 -0.5390  3.3755
17599TIP3   OH274287   1.287   0.793   3.118  0.0853 -0.7198 -0.3259
17599TIP3    H174288   1.368   0.844   3.121 -0.2258 -0.1231 -1.3596
17599TIP3    H274289   1.235   0.826   3.191 -0.6259  1.4253 -1.6942
17600TIP3   OH274290   4.885   6.045  12.450  0.1048 -0.2789 -0.4006
17600TIP3    H174291   4.915   6.097  12.376  1.0135 -1.4154 -0.8555
17600TIP3    H274292   4.799   6.082  12.472 -0.1826  0.0783 -1.9974
17601TIP3   OH274293   4.624   2.216  12.850  0.0107  0.2410  0.1182
17601TIP3    H174294   4.591   2.168  12.774 -0.1843 -0.1874  0.4689
17601TIP3    H274295   4.646   2.303  12.816 -0.2034  0.0953 -0.3980
17602TIP3   OH274296   2.397   0.329   1.926  0.3426 -0.2123  0.2704
17602TIP3    H174297   2.365   0.278   1.852 -0.3367  0.8379 -0.2000
17602TIP3    H274298   2.318   0.347   1.978  0.1036  2.1518 -0.7410
17603TIP3   OH274299   4.140   3.883   2.000 -0.0393  0.2932 -0.5756
17603TIP3    H174300   4.081   3.852   2.069  2.6992 -0.1587  1.7216
17603TIP3    H274301   4.154   3.806   1.945  1.7341 -0.9631  1.4464
17604TIP3   OH274302   2.070   1.266  17.030 -0.4654  0.5262 -0.0858
17604TIP3    H174303   2.099   1.294  16.943 -0.3469  0.5255 -0.0461
17604TIP3    H274304   2.147   1.277  17.086 -0.6081  0.7544  0.0705
17605TIP3   OH274305   1.432   3.211  13.631  0.0866  0.1855  0.0051
17605TIP3    H174306   1.515   3.164  13.639 -0.6465 -1.5522 -1.8333
17605TIP3    H274307   1.370   3.145  13.600 -1.5766  1.8561 -0.4093
17606TIP3   OH274308   6.484   4.346   4.404  0.5452 -0.1149  0.4092
17606TIP3    H174309   6.539   4.414   4.364 -1.2122  2.0778  1.5522
17606TIP3    H274310   6.396   4.383   4.405 -0.2417 -1.8392  2.3938
17607TIP3   OH274311   4.439   3.355  10.841  0.2227 -0.2730 -0.5216
17607TIP3    H174312   4.493   3.316  10.772 -3.0759 -1.6583 -2.5617
17607TIP3    H274313   4.396   3.429  10.798  0.2632  0.6560  0.9631
17608TIP3   OH274314   3.289   0.901   4.646  0.3871 -0.2854  0.3945
17608TIP3    H174315   3.219   0.926   4.586  0.3944  0.8268  0.8323
17608TIP3    H274316   3.346   0.978   4.651  1.8317 -1.2634 -0.1906
17609TIP3   OH274317   1.984   3.459  16.046  0.2213 -0.4033 -0.2104
17609TIP3    H174318   1.889   3.472  16.048  0.2094 -0.5454  0.7936
17609TIP3    H274319   2.013   3.507  15.969 -0.4394  1.2923  0.5544
17610TIP3   OH274320   5.106   3.115  16.311 -0.1760 -0.1244 -0.1398
17610TIP3    H174321   5.012   3.122  16.297 -0.3611  0.1083  1.0749
17610TIP3    H274322   5.128   3.190  16.366  0.7928  0.0293 -0.7029
17611TIP3   OH274323   4.312   3.959   3.481 -0.1492 -0.5924  0.1260
17611TIP3    H174324   4.305   4.049   3.449  0.4905 -1.1561 -1.6934
17611TIP3    H274325   4.319   3.906   3.402 -0.0597 -2.2138  1.1855
17612TIP3   OH274326   1.631   2.818   1.843  0.3420  0.2179  0.3274
17612TIP3    H174327   1.602   2.760   1.773  1.2678 -0.2823  0.3433
17612TIP3    H274328   1.657   2.760   1.914  3.8416  0.3839 -0.6002
17613TIP3   OH274329   3.994   4.389  14.040  0.5458 -0.2771  0.1876
17613TIP3    H174330   4.040   4.308  14.018 -0.4879 -0.7733 -0.2121
17613TIP3    H274331   3.995   4.392  14.136  4.1017  1.3335  0.2612
17614TIP3   OH274332   4.754   4.033   0.414  0.5699 -0.1119 -0.4792
17614TIP3    H174333   4.705   3.957   0.382 -0.7710  0.3858  0.3030
17614TIP3    H274334   4.840   3.997   0.439  0.2956 -1.1841 -0.9884
17615TIP3   OH274335   4.293   1.455   5.516  0.5549 -0.1450 -0.2419
17615TIP3    H174336   4.250   1.494   5.592  1.2966 -0.0385  0.1249
17615TIP3    H274337   4.278   1.518   5.445 -0.8952 -0.6493 -0.4325
17616TIP3   OH274338   5.917   2.078   2.438 -0.1190  0.8441  0.1319
17616TIP3    H174339   5.833   2.113   2.408 -0.5331 -1.1532 -1.2412
17616TIP3    H274340   5.910   1.984   2.423  2.8345  0.7478 -1.1985
17617TIP3   OH274341   2.205   5.466   0.549 -0.3536  0.4943  0.0811
17617TIP3    H174342   2.116   5.438   0.527 -0.4972  1.3634 -0.4623
17617TIP3    H274343   2.261   5.399   0.508 -0.7586 -0.6113  1.2553
17618TIP3   OH274344   1.018   2.632   0.903  0.3300  0.3103  0.0713
17618TIP3    H174345   1.094   2.650   0.958  0.6041  1.7021 -0.7176
17618TIP3    H274346   0.968   2.567   0.952  2.1655 -0.8887  0.4698
17619TIP3   OH274347   3.130   5.837  13.108  0.6236  0.8259  0.6150
17619TIP3    H174348   3.174   5.766  13.061  0.0098  0.3780  0.6955
17619TIP3    H274349   3.075   5.879  13.042  1.2363  1.4515  0.4890
17620TIP3   OH274350   5.027   5.476   4.304  0.2364 -0.0644  0.2049
17620TIP3    H174351   5.069   5.462   4.220  0.6185  0.6130  0.2806
17620TIP3    H274352   5.018   5.571   4.311  1.4556 -0.0141  1.5271
17621TIP3   OH274353   0.902   5.435  13.807  0.1098 -0.9325  0.0875
17621TIP3    H174354   0.972   5.484  13.851 -0.7050 -0.6477  1.0943
17621TIP3    H274355   0.843   5.502  13.773  1.3468 -1.0721 -2.6499
17622TIP3   OH274356   0.598   3.597   4.398  0.3403  0.0758 -0.1486
17622TIP3    H174357   0.562   3.512   4.426 -0.8675  0.0051 -1.7806
17622TIP3    H274358   0.582   3.600   4.304  2.4009  1.1795 -0.5127
17623TIP3   OH274359   0.229   1.104   5.132  0.0097 -0.1461  0.3789
17623TIP3    H174360   0.217   1.139   5.044 -1.2344  0.4564  0.7503
17623TIP3    H274361   0.249   1.181   5.186 -3.6244  0.3019  1.3679
17624TIP3   OH274362   1.250   4.457  15.374  0.5774 -0.0174  0.3794
17624TIP3    H174363   1.199   4.388  15.332  1.2268 -0.9567  1.0692
17624TIP3    H274364   1.324   4.410  15.415  1.8813  1.2608 -0.4230
17625TIP3   OH274365   6.554   4.045   5.421 -0.1528 -0.3683  0.0836
17625TIP3    H174366   6.528   3.993   5.497  0.2156 -1.3032 -0.4177
17625TIP3    H274367   6.649   4.035   5.417 -0.1788 -0.4026 -0.5489
17626TIP3   OH274368   6.048   6.516  12.159 -0.4497 -0.0521  0.4122
17626TIP3    H174369   5.994   6.438  12.150 -1.6819  0.7844  0.3717
17626TIP3    H274370   6.135   6.488  12.132 -0.7638 -1.5209  0.8307
17627TIP3   OH274371   2.613   0.761  15.121 -1.1147  0.0158 -0.0077
17627TIP3    H174372   2.536   0.704  15.116 -1.3256  0.4162 -1.7772
17627TIP3    H274373   2.578   0.849  15.129 -0.7961  0.0400  1.3693
17628TIP3   OH274374   1.695   3.121   0.450 -0.5546  0.2132  0.2558
17628TIP3    H174375   1.757   3.096   0.381 -0.1610  2.0117 -0.0890
17628TIP3    H274376   1.750   3.149   0.523 -0.9838  0.0829  0.6324
17629TIP3   OH274377   3.678   1.070  13.886 -0.1326 -0.4939 -0.4169
17629TIP3    H174378   3.749   1.130  13.860 -0.3424 -0.1812 -0.2777
17629TIP3    H274379   3.603   1.101  13.835 -0.4068 -0.2256  0.1482
17630TIP3   OH274380   4.477   6.398   4.339 -0.1290  0.5161 -0.1194
17630TIP3    H174381   4.406   6.334   4.347 -0.6230  1.1256  0.5118
17630TIP3    H274382   4.548   6.362   4.392 -0.3743  0.4387  0.1633
17631TIP3   OH274383   0.413   4.944  16.456  0.5626 -0.3339 -0.1392
17631TIP3    H174384   0.455   5.028  16.438 -0.9916  0.6611  0.6930
17631TIP3    H274385   0.320   4.965  16.466 -0.0576 -2.3433 -1.1360
17632TIP3   OH274386   3.224   2.790  13.401 -0.1312 -0.1644  0.1338
17632TIP3    H174387   3.302   2.794  13.345 -0.8018 -0.0069 -0.8214
17632TIP3    H274388   3.150   2.797  13.339 -0.9633 -2.4704  0.7680
17633TIP3   OH274389   6.117   3.026  16.811  0.2974 -0.6734  0.2175
17633TIP3    H174390   6.081   3.007  16.898  0.6798  1.0548  0.7894
17633TIP3    H274391   6.078   3.109  16.786 -0.3079 -1.4435 -1.5915
17634TIP3   OH274392   0.475   5.590  11.404  0.0770  0.3815 -0.5745
17634TIP3    H174393   0.428   5.540  11.471 -0.6766  1.2886 -0.4038
17634TIP3    H274394   0.529   5.651  11.454  0.7118 -0.0052 -0.7832
17635TIP3   OH274395   4.571   3.482  12.729 -0.3791 -0.4670  1.2337
17635TIP3    H174396   4.667   3.478  12.727 -0.3995 -1.3574  1.2523
17635TIP3    H274397   4.543   3.428  12.655 -0.8713  0.2598  0.8746
17636TIP3   OH274398   2.259   0.705  12.128 -0.3326 -0.2978 -0.7658
17636TIP3    H174399   2.336   0.751  12.095 -0.3176 -0.6473 -1.2457
17636TIP3    H274400   2.293   0.648  12.197 -0.4413  0.7993  0.2005
17637TIP3   OH274401   4.499   1.095   2.738 -0.5509  0.1888  0.4381
17637TIP3    H174402   4.489   1.003   2.714 -0.0781 -0.2786  1.8913
17637TIP3    H274403   4.415   1.118   2.779 -0.4738  0.2219  0.5799
17638TIP3   OH274404   6.572   1.342  12.410  0.1466  0.5280  0.2288
17638TIP3    H174405   6.586   1.248  12.394 -1.7473  0.4056 -0.9374
17638TIP3    H274406   6.658   1.374  12.438  1.4106 -1.1047 -1.5167
17639TIP3   OH274407   4.403   6.562  13.488  0.1576 -0.4943 -0.2085
17639TIP3    H174408   4.436   6.540  13.575 -0.5187  0.2045  0.2388
17639TIP3    H274409   4.458   6.634  13.459  0.3138 -0.6563 -0.3176
17640TIP3   OH274410   3.559   2.220  14.197  0.4777 -0.1859 -0.1038
17640TIP3    H174411   3.625   2.243  14.261  1.2476  0.7375 -1.1811
17640TIP3    H274412   3.492   2.288  14.205  0.2621 -0.4173  0.1200
17641TIP3   OH274413   3.604   3.425   0.921 -0.2083  0.1379 -0.2496
17641TIP3    H174414   3.509   3.413   0.921 -0.4280  1.5357 -1.0739
17641TIP3    H274415   3.616   3.511   0.881  1.3262  0.6818  1.2725
17642TIP3   OH274416   5.464   4.945  12.435  0.2930 -0.3050 -0.0663
17642TIP3    H174417   5.454   5.020  12.493  0.7325 -0.2522 -0.0586
17642TIP3    H274418   5.504   4.877  12.490  0.5292 -0.3179 -0.2515
17643TIP3   OH274419   0.350   2.490  11.836 -0.0821 -0.0170  0.2819
17643TIP3    H174420   0.421   2.484  11.773 -0.3230 -1.1721  0.0930
17643TIP3    H274421   0.324   2.582  11.835 -0.0743 -0.0040 -1.3126
17644TIP3   OH274422   0.471   2.252  14.700  0.2962 -0.1562 -0.2277
17644TIP3    H174423   0.534   2.321  14.721  0.0671 -0.5084  1.8237
17644TIP3    H274424   0.386   2.291  14.719  0.1088 -0.7146  0.0814
17645TIP3   OH274425   0.439   0.208   1.285 -0.5163  0.0019  0.1224
17645TIP3    H174426   0.370   0.229   1.223  0.5739  1.2876 -0.7120
17645TIP3    H274427   0.505   0.276   1.272  1.5485 -1.8849 -0.1086
17646TIP3   OH274428   3.638   1.330   4.666  0.0629  0.1946  0.8059
17646TIP3    H174429   3.654   1.403   4.726  3.6749  0.8994 -0.7562
17646TIP3    H274430   3.725   1.305   4.636 -1.3401 -2.4787 -1.4170
17647TIP3   OH274431   6.650   4.826  16.328  0.0485  0.1770 -0.3611
17647TIP3    H174432   6.668   4.789  16.242  2.5114  0.5350 -0.0928
17647TIP3    H274433   6.595   4.761  16.372 -2.1991  0.4972 -2.5113
17648TIP3   OH274434   4.463   6.193  13.007  0.1239 -0.6897  0.1289
17648TIP3    H174435   4.457   6.113  13.060  2.7930  0.1734  1.9347
17648TIP3    H274436   4.532   6.244  13.049 -0.2842  1.8081 -2.0175
17649TIP3   OH274437   0.217   0.605  13.361 -0.1227  0.6873 -0.3931
17649TIP3    H174438   0.213   0.698  13.339 -1.6238  0.4827 -1.1421
17649TIP3    H274439   0.310   0.584  13.365  0.2221  2.1328 -0.5948
17650TIP3   OH274440   0.487   3.386   5.518 -0.1639  0.0326  0.2082
17650TIP3    H174441   0.558   3.386   5.455  0.7195 -1.0143  1.1640
17650TIP3    H274442   0.417   3.337   5.476  0.0824  0.1289 -0.3117
17651TIP3   OH274443   4.120   0.984  12.684  0.1925 -0.4678  0.5107
17651TIP3    H174444   4.197   0.939  12.719  0.4832  0.3623  0.9745
17651TIP3    H274445   4.105   0.944  12.598  1.4702 -0.2863  0.1783
17652TIP3   OH274446   4.500   2.088  14.027 -0.3094  0.0551 -0.1639
17652TIP3    H174447   4.531   2.079  14.117  1.1219  0.3354 -0.6039
17652TIP3    H274448   4.576   2.119  13.978 -0.8225 -0.8802 -1.6292
17653TIP3   OH274449   1.583   1.135   0.604  0.7581 -0.0794  0.6810
17653TIP3    H174450   1.511   1.077   0.629  1.4095 -1.4975 -0.5723
17653TIP3    H274451   1.651   1.076   0.573  0.9328  1.3972 -1.9749
17654TIP3   OH274452   1.714   0.711  13.558 -0.2150 -0.3827  0.0467
17654TIP3    H174453   1.790   0.767  13.541 -2.1009  1.7329 -2.1710
17654TIP3    H274454   1.680   0.743  13.641  0.1214  0.1000  0.0048
17655TIP3   OH274455   0.346   1.747  13.100  0.1959 -0.4225  0.1045
17655TIP3    H174456   0.282   1.696  13.150  1.9305 -0.7568  2.1002
17655TIP3    H274457   0.373   1.689  13.029  1.0551 -1.7550  1.4731
17656TIP3   OH274458   3.317   0.126   0.526  0.2452 -0.2474  0.1129
17656TIP3    H174459   3.222   0.126   0.522  0.2698  0.5887 -2.6060
17656TIP3    H274460   3.343   0.048   0.476  0.9484  0.7975 -1.2235
17657TIP3   OH274461   3.300   5.973   0.783  0.3265 -0.0598 -0.5676
17657TIP3    H174462   3.247   5.941   0.856 -0.5016  2.0479 -0.1486
17657TIP3    H274463   3.239   5.981   0.710  0.6798 -0.2002 -0.8806
17658TIP3   OH274464   1.567   5.833  12.966 -0.1523  0.1578  0.1629
17658TIP3    H174465   1.645   5.790  13.001 -0.8559  0.2818  1.9825
17658TIP3    H274466   1.552   5.907  13.025 -0.7716  1.0493 -1.0709
17659TIP3   OH274467   1.626   5.870  14.710  0.0796 -0.0174  0.5415
17659TIP3    H174468   1.696   5.876  14.775  1.4332 -2.7651 -0.4887
17659TIP3    H274469   1.639   5.947  14.654  3.0966 -0.9972 -0.2807
17660TIP3   OH274470   2.529   4.471   2.136  0.2411  0.1826 -0.3443
17660TIP3    H174471   2.527   4.416   2.214  0.6507  0.1044 -0.3874
17660TIP3    H274472   2.490   4.416   2.067 -0.1749  0.2742 -0.1832
17661TIP3   OH274473   3.356   2.897   4.793 -0.0935  0.0113 -0.5797
17661TIP3    H174474   3.366   2.935   4.880  1.0508 -1.4720 -0.0225
17661TIP3    H274475   3.350   2.973   4.734  5.3641  1.3434  0.0522
17662TIP3   OH274476   3.557   4.431   6.329 -0.0893  0.0677  0.4079
17662TIP3    H174477   3.527   4.466   6.412 -0.7948 -1.6627  0.9263
17662TIP3    H274478   3.476   4.416   6.279 -0.0057 -2.2362  0.8345
17663TIP3   OH274479   5.422   3.683  10.802 -0.2300  0.1665 -0.3356
17663TIP3    H174480   5.477   3.611  10.834  0.1657 -0.3570 -2.1029
17663TIP3    H274481   5.412   3.666  10.708 -3.6702  0.0711 -0.0880
17664TIP3   OH274482   3.958   2.126   4.223 -0.8106  0.1028 -0.0373
17664TIP3    H174483   4.036   2.081   4.256 -1.0932  0.3905  1.0566
17664TIP3    H274484   3.915   2.160   4.301 -1.6185  0.6306 -0.6961
17665TIP3   OH274485   6.092   5.466   1.213 -0.0040  0.5105 -0.2204
17665TIP3    H174486   6.163   5.529   1.221 -1.3442  2.2533 -1.1644
17665TIP3    H274487   6.036   5.483   1.289  0.2893 -0.5103  0.2487
17666TIP3   OH274488   5.349   0.624   3.869 -0.8754  0.3550 -0.0816
17666TIP3    H174489   5.257   0.652   3.874 -0.8257  0.6005 -0.5078
17666TIP3    H274490   5.380   0.628   3.959 -0.0889  4.2449 -0.3632
17667TIP3   OH274491   3.149   2.851  14.841 -0.0358 -0.3566  0.3521
17667TIP3    H174492   3.140   2.920  14.907 -0.4307 -1.2272  1.2329
17667TIP3    H274493   3.077   2.865  14.781 -0.3747 -0.2581  0.7777
17668TIP3   OH274494   0.093   0.262   5.075  0.6180  0.3316 -0.0080
17668TIP3    H174495   0.049   0.226   5.152  0.2526 -1.6091 -1.0445
17668TIP3    H274496   0.155   0.326   5.109 -0.9460  1.0142  1.7213
17669TIP3   OH274497   5.927   0.019   1.711 -0.1716  0.0355 -0.0821
17669TIP3    H174498   5.851   0.072   1.736 -2.2455 -1.6761 -2.3998
17669TIP3    H274499   5.998   0.083   1.700 -0.8163  1.5540  3.3383
17670TIP3   OH274500   6.599   4.121   0.188 -0.3956  0.0535 -0.0441
17670TIP3    H174501   6.655   4.049   0.219 -0.5888 -0.3859 -0.6953
17670TIP3    H274502   6.513   4.101   0.224 -0.8474 -0.9881 -1.6212
17671TIP3   OH274503   3.940   5.078  15.329 -0.0373 -0.3451  0.5776
17671TIP3    H174504   3.929   5.141  15.258 -0.8139  0.1249  1.0958
17671TIP3    H274505   3.853   5.071  15.368  0.0417 -1.7242  0.5523
17672TIP3   OH274506   4.917   0.614   5.657 -0.4051 -0.1676 -0.3704
17672TIP3    H174507   4.933   0.708   5.644  1.4875 -0.5536 -1.2075
17672TIP3    H274508   4.845   0.594   5.598 -1.8394  1.0138  0.8993
17673TIP3   OH274509   4.820   5.717   5.059 -0.6647  0.5249  0.5796
17673TIP3    H174510   4.801   5.727   5.152 -2.4463 -1.6864  0.5146
17673TIP3    H274511   4.735   5.715   5.017  0.0765  0.4518 -1.0007
17674TIP3   OH274512   4.220   4.812   1.376  0.1382  0.3584 -0.2653
17674TIP3    H174513   4.197   4.724   1.347 -2.1696  0.9346 -0.3968
17674TIP3    H274514   4.233   4.861   1.294  2.9327 -0.1254 -0.2139
17675TIP3   OH274515   4.456   0.384  16.936 -0.4084 -0.6593 -0.0655
17675TIP3    H174516   4.437   0.439  17.013 -3.2340 -2.1374  0.4504
17675TIP3    H274517   4.450   0.295  16.969  1.5875 -1.3466 -1.4084
17676TIP3   OH274518   0.892   3.909   6.033 -0.3455  0.2420 -0.5539
17676TIP3    H174519   0.868   3.862   5.952  1.6443  1.2902 -1.8175
17676TIP3    H274520   0.888   3.841   6.101 -1.0566 -0.9192 -1.6921
17677TIP3   OH274521   4.159   4.438   5.538 -0.1127  0.3458 -0.0854
17677TIP3    H174522   4.131   4.405   5.452 -0.9153 -0.8349  0.6017
17677TIP3    H274523   4.103   4.391   5.601  1.3741  0.1801  1.1605
17678TIP3   OH274524   2.746   6.012   2.183  0.0356  0.3793  0.0254
17678TIP3    H174525   2.814   6.051   2.238 -0.3016 -0.9981  1.4932
17678TIP3    H274526   2.779   6.024   2.094  1.6428  0.7746  0.6202
17679TIP3   OH274527   3.291   3.258   4.379  0.6365 -0.7238  0.0373
17679TIP3    H174528   3.284   3.220   4.291  0.6130 -0.6294 -0.0020
17679TIP3    H274529   3.293   3.353   4.364  0.6630 -0.7087  0.1367
17680TIP3   OH274530   1.616   0.601  12.023  0.5149  0.6537  0.4363
17680TIP3    H174531   1.638   0.533  12.087  1.0589  1.3143  0.9625
17680TIP3    H274532   1.686   0.665  12.031 -0.0677  1.3515  0.0430
17681TIP3   OH274533   1.795   5.175   1.807  0.4563 -0.3825 -0.4445
17681TIP3    H174534   1.816   5.262   1.841  0.4723  0.6092 -2.8457
17681TIP3    H274535   1.857   5.162   1.736 -0.0748 -2.0517 -0.6370
17682TIP3   OH274536   3.711   1.638  11.067 -0.1228 -0.0054 -0.2526
17682TIP3    H174537   3.688   1.682  11.148  0.5453  2.0062 -1.1100
17682TIP3    H274538   3.633   1.646  11.012 -0.0570 -0.0290 -0.3510
17683TIP3   OH274539   1.599   5.993  15.049  0.0072  0.2287 -0.3295
17683TIP3    H174540   1.572   6.037  15.130 -0.9346 -2.7038  1.1161
17683TIP3    H274541   1.691   5.972  15.063  0.4165  1.4772 -0.9591
17684TIP3   OH274542   4.322   5.941  14.793  0.3179 -0.2308  0.2551
17684TIP3    H174543   4.294   5.988  14.871  0.9703  0.5826  0.0128
17684TIP3    H274544   4.254   5.960  14.728 -0.2410 -0.9323  0.6081
17685TIP3   OH274545   2.566   4.363   0.727  0.3623  0.5433  0.2381
17685TIP3    H174546   2.508   4.352   0.651  1.1480 -0.0705 -0.2988
17685TIP3    H274547   2.529   4.306   0.794 -1.3839  2.4424  0.9951
17686TIP3   OH274548   3.287   5.462  16.278  0.5829  0.0512  0.0756
17686TIP3    H174549   3.365   5.512  16.255  0.8675 -0.9717 -1.2454
17686TIP3    H274550   3.218   5.497  16.221  0.2233  0.4781  0.7538
17687TIP3   OH274551   1.940   2.370  15.827 -0.1731 -0.2768 -0.0220
17687TIP3    H174552   1.994   2.292  15.839  1.0670  0.5473 -0.0528
17687TIP3    H274553   1.858   2.337  15.789  0.1683 -1.5898  0.3179
17688TIP3   OH274554   2.545   5.510  14.480  0.5150  0.1715  0.1146
17688TIP3    H174555   2.525   5.422  14.513  1.6199  0.1722  0.8281
17688TIP3    H274556   2.594   5.552  14.551  2.6670  0.3098 -1.3469
17689TIP3   OH274557   2.392   4.219   3.000 -0.2950  0.2170  0.0930
17689TIP3    H174558   2.399   4.184   3.089  1.4850  0.4114  0.0663
17689TIP3    H274559   2.330   4.291   3.007 -0.8370 -0.3255  0.9937
17690TIP3   OH274560   4.948   1.889  16.330  0.1686  0.4712  0.1268
17690TIP3    H174561   5.008   1.841  16.272 -0.2003  1.5675 -1.2140
17690TIP3    H274562   5.004   1.951  16.376  0.0370  2.2287 -1.8902
17691TIP3   OH274563   3.059   3.756  15.274 -0.0656  0.0708 -0.0550
17691TIP3    H174564   3.115   3.717  15.206  1.0745  0.6466  0.5259
17691TIP3    H274565   3.008   3.682  15.307 -0.0270 -0.3747 -0.9531
17692TIP3   OH274566   1.312   5.428  14.003  0.0791 -0.2255 -0.3243
17692TIP3    H174567   1.265   5.475  13.934  0.1973  1.3378  0.6330
17692TIP3    H274568   1.348   5.351  13.959 -3.0872 -1.3660 -1.1992
17693TIP3   OH274569   3.155   0.333  14.637  0.4760  0.2049  0.0507
17693TIP3    H174570   3.085   0.282  14.597  1.4914 -0.5823 -0.7637
17693TIP3    H274571   3.203   0.371  14.563  2.1712 -0.9804  0.4748
17694TIP3   OH274572   5.473   2.394  16.682 -0.7541  0.1029  0.0648
17694TIP3    H174573   5.386   2.433  16.669 -1.2590 -0.2853  2.0350
17694TIP3    H274574   5.520   2.458  16.736 -0.4412 -0.4952  0.5110
17695TIP3   OH274575   4.526   6.305  12.740  0.2062  0.2894  0.0091
17695TIP3    H174576   4.444   6.285  12.695  0.9991 -1.0154 -0.9095
17695TIP3    H274577   4.511   6.280  12.831  0.0357 -1.2937 -0.4390
17696TIP3   OH274578   6.162   3.541   4.994 -0.0804  0.2248  0.3477
17696TIP3    H174579   6.251   3.575   4.995 -0.1263  0.7471 -2.7908
17696TIP3    H274580   6.107   3.618   4.978 -0.9824 -0.2905  0.8674
17697TIP3   OH274581   4.510   5.650   2.625 -0.2332 -0.5445 -0.6582
17697TIP3    H174582   4.558   5.665   2.706 -1.3198 -0.9551  0.0932
17697TIP3    H274583   4.577   5.646   2.557  0.8116 -1.3607  0.3846
17698TIP3   OH274584   3.813   1.652   4.719 -0.2298 -0.4271  0.1434
17698TIP3    H174585   3.833   1.743   4.744 -0.5984  0.2406 -1.8206
17698TIP3    H274586   3.754   1.621   4.788  0.0335  0.7567  0.9411
17699TIP3   OH274587   0.543   5.995   3.168  0.1873  0.1725  0.0676
17699TIP3    H174588   0.581   5.916   3.205 -1.0806 -1.4402 -1.9153
17699TIP3    H274589   0.453   5.972   3.148 -0.3382  2.2479 -0.2593
17700TIP3   OH274590   1.248   5.595  12.130  0.3662  0.0762 -0.2729
17700TIP3    H174591   1.272   5.514  12.086  1.3113 -0.6646  1.4895
17700TIP3    H274592   1.165   5.576  12.174  0.7841 -0.1017  0.4678
17701TIP3   OH274593   1.714   0.155  16.716 -0.3587  0.5488 -0.5271
17701TIP3    H174594   1.803   0.140  16.684  0.7780  0.9260  2.1732
17701TIP3    H274595   1.706   0.250  16.718 -0.8571  0.5125 -0.7991
17702TIP3   OH274596   3.059   2.753   6.557  0.6383 -0.6991  0.6349
17702TIP3    H174597   3.100   2.788   6.478 -1.3733  1.1954  0.3285
17702TIP3    H274598   3.105   2.671   6.574  0.6324 -1.6091 -2.9644
17703TIP3   OH274599   6.668   2.401  11.356 -0.0086 -0.0261 -0.5450
17703TIP3    H174600   6.625   2.482  11.329  0.5734  0.7455  0.7144
17703TIP3    H274601   6.746   2.431  11.404  0.0162 -1.3214  0.2651
17704TIP3   OH274602   1.343   3.824  14.107  0.0827 -0.1073  0.4781
17704TIP3    H174603   1.415   3.826  14.043 -1.3249  3.1954 -1.2433
17704TIP3    H274604   1.296   3.744  14.087  1.9040 -1.1303  0.0606
17705TIP3   OH274605   5.350   1.570   0.876 -0.3175 -0.0223 -0.2987
17705TIP3    H174606   5.441   1.566   0.847 -0.5321  0.6951 -1.1195
17705TIP3    H274607   5.354   1.575   0.971  0.4226 -2.7996 -0.0915
17706TIP3   OH274608   3.406   1.407   4.911  0.1182 -0.1096  0.4591
17706TIP3    H174609   3.499   1.431   4.914  0.7018 -2.1749  0.7415
17706TIP3    H274610   3.364   1.478   4.862  1.6805  1.3058  1.0725
17707TIP3   OH274611   1.089   1.807   2.956  0.2141  0.0108 -0.1235
17707TIP3    H174612   1.079   1.890   2.909 -2.1355 -0.5224 -0.7076
17707TIP3    H274613   1.148   1.755   2.901  0.7561  0.8647 -0.3620
17708TIP3   OH274614   1.021   3.641   1.225 -0.4562  0.2537 -0.2662
17708TIP3    H174615   0.933   3.623   1.258 -0.0429 -0.1973  0.6326
17708TIP3    H274616   1.051   3.557   1.191 -0.0415  0.1843  0.2527
17709TIP3   OH274617   4.321   6.647   4.613  0.5576  0.3677  0.6921
17709TIP3    H174618   4.279   6.593   4.546  0.8712  0.3681  0.4871
17709TIP3    H274619   4.383   6.588   4.656  0.5188  0.4258  0.8283
17710TIP3   OH274620   3.033   0.984   5.201 -0.3788 -0.0781 -0.0170
17710TIP3    H174621   2.975   1.039   5.149 -0.1686 -0.0190 -0.1940
17710TIP3    H274622   2.976   0.920   5.242 -1.1610  2.2351  2.8991
17711TIP3   OH274623   1.611   4.914  15.010  0.1851  0.0069 -0.0970
17711TIP3    H174624   1.579   4.924  15.099  0.0303 -1.6253  0.0694
17711TIP3    H274625   1.543   4.864  14.965  0.4310  0.4756 -1.0338
17712TIP3   OH274626   3.615   4.487   2.232 -0.3674  0.2784 -0.3848
17712TIP3    H174627   3.604   4.576   2.266 -1.8831 -0.3719  0.9982
17712TIP3    H274628   3.604   4.495   2.137 -2.8733  1.2873 -0.0708
17713TIP3   OH274629   4.446   6.820   6.388 -0.0121 -1.0410 -0.2180
17713TIP3    H174630   4.424   6.901   6.434 -1.4447 -1.9529  0.7731
17713TIP3    H274631   4.537   6.802   6.413  0.6649  0.7216 -1.2078
17714TIP3   OH274632   5.098   5.221  11.507  0.1572  0.0203  0.0338
17714TIP3    H174633   5.006   5.229  11.530  0.0294  1.6069 -0.8937
17714TIP3    H274634   5.134   5.309  11.522  1.4358 -0.4869  0.0504
17715TIP3   OH274635   0.849   4.335  11.688  0.0832 -0.7183 -0.2075
17715TIP3    H174636   0.839   4.334  11.593  2.0717 -1.0997 -0.4533
17715TIP3    H274637   0.810   4.252  11.717  1.3781 -1.6150 -0.9461
17716TIP3   OH274638   6.297   3.070  15.030  0.3323  0.1087 -0.1674
17716TIP3    H174639   6.307   2.986  15.074 -1.2632  0.8510  1.7360
17716TIP3    H274640   6.360   3.127  15.073  1.2777 -0.0074 -1.3289
17717TIP3   OH274641   1.138   1.291  10.918  0.3573  0.1106  0.3867
17717TIP3    H174642   1.067   1.278  10.855 -0.7129  0.5095  1.4788
17717TIP3    H274643   1.181   1.372  10.890 -1.1033  1.1576  1.0447
17718TIP3   OH274644   2.383   1.994  13.847 -0.0153 -0.4059 -0.1279
17718TIP3    H174645   2.310   2.002  13.908 -1.3627 -0.1441 -1.6929
17718TIP3    H274646   2.410   1.903  13.854 -2.3944 -1.3227 -1.4863
17719TIP3   OH274647   5.121   4.758  11.929  0.0344  0.0158  0.0149
17719TIP3    H174648   5.037   4.781  11.890  0.5151  1.5901 -0.1555
17719TIP3    H274649   5.106   4.763  12.023  0.0878  0.9286 -0.0176
17720TIP3   OH274650   5.290   3.470  16.528  0.9068  1.0473 -0.0632
17720TIP3    H174651   5.229   3.452  16.456  1.9216 -0.9089 -0.5114
17720TIP3    H274652   5.370   3.501  16.485  1.4333  0.0993  0.1844
17721TIP3   OH274653   4.550   3.875  11.867  0.1451 -0.0047 -0.8781
17721TIP3    H174654   4.567   3.921  11.784  1.0263  0.3375 -0.5292
17721TIP3    H274655   4.629   3.892  11.919 -0.7368  0.4807  0.3487
17722TIP3   OH274656   0.077   3.972   0.815  0.1391 -0.3381  0.0940
17722TIP3    H174657   0.109   4.062   0.807 -2.1976  0.6720  1.0207
17722TIP3    H274658   0.142   3.928   0.869  0.8698  1.0723  0.4185
17723TIP3   OH274659   2.588   6.408   5.021  0.1051  0.2514 -0.1458
17723TIP3    H174660   2.500   6.439   5.044 -0.1925  1.3078 -2.4132
17723TIP3    H274661   2.572   6.335   4.961  0.7629  0.5178 -0.6553
17724TIP3   OH274662   4.139   1.297   5.328  0.2959 -0.2782  0.1328
17724TIP3    H174663   4.177   1.350   5.398 -1.2734 -0.3274  1.0679
17724TIP3    H274664   4.076   1.240   5.373 -1.7299  0.6088 -1.4343
17725TIP3   OH274665   6.333   6.335  16.578  0.3538 -0.5165 -0.2005
17725TIP3    H174666   6.265   6.269  16.589  0.1684 -0.2358  0.3817
17725TIP3    H274667   6.323   6.366  16.487 -0.7853  0.0558  0.1009
17726TIP3   OH274668   5.506   4.660  15.734 -0.2255 -0.2855  0.5659
17726TIP3    H174669   5.502   4.564  15.734  1.0814 -0.3537 -0.3096
17726TIP3    H274670   5.539   4.683  15.648 -0.9246  0.9884  0.6217
17727TIP3   OH274671   2.961   1.679  14.332  0.4823  0.0760  0.1377
17727TIP3    H174672   3.055   1.665  14.342  0.7497 -0.2361 -2.2054
17727TIP3    H274673   2.949   1.695  14.238 -1.9401 -0.9905  0.1855
17728TIP3   OH274674   4.928   4.046   2.692  0.4209  0.2583 -0.0290
17728TIP3    H174675   4.968   4.115   2.745  0.5622  0.0966  0.0777
17728TIP3    H274676   5.003   3.998   2.655  0.3376  0.8313 -0.9906
17729TIP3   OH274677   5.059   6.427  13.853  0.5981  1.1912 -0.5662
17729TIP3    H174678   4.970   6.421  13.885  0.5505  1.2542 -0.6857
17729TIP3    H274679   5.088   6.336  13.845  0.4333  1.1599 -0.8346
17730TIP3   OH274680   6.200   0.819   5.468  0.3240 -0.1973  0.0650
17730TIP3    H174681   6.171   0.759   5.399  0.7559  0.3101 -0.5784
17730TIP3    H274682   6.294   0.803   5.475  0.0189 -1.5220  1.8197
17731TIP3   OH274683   3.335   4.376   1.974  0.2785  0.1789  0.3589
17731TIP3    H174684   3.311   4.291   2.010  1.2756 -0.2943 -0.0734
17731TIP3    H274685   3.283   4.439   2.025  0.4528 -0.5904  1.5150
17732TIP3   OH274686   2.382   4.650  11.086  0.2484  0.0276 -0.3677
17732TIP3    H174687   2.385   4.655  10.990 -1.5171 -1.1980 -0.5240
17732TIP3    H274688   2.455   4.592  11.109 -0.7616 -1.6605 -1.2061
17733TIP3   OH274689   0.993   2.212  11.674  0.0478  0.7981 -0.5554
17733TIP3    H174690   0.920   2.164  11.712 -0.3808  0.6302 -1.5595
17733TIP3    H274691   1.068   2.153  11.683 -0.3185  0.2354 -1.1113
17734TIP3   OH274692   0.235   0.784   4.682 -0.1376 -0.5252  0.3732
17734TIP3    H174693   0.195   0.735   4.611 -0.0797 -2.0868  1.3800
17734TIP3    H274694   0.304   0.727   4.715  0.7573  0.7579  0.7836
17735TIP3   OH274695   3.705   1.947  14.980 -0.8015 -0.1666 -0.2984
17735TIP3    H174696   3.693   1.852  14.980 -1.8205 -0.1262  2.4431
17735TIP3    H274697   3.674   1.975  15.066  2.8405  2.2635  0.4120
17736TIP3   OH274698   2.376   3.307   2.032  0.5634 -0.3123  0.0405
17736TIP3    H174699   2.289   3.344   2.048  1.5904  2.8599 -0.9692
17736TIP3    H274700   2.371   3.271   1.943  0.3450  0.0539 -0.0960
17737TIP3   OH274701   2.658   3.870  13.812  0.4376  0.1908  0.1184
17737TIP3    H174702   2.735   3.911  13.772  1.8190 -1.3866  1.0326
17737TIP3    H274703   2.610   3.832  13.739  0.5136  1.1822 -0.4629
17738TIP3   OH274704   4.339   6.001   5.437  0.5254 -0.0577  0.3150
17738TIP3    H174705   4.414   6.060   5.426  0.6065 -0.1416  0.4061
17738TIP3    H274706   4.264   6.059   5.451  0.6832  0.0194  0.8779
17739TIP3   OH274707   1.067   6.840  12.587 -0.5115  0.4279  0.4827
17739TIP3    H174708   1.017   6.918  12.608 -1.9191  0.7344 -3.2086
17739TIP3    H274709   1.151   6.873  12.555 -1.1577  0.5466 -1.2104
17740TIP3   OH274710   0.021   0.297   1.008 -0.3106  0.7572  0.3964
17740TIP3    H174711  -0.062   0.344   0.996 -0.5362  0.4232  0.6069
17740TIP3    H274712   0.011   0.252   1.092  0.8830  2.3439  1.4392
17741TIP3   OH274713   6.415   0.507  16.031 -0.1950  0.3817  0.2840
17741TIP3    H174714   6.433   0.434  15.972 -0.0470  0.3454  0.3733
17741TIP3    H274715   6.407   0.583  15.973  1.9115  0.7099  0.3491
17742TIP3   OH274716   1.349   2.360  13.269 -0.4195 -0.2647  0.2581
17742TIP3    H174717   1.408   2.433  13.248 -0.1381 -0.5361  0.0872
17742TIP3    H274718   1.404   2.298  13.317 -0.4836 -0.6618 -0.1780
17743TIP3   OH274719   6.774   6.502  16.908  0.4108  0.5392  0.6688
17743TIP3    H174720   6.771   6.538  16.819 -0.8362 -1.8648 -0.3607
17743TIP3    H274721   6.686   6.519  16.943  0.0375 -0.7696  0.4248
17744TIP3   OH274722   3.200   5.265   5.891 -0.3603 -0.2014  0.1998
17744TIP3    H174723   3.183   5.269   5.985 -0.6599 -0.2798  0.1515
17744TIP3    H274724   3.295   5.263   5.884 -0.2883  1.2138  0.4404
17745TIP3   OH274725   2.046   4.028   2.359  0.3110  0.3674 -0.2901
17745TIP3    H174726   1.967   4.004   2.407  0.2792  1.1999  0.0856
17745TIP3    H274727   2.057   4.122   2.375  0.9549  0.4158 -0.9540
17746TIP3   OH274728   4.022   5.811   5.825 -0.5935  0.2387 -0.0169
17746TIP3    H174729   4.035   5.814   5.730  1.0773 -0.9626  0.1533
17746TIP3    H274730   4.014   5.903   5.850  0.1172  0.6345 -1.1660
17747TIP3   OH274731   0.069   6.264   1.396  0.4344  0.7485 -0.5893
17747TIP3    H174732   0.033   6.190   1.346  0.8029  0.2457 -0.1215
17747TIP3    H274733  -0.007   6.305   1.437 -0.0671  1.9836 -2.5820
17748TIP3   OH274734   3.840   3.460   3.252 -0.2880 -0.1157  0.4217
17748TIP3    H174735   3.763   3.494   3.207  0.1731 -0.2309 -0.4781
17748TIP3    H274736   3.817   3.369   3.271  0.6889 -1.0670 -2.4889
17749TIP3   OH274737   6.751   4.976   3.678  0.5544  0.2023  0.3298
17749TIP3    H174738   6.657   4.991   3.683  0.7743  1.6219  0.5400
17749TIP3    H274739   6.786   5.057   3.642  1.5673 -0.8262 -1.1098
17750TIP3   OH274740   5.023   5.973   2.084  0.2289 -0.2361  0.1085
17750TIP3    H174741   5.004   5.981   2.177  0.2225  0.8203  0.0255
17750TIP3    H274742   5.093   5.908   2.079 -0.6325 -1.2545  0.7325
17751TIP3   OH274743   2.462   2.530  15.748  0.2586 -0.6524  0.0918
17751TIP3    H174744   2.538   2.546  15.803 -0.9444  0.3257  1.5635
17751TIP3    H274745   2.393   2.502  15.810 -1.0487  0.1337 -0.9505
17752TIP3   OH274746   5.040   6.333  16.558  0.4399  0.1963  0.2046
17752TIP3    H174747   5.130   6.332  16.528  0.2989 -1.8278 -0.2519
17752TIP3    H274748   5.045   6.365  16.649  1.9863 -2.5565  1.1967
17753TIP3   OH274749   6.678   5.037   4.788  0.2730 -0.0712 -0.0096
17753TIP3    H174750   6.731   5.112   4.760  0.4123  0.6910  2.1112
17753TIP3    H274751   6.742   4.967   4.800  0.5286  0.2516  0.5639
17754TIP3   OH274752   5.549   0.943  14.535 -0.3371  0.5393 -0.2218
17754TIP3    H174753   5.559   0.863  14.484 -0.2764  1.3648 -1.5561
17754TIP3    H274754   5.513   0.914  14.619 -0.3416 -0.8687 -0.6843
17755TIP3   OH274755   0.717   2.892   1.320  0.1495  0.5038 -0.3739
17755TIP3    H174756   0.692   2.814   1.270 -0.4084  0.2066  0.3501
17755TIP3    H274757   0.809   2.907   1.297 -0.2639  0.7538 -1.9782
17756TIP3   OH274758   6.228   6.631   2.559 -0.1521 -0.2819  0.2351
17756TIP3    H174759   6.256   6.552   2.512  1.1426  0.3474 -0.1109
17756TIP3    H274760   6.133   6.634   2.547 -0.2143 -1.7698  0.2386
17757TIP3   OH274761   1.387   5.579  13.093  0.1507 -0.0750 -0.2773
17757TIP3    H174762   1.293   5.593  13.102 -0.0804 -1.2439 -0.5862
17757TIP3    H274763   1.425   5.666  13.081 -1.1451  0.2705 -2.3457
17758TIP3   OH274764   3.875   6.294  16.091 -0.9878  0.3356 -0.6405
17758TIP3    H174765   3.895   6.248  16.173 -2.0211 -0.8831 -1.0334
17758TIP3    H274766   3.961   6.320  16.057 -0.5446  0.8634  0.8155
17759TIP3   OH274767   3.959   0.035   3.983  0.5715  0.3100 -0.1067
17759TIP3    H174768   3.923   0.021   4.071 -1.1848  0.4564 -0.7694
17759TIP3    H274769   4.050   0.005   3.990 -0.2209 -2.0625  1.1101
17760TIP3   OH274770   1.381   2.201   1.827  0.0283 -0.0459 -0.0034
17760TIP3    H174771   1.441   2.162   1.762 -0.5495 -1.7335  0.4230
17760TIP3    H274772   1.294   2.173   1.798 -0.6727  2.7751 -0.8859
17761TIP3   OH274773   0.000   0.371   3.954  0.0622  0.1274 -0.2671
17761TIP3    H174774   0.090   0.398   3.973  0.0096  0.7457 -0.8555
17761TIP3    H274775  -0.049   0.391   4.034  0.5378 -0.6846  0.2413
17762TIP3   OH274776   5.212   4.726  14.891 -0.4242  0.3107 -0.1151
17762TIP3    H174777   5.256   4.809  14.910  0.1723  0.2251 -1.0812
17762TIP3    H274778   5.278   4.659  14.908 -1.1558 -0.0568  1.4867
17763TIP3   OH274779   4.129   5.271  15.021 -0.0305 -0.3703 -0.5432
17763TIP3    H174780   4.182   5.199  15.053  0.7009 -0.1372 -1.1948
17763TIP3    H274781   4.189   5.324  14.968 -0.7163  0.3425 -0.6366
17764TIP3   OH274782   2.784   3.741   3.755  0.0299  0.2671 -0.2793
17764TIP3    H174783   2.879   3.742   3.766  0.3285  3.4186 -1.8119
17764TIP3    H274784   2.771   3.721   3.662 -0.6590  1.4671 -0.4639
17765TIP3   OH274785   5.672   4.333   5.317  0.4429 -0.0640  0.6603
17765TIP3    H174786   5.655   4.425   5.336  1.8440  0.0804  1.3650
17765TIP3    H274787   5.589   4.289   5.335 -0.6862  1.2164 -1.0794
17766TIP3   OH274788   0.495   1.326  11.542  0.0237 -0.2433 -0.3016
17766TIP3    H174789   0.564   1.318  11.608 -1.5907 -0.8236  1.4192
17766TIP3    H274790   0.417   1.289  11.584 -1.3950  0.5381 -2.0856
17767TIP3   OH274791   5.014   2.075   2.699 -0.7067 -0.8112  0.0205
17767TIP3    H174792   4.945   2.023   2.741 -0.3521 -1.9025 -0.6960
17767TIP3    H274793   5.087   2.014   2.690  0.5849  0.4756  1.2858
17768TIP3   OH274794   3.930   4.975   5.795  0.3333  0.2665  0.2047
17768TIP3    H174795   3.943   4.886   5.765  1.9042  0.7301 -0.5535
17768TIP3    H274796   3.845   5.000   5.758 -0.1666 -0.9151  0.4962
17769TIP3   OH274797   2.388   4.052  12.240 -0.6948 -0.3215  0.5775
17769TIP3    H174798   2.322   4.119  12.225 -0.3773 -0.2015 -0.3454
17769TIP3    H274799   2.365   3.981  12.181  0.2251 -0.1024 -0.0824
17770TIP3   OH274800   6.742   4.163  10.460  0.0455  0.0047  0.1474
17770TIP3    H174801   6.690   4.170  10.540  2.3022 -0.5996  1.7738
17770TIP3    H274802   6.802   4.237  10.463  1.5258 -1.1252  0.1240
17771TIP3   OH274803   2.317   6.611   4.791 -0.4376  0.1239  0.4659
17771TIP3    H174804   2.376   6.629   4.718 -0.6265 -1.2929 -0.0734
17771TIP3    H274805   2.358   6.653   4.866  1.1406 -0.5953  0.0575
17772TIP3   OH274806   5.127   2.306  13.406 -0.6581 -0.0520 -0.5916
17772TIP3    H174807   5.216   2.335  13.386 -0.9725 -0.3916 -2.7671
17772TIP3    H274808   5.101   2.254  13.329 -2.5587 -0.3514  0.2016
17773TIP3   OH274809   1.970   5.627   2.076  0.1001  0.0448  0.6614
17773TIP3    H174810   2.030   5.690   2.115  0.3440  0.5326 -0.4694
17773TIP3    H274811   1.990   5.629   1.983 -0.0014 -1.5887  0.5736
17774TIP3   OH274812   1.794   3.880   2.391  0.2043  0.3666  0.5131
17774TIP3    H174813   1.809   3.810   2.455  0.3958 -0.5753 -0.5518
17774TIP3    H274814   1.720   3.851   2.339  0.5406  0.7709 -0.2000
17775TIP3   OH274815   4.070   1.201   0.191 -0.3199 -0.8376 -0.2998
17775TIP3    H174816   4.005   1.137   0.164  0.7770 -1.9278 -0.4447
17775TIP3    H274817   4.112   1.228   0.109  0.5417 -1.4192 -0.0659
17776TIP3   OH274818   1.035   1.800  14.950  0.0480  0.4894  0.2213
17776TIP3    H174819   1.042   1.895  14.963 -2.2821  0.5763  1.4038
17776TIP3    H274820   0.977   1.791  14.874 -0.7725  0.0517  0.8791
17777TIP3   OH274821   5.690   5.270   5.435 -0.4537  0.1662 -0.1233
17777TIP3    H174822   5.759   5.254   5.371 -0.1454 -1.2507  0.5355
17777TIP3    H274823   5.734   5.266   5.520 -1.0846  0.7282  0.2369
17778TIP3   OH274824   5.790   1.506  11.774 -0.0635 -0.6085 -0.2843
17778TIP3    H174825   5.841   1.583  11.749 -0.0929 -0.1831  0.9036
17778TIP3    H274826   5.809   1.441  11.706  0.9014  0.0401 -0.6505
17779TIP3   OH274827   5.860   5.299   0.309 -0.3281 -0.3812  0.2664
17779TIP3    H174828   5.815   5.348   0.240  0.3732  1.1504  0.8446
17779TIP3    H274829   5.914   5.235   0.262  0.5235  0.9616 -0.6489
17780TIP3   OH274830   5.299   2.819  11.049  0.2360  0.0531 -0.0443
17780TIP3    H174831   5.311   2.881  10.977 -1.0855 -2.2402 -2.4158
17780TIP3    H274832   5.372   2.758  11.042  0.3173  0.0215  0.8583
17781TIP3   OH274833   5.058   4.013  12.510 -0.2080 -0.3021 -0.0204
17781TIP3    H174834   5.124   4.070  12.471 -1.3049 -0.4657 -2.3086
17781TIP3    H274835   5.097   3.983  12.592  2.6600 -0.6350 -1.3838
17782TIP3   OH274836   5.188   4.280   3.904  0.3757  0.9631 -0.2949
17782TIP3    H174837   5.174   4.188   3.926  0.1401  1.3472  1.3057
17782TIP3    H274838   5.135   4.295   3.826  0.7419 -0.3432 -0.8202
17783TIP3   OH274839   5.620   5.952   5.323 -0.0156 -0.0749  0.1187
17783TIP3    H174840   5.564   5.878   5.345 -0.5967 -0.1219 -1.4464
17783TIP3    H274841   5.560   6.021   5.294  0.3892  1.5178  2.6863
17784TIP3   OH274842   6.622   1.524   0.449  0.1428  0.0887 -0.5107
17784TIP3    H174843   6.619   1.520   0.544  3.4922  1.5699 -0.2016
17784TIP3    H274844   6.548   1.580   0.425 -1.2216 -0.9419  1.1074
17785TIP3   OH274845   3.049   6.556  11.301  0.4644 -0.3314 -0.3591
17785TIP3    H174846   3.004   6.486  11.255  0.1887 -1.4845  1.5750
17785TIP3    H274847   2.983   6.625  11.310 -0.7890 -1.6989  1.7686
17786TIP3   OH274848   1.522   4.918   0.900  0.1012 -0.1608  0.1746
17786TIP3    H174849   1.462   4.863   0.950  0.0122  0.3685  0.6605
17786TIP3    H274850   1.505   4.896   0.808  0.9894 -1.8979  0.3970
17787TIP3   OH274851   1.262   1.375   2.079  0.0232 -0.3843 -0.3269
17787TIP3    H174852   1.264   1.466   2.050  0.4366 -0.4047 -0.3728
17787TIP3    H274853   1.330   1.370   2.146 -1.6609 -0.0656  1.4826
17788TIP3   OH274854   4.923   0.952   0.665 -0.9158 -0.3156  0.0709
17788TIP3    H174855   5.008   0.972   0.628 -1.6441  2.3258 -0.3699
17788TIP3    H274856   4.866   0.939   0.590 -1.1666 -0.9966  0.3627
17789TIP3   OH274857   6.202   3.028   2.339  0.3245  0.3524 -0.5722
17789TIP3    H174858   6.270   3.002   2.276  0.5517  1.0372 -0.6122
17789TIP3    H274859   6.176   3.116   2.312  0.8579  0.9038  0.6557
17790TIP3   OH274860   3.491   0.220   3.771 -0.0735 -0.2413  0.3749
17790TIP3    H174861   3.433   0.175   3.710 -0.5975 -1.5842  1.7939
17790TIP3    H274862   3.453   0.202   3.857  1.6770  0.0252  1.2379
17791TIP3   OH274863   6.798   4.737   2.487  0.0277  0.2424 -0.6915
17791TIP3    H174864   6.879   4.788   2.492  0.5521 -0.6872  1.9675
17791TIP3    H274865   6.747   4.765   2.562  0.1212 -2.6499  0.5919
17792TIP3   OH274866   5.178   2.654  12.275 -0.0376  0.2315  0.2296
17792TIP3    H174867   5.245   2.703  12.323  0.1084  0.1865  0.0701
17792TIP3    H274868   5.205   2.659  12.184 -1.0367  1.5007 -0.0418
17793TIP3   OH274869   4.504   6.567   3.249 -0.4338 -0.3964  0.3683
17793TIP3    H174870   4.566   6.640   3.242 -1.2210  0.3104  0.5562
17793TIP3    H274871   4.517   6.517   3.169 -1.2326  1.0542 -0.7279
17794TIP3   OH274872   3.629   1.548  15.234  0.1571 -0.1079  0.5755
17794TIP3    H174873   3.620   1.634  15.275  1.3971 -0.1690  1.0316
17794TIP3    H274874   3.661   1.491  15.304  2.1248 -0.2618 -0.3587
17795TIP3   OH274875   1.121   6.622   2.253  0.7879  0.5534 -0.6437
17795TIP3    H174876   1.079   6.618   2.339 -1.0403  0.8336 -1.4650
17795TIP3    H274877   1.208   6.656   2.270  0.5481  0.3657  1.1217
17796TIP3   OH274878   0.680   2.411   2.559  0.4063  0.4960  0.1654
17796TIP3    H174879   0.632   2.461   2.625  0.4431  1.6353 -0.6444
17796TIP3    H274880   0.772   2.430   2.577  0.4737 -0.1182  0.4936
17797TIP3   OH274881   3.633   6.701  15.076  0.0945 -0.2034  0.5709
17797TIP3    H174882   3.650   6.788  15.041  0.2006 -0.6143 -0.4142
17797TIP3    H274883   3.693   6.694  15.151  0.3020  0.4479  0.4741
17798TIP3   OH274884   5.116   0.420  11.865  0.0372 -0.2077 -0.1002
17798TIP3    H174885   5.168   0.412  11.785 -0.3423  0.5176 -0.4304
17798TIP3    H274886   5.099   0.330  11.891  2.2252 -0.4896  0.5381
17799TIP3   OH274887   2.335   1.432  16.018  0.1792 -0.2374 -0.3812
17799TIP3    H174888   2.381   1.414  16.100 -0.4552  1.6609  0.4278
17799TIP3    H274889   2.381   1.507  15.980 -0.4016 -0.2206 -1.0754
17800TIP3   OH274890   5.412   3.189  14.259  0.0209 -0.2208 -0.4111
17800TIP3    H174891   5.341   3.201  14.197  0.1030  0.5617 -0.3602
17800TIP3    H274892   5.473   3.260  14.240  0.0254  0.0615  0.5899
17801TIP3   OH274893   4.558   0.014  15.388 -0.6844 -0.0421  0.2090
17801TIP3    H174894   4.626   0.003  15.454  0.5770 -0.4927 -1.0952
17801TIP3    H274895   4.569   0.104  15.356 -2.1299  0.6190  1.4576
17802TIP3   OH274896   3.804   4.225   5.472  0.1293 -0.0329  0.2723
17802TIP3    H174897   3.878   4.229   5.412 -0.3765  0.2319 -0.3388
17802TIP3    H274898   3.829   4.281   5.545  0.8008 -0.4558  0.3794
17803TIP3   OH274899   3.017   3.035   0.075 -0.1041 -0.4168 -0.2594
17803TIP3    H174900   2.934   3.082   0.088 -0.2285 -0.8407  0.4864
17803TIP3    H274901   3.062   3.086   0.007  0.4937  1.7934  1.6622
17804TIP3   OH274902   3.698   4.221  16.450 -0.0086  0.6478 -0.0944
17804TIP3    H174903   3.742   4.274  16.384 -1.3091  0.7059 -0.9670
17804TIP3    H274904   3.700   4.132  16.415 -1.2618  0.7795 -0.5525
17805TIP3   OH274905   6.668   4.813  11.826  0.2278  0.0380  0.3855
17805TIP3    H174906   6.573   4.823  11.821  0.2465 -0.3884 -1.4452
17805TIP3    H274907   6.702   4.902  11.810  0.1391 -0.0255 -0.1919
17806TIP3   OH274908   1.914   1.171  14.896 -0.1825 -0.1537 -0.1853
17806TIP3    H174909   1.833   1.141  14.855  0.1147  0.1771 -1.0295
17806TIP3    H274910   1.968   1.202  14.823  0.0648  1.1399  0.5300
17807TIP3   OH274911   1.359   4.713  12.895  0.5480 -0.4842  0.0890
17807TIP3    H174912   1.297   4.707  12.822 -0.0232 -1.0380  0.6105
17807TIP3    H274913   1.443   4.735  12.854 -0.3196  2.0553 -0.4683
17808TIP3   OH274914   3.954   0.242   2.196 -0.1881  0.5147 -0.0003
17808TIP3    H174915   3.959   0.335   2.219  0.1790  0.9777 -1.7810
17808TIP3    H274916   4.042   0.220   2.166 -0.2209 -0.4768  0.6090
17809TIP3   OH274917   1.086   0.473  16.301  0.5280  0.4773  0.1860
17809TIP3    H174918   1.001   0.451  16.263  0.4899  3.1180 -1.4829
17809TIP3    H274919   1.149   0.427  16.245  0.2890 -0.5284  0.7095
17810TIP3   OH274920   6.626   3.426   5.310  0.2118  0.5129 -0.0431
17810TIP3    H174921   6.531   3.419   5.315  0.0732  2.7753  1.8499
17810TIP3    H274922   6.650   3.370   5.235 -2.6255  0.3955 -0.9788
17811TIP3   OH274923   2.094   1.566   2.945  0.0387  0.0005  0.4102
17811TIP3    H174924   2.005   1.571   2.980 -0.6852  0.7791 -1.3745
17811TIP3    H274925   2.105   1.474   2.921 -0.3808 -0.0646  0.4557
17812TIP3   OH274926   1.673   2.499  14.256 -0.0533  0.5992 -0.6309
17812TIP3    H174927   1.605   2.470  14.195 -0.4962 -0.0719  0.1681
17812TIP3    H274928   1.685   2.425  14.316  0.8511  0.9934 -0.3040
17813TIP3   OH274929   0.147   6.562   0.815 -0.3263  0.4687 -0.1255
17813TIP3    H174930   0.179   6.504   0.746  0.3900  0.1833  0.4339
17813TIP3    H274931   0.201   6.541   0.892 -0.9986  0.8931  0.4798
17814TIP3   OH274932   3.298   3.625   6.419  0.4139  0.0636  0.2946
17814TIP3    H174933   3.376   3.646   6.470  0.9639 -0.0984 -0.4759
17814TIP3    H274934   3.309   3.533   6.395 -1.1614 -0.6884  2.1923
17815TIP3   OH274935   6.606   3.473   6.160 -0.4838  0.4409 -0.5570
17815TIP3    H174936   6.616   3.493   6.253 -1.6153  0.2420 -0.3824
17815TIP3    H274937   6.512   3.482   6.143 -0.3451  0.0825 -1.5857
17816TIP3   OH274938   3.371   0.122   5.070 -0.1685  0.4694 -0.4375
17816TIP3    H174939   3.386   0.168   4.988 -0.1586  1.6007  0.1676
17816TIP3    H274940   3.299   0.062   5.052  0.0429  0.4831 -1.3464
17817TIP3   OH274941   5.731   4.202   0.458  0.4328  1.0905  0.6144
17817TIP3    H174942   5.678   4.281   0.473  1.2926  1.5479  1.3418
17817TIP3    H274943   5.819   4.235   0.440  0.8790  0.2931  1.2584
17818TIP3   OH274944   0.252   1.863  10.758 -0.2824 -0.0687 -0.3060
17818TIP3    H174945   0.292   1.788  10.714 -1.3877 -1.2022  0.5606
17818TIP3    H274946   0.198   1.905  10.691 -0.1742 -0.4337 -0.6232
17819TIP3   OH274947   0.094   2.921   5.449  0.6321 -0.1078 -0.3366
17819TIP3    H174948   0.083   2.842   5.501 -0.7952  1.4503  1.8764
17819TIP3    H274949   0.005   2.952   5.432  1.1468  1.6406 -0.1003
17820TIP3   OH274950   5.045   1.821   3.997 -0.3940 -0.1571 -0.6910
17820TIP3    H174951   5.043   1.911   3.964 -0.1555  0.5579  1.1097
17820TIP3    H274952   4.980   1.820   4.067 -0.4696 -1.4310 -0.7618
17821TIP3   OH274953   0.496   0.272  11.901 -0.4056 -0.2325 -0.1154
17821TIP3    H174954   0.502   0.235  11.813  1.9580  2.9696 -1.4843
17821TIP3    H274955   0.408   0.311  11.904 -0.4262 -0.1616 -1.1401
17822TIP3   OH274956   6.754   4.182   2.813 -0.3331  0.2777 -0.1416
17822TIP3    H174957   6.714   4.266   2.791 -0.4569 -0.0834 -1.3886
17822TIP3    H274958   6.706   4.118   2.761 -0.1829 -0.5582  0.7260
17823TIP3   OH274959   2.093   5.759   6.066 -0.2723 -0.6078 -0.2339
17823TIP3    H174960   2.093   5.793   6.156  3.1372 -0.0785 -0.3016
17823TIP3    H274961   2.185   5.760   6.040 -1.0218 -1.7885 -3.3867
17824TIP3   OH274962   0.382   4.867   2.204  0.4772 -0.4081  0.6824
17824TIP3    H174963   0.290   4.886   2.183  0.6358  0.6083  0.8490
17824TIP3    H274964   0.387   4.772   2.203 -0.9759 -0.5611  2.2872
17825TIP3   OH274965   3.082   0.020   0.377 -0.6108  0.8432 -1.1887
17825TIP3    H174966   3.066   0.093   0.437 -0.5478  1.3030 -1.7192
17825TIP3    H274967   3.049  -0.057   0.423 -0.6587  1.2024 -0.6102
17826TIP3   OH274968   5.965   5.970   0.959  0.0295  0.0404  0.0622
17826TIP3    H174969   5.943   5.883   0.925 -1.9142  0.6147 -0.2679
17826TIP3    H274970   6.022   6.007   0.892 -1.2818 -0.0012 -1.1183
17827TIP3   OH274971   2.533   2.277   5.994 -0.6849  0.5973  0.0122
17827TIP3    H174972   2.551   2.352   6.051  2.5530  0.2489 -0.4007
17827TIP3    H274973   2.500   2.209   6.053  1.3104  0.6954  1.3203
17828TIP3   OH274974   3.687   4.966   3.525 -0.3378  0.2409 -0.1070
17828TIP3    H174975   3.694   5.007   3.438 -1.1100 -0.9622 -0.7617
17828TIP3    H274976   3.670   4.874   3.507 -0.3367 -0.0673  1.3386
17829TIP3   OH274977   4.662   5.190  14.254  0.1618  0.3232 -0.1819
17829TIP3    H174978   4.607   5.254  14.209  1.5793  1.0254 -0.9758
17829TIP3    H274979   4.742   5.187  14.202  1.3678  0.2317  1.5988
17830TIP3   OH274980   3.554   3.665   0.317 -0.1868 -0.5066  0.4262
17830TIP3    H174981   3.567   3.634   0.406 -0.1386  0.6489  0.8355
17830TIP3    H274982   3.574   3.589   0.262  0.0097 -1.1616  1.3844
17831TIP3   OH274983   3.247   0.780  12.466  0.3662 -0.1794  0.4977
17831TIP3    H174984   3.227   0.724  12.541  1.3350 -0.0080  0.8858
17831TIP3    H274985   3.219   0.728  12.390  0.2391 -0.7304  0.9160
17832TIP3   OH274986   6.803   6.648   6.088  0.2411 -0.3678  0.1065
17832TIP3    H174987   6.798   6.740   6.064  0.7440  0.2569  2.2058
17832TIP3    H274988   6.771   6.644   6.178  0.2682 -2.2383  0.0858
17833TIP3   OH274989   2.937   6.585   5.643  0.3300 -0.1887  0.0225
17833TIP3    H174990   2.855   6.589   5.692 -0.2658 -0.3179 -0.9341
17833TIP3    H274991   3.004   6.611   5.706 -0.3594 -0.7057  0.9986
17834TIP3   OH274992   1.479   0.622  13.244  0.1605 -0.5679 -0.1739
17834TIP3    H174993   1.425   0.589  13.173 -0.9250 -0.5937  0.6404
17834TIP3    H274994   1.451   0.573  13.321  0.5328  0.2256  0.4947
17835TIP3   OH274995   4.592   4.532  11.430 -0.0871  0.4636  0.3949
17835TIP3    H174996   4.534   4.518  11.505  0.3170  0.9034  0.7969
17835TIP3    H274997   4.533   4.541  11.356 -0.4504 -1.9151  0.3017
17836TIP3   OH274998   5.690   2.237   1.961  0.0061 -0.0811 -0.9759
17836TIP3    H174999   5.671   2.277   2.046  0.2749 -0.1733 -0.8688
17836TIP3    H275000   5.605   2.217   1.924 -0.1190 -2.2008  0.2997
17837TIP3   OH275001   5.602   3.767  15.195  0.0910  0.1739 -0.2584
17837TIP3    H175002   5.695   3.750  15.184 -0.2558 -2.6345  0.2939
17837TIP3    H275003   5.583   3.738  15.285 -1.0064  2.4608  0.3147
17838TIP3   OH275004   6.375   3.623  11.328  0.2937 -0.1276  0.5728
17838TIP3    H175005   6.296   3.577  11.356  0.1692  0.4561  1.1897
17838TIP3    H275006   6.445   3.585  11.381  0.0229  1.1384  1.8955
17839TIP3   OH275007   3.751   1.416  14.298  0.4100 -0.0650  0.0854
17839TIP3    H175008   3.808   1.357  14.248  1.3378  0.5619  0.3712
17839TIP3    H275009   3.779   1.404  14.389 -0.4475 -0.3113  0.3220
17840TIP3   OH275010   3.443   2.403   5.965  0.4948  0.6633 -0.2059
17840TIP3    H175011   3.536   2.425   5.958  0.6832  0.3324  0.9682
17840TIP3    H275012   3.414   2.447   6.045  0.4261 -1.7186  1.1747
17841TIP3   OH275013   3.966   4.103   6.070  0.0681  0.6943  0.1506
17841TIP3    H175014   3.981   4.100   6.165  0.0159  0.3397  0.1492
17841TIP3    H275015   3.871   4.107   6.061  0.0893  1.1137  0.1214
17842TIP3   OH275016   0.240   4.170  13.686 -0.0361  0.0019 -0.5430
17842TIP3    H175017   0.320   4.222  13.694  1.9051 -2.8647  0.1859
17842TIP3    H275018   0.224   4.136  13.774 -1.6808 -0.0275 -0.8237
17843TIP3   OH275019   4.994   4.078   5.789 -0.3668 -0.0858 -0.0651
17843TIP3    H175020   5.046   4.010   5.746  1.5992  0.1019  1.8173
17843TIP3    H275021   5.057   4.149   5.806 -2.0947  1.7594 -0.9071
17844TIP3   OH275022   4.360   6.838  14.471 -0.2749 -0.3882  0.1510
17844TIP3    H175023   4.422   6.825  14.543  0.1518  0.1253 -0.1153
17844TIP3    H275024   4.276   6.809  14.506  0.2234 -1.7053  0.2975
17845TIP3   OH275025   4.740   3.836  15.786 -0.4648 -0.0407  0.1321
17845TIP3    H175026   4.818   3.781  15.794  0.7843  1.7005  0.5902
17845TIP3    H275027   4.713   3.827  15.694  1.5217  0.8488 -0.6032
17846TIP3   OH275028   3.916   4.207   3.111 -0.4525  0.5298  0.6198
17846TIP3    H175029   3.913   4.141   3.042 -0.5557 -0.2857  1.3867
17846TIP3    H275030   3.910   4.157   3.192 -0.7120  1.4971  1.2140
17847TIP3   OH275031   0.190   0.050   3.629 -0.3390 -0.1266  0.3589
17847TIP3    H175032   0.141  -0.010   3.574 -1.5540  0.3165  0.9276
17847TIP3    H275033   0.128   0.078   3.696 -0.1940  2.6460 -0.5420
17848TIP3   OH275034   5.029   1.772  14.223 -0.3658 -0.3675  0.0825
17848TIP3    H175035   5.106   1.823  14.200  0.2706 -1.6543 -0.7982
17848TIP3    H275036   5.064   1.692  14.262 -1.3579  0.6443  3.3854
17849TIP3   OH275037   3.594   4.168   1.212 -0.0166  0.6925 -0.0562
17849TIP3    H175038   3.505   4.149   1.185 -0.5786  2.4226  0.4464
17849TIP3    H275039   3.592   4.259   1.241  0.7595 -0.5027  4.6401
17850TIP3   OH275040   4.901   2.307  16.063  0.0512  0.3670  0.1544
17850TIP3    H175041   4.911   2.402  16.063 -1.2163  0.5175  0.6330
17850TIP3    H275042   4.938   2.279  15.980  0.6387  1.2489  0.0972
17851TIP3   OH275043   4.638   6.699  16.894  0.0326 -0.1034  0.0733
17851TIP3    H175044   4.685   6.616  16.905  0.2816  0.2089  1.5345
17851TIP3    H275045   4.603   6.695  16.805 -0.0267 -1.8023  0.1538
17852TIP3   OH275046   4.358   6.116  15.192  0.0095 -0.2951 -0.1893
17852TIP3    H175047   4.368   6.195  15.244  1.3515 -1.5295  1.5462
17852TIP3    H275048   4.299   6.141  15.121  1.5742  2.6349 -0.5813
17853TIP3   OH275049   5.805   1.228  15.963 -0.3598 -0.5357  0.5217
17853TIP3    H175050   5.727   1.273  15.996 -2.5080 -2.1868 -1.9146
17853TIP3    H275051   5.842   1.288  15.898 -2.2784 -1.4784 -1.5483
17854TIP3   OH275052   5.395   6.763  15.072 -0.2638 -0.2879 -0.5088
17854TIP3    H175053   5.329   6.810  15.123  1.3123  0.9765  0.4664
17854TIP3    H275054   5.390   6.801  14.985  0.1564  0.8901 -0.0442
17855TIP3   OH275055   0.251   3.403  12.271 -0.2485 -0.2661  0.2651
17855TIP3    H175056   0.185   3.468  12.294  0.3347  0.7873 -0.9170
17855TIP3    H275057   0.332   3.453  12.260  0.3548 -1.2765 -0.0499
17856TIP3   OH275058   1.634   6.654  15.105  0.1447  0.1738 -0.6015
17856TIP3    H175059   1.666   6.661  15.015 -0.3701  0.7257 -0.7441
17856TIP3    H275060   1.677   6.575  15.139 -1.2496 -1.2618 -1.9830
17857TIP3   OH275061   2.255   6.288   3.283  0.4291  0.0669  0.6334
17857TIP3    H175062   2.204   6.238   3.218  1.7364  1.1140 -1.3124
17857TIP3    H275063   2.272   6.225   3.353 -0.1868 -1.4517 -0.5148
17858TIP3   OH275064   4.977   4.935  11.419  0.0200 -0.1670 -0.4200
17858TIP3    H175065   4.956   4.845  11.393 -0.3954 -0.0829 -0.3959
17858TIP3    H275066   4.916   4.989  11.367 -2.2883 -0.0881  2.1280
17859TIP3   OH275067   0.087   3.132  11.687  0.4915 -0.4714  0.3769
17859TIP3    H175068   0.057   3.081  11.612 -0.3952 -1.4264  1.3343
17859TIP3    H275069   0.069   3.075  11.763  0.4113  0.8605  1.3953
17860TIP3   OH275070   5.867   2.284  10.829 -0.2129 -0.3842  0.0790
17860TIP3    H175071   5.837   2.248  10.746 -3.3291  0.9430  0.4606
17860TIP3    H275072   5.949   2.329  10.808 -1.3091  0.5870 -2.4834
17861TIP3   OH275073   3.676   2.277  15.288 -0.0654  0.8291  0.5756
17861TIP3    H175074   3.655   2.292  15.380  1.2138 -0.9961  1.2374
17861TIP3    H275075   3.763   2.236  15.291 -0.8285 -1.0788 -1.3001
17862TIP3   OH275076   0.677   6.136   2.878  0.0266 -0.1638  0.0787
17862TIP3    H175077   0.694   6.141   2.972 -0.5964  0.5530  0.1644
17862TIP3    H275078   0.715   6.216   2.842 -0.5716  0.0363 -0.1295
17863TIP3   OH275079   2.145   1.016   1.481  0.6664  0.3250  0.5302
17863TIP3    H175080   2.170   1.107   1.499 -1.2043  0.7715  1.0844
17863TIP3    H275081   2.147   0.974   1.567 -0.2305  0.3209  0.5563
17864TIP3   OH275082   2.488   4.984   5.206 -0.4070  0.4193 -0.0093
17864TIP3    H175083   2.441   5.011   5.285  0.8119  0.3939  0.7515
17864TIP3    H275084   2.436   4.912   5.170 -0.6219 -0.0210  1.1449
17865TIP3   OH275085   5.049   4.390  15.564  0.6396  0.8890  0.0064
17865TIP3    H175086   5.021   4.475  15.598  0.3205  1.0285 -0.5895
17865TIP3    H275087   5.005   4.326  15.620 -0.3053  1.1148 -0.4659
17866TIP3   OH275088   2.782   4.581  12.252 -0.4535  1.2028 -0.0914
17866TIP3    H175089   2.810   4.542  12.335  0.1265 -0.1636 -0.8984
17866TIP3    H275090   2.699   4.625  12.273 -2.8609 -3.0125  0.3582
17867TIP3   OH275091   0.669   6.767   3.493  0.7770  0.2157 -0.2987
17867TIP3    H175092   0.590   6.748   3.442 -0.1465 -0.3874  1.2784
17867TIP3    H275093   0.734   6.794   3.428 -1.1664  2.3220 -1.4976
17868TIP3   OH275094   6.021   1.366   4.948  0.7142 -0.4047  0.4098
17868TIP3    H175095   6.034   1.363   4.854  0.8477  0.6633  0.3823
17868TIP3    H275096   6.092   1.422   4.980  0.4998 -0.5248  1.1154
17869TIP3   OH275097   1.574   4.785  15.893  0.0290 -0.4997 -0.0786
17869TIP3    H175098   1.605   4.732  15.967 -1.2097  0.6917  1.3536
17869TIP3    H275099   1.633   4.860  15.891 -0.5899  0.0137  0.4224
17870TIP3   OH275100   4.694   3.597  11.406 -0.7424 -0.6777 -0.7741
17870TIP3    H175101   4.713   3.543  11.329 -1.6237 -2.3717  0.1194
17870TIP3    H275102   4.779   3.630  11.434 -0.1326 -1.7437 -1.2880
17871TIP3   OH275103   1.862   1.799  13.855 -0.1340  0.5059 -0.8649
17871TIP3    H175104   1.925   1.730  13.834  0.7373  0.3385  1.9164
17871TIP3    H275105   1.781   1.752  13.877  0.2992  0.3345  0.4835
17872TIP3   OH275106   4.824   5.121   3.755  0.5606  0.0920  0.3588
17872TIP3    H175107   4.779   5.052   3.705 -0.5446  0.2742  1.0461
17872TIP3    H275108   4.912   5.087   3.769  0.3175 -0.7730 -0.1084
17873TIP3   OH275109   0.296   3.876  15.676 -0.2689 -0.5966 -0.6202
17873TIP3    H175110   0.295   3.970  15.694 -0.5306 -1.0238  2.1105
17873TIP3    H275111   0.378   3.845  15.717 -2.1759 -2.0664  2.4922
17874TIP3   OH275112   3.461   6.758   2.312 -0.0885 -0.8290 -0.3010
17874TIP3    H175113   3.493   6.828   2.370 -2.2343  1.3987 -1.5870
17874TIP3    H275114   3.409   6.702   2.369  0.4699 -0.5485  0.5107
17875TIP3   OH275115   0.828   0.987  16.428  0.4856 -0.1243  0.0330
17875TIP3    H175116   0.864   0.907  16.389  0.5062 -0.2280  0.2645
17875TIP3    H275117   0.859   0.985  16.518  0.6156  0.2247 -0.0033
17876TIP3   OH275118   4.434   3.404  16.240 -0.5748 -0.0277 -0.3575
17876TIP3    H175119   4.390   3.467  16.297  1.9091 -0.6881  2.5496
17876TIP3    H275120   4.388   3.321  16.254  0.8808 -0.5234  2.0080
17877TIP3   OH275121   2.458   0.027  13.178  0.9129  0.4787 -0.1390
17877TIP3    H175122   2.371   0.028  13.139  0.5606  2.0278  0.5765
17877TIP3    H275123   2.447  -0.019  13.261  1.2124 -0.9673 -0.8653
17878TIP3   OH275124   1.232   2.951  15.169  0.1451  0.0169  0.1229
17878TIP3    H175125   1.157   2.945  15.229  0.8117 -0.6151  0.9050
17878TIP3    H275126   1.192   2.972  15.084 -0.8566  0.4039  0.6648
17879TIP3   OH275127   0.636   3.097  15.982  0.0624 -0.7346  0.7518
17879TIP3    H175128   0.579   3.021  15.971 -2.2008  0.6016  2.4372
17879TIP3    H275129   0.577   3.172  15.978  2.1869  0.9868 -0.5676
17880TIP3   OH275130   2.602   1.217   4.758 -0.0929 -0.5999 -0.0629
17880TIP3    H175131   2.638   1.137   4.720  1.1502  0.0263 -0.2292
17880TIP3    H275132   2.629   1.287   4.699 -0.9151 -0.0030  0.2404
17881TIP3   OH275133   4.677   6.207  12.497  0.3210  0.4821 -0.0251
17881TIP3    H175134   4.684   6.290  12.450 -1.1639  0.9219  0.4720
17881TIP3    H275135   4.656   6.232  12.587  3.2610 -0.3310  1.0156
17882TIP3   OH275136   3.943   6.285  12.987 -0.4930  0.2017  0.5143
17882TIP3    H175137   4.011   6.283  12.919 -0.9867 -0.9371  0.0294
17882TIP3    H275138   3.862   6.305  12.940 -0.4687  1.8795  1.1378
17883TIP3   OH275139   3.022   6.310  16.397  0.4358  0.3643 -0.2204
17883TIP3    H175140   3.079   6.295  16.473  0.6361  2.3929  0.0862
17883TIP3    H275141   3.068   6.376  16.346 -1.0140  1.0609 -0.6618
17884TIP3   OH275142   0.097   5.781   6.769  0.0613 -0.5606 -0.1146
17884TIP3    H175143   0.057   5.766   6.684  0.0619 -0.2658 -0.1670
17884TIP3    H275144   0.055   5.860   6.803  2.0888  1.0464 -1.1198
17885TIP3   OH275145   5.183   1.794   4.549 -0.0754 -0.0662  0.1635
17885TIP3    H175146   5.258   1.767   4.602  0.1910  0.5347  0.0995
17885TIP3    H275147   5.124   1.836   4.612 -0.1448 -0.1112  0.1291
17886TIP3   OH275148   4.844   3.650  14.884  0.3015 -0.1618 -0.1719
17886TIP3    H175149   4.925   3.639  14.934  0.3411  1.6093  0.2077
17886TIP3    H275150   4.872   3.694  14.803 -0.4159  1.7268  0.5574
17887TIP3   OH275151   5.134   2.325  11.630  0.0588 -0.0486 -0.4276
17887TIP3    H175152   5.104   2.374  11.707 -2.1620 -0.5417 -0.8900
17887TIP3    H275153   5.162   2.392  11.568  1.8646  0.3561  0.7479
17888TIP3   OH275154   0.834   3.708  15.580 -0.6430  0.0390 -0.8273
17888TIP3    H175155   0.924   3.686  15.604 -0.6673 -0.2761 -1.0086
17888TIP3    H275156   0.780   3.657  15.640 -0.7007 -0.3076 -1.1678
17889TIP3   OH275157   2.834   4.916   5.912  0.1284  0.0304 -0.0233
17889TIP3    H175158   2.786   4.988   5.870  1.1925  1.1289  0.5566
17889TIP3    H275159   2.767   4.850   5.932 -0.7319  0.4329 -1.4412
17890TIP3   OH275160   1.223   1.976  14.576  0.4671 -0.3087 -0.3302
17890TIP3    H175161   1.279   1.995  14.651 -0.2848 -0.4444  0.2712
17890TIP3    H275162   1.140   2.019  14.596  0.4297  0.1026 -1.3283
17891TIP3   OH275163   4.238   3.777  14.072 -0.1308  0.2806  0.8976
17891TIP3    H175164   4.151   3.814  14.062 -0.4787 -0.3503  1.4762
17891TIP3    H275165   4.290   3.847  14.111  0.0542  1.2045 -0.9176
17892TIP3   OH275166   1.232   0.601  15.264 -0.2810  0.3138  0.1574
17892TIP3    H175167   1.164   0.633  15.323  0.2522 -2.4527  2.4842
17892TIP3    H275168   1.295   0.674  15.258 -2.1532  1.9970 -0.0603
17893TIP3   OH275169   3.358   3.370  13.982  0.5626 -0.1892 -0.0702
17893TIP3    H175170   3.439   3.363  13.932 -0.1761 -0.0996 -1.3011
17893TIP3    H275171   3.350   3.463  14.003 -0.1895  0.1260 -1.6304
17894TIP3   OH275172   2.904   3.440  14.764 -0.1164  0.3344  0.6271
17894TIP3    H175173   2.851   3.374  14.808  0.3108 -0.4462 -0.0070
17894TIP3    H275174   2.960   3.391  14.704 -0.1299  1.3112 -0.2203
17895TIP3   OH275175   0.074   4.572   4.756  0.5069 -1.0613 -0.2451
17895TIP3    H175176   0.158   4.619   4.761  0.8988 -1.6679 -0.8652
17895TIP3    H275177   0.079   4.507   4.826 -0.9033  1.1124  1.9961
17896TIP3   OH275178   3.678   0.546   0.649 -0.4275  0.2015 -0.1389
17896TIP3    H175179   3.691   0.610   0.579  0.0413  0.3390  0.0718
17896TIP3    H275180   3.714   0.588   0.727 -1.2435  0.1821  0.2591
17897TIP3   OH275181   0.990   1.772   5.825  0.1865 -0.1297 -0.1691
17897TIP3    H175182   1.048   1.713   5.873 -0.0710 -0.5769 -0.3892
17897TIP3    H275183   0.955   1.832   5.891  0.6060 -0.0992  0.0259
17898TIP3   OH275184   1.399   3.558  13.716 -0.0234 -0.2365 -1.2605
17898TIP3    H175185   1.492   3.546  13.736 -0.4042  0.1381  0.8915
17898TIP3    H275186   1.397   3.570  13.621  2.2010  0.5312 -1.2656
17899TIP3   OH275187   0.612   3.614  15.007 -0.1629  1.0641 -0.4387
17899TIP3    H175188   0.683   3.619  15.071 -0.4823  1.6928 -0.1275
17899TIP3    H275189   0.643   3.665  14.932  0.2891  0.1748 -0.8788
17900TIP3   OH275190   1.405   2.226   3.422  0.2107 -0.3669 -0.0673
17900TIP3    H175191   1.440   2.260   3.504 -1.8230  0.2352  0.6015
17900TIP3    H275192   1.325   2.179   3.447  1.2010 -2.9611 -1.3515
17901TIP3   OH275193   4.534   4.144   6.057  0.2770  0.5572  0.5321
17901TIP3    H175194   4.576   4.203   6.120  0.8914  0.7464 -0.0468
17901TIP3    H275195   4.594   4.141   5.983 -0.7980  0.9624 -0.3807
17902TIP3   OH275196   5.673   5.016   6.292  0.1891  0.6526 -0.1451
17902TIP3    H175197   5.644   4.974   6.373 -0.1052 -0.5555 -0.8623
17902TIP3    H275198   5.710   4.945   6.239 -0.1481  1.3159 -1.3119
17903TIP3   OH275199   0.012   4.604   3.940  0.1845 -0.5585 -0.0770
17903TIP3    H175200   0.041   4.679   3.887 -0.8904  0.3974  0.6328
17903TIP3    H275201   0.073   4.534   3.918  2.4052  1.0559  0.6154
17904TIP3   OH275202   4.786   1.596   6.411 -0.1264 -0.0024  0.2820
17904TIP3    H175203   4.765   1.677   6.457 -1.0139  0.5336 -0.9987
17904TIP3    H275204   4.702   1.550   6.403 -0.0154 -0.0221 -0.8896
17905TIP3   OH275205   0.928   5.492   5.846 -0.4530  0.2134  0.6438
17905TIP3    H175206   0.883   5.524   5.924  0.9095 -0.4441  1.7393
17905TIP3    H275207   1.019   5.481   5.874  0.1883  0.5326 -1.2180
17906TIP3   OH275208   1.771   4.673  14.739  0.8447 -0.0329 -0.2155
17906TIP3    H175209   1.736   4.761  14.724  2.5149  1.0155  1.6302
17906TIP3    H275210   1.842   4.686  14.801  0.2753 -2.8587  1.1712
17907TIP3   OH275211   2.365   3.173   5.515  0.0654 -0.2999 -0.6232
17907TIP3    H175212   2.435   3.239   5.522 -1.8223  1.6732  1.5839
17907TIP3    H275213   2.410   3.093   5.489  2.7673  1.4008 -1.6237
17908TIP3   OH275214   2.986   0.617  14.696  0.4564 -0.3252 -0.3521
17908TIP3    H175215   3.062   0.628  14.752  0.4839 -2.4977  0.0979
17908TIP3    H275216   2.931   0.553  14.741 -1.6291  1.1004 -0.7082
17909TIP3   OH275217   6.621   6.677  14.970  0.0568 -0.0752 -0.0500
17909TIP3    H175218   6.610   6.587  14.939 -0.0325  0.2350 -0.9575
17909TIP3    H275219   6.650   6.726  14.893  1.0331  0.4930  0.6479
17910TIP3   OH275220   2.524   0.081  13.939  0.3447  0.0172  0.2001
17910TIP3    H175221   2.604   0.047  13.980  0.5905  0.9199  0.5073
17910TIP3    H275222   2.460   0.084  14.010  0.2182 -0.1491  0.0924
17911TIP3   OH275223   5.295   5.930   2.200 -0.1852 -0.4207 -0.4085
17911TIP3    H175224   5.331   5.847   2.230 -0.6291 -0.4023  0.2143
17911TIP3    H275225   5.345   5.952   2.122 -0.6048 -1.6843 -1.0724
17912TIP3   OH275226   1.396   0.257   1.174  0.6422  0.3319 -0.1738
17912TIP3    H175227   1.350   0.297   1.100  0.3900 -1.0411 -0.7952
17912TIP3    H275228   1.423   0.171   1.141  0.9183 -0.1200  1.1982
17913TIP3   OH275229   5.883   4.470  16.617  0.2626  0.0120  0.2660
17913TIP3    H175230   5.819   4.448  16.684  1.5312 -2.6510  0.7362
17913TIP3    H275231   5.960   4.500  16.666  0.9693 -1.3236  0.0197
17914TIP3   OH275232   0.116   4.936   1.843  0.0587 -0.4112 -0.0322
17914TIP3    H175233   0.209   4.915   1.829 -0.1743 -0.0240 -2.8272
17914TIP3    H275234   0.069   4.865   1.800 -0.8764  0.6000 -0.7401
17915TIP3   OH275235   2.047   4.889   0.431 -0.0899  0.2064  0.0642
17915TIP3    H175236   2.088   4.932   0.507  0.7436  2.3137 -1.4801
17915TIP3    H275237   2.095   4.807   0.422  2.0540  1.3919 -0.0679
17916TIP3   OH275238   2.036   3.222   0.924  0.7441  0.8144 -0.0895
17916TIP3    H175239   2.064   3.198   0.836  0.5813 -0.6961  0.2585
17916TIP3    H275240   2.110   3.273   0.959  0.8694  1.2999 -1.0282
17917TIP3   OH275241   0.242   2.688   5.149 -0.0358  0.0669  0.2224
17917TIP3    H175242   0.299   2.719   5.219 -0.6467 -1.9862  1.7381
17917TIP3    H275243   0.180   2.760   5.135  0.4014  0.7130  1.4478
17918TIP3   OH275244   5.532   2.054   3.547  0.1632  0.5064 -0.1743
17918TIP3    H175245   5.545   2.146   3.571  0.1835  0.1664  1.1680
17918TIP3    H275246   5.620   2.021   3.529  0.3301  0.3644  0.8400
17919TIP3   OH275247   6.019   3.286  12.435  0.5786  0.4300  0.5933
17919TIP3    H175248   5.975   3.310  12.517 -0.8386 -1.7421  0.5584
17919TIP3    H275249   5.959   3.316  12.366  1.8092  2.3398  0.2703
17920TIP3   OH275250   3.607   6.602   0.886  0.2209  0.5661  0.0048
17920TIP3    H175251   3.608   6.646   0.801  0.6729 -2.7600 -1.8898
17920TIP3    H275252   3.517   6.572   0.897  0.5075 -0.3705 -0.1069
17921TIP3   OH275253   0.597   4.766   1.950 -0.5608 -0.2201 -0.2832
17921TIP3    H175254   0.627   4.792   2.037 -0.8456  0.3136 -0.3440
17921TIP3    H275255   0.546   4.686   1.965 -0.0845 -0.4839 -0.0414
17922TIP3   OH275256   2.121   5.756   2.264 -0.1057  0.1191 -0.4954
17922TIP3    H175257   2.213   5.736   2.283  0.6326  2.3700 -1.2768
17922TIP3    H275258   2.109   5.845   2.299 -2.4462 -0.6414  0.8761
17923TIP3   OH275259   3.235   5.385  16.994 -0.5000  0.1118 -0.3705
17923TIP3    H175260   3.239   5.352  17.084  1.2470 -0.7504 -0.7141
17923TIP3    H275261   3.193   5.315  16.944  1.5972 -0.9344 -0.7805
17924TIP3   OH275262   4.651   5.878  16.584 -0.1716  0.3306  0.4571
17924TIP3    H175263   4.662   5.938  16.658  1.4068  0.7562 -0.0802
17924TIP3    H275264   4.736   5.833  16.578 -0.8129 -0.8532 -0.1081
17925TIP3   OH275265   6.194   0.551   1.065  0.1490  0.5913  0.1444
17925TIP3    H175266   6.151   0.483   1.013  0.0816  0.8515 -0.1391
17925TIP3    H275267   6.283   0.557   1.030  0.4742 -0.0517  0.8287
17926TIP3   OH275268   4.532   1.482   3.389 -0.2373  0.1309  0.8649
17926TIP3    H175269   4.574   1.559   3.428  0.1060  1.7012 -2.3317
17926TIP3    H275270   4.603   1.432   3.350 -0.7895 -0.0676  0.0965
17927TIP3   OH275271   3.430   4.942   0.956  0.6553 -0.8220 -0.5662
17927TIP3    H175272   3.505   4.950   0.898  1.0284 -2.0818 -0.2744
17927TIP3    H275273   3.362   4.996   0.914  0.5158 -2.6053 -2.8238
17928TIP3   OH275274   4.774   6.170  13.863  0.2927 -0.6272 -0.7571
17928TIP3    H175275   4.703   6.177  13.926  0.2468 -1.7860 -0.6570
17928TIP3    H275276   4.733   6.186  13.778 -0.1152 -1.3259 -0.7049
17929TIP3   OH275277   3.227   1.677  15.613  0.1457  0.1319 -0.0695
17929TIP3    H175278   3.215   1.629  15.695 -0.4719 -1.3232 -0.9617
17929TIP3    H275279   3.141   1.716  15.596  0.1814  0.1541 -0.1952
17930TIP3   OH275280   6.559   0.861  15.455  0.7656 -0.5456  0.2675
17930TIP3    H175281   6.564   0.939  15.510  1.5843  0.1973 -0.8188
17930TIP3    H275282   6.585   0.891  15.368 -0.6959 -1.6347 -0.6074
17931TIP3   OH275283   0.099   0.241   0.565  0.0246  0.0723 -0.3037
17931TIP3    H175284   0.084   0.223   0.472  0.6169  0.0319 -0.3924
17931TIP3    H275285   0.079   0.335   0.574 -1.9313 -0.3136 -0.0664
17932TIP3   OH275286   6.580   6.527  16.160  0.3163  0.2918  0.0806
17932TIP3    H175287   6.531   6.509  16.080  1.8762 -0.6546 -0.6907
17932TIP3    H275288   6.654   6.580  16.132  0.6606  0.3039  0.9784
17933TIP3   OH275289   3.853   4.665   0.280  0.0343 -0.3882  0.0373
17933TIP3    H175290   3.758   4.673   0.287 -0.2379 -1.7044 -1.5856
17933TIP3    H275291   3.867   4.584   0.231  1.9142  0.9337 -1.7914
17934TIP3   OH275292   1.658   0.513  12.873 -0.2906  0.0637 -0.3405
17934TIP3    H175293   1.681   0.422  12.853 -0.8296 -0.3413  0.8065
17934TIP3    H275294   1.700   0.530  12.957 -0.9703  0.5632 -0.0985
17935TIP3   OH275295   3.410   5.901  13.599 -0.0583  0.3521 -0.6687
17935TIP3    H175296   3.397   5.959  13.524 -1.9689 -1.6782 -2.0508
17935TIP3    H275297   3.419   5.814  13.560 -0.2988 -0.6845  1.4444
17936TIP3   OH275298   5.073   4.925   3.550 -0.8186 -0.0634 -0.2688
17936TIP3    H175299   5.138   4.992   3.532 -1.0876  0.5538  0.9441
17936TIP3    H275300   5.063   4.926   3.645 -1.3708 -1.3085 -0.2909
17937TIP3   OH275301   4.778   1.721   4.805 -0.0368  0.0842  0.2926
17937TIP3    H175302   4.792   1.652   4.740  0.0511  0.7249 -0.3715
17937TIP3    H275303   4.817   1.686   4.885  0.2433 -0.5250 -0.1041
17938TIP3   OH275304   5.750   3.413   4.159 -0.3195  0.4054  0.5463
17938TIP3    H175305   5.664   3.434   4.197  0.3785 -0.3482  2.6684
17938TIP3    H275306   5.747   3.319   4.142 -0.4161  0.6365 -0.8235
17939TIP3   OH275307   2.763   4.830  16.209  0.0435 -0.5380  0.6657
17939TIP3    H175308   2.838   4.810  16.265 -0.0304 -0.0148  0.9484
17939TIP3    H275309   2.711   4.891  16.260  0.7484  1.1648 -0.5842
17940TIP3   OH275310   0.480   5.744   2.535 -0.3983 -0.1937  0.2959
17940TIP3    H175311   0.568   5.715   2.512 -0.2868  0.0562  0.4016
17940TIP3    H275312   0.492   5.833   2.568 -0.7960  0.1907 -0.5514
17941TIP3   OH275313   3.733   5.051  12.591  0.4832 -0.1416 -0.2042
17941TIP3    H175314   3.817   5.025  12.554  0.9167  1.7036 -0.6335
17941TIP3    H275315   3.702   5.122  12.534 -0.9341 -0.1666  0.4708
17942TIP3   OH275316   4.171   2.427   5.463 -0.2306 -0.2654  0.1092
17942TIP3    H175317   4.157   2.357   5.527  0.6196 -1.8364 -1.3472
17942TIP3    H275318   4.256   2.463   5.485 -0.2790 -0.2788  0.3221
17943TIP3   OH275319   3.527   6.197  14.997 -0.1413  0.3734  0.4290
17943TIP3    H175320   3.539   6.290  15.016  2.3666 -0.1403  1.7780
17943TIP3    H275321   3.496   6.194  14.907  1.5217  2.4605 -0.2796
17944TIP3   OH275322   1.076   3.002  13.283  0.0950 -0.4420  0.1558
17944TIP3    H175323   1.094   3.012  13.190  0.1924  0.2111  0.2359
17944TIP3    H275324   1.130   2.929  13.311  0.3175 -0.4260 -0.2310
17945TIP3   OH275325   0.988   5.434  13.553  0.2288 -0.1168 -0.0916
17945TIP3    H175326   0.935   5.453  13.631 -0.5486  1.6051 -0.9894
17945TIP3    H275327   1.071   5.402  13.589 -1.1593 -2.4019  1.3601
17946TIP3   OH275328   1.198   5.986   0.435  0.0731  0.8350  0.4900
17946TIP3    H175329   1.284   5.947   0.420 -0.7349 -0.8573  0.0447
17946TIP3    H275330   1.166   6.009   0.348 -0.3052  0.6258  0.5714
17947TIP3   OH275331   4.878   2.864  15.831 -0.2381  0.4347  0.3002
17947TIP3    H175332   4.875   2.861  15.926 -1.9868  3.4031  0.4727
17947TIP3    H275333   4.943   2.932  15.811  0.5040 -0.5238 -0.6828
17948TIP3   OH275334   0.763   4.528  14.650 -0.0957 -0.0525 -0.2632
17948TIP3    H175335   0.812   4.558  14.573  0.1656 -1.3733 -0.6487
17948TIP3    H275336   0.810   4.450  14.679  0.0497  0.6494  1.5138
17949TIP3   OH275337   0.751   6.367   2.726 -0.4693  0.7892 -0.0928
17949TIP3    H175338   0.833   6.381   2.774 -1.0558  0.1213  1.1422
17949TIP3    H275339   0.778   6.322   2.646  0.3541  0.4529  0.3572
17950TIP3   OH275340   0.904   5.372   1.969 -0.1081  0.4576 -0.1279
17950TIP3    H175341   0.875   5.458   1.998  0.4563  0.0500  1.7832
17950TIP3    H275342   0.822   5.326   1.946 -0.5338  1.0084  0.2646
17951TIP3   OH275343   0.321   3.735  12.246  0.1128 -0.1074  0.0922
17951TIP3    H175344   0.371   3.815  12.263  1.6100 -0.9181 -0.3794
17951TIP3    H275345   0.245   3.743  12.304  1.7133  0.3012  2.2962
17952TIP3   OH275346   6.144   1.832   0.699  0.5843  0.0224 -0.0306
17952TIP3    H175347   6.089   1.811   0.775  1.8021 -1.2119  0.5685
17952TIP3    H275348   6.088   1.814   0.624  0.3848 -2.0746  0.5447
17953TIP3   OH275349   6.569   1.178  11.186  0.0329 -0.1181  0.1097
17953TIP3    H175350   6.626   1.102  11.197 -0.8727 -0.6312  1.5535
17953TIP3    H275351   6.483   1.148  11.216 -0.2576  1.5788  1.1005
17954TIP3   OH275352   1.696   2.721  11.547  0.1214 -0.0912  0.2545
17954TIP3    H175353   1.633   2.781  11.509  0.1866  0.5621  1.1411
17954TIP3    H275354   1.702   2.649  11.484 -1.5693 -0.2103  0.1837
17955TIP3   OH275355   0.466   1.503  14.194 -0.1853 -0.2718  0.5192
17955TIP3    H175356   0.462   1.549  14.278 -0.1053  1.0405 -0.1788
17955TIP3    H275357   0.400   1.546  14.140 -2.0119 -2.6777  0.6238
17956TIP3   OH275358   3.353   5.473   5.615  0.1119  0.2492 -0.0852
17956TIP3    H175359   3.358   5.529   5.693 -0.2073  1.2987 -0.8118
17956TIP3    H275360   3.289   5.515   5.558 -0.2567 -0.9444 -0.5919
17957TIP3   OH275361   6.704   5.887  14.347 -0.1455  0.0464  1.0946
17957TIP3    H175362   6.666   5.812  14.303 -0.2556  0.4283  0.5301
17957TIP3    H275363   6.693   5.960  14.285  1.0911  0.2629  1.1057
17958TIP3   OH275364   1.667   2.780  11.812 -0.0442  0.3984  0.6910
17958TIP3    H175365   1.675   2.730  11.731 -0.0665  0.1252  0.8591
17958TIP3    H275366   1.673   2.872  11.784 -2.2937  0.4214  0.0814
17959TIP3   OH275367   2.956   2.604   0.164 -0.1637 -0.2614 -0.7591
17959TIP3    H175368   2.913   2.633   0.084  0.9401  0.9267 -0.9657
17959TIP3    H275369   2.975   2.512   0.149  1.0468  0.1981 -2.3870
17960TIP3   OH275370   2.769   1.734  15.240 -0.0234 -0.0865 -0.3803
17960TIP3    H175371   2.790   1.679  15.165  0.5071 -0.2770 -0.0979
17960TIP3    H275372   2.677   1.718  15.258  0.1479 -0.9492 -0.2469
17961TIP3   OH275373   0.454   1.654  12.890  0.1118 -0.0338 -0.1140
17961TIP3    H175374   0.393   1.703  12.834  0.7010  1.9612  0.9113
17961TIP3    H275375   0.541   1.684  12.863  0.5280 -0.8704  0.2542
17962TIP3   OH275376   0.396   1.830   2.570  0.2327  0.1411 -0.2341
17962TIP3    H175377   0.406   1.907   2.514  2.2442  1.2022  1.4756
17962TIP3    H275378   0.301   1.820   2.579 -0.1311  0.8107 -2.5446
17963TIP3   OH275379   1.755   3.068   3.247  0.0000 -1.0668  0.3310
17963TIP3    H175380   1.750   3.055   3.152  0.9506 -2.4220  0.4366
17963TIP3    H275381   1.681   3.018   3.281  1.3911 -3.1404  0.4689
17964TIP3   OH275382   1.613   4.900   4.109  0.0520 -0.8862  0.1329
17964TIP3    H175383   1.639   4.934   4.195 -0.4754 -2.3639  0.9308
17964TIP3    H275384   1.676   4.938   4.048 -0.3820  1.2685  0.9625
17965TIP3   OH275385   5.745   6.446  14.118 -0.1879  0.1699  0.3268
17965TIP3    H175386   5.675   6.510  14.123 -0.2230  0.1158  0.5298
17965TIP3    H275387   5.784   6.445  14.206  0.1139  0.2536  0.1947
17966TIP3   OH275388   1.103   5.914   5.186  0.6561 -0.7677 -0.5929
17966TIP3    H175389   1.144   5.906   5.272  0.8626 -3.4222 -0.8692
17966TIP3    H275390   1.015   5.877   5.198  0.6428 -1.0518 -1.5089
17967TIP3   OH275391   2.080   4.394   3.380  0.0425  0.3816  0.0132
17967TIP3    H175392   2.039   4.479   3.365 -1.9618 -0.4883  0.1688
17967TIP3    H275393   2.093   4.358   3.292  2.2200  1.3709 -0.1318
17968TIP3   OH275394   4.637   6.180  15.052  0.2453 -0.1778  0.0907
17968TIP3    H175395   4.558   6.231  15.069 -0.6586 -1.1371 -1.0962
17968TIP3    H275396   4.628   6.102  15.107  0.0568 -0.5720 -0.4849
17969TIP3   OH275397   1.290   0.405   0.969  0.4001  0.8533 -0.2020
17969TIP3    H175398   1.201   0.417   1.002  0.3587 -0.3356  0.1594
17969TIP3    H275399   1.285   0.429   0.877  0.3497  3.4728  0.3791
17970TIP3   OH275400   3.310   3.575   1.189 -0.1170 -0.0660 -0.3854
17970TIP3    H175401   3.319   3.668   1.167 -1.6485  0.1042 -0.3988
17970TIP3    H275402   3.316   3.572   1.284 -1.5271  0.2539 -0.2729
17971TIP3   OH275403   1.033   6.812  15.332  0.4344  0.3737 -0.7381
17971TIP3    H175404   1.081   6.730  15.346 -2.5674 -1.5312 -0.8048
17971TIP3    H275405   1.047   6.861  15.414 -0.8596 -1.9894  1.0285
17972TIP3   OH275406   5.454   5.569  16.878 -0.5358 -0.5815 -0.6742
17972TIP3    H175407   5.450   5.477  16.854 -0.0555 -1.2215  1.4770
17972TIP3    H275408   5.378   5.582  16.935 -1.7711  0.9247 -2.5191
17973TIP3   OH275409   6.260   5.304  15.440  0.0006 -0.8028 -0.4033
17973TIP3    H175410   6.355   5.301  15.428  0.3069 -1.8083  1.6790
17973TIP3    H275411   6.236   5.395  15.425  1.2183 -0.6353 -1.4303
17974TIP3   OH275412   0.940   5.545  15.823  0.1652  0.1829  0.6355
17974TIP3    H175413   0.895   5.618  15.781 -1.6100 -0.2500  1.6975
17974TIP3    H275414   0.870   5.485  15.849  1.4563 -1.1242  1.2462
17975TIP3   OH275415   6.664   6.090  14.178  0.0254 -0.2609  0.0027
17975TIP3    H175416   6.625   6.174  14.154  0.0619  0.0544  0.9798
17975TIP3    H275417   6.759   6.107  14.176  0.0442 -0.3855 -0.1625
17976TIP3   OH275418   0.638   4.842   1.543  0.2672  0.1981 -0.6236
17976TIP3    H175419   0.707   4.830   1.608  0.2832  0.4975 -0.5833
17976TIP3    H275420   0.598   4.756   1.534  1.9823 -0.5141 -2.1747
17977TIP3   OH275421   5.741   2.524  10.593 -0.5095  0.2328  0.0436
17977TIP3    H175422   5.760   2.435  10.565  1.3646  0.4695  0.3961
17977TIP3    H275423   5.709   2.515  10.683 -4.4900 -0.3520 -1.2519
17978TIP3   OH275424   1.614   5.817   4.904 -0.4332 -0.0340 -0.1394
17978TIP3    H175425   1.611   5.821   4.999 -0.6781  1.4173 -0.1771
17978TIP3    H275426   1.677   5.748   4.884 -0.1882 -0.1757  1.0769
17979TIP3   OH275427   0.670   5.456  15.826 -0.1507  0.0431  0.2152
17979TIP3    H175428   0.606   5.449  15.754  0.7366 -2.0880 -0.4542
17979TIP3    H275429   0.668   5.370  15.868  0.0353  0.9480  2.2013
17980TIP3   OH275430   2.247   4.490   5.498 -0.3937 -0.6414  0.2650
17980TIP3    H175431   2.329   4.496   5.448 -2.0891  0.4400 -2.6037
17980TIP3    H275432   2.238   4.576   5.539 -1.7701  0.6152 -2.4374
17981TIP3   OH275433   1.341   2.582   4.737 -0.5080  0.2438  0.2908
17981TIP3    H175434   1.309   2.508   4.686  1.0184 -0.9493  1.0079
17981TIP3    H275435   1.353   2.548   4.825  0.4947  1.2610  0.5680
17982TIP3   OH275436   2.148   6.663  16.338  0.2230 -0.2290  0.3629
17982TIP3    H175437   2.085   6.591  16.336 -1.2898  0.9935  1.2186
17982TIP3    H275438   2.176   6.673  16.247 -0.3313 -1.2165  0.0670
17983TIP3   OH275439   3.074   3.420   0.484 -0.4267  0.6096  0.0591
17983TIP3    H175440   3.166   3.446   0.481 -0.1657 -0.2101  0.7646
17983TIP3    H275441   3.036   3.476   0.552  0.1606 -0.8596  1.6533
17984TIP3   OH275442   1.726   5.441  16.542 -0.2614  0.3095 -0.1036
17984TIP3    H175443   1.712   5.347  16.530  1.8060 -0.3324  1.7917
17984TIP3    H275444   1.791   5.464  16.475 -2.3827  1.0068 -2.0839
17985TIP3   OH275445   5.169   5.325   3.741  0.3110  0.2611  0.1577
17985TIP3    H175446   5.137   5.237   3.762  2.8687 -0.5921  0.8388
17985TIP3    H275447   5.157   5.333   3.646 -2.9221  0.5381  0.4818
17986TIP3   OH275448   0.302   0.022  13.766  0.0775 -0.1694 -0.4580
17986TIP3    H175449   0.372   0.084  13.749 -0.1419  0.5948  1.2099
17986TIP3    H275450   0.291   0.023  13.861 -2.2581 -0.1604 -0.6570
17987TIP3   OH275451   4.234   4.995   5.382  0.1927  0.0342 -0.2350
17987TIP3    H175452   4.238   5.079   5.427 -0.2718  0.6691 -1.3418
17987TIP3    H275453   4.219   4.931   5.452 -0.5643  0.9872  0.5060
17988TIP3   OH275454   3.323   5.025   3.688 -0.4375  0.0405  0.1658
17988TIP3    H175455   3.316   5.091   3.758 -1.3617 -0.2328  0.3497
17988TIP3    H275456   3.309   4.942   3.733  0.8077 -0.3074 -0.0521
17989TIP3   OH275457   3.951   2.493   4.337 -0.2294 -0.0149  0.6594
17989TIP3    H175458   3.872   2.440   4.332  0.0190 -0.2978 -0.3785
17989TIP3    H275459   3.965   2.525   4.248 -0.0209  1.2793  1.1325
17990TIP3   OH275460   0.703   4.049  15.947  0.4812 -0.1946 -0.1696
17990TIP3    H175461   0.671   4.016  15.863 -1.5781 -0.4113  0.6357
17990TIP3    H275462   0.695   3.976  16.008  1.7052  0.0322  0.3078
17991TIP3   OH275463   0.525   2.481  15.882 -0.9633  0.0934  0.6435
17991TIP3    H175464   0.533   2.476  15.787 -1.6969 -1.0589  0.6146
17991TIP3    H275465   0.484   2.566  15.898  0.2930  0.8395  0.0342
17992TIP3   OH275466   1.027   6.763   0.025 -0.4762 -0.1871  0.4064
17992TIP3    H175467   0.947   6.805   0.056 -0.4594 -1.0688  1.7362
17992TIP3    H275468   0.998   6.692  -0.032 -0.5858  0.2149 -0.0430
17993TIP3   OH275469   2.232   0.240  11.399 -0.3139 -0.5218  0.1583
17993TIP3    H175470   2.312   0.292  11.400 -0.0742 -0.8749 -0.2943
17993TIP3    H275471   2.164   0.299  11.431 -0.0195  0.0221 -0.2189
17994TIP3   OH275472   1.526   6.340   5.960  0.3726  0.4957 -0.0804
17994TIP3    H175473   1.481   6.423   5.977 -0.0467  0.2809 -0.1290
17994TIP3    H275474   1.469   6.273   5.998  0.2524  0.1529 -0.8520
17995TIP3   OH275475   4.854   1.308   2.709 -0.4860  0.4046  0.1290
17995TIP3    H175476   4.769   1.346   2.730 -0.9034 -0.9853  1.0579
17995TIP3    H275477   4.869   1.243   2.777 -0.1729 -1.6832 -1.7857
17996TIP3   OH275478   1.380   3.153   4.454  0.3907 -0.5722 -0.0208
17996TIP3    H175479   1.422   3.097   4.388  1.9714 -0.5502  0.9280
17996TIP3    H275480   1.415   3.240   4.437 -0.0955 -0.3495  0.1216
17997TIP3   OH275481   3.539   2.754   0.698  0.5533 -0.0881  0.0715
17997TIP3    H175482   3.533   2.844   0.668  0.9616  0.3484  1.2311
17997TIP3    H275483   3.450   2.719   0.692 -0.1182  1.1549  1.8271
17998TIP3   OH275484   5.639   3.351  14.209 -0.4245  0.3564  0.7675
17998TIP3    H175485   5.696   3.426  14.189  1.0687 -0.4508  1.7866
17998TIP3    H275486   5.698   3.275  14.207 -1.1099 -0.3506  3.2914
17999TIP3   OH275487   3.215   2.478   1.121 -0.4886  0.0759 -0.5844
17999TIP3    H175488   3.128   2.459   1.156 -0.1924  0.0306  0.1316
17999TIP3    H275489   3.251   2.544   1.180 -0.9666  1.9488 -2.2611
18000TIP3   OH275490   1.143   3.754   5.808  0.3570 -0.2595  0.3546
18000TIP3    H175491   1.068   3.807   5.778  1.2337  0.2330 -1.0758
18000TIP3    H275492   1.166   3.791   5.893  1.6170  2.5004 -1.0540
18001TIP3   OH275493   2.350   3.680   2.529  0.1849 -0.0112 -0.1216
18001TIP3    H175494   2.371   3.593   2.495 -0.8410  0.4178 -2.0287
18001TIP3    H275495   2.433   3.726   2.528  0.4928 -0.5565 -0.4550
18002TIP3   OH275496   4.865   3.739  12.173 -0.2844  0.0896 -0.5029
18002TIP3    H175497   4.897   3.774  12.255 -0.7520  1.1813 -0.7754
18002TIP3    H275498   4.820   3.812  12.130 -0.2479 -0.5116 -1.6281
18003TIP3   OH275499   4.466   5.101   5.747  0.1723  0.8799  0.4970
18003TIP3    H175500   4.522   5.033   5.711  0.0832  0.8818  0.3562
18003TIP3    H275501   4.382   5.058   5.764  0.4656  0.6679  1.4965
18004TIP3   OH275502   1.763   6.419  11.486 -0.9120  0.1588 -0.0509
18004TIP3    H175503   1.824   6.349  11.509  0.3018  0.9754 -0.6691
18004TIP3    H275504   1.753   6.411  11.391 -2.3210 -0.3824  0.1239
18005TIP3   OH275505   1.573   2.520  14.951  0.1568 -0.8845 -0.2981
18005TIP3    H175506   1.658   2.476  14.961  0.3167 -0.3493  0.7737
18005TIP3    H275507   1.509   2.449  14.949  0.6419 -1.3192 -1.4976
18006TIP3   OH275508   6.073   6.277  16.340  0.0016 -0.1933 -0.8406
18006TIP3    H175509   5.983   6.244  16.347  0.1499 -0.8064 -1.5956
18006TIP3    H275510   6.117   6.241  16.418 -0.7088  1.2087  0.2514
18007TIP3   OH275511   0.868   1.368   1.965  0.6368  0.5779  0.0474
18007TIP3    H175512   0.888   1.451   2.010  0.7226 -0.0166  1.1401
18007TIP3    H275513   0.810   1.322   2.025 -0.3881  0.3444 -1.0889
18008TIP3   OH275514   3.322   2.880  11.683 -0.2206 -0.2806  0.3789
18008TIP3    H175515   3.254   2.909  11.622  1.4629  3.0480 -0.1547
18008TIP3    H275516   3.315   2.940  11.757  0.2248 -1.8530  1.7474
18009TIP3   OH275517   6.312   0.966  16.240  0.6543 -0.1012  0.2587
18009TIP3    H175518   6.353   1.006  16.317  0.4481  0.7450 -0.0567
18009TIP3    H275519   6.349   0.878  16.235  0.5132 -0.2470  1.4505
18010TIP3   OH275520   3.775   1.426   1.611  0.3237  0.1910 -0.3595
18010TIP3    H175521   3.862   1.463   1.599 -0.1150  1.5959  0.5050
18010TIP3    H275522   3.721   1.500   1.638 -1.3067 -0.5085 -1.5158
18011TIP3   OH275523   4.617   2.507   2.368 -0.6395 -0.0929 -0.6513
18011TIP3    H175524   4.526   2.529   2.385 -0.7473  0.0127 -1.3049
18011TIP3    H275525   4.667   2.561   2.429 -0.9920  0.2926 -0.6990
18012TIP3   OH275526   3.003   6.780  14.158 -0.0413  0.1177  0.3683
18012TIP3    H175527   3.050   6.839  14.217 -1.9809  1.9988  0.2003
18012TIP3    H275528   2.992   6.699  14.208 -0.0346  1.0221  1.9061
18013TIP3   OH275529   3.149   4.807  15.322 -0.1362 -0.2583 -0.2997
18013TIP3    H175530   3.209   4.823  15.249  2.4077 -0.1247  1.6698
18013TIP3    H275531   3.142   4.892  15.366 -0.0323 -0.7566  0.7097
18014TIP3   OH275532   1.065   1.606  16.122  0.2415  0.3034 -0.6117
18014TIP3    H175533   1.054   1.695  16.088 -0.4377  0.5993  0.3357
18014TIP3    H275534   1.155   1.582  16.098 -0.0764  0.6173 -2.2586
18015TIP3   OH275535   4.111   6.636  11.859 -0.8600  0.7310  0.0301
18015TIP3    H175536   4.146   6.630  11.770 -0.8228 -0.4397  0.1067
18015TIP3    H275537   4.104   6.730  11.876  1.2364  1.0091 -0.3928
18016TIP3   OH275538   6.781   2.914  16.823  0.0969  0.3358  0.5580
18016TIP3    H175539   6.731   2.985  16.784  1.7016  1.8109  1.0603
18016TIP3    H275540   6.719   2.841  16.828 -1.2086  1.2283 -1.2658
18017TIP3   OH275541   4.349   1.966   1.142  0.5565 -0.0239  1.0346
18017TIP3    H175542   4.411   2.038   1.133  0.3718  0.2382  1.8040
18017TIP3    H275543   4.267   2.008   1.168 -0.3625 -0.2115 -1.3174
18018TIP3   OH275544   0.812   6.783   3.778 -0.0260 -0.0612  0.7010
18018TIP3    H175545   0.813   6.777   3.683  1.7669  1.2757  0.5819
18018TIP3    H275546   0.795   6.694   3.808  1.2487 -0.8765 -0.8752
18019TIP3   OH275547   1.597   6.728  16.022 -0.6083  0.1385 -0.2825
18019TIP3    H175548   1.672   6.737  15.963  0.7168 -0.9979  1.1496
18019TIP3    H275549   1.521   6.727  15.964  0.5955 -0.3672 -1.9275
18020TIP3   OH275550   6.277   5.856  16.340  0.8072 -0.7374  0.4804
18020TIP3    H175551   6.340   5.922  16.309 -0.4012  0.6254  0.8129
18020TIP3    H275552   6.271   5.793  16.268  0.3876  0.6894 -0.7961
18021TIP3   OH275553   3.542   3.720   2.326  0.5919 -0.2736  0.8884
18021TIP3    H175554   3.590   3.672   2.393  1.4304  2.3346  2.3157
18021TIP3    H275555   3.570   3.811   2.337 -1.4686  0.7086 -1.0919
18022TIP3   OH275556   4.374   5.337   2.235  0.4359 -0.1383  0.7921
18022TIP3    H175557   4.439   5.268   2.247  3.0334  1.9488 -0.0269
18022TIP3    H275558   4.319   5.333   2.313  0.5651 -2.9599  0.8337
18023TIP3   OH275559   3.610   1.711  10.610 -1.5806  0.1782  0.1574
18023TIP3    H175560   3.626   1.635  10.554 -3.9050 -2.6241  2.9476
18023TIP3    H275561   3.518   1.732  10.597 -1.5946  0.8798  1.2565
18024TIP3   OH275562   1.868   2.166  13.344  0.6616 -0.0510 -0.1104
18024TIP3    H175563   1.961   2.157  13.363  0.6926 -0.1559 -0.3093
18024TIP3    H275564   1.845   2.254  13.376 -0.1242 -1.4768  3.7827
18025TIP3   OH275565   4.240   6.157  11.550 -0.0448 -0.1645  0.6311
18025TIP3    H175566   4.255   6.079  11.604  0.4381 -0.7455 -0.3243
18025TIP3    H275567   4.193   6.124  11.473  0.4927  0.4175  0.0444
18026TIP3   OH275568   4.082   4.754   0.886 -0.4859  0.4735 -0.0575
18026TIP3    H175569   4.021   4.742   0.958  1.1235  2.1677  1.7176
18026TIP3    H275570   4.029   4.742   0.807 -2.4002 -1.0839  1.3603
18027TIP3   OH275571   6.544   6.347   4.816 -0.1236 -0.3607 -0.0605
18027TIP3    H175572   6.636   6.356   4.842 -0.1654  0.3122 -0.1508
18027TIP3    H275573   6.536   6.398   4.736 -0.8528  0.5947  0.5921
18028TIP3   OH275574   4.989   2.781  15.495 -0.0733 -0.5238 -0.4658
18028TIP3    H175575   5.010   2.851  15.434 -0.3108 -0.7697 -0.8316
18028TIP3    H275576   5.069   2.728  15.498 -0.1638 -0.6800 -0.7925
18029TIP3   OH275577   1.037   0.499  10.617 -0.1368 -0.4908 -0.4479
18029TIP3    H175578   1.079   0.485  10.702 -0.1734 -1.2139 -0.5438
18029TIP3    H275579   1.041   0.594  10.603 -1.2776 -0.1978  0.9559
18030TIP3   OH275580   3.960   5.782  16.881 -0.1168  0.1107 -0.0463
18030TIP3    H175581   3.973   5.836  16.804 -1.0918  0.5120  0.0565
18030TIP3    H275582   4.008   5.827  16.951 -0.9711  0.8872  0.0508
18031TIP3   OH275583   4.180   0.360  11.394  0.1002  0.0908  0.5484
18031TIP3    H175584   4.132   0.282  11.369  0.0498  0.4318 -0.4407
18031TIP3    H275585   4.123   0.433  11.370  0.1900  0.4451  1.3658
18032TIP3   OH275586   2.110   5.210   1.121  0.0685 -0.2213 -0.2553
18032TIP3    H175587   2.099   5.181   1.211  1.4993 -1.5859 -0.4913
18032TIP3    H275588   2.189   5.264   1.122  0.8983 -1.3937 -0.9204
18033TIP3   OH275589   1.488   2.712  16.596  0.2278 -0.6449  0.5657
18033TIP3    H175590   1.399   2.726  16.563 -0.1530 -3.1879  0.3354
18033TIP3    H275591   1.544   2.765  16.538 -0.9001 -1.0543 -0.9600
18034TIP3   OH275592   5.000   4.603   1.160 -0.0690 -0.6440 -0.0365
18034TIP3    H175593   4.979   4.695   1.144  0.0348 -0.3191  1.5093
18034TIP3    H275594   4.918   4.565   1.192  0.3392 -0.6112  1.1125
18035TIP3   OH275595   6.758   4.658  11.262  0.2338 -0.2337 -0.4390
18035TIP3    H175596   6.761   4.644  11.168 -0.0647  0.3787 -0.5418
18035TIP3    H275597   6.665   4.668  11.282  0.2062 -1.3862  0.0765
18036TIP3   OH275598   3.664   0.867  16.364 -0.6330 -0.1503 -0.3513
18036TIP3    H175599   3.595   0.932  16.356 -0.1002  0.6077  0.9125
18036TIP3    H275600   3.745   0.918  16.372 -0.0694 -0.9859 -0.5296
18037TIP3   OH275601   4.719   2.203  13.895  0.3110  0.4068  0.2251
18037TIP3    H175602   4.647   2.238  13.843 -1.5931 -1.1179  1.6893
18037TIP3    H275603   4.798   2.243  13.857 -1.3473  3.0476 -0.7022
18038TIP3   OH275604   5.332   1.339  14.495  0.0223  0.1736  0.1498
18038TIP3    H175605   5.355   1.274  14.429  0.7493  1.0501 -0.4938
18038TIP3    H275606   5.237   1.349  14.487  0.0327 -0.1179 -0.4035
18039TIP3   OH275607   0.597   0.485  11.689 -0.6235 -0.5357  0.2927
18039TIP3    H175608   0.521   0.536  11.718  1.1007  1.7816  1.0889
18039TIP3    H275609   0.586   0.475  11.595 -0.5342  2.4385 -0.1335
18040TIP3   OH275610   6.431   4.134  12.831 -0.4158  0.6273 -0.5645
18040TIP3    H175611   6.473   4.165  12.751 -1.4332 -0.3048 -1.4781
18040TIP3    H275612   6.490   4.162  12.901  0.8286  0.8744 -1.6812
18041TIP3   OH275613   1.733   4.942   3.119 -0.4506  0.2380  0.0016
18041TIP3    H175614   1.733   5.003   3.046 -1.8534  1.5179  1.0307
18041TIP3    H275615   1.826   4.926   3.137 -0.0820 -0.1375 -2.0400
18042TIP3   OH275616   2.780   6.682   4.263 -0.0075 -0.5065 -0.7229
18042TIP3    H175617   2.755   6.597   4.299 -1.0206  0.4271  0.9095
18042TIP3    H275618   2.731   6.689   4.181  1.5487 -2.2496 -1.8663
18043TIP3   OH275619   3.043   4.024  11.825 -0.4254  0.0170 -0.0657
18043TIP3    H175620   2.961   4.066  11.853 -0.7289  0.4868 -1.5735
18043TIP3    H275621   3.081   4.085  11.763  0.5396 -0.7055 -0.2001
18044TIP3   OH275622   6.161   3.854  15.728 -0.1311 -0.1716 -0.3742
18044TIP3    H175623   6.109   3.780  15.759 -1.7194  0.5103 -1.2579
18044TIP3    H275624   6.251   3.832  15.752 -0.8747 -1.1252  1.7485
18045TIP3   OH275625   4.777   3.155   4.188  0.0597 -0.3020  0.0683
18045TIP3    H175626   4.699   3.102   4.171 -0.4752  0.9095 -1.5205
18045TIP3    H275627   4.850   3.102   4.155 -0.1485 -1.1585  0.9529
18046TIP3   OH275628   4.847   4.655  10.427  0.0279 -0.0427 -0.7399
18046TIP3    H175629   4.756   4.663  10.399  0.1190 -0.4190 -1.1470
18046TIP3    H275630   4.892   4.728  10.386 -0.0219 -0.0535 -0.8126
18047TIP3   OH275631   5.162   1.302  10.869  0.6111 -0.3480 -0.2295
18047TIP3    H175632   5.144   1.388  10.832  1.9030  0.2513  0.4820
18047TIP3    H275633   5.167   1.244  10.793 -0.5173  0.1446 -0.6950
18048TIP3   OH275634   3.142   3.143  17.019  0.2285  0.0685 -0.2556
18048TIP3    H175635   3.166   3.081  16.950  1.7047  0.8643 -0.5004
18048TIP3    H275636   3.090   3.210  16.974 -0.1270 -0.2242 -0.2801
18049TIP3   OH275637   3.327   6.630   5.977  0.2696  0.5803 -0.2053
18049TIP3    H175638   3.392   6.630   6.047  1.7996 -1.4735 -1.5082
18049TIP3    H275639   3.311   6.723   5.960  0.1699  1.1521  2.4976
18050TIP3   OH275640   4.026   1.448   1.862  0.1719 -0.0376 -0.0621
18050TIP3    H175641   4.048   1.455   1.769  0.6476  0.9941  0.1100
18050TIP3    H275642   4.094   1.392   1.899  0.5000  0.2798 -0.1783
18051TIP3   OH275643   3.456   4.353  10.588  0.5838 -0.1814 -0.0523
18051TIP3    H175644   3.513   4.346  10.665 -1.9621  0.9534  2.0781
18051TIP3    H275645   3.449   4.264  10.554  2.6981 -0.5143  0.2205
18052TIP3   OH275646   1.158   4.092  16.899  0.2709 -0.6656 -0.1480
18052TIP3    H175647   1.101   4.020  16.924  0.2258 -0.7521 -0.4969
18052TIP3    H275648   1.226   4.094  16.967 -0.0138 -0.7061  0.1429
18053TIP3   OH275649   1.562   4.501   5.318  0.1064 -0.3104 -0.4452
18053TIP3    H175650   1.507   4.446   5.262  1.7291  0.6686 -3.2201
18053TIP3    H275651   1.543   4.591   5.291 -0.5673  0.4161  2.1407
18054TIP3   OH275652   5.209   4.400  15.861 -0.7549  0.2363  0.0218
18054TIP3    H175653   5.121   4.430  15.884 -0.9035  0.4034 -0.7144
18054TIP3    H275654   5.242   4.358  15.940 -1.7236 -0.3483  0.1248
18055TIP3   OH275655   3.404   2.484   0.864 -0.1485 -0.0128 -0.5794
18055TIP3    H175656   3.359   2.544   0.924  0.3650  0.2299 -0.4373
18055TIP3    H275657   3.349   2.485   0.785  0.6592  1.8900 -1.1883
18056TIP3   OH275658   5.495   1.754  15.963  0.0856 -0.2323  0.0699
18056TIP3    H175659   5.439   1.685  15.928 -1.9010  1.2392  0.1628
18056TIP3    H275660   5.474   1.831  15.910  0.9379  0.7342  1.0862
18057TIP3   OH275661   2.426   4.327   4.484 -0.1357 -0.3900 -0.2615
18057TIP3    H175662   2.332   4.339   4.470  0.0251  0.8869 -0.4195
18057TIP3    H275663   2.451   4.257   4.425 -0.8838 -0.3320 -0.6590
18058TIP3   OH275664   3.481   2.065   5.635 -0.3403  0.2578 -0.1666
18058TIP3    H175665   3.500   2.145   5.587 -0.1283 -0.3389 -1.0914
18058TIP3    H275666   3.396   2.081   5.676  0.0890  1.2660  0.3545
18059TIP3   OH275667   6.484   3.684   5.912 -0.3950  0.4063 -0.6455
18059TIP3    H175668   6.399   3.643   5.928 -1.5751  1.9375 -2.6158
18059TIP3    H275669   6.514   3.646   5.830  0.5847  0.2696 -0.2309
18060TIP3   OH275670   0.237   0.631  15.478 -0.3935 -0.4983  0.3141
18060TIP3    H175671   0.300   0.612  15.547  0.7261 -0.5876 -0.6953
18060TIP3    H275672   0.262   0.718  15.446 -1.4847 -0.0551  0.6347
18061TIP3   OH275673   0.875   4.453   3.508 -0.6802  0.1943 -0.3784
18061TIP3    H175674   0.839   4.488   3.426 -0.4735 -0.1560 -0.6174
18061TIP3    H275675   0.835   4.508   3.576 -0.2045  1.0333 -0.7578
18062TIP3   OH275676   2.781   6.490  14.567  0.1471 -0.4954  0.1265
18062TIP3    H175677   2.738   6.435  14.501 -1.0141  0.4075  0.0966
18062TIP3    H275678   2.753   6.451  14.651 -0.7750  0.0823  0.1076
18063TIP3   OH275679   5.322   0.005   2.801  0.2768  0.2516 -0.1813
18063TIP3    H175680   5.296  -0.061   2.866 -1.2803  1.3785  0.4083
18063TIP3    H275681   5.258   0.076   2.812  2.4875  2.3712 -0.0236
18064TIP3   OH275682   6.448   5.300  16.267  0.4332 -0.0509  0.3492
18064TIP3    H175683   6.456   5.395  16.262  1.3791  0.1510  3.4982
18064TIP3    H275684   6.538   5.268  16.257  0.1091 -0.6407 -0.7872
18065TIP3   OH275685   4.962   3.510  15.198  0.3488  0.9007 -0.1392
18065TIP3    H175686   4.979   3.419  15.174  0.2416  0.7779  0.2414
18065TIP3    H275687   5.022   3.561  15.144 -0.6032  0.7067 -1.4569
18066TIP3   OH275688   3.580   5.479  13.866  0.1458  0.3129 -0.0707
18066TIP3    H175689   3.615   5.550  13.919  1.9085 -0.2999 -0.3511
18066TIP3    H275690   3.508   5.519  13.817 -0.1640  1.3953  1.2050
18067TIP3   OH275691   4.549   1.915  10.571  0.1398  0.2479 -0.5067
18067TIP3    H175692   4.558   1.998  10.618 -1.8108 -0.1339  0.6480
18067TIP3    H275693   4.547   1.940  10.479  1.4766  1.2762 -0.2827
18068TIP3   OH275694   5.442   0.813   4.929  0.2487 -0.6677 -0.1776
18068TIP3    H175695   5.451   0.802   5.024  0.1657 -2.0189 -0.3010
18068TIP3    H275696   5.529   0.794   4.894  0.3698  0.1839 -0.3560
18069TIP3   OH275697   1.405   1.007  12.405  0.3400  0.3517 -0.2594
18069TIP3    H175698   1.382   0.997  12.312  0.8206  1.8325 -0.5599
18069TIP3    H275699   1.346   0.947  12.450  0.3714 -0.7061 -1.5499
18070TIP3   OH275700   6.718   0.392   6.394 -0.1882  0.3666 -0.6514
18070TIP3    H175701   6.630   0.358   6.379  0.1817 -0.9712  0.1246
18070TIP3    H275702   6.762   0.382   6.310 -0.0642 -1.1740 -0.4259
18071TIP3   OH275703   6.768   0.399  12.097  0.3425 -0.1244 -0.7526
18071TIP3    H175704   6.863   0.410  12.103  0.2662  0.1184  0.1469
18071TIP3    H275705   6.750   0.321  12.150  0.0540 -0.2975 -1.0966
18072TIP3   OH275706   5.077   1.185   0.337 -0.0437  0.2702 -0.1748
18072TIP3    H175707   5.013   1.156   0.271 -0.7786  0.3307  0.5007
18072TIP3    H275708   5.160   1.186   0.290 -0.3534 -0.8302 -0.7977
18073TIP3   OH275709   0.567   1.011   3.634  0.1704 -0.0245 -0.0929
18073TIP3    H175710   0.559   1.079   3.701  0.6895  0.8588 -0.9070
18073TIP3    H275711   0.636   1.043   3.576  0.8199 -1.5316 -0.1739
18074TIP3   OH275712   0.809   2.877  11.418 -0.0666  0.6675 -0.1709
18074TIP3    H175713   0.887   2.861  11.472  0.0334  1.6254 -0.0168
18074TIP3    H275714   0.843   2.915  11.337 -0.1856 -1.0423 -1.0833
18075TIP3   OH275715   0.051   1.194  15.188 -0.1655 -0.0377 -0.0213
18075TIP3    H175716   0.072   1.287  15.199  1.3551 -0.2269 -0.9265
18075TIP3    H275717   0.112   1.149  15.246 -0.7305 -0.4835  0.2314
18076TIP3   OH275718   6.094   2.727  10.720  0.0987 -0.2222  0.2019
18076TIP3    H175719   6.034   2.673  10.669 -0.0320 -0.9207  1.0648
18076TIP3    H275720   6.147   2.772  10.654 -1.1935  0.2225 -0.5624
18077TIP3   OH275721   3.446   0.509  13.865 -0.5993  0.0933  0.1072
18077TIP3    H175722   3.473   0.595  13.834 -0.0513 -0.2111 -0.2699
18077TIP3    H275723   3.357   0.522  13.898  0.2999  1.3407  2.2648
18078TIP3   OH275724   0.858   5.616   2.057 -0.3908 -0.0263  0.0085
18078TIP3    H175725   0.915   5.647   2.127  0.6375  0.4591 -1.0209
18078TIP3    H275726   0.769   5.627   2.092  0.0814  0.7772  1.0030
18079TIP3   OH275727   3.200   3.777   3.529  1.1569 -0.4053 -0.1990
18079TIP3    H175728   3.262   3.821   3.587  2.6543 -0.3933 -1.7273
18079TIP3    H275729   3.135   3.845   3.510  0.1338 -0.6641  2.0771
18080TIP3   OH275730   4.837   5.611  12.559  0.1651  0.4059  1.0064
18080TIP3    H175731   4.822   5.566  12.475  0.7372 -1.5295  1.8781
18080TIP3    H275732   4.749   5.634  12.590 -0.0031  2.4066 -0.7060
18081TIP3   OH275733   1.562   4.776  16.393  0.6591 -0.1589  0.8341
18081TIP3    H175734   1.641   4.793  16.443  1.2889  0.7380 -0.4114
18081TIP3    H275735   1.522   4.863  16.382  0.4535 -0.3598 -0.0756
18082TIP3   OH275736   4.053   6.427  14.103 -0.0170  0.1334  0.5994
18082TIP3    H175737   4.103   6.491  14.052  1.1559  0.0485  1.5930
18082TIP3    H275738   3.963   6.437  14.072  0.8557 -1.2448 -2.8544
18083TIP3   OH275739   0.461   4.703   6.743  0.1377 -0.1628  0.9335
18083TIP3    H175740   0.389   4.764   6.726 -0.2826 -0.6090  1.1004
18083TIP3    H275741   0.520   4.714   6.668  0.2599  0.7190  1.1503
18084TIP3   OH275742   3.204   5.827   4.908 -0.2277 -0.0983 -0.0967
18084TIP3    H175743   3.165   5.899   4.858 -0.0695  0.3321  0.3836
18084TIP3    H275744   3.246   5.870   4.982  1.2069 -0.5294 -0.6183
18085TIP3   OH275745   0.135   6.372  13.779  0.0463 -0.1517 -0.0545
18085TIP3    H175746   0.181   6.293  13.751  1.6566 -0.4258  2.8725
18085TIP3    H275747   0.205   6.434  13.801 -0.6936 -0.6162  4.6987
18086TIP3   OH275748   6.003   1.830  14.397 -0.4783 -0.3813 -0.2483
18086TIP3    H175749   5.938   1.767  14.367 -1.4137  0.3087  0.2578
18086TIP3    H275750   5.952   1.906  14.425  0.6949  1.7684 -3.3574
18087TIP3   OH275751   1.946   4.601  16.033 -0.3174 -0.6086 -0.4543
18087TIP3    H175752   1.986   4.538  16.092 -0.9156 -0.9518 -0.4039
18087TIP3    H275753   1.880   4.645  16.086  1.4361  1.5069  0.0900
18088TIP3   OH275754   2.362   5.734   3.014 -0.1775 -0.6148  0.5136
18088TIP3    H175755   2.349   5.639   3.020 -0.0680 -0.6020  1.0183
18088TIP3    H275756   2.293   5.763   2.954 -0.3228 -0.9900  0.4897
18089TIP3   OH275757   2.233   1.715   6.243 -0.1799  0.1657 -0.0900
18089TIP3    H175758   2.306   1.656   6.224  0.0014  0.4709 -0.3378
18089TIP3    H275759   2.208   1.751   6.158  0.8589  1.8038  0.2641
18090TIP3   OH275760   4.142   1.451   0.896 -0.1224 -0.2470 -0.5140
18090TIP3    H175761   4.178   1.537   0.873 -1.4684  1.5355  3.1134
18090TIP3    H275762   4.109   1.416   0.814  2.3811  1.7189 -2.5088
18091TIP3   OH275763   4.433   4.395  16.821 -0.1868  0.0530 -0.4065
18091TIP3    H175764   4.467   4.484  16.829 -2.6886  1.0710 -0.2069
18091TIP3    H275765   4.340   4.407  16.798 -0.6572 -2.4933 -0.0928
18092TIP3   OH275766   2.974   5.193   2.161  1.0707  0.0431 -0.2512
18092TIP3    H175767   2.981   5.202   2.065 -2.1918  0.5132 -0.5448
18092TIP3    H275768   3.010   5.107   2.180 -0.5074 -1.1323 -2.2689
18093TIP3   OH275769   3.844   4.894  12.113 -0.2610  0.1231 -0.8132
18093TIP3    H175770   3.927   4.919  12.153 -1.0361  2.2343 -0.3959
18093TIP3    H275771   3.867   4.862  12.026  1.1307 -1.1661 -0.0122
18094TIP3   OH275772   1.684   1.370   3.129  0.1610 -0.2051 -0.0960
18094TIP3    H175773   1.652   1.317   3.201 -0.0247 -0.4805 -0.3759
18094TIP3    H275774   1.727   1.307   3.070  0.5410  0.0517 -0.0985
18095TIP3   OH275775   6.242   2.686  13.078  0.2858  0.2199  0.4171
18095TIP3    H175776   6.214   2.625  13.147  0.2718  1.1571  1.2515
18095TIP3    H275777   6.233   2.635  12.997  1.7212 -1.4142  1.2025
18096TIP3   OH275778   4.210   1.523  14.857 -0.1260  0.5078  0.1260
18096TIP3    H175779   4.230   1.457  14.922 -0.9847  0.1000 -0.0115
18096TIP3    H275780   4.115   1.518  14.845  0.2160 -1.0821 -2.8756
18097TIP3   OH275781   6.017   2.562  16.938  0.9793  0.1862  0.3017
18097TIP3    H175782   5.988   2.645  16.976  0.0281 -1.0049  2.3364
18097TIP3    H275783   6.064   2.587  16.858  2.5155  2.8097  1.9032
18098TIP3   OH275784   0.915   0.837  15.212  0.2938  0.1831 -0.7838
18098TIP3    H175785   0.877   0.840  15.299 -0.2594  0.8615 -1.0369
18098TIP3    H275786   0.924   0.744  15.192 -4.5763 -0.2416 -2.1519
18099TIP3   OH275787   0.571   2.383   3.921  0.3191  0.0695 -0.4127
18099TIP3    H175788   0.521   2.421   3.848 -0.2381  1.2751  0.5497
18099TIP3    H275789   0.515   2.313   3.954  1.0468 -1.1975 -1.7803
18100TIP3   OH275790   0.621   0.206  14.227  0.2579  0.0073 -0.0491
18100TIP3    H175791   0.658   0.152  14.297 -3.0932  0.0203  1.9400
18100TIP3    H275792   0.591   0.144  14.161 -1.3750 -0.4593  1.0884
18101TIP3   OH275793   5.318   2.464  13.006 -0.2010 -0.3316 -0.3707
18101TIP3    H175794   5.373   2.540  13.025 -1.9344  0.9448 -0.1819
18101TIP3    H275795   5.237   2.501  12.972 -0.4983 -2.1938 -1.8825
18102TIP3   OH275796   1.706   4.059  15.919  0.6637  0.1962  0.4110
18102TIP3    H175797   1.615   4.029  15.910  0.4537  0.9380 -0.0293
18102TIP3    H275798   1.710   4.098  16.006  0.8309 -0.7191  0.8237
18103TIP3   OH275799   1.124   2.088  14.144  0.4509  0.1702  0.7717
18103TIP3    H175800   1.172   2.170  14.130 -0.4321  0.6739  0.6132
18103TIP3    H275801   1.032   2.114  14.145  0.1402 -0.8647  0.4504
18104TIP3   OH275802   5.752   5.495  16.281  0.0976 -0.5043 -0.0020
18104TIP3    H175803   5.735   5.475  16.373 -0.8140  1.0097  0.1804
18104TIP3    H275804   5.755   5.409  16.238  0.6171 -1.2373  1.4341
18105TIP3   OH275805   3.874   0.373   0.718  0.3647 -0.6596 -0.4536
18105TIP3    H175806   3.923   0.441   0.765  0.9144 -0.5597 -1.1500
18105TIP3    H275807   3.791   0.414   0.696 -0.5289 -1.1939  1.7344
18106TIP3   OH275808   4.939   5.996  14.923 -0.4340  0.0316 -0.2426
18106TIP3    H175809   5.015   5.945  14.896  1.0382  1.0005  1.7219
18106TIP3    H275810   4.910   6.040  14.844  1.3353 -0.0558 -0.9987
18107TIP3   OH275811   1.296   5.983   2.019  0.3025  0.0267 -0.4711
18107TIP3    H175812   1.222   6.039   1.997  0.5972  0.2688 -0.8406
18107TIP3    H275813   1.292   5.912   1.956  0.2675 -0.0674 -0.3637
18108TIP3   OH275814   4.196   3.046   1.900  0.7658 -0.9261  0.0031
18108TIP3    H175815   4.126   3.085   1.953  1.4977  0.6174 -0.1052
18108TIP3    H275816   4.155   3.030   1.815  0.4381 -0.3372  0.0435
18109TIP3   OH275817   2.830   6.382  13.358 -0.0980 -0.0019  0.2584
18109TIP3    H175818   2.892   6.338  13.300 -1.7460 -0.1920 -1.4650
18109TIP3    H275819   2.744   6.350  13.330 -1.0801  1.2166  1.7062
18110TIP3   OH275820   5.271   1.139  13.745  0.1765 -0.0636 -0.1115
18110TIP3    H175821   5.257   1.069  13.681  1.3859  0.2983 -0.7997
18110TIP3    H275822   5.203   1.203  13.726 -1.4419 -1.3417  1.0210
18111TIP3   OH275823   5.826   6.494   4.289  0.1239  0.0781 -0.0455
18111TIP3    H175824   5.879   6.520   4.364  0.4878  1.1975 -0.6691
18111TIP3    H275825   5.820   6.573   4.235 -2.3058  0.0469  0.0599
18112TIP3   OH275826   6.540   1.628  12.035  0.0520  0.3272  0.6426
18112TIP3    H175827   6.462   1.608  12.086 -1.2233 -0.5786 -1.4947
18112TIP3    H275828   6.565   1.544  11.996  0.6663  1.0262 -0.5390
18113TIP3   OH275829   3.630   3.470   0.578  0.2302 -0.5176  0.3624
18113TIP3    H175830   3.711   3.420   0.583  0.9265  0.4601 -0.7452
18113TIP3    H275831   3.654   3.559   0.602 -0.7073 -0.4017  0.9257
18114TIP3   OH275832   6.120   1.443   5.294  0.2997  0.3540 -0.3598
18114TIP3    H175833   6.072   1.370   5.333  1.5310 -0.1905  0.1976
18114TIP3    H275834   6.186   1.401   5.238 -0.8079  1.0999 -2.3318
18115TIP3   OH275835   3.989   4.861  13.574 -0.1412 -0.3026  0.2193
18115TIP3    H175836   4.058   4.801  13.543  0.6882  0.6560  0.1684
18115TIP3    H275837   3.907   4.817  13.551  0.4548 -1.0303 -0.5734
18116TIP3   OH275838   2.936   2.375  15.125  0.3295 -0.5295  0.1469
18116TIP3    H175839   2.957   2.294  15.171 -0.7671 -1.1644 -0.4083
18116TIP3    H275840   2.963   2.358  15.034 -1.2745 -0.8874 -0.3039
18117TIP3   OH275841   5.748   6.226   1.401 -0.1467 -0.2032 -0.1862
18117TIP3    H175842   5.751   6.132   1.384 -0.2076 -0.2634  0.1233
18117TIP3    H275843   5.658   6.251   1.382 -0.0361 -0.1330 -0.6346
18118TIP3   OH275844   1.132   4.752   2.935 -0.3815 -0.3394  0.1654
18118TIP3    H175845   1.140   4.704   2.853 -2.0436  1.6378 -1.2748
18118TIP3    H275846   1.220   4.752   2.972  0.4398 -1.1961 -1.6764
18119TIP3   OH275847   5.134   0.216  10.439 -0.0811 -0.3091 -0.1351
18119TIP3    H175848   5.224   0.192  10.418  0.3419  0.9273  0.2135
18119TIP3    H275849   5.081   0.150  10.394  0.9412 -0.1185 -1.7137
18120TIP3   OH275850   3.313   0.411  15.207 -0.2541 -0.8346 -0.2599
18120TIP3    H175851   3.270   0.435  15.125 -0.7226  0.0654  0.2289
18120TIP3    H275852   3.348   0.494  15.240 -0.6403 -1.0701  0.7717
18121TIP3   OH275853   4.033   1.903   5.232  0.5446 -0.0934  0.1633
18121TIP3    H175854   3.944   1.873   5.251 -0.1544  3.1289  2.8670
18121TIP3    H275855   4.089   1.829   5.257 -1.2193 -1.8012 -0.5831
18122TIP3   OH275856   4.724   5.278   3.223  0.0416  0.0822  0.0943
18122TIP3    H175857   4.760   5.324   3.299 -1.8455  1.8611 -0.0049
18122TIP3    H275858   4.746   5.334   3.148 -0.7201 -0.0982 -0.2767
18123TIP3   OH275859   3.665   4.906   4.996 -0.0322  0.5354 -0.6525
18123TIP3    H175860   3.577   4.943   5.000  0.8818  2.8327  0.1445
18123TIP3    H275861   3.670   4.846   5.070 -1.4535 -1.0383 -1.7620
18124TIP3   OH275862   6.820   6.387  15.005  0.0159 -0.2498  0.3451
18124TIP3    H175863   6.738   6.389  15.055 -0.4095 -0.2754 -0.3410
18124TIP3    H275864   6.853   6.298  15.016 -0.5527 -0.5264 -0.1734
18125TIP3   OH275865   0.109   0.484   2.666 -0.5476  0.0951  0.3803
18125TIP3    H175866   0.121   0.409   2.607 -0.6179  1.8351 -2.0380
18125TIP3    H275867   0.075   0.446   2.747  0.7982 -2.6142 -0.1766
18126TIP3   OH275868   1.483   4.311   4.167 -0.0591  0.2355  0.1454
18126TIP3    H175869   1.556   4.321   4.229 -0.1216 -1.0572  0.4703
18126TIP3    H275870   1.492   4.221   4.135  0.1318  0.9659 -1.9702
18127TIP3   OH275871   4.329   3.514  14.128  0.0096 -0.2565  0.0131
18127TIP3    H175872   4.279   3.481  14.053 -0.5474 -0.8990  0.6548
18127TIP3    H275873   4.288   3.598  14.149 -0.2627 -0.3874  0.0112
18128TIP3   OH275874   1.689   1.080  15.954 -0.4648 -0.2840  0.4578
18128TIP3    H175875   1.777   1.043  15.960 -0.7816 -0.9923  0.9035
18128TIP3    H275876   1.688   1.127  15.871 -0.2889 -1.9627 -0.5497
18129TIP3   OH275877   0.403   5.294  12.968 -0.8672  0.2158  0.3975
18129TIP3    H175878   0.370   5.357  13.033  0.2845  1.6077 -0.3156
18129TIP3    H275879   0.462   5.345  12.913  0.9044 -1.7269  0.3982
18130TIP3   OH275880   3.546   4.712  12.726  0.1281 -0.2442  0.2996
18130TIP3    H175881   3.471   4.689  12.780 -0.7799 -0.3998 -0.9648
18130TIP3    H275882   3.573   4.798  12.758 -0.6619 -0.1363  0.7051
18131TIP3   OH275883   4.596   0.844   5.985 -0.2032  0.0095  0.1667
18131TIP3    H175884   4.607   0.762   6.032  3.4726 -0.2124 -0.8124
18131TIP3    H275885   4.561   0.819   5.899  0.9775 -0.5637 -0.1527
18132TIP3   OH275886   0.420   1.420   3.879  0.1222 -0.5826  0.4996
18132TIP3    H175887   0.365   1.352   3.839 -0.3211  0.9223 -1.6355
18132TIP3    H275888   0.364   1.462   3.944 -0.7122 -0.2154 -0.4304
18133TIP3   OH275889   1.123   5.054   4.000 -0.3967 -0.4979  0.3406
18133TIP3    H175890   1.112   4.990   4.070 -1.0112  0.2900  0.9758
18133TIP3    H275891   1.054   5.119   4.015  0.9123  0.9476  0.4096
18134TIP3   OH275892   1.870   3.699  12.915 -0.0088  0.3936 -0.6498
18134TIP3    H175893   1.790   3.748  12.899  0.3480  1.3000  0.2642
18134TIP3    H275894   1.934   3.765  12.942  0.1203 -0.6838  1.9215
18135TIP3   OH275895   6.059   2.564  15.418 -0.2205  0.3108 -0.1712
18135TIP3    H175896   5.995   2.503  15.382  0.1049  0.0648 -0.3318
18135TIP3    H275897   6.028   2.582  15.507 -0.9646  0.8322 -0.5206
18136TIP3   OH275898   1.923   3.361   1.321  0.5165 -0.5664 -0.6427
18136TIP3    H175899   2.008   3.374   1.361  0.1508 -1.1515  0.3781
18136TIP3    H275900   1.924   3.269   1.292 -0.2840 -1.0487  0.7501
18137TIP3   OH275901   3.862   2.292   3.639  0.2762 -0.0831  0.0787
18137TIP3    H175902   3.824   2.307   3.553  0.4437 -1.1758 -0.2061
18137TIP3    H275903   3.788   2.292   3.699 -0.1256 -1.4537 -0.3733
18138TIP3   OH275904   2.744   4.746  10.270  0.1654  0.3744  0.4307
18138TIP3    H175905   2.733   4.814  10.336 -2.3700 -2.2222  2.9848
18138TIP3    H275906   2.747   4.664  10.320  4.3774 -1.5221 -2.3187
18139TIP3   OH275907   5.975   3.372   2.233 -0.1550 -0.3652  0.0318
18139TIP3    H175908   5.892   3.359   2.279 -0.0418 -1.9123 -0.1510
18139TIP3    H275909   6.042   3.345   2.295  0.0625 -1.3109 -0.5835
18140TIP3   OH275910   0.693   1.884  11.917 -0.0001 -0.9103  0.2810
18140TIP3    H175911   0.778   1.883  11.873 -0.2847 -0.0623 -0.3117
18140TIP3    H275912   0.713   1.919  12.005  0.1905 -0.2019 -0.0369
18141TIP3   OH275913   5.999   0.636   0.506  0.7010  0.5649  0.1869
18141TIP3    H175914   5.948   0.564   0.544  0.3694  1.2037  0.9868
18141TIP3    H275915   5.974   0.637   0.414  1.4007 -0.9240 -0.0521
18142TIP3   OH275916   4.703   6.478   3.027 -0.2437  0.5948 -0.6392
18142TIP3    H175917   4.755   6.439   3.097  0.8612  1.7588 -0.7726
18142TIP3    H275918   4.663   6.404   2.982  1.2048 -0.3359 -0.4429
18143TIP3   OH275919   6.728   0.302  15.402  0.1607  0.2626 -0.0419
18143TIP3    H175920   6.774   0.382  15.378 -1.0449  0.6861 -1.0253
18143TIP3    H275921   6.656   0.296  15.340  0.3665 -1.7417 -0.1570
18144TIP3   OH275922   4.658   5.938  15.227  0.9245 -0.0213 -0.2481
18144TIP3    H175923   4.573   5.908  15.258  0.4531  1.2034 -0.3144
18144TIP3    H275924   4.695   5.862  15.182 -0.3942 -0.3826 -0.7630
18145TIP3   OH275925   3.356   3.579  11.156  0.4649 -0.2383  0.0768
18145TIP3    H175926   3.445   3.612  11.164  0.1735  0.8080 -0.7959
18145TIP3    H275927   3.305   3.654  11.126 -0.8834 -0.5989  1.3445
18146TIP3   OH275928   3.313   2.409  15.232 -0.0439  0.1865  0.3974
18146TIP3    H175929   3.354   2.440  15.313  1.1987  0.2126 -0.2287
18146TIP3    H275930   3.338   2.317  15.226  0.1287  0.2657 -0.1204
18147TIP3   OH275931   4.254   5.613  11.302 -0.1955  0.1860  0.1099
18147TIP3    H175932   4.264   5.542  11.239  1.2000 -0.2094  0.7472
18147TIP3    H275933   4.272   5.693  11.252  0.1922 -0.0653 -0.1527
18148TIP3   OH275934   4.143   0.915  16.650  0.3438  0.1474 -0.0453
18148TIP3    H175935   4.192   0.837  16.676 -2.3123 -2.0052 -1.0216
18148TIP3    H275936   4.152   0.919  16.555 -0.6387  0.2045 -0.1477
18149TIP3   OH275937   6.799   3.369   3.410  0.3412 -0.2951 -0.1674
18149TIP3    H175938   6.866   3.426   3.449  1.5017 -1.3880 -0.4736
18149TIP3    H275939   6.721   3.383   3.462  0.6561  1.3980 -0.0905
18150TIP3   OH275940   2.619   4.843   0.427 -0.2152 -0.9443  0.5598
18150TIP3    H175941   2.679   4.801   0.365 -2.4093 -1.4917 -1.3369
18150TIP3    H275942   2.597   4.773   0.488 -2.5795 -2.3070 -1.6286
18151TIP3   OH275943   4.458   4.304  15.477  0.9382 -0.2385 -0.0143
18151TIP3    H175944   4.514   4.286  15.552  1.1315  0.0845 -0.0814
18151TIP3    H275945   4.403   4.378  15.505  0.9289 -0.1949 -0.1445
18152TIP3   OH275946   6.567   4.680  13.891 -0.0378  0.1547 -0.0913
18152TIP3    H175947   6.590   4.740  13.962  2.2049  0.1909 -0.7729
18152TIP3    H275948   6.594   4.726  13.812 -0.5233 -0.7697 -0.8129
18153TIP3   OH275949   4.197   6.141  12.250  1.1902  0.3147  0.4396
18153TIP3    H175950   4.164   6.230  12.262  2.5950  0.7021  1.6472
18153TIP3    H275951   4.123   6.085  12.273  0.3487  1.1372 -0.1402
18154TIP3   OH275952   3.634   2.410   1.843  0.3263 -0.6809  0.3034
18154TIP3    H175953   3.586   2.340   1.798 -2.1156  0.9796  0.1410
18154TIP3    H275954   3.669   2.464   1.773  0.9044 -0.8825  0.4309
18155TIP3   OH275955   2.160   3.608   5.850 -0.8090 -0.2353 -0.0958
18155TIP3    H175956   2.236   3.625   5.794 -1.3670  2.0230 -0.2326
18155TIP3    H275957   2.186   3.639   5.936 -1.0609 -0.8757  0.2246
18156TIP3   OH275958   2.077   4.076   3.694  0.5114 -0.0236  0.2436
18156TIP3    H175959   2.167   4.101   3.716 -0.0037  0.9342  1.3795
18156TIP3    H275960   2.030   4.159   3.687 -0.3605 -0.5294 -0.0066
18157TIP3   OH275961   6.134   0.804   5.181  0.3423  0.5828  0.3625
18157TIP3    H175962   6.118   0.803   5.087  0.4129 -2.1781  0.3061
18157TIP3    H275963   6.161   0.894   5.200  0.5637  1.1426 -2.2824
18158TIP3   OH275964   5.275   0.616   2.103 -0.0775  0.0061  0.4582
18158TIP3    H175965   5.251   0.707   2.124 -3.4244 -1.0704  1.9644
18158TIP3    H275966   5.197   0.581   2.060  0.1042 -2.8485  2.2416
18159TIP3   OH275967   0.558   2.093   4.747  0.3985 -0.3197  0.6881
18159TIP3    H175968   0.580   2.105   4.840  2.5717 -0.1195  0.1914
18159TIP3    H275969   0.601   2.012   4.722  1.3656  0.5560 -0.5763
18160TIP3   OH275970   3.126   2.976   4.988 -0.5281 -0.7807 -0.1433
18160TIP3    H175971   3.165   2.927   4.915 -1.4770 -0.7727 -0.6883
18160TIP3    H275972   3.095   3.057   4.948  0.5441  0.0437  0.6494
18161TIP3   OH275973   6.158   4.411  13.398 -0.0813 -0.3431  0.4160
18161TIP3    H175974   6.220   4.423  13.325 -0.8703 -0.8093 -0.3537
18161TIP3    H275975   6.073   4.433  13.360 -0.5660 -1.0856  1.0597
18162TIP3   OH275976   0.745   1.893   4.671  0.2548  0.1725  0.3430
18162TIP3    H175977   0.792   1.830   4.615 -0.0868 -0.4493  0.7494
18162TIP3    H275978   0.811   1.959   4.692  1.3115 -1.2691  1.8243
18163TIP3   OH275979   5.860   5.730  16.532 -0.0516  0.4538 -0.4959
18163TIP3    H175980   5.827   5.805  16.484  0.6954  1.9649  1.2336
18163TIP3    H275981   5.783   5.691  16.573 -0.2890  1.1503 -0.2695
18164TIP3   OH275982   4.206   6.776   2.632  0.1140  0.3441 -0.5946
18164TIP3    H175983   4.165   6.844   2.578  0.1012 -0.5659 -1.7459
18164TIP3    H275984   4.151   6.699   2.620  0.1538  0.0921  0.6731
18165TIP3   OH275985   0.680   0.517   4.548  0.0693 -0.0139  0.3753
18165TIP3    H175986   0.631   0.566   4.482  0.6447 -1.4119 -1.1381
18165TIP3    H275987   0.757   0.485   4.502  1.0427 -0.1631  2.0125
18166TIP3   OH275988   2.073   2.361   2.388 -0.1265 -0.8207 -0.0677
18166TIP3    H175989   2.080   2.443   2.437 -0.0740 -0.4123 -0.7452
18166TIP3    H275990   2.037   2.298   2.451 -1.6637  0.1161  0.0477
18167TIP3   OH275991   5.643   4.780   5.457  0.2631 -0.4858 -0.3247
18167TIP3    H175992   5.659   4.869   5.488 -0.4699 -0.2746 -0.5254
18167TIP3    H275993   5.706   4.767   5.385 -1.8465  1.1472 -2.6300
18168TIP3   OH275994   5.556   1.977   5.516  0.3103 -0.0474  0.5599
18168TIP3    H175995   5.586   2.026   5.592 -1.2869 -0.8263  1.7741
18168TIP3    H275996   5.538   1.889   5.550  0.7445 -0.7674 -1.0040
18169TIP3   OH275997   4.387   4.255  11.498  0.0922 -0.2824 -0.3474
18169TIP3    H175998   4.319   4.213  11.445 -0.0620 -0.6756  0.1496
18169TIP3    H275999   4.373   4.349  11.486 -0.8688 -0.3526  0.1537
18170TIP3   OH276000   5.216   0.282  14.743 -0.7483  0.2241 -0.0682
18170TIP3    H176001   5.141   0.333  14.772 -0.8432  0.0952 -0.0897
18170TIP3    H276002   5.283   0.297  14.810 -0.2766  1.5160 -0.7736
18171TIP3   OH276003   3.421   5.884   4.185 -0.0870  0.0543  0.6554
18171TIP3    H176004   3.395   5.820   4.120  1.6020  0.9558 -1.0184
18171TIP3    H276005   3.339   5.912   4.226 -1.1273 -1.0471 -0.5905
18172TIP3   OH276006   0.794   2.698   5.163 -0.7140  0.0249  0.8991
18172TIP3    H176007   0.711   2.671   5.202 -1.0361 -0.4505 -0.0786
18172TIP3    H276008   0.861   2.665   5.223 -1.1872 -0.9398  0.9063
18173TIP3   OH276009   3.828   5.884   4.500 -0.2905  0.0184 -0.3406
18173TIP3    H176010   3.854   5.795   4.523  1.2059  0.9988  2.1643
18173TIP3    H276011   3.735   5.878   4.482 -0.1986 -2.0568 -0.3792
18174TIP3   OH276012   0.796   6.520  13.438  0.1726 -0.0917 -0.1430
18174TIP3    H176013   0.771   6.447  13.382  0.9432  0.9125 -1.8732
18174TIP3    H276014   0.844   6.480  13.510 -2.1833 -1.5655  0.6893
18175TIP3   OH276015   2.669   3.447   0.975  0.6252  0.2921  0.0580
18175TIP3    H176016   2.659   3.359   1.011  2.8890  0.6290  1.7475
18175TIP3    H276017   2.736   3.487   1.029  0.6208  2.6224 -1.5242
18176TIP3   OH276018   0.466   6.700  12.759  0.2808  0.4180 -0.3832
18176TIP3    H176019   0.412   6.694  12.838 -2.0973  3.0605 -1.6349
18176TIP3    H276020   0.485   6.609  12.736 -1.9874 -0.5732  1.2392
18177TIP3   OH276021   4.727   3.273   5.228 -0.4122  0.2713 -0.0387
18177TIP3    H176022   4.665   3.295   5.297 -0.7202 -0.0193 -0.2163
18177TIP3    H276023   4.700   3.186   5.199  0.5372 -0.1803  0.3881
18178TIP3   OH276024   0.142   0.080  15.646 -0.1464 -0.2652 -0.2761
18178TIP3    H176025   0.130   0.058  15.739  2.6636  2.0759  0.7996
18178TIP3    H276026   0.222   0.034  15.621 -2.2516 -3.0528 -2.4832
18179TIP3   OH276027   1.304   6.400  12.601 -0.8179  0.3169  0.2782
18179TIP3    H176028   1.322   6.486  12.638 -1.8301  0.7422 -0.1801
18179TIP3    H276029   1.375   6.344  12.634 -1.3168  0.8015  2.3344
18180TIP3   OH276030   0.002   5.165   2.571 -0.3621  0.4193 -0.5682
18180TIP3    H176031   0.082   5.188   2.523  0.8472  0.0544  1.1912
18180TIP3    H276032  -0.003   5.228   2.642 -0.5384 -0.7417  0.4951
18181TIP3   OH276033   2.937   3.870   0.381  0.4119 -0.1239  0.1792
18181TIP3    H176034   2.878   3.795   0.370  0.2850 -0.3705  2.1515
18181TIP3    H276035   2.943   3.908   0.293 -0.4573 -1.7356 -0.6421
18182TIP3   OH276036   0.992   4.205   1.631 -0.3526  0.1177 -0.1220
18182TIP3    H176037   1.005   4.289   1.587  1.7894  0.1440  0.4295
18182TIP3    H276038   0.988   4.141   1.560  0.5804  0.4280 -0.4735
18183TIP3   OH276039   5.445   4.050  11.375 -0.2198  0.2361  0.0745
18183TIP3    H176040   5.374   4.054  11.311 -0.3002  0.2316  0.1621
18183TIP3    H276041   5.488   3.967  11.358  0.4933  0.7538 -0.7436
18184TIP3   OH276042   2.352   3.300  15.083 -0.5801  0.3988 -0.1192
18184TIP3    H176043   2.348   3.213  15.122 -0.9326  0.2198 -0.5443
18184TIP3    H276044   2.405   3.351  15.144 -0.2686 -0.1439  0.0721
18185TIP3   OH276045   3.311   1.557   4.693 -0.1330  0.0632 -0.1974
18185TIP3    H176046   3.335   1.649   4.695 -1.9723  0.6399 -1.5691
18185TIP3    H276047   3.358   1.521   4.618 -0.8309  0.3417 -0.7729
18186TIP3   OH276048   1.539   0.162  13.760 -0.0838 -0.1021 -0.0385
18186TIP3    H176049   1.569   0.198  13.676  2.4244 -0.1147  0.7618
18186TIP3    H276050   1.528   0.239  13.816  0.9766 -0.2639  0.4052
18187TIP3   OH276051   2.876   2.872   1.308  0.2169 -0.2290  0.0547
18187TIP3    H176052   2.830   2.790   1.291 -2.6466  1.4319 -0.9065
18187TIP3    H276053   2.869   2.920   1.226  1.0401  1.3496  0.8714
18188TIP3   OH276054   5.350   2.578  12.052 -0.3943  0.2725  0.1422
18188TIP3    H176055   5.431   2.630  12.048  1.0600 -1.8993 -1.5578
18188TIP3    H276056   5.367   2.513  12.121 -0.8321  0.0213  0.0144
18189TIP3   OH276057   4.770   5.151  11.837  0.4218  0.1574  0.8405
18189TIP3    H176058   4.852   5.126  11.794  0.6375  1.8353  0.2292
18189TIP3    H276059   4.797   5.184  11.923  0.3221  0.1262  0.8839
18190TIP3   OH276060   1.535   5.558  15.976  0.4248 -0.0653  0.5267
18190TIP3    H176061   1.501   5.484  15.925  1.3993 -0.2455  0.1103
18190TIP3    H276062   1.472   5.629  15.960  0.4524 -0.2641 -0.5505
18191TIP3   OH276063   1.071   2.188   4.366  0.4148  0.4392 -0.4196
18191TIP3    H176064   1.024   2.261   4.408 -2.4751 -0.0591 -2.4719
18191TIP3    H276065   1.027   2.109   4.399  2.5683 -0.3983  0.6698
18192TIP3   OH276066   3.863   6.044   4.912  0.2685 -0.2872  0.3358
18192TIP3    H176067   3.890   6.114   4.852  1.4495 -0.8377  0.1756
18192TIP3    H276068   3.863   5.965   4.857 -1.6572 -0.3492  0.3632
18193TIP3   OH276069   3.109   3.846   4.153  0.2257 -0.0490  0.3820
18193TIP3    H176070   3.112   3.765   4.203  0.0417 -0.6048 -0.4825
18193TIP3    H276071   3.189   3.892   4.176  0.4530 -0.5919  0.6885
18194TIP3   OH276072   6.074   4.883  13.268 -0.3969 -0.2180 -0.8269
18194TIP3    H176073   6.095   4.901  13.359 -1.1454  2.0033 -1.0187
18194TIP3    H276074   6.141   4.821  13.239  0.9352  0.4256  0.7379
18195TIP3   OH276075   6.468   4.297   5.251  0.1886 -0.4198  0.3400
18195TIP3    H176076   6.519   4.376   5.232 -0.0810 -0.5408 -0.9536
18195TIP3    H276077   6.523   4.225   5.221 -0.7571 -0.5443 -1.1911
18196TIP3   OH276078   3.960   4.216  11.642  0.0271  0.2293  0.1808
18196TIP3    H176079   3.969   4.188  11.733 -0.5689 -0.1528  0.1267
18196TIP3    H276080   4.011   4.152  11.592 -0.7899 -0.3910  0.1201
18197TIP3   OH276081   0.100   6.376  14.081 -0.2020 -0.1654 -0.0450
18197TIP3    H176082   0.097   6.471  14.067  0.6064 -0.2668 -0.9583
18197TIP3    H276083   0.183   6.349  14.043 -0.4640 -1.2594  0.1473
18198TIP3   OH276084   0.441   1.198   4.445  0.2016  0.5951 -0.0990
18198TIP3    H176085   0.535   1.201   4.426  0.0164 -0.3989 -1.2926
18198TIP3    H276086   0.399   1.189   4.359 -0.9554  0.4416  0.4621
18199TIP3   OH276087   5.403   0.256  11.549  0.2073 -0.2932  0.1052
18199TIP3    H176088   5.402   0.340  11.594 -1.1044 -0.7651  1.0316
18199TIP3    H276089   5.445   0.196  11.611  1.4616 -0.2797 -0.6890
18200TIP3   OH276090   2.439   3.474   0.669  0.2064  0.0936  0.4019
18200TIP3    H176091   2.470   3.395   0.712 -0.0321 -0.5283 -0.5422
18200TIP3    H276092   2.351   3.452   0.638 -0.6514  1.3542  1.7859
18201TIP3   OH276093   5.468   0.204   5.262 -0.2612 -0.2659 -0.3714
18201TIP3    H176094   5.428   0.284   5.295  3.6307  1.4259  0.9585
18201TIP3    H276095   5.550   0.196   5.312 -0.4494 -5.2403 -0.2924
18202TIP3   OH276096   4.234   6.440  13.719  0.2045  0.2902  0.1979
18202TIP3    H176097   4.235   6.534  13.700  0.9308  0.1011 -0.7817
18202TIP3    H276098   4.156   6.407  13.675  0.2783  0.3406  0.0273
18203TIP3   OH276099   6.682   4.799   5.400 -0.7493 -0.2815  0.3322
18203TIP3    H176100   6.768   4.838   5.418 -0.0821 -0.3339 -2.2278
18203TIP3    H276101   6.638   4.798   5.484  1.4051  0.6314  1.5717
18204TIP3   OH276102   0.784   3.203  10.343  0.0490  0.4228 -0.0998
18204TIP3    H176103   0.837   3.273  10.382  2.2436 -0.7809 -0.7938
18204TIP3    H276104   0.842   3.162  10.278 -1.2911 -1.8249  0.0444
18205TIP3   OH276105   4.316   5.470   2.692 -0.2507  0.6325  0.5916
18205TIP3    H176106   4.379   5.542   2.691 -0.7159  1.0879  2.1468
18205TIP3    H276107   4.344   5.412   2.620  0.8706  1.7134  0.1364
18206TIP3   OH276108   5.007   2.346   4.404  0.0695 -0.0463 -0.3250
18206TIP3    H176109   5.070   2.397   4.353  2.1559 -0.4686  1.6458
18206TIP3    H276110   5.050   2.261   4.416  0.0064  0.2571  2.6243
18207TIP3   OH276111   1.236   6.766   5.177  0.4584  0.0627  0.0561
18207TIP3    H176112   1.208   6.856   5.191 -3.8067 -1.3534  2.8404
18207TIP3    H276113   1.187   6.737   5.100 -1.6292 -0.8764  1.6318
18208TIP3   OH276114   6.687   2.276   1.901  0.1619 -0.2689 -0.2684
18208TIP3    H176115   6.757   2.231   1.948 -0.3499 -0.5641  0.2262
18208TIP3    H276116   6.710   2.369   1.906  0.8662 -0.4083 -0.7027
18209TIP3   OH276117   6.078   0.050   0.601  0.2971  0.0189 -0.1618
18209TIP3    H176118   6.059   0.143   0.607 -1.3353 -0.3371  0.6502
18209TIP3    H276119   5.997   0.011   0.568  0.3313 -1.3188  1.2440
18210TIP3   OH276120   4.269   4.181   0.909  0.3203  0.0438 -0.4017
18210TIP3    H176121   4.256   4.245   0.840  1.4420 -0.2749 -0.9317
18210TIP3    H276122   4.239   4.098   0.871  0.0420  0.0316 -0.1613
18211TIP3   OH276123   5.481   1.996  11.452 -0.0369 -0.3212  0.0172
18211TIP3    H176124   5.556   1.962  11.401  0.6055 -1.3651  1.5931
18211TIP3    H276125   5.473   1.936  11.525 -0.9853  1.1080  1.1314
18212TIP3   OH276126   4.022   2.481   5.718 -0.2402 -0.1162 -0.6295
18212TIP3    H176127   4.069   2.399   5.736  2.2077  1.1716 -0.6888
18212TIP3    H276128   4.020   2.486   5.622  0.2340  0.1905 -0.6291
18213TIP3   OH276129   0.207   2.570   0.159 -0.0225  0.2515 -0.5696
18213TIP3    H176130   0.262   2.497   0.187 -1.0795  0.0592  1.1246
18213TIP3    H276131   0.265   2.624   0.105  1.4950 -0.5149  0.2218
18214TIP3   OH276132   2.596   6.582  15.228 -0.4401  0.5212 -0.0006
18214TIP3    H176133   2.597   6.493  15.264 -0.0305  1.3432  2.1475
18214TIP3    H276134   2.670   6.584  15.167  0.3692 -0.2191  0.9354
18215TIP3   OH276135   4.961   0.334  14.374  0.3814 -0.0600 -0.5523
18215TIP3    H176136   4.905   0.408  14.398  0.3743  0.4675 -2.1259
18215TIP3    H276137   4.906   0.279  14.319  0.7563 -0.6311 -0.3625
18216TIP3   OH276138   2.931   1.487   1.311  0.2058  0.0233 -0.0045
18216TIP3    H176139   2.897   1.406   1.273 -1.0647  0.5938 -0.1389
18216TIP3    H276140   2.894   1.490   1.399 -0.3096  0.7895 -0.2422
18217TIP3   OH276141   3.867   3.481  14.911 -0.3864 -0.6000 -0.4813
18217TIP3    H176142   3.914   3.423  14.971 -1.0037  0.1973  0.8024
18217TIP3    H276143   3.871   3.435  14.827  0.8317 -1.5581  0.0567
18218TIP3   OH276144   3.543   5.092   3.309  0.7338 -0.0588  0.2976
18218TIP3    H176145   3.493   5.021   3.350 -0.3178 -0.0349 -0.8564
18218TIP3    H276146   3.509   5.096   3.219  0.7196  1.9303  0.3421
18219TIP3   OH276147   0.826   5.120  13.044  0.0586 -0.0752  0.5362
18219TIP3    H176148   0.811   5.213  13.026  0.4167 -0.2230 -0.6155
18219TIP3    H276149   0.793   5.075  12.966 -1.0285 -1.0027  1.4967
18220TIP3   OH276150   4.951   4.490  10.603  0.0167  0.5165  0.3045
18220TIP3    H176151   4.911   4.542  10.534  1.6916 -0.1316 -1.2626
18220TIP3    H276152   4.891   4.416  10.616 -0.6656  1.0246  0.0634
18221TIP3   OH276153   2.750   6.718  16.421  0.3774 -0.0144  0.3535
18221TIP3    H176154   2.662   6.713  16.382 -0.1129  1.2594  1.2109
18221TIP3    H276155   2.736   6.698  16.513  1.1870 -0.9363  0.2808
18222TIP3   OH276156   0.985   0.455   1.020  0.7477  0.2663 -0.1778
18222TIP3    H176157   0.945   0.417   0.942 -0.7287  2.0619 -0.3570
18222TIP3    H276158   0.940   0.413   1.093  1.1293 -0.3735 -0.3006
18223TIP3   OH276159   3.931   4.254   6.856  0.0669  0.1256  0.2015
18223TIP3    H176160   3.986   4.194   6.907  0.6180 -1.4632 -2.0616
18223TIP3    H276161   3.992   4.295   6.794 -0.9019  0.2246 -0.7040
18224TIP3   OH276162   4.020   5.530   2.036 -0.5625  0.6812 -0.0970
18224TIP3    H176163   4.072   5.450   2.027 -0.4541  0.8123 -0.6936
18224TIP3    H276164   3.936   5.508   1.997 -1.1348  0.3184  1.2951
18225TIP3   OH276165   0.182   1.203  13.334  0.7276  0.3272 -0.2743
18225TIP3    H176166   0.131   1.177  13.411  1.1347 -0.1491 -0.1603
18225TIP3    H276167   0.134   1.165  13.260 -0.5236  2.0684 -0.4223
18226TIP3   OH276168   1.444   5.486  14.868  0.0745  0.3588 -0.4016
18226TIP3    H176169   1.442   5.581  14.855 -0.5383  0.2103 -1.4883
18226TIP3    H276170   1.352   5.461  14.872  0.2228  0.0213  1.6807
18227TIP3   OH276171   0.496   4.782  12.990  0.1387  0.3291  0.3341
18227TIP3    H176172   0.418   4.772  12.936 -0.4949 -0.9765  1.4459
18227TIP3    H276173   0.491   4.872  13.022 -2.8955 -0.6355  3.2128
18228TIP3   OH276174   4.850   2.674   3.361 -0.1595 -0.3213 -0.1872
18228TIP3    H176175   4.829   2.583   3.343 -0.3848 -0.0654 -1.2456
18228TIP3    H276176   4.918   2.697   3.298 -1.8151  0.9333 -1.6202
18229TIP3   OH276177   0.396   1.994  14.690 -0.4955  1.0125 -0.0460
18229TIP3    H176178   0.364   1.997  14.600 -1.0382 -0.1565  0.0932
18229TIP3    H276179   0.436   2.080  14.705  0.1283  1.0135 -1.5871
18230TIP3   OH276180   3.010   5.267  15.654 -0.1404  0.3439  0.1124
18230TIP3    H176181   3.031   5.355  15.621  2.6049 -0.6670 -1.1763
18230TIP3    H276182   2.954   5.230  15.586  0.8232  0.2495 -0.6595
18231TIP3   OH276183   1.922   4.638   2.840 -0.6496  0.3678 -0.5893
18231TIP3    H176184   1.951   4.575   2.774  1.0862  0.8602 -0.3292
18231TIP3    H276185   1.894   4.714   2.789 -1.8157 -0.1956 -0.8493
18232TIP3   OH276186   6.753   3.283   2.785 -0.5672 -0.0888  0.2744
18232TIP3    H176187   6.707   3.284   2.701  1.2567  1.9455 -0.8411
18232TIP3    H276188   6.770   3.376   2.804  1.2905 -0.6210  1.5630
18233TIP3   OH276189   5.949   1.300  11.395  0.0164  0.4485 -0.1107
18233TIP3    H176190   5.979   1.379  11.350  0.9074 -0.2761 -0.8255
18233TIP3    H276191   5.957   1.230  11.330 -0.5329 -0.2811  0.5772
18234TIP3   OH276192   0.849   4.649  13.361  0.5666 -0.3858  0.0792
18234TIP3    H176193   0.783   4.580  13.371  0.8248 -0.4622  1.2924
18234TIP3    H276194   0.840   4.703  13.439  0.6682  0.7145 -0.6452
18235TIP3   OH276195   5.331   3.190   5.743 -0.0988 -0.0774 -0.6493
18235TIP3    H176196   5.253   3.237   5.714  0.0790 -0.0592 -1.1234
18235TIP3    H276197   5.330   3.197   5.838  1.0217  2.7417 -0.7419
18236TIP3   OH276198   1.662   6.146   0.159  0.3345  0.1546  0.0306
18236TIP3    H176199   1.608   6.166   0.236  2.6792  0.8410  1.5983
18236TIP3    H276200   1.603   6.158   0.085 -1.7385  0.5343  1.6450
18237TIP3   OH276201   0.606   0.996   0.169  0.0652 -0.7051 -0.0601
18237TIP3    H176202   0.571   1.054   0.102 -0.0568 -0.5038  0.1781
18237TIP3    H276203   0.529   0.951   0.205  0.1143 -0.7053  0.0463
18238TIP3   OH276204   3.920   0.946  11.054 -0.2463  0.1358 -0.6632
18238TIP3    H176205   3.975   0.963  10.978  0.0930  2.0007 -0.0371
18238TIP3    H276206   3.870   1.026  11.066  0.1931  0.1467  1.4770
18239TIP3   OH276207   1.448   5.632   1.217  0.7041 -0.0220  0.2102
18239TIP3    H176208   1.520   5.675   1.170 -1.3850  3.9486  0.1544
18239TIP3    H276209   1.383   5.614   1.149  0.7377 -1.6084  0.5611
18240TIP3   OH276210   2.267   6.020  12.622  0.0999  0.5358 -0.1157
18240TIP3    H176211   2.263   6.095  12.564  2.6801  0.2074 -0.8595
18240TIP3    H276212   2.248   5.945  12.566  1.1857  0.3448 -0.2510
18241TIP3   OH276213   5.286   4.912  16.588 -0.2672  0.5444  0.1942
18241TIP3    H176214   5.222   4.891  16.520  1.0246  0.8651 -1.1768
18241TIP3    H276215   5.297   5.007  16.583  0.7726  0.4258 -0.0299
18242TIP3   OH276216   2.571   4.729  12.309  0.6978  0.5195 -0.3137
18242TIP3    H176217   2.517   4.755  12.234  1.4778  0.2998 -0.9762
18242TIP3    H276218   2.530   4.771  12.384 -1.0936 -0.6334 -0.5962
18243TIP3   OH276219   6.736   0.572   5.071  0.3677  0.2472  0.1806
18243TIP3    H176220   6.752   0.478   5.077  1.2305  0.3685 -0.0462
18243TIP3    H276221   6.722   0.599   5.162  2.7740  0.3196  0.5991
18244TIP3   OH276222   3.578   4.047  15.474  0.2525  0.0377  0.4310
18244TIP3    H176223   3.546   4.042  15.564  2.3315 -1.4458  1.1742
18244TIP3    H276224   3.586   3.955  15.447 -0.0676  0.4586 -1.1711
18245TIP3   OH276225   6.497   3.698  13.309 -0.3610  0.3092  0.1282
18245TIP3    H176226   6.513   3.778  13.259  1.1645  1.0420  1.6915
18245TIP3    H276227   6.536   3.715  13.394 -1.5575 -1.4606  1.0873
18246TIP3   OH276228   3.707   0.371   1.607 -0.0057  0.1225 -0.2174
18246TIP3    H176229   3.681   0.451   1.560  1.1333  0.4072 -0.3849
18246TIP3    H276230   3.676   0.300   1.551  0.0107  0.4549 -0.6617
18247TIP3   OH276231   6.745   4.249  14.701 -0.3158  0.0646  0.0025
18247TIP3    H176232   6.821   4.191  14.690  1.8932  2.5432  1.0183
18247TIP3    H276233   6.716   4.267  14.612  2.1015  1.1836 -0.6603
18248TIP3   OH276234   0.070   4.285  12.731  0.4090 -0.3558 -0.0665
18248TIP3    H176235  -0.019   4.320  12.730 -0.7986 -3.0905  0.9250
18248TIP3    H276236   0.073   4.226  12.655  1.0311 -0.9923  0.4371
18249TIP3   OH276237   2.024   6.216   2.488 -0.3528  0.0660  0.7249
18249TIP3    H176238   2.113   6.248   2.474 -0.1539 -0.2628  1.1907
18249TIP3    H276239   2.009   6.152   2.418  0.3517 -1.0175  1.5364
18250TIP3   OH276240   2.769   1.837  14.526 -0.3581 -0.4005  0.0198
18250TIP3    H176241   2.829   1.792  14.466  0.1479  1.3581 -0.8751
18250TIP3    H276242   2.801   1.927  14.528 -1.4871  0.0014  1.5302
18251TIP3   OH276243   3.161   0.778   4.312  0.4337  0.1378  0.1845
18251TIP3    H176244   3.119   0.816   4.235  0.2354 -2.6833 -1.2012
18251TIP3    H276245   3.172   0.853   4.372 -1.0941  2.0773 -1.7793
18252TIP3   OH276246   4.768   6.762   0.362  0.0014  0.2304  0.0554
18252TIP3    H176247   4.819   6.822   0.417 -0.7505  0.6290  0.3222
18252TIP3    H276248   4.830   6.735   0.294 -0.0189  2.3887 -0.9020
18253TIP3   OH276249   0.094   0.864   5.766 -0.2197  0.1199 -0.4125
18253TIP3    H176250   0.026   0.845   5.831 -0.2520  0.2406 -0.4098
18253TIP3    H276251   0.173   0.878   5.818 -0.8057  3.0268 -0.1260
18254TIP3   OH276252   2.452   5.865  12.404 -0.4914 -0.1690  0.1761
18254TIP3    H176253   2.433   5.801  12.473 -0.7619 -1.6600 -1.2384
18254TIP3    H276254   2.382   5.853  12.340  0.2609  0.5555 -0.8001
18255TIP3   OH276255   4.628   5.086  13.723  0.4358 -0.0699 -0.5087
18255TIP3    H176256   4.605   5.078  13.816  0.6091  2.2458 -0.1824
18255TIP3    H276257   4.718   5.119  13.725  0.0099  1.2082 -1.4375
18256TIP3   OH276258   0.158   2.532   4.478  0.0108  0.1092 -0.2316
18256TIP3    H176259   0.217   2.524   4.553 -1.4121  2.5069  1.2517
18256TIP3    H276260   0.127   2.443   4.463  0.4664 -0.4779  1.9442
18257TIP3   OH276261   2.830   6.114   1.924 -0.0487 -0.2949  0.2572
18257TIP3    H176262   2.838   6.165   1.843 -2.0102  2.2722  1.5105
18257TIP3    H276263   2.907   6.137   1.975  0.1942 -0.3313 -0.0960
18258TIP3   OH276264   2.594   4.634   0.616  0.2444 -0.5655  0.1438
18258TIP3    H176265   2.676   4.607   0.658 -0.3075 -1.9113  0.4308
18258TIP3    H276266   2.539   4.556   0.620 -1.4212  0.5848  0.8392
18259TIP3   OH276267   2.547   2.358  13.541 -0.0538  0.0289  0.1392
18259TIP3    H176268   2.562   2.296  13.470 -1.0632  0.3245 -0.3499
18259TIP3    H276269   2.451   2.364  13.548  0.0127  1.6756  0.0362
18260TIP3   OH276270   5.933   6.602  11.413  0.1329  0.0899 -0.1978
18260TIP3    H176271   5.881   6.639  11.342 -0.0071  1.0652  0.3953
18260TIP3    H276272   5.984   6.676  11.448  0.6903 -0.5050  0.2931
18261TIP3   OH276273   1.952   2.047  12.565 -0.0440  0.2458  0.0306
18261TIP3    H176274   1.947   2.015  12.475 -1.0996  0.2122  0.0848
18261TIP3    H276275   2.031   2.008  12.601  0.1253 -0.1253 -0.7332
18262TIP3   OH276276   5.587   2.133  12.479 -0.2881  0.7299 -0.5503
18262TIP3    H176277   5.679   2.118  12.457  0.2505 -0.4897  2.1344
18262TIP3    H276278   5.549   2.045  12.481 -1.8513  1.2882 -2.6953
18263TIP3   OH276279   3.832   6.448   0.825  0.2144  0.3078 -0.1838
18263TIP3    H176280   3.845   6.470   0.732  0.2057 -0.9103 -0.4875
18263TIP3    H276281   3.765   6.510   0.854  0.4033  0.8824 -0.9154
18264TIP3   OH276282   2.473   3.456   4.712 -0.0482 -0.4506  0.3441
18264TIP3    H176283   2.403   3.419   4.767  1.3533 -1.7964  1.3015
18264TIP3    H276284   2.459   3.416   4.626 -0.1218 -1.1681  0.6840
18265TIP3   OH276285   3.077   4.561  12.750  0.0047  0.1086  0.5736
18265TIP3    H176286   3.098   4.543  12.659 -2.7979 -0.5081 -0.0246
18265TIP3    H276287   3.076   4.656  12.756 -0.9459  0.1763 -0.3745
18266TIP3   OH276288   4.988   5.979  16.762  0.9832 -0.1354  0.5119
18266TIP3    H176289   4.952   6.023  16.685 -1.6939  0.4483  1.9569
18266TIP3    H276290   4.911   5.955  16.814  2.6324 -1.4857  2.4899
18267TIP3   OH276291   1.056   3.641   2.474 -0.1993 -0.3821 -0.2747
18267TIP3    H176292   0.970   3.625   2.437 -1.0437  2.7017  0.0116
18267TIP3    H276293   1.050   3.610   2.564 -0.9202 -0.4867 -0.3568
18268TIP3   OH276294   2.123   0.074  16.053 -0.2340 -0.2805 -0.5580
18268TIP3    H176295   2.103   0.052  15.962  0.2491 -0.9382 -0.5104
18268TIP3    H276296   2.053   0.033  16.103  0.9156 -2.2027 -0.4280
18269TIP3   OH276297   0.376   2.666   2.207  0.2433  0.7608  0.3177
18269TIP3    H176298   0.344   2.656   2.296 -0.4649 -0.8373 -0.0721
18269TIP3    H276299   0.471   2.655   2.214  0.0645 -0.7190  0.7308
18270TIP3   OH276300   2.066   5.956  15.058 -0.0059  0.4161 -0.5632
18270TIP3    H176301   2.129   5.885  15.069 -1.5402 -0.9256  0.0831
18270TIP3    H276302   2.116   6.027  15.018  1.3568 -1.4004 -2.3047
18271TIP3   OH276303   0.526   0.792   0.507  0.0708  0.0251 -0.0047
18271TIP3    H176304   0.483   0.843   0.438  1.5800  0.6240 -0.5498
18271TIP3    H276305   0.466   0.798   0.581 -1.2310  0.0033 -1.0149
18272TIP3   OH276306   5.920   2.458   2.721  0.1191 -0.0788 -0.8941
18272TIP3    H176307   5.898   2.481   2.630  0.4233 -0.9535 -1.2050
18272TIP3    H276308   5.878   2.526   2.774  0.1040  0.5577 -1.6997
18273TIP3   OH276309   4.768   3.897   3.635  0.0390  0.2707  0.8909
18273TIP3    H176310   4.792   3.808   3.658  0.3985 -0.0115 -0.4851
18273TIP3    H276311   4.783   3.903   3.541 -3.7432  0.5625  0.1469
18274TIP3   OH276312   5.101   6.780   5.856 -0.0998  0.5544 -0.3919
18274TIP3    H176313   5.148   6.697   5.855 -0.4390  0.3546  0.0780
18274TIP3    H276314   5.111   6.812   5.946 -0.2559  0.8615 -0.4815
18275TIP3   OH276315   6.650   1.654  12.299  0.4934  0.1175  0.2081
18275TIP3    H176316   6.734   1.610  12.290  0.3742 -0.0113 -0.3131
18275TIP3    H276317   6.616   1.659  12.210 -0.5277 -0.7660  0.5241
18276TIP3   OH276318   5.719   4.495  14.391 -0.6373 -0.0020  0.3403
18276TIP3    H176319   5.780   4.549  14.442  0.6870  1.4551 -2.5556
18276TIP3    H276320   5.750   4.405  14.404  0.2312  0.4096  1.3205
18277TIP3   OH276321   3.869   2.538  14.923 -0.3995 -0.1519 -0.0021
18277TIP3    H176322   3.809   2.517  14.995  0.8042  0.1093  1.1273
18277TIP3    H276323   3.884   2.633  14.931  0.1857 -0.2174 -0.2312
18278TIP3   OH276324   4.353   6.145  13.849 -0.5625 -0.0725  0.3599
18278TIP3    H176325   4.338   6.164  13.941 -2.0999  0.5174  0.0179
18278TIP3    H276326   4.287   6.078  13.827 -2.8346  2.4555 -1.1580
18279TIP3   OH276327   3.159   4.489  12.514 -0.8147 -0.8163 -0.0657
18279TIP3    H176328   3.233   4.507  12.456 -0.5692  0.8814  0.6990
18279TIP3    H276329   3.088   4.462  12.455 -0.8346  1.6911 -1.3143
18280TIP3   OH276330   5.297   2.331  15.062 -0.1691  0.1835 -0.0605
18280TIP3    H176331   5.306   2.347  15.156  2.1280 -0.5820 -0.0948
18280TIP3    H276332   5.254   2.246  15.057 -1.2168  0.6725  0.2505
18281TIP3   OH276333   2.787   0.566  11.846 -0.0577  0.7593  0.1965
18281TIP3    H176334   2.751   0.550  11.933 -0.6233 -0.0100 -0.1639
18281TIP3    H276335   2.721   0.531  11.786  0.5899  0.7355 -0.5205
18282TIP3   OH276336   1.077   3.681   0.567 -0.0275  0.4269  0.2682
18282TIP3    H176337   1.030   3.763   0.577  0.4632  0.7888 -0.3705
18282TIP3    H276338   1.014   3.614   0.594 -0.7093  0.9450 -0.0195
18283TIP3   OH276339   4.787   4.017   4.040 -0.1958  0.0274  0.1118
18283TIP3    H176340   4.837   4.030   4.121  0.1380  0.7753 -0.2005
18283TIP3    H276341   4.839   4.062   3.973 -2.9222  3.9068  0.3217
18284TIP3   OH276342   0.126   2.898  16.184 -0.3347 -0.1257  0.0799
18284TIP3    H176343   0.206   2.942  16.158  0.9863 -2.2787  0.2575
18284TIP3    H276344   0.100   2.942  16.265  1.1232  0.0911  0.4550
18285TIP3   OH276345   3.307   2.611   3.107 -0.3486 -0.0161 -0.4291
18285TIP3    H176346   3.222   2.597   3.149 -0.5453  1.1159 -0.3932
18285TIP3    H276347   3.286   2.625   3.015 -0.2056  0.2847 -0.4180
18286TIP3   OH276348   2.458   5.857   3.377  0.4744 -0.5234 -0.1697
18286TIP3    H176349   2.504   5.864   3.294  2.3888 -0.3541  0.8508
18286TIP3    H276350   2.406   5.778   3.369 -0.3835  0.1675 -1.9736
18287TIP3   OH276351   6.499   1.203  12.662  0.1745  0.2637 -0.2249
18287TIP3    H176352   6.496   1.243  12.576  0.6649  0.3851 -0.1878
18287TIP3    H276353   6.473   1.112  12.648 -0.0819  0.3706 -0.4434
18288TIP3   OH276354   1.488   4.225  15.088  0.2008  0.3559 -0.0979
18288TIP3    H176355   1.510   4.302  15.140  2.3723 -0.0704 -0.2848
18288TIP3    H276356   1.444   4.260  15.010  1.7142  1.5203 -0.4858
18289TIP3   OH276357   3.007   4.889   0.453  0.1696 -0.7308 -0.7371
18289TIP3    H176358   3.082   4.913   0.398 -0.0298 -0.8829 -1.0808
18289TIP3    H276359   2.957   4.827   0.399 -1.3881  1.0230 -1.4262
18290TIP3   OH276360   3.236   5.425   6.480  1.1585  0.1191 -0.5137
18290TIP3    H176361   3.266   5.515   6.472 -0.5235  0.9816  1.9605
18290TIP3    H276362   3.141   5.429   6.467  0.5557 -0.6873  2.7379
18291TIP3   OH276363   5.334   2.538  14.859  0.3151  0.1641  0.1195
18291TIP3    H176364   5.345   2.446  14.884 -0.7670 -0.1928 -0.6094
18291TIP3    H276365   5.420   2.577  14.873  0.5747 -0.7484  1.2612
18292TIP3   OH276366   4.566   3.284   3.691 -0.5911 -0.1863 -0.2928
18292TIP3    H176367   4.659   3.262   3.698  0.1070  0.9961 -3.7536
18292TIP3    H276368   4.557   3.367   3.738  0.3090  0.0866 -0.5801
18293TIP3   OH276369   6.518   3.135  12.184  0.1339 -0.3061  0.5386
18293TIP3    H176370   6.593   3.192  12.167 -0.5672  0.1709 -1.2684
18293TIP3    H276371   6.455   3.192  12.228 -0.2544  0.1483 -0.5505
18294TIP3   OH276372   5.650   4.815   3.851 -0.5373 -0.0250 -0.3578
18294TIP3    H176373   5.624   4.802   3.942 -1.7047  0.4536 -0.6067
18294TIP3    H276374   5.661   4.727   3.816 -0.6035 -0.2191  0.1038
18295TIP3   OH276375   3.355   3.313  16.410 -0.3172 -0.3913 -0.4417
18295TIP3    H176376   3.332   3.291  16.500 -1.0911  0.8994 -0.2902
18295TIP3    H276377   3.371   3.229  16.368 -0.1311 -1.0293  0.8488
18296TIP3   OH276378   2.471   1.500   1.933  0.1385  0.0698 -0.4708
18296TIP3    H176379   2.492   1.582   1.888 -0.1710  0.1577 -0.4583
18296TIP3    H276380   2.422   1.527   2.011 -0.4160 -0.1551 -0.7391
18297TIP3   OH276381   1.027   2.940  14.288 -0.4881  0.5710 -0.0977
18297TIP3    H176382   1.021   3.028  14.251  1.1689  0.5421 -0.4980
18297TIP3    H276383   1.114   2.909  14.264 -1.4775 -1.7143 -1.1504
18298TIP3   OH276384   3.617   3.764  15.446  0.3197  0.0098 -0.2584
18298TIP3    H176385   3.542   3.723  15.489 -0.4828  1.9512  0.2611
18298TIP3    H276386   3.692   3.742  15.503  0.6639 -3.6476 -1.8014
18299TIP3   OH276387   4.140   5.509   0.209  0.0135 -0.4095 -0.1445
18299TIP3    H176388   4.094   5.567   0.270 -0.0785  0.7911 -1.2974
18299TIP3    H276389   4.083   5.505   0.132 -0.1221 -2.3170 -0.0009
18300TIP3   OH276390   6.060   3.810  12.879  0.6436  0.3779 -0.4048
18300TIP3    H176391   6.151   3.802  12.907  0.5993 -0.7647 -0.5383
18300TIP3    H276392   6.009   3.812  12.961  0.7588  0.7218 -0.3389
18301TIP3   OH276393   1.173   4.172  11.098  0.4530 -0.2151 -0.0542
18301TIP3    H176394   1.196   4.242  11.037  1.2275 -1.5720 -1.4046
18301TIP3    H276395   1.094   4.133  11.061  1.0807 -1.2254 -0.3630
18302TIP3   OH276396   2.662   5.205   0.713  0.4287  0.1083  0.1202
18302TIP3    H176397   2.725   5.228   0.781 -0.6948 -0.7523  1.5128
18302TIP3    H276398   2.705   5.136   0.663  0.0599 -1.6911  2.0926
18303TIP3   OH276399   0.126   6.759   5.606 -0.1460  0.1713  0.2771
18303TIP3    H176400   0.057   6.762   5.672 -2.0179 -2.9836 -1.2289
18303TIP3    H276401   0.194   6.705   5.645 -0.6878 -0.6361  0.1387
18304TIP3   OH276402   6.091   1.259   2.893 -0.5710  0.0976 -0.1814
18304TIP3    H176403   6.022   1.209   2.935  0.7916 -0.7702  1.1205
18304TIP3    H276404   6.118   1.323   2.958  0.5214 -0.2421 -0.2730
18305TIP3   OH276405   1.554   1.489  11.337  0.2591  0.0663 -0.7195
18305TIP3    H176406   1.519   1.471  11.250 -0.7764  1.7024 -0.6918
18305TIP3    H276407   1.491   1.448  11.397  1.8505 -2.5494 -0.6695
18306TIP3   OH276408   4.870   2.517   6.483 -0.9593  0.0272  0.1420
18306TIP3    H176409   4.822   2.514   6.400  0.0976 -2.6246 -0.4724
18306TIP3    H276410   4.830   2.449   6.537  0.2095 -0.2381  0.7062
18307TIP3   OH276411   4.793   2.689   2.495 -0.3121 -0.1867  0.2840
18307TIP3    H176412   4.800   2.654   2.584  4.0811  1.8268  1.0083
18307TIP3    H276413   4.768   2.781   2.507  0.3057  0.1011 -0.5424
18308TIP3   OH276414   5.748   2.771   3.834 -0.1381 -0.9598 -0.7368
18308TIP3    H176415   5.656   2.789   3.852  0.6140  0.7611  2.1231
18308TIP3    H276416   5.781   2.851   3.792 -0.1688 -2.0769 -3.0144
18309TIP3   OH276417   3.584   1.371  17.132 -0.8488  0.2604  0.1860
18309TIP3    H176418   3.612   1.280  17.122  0.3364  0.8526 -3.4656
18309TIP3    H276419   3.624   1.400  17.214  1.7605 -1.5651 -0.3171
18310TIP3   OH276420   4.239   4.041   4.666  0.1351 -0.5165  0.0082
18310TIP3    H176421   4.284   3.961   4.640 -0.2933 -0.6390 -0.3510
18310TIP3    H276422   4.261   4.104   4.597 -2.4177 -1.3187 -1.6853
18311TIP3   OH276423   4.987   4.432   2.196 -0.0097  0.1867 -0.1929
18311TIP3    H176424   5.072   4.398   2.168 -0.6726 -1.7900  0.0335
18311TIP3    H276425   4.957   4.370   2.263 -3.0364 -1.1279 -2.4998
18312TIP3   OH276426   5.078   3.670   1.142  0.0284 -0.1890  1.4433
18312TIP3    H176427   5.062   3.761   1.167  0.1140 -0.3250  2.0139
18312TIP3    H276428   5.146   3.641   1.202 -0.4826 -0.8394  1.7154
18313TIP3   OH276429   3.519   5.928  16.446  0.1976  0.0401 -0.2837
18313TIP3    H176430   3.500   6.021  16.454  0.7422  0.0711  0.9153
18313TIP3    H276431   3.614   5.924  16.434  0.5059 -0.4099  1.8307
18314TIP3   OH276432   1.037   1.292   3.481  0.0746  0.5165 -0.0078
18314TIP3    H176433   1.107   1.228   3.471 -0.0606  0.4389 -0.4930
18314TIP3    H276434   0.971   1.247   3.534  0.4202  0.6192  0.5199
18315TIP3   OH276435   4.985   4.416  11.321  0.2108  0.0245  0.0840
18315TIP3    H176436   4.979   4.465  11.239 -0.7203  1.0986  0.7689
18315TIP3    H276437   4.899   4.375  11.331  0.5899 -0.7724  0.1188
18316TIP3   OH276438   4.727   6.540  13.276  0.6095  0.1592 -0.0833
18316TIP3    H176439   4.664   6.472  13.300 -0.4521  1.5258  1.2107
18316TIP3    H276440   4.807   6.516  13.323  0.5916 -0.7739 -0.5148
18317TIP3   OH276441   0.983   0.444  12.175  0.0365  0.3774 -0.5830
18317TIP3    H176442   0.922   0.388  12.127 -1.4153  1.3411  0.0689
18317TIP3    H276443   0.930   0.519  12.202  0.7664 -0.1011  2.5012
18318TIP3   OH276444   5.400   1.756   2.633 -0.0205 -0.1159 -0.0088
18318TIP3    H176445   5.466   1.715   2.576  0.8732  1.9776 -0.5738
18318TIP3    H276446   5.440   1.839   2.659 -2.1768  0.9140  0.2014
18319TIP3   OH276447   4.702   6.463   3.466 -0.2720  0.1705 -0.3229
18319TIP3    H176448   4.689   6.557   3.454 -0.9409  0.7602  3.6967
18319TIP3    H276449   4.618   6.430   3.497  0.8382 -1.0365  1.6233
18320TIP3   OH276450   0.919   1.076   5.591  0.2023 -0.1837  0.0805
18320TIP3    H176451   0.844   1.017   5.581  0.8019 -0.6100 -2.3236
18320TIP3    H276452   0.881   1.158   5.624 -1.0027 -1.0138  0.8392
18321TIP3   OH276453   1.301   2.624  13.015 -0.1987  0.2090  0.2328
18321TIP3    H176454   1.351   2.635  12.934  0.2572 -0.5449  0.4023
18321TIP3    H276455   1.367   2.615  13.083 -0.5263 -1.2212  0.3988
18322TIP3   OH276456   5.975   3.985   1.673  0.2190 -0.2292  0.0511
18322TIP3    H176457   5.978   3.905   1.725 -2.1811 -1.2697 -1.2481
18322TIP3    H276458   5.918   4.044   1.723  0.7860  0.1228  0.2912
18323TIP3   OH276459   3.173   4.880  11.154 -0.0040  0.1490  0.6587
18323TIP3    H176460   3.126   4.849  11.076  0.7603 -0.2081  0.3337
18323TIP3    H276461   3.104   4.895  11.219 -0.4206 -2.5686  0.9715
18324TIP3   OH276462   0.152   1.551  15.414  0.4266  0.4412 -0.5514
18324TIP3    H176463   0.066   1.573  15.379  1.3957  0.8662 -2.9205
18324TIP3    H276464   0.151   1.455  15.423 -0.6521  0.5389  0.6238
18325TIP3   OH276465   3.577   1.184  12.993 -0.2817 -0.2235  0.5618
18325TIP3    H176466   3.638   1.114  13.016 -0.1016 -0.5457 -0.7961
18325TIP3    H276467   3.616   1.225  12.915 -0.8381  0.8089  0.8132
18326TIP3   OH276468   5.083   5.953  11.021  0.0958 -0.2784  0.3031
18326TIP3    H176469   5.133   6.022  10.977 -0.9220 -0.1431 -0.6940
18326TIP3    H276470   5.142   5.878  11.023  0.8963  0.3412  0.5895
18327TIP3   OH276471   3.654   6.637  11.942  0.1691  0.0167  0.1114
18327TIP3    H176472   3.644   6.689  12.021  0.9531  1.6232 -0.7976
18327TIP3    H276473   3.732   6.583  11.958 -0.2077 -0.3494  0.7652
18328TIP3   OH276474   6.555   4.359   1.904  0.5324  0.3894  0.6234
18328TIP3    H176475   6.537   4.453   1.905 -2.1946 -0.0072 -1.0081
18328TIP3    H276476   6.593   4.343   1.817 -1.0224 -0.2488  0.0208
18329TIP3   OH276477   4.999   5.821   6.137  0.4889 -0.1584  0.9787
18329TIP3    H176478   4.921   5.813   6.191 -1.3293  4.2890 -0.4797
18329TIP3    H276479   5.055   5.882   6.185  0.0685  1.6885 -0.7248
18330TIP3   OH276480   2.198   0.290  12.107 -0.3035  0.1364  0.1941
18330TIP3    H176481   2.165   0.224  12.046  2.6376  0.6039 -2.1382
18330TIP3    H276482   2.276   0.250  12.146 -0.8796  0.7080  2.0648
18331TIP3   OH276483   6.641   1.846  16.788  0.3874 -0.3700 -0.4746
18331TIP3    H176484   6.619   1.811  16.701 -1.1061 -1.2510  0.2200
18331TIP3    H276485   6.653   1.768  16.842  1.0494  0.1803  0.1980
18332TIP3   OH276486   3.107   5.643  13.316 -0.4512  0.0375 -0.5944
18332TIP3    H176487   3.146   5.710  13.259  1.0387 -1.1539 -1.0373
18332TIP3    H276488   3.169   5.570  13.313 -0.8049 -0.4427  1.8207
18333TIP3   OH276489   2.714   4.538   4.501 -0.2711 -0.2413  0.5607
18333TIP3    H176490   2.791   4.594   4.491 -0.0115 -0.4841  1.1690
18333TIP3    H276491   2.746   4.449   4.483 -0.3609 -0.3662  0.9925
18334TIP3   OH276492   4.852   1.235  17.126 -0.6222 -0.2399 -0.3307
18334TIP3    H176493   4.947   1.246  17.134 -0.8090 -0.0249  2.6748
18334TIP3    H276494   4.841   1.167  17.060  1.6896 -1.0531  0.0394
18335TIP3   OH276495   1.694   5.402   5.230 -0.3689  0.1096 -0.0962
18335TIP3    H176496   1.683   5.316   5.270 -3.4627 -0.3366 -1.5854
18335TIP3    H276497   1.614   5.415   5.180  0.9924  2.9068 -1.7841
18336TIP3   OH276498   2.475   4.269  15.260  0.1453  0.2924 -0.0631
18336TIP3    H176499   2.454   4.306  15.175  0.7909 -0.0648 -0.3858
18336TIP3    H276500   2.500   4.344  15.314 -2.8701  0.9034  0.6784
18337TIP3   OH276501   6.434   3.952   6.745  0.0051 -0.6852 -0.2242
18337TIP3    H176502   6.350   3.917   6.717  0.2591  1.5362 -4.5150
18337TIP3    H276503   6.497   3.882   6.726 -0.1531 -0.0629 -3.6236
18338TIP3   OH276504   2.623   6.540   5.649 -0.0904  0.4296  0.5996
18338TIP3    H176505   2.622   6.608   5.717 -2.1041 -0.9859  2.0886
18338TIP3    H276506   2.531   6.518   5.635  0.3804 -0.5769 -1.3697
18339TIP3   OH276507   1.028   2.799   0.042 -0.1939  0.3424 -0.6420
18339TIP3    H176508   0.976   2.837  -0.029 -1.6302  1.8955  1.1383
18339TIP3    H276509   1.068   2.721   0.003  0.6973  2.1433 -3.7076
18340TIP3   OH276510   6.775   5.556  15.554 -0.0517 -0.3059  0.4173
18340TIP3    H176511   6.745   5.581  15.467  0.0350 -0.2295  0.4101
18340TIP3    H276512   6.821   5.633  15.587  0.3909 -0.5283  0.3168
18341TIP3   OH276513   5.724   3.352  12.335  0.4068  0.1566 -0.2404
18341TIP3    H176514   5.666   3.399  12.276 -0.0526 -1.0866 -0.8077
18341TIP3    H276515   5.746   3.416  12.403  1.3093  1.7663 -1.9572
18342TIP3   OH276516   6.355   3.872   2.711  0.4196  0.1053  0.0240
18342TIP3    H176517   6.354   3.800   2.774  0.8782  0.3101  0.2651
18342TIP3    H276518   6.281   3.853   2.652  2.1936 -2.1139 -1.6624
18343TIP3   OH276519   4.865   0.118   5.436 -0.1606  0.0594 -0.0486
18343TIP3    H176520   4.908   0.184   5.491  3.9693 -2.1434 -0.2198
18343TIP3    H276521   4.840   0.049   5.498  0.6354 -0.5596 -0.3911
18344TIP3   OH276522   6.350   5.013  14.462  0.6403 -0.1153 -0.3992
18344TIP3    H176523   6.361   5.096  14.507 -0.3198 -0.6884  0.9555
18344TIP3    H276524   6.409   4.952  14.507  0.2398 -0.5189 -0.4101
18345TIP3   OH276525   4.079   0.329  16.538 -0.1127  0.3011 -0.2685
18345TIP3    H176526   4.080   0.279  16.456  1.0204  1.6447 -1.1183
18345TIP3    H276527   4.049   0.266  16.604 -0.4610 -0.9846 -1.5936
18346TIP3   OH276528   4.587   4.329  14.740  0.8287 -0.0811  0.4571
18346TIP3    H176529   4.647   4.322  14.666 -2.3442 -1.4488 -2.3111
18346TIP3    H276530   4.600   4.248  14.790 -0.3277 -1.6909 -1.6542
18347TIP3   OH276531   5.792   6.813  13.870 -0.3712  0.1154  0.4597
18347TIP3    H176532   5.886   6.794  13.875  0.0634  2.2604  2.4142
18347TIP3    H276533   5.760   6.801  13.959 -1.7162  0.4635  0.0518
18348TIP3   OH276534   6.042   6.211   3.320 -0.0489  0.0185  0.1523
18348TIP3    H176535   6.059   6.222   3.226 -1.2816 -1.0479 -0.2230
18348TIP3    H276536   5.973   6.274   3.339  0.4746  0.5068  0.4319
18349TIP3   OH276537   0.876   1.046  16.704  0.3744 -0.7055  0.6578
18349TIP3    H176538   0.802   1.015  16.756  0.2240 -2.5090 -0.5819
18349TIP3    H276539   0.945   1.062  16.769 -0.0971 -2.0309  1.5281
18350TIP3   OH276540   1.367   0.197   0.089 -0.2461  0.1249  0.4128
18350TIP3    H176541   1.341   0.108   0.064  1.1477  0.4318 -2.5618
18350TIP3    H276542   1.443   0.216   0.033 -1.2647  3.6407  0.0072
18351TIP3   OH276543   2.521   3.907   3.279  0.2938  0.5455 -0.4388
18351TIP3    H176544   2.431   3.910   3.245  0.0164 -2.8077 -0.3346
18351TIP3    H276545   2.525   3.826   3.329  2.9878  1.3850  0.8800
18352TIP3   OH276546   5.739   3.986   5.011 -0.1808  0.6023  0.0802
18352TIP3    H176547   5.644   3.978   5.004 -0.2263  0.5928  0.6903
18352TIP3    H276548   5.767   4.015   4.924 -0.6975  0.2016 -0.2217
18353TIP3   OH276549   3.356   3.309   1.205  0.8053  0.3728 -0.1670
18353TIP3    H176550   3.398   3.394   1.189 -0.0546  0.2847 -3.5900
18353TIP3    H276551   3.263   3.326   1.195  0.1593 -0.2715  3.3407
18354TIP3   OH276552   2.226   1.965   1.237  0.3010 -0.3151 -0.4247
18354TIP3    H176553   2.232   2.060   1.232 -0.4879 -0.2249  0.2097
18354TIP3    H276554   2.309   1.938   1.277 -0.0845  0.2341  0.7739
18355TIP3   OH276555   0.756   0.800   4.304 -0.2176 -0.4440 -0.1765
18355TIP3    H176556   0.675   0.845   4.281 -0.2744 -0.5958 -0.2719
18355TIP3    H276557   0.760   0.725   4.245  0.2843 -0.1128 -0.5743
18356TIP3   OH276558   3.256   5.902   5.396  0.0498  0.5014  0.0481
18356TIP3    H176559   3.239   5.863   5.482  0.4130  1.9581  0.8057
18356TIP3    H276560   3.341   5.866   5.370 -0.3662 -0.4572 -0.0209
18357TIP3   OH276561   4.345   3.817   3.077 -0.1974 -0.3115  0.3590
18357TIP3    H176562   4.357   3.904   3.115 -0.0788 -0.1830  0.0377
18357TIP3    H276563   4.263   3.824   3.027  1.3396  0.5991 -2.2733
18358TIP3   OH276564   3.913   6.551   2.052  0.0217 -0.7457  0.4001
18358TIP3    H176565   3.852   6.478   2.045 -0.5927 -0.0861 -1.5471
18358TIP3    H276566   3.995   6.518   2.017  0.4679 -1.2199  1.8047
18359TIP3   OH276567   3.208   4.266  16.862  0.6367  0.5321  0.5942
18359TIP3    H176568   3.222   4.308  16.947 -0.9772  0.6149  0.8464
18359TIP3    H276569   3.136   4.205  16.877 -1.6767  2.5877 -1.3307
18360TIP3   OH276570   0.297   1.589  11.194 -0.5157  0.1786 -0.4956
18360TIP3    H176571   0.211   1.572  11.232 -1.0397 -0.6486 -1.9627
18360TIP3    H276572   0.359   1.564  11.262 -1.4098  1.6659  0.9457
18361TIP3   OH276573   2.467   3.289  15.551  0.1441 -0.0465  0.0775
18361TIP3    H176574   2.407   3.219  15.578 -0.2186 -0.6019 -2.0043
18361TIP3    H276575   2.410   3.361  15.526  0.5167  1.0194  2.0828
18362TIP3   OH276576   2.783   2.830  13.214  0.0898  0.1149 -0.1799
18362TIP3    H176577   2.756   2.883  13.139 -0.3759 -2.3171 -1.8489
18362TIP3    H276578   2.703   2.821  13.267 -0.0099  0.4863 -0.2649
18363TIP3   OH276579   6.529   0.062   0.230 -0.2533  0.0170 -0.5899
18363TIP3    H176580   6.537   0.122   0.304 -0.2453 -1.2748  0.4934
18363TIP3    H276581   6.474   0.109   0.166  1.2204  1.8782 -0.5724
18364TIP3   OH276582   2.768   3.614  16.114  0.0457  0.1096  0.3581
18364TIP3    H176583   2.675   3.597  16.127 -0.1369  0.3274 -0.5936
18364TIP3    H276584   2.791   3.676  16.184 -0.2862 -0.6839  1.1814
18365TIP3   OH276585   1.228   1.992   1.281 -0.1496 -0.0041 -0.2134
18365TIP3    H176586   1.305   1.964   1.232  0.4637  0.8678  0.2210
18365TIP3    H276587   1.171   1.916   1.282  1.5320 -1.3132  1.0731
18366TIP3   OH276588   1.289   5.038  13.439  0.2745 -0.1279 -0.1596
18366TIP3    H176589   1.306   4.946  13.418  0.4262 -0.0734 -0.2761
18366TIP3    H276590   1.353   5.059  13.506  0.2117 -0.1194 -0.1018
18367TIP3   OH276591   4.554   1.239   4.392 -0.1707  0.0868 -0.9330
18367TIP3    H176592   4.606   1.208   4.467  0.8723  1.1166 -1.1958
18367TIP3    H276593   4.486   1.173   4.381 -0.9552  0.3605  1.5255
18368TIP3   OH276594   1.643   2.241   5.344 -0.0689 -0.0986 -0.1460
18368TIP3    H176595   1.645   2.322   5.394  0.4846  0.8043 -1.5842
18368TIP3    H276596   1.704   2.183   5.390 -1.1527 -0.0625  1.4268
18369TIP3   OH276597   1.183   0.260   3.689  0.0067  0.1335 -0.4884
18369TIP3    H176598   1.131   0.325   3.641 -0.3016  0.0210 -0.3151
18369TIP3    H276599   1.180   0.289   3.780 -1.3313 -0.8689 -0.1716
18370TIP3   OH276600   6.642   0.729  14.233  0.1204 -0.0966 -0.4112
18370TIP3    H176601   6.638   0.634  14.220  0.2518 -0.0452 -0.8362
18370TIP3    H276602   6.708   0.741  14.301  0.7487 -0.2592 -0.9774
18371TIP3   OH276603   0.965   5.457   1.254 -0.0417  0.2906  0.1123
18371TIP3    H176604   0.998   5.513   1.325 -1.6776  0.0264  1.1441
18371TIP3    H276605   1.043   5.426   1.209  0.9937  1.4321  1.0601
18372TIP3   OH276606   5.801   6.263  12.150 -0.2639  0.1026 -0.2424
18372TIP3    H176607   5.815   6.261  12.245 -1.1120  1.6335 -0.0554
18372TIP3    H276608   5.815   6.173  12.122  0.1767 -0.3438  1.3101
18373TIP3   OH276609   3.737   3.667   4.235 -0.5330  0.5676 -0.4216
18373TIP3    H176610   3.807   3.663   4.301 -2.3096  2.9264  1.8226
18373TIP3    H276611   3.669   3.609   4.268 -1.2089  1.3434 -0.4008
18374TIP3   OH276612   0.442   6.425   1.667 -0.3711 -0.4559 -0.5292
18374TIP3    H176613   0.465   6.478   1.591 -0.5239 -1.5745 -1.3772
18374TIP3    H276614   0.411   6.342   1.630  2.4435 -2.2310  0.7554
18375TIP3   OH276615   2.649   5.850   4.248  0.2492  0.3264 -0.5887
18375TIP3    H176616   2.586   5.799   4.196  0.2793  0.2971 -0.5959
18375TIP3    H276617   2.733   5.836   4.205  0.5456 -0.9141  0.3280
18376TIP3   OH276618   5.592   5.481  13.672  0.0523 -0.1966 -0.0352
18376TIP3    H176619   5.537   5.404  13.683 -0.7133 -0.0586 -2.4084
18376TIP3    H276620   5.540   5.553  13.707 -0.2986 -0.3941 -0.1484
18377TIP3   OH276621   2.858   3.250  11.277 -0.4016 -0.3194  0.0870
18377TIP3    H176622   2.866   3.158  11.254 -2.1837 -0.7261  0.9185
18377TIP3    H276623   2.772   3.257  11.319 -1.4911  2.2219 -2.2839
18378TIP3   OH276624   4.786   0.307   4.501 -0.1124  0.2779 -0.8262
18378TIP3    H176625   4.755   0.236   4.445 -0.4583 -1.1665  1.1192
18378TIP3    H276626   4.713   0.324   4.560  1.2194 -0.2306  1.0449
18379TIP3   OH276627   5.664   3.551   3.184  0.2700  0.2126 -0.2289
18379TIP3    H176628   5.614   3.471   3.171  1.3319 -0.9057  2.0646
18379TIP3    H276629   5.754   3.527   3.159  0.5994  0.6774  0.4895
18380TIP3   OH276630   3.577   5.075   3.849  0.2707  0.5871 -0.4854
18380TIP3    H176631   3.563   5.068   3.943  0.1926  1.2198 -0.4424
18380TIP3    H276632   3.560   5.167   3.829 -1.8265  0.0484 -1.4682
18381TIP3   OH276633   5.985   4.012  11.807  0.1474 -0.6380  0.2232
18381TIP3    H176634   5.947   3.936  11.763 -1.0311 -0.0842  0.2248
18381TIP3    H276635   5.958   4.003  11.898  3.3882 -2.2838  1.1600
18382TIP3   OH276636   6.308   0.506   0.662 -0.4315  0.0863  0.2384
18382TIP3    H176637   6.369   0.573   0.633 -0.0812 -0.2800  0.1158
18382TIP3    H276638   6.356   0.458   0.730 -0.1686 -0.8924 -0.6198
18383TIP3   OH276639   1.091   3.674  16.549 -0.4748 -0.0994 -0.3274
18383TIP3    H176640   1.146   3.741  16.590  0.2493  0.3592 -1.9785
18383TIP3    H276641   1.002   3.709  16.556 -0.8617 -1.3346  3.3594
18384TIP3   OH276642   6.617   6.637   2.906 -0.2207  0.0301  0.1733
18384TIP3    H176643   6.602   6.548   2.873 -1.6955  0.1663  0.4055
18384TIP3    H276644   6.710   6.652   2.892 -0.0155 -1.4136 -0.2160
18385TIP3   OH276645   2.254   6.274   4.498 -0.1467  0.3310  0.0320
18385TIP3    H176646   2.162   6.300   4.487 -0.8418 -1.3047  1.5521
18385TIP3    H276647   2.276   6.298   4.588  0.7480  0.2095 -0.1431
18386TIP3   OH276648   0.988   1.237  13.667 -0.6604 -0.1056  0.2189
18386TIP3    H176649   0.904   1.276  13.642  0.4563  2.0786 -0.3505
18386TIP3    H276650   1.006   1.174  13.597 -0.3125  1.8050 -1.5001
18387TIP3   OH276651   0.400   0.211   0.461  0.2240  0.9521 -0.1542
18387TIP3    H176652   0.461   0.188   0.531 -0.7674 -0.2738  0.3444
18387TIP3    H276653   0.314   0.185   0.495 -0.6444  2.9205 -0.6977
18388TIP3   OH276654   5.880   2.555   5.410  0.1781 -0.3898 -0.0948
18388TIP3    H176655   5.931   2.588   5.337  0.2149  0.4839  0.3176
18388TIP3    H276656   5.945   2.529   5.475  0.1920 -2.1941 -0.7711
18389TIP3   OH276657   4.416   0.716  11.019 -0.6177 -0.0782 -0.4161
18389TIP3    H176658   4.377   0.645  10.968 -0.6151 -0.7535  0.4951
18389TIP3    H276659   4.508   0.693  11.027 -1.0730 -1.3792  2.0615
18390TIP3   OH276660   3.153   0.199   3.152 -0.1753 -0.1128  0.1069
18390TIP3    H176661   3.242   0.217   3.122  0.6997 -1.1284  1.9657
18390TIP3    H276662   3.102   0.274   3.120  1.2378  0.3191 -1.2936
18391TIP3   OH276663   1.483   6.055   2.243  0.1002 -0.2569  0.1297
18391TIP3    H176664   1.509   5.999   2.316  1.3484 -1.3277 -1.0795
18391TIP3    H276665   1.435   5.996   2.184 -0.3097  0.4235 -0.2313
18392TIP3   OH276666   1.390   0.529  12.949 -0.0128  0.1980  0.5072
18392TIP3    H176667   1.370   0.459  13.011 -0.9640 -0.2225 -0.2592
18392TIP3    H276668   1.481   0.514  12.924 -0.0071 -0.3702  0.8542
18393TIP3   OH276669   2.330   3.808   1.970 -0.3337 -0.3693 -0.2041
18393TIP3    H176670   2.260   3.745   1.982  0.5984 -1.4904 -0.4374
18393TIP3    H276671   2.328   3.830   1.876  0.3653 -1.3352 -0.4639
18394TIP3   OH276672   2.008   5.879   4.589  0.2206  0.2923 -0.0666
18394TIP3    H176673   2.005   5.941   4.516 -1.7674  0.7337  0.3528
18394TIP3    H276674   2.055   5.803   4.553 -0.7049  0.5007 -1.8304
18395TIP3   OH276675   2.450   1.806   2.993  0.3941 -0.0943  0.3387
18395TIP3    H176676   2.502   1.747   3.048 -0.5659 -2.1797 -0.8779
18395TIP3    H276677   2.458   1.770   2.905 -0.9816  1.0709 -0.3062
18396TIP3   OH276678   4.340   5.023   0.498 -0.6336 -0.0835  0.5846
18396TIP3    H176679   4.418   5.077   0.510 -0.8259  0.1897  0.6149
18396TIP3    H276680   4.267   5.081   0.521 -0.7456 -0.9287  2.6176
18397TIP3   OH276681   1.243   5.002   3.755  0.1313 -0.2016 -0.1163
18397TIP3    H176682   1.207   5.020   3.842  0.0172 -0.2662 -0.1490
18397TIP3    H276683   1.165   4.990   3.700  0.1797  1.0357 -0.4825
18398TIP3   OH276684   0.321   5.770   5.878 -0.3223 -0.0364  0.2644
18398TIP3    H176685   0.244   5.734   5.923  0.9496 -2.5335  0.5928
18398TIP3    H276686   0.353   5.838   5.938 -0.7606 -0.7982  1.4085
18399TIP3   OH276687   2.788   0.756   4.443  0.2898  0.0190 -0.1979
18399TIP3    H176688   2.827   0.675   4.409  1.5411  1.7761 -3.4156
18399TIP3    H276689   2.694   0.744   4.428  0.5581 -0.4345 -1.7995
18400TIP3   OH276690   4.841   0.303   0.350 -0.3076  0.0432 -0.0968
18400TIP3    H176691   4.752   0.313   0.316 -0.2755  0.5667 -0.0394
18400TIP3    H276692   4.898   0.335   0.280 -0.3122  2.6959  1.0081
18401TIP3   OH276693   1.276   4.066   5.582  0.5686 -0.0785  0.5717
18401TIP3    H176694   1.257   4.128   5.512  0.0620  1.1463  1.7568
18401TIP3    H276695   1.190   4.032   5.608  0.7657 -0.6344  0.5084
18402TIP3   OH276696   0.242   2.543   1.530 -0.1744  0.5160  0.0751
18402TIP3    H176697   0.201   2.593   1.460 -2.9698 -0.1930  1.0254
18402TIP3    H276698   0.265   2.459   1.490 -0.4712  0.6233 -0.3274
18403TIP3   OH276699   3.868   6.515  15.095 -0.3585 -0.1201  0.3684
18403TIP3    H176700   3.803   6.558  15.039 -0.4502 -0.4053  0.2547
18403TIP3    H276701   3.951   6.556  15.071  0.0452 -2.0513 -1.8863
18404TIP3   OH276702   2.988   2.330  16.830  0.6641  0.2347  0.4058
18404TIP3    H176703   3.032   2.270  16.770 -0.6743  2.4499 -3.0855
18404TIP3    H276704   2.896   2.327  16.803 -0.3166  0.3514  3.3682
18405TIP3   OH276705   5.648   3.137   2.590 -0.8493 -0.4169 -0.1761
18405TIP3    H176706   5.697   3.172   2.664  0.3146 -1.7068 -0.2865
18405TIP3    H276707   5.585   3.205   2.569 -0.7174  0.2936  1.5235
18406TIP3   OH276708   6.130   0.179   1.703  0.4950 -0.4706 -0.3240
18406TIP3    H176709   6.218   0.213   1.721  0.3689  0.5786 -1.5644
18406TIP3    H276710   6.072   0.254   1.719 -0.0899 -0.9083 -0.3682
18407TIP3   OH276711   5.787   0.943   0.349 -0.0986  0.6062 -0.0748
18407TIP3    H176712   5.824   0.857   0.331  0.0361 -0.3303  3.8450
18407TIP3    H276713   5.856   1.005   0.323  2.1479 -0.8335  2.1008
18408TIP3   OH276714   3.550   6.128   4.639 -0.4111 -0.2463  0.4508
18408TIP3    H176715   3.563   6.093   4.551  1.5096  0.7077  0.2994
18408TIP3    H276716   3.517   6.217   4.625 -0.4038 -0.2051  0.6866
18409TIP3   OH276717   0.920   5.833  15.205 -0.3291  0.5149  0.1399
18409TIP3    H176718   0.864   5.793  15.139 -0.7491  2.5815 -0.8354
18409TIP3    H276719   0.860   5.866  15.272 -0.0775  0.4175  0.4174
18410TIP3   OH276720   1.219   3.124  12.178  0.2017 -0.0724 -0.0889
18410TIP3    H176721   1.169   3.043  12.187 -0.9903  0.7547  1.2087
18410TIP3    H276722   1.195   3.158  12.092  0.4378 -0.8973 -0.4899
18411TIP3   OH276723   4.653   4.777  10.660 -0.0862  0.1792 -0.1369
18411TIP3    H176724   4.740   4.763  10.698  0.5628  0.2019 -1.5717
18411TIP3    H276725   4.594   4.731  10.720  0.7350  1.1996  1.5510
18412TIP3   OH276726   0.440   0.267  12.277  0.4818  0.1202  0.1986
18412TIP3    H176727   0.508   0.221  12.327  0.8320 -1.1141 -1.3279
18412TIP3    H276728   0.462   0.360  12.286 -0.2124  0.1002  3.3323
18413TIP3   OH276729   0.715   4.297   0.610 -0.5322  0.2157 -0.1370
18413TIP3    H176730   0.738   4.286   0.702  1.5223  0.2572 -0.5972
18413TIP3    H276731   0.755   4.380   0.586  0.7789 -0.8030 -1.5896
18414TIP3   OH276732   2.193   5.681   5.681  0.6701 -0.7200  0.6074
18414TIP3    H176733   2.164   5.612   5.740  0.3294 -0.0361  1.2467
18414TIP3    H276734   2.155   5.658   5.596 -0.6129 -0.5795  1.1210
18415TIP3   OH276735   0.072   1.228  11.691 -0.5172  0.5588 -0.0945
18415TIP3    H176736  -0.014   1.242  11.732 -1.3321 -1.4226 -0.9853
18415TIP3    H276737   0.065   1.270  11.606 -0.3947  0.8444  0.0323
18416TIP3   OH276738   3.413   3.037  13.888 -0.1199  0.0010 -0.0031
18416TIP3    H176739   3.452   2.951  13.905  0.6643  0.1504 -0.9681
18416TIP3    H276740   3.465   3.097  13.941  0.2422  0.0553 -0.4157
18417TIP3   OH276741   5.006   6.496   5.955  0.1733  0.4170  0.1126
18417TIP3    H176742   4.972   6.574   5.999 -1.4271  0.2105 -0.7068
18417TIP3    H276743   4.931   6.459   5.909  0.7937 -1.8743  0.8229
18418TIP3   OH276744   2.570   2.852  14.440 -0.1586  0.3934  0.3844
18418TIP3    H176745   2.649   2.849  14.387 -0.3680  0.3079  0.0749
18418TIP3    H276746   2.498   2.842  14.377 -0.3865 -0.2867  0.7438
18419TIP3   OH276747   6.533   4.796   2.943 -0.0457  0.4217 -0.1089
18419TIP3    H176748   6.490   4.859   3.001  0.5261  0.0474  0.7437
18419TIP3    H276749   6.584   4.740   3.002  0.6268  0.0880 -0.9812
18420TIP3   OH276750   0.050   2.563   3.093 -0.5900 -0.0527 -0.0117
18420TIP3    H176751  -0.033   2.593   3.130 -1.9017 -1.1683 -1.9176
18420TIP3    H276752   0.030   2.539   3.003  1.9962  0.4059 -0.8062
18421TIP3   OH276753   5.631   0.966  11.969  0.4831  0.3355 -0.0851
18421TIP3    H176754   5.599   0.924  11.889  0.6555  0.2199 -0.0948
18421TIP3    H276755   5.616   1.060  11.954 -2.1592  0.1397  0.9310
18422TIP3   OH276756   5.257   1.879   6.051 -0.0824 -0.5534 -0.2038
18422TIP3    H176757   5.260   1.828   6.132  1.4920 -0.2796 -0.0619
18422TIP3    H276758   5.348   1.892   6.028 -0.4020  2.4130 -0.0977
18423TIP3   OH276759   4.896   4.993  14.240 -0.2882  0.5347 -0.0692
18423TIP3    H176760   4.936   4.997  14.327 -1.9703  2.3378  0.6927
18423TIP3    H276761   4.806   4.966  14.257 -0.1348 -1.0217 -1.4875
18424TIP3   OH276762   2.059   6.697   5.902  0.0163  0.0221  0.3392
18424TIP3    H176763   2.152   6.716   5.890  0.3716 -2.6193 -2.1106
18424TIP3    H276764   2.057   6.625   5.965 -0.2737 -0.4046 -0.1457
18425TIP3   OH276765   3.104   4.530  10.727 -0.2917 -0.2263 -0.7115
18425TIP3    H176766   3.087   4.547  10.634 -1.1554  0.9885 -0.3671
18425TIP3    H276767   3.145   4.610  10.759  2.9106 -1.7325 -0.6525
18426TIP3   OH276768   5.299   3.170   4.196 -0.7561  0.2137  0.1225
18426TIP3    H176769   5.323   3.187   4.105 -1.0662  0.5063  0.0943
18426TIP3    H276770   5.359   3.225   4.247 -1.0711  0.6143  0.0672
18427TIP3   OH276771   5.836   0.871  12.565 -0.1587 -0.0836 -0.1814
18427TIP3    H176772   5.758   0.831  12.527  0.2564 -1.2337  0.1659
18427TIP3    H276773   5.802   0.943  12.618 -0.9960 -0.6307  0.0418
18428TIP3   OH276774   0.004   0.499  14.002  0.3474  0.1354  0.4345
18428TIP3    H176775   0.023   0.571  14.062  1.6177 -0.7172  1.0970
18428TIP3    H276776   0.090   0.469  13.972 -0.2228 -0.1242 -1.0349
18429TIP3   OH276777   2.404   5.666   0.562 -0.1590  0.2538  0.4083
18429TIP3    H176778   2.475   5.603   0.573  1.2983  1.3753 -1.8168
18429TIP3    H276779   2.331   5.614   0.530  0.1974 -0.6685  1.0562
18430TIP3   OH276780   3.576   6.287  16.242  0.0853 -0.4322  0.0504
18430TIP3    H176781   3.573   6.294  16.147 -1.6970  2.7503  0.1925
18430TIP3    H276782   3.659   6.328  16.266  0.1188 -0.4133 -0.1000
18431TIP3   OH276783   4.397   5.299  12.140 -0.2434  0.5385  0.1395
18431TIP3    H176784   4.463   5.266  12.079  0.7538  0.8570  1.0017
18431TIP3    H276785   4.354   5.371  12.095  0.1709  0.4818 -0.3433
18432TIP3   OH276786   0.376   6.777  11.852  0.6395 -0.3342  0.7290
18432TIP3    H176787   0.309   6.726  11.898 -0.6139  0.1342 -0.5275
18432TIP3    H276788   0.401   6.845  11.915 -3.0354  2.0253 -0.0789
18433TIP3   OH276789   2.010   6.200   2.012  0.4144  0.1864  0.0806
18433TIP3    H176790   2.047   6.122   1.970  2.1864  0.9637  0.1359
18433TIP3    H276791   1.985   6.257   1.939  0.1180  0.0387  0.0617
18434TIP3   OH276792   6.462   5.910  16.881 -0.4886  0.2079  0.0858
18434TIP3    H176793   6.386   5.863  16.915 -1.2370  1.0655 -0.3523
18434TIP3    H276794   6.479   5.978  16.947 -0.8184  0.7337 -0.3658
18435TIP3   OH276795   1.857   3.376   3.179  0.5264 -0.2660  0.3589
18435TIP3    H176796   1.837   3.294   3.224  0.0134 -0.1736  0.3119
18435TIP3    H276797   1.919   3.351   3.110 -0.0023 -0.7054  0.0304
18436TIP3   OH276798   5.142   6.566   4.288  0.1322 -0.1507  0.5365
18436TIP3    H176799   5.059   6.568   4.241  0.3017  1.0457  0.2725
18436TIP3    H276800   5.156   6.655   4.318  1.5481 -0.2223  0.1813
18437TIP3   OH276801   5.477   1.815  17.089 -0.0522  0.1324  0.0356
18437TIP3    H176802   5.416   1.747  17.118 -1.0399  0.8499 -0.2898
18437TIP3    H276803   5.490   1.796  16.996  0.6889 -0.3560  0.2317
18438TIP3   OH276804   4.889   1.475   0.802  0.1447  0.5573 -0.0201
18438TIP3    H176805   4.863   1.396   0.755  1.2866  0.1365  0.0292
18438TIP3    H276806   4.813   1.497   0.856 -0.5392  0.0586 -0.7571
18439TIP3   OH276807   3.044   2.508   0.582  0.1112  0.7205  0.1122
18439TIP3    H176808   2.957   2.491   0.617 -0.4972 -0.0414 -1.6307
18439TIP3    H276809   3.038   2.595   0.542 -0.2258  0.2054 -1.0054
18440TIP3   OH276810   3.956   5.238  13.169 -0.3087 -0.0918  0.3307
18440TIP3    H176811   4.024   5.304  13.159 -1.3059  0.9401  0.1261
18440TIP3    H276812   4.002   5.160  13.200  0.6941  1.1333  2.1179
18441TIP3   OH276813   4.809   5.313   3.972  0.2861 -0.1812  0.2014
18441TIP3    H176814   4.864   5.381   3.934 -0.6171 -0.8961 -2.6070
18441TIP3    H276815   4.794   5.252   3.901  0.1731 -2.8117  2.3153
18442TIP3   OH276816   0.048   1.529  14.297  0.2334  0.5719  0.1590
18442TIP3    H176817   0.064   1.602  14.356 -3.0377  2.7327 -1.2860
18442TIP3    H276818   0.010   1.461  14.352  0.6747  1.0949  1.1264
18443TIP3   OH276819   4.475   4.354   2.730 -0.2631  0.1762 -0.2774
18443TIP3    H176820   4.569   4.369   2.741  0.0332 -2.2971  1.3260
18443TIP3    H276821   4.436   4.386   2.811 -0.8169  1.0235 -0.8601
18444TIP3   OH276822   2.451   0.645   1.141 -0.2400  0.2959  0.4093
18444TIP3    H176823   2.534   0.676   1.104 -0.0464  0.9047  1.3309
18444TIP3    H276824   2.462   0.651   1.236 -0.8521 -0.9319  0.5804
18445TIP3   OH276825   6.430   0.168   0.001  0.1925  0.1258 -0.4183
18445TIP3    H176826   6.479   0.203  -0.074  2.0115 -2.2308 -0.4624
18445TIP3    H276827   6.385   0.091  -0.034 -2.1043  1.1404  0.1097
18446TIP3   OH276828   1.831   3.733  11.416 -0.0333 -0.4381  0.1481
18446TIP3    H176829   1.916   3.731  11.460 -0.1066  1.3232  0.4469
18446TIP3    H276830   1.771   3.766  11.482 -0.2851  1.5584 -0.9825
18447TIP3   OH276831   1.172   3.265  13.428 -0.1067  0.0362 -0.3021
18447TIP3    H176832   1.198   3.181  13.465 -0.6815  0.5244  1.3076
18447TIP3    H276833   1.077   3.259  13.418 -0.2222  0.6460  0.3077
18448TIP3   OH276834   0.751   5.887   4.928 -0.2843  0.3286 -0.2634
18448TIP3    H176835   0.733   5.956   4.991  0.9630 -1.0548  1.7447
18448TIP3    H276836   0.845   5.894   4.911 -0.3337 -0.2530 -0.8118
18449TIP3   OH276837   3.804   2.351  11.437  0.7392  0.6879 -0.1788
18449TIP3    H176838   3.804   2.376  11.345  0.5373  0.3726 -0.2673
18449TIP3    H276839   3.893   2.367  11.467  0.8315  0.6921 -0.4541
18450TIP3   OH276840   4.082   2.132   1.815  0.0623  0.2210 -0.1100
18450TIP3    H176841   4.067   2.039   1.796 -0.9895  0.4626 -0.5701
18450TIP3    H276842   4.088   2.136   1.911  0.3167 -0.3486 -0.0967
18451TIP3   OH276843   2.711   5.221   3.357  0.6234 -0.2063 -0.3842
18451TIP3    H176844   2.733   5.313   3.343 -1.7296  0.5077  0.1267
18451TIP3    H276845   2.751   5.200   3.441  1.4278  0.2363 -0.6405
18452TIP3   OH276846   6.170   4.207   2.299 -0.0495  0.3002 -0.1918
18452TIP3    H176847   6.082   4.241   2.316  0.2754  0.9696  0.1750
18452TIP3    H276848   6.156   4.136   2.236 -0.8034  0.7104 -0.5032
18453TIP3   OH276849   4.741   4.227   5.857 -0.2363  0.0182 -0.0398
18453TIP3    H176850   4.795   4.155   5.823 -0.7469 -0.1881 -0.4200
18453TIP3    H276851   4.788   4.306   5.831 -0.1174 -0.1597 -0.3746
18454TIP3   OH276852   1.918   4.844   1.897 -0.0212 -0.2400 -0.2275
18454TIP3    H176853   1.980   4.870   1.828  0.6174 -1.8729 -0.3181
18454TIP3    H276854   1.833   4.874   1.865  0.7000  2.4103  0.0770
18455TIP3   OH276855   1.890   0.566  15.251  0.5356  0.0865  0.8577
18455TIP3    H176856   1.950   0.568  15.325  1.2397 -0.8034  0.3205
18455TIP3    H276857   1.879   0.474  15.230  0.5235  0.3314 -0.2979
18456TIP3   OH276858   3.390   2.480  17.028 -0.4695 -0.0694  0.1845
18456TIP3    H176859   3.324   2.411  17.023  0.5599 -0.9675 -2.4156
18456TIP3    H276860   3.363   2.543  16.961  0.9854 -0.2061 -0.5624
18457TIP3   OH276861   0.985   4.930  12.713  0.0557 -0.2320  0.7316
18457TIP3    H176862   0.966   4.868  12.643 -0.1878 -0.1283  0.7064
18457TIP3    H276863   0.901   4.972  12.732  0.5602  1.4422 -0.5443
18458TIP3   OH276864   1.864   1.438  15.109 -0.1948  0.4888 -0.2352
18458TIP3    H176865   1.823   1.376  15.169  1.2565 -0.9389 -0.6523
18458TIP3    H276866   1.919   1.494  15.165  0.4431 -0.2420 -0.1242
18459TIP3   OH276867   2.740   1.081  13.287 -0.6810  0.0661  0.3130
18459TIP3    H176868   2.727   1.130  13.368  1.0870 -0.5957  1.0515
18459TIP3    H276869   2.653   1.074  13.248 -2.0861 -1.7201  3.3970
18460TIP3   OH276870   5.602   2.927   6.198 -0.6494 -0.4504 -0.3980
18460TIP3    H176871   5.637   3.011   6.228 -0.1857 -0.0772 -1.8879
18460TIP3    H276872   5.671   2.890   6.143 -0.4940 -2.2458  0.9072
18461TIP3   OH276873   5.383   3.430   3.640 -0.1417 -0.7925  0.3158
18461TIP3    H176874   5.475   3.411   3.623 -0.0853 -0.3459  0.1006
18461TIP3    H276875   5.341   3.425   3.554  0.3078  2.4068 -0.2038
18462TIP3   OH276876   1.884   0.064   0.837  0.2186  0.2083  0.7152
18462TIP3    H176877   1.869   0.079   0.930  2.6846  2.2309  0.8689
18462TIP3    H276878   1.897   0.151   0.800  0.0244 -0.6077 -1.4094
18463TIP3   OH276879   2.671   3.285  16.559 -0.6014 -0.2036  0.3297
18463TIP3    H176880   2.714   3.304  16.476 -0.7307  0.0502  0.3189
18463TIP3    H276881   2.657   3.190  16.558  1.1941 -0.5185  0.9429
18464TIP3   OH276882   0.718   3.025  16.378 -0.3481  0.2323  0.4311
18464TIP3    H176883   0.800   3.069  16.355  0.7908 -1.2553  1.5046
18464TIP3    H276884   0.687   2.989  16.295  1.0713 -0.7304  0.2665
18465TIP3   OH276885   1.459   1.514   3.650 -0.6227  0.5575  0.4110
18465TIP3    H176886   1.536   1.557   3.615  0.0610  0.1584  1.3767
18465TIP3    H276887   1.470   1.422   3.627  0.3373  0.1098  2.4474
18466TIP3   OH276888   5.623   5.518  15.219 -0.0329  0.5538 -0.3697
18466TIP3    H176889   5.711   5.505  15.184  0.2763  0.0658  0.5569
18466TIP3    H276890   5.579   5.434  15.206  0.9714 -0.6165  2.8106
18467TIP3   OH276891   1.917   2.955   3.780  0.2762  0.0834 -0.0084
18467TIP3    H176892   1.894   2.998   3.697  1.7314 -0.1182 -0.5483
18467TIP3    H276893   1.923   3.027   3.843 -2.6234  0.0612  0.4047
18468TIP3   OH276894   4.288   1.230  16.775 -0.5794  0.5474  0.2412
18468TIP3    H176895   4.292   1.155  16.715 -1.3932  1.3947 -0.9222
18468TIP3    H276896   4.377   1.265  16.776 -0.6520  0.7950 -0.8551
18469TIP3   OH276897   4.052   3.854  15.405 -0.1627  0.3434  0.1268
18469TIP3    H176898   4.093   3.796  15.340  2.4979  2.9387 -0.7172
18469TIP3    H276899   4.018   3.927  15.354 -0.8005  0.9623  1.3969
18470TIP3   OH276900   6.369   4.092  10.571  0.5180 -0.0672 -0.4344
18470TIP3    H176901   6.290   4.138  10.600  0.7054  0.4488 -0.7301
18470TIP3    H276902   6.441   4.147  10.601  0.8060 -0.9009  0.4850
18471TIP3   OH276903   2.516   5.784  15.111  0.2069 -0.2150 -0.0800
18471TIP3    H176904   2.545   5.694  15.099  1.0253  0.1231 -0.7967
18471TIP3    H276905   2.555   5.812  15.194 -1.1754 -0.9274  0.8548
18472TIP3   OH276906   4.921   5.278   5.084  0.2630 -0.5576 -0.3232
18472TIP3    H176907   5.015   5.263   5.094  1.0000  2.6094 -1.1998
18472TIP3    H276908   4.900   5.339   5.155 -0.6819  0.2014 -1.2342
18473TIP3   OH276909   3.526   6.153  16.847 -0.9684 -0.5306 -0.2768
18473TIP3    H176910   3.549   6.236  16.888 -2.6490  0.3093 -0.9322
18473TIP3    H276911   3.604   6.128  16.798 -1.1767  1.9518 -2.0808
18474TIP3   OH276912   1.861   2.464  11.785 -0.2542  0.3729 -0.8937
18474TIP3    H176913   1.952   2.490  11.799 -0.6079  1.5915 -0.7434
18474TIP3    H276914   1.862   2.414  11.703  1.0088 -2.3012  0.5959
18475TIP3   OH276915   3.684   5.385  15.334  0.6481  0.1723 -1.0429
18475TIP3    H176916   3.605   5.338  15.309  1.8995 -1.1152 -2.9104
18475TIP3    H276917   3.735   5.391  15.253  3.1932 -0.5709  0.3865
18476TIP3   OH276918   2.320   6.562  16.039 -0.1565  0.0797  0.3069
18476TIP3    H176919   2.270   6.512  15.975  0.7663 -0.6036  0.0989
18476TIP3    H276920   2.363   6.630  15.988 -2.4789  2.0291  0.7678
18477TIP3   OH276921   3.077   4.292  15.198 -0.0971  0.1556 -0.1300
18477TIP3    H176922   3.114   4.373  15.232 -1.7231  0.8606  0.0750
18477TIP3    H276923   3.141   4.261  15.134  0.5276  1.6388 -0.2730
18478TIP3   OH276924   1.598   4.457  15.228 -0.0381 -0.4089 -0.2444
18478TIP3    H176925   1.678   4.444  15.177  1.0411  0.4209  1.1433
18478TIP3    H276926   1.586   4.552  15.231 -1.4282 -0.5387 -0.9092
18479TIP3   OH276927   3.787   3.518   5.009  0.4025 -0.1188 -0.1661
18479TIP3    H176928   3.698   3.505   5.043  0.2897 -0.0589 -0.4323
18479TIP3    H276929   3.816   3.431   4.985  1.2941 -0.4725  2.0329
18480TIP3   OH276930   6.796   6.036  13.658 -0.3367  0.4799  0.3554
18480TIP3    H176931   6.753   6.033  13.743  0.2556 -1.9187  0.6418
18480TIP3    H276932   6.871   6.094  13.671  0.4544 -0.8053  1.8702
18481TIP3   OH276933   0.136   1.893   3.150  0.4158 -0.6706  0.3333
18481TIP3    H176934   0.219   1.939   3.162  0.5367 -0.5633 -0.8412
18481TIP3    H276935   0.096   1.935   3.074 -0.4057 -1.1699  0.4794
18482TIP3   OH276936   0.862   3.725   6.249 -0.0686  0.9872 -0.3994
18482TIP3    H176937   0.786   3.760   6.295  0.1169  3.4310 -1.7538
18482TIP3    H276938   0.835   3.638   6.219 -3.0518  2.4525 -2.3627
18483TIP3   OH276939   1.874   1.335  12.520  0.8449  0.3226  0.3719
18483TIP3    H176940   1.789   1.377  12.534  0.6387 -0.1791  0.6289
18483TIP3    H276941   1.912   1.326  12.608  0.5534 -0.7232  0.4009
18484TIP3   OH276942   2.055   0.896  16.111  1.1693  0.0768  0.1352
18484TIP3    H176943   2.109   0.969  16.142  1.1410  1.8052 -3.4046
18484TIP3    H276944   1.967   0.916  16.142  1.4197  0.7644  0.4209
18485TIP3   OH276945   0.929   6.643  12.443 -0.1139  0.3332  0.4346
18485TIP3    H176946   0.990   6.710  12.474 -0.1643 -0.1426  1.6135
18485TIP3    H276947   0.934   6.649  12.348 -2.0078  3.7785  0.3685
18486TIP3   OH276948   5.136   5.655  11.926 -0.5523 -0.2494  0.4243
18486TIP3    H176949   5.104   5.644  12.016 -0.8988  1.7664  0.5844
18486TIP3    H276950   5.206   5.720  11.933  0.3741 -1.0899 -0.6024
18487TIP3   OH276951   0.423   3.125  13.334  0.3140  0.6144  0.0181
18487TIP3    H176952   0.462   3.107  13.248 -0.8882 -1.3334 -0.1775
18487TIP3    H276953   0.361   3.054  13.347 -1.2052  2.1341  1.5076
18488TIP3   OH276954   2.184   4.217  16.882 -0.5900 -0.1539 -0.5492
18488TIP3    H176955   2.154   4.296  16.837  0.1644 -0.5389 -1.7495
18488TIP3    H276956   2.109   4.158  16.880 -1.3201  0.6577  0.7620
18489TIP3   OH276957   4.859   2.325   2.862 -0.2868 -0.2711 -0.2427
18489TIP3    H176958   4.938   2.354   2.906 -1.5498  0.7341  1.5187
18489TIP3    H276959   4.866   2.230   2.857  1.9329 -0.0830 -2.0523
18490TIP3   OH276960   4.891   0.437  16.874  0.1405 -0.5441  0.4964
18490TIP3    H176961   4.817   0.390  16.835  1.2509  0.1584 -2.6892
18490TIP3    H276962   4.968   0.394  16.838  1.2130  1.8431 -0.2556
18491TIP3   OH276963   6.829   3.739   1.054  0.3950 -0.3607 -0.5575
18491TIP3    H176964   6.763   3.800   1.085  0.3235 -1.0183  0.6339
18491TIP3    H276965   6.907   3.793   1.039  0.3670  0.0159  0.5817
18492TIP3   OH276966   6.527   4.816  15.885  0.3849 -0.1145  0.1566
18492TIP3    H176967   6.441   4.841  15.918  0.1494 -0.4570 -0.1959
18492TIP3    H276968   6.543   4.876  15.812 -0.3801 -1.2549 -0.9851
18493TIP3   OH276969   6.436   1.237  13.082  0.0905  0.2056  0.2932
18493TIP3    H176970   6.388   1.196  13.154 -2.0701 -1.2990 -1.8472
18493TIP3    H276971   6.380   1.309  13.053 -0.3802 -0.7973 -1.4412
18494TIP3   OH276972   0.650   1.938  14.592 -0.2958 -0.2639 -0.1255
18494TIP3    H176973   0.657   2.031  14.569  0.8615 -0.2491  0.2209
18494TIP3    H276974   0.558   1.926  14.616 -0.4803  0.7719 -0.2657
18495TIP3   OH276975   6.205   2.170  14.631 -0.1128  0.1159  0.1778
18495TIP3    H176976   6.129   2.199  14.580  0.0901 -1.7105 -1.2703
18495TIP3    H276977   6.224   2.082  14.598  2.7395  0.5716  0.3341
18496TIP3   OH276978   5.204   1.822   4.951  0.2011  0.1773 -0.3371
18496TIP3    H176979   5.188   1.751   4.890  1.4522 -0.4568  0.0382
18496TIP3    H276980   5.207   1.780   5.037 -0.2774  0.8679  0.0237
18497TIP3   OH276981   5.228   0.431   5.908  0.2049 -0.4729  0.2977
18497TIP3    H176982   5.201   0.449   5.998 -0.7615  0.4172 -0.1485
18497TIP3    H276983   5.202   0.340   5.893  3.5201 -1.8677  1.9923
18498TIP3   OH276984   3.449   4.348   0.307 -0.0771 -0.1306 -0.5323
18498TIP3    H176985   3.411   4.298   0.234  0.5863  0.7577 -1.5067
18498TIP3    H276986   3.542   4.356   0.284 -0.0111  0.7902  0.0471
18499TIP3   OH276987   4.494   5.685  15.110 -0.1543 -0.0650 -0.2557
18499TIP3    H176988   4.519   5.623  15.042 -0.1579  0.0813 -0.3914
18499TIP3    H276989   4.406   5.714  15.085 -0.3595 -0.3817  0.0761
18500TIP3   OH276990   4.728   3.291  15.951  0.0895 -0.5017  0.0635
18500TIP3    H176991   4.634   3.311  15.949  0.5379  1.8668 -1.3301
18500TIP3    H276992   4.744   3.245  15.868  0.0843 -1.4130  0.5585
18501TIP3   OH276993   2.727   5.695   0.351 -0.1423 -0.8637  0.0155
18501TIP3    H176994   2.688   5.671   0.435  1.2644 -1.6606  0.4664
18501TIP3    H276995   2.733   5.791   0.354 -0.4821 -0.8540  0.6513
18502TIP3   OH276996   0.186   5.738   4.011 -0.0870  0.2270  0.2338
18502TIP3    H176997   0.207   5.736   3.918 -0.2380 -0.6386  0.2061
18502TIP3    H276998   0.221   5.655   4.045 -1.6173 -0.3130  0.5812
18503TIP3   OH276999   3.095   5.037  13.079 -0.3452  0.4322  0.4315
18503TIP3    H177000   3.126   5.004  13.164 -1.5671 -1.9790  0.0295
18503TIP3    H277001   3.070   5.127  13.097  2.1215  0.9402  1.9096
18504TIP3   OH277002   4.151   0.090  13.982 -0.1950  0.6100 -0.6711
18504TIP3    H177003   4.075   0.142  14.008 -0.4457 -0.3543  0.6459
18504TIP3    H277004   4.132   0.062  13.893 -1.3252  0.4818 -0.3962
18505TIP3   OH277005   0.886   4.836  13.924 -0.0092  0.3380  0.3410
18505TIP3    H177006   0.927   4.918  13.897 -0.7406  0.9265  0.9534
18505TIP3    H277007   0.951   4.796  13.982  1.9050 -1.3073 -2.6652
18506TIP3   OH277008   2.928   4.795  13.436 -0.1601 -0.3760  0.2824
18506TIP3    H177009   2.856   4.780  13.375  0.1564  1.2014 -0.5202
18506TIP3    H277010   2.907   4.878  13.478  0.8141 -0.2769  0.5932
18507TIP3   OH277011   3.532   4.340  12.174 -0.3874  0.5671  0.0737
18507TIP3    H177012   3.557   4.301  12.091 -0.0544 -1.3298  1.0005
18507TIP3    H277013   3.600   4.311  12.235 -2.6641 -1.4524  1.8390
18508TIP3   OH277014   0.517   3.231  14.549  0.3094  0.3275 -0.0031
18508TIP3    H177015   0.589   3.293  14.557  0.6827 -0.1487  0.3360
18508TIP3    H277016   0.558   3.145  14.548 -0.2016  0.0784 -0.5360
18509TIP3   OH277017   2.204   1.297  14.071  0.1121  0.2561  0.2341
18509TIP3    H177018   2.119   1.303  14.115  0.1940 -0.4019  0.5004
18509TIP3    H277019   2.182   1.279  13.980 -0.0463  0.9023  0.1387
18510TIP3   OH277020   0.602   0.644  13.036 -0.1922 -0.2898 -0.5027
18510TIP3    H177021   0.623   0.551  13.024  1.2702 -0.4545  2.3996
18510TIP3    H277022   0.687   0.687  13.042 -0.8378  1.0178 -0.4199
18511TIP3   OH277023   6.746   2.968  12.350  0.6036 -0.1726  0.4878
18511TIP3    H177024   6.729   2.985  12.443  1.3532  0.9778  0.4363
18511TIP3    H277025   6.812   3.034  12.325 -1.9693  1.8111 -1.6893
18512TIP3   OH277026   0.434   3.547   0.301 -1.2843 -0.2086 -0.7096
18512TIP3    H177027   0.401   3.523   0.388  2.4009  0.3467  1.0314
18512TIP3    H277028   0.473   3.467   0.267  0.5645  0.4003 -0.1265
18513TIP3   OH277029   5.427   5.602  10.265  0.1822  0.0458  0.4950
18513TIP3    H177030   5.333   5.608  10.282 -0.8799 -1.2339 -3.7416
18513TIP3    H277031   5.454   5.692  10.247 -0.8252  0.1717 -0.4978
18514TIP3   OH277032   5.873   3.307   0.070  0.4306 -0.0633  0.4169
18514TIP3    H177033   5.899   3.248   0.141  2.4969 -0.2749 -0.4410
18514TIP3    H277034   5.883   3.255  -0.010 -0.8107  0.5022 -0.1214
18515TIP3   OH277035   6.439   6.029  13.636  0.3350  0.0356 -0.2306
18515TIP3    H177036   6.494   6.028  13.715  1.1262  0.1369 -0.7733
18515TIP3    H277037   6.500   6.046  13.565 -0.6273  2.0296 -0.6655
18516TIP3   OH277038   3.638   3.542  16.733  0.0442  0.6477  0.3771
18516TIP3    H177039   3.597   3.618  16.774  1.4061  0.4978  2.1823
18516TIP3    H277040   3.618   3.470  16.793  1.8191  0.3474  0.6601
18517TIP3   OH277041   0.033   2.161   2.051 -0.3791 -0.0747  0.4310
18517TIP3    H177042   0.126   2.140   2.052 -0.6467 -2.0476 -2.7816
18517TIP3    H277043  -0.003   2.113   2.126  1.3907  2.9405  3.4966
18518TIP3   OH277044   2.798   1.297   2.767 -0.2581 -0.0124 -0.0312
18518TIP3    H177045   2.744   1.220   2.784  0.6185 -0.2895  1.6427
18518TIP3    H277046   2.885   1.274   2.800  0.3201  1.2614 -0.5925
18519TIP3   OH277047   5.245   0.503  13.444  0.1278  0.2461 -0.2302
18519TIP3    H177048   5.251   0.467  13.532  1.5496  1.0966  0.0521
18519TIP3    H277049   5.335   0.529  13.422 -0.1890  0.0454 -1.9375
18520TIP3   OH277050   0.536   5.341  11.840  0.8004  0.1606  0.2257
18520TIP3    H177051   0.568   5.258  11.803 -2.0111 -0.8224 -0.2319
18520TIP3    H277052   0.473   5.315  11.907  0.1004  1.9279  0.3082
18521TIP3   OH277053   0.531   3.315  12.576 -0.5800  0.3627 -0.0459
18521TIP3    H177054   0.561   3.275  12.658 -1.2875  0.1048  0.0951
18521TIP3    H277055   0.462   3.377  12.603 -0.3104  0.8146 -0.3772
18522TIP3   OH277056   2.895   6.197   6.181  0.7358 -0.2229 -0.0114
18522TIP3    H177057   2.989   6.185   6.168  0.6214  0.0002 -1.0992
18522TIP3    H277058   2.880   6.289   6.160  0.2646 -0.2607  0.1604
18523TIP3   OH277059   2.023   4.906  11.926  0.7534 -0.0476  0.2916
18523TIP3    H177060   2.083   4.832  11.934  1.8185  0.8131  0.6384
18523TIP3    H277061   1.948   4.883  11.980  0.5242 -1.3710 -0.5517
18524TIP3   OH277062   2.944   3.376  11.074 -0.2621  0.3221  0.2999
18524TIP3    H177063   2.904   3.363  11.160 -1.8001 -2.8969 -0.7476
18524TIP3    H277064   2.878   3.423  11.023  0.0816  0.9869  0.4573
18525TIP3   OH277065   6.196   1.586   5.016  0.2077  0.8152 -0.4438
18525TIP3    H177066   6.284   1.624   5.025  0.0679  0.8156  1.2641
18525TIP3    H277067   6.140   1.643   5.068 -0.4051 -0.4778  0.3556
18526TIP3   OH277068   0.630   3.663   5.031 -0.0858  0.0607  0.1994
18526TIP3    H177069   0.610   3.694   4.942 -0.2439 -0.2712  0.1185
18526TIP3    H277070   0.569   3.592   5.046  0.5362 -0.4782  0.2347
18527TIP3   OH277071   4.610   3.970  14.348 -0.2830  0.4590  0.1118
18527TIP3    H177072   4.686   3.920  14.318 -0.0956  0.3735  0.7115
18527TIP3    H277073   4.538   3.906  14.346 -0.3635  0.5577 -0.5180
18528TIP3   OH277074   6.253   6.561  15.334  0.1458  0.1689 -0.1259
18528TIP3    H177075   6.223   6.549  15.244 -0.2830 -0.6796  0.1238
18528TIP3    H277076   6.184   6.524  15.388  1.7123 -2.1149  0.4479
18529TIP3   OH277077   4.624   1.031  11.108  0.5497  0.1589  0.2600
18529TIP3    H177078   4.702   0.979  11.089 -0.9663 -1.3001 -2.8537
18529TIP3    H277079   4.590   0.994  11.190  0.8856 -2.2060 -0.5683
18530TIP3   OH277080   3.061   5.026  16.134 -0.1003  0.5575 -0.6635
18530TIP3    H177081   3.023   5.075  16.061  1.0848  1.1763 -0.8825
18530TIP3    H277082   3.034   5.075  16.212 -0.1230  0.7423 -0.7858
18531TIP3   OH277083   1.006   5.045   2.504 -0.0241 -0.4114  0.3728
18531TIP3    H177084   0.961   5.023   2.585  0.1656 -0.3593  0.4908
18531TIP3    H277085   1.078   5.103   2.530 -0.9056  0.8906 -0.0118
18532TIP3   OH277086   5.425   0.828   5.897 -0.1117 -0.2013  0.2990
18532TIP3    H177087   5.480   0.905   5.909 -1.4010  0.4045  3.3228
18532TIP3    H277088   5.483   0.754   5.911  0.7811  0.2628 -0.8423
18533TIP3   OH277089   5.358   5.543  11.568 -0.2788 -0.0888 -0.3503
18533TIP3    H177090   5.271   5.578  11.585 -0.0464  0.5944 -0.5453
18533TIP3    H277091   5.352   5.451  11.592 -1.6117 -0.5260 -2.1200
18534TIP3   OH277092   5.265   1.693   1.893  0.2162  0.2908  0.4808
18534TIP3    H177093   5.359   1.682   1.906  0.3864  0.8151 -0.2357
18534TIP3    H277094   5.254   1.786   1.876 -0.3353  0.1007 -0.2352
18535TIP3   OH277095   4.605   4.530  13.292 -0.2904  0.2664  0.0439
18535TIP3    H177096   4.524   4.578  13.310 -0.0256  0.8402 -0.2609
18535TIP3    H277097   4.587   4.481  13.212 -0.9924 -1.1722  1.0388
18536TIP3   OH277098   3.652   4.824  11.325  0.4187 -0.5572  0.2888
18536TIP3    H177099   3.621   4.874  11.401 -0.2210  0.6166 -0.7080
18536TIP3    H277100   3.585   4.757  11.311  0.5779 -0.8284  0.7879
18537TIP3   OH277101   3.860   4.020   2.939  0.1848 -0.0990 -0.1973
18537TIP3    H177102   3.796   3.953   2.915 -0.6657  0.0749  1.4742
18537TIP3    H277103   3.910   4.035   2.858 -1.4297 -0.7184 -1.3579
18538TIP3   OH277104   4.391   1.586  14.439  0.0735 -0.7089 -1.0816
18538TIP3    H177105   4.397   1.550  14.527  1.0266  1.7349 -0.0469
18538TIP3    H277106   4.364   1.512  14.384  0.9227 -2.6757  0.9864
18539TIP3   OH277107   1.108   3.249   5.064  0.3477  0.4614  0.2605
18539TIP3    H177108   1.171   3.307   5.021  0.1865  0.5183  0.1011
18539TIP3    H277109   1.086   3.184   4.997  1.6411 -0.6662  0.8841
18540TIP3   OH277110   1.895   6.300   1.638  0.1439  0.2520 -0.4690
18540TIP3    H177111   1.862   6.357   1.569 -0.5459  0.5155  0.0580
18540TIP3    H277112   1.862   6.213   1.615 -0.3960  0.4043 -0.2824
18541TIP3   OH277113   6.001   5.955   6.113 -0.1012  0.5538 -0.4099
18541TIP3    H177114   5.944   5.920   6.181 -0.2948  0.7265 -0.4841
18541TIP3    H277115   6.046   6.028   6.155  1.8528 -1.0122  0.4050
18542TIP3   OH277116   0.728   5.491   4.078  0.7398  0.1824 -0.1664
18542TIP3    H177117   0.686   5.536   4.152  2.5103  0.7314  0.5486
18542TIP3    H277118   0.665   5.500   4.007 -0.0428  1.6467  0.6440
18543TIP3   OH277119   5.574   3.967  10.501 -0.4855  0.3130 -0.1109
18543TIP3    H177120   5.492   4.002  10.536  0.6712  1.5040  1.5511
18543TIP3    H277121   5.559   3.961  10.406 -2.3241  0.9287  0.1000
18544TIP3   OH277122   6.543   1.823  11.859  0.2494  0.3260 -0.3054
18544TIP3    H177123   6.538   1.894  11.924 -1.5609  0.0295 -0.0485
18544TIP3    H277124   6.542   1.743  11.912  1.4958  0.0790 -0.6260
18545TIP3   OH277125   2.230   0.098  12.732  0.0470  0.0804  0.6232
18545TIP3    H177126   2.189   0.014  12.753  2.3578 -1.1889  0.4203
18545TIP3    H277127   2.295   0.076  12.665  2.6329  1.4835  2.5191
18546TIP3   OH277128   2.863   5.000  14.205  0.2789  0.4136 -0.4979
18546TIP3    H177129   2.892   5.090  14.218  0.2955  0.8407 -3.0296
18546TIP3    H277130   2.773   5.008  14.172  0.8581 -0.3566 -2.3831
18547TIP3   OH277131   1.316   2.958  12.638  0.0293 -0.2490  0.4643
18547TIP3    H177132   1.256   2.913  12.697 -0.5084 -0.1869 -0.0281
18547TIP3    H277133   1.329   3.044  12.679 -0.9263  0.0709  0.1342
18548TIP3   OH277134   0.312   2.011   3.783  0.5337 -0.0154  0.5352
18548TIP3    H177135   0.313   1.923   3.745 -1.6224 -0.1181  0.5745
18548TIP3    H277136   0.226   2.045   3.760  0.8707  1.6270  1.5822
18549TIP3   OH277137   3.856   0.530  13.729  0.0684  0.0061  0.8948
18549TIP3    H177138   3.891   0.552  13.643 -1.3970 -0.5163  0.1409
18549TIP3    H277139   3.924   0.476  13.769  0.2610 -0.7529 -0.4138
18550TIP3   OH277140   1.015   2.112  14.977 -0.1843  0.4171  0.5526
18550TIP3    H177141   1.058   2.170  15.040 -0.5548  2.1364 -0.7141
18550TIP3    H277142   1.062   2.125  14.895 -0.5468 -0.7848  0.1255
18551TIP3   OH277143   4.706   3.353  10.946 -0.2345  0.1676  0.0455
18551TIP3    H177144   4.622   3.353  10.900  0.4802 -0.7913 -1.3643
18551TIP3    H277145   4.767   3.393  10.884  0.6990 -0.8483  0.2747
18552TIP3   OH277146   4.544   2.609  13.926 -0.4532 -0.2466 -0.2100
18552TIP3    H177147   4.593   2.537  13.967  0.3799  0.2768 -0.2630
18552TIP3    H277148   4.526   2.669  13.998  0.8972  0.6093 -0.5594
18553TIP3   OH277149   5.012   0.906  14.418 -0.1664  0.5990  0.1880
18553TIP3    H177150   5.090   0.927  14.470 -1.1062  0.4675  1.7107
18553TIP3    H277151   5.042   0.842  14.354  0.5762 -1.0874  2.1006
18554TIP3   OH277152   1.386   0.556   0.569  0.4062 -0.3062 -0.5320
18554TIP3    H177153   1.462   0.591   0.615 -0.3752  1.0929 -0.2764
18554TIP3    H277154   1.364   0.622   0.504 -1.1817 -0.2149  0.0480
18555TIP3   OH277155   5.944   6.477  13.920 -0.3683  0.1253  0.1258
18555TIP3    H177156   5.868   6.484  13.977 -0.2311  0.2170  0.2986
18555TIP3    H277157   5.937   6.550  13.859 -0.3863  0.1692  0.1810
18556TIP3   OH277158   1.906   1.314   6.702 -0.4706 -0.2084  0.2764
18556TIP3    H177159   1.863   1.392   6.668 -1.0587 -0.0471  1.3575
18556TIP3    H277160   1.994   1.343   6.725  0.6985 -0.7717 -2.9225
18557TIP3   OH277161   1.963   4.735  12.423 -0.1060  0.3836 -0.3489
18557TIP3    H177162   2.026   4.704  12.358  0.2367  0.7094 -0.1752
18557TIP3    H277163   1.915   4.656  12.448  0.3373  0.1017 -0.3625
18558TIP3   OH277164   3.538   2.481   2.136 -0.1188 -0.1629 -0.1116
18558TIP3    H177165   3.551   2.469   2.042 -1.3476  0.0184 -0.3167
18558TIP3    H277166   3.545   2.393   2.173  2.3435 -0.0371 -0.0642
18559TIP3   OH277167   3.331   3.524  17.040  0.0094  0.2927  0.0802
18559TIP3    H177168   3.309   3.545  16.949 -2.2913 -2.1663 -0.0477
18559TIP3    H277169   3.254   3.552  17.090  0.5910  0.1899  1.0582
18560TIP3   OH277170   3.619   0.624  16.247 -0.0323 -0.3314  0.0495
18560TIP3    H177171   3.602   0.562  16.319  4.3177 -1.9343 -0.0157
18560TIP3    H277172   3.631   0.708  16.291 -1.1960 -0.4678  0.6863
18561TIP3   OH277173   3.902   1.405   4.171 -0.1693  0.3349 -0.3132
18561TIP3    H177174   3.930   1.412   4.079 -2.8012  1.6036 -1.1406
18561TIP3    H277175   3.959   1.466   4.218 -0.8063  2.1258 -1.7249
18562TIP3   OH277176   0.969   3.200  14.573 -0.3052  0.1936 -0.4596
18562TIP3    H177177   0.899   3.260  14.596 -0.6261 -0.3446 -0.0107
18562TIP3    H277178   1.049   3.251  14.586 -0.5583  0.4300  0.2148
18563TIP3   OH277179   5.186   1.793  11.509  0.1519 -0.4150 -0.2979
18563TIP3    H177180   5.197   1.787  11.414  1.7311  1.7998 -0.3414
18563TIP3    H277181   5.157   1.882  11.524  1.7875 -0.1027  1.3909
18564TIP3   OH277182   4.845   0.987   2.719 -0.0061 -0.3611 -1.3482
18564TIP3    H177183   4.901   0.914   2.744  2.0088  0.9252 -1.7982
18564TIP3    H277184   4.831   1.035   2.800  1.6092  0.5885 -1.5668
18565TIP3   OH277185   6.519   5.489  12.010  0.5633 -0.1960  0.2024
18565TIP3    H177186   6.441   5.443  12.043  1.8549 -2.3741  0.4467
18565TIP3    H277187   6.494   5.518  11.922 -1.3957  1.6148  1.2605
18566TIP3   OH277188   5.796   3.817  11.711  0.0126 -0.1812 -0.3751
18566TIP3    H177189   5.711   3.807  11.668 -0.1612  0.7727 -0.2736
18566TIP3    H277190   5.801   3.743  11.772 -1.0340  0.1195  0.0953
18567TIP3   OH277191   3.603   2.751   5.930 -0.3620 -0.0589  0.3459
18567TIP3    H177192   3.643   2.675   5.973  0.1483  0.5982  1.0493
18567TIP3    H277193   3.625   2.739   5.837 -2.7414 -2.2679 -0.0611
18568TIP3   OH277194   6.422   6.477   5.465  0.9028  0.5470 -0.5652
18568TIP3    H177195   6.423   6.430   5.382 -2.1380 -0.4357 -0.1703
18568TIP3    H277196   6.455   6.565   5.443  0.2727  0.2952 -2.7895
18569TIP3   OH277197   5.221   1.855  11.247 -0.4449  0.5368  0.1113
18569TIP3    H177198   5.282   1.912  11.200  1.7646 -0.6442  1.3525
18569TIP3    H277199   5.180   1.801  11.179 -0.9809  2.0925 -0.8538
18570TIP3   OH277200   2.300   3.744  11.322 -0.4476  0.2198 -0.4967
18570TIP3    H177201   2.282   3.834  11.349  2.1165  1.2715 -1.7947
18570TIP3    H277202   2.383   3.751  11.273  0.9676 -3.1565  1.0909
18571TIP3   OH277203   5.356   4.101   4.871 -0.4115 -0.3904 -0.2490
18571TIP3    H177204   5.300   4.165   4.917 -0.3499 -1.3442  1.1920
18571TIP3    H277205   5.403   4.154   4.806 -2.3032  0.5970 -0.9151
18572TIP3   OH277206   6.617   2.737   4.703  0.1486 -0.1802  0.0363
18572TIP3    H177207   6.598   2.775   4.789 -1.5084 -0.5651 -0.1229
18572TIP3    H277208   6.649   2.811   4.651  1.2660  0.0364  0.9974
18573TIP3   OH277209   4.939   4.336   0.113  0.2881 -0.0185 -0.4626
18573TIP3    H177210   4.958   4.318   0.205 -0.5887  0.1922 -0.2311
18573TIP3    H277211   5.010   4.293   0.065 -0.4591 -2.1334  0.1926
18574TIP3   OH277212   2.305   4.086   0.143  0.0855 -0.2231 -0.0978
18574TIP3    H177213   2.324   4.158   0.083 -0.9392  0.9570  0.9305
18574TIP3    H277214   2.224   4.112   0.186  0.1099 -1.6408  0.8713
18575TIP3   OH277215   4.643   2.620   3.679 -0.5274  0.4250  0.5844
18575TIP3    H177216   4.679   2.579   3.601 -2.6078 -0.2596 -0.0950
18575TIP3    H277217   4.719   2.639   3.734  1.0074  0.9610 -1.5977
18576TIP3   OH277218   3.426   3.204   5.643 -0.2074 -0.0137 -0.7114
18576TIP3    H177219   3.442   3.184   5.551 -2.7072  0.5533 -1.3377
18576TIP3    H277220   3.334   3.180   5.658 -0.2647  1.1924  1.2620
18577TIP3   OH277221   1.851   4.293  17.128  0.3687  0.7203  0.1767
18577TIP3    H177222   1.940   4.326  17.122  1.2102 -1.4318 -0.0984
18577TIP3    H277223   1.833   4.256  17.041  0.2591 -1.2590  0.9888
18578TIP3   OH277224   2.602   4.235  15.564  0.4130  0.6768  0.0529
18578TIP3    H177225   2.590   4.307  15.503  0.0130  2.0962  1.7240
18578TIP3    H277226   2.684   4.254  15.608  1.8148 -1.4744 -1.4386
18579TIP3   OH277227   3.630   5.758  16.065  0.8758 -0.0822  0.1359
18579TIP3    H177228   3.647   5.741  15.972 -2.3429  1.5218 -0.9133
18579TIP3    H277229   3.609   5.673  16.101  1.3081 -0.6158 -0.8107
18580TIP3   OH277230   3.914   1.900  10.344 -0.2564 -0.2699  0.4447
18580TIP3    H177231   3.979   1.920  10.277 -0.8312 -1.7653 -0.6067
18580TIP3    H277232   3.888   1.810  10.326 -1.2505 -0.3306  2.0031
18581TIP3   OH277233   3.305   2.750  16.929  0.2837 -0.5290 -0.0551
18581TIP3    H177234   3.236   2.703  16.883  0.1682  0.6499 -1.1354
18581TIP3    H277235   3.260   2.795  17.000 -0.1905  0.7342 -1.1268
18582TIP3   OH277236   1.827   2.118  15.591  0.6062  0.5837 -0.2998
18582TIP3    H177237   1.759   2.053  15.607  3.1628 -2.3005 -0.2941
18582TIP3    H277238   1.802   2.193  15.644 -1.4859 -1.1332  1.2965
18583TIP3   OH277239   2.256   4.859  11.250 -0.0392 -0.3085 -0.5740
18583TIP3    H177240   2.299   4.794  11.194  0.4702 -0.3726 -0.1177
18583TIP3    H277241   2.266   4.824  11.338  1.1102  0.8677 -0.2176
18584TIP3   OH277242   1.784   2.904  13.472  0.3942 -0.0077  0.8733
18584TIP3    H177243   1.784   2.895  13.377  1.7981 -0.7895  0.9081
18584TIP3    H277244   1.827   2.824  13.503  3.8348  1.9982  1.8794
18585TIP3   OH277245   4.138   5.576   1.261 -0.3239  1.0016  0.6397
18585TIP3    H177246   4.195   5.521   1.315  0.3860  1.9148  0.8524
18585TIP3    H277247   4.113   5.649   1.319 -1.2808  0.8909  0.3823
18586TIP3   OH277248   0.812   2.945  15.685 -0.0924 -0.7187 -0.1526
18586TIP3    H177249   0.888   2.942  15.627  2.1754 -1.9834  2.6340
18586TIP3    H277250   0.788   3.038  15.688  0.1099 -0.5294 -2.4714
18587TIP3   OH277251   1.459   2.547  12.324  0.1189 -0.2221 -0.2205
18587TIP3    H177252   1.540   2.566  12.370  0.4890  1.2027 -1.3679
18587TIP3    H277253   1.400   2.618  12.348 -1.4686 -2.1448  1.9754
18588TIP3   OH277254   2.534   6.385  16.191 -0.4789  0.7787  0.1374
18588TIP3    H177255   2.588   6.350  16.120  0.2474 -0.3889  1.2192
18588TIP3    H277256   2.450   6.404  16.151 -0.2617 -0.3877 -0.9086
18589TIP3   OH277257   2.878   6.419  11.787  0.2106 -0.4349 -0.3651
18589TIP3    H177258   2.963   6.441  11.826 -0.1531 -0.1209  0.2682
18589TIP3    H277259   2.899   6.395  11.697  0.8516  0.7428 -0.5517
18590TIP3   OH277260   3.814   3.626   6.566  0.7744 -0.7873 -0.4848
18590TIP3    H177261   3.853   3.641   6.652  2.9539  2.5040 -1.8748
18590TIP3    H277262   3.872   3.562   6.524  0.7912 -0.9643 -0.1921
18591TIP3   OH277263   3.838   0.298  15.855  0.8671 -0.0363 -0.2692
18591TIP3    H177264   3.914   0.263  15.901  2.3559  0.9487 -1.8386
18591TIP3    H277265   3.869   0.380  15.816 -0.2306 -0.7715 -2.9417
18592TIP3   OH277266   5.235   0.695   4.373  0.5100  0.2778  0.3034
18592TIP3    H177267   5.272   0.703   4.461 -0.6234 -1.1494  0.9543
18592TIP3    H277268   5.236   0.784   4.339  1.5032  0.7790  1.5326
18593TIP3   OH277269   1.526   4.174   1.406 -0.2394 -0.0695 -0.3896
18593TIP3    H177270   1.599   4.179   1.344 -0.0894 -0.0918 -0.2160
18593TIP3    H277271   1.555   4.226   1.482  1.0380 -2.7732  1.1292
18594TIP3   OH277272   4.987   3.662  11.266  0.4060 -0.3131 -0.4494
18594TIP3    H177273   5.023   3.692  11.183  0.9512  1.6255  0.4296
18594TIP3    H277274   4.905   3.710  11.276  0.6047 -0.1156  0.3616
18595TIP3   OH277275   6.160   5.143   2.471 -0.3850  0.3603  0.0521
18595TIP3    H177276   6.124   5.228   2.448 -0.9262 -0.0512 -0.6813
18595TIP3    H277277   6.254   5.157   2.477 -0.4660  0.9940 -0.1199
18596TIP3   OH277278   4.676   2.234  15.111  0.5884 -0.2950 -0.1961
18596TIP3    H177279   4.756   2.195  15.145  1.0527  1.1568  0.4729
18596TIP3    H277280   4.629   2.161  15.070  2.1238 -1.2223 -0.3921
18597TIP3   OH277281   1.567   4.232  12.164  0.0459 -0.3750  0.4052
18597TIP3    H177282   1.574   4.320  12.126  0.0946 -1.3274 -1.9562
18597TIP3    H277283   1.474   4.213  12.164  0.1750 -1.9565 -3.4356
18598TIP3   OH277284   0.031   5.718   5.451 -0.0342 -0.0491  0.0101
18598TIP3    H177285   0.103   5.757   5.500  0.8098 -0.7948 -0.6056
18598TIP3    H277286  -0.047   5.758   5.488  0.5724 -0.4755  1.8515
18599TIP3   OH277287   5.723   2.179  15.387 -0.5108  0.2593  0.1924
18599TIP3    H177288   5.764   2.093  15.399 -1.3412 -0.2196 -0.2812
18599TIP3    H277289   5.630   2.163  15.401 -0.5753  1.2894  1.0638
18600TIP3   OH277290   6.538   5.000   2.298 -0.0616  0.2126  0.4167
18600TIP3    H177291   6.585   4.919   2.279 -0.9178 -0.1798 -0.0285
18600TIP3    H277292   6.470   5.006   2.231  0.7422  1.9262 -0.3247
18601TIP3   OH277293   0.814   1.807   3.021  0.6517  0.3157  0.2007
18601TIP3    H177294   0.901   1.794   2.983  0.7566 -1.9003  1.0743
18601TIP3    H277295   0.775   1.720   3.021 -1.6920  1.3092 -0.3947
18602TIP3   OH277296   5.850   2.775  13.136 -0.0435  0.2986  0.1016
18602TIP3    H177297   5.857   2.681  13.119 -0.0624  0.2463  0.3779
18602TIP3    H277298   5.771   2.785  13.188  0.5595  0.3277  1.0408
18603TIP3   OH277299   1.758   3.875  16.719 -0.5568  0.5144 -0.0966
18603TIP3    H177300   1.830   3.879  16.782 -0.8233 -0.0503  0.2569
18603TIP3    H277301   1.750   3.782  16.698  0.6628  0.8444 -2.3074
18604TIP3   OH277302   0.012   6.018   1.293 -0.2465 -0.3457 -0.1006
18604TIP3    H177303  -0.074   5.976   1.302  0.0246 -1.0061 -0.5856
18604TIP3    H277304   0.066   5.975   1.359 -0.2359 -0.0604  0.0767
18605TIP3   OH277305   3.345   4.844   6.093 -0.3507  0.2915 -0.2775
18605TIP3    H177306   3.301   4.908   6.038 -2.8919 -0.1505  1.1188
18605TIP3    H277307   3.281   4.775   6.107  0.9731 -0.6972  1.3981
18606TIP3   OH277308   6.732   6.195  16.507  0.2370 -0.1092  0.2130
18606TIP3    H177309   6.685   6.202  16.590  0.6953  0.5202  0.4244
18606TIP3    H277310   6.694   6.118  16.465 -0.6926  0.1493  0.5590
18607TIP3   OH277311   4.583   1.170  15.656  0.2582 -0.0802 -0.5061
18607TIP3    H177312   4.549   1.121  15.730  1.3599 -1.2077 -0.7231
18607TIP3    H277313   4.665   1.207  15.687 -0.2243  1.1014 -0.5642
18608TIP3   OH277314   5.519   4.905   5.892  0.2741 -0.2461 -0.6283
18608TIP3    H177315   5.576   4.843   5.939  1.2476 -0.2780 -1.8152
18608TIP3    H277316   5.486   4.856   5.817 -1.2793 -0.1917 -0.0123
18609TIP3   OH277317   1.642   2.497   0.002 -0.0974  0.0633  0.1188
18609TIP3    H177318   1.603   2.506  -0.085 -1.4553  0.4759  0.7324
18609TIP3    H277319   1.716   2.438  -0.010  0.6702  1.3198 -1.5798
18610TIP3   OH277320   5.405   0.122  10.402  0.7076  0.3903 -0.1605
18610TIP3    H177321   5.359   0.047  10.438  2.8911 -0.7997  0.3762
18610TIP3    H277322   5.413   0.103  10.308 -1.2140  1.3889 -0.5650
18611TIP3   OH277323   2.187   6.705   1.663 -0.1311  0.5448 -0.2906
18611TIP3    H177324   2.099   6.705   1.702  1.2446 -0.6880  3.1551
18611TIP3    H277325   2.202   6.613   1.641  0.4273  0.7071 -0.5919
18612TIP3   OH277326   3.384   3.596   0.537 -0.0287 -0.2446 -0.0788
18612TIP3    H177327   3.456   3.553   0.583  0.9162  0.1162 -1.1439
18612TIP3    H277328   3.344   3.653   0.602  2.0958  1.2605  0.0315
18613TIP3   OH277329   1.258   1.450  14.821  0.0083 -0.2297  0.1147
18613TIP3    H177330   1.244   1.433  14.914 -0.1733 -0.2616  0.0832
18613TIP3    H277331   1.176   1.492  14.792  0.9407  2.0021  0.4946
18614TIP3   OH277332   6.019   4.045  11.424  0.1673  0.0094  0.2577
18614TIP3    H177333   6.060   4.108  11.365 -1.4510  0.3920 -0.5323
18614TIP3    H277334   6.059   3.961  11.400  0.3321  0.3281 -0.6512
18615TIP3   OH277335   6.030   0.373  13.364 -0.1284  0.2495 -0.0465
18615TIP3    H177336   5.950   0.364  13.416  0.8342  1.7285  1.8325
18615TIP3    H277337   6.065   0.459  13.389  1.9280 -0.2551 -0.9855
18616TIP3   OH277338   2.989   2.568   3.122 -0.4674 -0.5463  0.0913
18616TIP3    H177339   2.897   2.545   3.133 -0.7663  0.8274  0.6594
18616TIP3    H277340   2.990   2.629   3.048  0.0990 -1.0649 -0.3511
18617TIP3   OH277341   6.650   4.146   3.202 -0.3751  0.1695  0.5662
18617TIP3    H177342   6.571   4.133   3.148 -1.3674  1.4284  1.6394
18617TIP3    H277343   6.638   4.085   3.275  0.1623 -0.3612  0.2186
18618TIP3   OH277344   4.173   3.780  10.931  0.1112  0.3626 -0.0591
18618TIP3    H177345   4.248   3.839  10.944 -0.2370  0.5199  1.4437
18618TIP3    H277346   4.104   3.817  10.986  0.4434 -2.4225  2.5049
18619TIP3   OH277347   2.137   1.619  13.474  0.1147  0.1199  0.8240
18619TIP3    H177348   2.097   1.535  13.456  0.8199 -0.5314  2.1299
18619TIP3    H277349   2.072   1.666  13.526 -0.4827  0.6029 -0.3288
18620TIP3   OH277350   1.972   4.244   1.684 -0.2582 -0.1891 -0.1328
18620TIP3    H177351   1.944   4.321   1.634 -0.4249  0.2870  0.6796
18620TIP3    H277352   1.892   4.214   1.728  0.0943  0.0200  0.6657
18621TIP3   OH277353   3.717   5.051   2.644  0.6059 -0.1109 -0.2410
18621TIP3    H177354   3.718   4.979   2.707 -1.0522 -0.9507 -1.1088
18621TIP3    H277355   3.743   5.010   2.561  0.4865  0.4789 -0.5699
18622TIP3   OH277356   0.698   6.103  15.202 -0.1782 -0.3286  0.4086
18622TIP3    H177357   0.644   6.065  15.133 -0.9892  0.2421  0.7123
18622TIP3    H277358   0.647   6.178  15.233  1.1270  0.6899  0.1755
18623TIP3   OH277359   3.782   1.282   0.441  0.9676 -0.0736 -0.0947
18623TIP3    H177360   3.764   1.265   0.533  0.9584  0.0790 -0.0691
18623TIP3    H277361   3.836   1.208   0.413  1.5668  0.2439  0.2140
18624TIP3   OH277362   3.523   5.496   1.616  0.0521  0.2100 -0.3110
18624TIP3    H177363   3.483   5.411   1.601  0.6644 -0.1968  0.3025
18624TIP3    H277364   3.485   5.526   1.699 -0.9647  1.0332 -1.0408
18625TIP3   OH277365   4.256   2.675  12.522  0.3142 -0.3880  0.1880
18625TIP3    H177366   4.214   2.744  12.573  1.1128  2.1431 -2.3033
18625TIP3    H277367   4.242   2.595  12.573 -1.6647  1.3873  2.6807
18626TIP3   OH277368   4.598   5.277  16.252 -0.4562 -0.0600  0.1601
18626TIP3    H177369   4.511   5.247  16.226 -0.6930 -0.5358  1.4277
18626TIP3    H277370   4.585   5.367  16.281 -0.6466 -0.3029  0.8596
18627TIP3   OH277371   4.231   1.813  13.712 -0.1495 -0.0992 -0.4071
18627TIP3    H177372   4.187   1.753  13.772 -0.2253 -0.2325 -0.5926
18627TIP3    H277373   4.290   1.865  13.767 -1.1263  0.6354 -0.0356
18628TIP3   OH277374   3.918   2.487  13.829  0.1545 -0.3135  0.1659
18628TIP3    H177375   3.962   2.514  13.749  0.6173  1.1476  0.8711
18628TIP3    H277376   3.853   2.423  13.801  1.8173 -1.5467 -1.0821
18629TIP3   OH277377   6.524   6.602   3.714  0.3341 -0.3509 -0.3284
18629TIP3    H177378   6.567   6.577   3.795  0.8965  1.0846 -0.1566
18629TIP3    H277379   6.463   6.671   3.739 -0.4718 -0.8114 -0.9329
18630TIP3   OH277380   6.536   3.195   1.645 -0.4280  0.5316  0.2090
18630TIP3    H177381   6.576   3.109   1.661 -0.6320  0.2882 -0.5323
18630TIP3    H277382   6.456   3.175   1.597  0.1317  1.1939 -1.0557
18631TIP3   OH277383   5.389   6.355  16.858 -0.2133  0.1521 -0.0354
18631TIP3    H177384   5.342   6.279  16.894 -1.6380  1.1452  0.2894
18631TIP3    H277385   5.339   6.380  16.781  1.1406 -0.1585 -1.0469
18632TIP3   OH277386   5.403   6.694  13.432  0.6078  0.5129  0.3614
18632TIP3    H177387   5.404   6.599  13.422  0.6206  0.6226 -0.7436
18632TIP3    H277388   5.345   6.726  13.364  0.1913  1.2771  1.0489
18633TIP3   OH277389   3.304   2.733  10.607 -0.0020 -0.3216  0.2920
18633TIP3    H177390   3.235   2.668  10.615 -1.2108  0.8018 -0.6662
18633TIP3    H277391   3.341   2.718  10.520 -0.6515  0.5885 -0.1576
18634TIP3   OH277392   5.076   3.921   1.338 -0.8209 -0.0241 -0.3210
18634TIP3    H177393   5.090   3.942   1.246 -2.1268  0.8605 -0.3439
18634TIP3    H277394   5.126   3.987   1.386  0.6435 -1.0569 -0.3620
18635TIP3   OH277395   6.408   6.065  12.576 -0.0890  0.7902 -1.1544
18635TIP3    H177396   6.403   6.102  12.487  1.0182  1.6453 -0.8879
18635TIP3    H277397   6.481   6.004  12.572 -0.5753  0.1932 -1.0391
18636TIP3   OH277398   4.687   4.189   2.040 -0.3718  0.0789  0.5939
18636TIP3    H177399   4.781   4.185   2.024 -0.5583 -3.2516 -0.4027
18636TIP3    H277400   4.679   4.213   2.132  1.4147  0.9205  0.5619
18637TIP3   OH277401   5.389   1.916   2.903  0.6984  0.2237 -0.1014
18637TIP3    H177402   5.392   1.824   2.877  0.3245  0.6741 -1.9076
18637TIP3    H277403   5.312   1.922   2.960  0.5330 -0.5336 -0.2335
18638TIP3   OH277404   4.443   0.005   6.120  0.0325  0.1320  0.1349
18638TIP3    H177405   4.446   0.012   6.216  0.9664 -0.4859  0.1632
18638TIP3    H277406   4.373   0.065   6.094 -0.0576  0.5073  1.1866
18639TIP3   OH277407   2.830   1.803  11.500  0.2010  0.0507  0.0990
18639TIP3    H177408   2.869   1.871  11.445  0.0967  0.4891  0.5555
18639TIP3    H277409   2.897   1.786  11.566 -0.5700  1.2211  1.2368
18640TIP3   OH277410   6.529   0.549  13.079  0.0614 -0.5249 -0.0689
18640TIP3    H177411   6.471   0.613  13.036 -0.3627 -0.3084  0.8077
18640TIP3    H277412   6.489   0.534  13.164  2.4744  1.4155  1.5680
18641TIP3   OH277413   0.207   0.815  15.105 -0.3819 -0.3401  0.6873
18641TIP3    H177414   0.154   0.743  15.071  0.3199  0.3048 -2.0029
18641TIP3    H277415   0.184   0.889  15.050  2.2825  0.3045  0.3433
18642TIP3   OH277416   1.767   6.247  14.543  0.5198  0.3618 -0.3953
18642TIP3    H177417   1.850   6.223  14.584 -0.4080 -0.2314  1.2334
18642TIP3    H277418   1.783   6.240  14.449  2.3810  0.5430 -0.1204
18643TIP3   OH277419   2.466   0.308  12.475  0.1997  0.3149  0.3760
18643TIP3    H177420   2.444   0.217  12.490 -0.7708  0.0145 -2.2803
18643TIP3    H277421   2.562   0.310  12.474  0.2241 -0.7147  0.2414
18644TIP3   OH277422   4.849   1.237  16.525  0.4878  0.3677  0.6668
18644TIP3    H177423   4.884   1.149  16.508  0.3974  0.6296 -1.1378
18644TIP3    H277424   4.814   1.265  16.440 -1.7261  1.1774  1.7680
18645TIP3   OH277425   6.069   6.258   0.986 -0.3577  0.0300 -0.3871
18645TIP3    H177426   5.999   6.307   1.029 -0.8237 -0.5423 -0.4830
18645TIP3    H277427   6.033   6.170   0.973  0.8758 -0.7027  0.8552
18646TIP3   OH277428   4.169   1.140  11.672 -0.0172 -1.0565 -0.8915
18646TIP3    H177429   4.130   1.208  11.617 -0.7656  0.1058  0.9719
18646TIP3    H277430   4.100   1.075  11.684 -0.6059 -0.2478  0.3475
18647TIP3   OH277431   1.007   2.590   5.300 -0.1652 -0.3290  0.2883
18647TIP3    H177432   1.045   2.571   5.214  1.2544 -1.5689  1.1404
18647TIP3    H277433   1.012   2.507   5.347  1.5839  0.8930  2.4677
18648TIP3   OH277434   4.121   2.420   5.199 -0.2876  0.6384  0.6108
18648TIP3    H177435   4.114   2.428   5.294  2.5610  0.8179  0.8911
18648TIP3    H277436   4.125   2.326   5.182  0.1512  0.6217  0.7895
18649TIP3   OH277437   0.643   0.546   2.046 -0.8803 -0.5071 -0.2742
18649TIP3    H177438   0.688   0.535   1.963 -0.3995  1.0485 -0.2344
18649TIP3    H277439   0.620   0.456   2.073  0.5441 -1.1673 -1.1843
18650TIP3   OH277440   2.820   0.562  13.519  0.3456 -0.0722 -0.5405
18650TIP3    H177441   2.809   0.469  13.538  1.4149  0.2253  2.0754
18650TIP3    H277442   2.731   0.596  13.513 -0.1515 -0.8075  1.5766
18651TIP3   OH277443   2.931   0.105  10.424  0.3315 -0.0663  0.1409
18651TIP3    H177444   2.937   0.013  10.399 -0.1557 -0.1240  0.2128
18651TIP3    H277445   3.004   0.147  10.379  0.7671 -0.5435  0.3838
18652TIP3   OH277446   0.542   4.514  11.115 -0.6876 -0.4966 -0.0424
18652TIP3    H177447   0.455   4.556  11.122 -0.2356  0.6911 -1.0843
18652TIP3    H277448   0.536   4.460  11.037 -0.4466 -0.2603 -0.2283
18653TIP3   OH277449   1.592   5.432  13.701 -0.5047  0.1649  0.0384
18653TIP3    H177450   1.645   5.440  13.781 -0.1969  0.9913 -0.2320
18653TIP3    H277451   1.605   5.342  13.673 -0.5883 -0.1292  0.8999
18654TIP3   OH277452   6.275   3.449   5.816  0.2665 -0.6963 -0.5240
18654TIP3    H177453   6.270   3.357   5.791  0.0891 -0.6254 -0.7615
18654TIP3    H277454   6.276   3.448   5.912 -1.4005 -0.8854 -0.4654
18655TIP3   OH277455   3.674   0.812   5.248 -0.1071 -0.3236  0.0920
18655TIP3    H177456   3.647   0.841   5.161  0.1423  0.0886  0.1481
18655TIP3    H277457   3.601   0.759   5.280 -0.4530  0.0258 -0.1210
18656TIP3   OH277458   0.899   0.143  16.700 -0.0545  0.1166 -0.3832
18656TIP3    H177459   0.977   0.102  16.663 -1.0552 -0.3593 -2.0523
18656TIP3    H277460   0.845   0.166  16.625 -1.0069  1.5388  0.6745
18657TIP3   OH277461   2.576   2.240  13.821 -0.2510  0.5834 -0.3586
18657TIP3    H177462   2.501   2.184  13.839 -2.2408  3.9993  3.4894
18657TIP3    H277463   2.556   2.278  13.735 -2.3796  0.5014  0.0336
18658TIP3   OH277464   4.920   5.530  16.028 -0.6037 -0.0814  0.1493
18658TIP3    H177465   4.872   5.613  16.030  1.5170  1.2141  2.1082
18658TIP3    H277466   5.000   5.549  15.980 -0.7416 -1.4514 -0.6849
18659TIP3   OH277467   6.283   6.184  13.421  0.1790 -0.3295  0.1552
18659TIP3    H177468   6.335   6.143  13.352  2.5820  0.5839  1.3050
18659TIP3    H277469   6.246   6.262  13.380  0.5778 -0.4398 -0.4141
18660TIP3   OH277470   3.314   1.888  11.060  0.2214 -0.1267  0.3173
18660TIP3    H177471   3.353   1.976  11.057 -1.6244  0.7739  1.2791
18660TIP3    H277472   3.318   1.857  10.969 -0.9765  1.8354 -0.4639
18661TIP3   OH277473   1.642   4.912  11.620  0.1825 -0.0134  0.3886
18661TIP3    H177474   1.610   4.882  11.705 -0.2890 -0.1299  0.1743
18661TIP3    H277475   1.563   4.938  11.572 -0.1031 -3.6891 -1.5089
18662TIP3   OH277476   4.052   1.533  15.590 -0.6325 -0.5413 -0.1947
18662TIP3    H177477   4.045   1.505  15.681  2.0730 -2.2029 -0.3794
18662TIP3    H277478   4.092   1.458  15.545  0.8993  1.3067 -2.1289
18663TIP3   OH277479   1.678   2.250  14.398  0.4428  0.4940  0.9585
18663TIP3    H177480   1.711   2.165  14.368  0.7174  0.9207 -0.0063
18663TIP3    H277481   1.701   2.254  14.491  2.3019  0.3626  0.5498
18664TIP3   OH277482   3.819   2.126   1.560 -0.1255  0.0307 -0.0371
18664TIP3    H177483   3.893   2.176   1.594  2.1631 -3.8245  1.2328
18664TIP3    H277484   3.859   2.059   1.503 -2.8894 -0.7118 -1.2840
18665TIP3   OH277485   2.246   0.332  15.851  0.5621  0.0010 -0.2554
18665TIP3    H177486   2.158   0.335  15.815 -0.0373  0.8325  1.1986
18665TIP3    H277487   2.302   0.310  15.776 -1.0042 -2.0609 -0.8994
18666TIP3   OH277488   1.048   1.005   3.589  0.6833 -0.3313 -0.0100
18666TIP3    H177489   1.113   1.011   3.659  0.4326 -1.2168  0.3174
18666TIP3    H277490   0.979   1.066   3.614  1.2574  0.4312 -0.2349
18667TIP3   OH277491   0.552   5.487   3.049 -0.3116  0.4436 -0.0824
18667TIP3    H177492   0.478   5.443   3.008 -0.5031 -0.0998  0.8188
18667TIP3    H277493   0.614   5.417   3.068  1.8579  1.1609 -3.5322
18668TIP3   OH277494   5.438   3.672  16.045 -0.1554 -0.0273 -0.2937
18668TIP3    H177495   5.410   3.679  15.954  0.1088  0.3383 -0.3475
18668TIP3    H277496   5.413   3.583  16.071 -2.0011  0.4924 -0.1209
18669TIP3   OH277497   3.982   3.196   2.279 -0.5097  0.0706  0.8429
18669TIP3    H177498   4.030   3.175   2.359  0.5296 -1.0837 -0.0313
18669TIP3    H277499   3.911   3.133   2.276 -0.7533  0.3345  1.0194
18670TIP3   OH277500   5.335   1.762   2.241  0.3462  0.0839 -0.1452
18670TIP3    H177501   5.314   1.798   2.327 -0.8288  3.0253 -1.5112
18670TIP3    H277502   5.304   1.828   2.179  1.5495 -1.6834 -2.8461
18671TIP3   OH277503   5.368   4.901  12.057  0.1775  0.6248  0.2790
18671TIP3    H177504   5.273   4.910  12.066  0.3627  1.7862  1.3859
18671TIP3    H277505   5.391   4.955  11.981  0.1443  1.8974  1.1395
18672TIP3   OH277506   2.748   4.226   5.570  0.0950 -0.3329 -0.6756
18672TIP3    H177507   2.667   4.245   5.618  0.3157 -0.8562 -0.0824
18672TIP3    H277508   2.752   4.130   5.566  1.4601 -0.3751  0.6740
18673TIP3   OH277509   4.167   3.634  15.255 -0.2930 -0.1579  0.6648
18673TIP3    H177510   4.127   3.555  15.219  0.1545 -0.8328  1.6224
18673TIP3    H277511   4.231   3.661  15.188 -1.0778 -0.0799 -0.0655
18674TIP3   OH277512   0.887   3.884   2.202  0.1846 -0.2266  0.1398
18674TIP3    H177513   0.958   3.906   2.263 -0.7489  0.3920  1.0548
18674TIP3    H277514   0.866   3.793   2.221  0.8871 -0.4831 -0.3022
18675TIP3   OH277515   5.489   0.086   5.680  0.3253  0.9785 -1.0218
18675TIP3    H177516   5.584   0.077   5.681  0.2570  0.2095 -0.1492
18675TIP3    H277517   5.457  -0.005   5.679 -0.4041  1.2132 -2.4238
18676TIP3   OH277518   3.528   1.022  16.668  0.5237  0.6630 -0.3829
18676TIP3    H177519   3.455   1.076  16.700  0.1720 -0.2607  0.3966
18676TIP3    H277520   3.500   0.996  16.580  0.3760  1.1440 -0.4868
18677TIP3   OH277521   6.009   4.147   3.623 -0.0220  0.1499 -0.2061
18677TIP3    H177522   5.991   4.062   3.582 -2.1715 -0.5859  2.0097
18677TIP3    H277523   5.938   4.204   3.594 -0.7467  0.0304  1.2036
18678TIP3   OH277524   4.188   1.941   3.045  0.5464  0.4991 -0.1201
18678TIP3    H177525   4.179   1.855   3.086 -2.1879  0.6515 -0.2397
18678TIP3    H277526   4.244   1.991   3.105  0.8939 -0.8647  0.7344
18679TIP3   OH277527   1.360   4.318   3.765 -0.1301 -0.3028  0.8185
18679TIP3    H177528   1.293   4.318   3.697  1.2166 -1.3611 -0.5751
18679TIP3    H277529   1.418   4.390   3.742 -0.3700  0.1525  1.6029
18680TIP3   OH277530   6.554   6.567  12.346  0.2317 -0.6314 -0.1437
18680TIP3    H177531   6.572   6.551  12.253  2.4459  0.9239 -0.0699
18680TIP3    H277532   6.484   6.506  12.368 -1.4759  0.0070 -3.2086
18681TIP3   OH277533   3.210   0.842   2.517 -0.2044  0.1358 -0.0931
18681TIP3    H177534   3.275   0.864   2.584 -2.1758  1.0628  1.6317
18681TIP3    H277535   3.241   0.759   2.480  1.2699 -0.1127  1.5421
18682TIP3   OH277536   0.274   6.742  14.304 -0.0499  0.0163  0.0949
18682TIP3    H177537   0.231   6.745  14.389  1.7289 -0.5015  1.0442
18682TIP3    H277538   0.306   6.652  14.297 -1.6090 -0.4781 -1.9046
18683TIP3   OH277539   5.442   6.137   1.608 -0.1474  0.1082 -0.4853
18683TIP3    H177540   5.481   6.085   1.678  0.6431 -1.5935 -2.1114
18683TIP3    H277541   5.446   6.227   1.640  1.5592 -0.4443  1.0330
18684TIP3   OH277542   2.222   4.168   1.735 -0.3279  0.2354  0.1456
18684TIP3    H177543   2.207   4.098   1.798  0.6711 -0.4009 -0.2974
18684TIP3    H277544   2.135   4.191   1.703 -0.6140 -4.2647 -3.3865
18685TIP3   OH277545   6.578   2.382  12.251 -0.3662 -0.2344 -0.0505
18685TIP3    H177546   6.504   2.395  12.191  0.0972 -0.4122 -0.6697
18685TIP3    H277547   6.653   2.364  12.194  0.4843  1.3872  0.4699
18686TIP3   OH277548   6.199   0.614   3.008  0.3361  0.4465  0.1776
18686TIP3    H177549   6.182   0.693   2.956 -0.1200 -2.1416 -4.1785
18686TIP3    H277550   6.293   0.601   2.999  0.1423 -0.4280 -0.8370
18687TIP3   OH277551   1.467   2.307  12.040  0.6685  0.0221  0.2381
18687TIP3    H177552   1.539   2.370  12.036  0.1561  0.6689  0.9535
18687TIP3    H277553   1.407   2.333  11.970  0.4322  0.3722  0.5661
18688TIP3   OH277554   5.662   3.306   0.883  0.2648 -0.0450 -0.3775
18688TIP3    H177555   5.653   3.382   0.941  0.0956 -1.7257  1.9387
18688TIP3    H277556   5.622   3.234   0.931 -0.0203 -1.5397 -2.7053
18689TIP3   OH277557   5.707   5.312  12.223  0.0318 -0.1409  0.1288
18689TIP3    H177558   5.691   5.306  12.317  0.1037 -0.7909  0.1034
18689TIP3    H277559   5.619   5.313  12.184  0.0071 -0.2815  0.1804
18690TIP3   OH277560   1.490   5.825   0.872  0.7486 -0.0611 -0.4274
18690TIP3    H177561   1.476   5.856   0.782  1.4106  2.3391  0.2028
18690TIP3    H277562   1.403   5.801   0.903  0.7015 -2.4924 -2.1534
18691TIP3   OH277563   0.064   6.396   2.489  0.2855  0.1289 -0.1035
18691TIP3    H177564  -0.020   6.374   2.448  0.5477 -0.9488 -0.0915
18691TIP3    H277565   0.090   6.316   2.534 -0.1002  1.3065  2.3969
18692TIP3   OH277566   3.066   6.256  14.673 -0.0515 -0.0350  0.2275
18692TIP3    H177567   3.002   6.289  14.611 -0.2559 -0.2006  0.3485
18692TIP3    H277568   3.117   6.333  14.699  1.0727 -0.2161 -1.3289
18693TIP3   OH277569   6.443   0.724  11.664 -0.5259 -0.1883  0.6404
18693TIP3    H177570   6.517   0.664  11.675 -1.0332 -0.6508  1.6318
18693TIP3    H277571   6.431   0.763  11.750 -0.3107  1.2309  0.0478
18694TIP3   OH277572   2.555   5.898   0.604 -0.1139 -0.3697 -0.6156
18694TIP3    H177573   2.564   5.938   0.518  0.4758 -0.1522 -0.4536
18694TIP3    H277574   2.522   5.810   0.586 -0.6960 -0.0734 -1.0129
18695TIP3   OH277575   5.451   6.197   2.316 -0.2178  0.2965 -0.0392
18695TIP3    H177576   5.458   6.112   2.271 -0.9642  0.0103  0.3721
18695TIP3    H277577   5.485   6.179   2.404  2.5010  1.1663 -0.8131
18696TIP3   OH277578   2.428   1.234  11.405  0.0044 -0.1895 -0.5607
18696TIP3    H177579   2.372   1.189  11.468 -1.6040 -0.7057 -2.2602
18696TIP3    H277580   2.367   1.280  11.347  1.4505  0.8692 -1.3224
18697TIP3   OH277581   2.000   5.784  12.113  0.3058 -0.2029  0.8102
18697TIP3    H177582   1.944   5.796  12.190 -1.3400 -1.7271 -0.0768
18697TIP3    H277583   1.942   5.746  12.047  1.5742  1.3472 -1.3356
18698TIP3   OH277584   2.136   4.069  11.661 -0.4637 -0.0882  0.1253
18698TIP3    H177585   2.223   4.094  11.692 -0.7067  0.6754  0.1934
18698TIP3    H277586   2.115   3.991  11.713  0.1722 -0.2768  0.1113
18699TIP3   OH277587   0.744   4.681  11.967 -0.0144 -0.8115  0.2306
18699TIP3    H177588   0.722   4.770  11.939  0.9359 -0.8695 -0.8015
18699TIP3    H277589   0.680   4.660  12.034 -0.2421  0.6679  0.5156
18700TIP3   OH277590   0.638   3.677   1.867  0.1493  0.3010 -0.5252
18700TIP3    H177591   0.565   3.651   1.923  1.2463  0.1054  0.8659
18700TIP3    H277592   0.664   3.763   1.900  0.5092  0.4014 -1.0600
18701TIP3   OH277593   1.223   0.461  13.796 -0.3039 -0.1704 -0.0054
18701TIP3    H177594   1.128   0.454  13.808 -0.1074 -0.7728  1.4084
18701TIP3    H277595   1.260   0.427  13.877  1.1232  0.7735 -0.2290
18702TIP3   OH277596   0.265   0.693  16.877  0.2042 -0.6772  0.0323
18702TIP3    H177597   0.355   0.660  16.881  0.6288  0.4851  0.4051
18702TIP3    H277598   0.218   0.627  16.825  1.2105 -1.4101  0.0125
18703TIP3   OH277599   2.246   2.477  15.103 -0.0225  0.2771 -0.3230
18703TIP3    H177600   2.282   2.484  15.192  0.9097 -0.6619 -0.6029
18703TIP3    H277601   2.292   2.545  15.054  0.9661 -0.5116 -0.5323
18704TIP3   OH277602   4.587   0.138  14.882  0.4023  0.4599  0.2180
18704TIP3    H177603   4.642   0.206  14.844  0.4172  0.4086  0.1466
18704TIP3    H277604   4.530   0.184  14.944 -2.3207  1.2333 -2.5992
18705TIP3   OH277605   1.884   4.029  14.974 -0.3811  0.1635 -0.2040
18705TIP3    H177606   1.798   3.993  14.952 -0.8433  2.5333 -2.8414
18705TIP3    H277607   1.936   4.016  14.895  0.4616  2.1237 -0.0146
18706TIP3   OH277608   0.699   4.072   5.633 -0.1027 -0.1153  0.1371
18706TIP3    H177609   0.656   4.068   5.547  0.4495 -1.7332 -0.1131
18706TIP3    H277610   0.646   4.016   5.689  0.4971 -0.4519  0.3778
18707TIP3   OH277611   6.252   1.571   0.146  0.1680 -0.0040 -0.5801
18707TIP3    H177612   6.325   1.603   0.093 -1.0278 -0.8980 -2.9386
18707TIP3    H277613   6.175   1.613   0.108 -0.6801  0.1080  1.1614
18708TIP3   OH277614   3.893   4.971   2.975 -0.5663  0.2424 -0.0312
18708TIP3    H177615   3.959   4.959   2.907 -1.9523  0.0034 -1.3762
18708TIP3    H277616   3.940   4.952   3.057  1.2765  1.0935 -0.8412
18709TIP3   OH277617   6.250   3.263   0.037 -0.1641 -0.7734  0.1073
18709TIP3    H177618   6.245   3.247   0.131 -1.2322  0.9558  0.3929
18709TIP3    H277619   6.186   3.332   0.021  0.5388 -0.4917 -1.7711
18710TIP3   OH277620   4.827   0.717   1.929 -0.2056 -0.0181 -0.2809
18710TIP3    H177621   4.867   0.803   1.939  0.5977 -0.0336 -2.5806
18710TIP3    H277622   4.758   0.713   1.995 -0.4524  2.4946 -0.3156
18711TIP3   OH277623   0.660   1.312  15.556  0.4557  0.1677 -0.0441
18711TIP3    H177624   0.567   1.335  15.546  0.3111  0.1076  1.0876
18711TIP3    H277625   0.706   1.394  15.541  0.2246  0.2277 -0.4773
18712TIP3   OH277626   3.301   6.158   1.033 -0.6030  0.1718 -0.1970
18712TIP3    H177627   3.215   6.196   1.016 -0.9211  0.0813  1.1007
18712TIP3    H277628   3.290   6.064   1.016 -0.5882  0.2459 -0.6251
18713TIP3   OH277629   2.411   6.773   4.997 -0.4774 -0.1600 -0.8128
18713TIP3    H177630   2.363   6.840   5.044  0.4267  0.8618 -1.3078
18713TIP3    H277631   2.414   6.698   5.057  1.0056  1.2346  0.9676
18714TIP3   OH277632   0.930   6.739  13.086 -0.1756  0.0239 -0.3472
18714TIP3    H177633   1.024   6.757  13.076 -0.0091 -0.0235  0.9682
18714TIP3    H277634   0.912   6.756  13.178 -1.5023  0.1712 -0.6131
18715TIP3   OH277635   6.648   5.543   4.201  0.0267  0.1964  0.6409
18715TIP3    H177636   6.570   5.519   4.151  0.4432 -1.8050  0.8542
18715TIP3    H277637   6.645   5.638   4.206 -2.1037  0.2083  0.1701
18716TIP3   OH277638   1.889   3.758   6.602  0.3112 -0.3074 -0.0691
18716TIP3    H177639   1.925   3.669   6.604  2.1379  0.3476 -1.5335
18716TIP3    H277640   1.817   3.753   6.539  0.5457 -0.7029 -0.3099
18717TIP3   OH277641   0.633   1.874  15.837  0.1042 -0.6978 -0.3171
18717TIP3    H177642   0.724   1.855  15.860  0.1002 -1.1775 -0.6857
18717TIP3    H277643   0.594   1.789  15.820 -0.1360 -0.4321 -1.1877
18718TIP3   OH277644   1.648   6.272  15.772 -0.5763  0.3037 -0.1438
18718TIP3    H177645   1.727   6.219  15.759  0.2062  1.2867  0.4766
18718TIP3    H277646   1.622   6.298  15.684 -0.0595  0.1827 -0.3404
18719TIP3   OH277647   1.021   3.493  12.530  0.4064  0.4116 -0.4902
18719TIP3    H177648   1.076   3.417  12.548 -1.3048 -0.6281  0.7169
18719TIP3    H277649   0.978   3.473  12.447  0.3142  0.2728 -0.4096
18720TIP3   OH277650   5.279   0.948  12.856 -0.2825  0.0255  0.2859
18720TIP3    H177651   5.270   0.867  12.805  0.9326 -0.2816  0.5309
18720TIP3    H277652   5.372   0.970  12.850 -0.2938  0.5095  1.5868
18721TIP3   OH277653   6.207   1.325   1.542  0.3455 -0.0716 -0.9632
18721TIP3    H177654   6.228   1.232   1.541  1.7140  0.1328  1.5345
18721TIP3    H277655   6.252   1.360   1.464  1.5374 -1.1771 -0.8132
18722TIP3   OH277656   6.668   1.149  10.832  0.4094  0.7325 -0.3214
18722TIP3    H177657   6.572   1.141  10.837  0.4018  1.3359  0.5459
18722TIP3    H277658   6.701   1.081  10.891  0.5182  0.6574 -0.4674
18723TIP3   OH277659   6.489   1.449  11.361  0.5883  0.0811  0.4004
18723TIP3    H177660   6.515   1.472  11.271 -0.3779 -0.8207 -0.1344
18723TIP3    H277661   6.397   1.423  11.353  1.3225 -3.1551  1.0100
18724TIP3   OH277662   5.888   6.256   5.463 -0.6547  0.5579 -0.6128
18724TIP3    H177663   5.918   6.243   5.553  1.2438  0.3603 -1.2387
18724TIP3    H277664   5.848   6.343   5.464 -0.4428  0.6544  0.3808
18725TIP3   OH277665   0.624   5.928  12.051  0.1935  0.1704  0.3366
18725TIP3    H177666   0.660   5.985  12.119  0.4320 -0.4504  0.7385
18725TIP3    H277667   0.685   5.855  12.046 -0.3731 -0.3064  0.1871
18726TIP3   OH277668   3.241   2.121  14.723 -0.0149  0.5077  0.2649
18726TIP3    H177669   3.239   2.107  14.628 -0.5620 -0.9183  0.4588
18726TIP3    H277670   3.328   2.091  14.750  0.3825  1.5120  0.1547
18727TIP3   OH277671   4.879   1.574   5.012  0.7514  0.4710  0.4416
18727TIP3    H177672   4.971   1.597   5.028  0.9866  0.0988 -0.3224
18727TIP3    H277673   4.882   1.482   4.986  0.5486  1.2454 -2.6558
18728TIP3   OH277674   0.783   1.109  15.134  0.1555  0.5546  0.2584
18728TIP3    H177675   0.823   1.022  15.136  0.5294  0.7153 -0.1435
18728TIP3    H277676   0.796   1.143  15.222  0.0400  0.2187  0.4081
18729TIP3   OH277677   2.191   0.063   2.938  0.0413  0.2183 -0.0117
18729TIP3    H177678   2.148   0.055   3.023  0.5367  0.1317  0.2359
18729TIP3    H277679   2.143   0.133   2.893 -0.8469 -0.4022 -0.0513
18730TIP3   OH277680   2.920   6.794  14.638 -0.0134 -0.6589 -0.2094
18730TIP3    H177681   2.922   6.889  14.630  0.4208 -0.6515 -0.0356
18730TIP3    H277682   2.828   6.771  14.631 -0.0424 -0.3026 -1.1113
18731TIP3   OH277683   1.030   3.294  15.319 -0.0380 -0.6510 -0.1660
18731TIP3    H177684   1.080   3.276  15.399 -0.8205 -1.0508  0.2431
18731TIP3    H277685   0.966   3.359  15.345  1.6168  1.5191 -1.2119
18732TIP3   OH277686   6.664   0.441   3.159 -0.4029  0.0155 -0.1467
18732TIP3    H177687   6.625   0.486   3.234 -2.8173 -1.4022 -0.4460
18732TIP3    H277688   6.671   0.349   3.186 -0.4074 -0.3485 -1.3167
18733TIP3   OH277689   4.739   1.416   3.091  0.5643 -1.2119 -0.3888
18733TIP3    H177690   4.822   1.444   3.128  0.8013  0.1509 -1.8955
18733TIP3    H277691   4.679   1.489   3.106 -0.3197 -2.0672  0.4383
18734TIP3   OH277692   3.894   0.897  17.122  0.6575  0.3139 -0.3708
18734TIP3    H177693   3.837   0.821  17.110  0.4215  0.0868  1.7451
18734TIP3    H277694   3.933   0.912  17.036 -1.7094 -0.2310 -1.6235
18735TIP3   OH277695   1.421   5.659   4.415 -0.0856 -0.3191  0.2509
18735TIP3    H177696   1.418   5.686   4.506 -0.7081 -0.0555  0.1574
18735TIP3    H277697   1.474   5.725   4.371  0.3634 -0.5425  0.4490
18736TIP3   OH277698   0.009   6.300  14.342 -0.5757 -0.5347 -0.2429
18736TIP3    H177699   0.088   6.261  14.378 -0.9948 -0.7443  0.4774
18736TIP3    H277700   0.031   6.322  14.252  1.8634  3.7185  1.0976
18737TIP3   OH277701   2.298   4.815   5.352 -0.3959 -0.4552  0.0404
18737TIP3    H177702   2.220   4.866   5.330 -1.0436 -1.1155  0.7340
18737TIP3    H277703   2.313   4.832   5.445  2.9418  3.1488 -0.8808
18738TIP3   OH277704   4.517   5.954  12.471  0.2807 -0.3380 -0.5182
18738TIP3    H177705   4.483   5.944  12.560 -1.2946  1.7080 -0.8346
18738TIP3    H277706   4.557   6.040  12.470  0.5099 -0.4424 -1.7288
18739TIP3   OH277707   4.627   3.202   2.721  0.1498  0.2441 -0.0772
18739TIP3    H177708   4.702   3.155   2.684 -0.9350 -0.4224 -1.5595
18739TIP3    H277709   4.569   3.216   2.646 -0.3054  2.5628  0.6259
18740TIP3   OH277710   2.327   1.514   2.174 -0.4560 -0.2950 -0.0621
18740TIP3    H177711   2.400   1.508   2.236 -0.3154 -3.3976 -0.3580
18740TIP3    H277712   2.265   1.447   2.204 -1.1084 -0.7934 -2.3471
18741TIP3   OH277713   5.490   5.472  14.883  0.5830 -0.7167  0.3680
18741TIP3    H177714   5.494   5.528  14.805  0.4977 -0.8358  0.2791
18741TIP3    H277715   5.575   5.485  14.926  1.3760 -2.0758 -0.7196
18742TIP3   OH277716   3.803   5.982  14.178  0.1677 -0.6282 -0.3350
18742TIP3    H177717   3.714   5.970  14.144  0.1799 -2.3449  0.1434
18742TIP3    H277718   3.807   5.923  14.253  1.3721  0.2491  0.3083
18743TIP3   OH277719   2.746   4.998  10.380 -0.0032 -0.1245  0.1105
18743TIP3    H177720   2.659   5.004  10.420 -0.1925  0.8486 -0.4146
18743TIP3    H277721   2.743   5.060  10.307  0.9096 -0.5885 -0.3376
18744TIP3   OH277722   3.184   1.267   3.201 -0.2129  0.1040 -0.4403
18744TIP3    H177723   3.176   1.343   3.143 -2.6225 -0.6394 -1.1679
18744TIP3    H277724   3.209   1.195   3.143  0.0016 -0.1088 -0.0895
18745TIP3   OH277725   3.426   5.441  14.207 -0.1918  0.0436 -0.5001
18745TIP3    H177726   3.498   5.469  14.263 -1.2810 -0.9454  1.5260
18745TIP3    H277727   3.388   5.523  14.175  0.4531  0.6569  0.2490
18746TIP3   OH277728   0.484   1.623   6.222  0.2504 -0.1858  0.1992
18746TIP3    H177729   0.494   1.708   6.179  1.4343 -1.0483 -1.3211
18746TIP3    H277730   0.558   1.619   6.283  0.4095 -0.2812 -0.0004
18747TIP3   OH277731   2.605   5.324   3.934 -0.0778 -0.0462 -0.2932
18747TIP3    H177732   2.564   5.252   3.982 -0.2938 -0.1061 -0.5639
18747TIP3    H277733   2.678   5.352   3.990 -1.4483  1.1326  0.9651
18748TIP3   OH277734   0.236   5.287   0.949 -0.1106 -0.0803 -0.2911
18748TIP3    H177735   0.244   5.372   0.905 -2.5553  0.1432 -0.4377
18748TIP3    H277736   0.157   5.247   0.911  0.0749 -1.7060  0.9267
18749TIP3   OH277737   2.811   5.499   1.625  0.5933 -0.2020  0.4320
18749TIP3    H177738   2.892   5.519   1.672  1.0594 -1.8361  0.3943
18749TIP3    H277739   2.799   5.405   1.638 -1.5026  0.0764  0.7142
18750TIP3   OH277740   4.188   2.408  16.683  0.1803 -0.1115  0.3217
18750TIP3    H177741   4.188   2.496  16.720 -0.7319  0.2710 -0.5326
18750TIP3    H277742   4.132   2.357  16.741 -1.0503  0.4236 -0.3590
18751TIP3   OH277743   2.376   0.192   1.404  0.1210 -0.0889  0.1924
18751TIP3    H177744   2.420   0.224   1.483 -1.6761  0.0283  1.2001
18751TIP3    H277745   2.439   0.207   1.333  1.2631  1.0348  1.4023
18752TIP3   OH277746   4.300   2.889  15.624 -0.3035 -0.6954 -0.1749
18752TIP3    H177747   4.254   2.871  15.705 -1.5077 -1.6721 -1.0514
18752TIP3    H277748   4.365   2.819  15.616  0.5992  0.0375  0.4833
18753TIP3   OH277749   5.442   1.446  15.582 -0.2058 -0.2176  0.5364
18753TIP3    H177750   5.527   1.471  15.618 -0.2030  2.1313 -0.9274
18753TIP3    H277751   5.380   1.507  15.621 -0.6011  0.6059 -1.2726
18754TIP3   OH277752   2.098   3.853  12.398 -0.2993  0.0395  0.4244
18754TIP3    H177753   2.020   3.856  12.452 -1.1883 -0.8459 -0.7471
18754TIP3    H277754   2.095   3.934  12.346 -0.9333 -0.3943 -0.2404
18755TIP3   OH277755   3.143   1.617   0.359 -0.1537 -0.5284 -0.4871
18755TIP3    H177756   3.182   1.566   0.430  0.4360 -0.1342 -0.5161
18755TIP3    H277757   3.211   1.617   0.291  0.0839  0.7621 -0.2670
18756TIP3   OH277758   1.841   1.913  13.215  0.2684 -0.1412  0.1501
18756TIP3    H177759   1.821   1.996  13.258  0.9104  0.3006 -0.3694
18756TIP3    H277760   1.778   1.851  13.251 -1.9712  1.1285 -1.3355
18757TIP3   OH277761   3.472   3.763   0.011  0.3075  0.1787  0.7460
18757TIP3    H177762   3.426   3.798   0.087 -0.4217 -0.0502  0.4096
18757TIP3    H277763   3.432   3.677  -0.004  1.3430 -0.3642  0.9070
18758TIP3   OH277764   0.500   0.384   5.488  0.1159 -0.2801  0.1803
18758TIP3    H177765   0.447   0.334   5.426 -0.5096 -1.1117  1.3394
18758TIP3    H277766   0.586   0.392   5.446 -0.7886  0.7335 -1.5567
18759TIP3   OH277767   0.462   5.058  12.877  0.2717  0.1036  0.1057
18759TIP3    H177768   0.383   5.029  12.832  0.0827 -0.9037  1.0461
18759TIP3    H277769   0.440   5.145  12.912 -0.0293  0.3107 -0.5967
18760TIP3   OH277770   6.449   5.091   0.363 -0.3526  0.0195  0.1893
18760TIP3    H177771   6.433   5.020   0.300  0.8196 -0.1570  0.0715
18760TIP3    H277772   6.364   5.134   0.373 -1.0110 -1.1988  0.0097
18761TIP3   OH277773   1.255   5.237  16.327  0.3506  0.4274 -0.0176
18761TIP3    H177774   1.251   5.221  16.421 -0.5192  1.4843  0.1546
18761TIP3    H277775   1.316   5.309  16.317  1.0639 -0.2118 -0.3583
18762TIP3   OH277776   6.018   2.540  16.517 -0.3609 -0.2748 -0.3647
18762TIP3    H177777   5.943   2.493  16.555 -0.9534  0.5977 -0.4252
18762TIP3    H277778   6.095   2.494  16.550 -0.9189 -0.9616 -0.0016
18763TIP3   OH277779   4.356   5.786  13.691 -0.1469 -0.0354 -0.5804
18763TIP3    H177780   4.275   5.834  13.675 -0.5955 -1.1207 -1.7548
18763TIP3    H277781   4.421   5.829  13.636  0.1975  1.0818  0.6583
18764TIP3   OH277782   4.204   3.658   0.062 -0.5264  0.0841  0.1644
18764TIP3    H177783   4.258   3.653  -0.017 -0.9006  1.0883 -0.1752
18764TIP3    H277784   4.177   3.750   0.066 -0.1215  0.1681  1.7292
18765TIP3   OH277785   2.974   5.969  14.007 -0.6247 -0.5931  0.3842
18765TIP3    H177786   3.008   5.953  14.095 -0.6100 -1.4107  0.2359
18765TIP3    H277787   3.049   5.957  13.950 -0.8512 -1.0284  0.1763
18766TIP3   OH277788   1.802   2.063  11.287  0.1138 -0.2045  0.2958
18766TIP3    H177789   1.798   1.987  11.346  1.0115 -0.5091 -0.0068
18766TIP3    H277790   1.730   2.119  11.315 -0.4293 -1.0614  0.6784
18767TIP3   OH277791   4.953   3.955  12.886  0.1101 -0.0646  0.3913
18767TIP3    H177792   4.953   3.969  12.980  2.1254  0.2396  0.3921
18767TIP3    H277793   5.011   3.880  12.873 -0.6769 -0.5339 -0.5834
18768TIP3   OH277794   6.384   0.587  13.492 -0.1586 -0.2185 -0.5542
18768TIP3    H177795   6.455   0.606  13.432  0.1550  0.0109 -0.1160
18768TIP3    H277796   6.338   0.513  13.453  0.2743 -0.3215 -0.8728
18769TIP3   OH277797   2.724   6.454   2.778  0.4185 -0.2604 -0.0051
18769TIP3    H177798   2.703   6.395   2.705  1.3405  0.0918 -0.5789
18769TIP3    H277799   2.660   6.524   2.772  0.0365 -0.6055 -0.0263
18770TIP3   OH277800   5.619   4.474   2.304 -0.5242  0.5582 -0.3906
18770TIP3    H177801   5.614   4.467   2.209 -1.6658 -0.0757 -0.3053
18770TIP3    H277802   5.632   4.567   2.321 -0.7441  0.7352 -1.1561
18771TIP3   OH277803   0.725   3.789  14.252  0.7710 -0.1588 -0.5196
18771TIP3    H177804   0.757   3.727  14.187 -0.2622 -0.8199 -0.4262
18771TIP3    H277805   0.684   3.859  14.201 -0.7603 -1.0739 -0.6074
18772TIP3   OH277806   0.855   3.186   0.485  0.2509 -0.8624 -0.2431
18772TIP3    H177807   0.769   3.207   0.449  0.6663  0.1886 -0.6924
18772TIP3    H277808   0.909   3.166   0.408  0.1391 -2.6783  0.1087
18773TIP3   OH277809   6.302   2.243  13.982  0.1946  0.4825 -0.0103
18773TIP3    H177810   6.279   2.306  14.050  0.9193 -0.4021  1.0910
18773TIP3    H277811   6.383   2.202  14.013  0.3136 -0.2507 -1.2036
18774TIP3   OH277812   0.499   6.595  15.597  0.4898 -0.7175 -0.2013
18774TIP3    H177813   0.551   6.579  15.676 -0.7083  1.7251  1.1951
18774TIP3    H277814   0.427   6.532  15.602 -1.2227  1.2230  2.3398
18775TIP3   OH277815   0.418   5.722   0.622 -0.3411  0.0668  0.2481
18775TIP3    H177816   0.424   5.725   0.527  1.1693 -1.1452  0.2518
18775TIP3    H277817   0.457   5.804   0.651  3.3667 -1.3225 -0.1774
18776TIP3   OH277818   2.087   5.721  16.482 -0.0901  0.6476  0.3093
18776TIP3    H177819   2.030   5.790  16.449 -0.8315  0.3668  0.9642
18776TIP3    H277820   2.028   5.660  16.526  0.8665  1.1086  2.3507
18777TIP3   OH277821   5.527   6.486   2.588  0.1683  0.5118 -0.5624
18777TIP3    H177822   5.477   6.412   2.623 -0.2987  1.8210  1.7315
18777TIP3    H277823   5.611   6.481   2.634  0.5166  0.8402 -1.1567
18778TIP3   OH277824   1.346   3.185   1.896  0.7472  0.0648 -0.6729
18778TIP3    H177825   1.314   3.161   1.809 -0.2172  1.4519 -0.7384
18778TIP3    H277826   1.428   3.232   1.879  1.5602 -1.3065 -0.6764
18779TIP3   OH277827   2.409   6.109   0.799  0.4021 -0.0356 -0.1031
18779TIP3    H177828   2.415   6.039   0.734 -0.3221 -0.2590  0.0633
18779TIP3    H277829   2.349   6.075   0.866 -0.4613  0.9765 -0.3347
18780TIP3   OH277830   2.279   6.548  13.322  0.0277 -0.2583  0.4151
18780TIP3    H177831   2.362   6.505  13.305  0.3296  0.7390 -0.7820
18780TIP3    H277832   2.294   6.598  13.403  0.1978 -1.0138  0.8628
18781TIP3   OH277833   1.539   1.180   2.062 -0.2016  0.2107  0.2770
18781TIP3    H177834   1.514   1.246   2.126  0.8583  1.9519 -1.0111
18781TIP3    H277835   1.620   1.142   2.097 -0.2871  0.2698  0.5431
18782TIP3   OH277836   2.645   1.009  16.754 -0.2453 -0.0253 -0.0418
18782TIP3    H177837   2.591   0.946  16.707  1.6322 -1.0512 -0.9062
18782TIP3    H277838   2.731   0.967  16.762  1.3893  2.7411 -1.5043
18783TIP3   OH277839   5.906   4.757  15.376  0.2643 -0.2950  0.0976
18783TIP3    H177840   5.897   4.682  15.316 -0.8926  0.2273 -0.4029
18783TIP3    H277841   5.927   4.830  15.319  1.3100 -0.1959  0.5810
18784TIP3   OH277842   5.570   4.139   3.328 -0.1152 -0.0813  0.3375
18784TIP3    H177843   5.591   4.159   3.237  0.9832  0.0668  0.6090
18784TIP3    H277844   5.476   4.121   3.327 -0.2453  0.5243 -0.7158
18785TIP3   OH277845   0.746   2.831  12.161 -0.6500 -0.5641 -0.2381
18785TIP3    H177846   0.732   2.875  12.245 -1.4413 -1.6917  0.2398
18785TIP3    H277847   0.754   2.738  12.183 -0.7967 -0.8706 -1.4002
18786TIP3   OH277848   2.342   0.828   5.184 -0.7220 -0.8658 -0.7093
18786TIP3    H177849   2.338   0.922   5.168 -0.8985 -0.9346 -1.0670
18786TIP3    H277850   2.262   0.793   5.146 -0.0451 -1.3280 -1.7427
18787TIP3   OH277851   6.232   5.159   4.910  0.2187 -0.2997  0.5106
18787TIP3    H177852   6.277   5.230   4.955  2.0010  0.0684 -1.6728
18787TIP3    H277853   6.174   5.202   4.847  0.4763 -0.7690 -0.0621
18788TIP3   OH277854   6.296   2.080  11.631  0.0816 -0.2011 -0.1135
18788TIP3    H177855   6.233   2.067  11.560 -0.6082  1.5628  0.1342
18788TIP3    H277856   6.380   2.087  11.587 -0.1189 -0.8241 -0.6080
18789TIP3   OH277857   4.569   1.552   0.516  0.3497  0.5153 -0.0387
18789TIP3    H177858   4.625   1.600   0.577  0.3238  1.6122 -0.8400
18789TIP3    H277859   4.629   1.501   0.462  0.3902 -0.2299  0.6840
18790TIP3   OH277860   4.418   0.152  14.012 -0.2255  0.4537 -0.1761
18790TIP3    H177861   4.327   0.125  14.024 -0.3800  0.8592 -0.4316
18790TIP3    H277862   4.420   0.193  13.926  1.1404 -3.5060 -2.2535
18791TIP3   OH277863   5.682   6.779   4.737 -0.2473  0.2745 -0.5599
18791TIP3    H177864   5.734   6.704   4.766 -0.4057  0.9499  1.6419
18791TIP3    H277865   5.621   6.796   4.809 -1.3402  1.5119 -1.7028
18792TIP3   OH277866   5.686   0.501   2.719 -0.5803  0.2556 -0.1491
18792TIP3    H177867   5.701   0.595   2.711  3.4592 -0.0996  1.3442
18792TIP3    H277868   5.670   0.487   2.812 -0.8055 -0.5844 -0.3045
18793TIP3   OH277869   3.135   5.901   0.996  0.4545 -1.0238  0.8184
18793TIP3    H177870   3.111   5.811   0.974 -0.1566 -0.4650 -0.9978
18793TIP3    H277871   3.051   5.945   1.011  0.6717 -0.4485  0.3678
18794TIP3   OH277872   5.317   1.576  15.829 -0.0689 -0.0841 -0.0342
18794TIP3    H177873   5.235   1.622  15.816  1.0319  2.5414  1.4737
18794TIP3    H277874   5.302   1.522  15.907 -0.6043 -0.3396 -0.3090
18795TIP3   OH277875   3.703   4.440   2.486  0.4459 -0.1405  0.1426
18795TIP3    H177876   3.792   4.429   2.453  0.7743  3.1966 -0.4371
18795TIP3    H277877   3.650   4.457   2.407 -0.4606 -0.8419  0.5889
18796TIP3   OH277878   5.270   4.694  12.394 -0.0516  0.1286  0.2191
18796TIP3    H177879   5.204   4.644  12.346  0.5036 -0.7767  0.3637
18796TIP3    H277880   5.333   4.721  12.326 -0.8953  1.5689 -0.0227
18797TIP3   OH277881   6.548   3.006   0.738 -0.0710  0.2752  0.1232
18797TIP3    H177882   6.539   2.983   0.646  2.3806  1.3618 -0.4638
18797TIP3    H277883   6.585   2.927   0.779 -0.5668  0.0095  0.0658
18798TIP3   OH277884   5.027   0.786  15.471 -0.3167  0.4106 -0.8963
18798TIP3    H177885   5.048   0.774  15.564 -0.2355  0.0732 -0.9555
18798TIP3    H277886   5.033   0.698  15.434 -0.3761  0.5406 -1.2153
18799TIP3   OH277887   3.898   4.864   3.679  0.1342 -0.2556 -0.1502
18799TIP3    H177888   3.842   4.926   3.631  0.1037 -0.4675 -0.3863
18799TIP3    H277889   3.887   4.889   3.771  0.4630  0.3763 -0.2771
18800TIP3   OH277890   5.171   4.977  12.495 -0.1392 -0.1098  0.9342
18800TIP3    H177891   5.243   4.913  12.503 -0.5028 -0.7803 -0.7494
18800TIP3    H277892   5.093   4.927  12.520 -0.3094 -0.0699  0.4840
18801TIP3   OH277893   1.044   6.403  16.455  0.0511  0.7082 -0.2280
18801TIP3    H177894   1.044   6.308  16.469 -2.7585  0.8428  1.4130
18801TIP3    H277895   1.117   6.434  16.508  0.3467 -0.4596  0.0964
18802TIP3   OH277896   5.590   0.220   0.972  0.1320 -0.5970 -0.5247
18802TIP3    H177897   5.573   0.129   0.999 -1.6046  0.2610  1.5387
18802TIP3    H277898   5.674   0.241   1.011 -0.2495 -0.8015  0.4213
18803TIP3   OH277899   6.312   1.199   2.749 -0.5700 -0.6099 -0.0796
18803TIP3    H177900   6.232   1.202   2.801 -0.9647 -0.8100 -0.6614
18803TIP3    H277901   6.382   1.204   2.813 -1.0413 -1.0498  0.4886
18804TIP3   OH277902   1.763   6.444  11.234  0.6053 -0.5969  0.3804
18804TIP3    H177903   1.837   6.403  11.190 -0.0547 -1.0086 -0.3794
18804TIP3    H277904   1.754   6.529  11.192  1.4274 -0.0052  1.3554
18805TIP3   OH277905   3.571   4.876   1.203  0.0155  0.1176 -0.4366
18805TIP3    H177906   3.627   4.947   1.234 -0.2240  0.6797 -1.2447
18805TIP3    H277907   3.535   4.909   1.121 -0.5152 -0.7369 -0.5555
18806TIP3   OH277908   5.700   4.524   0.966 -0.0850  0.3192 -0.0600
18806TIP3    H177909   5.745   4.551   1.046 -1.5903  0.3183  0.8297
18806TIP3    H277910   5.763   4.469   0.919  0.6857  0.0036  1.3169
18807TIP3   OH277911   0.932   5.587   2.808 -0.3159  0.0132  0.7064
18807TIP3    H177912   1.008   5.529   2.807  1.0396  1.7003  0.0499
18807TIP3    H277913   0.909   5.598   2.715 -1.4596 -0.5650  0.9012
18808TIP3   OH277914   1.241   3.700   0.307 -0.0666 -0.1580  0.1590
18808TIP3    H177915   1.155   3.741   0.298 -0.4033 -0.8124  0.3263
18808TIP3    H277916   1.227   3.630   0.371  1.4380  2.2286  3.3899
18809TIP3   OH277917   1.449   0.088  14.748  0.3207 -0.6409 -0.2333
18809TIP3    H177918   1.461   0.118  14.838 -1.8907 -1.4886  0.4112
18809TIP3    H277919   1.532   0.046  14.725  0.9907 -0.2349  1.3322
18810TIP3   OH277920   4.746   5.318   2.050  0.1923 -0.2224  0.3307
18810TIP3    H177921   4.796   5.239   2.069 -0.5301 -0.5507  0.9000
18810TIP3    H277922   4.745   5.367   2.133  0.9614  0.5861 -0.1122
18811TIP3   OH277923   6.456   6.501   2.350  0.1541 -0.8412  0.5114
18811TIP3    H177924   6.402   6.537   2.280  1.3591  2.4674  1.1005
18811TIP3    H277925   6.447   6.406   2.341 -3.0056 -0.5047 -1.4632
18812TIP3   OH277926   0.767   2.979   4.129 -0.1073 -0.2801 -0.4197
18812TIP3    H177927   0.822   3.055   4.148 -1.8938  1.5833 -2.1257
18812TIP3    H277928   0.820   2.924   4.072  1.4286 -0.6849  1.3010
18813TIP3   OH277929   3.660   5.641  14.062 -0.4588  0.2046  0.8779
18813TIP3    H177930   3.746   5.674  14.037 -1.0579  0.4174 -1.0458
18813TIP3    H277931   3.608   5.720  14.079 -0.8449  0.1576 -0.0357
18814TIP3   OH277932   1.290   2.566   0.746  0.1370 -0.2623 -0.0870
18814TIP3    H177933   1.319   2.502   0.681  1.0379  0.0970 -0.0540
18814TIP3    H277934   1.212   2.528   0.784 -0.8711 -0.1402 -1.9167
18815TIP3   OH277935   0.187   1.434  12.185 -0.3178  0.2024 -0.5880
18815TIP3    H177936   0.251   1.504  12.173 -1.1977  0.9634 -0.9857
18815TIP3    H277937   0.159   1.443  12.276  0.1339 -0.1378 -0.4101
18816TIP3   OH277938   6.570   0.566  11.986  0.2407  0.0829 -0.1061
18816TIP3    H177939   6.578   0.565  11.891  0.2611 -2.9896 -0.1864
18816TIP3    H277940   6.638   0.506  12.017  0.3235  1.1117  1.8724
18817TIP3   OH277941   2.882   6.736  13.601 -0.0679  0.3803 -0.1604
18817TIP3    H177942   2.913   6.646  13.595  0.9873  0.8032 -1.4931
18817TIP3    H277943   2.821   6.735  13.675 -1.0896 -1.7072 -0.9281
18818TIP3   OH277944   3.131   0.962  13.850 -0.0198  0.3485  0.7406
18818TIP3    H177945   3.035   0.962  13.845  0.0605 -0.0602 -1.6057
18818TIP3    H277946   3.160   0.954  13.760  2.2613  0.9310  1.3702
18819TIP3   OH277947   4.890   2.190  15.262  0.0100 -0.0045  0.1028
18819TIP3    H177948   4.917   2.264  15.209  0.7909 -1.2745 -1.3619
18819TIP3    H277949   4.964   2.173  15.320 -0.9330  1.5267  1.8505
18820TIP3   OH277950   3.246   0.088   2.776 -0.1251 -0.3044 -0.2822
18820TIP3    H177951   3.191   0.058   2.703  0.2672  0.6684 -0.9967
18820TIP3    H277952   3.226   0.181   2.785  1.0844 -0.0132 -0.3017
18821TIP3   OH277953   1.863   3.098   3.546 -0.0112  0.2604  0.1859
18821TIP3    H177954   1.883   3.019   3.496 -1.5847  0.2157 -0.4317
18821TIP3    H277955   1.932   3.160   3.521 -1.0682  0.4578 -2.6219
18822TIP3   OH277956   6.088   4.861   1.526 -1.2867 -0.1342  0.1519
18822TIP3    H177957   6.026   4.926   1.493 -1.8593 -0.9877 -0.5403
18822TIP3    H277958   6.040   4.816   1.596 -1.3207 -0.5476 -0.1318
18823TIP3   OH277959   4.050   5.923  13.474  0.4829  0.4603 -0.1856
18823TIP3    H177960   3.996   5.968  13.409  0.2475  0.0421 -0.2865
18823TIP3    H277961   3.999   5.845  13.497  0.6400  0.5224  0.3812
18824TIP3   OH277962   5.462   1.540   4.951  0.4120 -0.3381  0.4859
18824TIP3    H177963   5.542   1.487   4.956  0.2815 -0.4929  1.0157
18824TIP3    H277964   5.431   1.545   5.041  0.0501  0.0750  0.3424
18825TIP3   OH277965   0.736   1.615  13.293 -0.0002 -0.4214 -0.3118
18825TIP3    H177966   0.764   1.693  13.246 -1.2184  0.8957  1.0198
18825TIP3    H277967   0.731   1.644  13.385 -1.3241 -1.8222  0.0842
18826TIP3   OH277968   3.658   0.748   0.465  0.1907 -0.2526  0.7992
18826TIP3    H177969   3.668   0.838   0.495 -0.4531  0.2244 -0.3777
18826TIP3    H277970   3.738   0.731   0.416  0.2463 -0.2835  0.8989
18827TIP3   OH277971   3.271   5.124  17.142 -0.2049 -0.0874 -0.2861
18827TIP3    H177972   3.289   5.033  17.167 -0.0904 -0.0538 -0.2482
18827TIP3    H277973   3.343   5.175  17.179  0.6450 -0.1869 -1.7105
18828TIP3   OH277974   3.574   1.465  10.816  0.1810 -0.2615  0.1434
18828TIP3    H177975   3.583   1.410  10.738  0.0319 -1.6453  1.0504
18828TIP3    H277976   3.566   1.402  10.888  1.0978  0.9682  1.3693
18829TIP3   OH277977   0.926   6.139   0.059  0.1033 -0.2892 -0.2649
18829TIP3    H177978   0.869   6.113  -0.014  0.8047  0.0488 -0.9436
18829TIP3    H277979   0.868   6.187   0.118 -1.3602 -3.5107  1.2031
18830TIP3   OH277980   2.722   0.166   2.578 -0.6477 -0.1840  0.1326
18830TIP3    H177981   2.687   0.179   2.666  1.2929  0.7825  0.8029
18830TIP3    H277982   2.748   0.073   2.576  0.1314  0.0101  0.9019
18831TIP3   OH277983   6.280   4.220   4.857 -0.6099  0.4765  0.4619
18831TIP3    H177984   6.262   4.243   4.948 -1.5725  3.3650 -0.3454
18831TIP3    H277985   6.334   4.292   4.824 -1.2040  0.0743 -1.5210
18832TIP3   OH277986   0.666   4.456   4.409  0.3950  0.5024 -0.2269
18832TIP3    H177987   0.598   4.418   4.355 -0.2551  0.6627  0.4562
18832TIP3    H277988   0.683   4.390   4.476 -0.9370  1.4538  1.1331
18833TIP3   OH277989   5.775   2.554  11.268  0.0709 -0.4883  0.0515
18833TIP3    H177990   5.742   2.552  11.178  0.0742 -1.0222  0.0567
18833TIP3    H277991   5.854   2.500  11.266 -0.0461 -0.6769  0.4203
18834TIP3   OH277992   6.312   2.506  14.735 -0.0414 -0.7934 -0.3429
18834TIP3    H177993   6.226   2.528  14.699  0.7733  1.7351 -0.9423
18834TIP3    H277994   6.293   2.469  14.822 -1.7197 -0.4210 -0.5113
18835TIP3   OH277995   4.979   2.556   6.192  0.1928  0.2380 -0.1102
18835TIP3    H177996   4.948   2.641   6.160 -0.6876 -1.0649 -3.0739
18835TIP3    H277997   4.899   2.506   6.210  0.6674 -0.5703 -0.1754
18836TIP3   OH277998   5.723   2.226  16.845  0.1419 -0.3933  0.9106
18836TIP3    H177999   5.645   2.282  16.842 -0.6412 -1.4574  0.4607
18836TIP3    H278000   5.737   2.200  16.754  1.1009 -0.1182  0.9755
18837TIP3   OH278001   1.650   1.909  14.597  0.1085 -0.1561  0.7098
18837TIP3    H178002   1.729   1.961  14.581 -0.6308  1.5374  2.2595
18837TIP3    H278003   1.678   1.841  14.659  0.4273  0.2227  0.9843
18838TIP3   OH278004   6.656   4.847   2.680  0.6890  0.6200 -0.1471
18838TIP3    H178005   6.600   4.854   2.758 -2.3738  2.5525 -2.2550
18838TIP3    H278006   6.622   4.915   2.622  0.1332 -3.1155 -4.7285
18839TIP3   OH278007   6.548   1.655   1.281 -0.4978 -0.2839 -0.0156
18839TIP3    H178008   6.633   1.688   1.252 -1.4581  2.2122 -0.2409
18839TIP3    H278009   6.490   1.669   1.206 -1.2963 -1.3258  0.3741
18840TIP3   OH278010   3.209   3.315  16.721 -0.0020 -0.3530  0.3544
18840TIP3    H178011   3.255   3.398  16.733  0.1129 -0.4118  0.3163
18840TIP3    H278012   3.134   3.321  16.780 -1.1518  0.6408 -1.1265
18841TIP3   OH278013   6.395   0.913  12.201  0.1508  0.4110 -0.4346
18841TIP3    H178014   6.303   0.890  12.197  0.3469 -0.3073 -2.7009
18841TIP3    H278015   6.396   1.004  12.233 -1.0116 -0.7108  3.1807
18842TIP3   OH278016   1.749   1.155  12.348 -0.0532  0.0320  0.5027
18842TIP3    H178017   1.782   1.214  12.416 -1.1812  0.9633  0.2733
18842TIP3    H278018   1.827   1.126  12.301  0.4466  4.0398 -1.5984
18843TIP3   OH278019   4.982   0.851   1.633 -0.0888  0.2804 -0.2310
18843TIP3    H178020   5.041   0.912   1.677 -0.5309  0.6680 -0.1776
18843TIP3    H278021   4.921   0.906   1.585 -0.3146 -0.1237 -0.4139
18844TIP3   OH278022   1.629   5.093  16.133  0.1805  0.0004  0.2361
18844TIP3    H178023   1.535   5.077  16.136  0.3291 -1.2199 -0.8338
18844TIP3    H278024   1.656   5.092  16.225 -0.8515  0.3918  0.5527
18845TIP3   OH278025   5.702   0.171  15.594  0.9127 -0.0476  0.9581
18845TIP3    H178026   5.771   0.232  15.621  0.7421 -0.1384  1.6050
18845TIP3    H278027   5.662   0.143  15.675  0.9342 -0.9733  0.6551
18846TIP3   OH278028   3.620   0.661   3.062 -0.4766  0.1565  0.1694
18846TIP3    H178029   3.550   0.675   2.998 -0.3438  0.2164  0.0353
18846TIP3    H278030   3.608   0.731   3.126 -0.2045  0.5076 -0.1552
18847TIP3   OH278031   4.828   2.023  13.273 -0.2386 -0.4118  0.1698
18847TIP3    H178032   4.775   2.024  13.353  0.0747 -0.2749  0.3825
18847TIP3    H278033   4.793   1.950  13.222  1.3450 -2.3875  1.6905
18848TIP3   OH278034   1.972   0.815   1.730 -0.4800 -0.0652 -0.1962
18848TIP3    H178035   1.954   0.747   1.665 -0.5350 -0.2040 -0.0402
18848TIP3    H278036   1.894   0.870   1.729 -1.4925 -1.3534  1.3209
18849TIP3   OH278037   1.275   6.487   2.589  0.1708  0.0076 -0.4828
18849TIP3    H178038   1.364   6.489   2.553 -0.0976 -2.4204 -1.4988
18849TIP3    H278039   1.269   6.566   2.642  2.4312  0.9969 -1.5415
18850TIP3   OH278040   4.349   3.408   4.794 -0.2082 -0.1039  0.0687
18850TIP3    H178041   4.351   3.405   4.890  0.3637  0.9025  0.0991
18850TIP3    H278042   4.258   3.388   4.772 -0.1207 -1.4072  0.7596
18851TIP3   OH278043   5.966   1.458   4.049 -0.0361  0.1303  0.3513
18851TIP3    H178044   5.914   1.378   4.040 -1.2561  1.0624 -1.1409
18851TIP3    H278045   6.050   1.427   4.084 -0.2027 -1.9200 -0.8818
18852TIP3   OH278046   0.698   6.555   0.370  0.0843 -0.5119  0.1851
18852TIP3    H178047   0.707   6.525   0.460 -0.4015  0.2403  0.4968
18852TIP3    H278048   0.605   6.546   0.350 -0.2483  1.5362  0.5926
18853TIP3   OH278049   6.358   4.779  11.553 -0.4184 -0.2017  0.7220
18853TIP3    H178050   6.276   4.819  11.582  0.0889  1.2683  0.1757
18853TIP3    H278051   6.416   4.785  11.629 -0.1351  0.6863  0.4347
18854TIP3   OH278052   0.752   3.750   5.418  0.0092  0.4040  0.2418
18854TIP3    H178053   0.707   3.831   5.394 -0.1424  0.5348  0.9500
18854TIP3    H278054   0.842   3.777   5.437  0.0921  0.3234 -0.0338
18855TIP3   OH278055   3.983   2.388  11.799  0.0372  0.1042 -0.1315
18855TIP3    H178056   4.055   2.429  11.751 -0.8269  2.4182  0.4039
18855TIP3    H278057   3.975   2.440  11.879 -0.4794 -1.8306  1.1500
18856TIP3   OH278058   3.509   5.474  14.617  0.1386 -0.3131 -0.1091
18856TIP3    H178059   3.492   5.449  14.708  0.0125 -3.0239 -0.7893
18856TIP3    H278060   3.428   5.515  14.588  0.1344  0.4604  0.9389
18857TIP3   OH278061   0.845   0.183  11.547  0.3195 -0.2677  0.0651
18857TIP3    H178062   0.808   0.225  11.624  1.0768 -0.6236  0.6428
18857TIP3    H278063   0.930   0.149  11.577  0.0356 -1.6008 -0.5546
18858TIP3   OH278064   5.835   2.420  17.103  0.3101 -0.2749  0.1987
18858TIP3    H178065   5.859   2.472  17.180 -0.1758  0.3309 -0.0453
18858TIP3    H278066   5.887   2.457  17.032 -1.2872  1.0847 -0.3454
18859TIP3   OH278067   6.159   5.995   4.828 -0.2085  0.4602  0.0663
18859TIP3    H178068   6.073   6.032   4.847 -0.2186  0.4507  0.0412
18859TIP3    H278069   6.220   6.069   4.834 -0.1579  0.3823  0.5073
18860TIP3   OH278070   0.652   3.744  11.178  0.1956 -0.0801  0.5711
18860TIP3    H178071   0.582   3.789  11.129  1.1132  1.5180  0.6717
18860TIP3    H278072   0.647   3.654  11.148 -0.6818  0.4040 -0.8547
18861TIP3   OH278073   6.806   3.280   2.420  0.2524  0.5809  0.4602
18861TIP3    H178074   6.821   3.307   2.330  0.3816 -2.8831 -0.7176
18861TIP3    H278075   6.890   3.243   2.448 -0.5367 -0.9454  0.9399
18862TIP3   OH278076   0.897   5.214  15.034 -0.3196 -0.2442 -0.1291
18862TIP3    H178077   0.898   5.121  15.058  1.9950 -0.0313  0.8467
18862TIP3    H278078   0.933   5.215  14.945 -0.8783 -0.3176 -0.3591
18863TIP3   OH278079   3.445   0.295   4.827  0.2396  0.1847 -0.2458
18863TIP3    H178080   3.505   0.369   4.834  0.4062  0.0500 -0.2413
18863TIP3    H278081   3.368   0.331   4.783 -0.0619  0.5931  0.5868
18864TIP3   OH278082   2.671   2.840  12.954  0.6058  0.0289 -0.9776
18864TIP3    H178083   2.590   2.794  12.977 -0.2315  2.0267  0.3338
18864TIP3    H278084   2.735   2.771  12.941 -1.1792 -1.5946 -1.5246
18865TIP3   OH278085   0.420   5.397  14.156  0.1672  0.1392 -0.0197
18865TIP3    H178086   0.414   5.395  14.060 -0.5605 -0.1808  0.0209
18865TIP3    H278087   0.338   5.357  14.185  1.3659 -1.8745  0.7399
18866TIP3   OH278088   0.162   2.271   0.395  0.4784 -0.4538  0.8461
18866TIP3    H178089   0.074   2.239   0.377  0.5177  0.8138 -2.2073
18866TIP3    H278090   0.185   2.232   0.479 -2.4298 -1.9325  1.0843
18867TIP3   OH278091   4.816   5.494  12.319  0.2137 -0.7315 -0.4276
18867TIP3    H178092   4.836   5.533  12.234  1.2357 -0.4527 -0.0763
18867TIP3    H278093   4.756   5.422  12.299  0.8515 -1.0010 -1.4596
18868TIP3   OH278094   2.872   5.774   4.476  0.1880  0.6036  0.1536
18868TIP3    H178095   2.810   5.727   4.421  0.4004  0.7473 -0.2137
18868TIP3    H278096   2.870   5.727   4.559  0.7261 -0.3508 -0.3432
18869TIP3   OH278097   4.646   6.760   4.611  0.6470 -0.1222  0.2918
18869TIP3    H178098   4.613   6.735   4.524  1.8230  0.2521 -0.2845
18869TIP3    H278099   4.675   6.677   4.650  0.9993 -0.1752 -0.0698
18870TIP3   OH278100   0.956   4.533  11.892  0.3576  0.2215  0.6488
18870TIP3    H178101   0.932   4.457  11.840  1.1757  2.4900 -3.5070
18870TIP3    H278102   0.872   4.576  11.910  0.1484  0.2239 -0.2823
18871TIP3   OH278103   1.010   4.385  11.228 -0.5381 -0.0573 -0.3783
18871TIP3    H178104   1.073   4.359  11.161 -0.8320  0.9601 -1.0745
18871TIP3    H278105   0.925   4.367  11.188 -0.7066 -1.0227  0.3916
18872TIP3   OH278106   5.800   2.755   3.361  0.0938 -0.5315 -0.0888
18872TIP3    H178107   5.755   2.801   3.290  0.9659  0.1542 -0.2229
18872TIP3    H278108   5.826   2.825   3.421  3.2153 -0.5037 -1.2607
18873TIP3   OH278109   2.866   1.899   0.983 -0.3383 -0.1310  0.3353
18873TIP3    H178110   2.890   1.809   0.958 -1.2657 -0.4239  0.4474
18873TIP3    H278111   2.940   1.952   0.955 -0.3554 -0.7531 -0.9803
18874TIP3   OH278112   3.155   0.358  16.004  0.1634  0.2628  0.1117
18874TIP3    H178113   3.111   0.435  16.040 -2.0644 -0.4479 -0.8966
18874TIP3    H278114   3.114   0.283  16.048 -0.8491 -0.5012 -1.9749
18875TIP3   OH278115   5.282   4.874  11.720 -0.2548 -0.1494 -0.0441
18875TIP3    H178116   5.217   4.846  11.783 -0.2217 -1.4831 -0.5530
18875TIP3    H278117   5.238   4.865  11.635  0.3436 -0.3832 -0.3377
18876TIP3   OH278118   0.348   1.968   5.314  0.2522  0.6136 -0.2449
18876TIP3    H178119   0.349   2.038   5.379 -2.1211  0.4441  0.0553
18876TIP3    H278120   0.376   1.890   5.363  1.5151  1.0340 -0.2417
18877TIP3   OH278121   0.590   6.089  16.601  0.1548 -0.6601  0.2863
18877TIP3    H178122   0.607   6.176  16.636  2.7526 -0.5068 -1.1198
18877TIP3    H278123   0.612   6.029  16.673 -0.9356 -0.2168  1.0121
18878TIP3   OH278124   2.240   5.403   3.437 -0.3797  0.6007  0.1800
18878TIP3    H178125   2.179   5.384   3.508  0.2391 -0.4986  0.4490
18878TIP3    H278126   2.284   5.320   3.421 -0.8036  0.6917 -1.7930
18879TIP3   OH278127   2.139   5.921  10.978 -0.3918  0.1090 -0.1415
18879TIP3    H178128   2.152   5.840  11.027 -0.3663 -0.3047 -0.8156
18879TIP3    H278129   2.153   5.990  11.043 -0.2831 -0.4178  0.4146
18880TIP3   OH278130   1.840   1.204  11.130  0.1117  0.1793  0.8063
18880TIP3    H178131   1.899   1.149  11.079 -0.6494 -0.8807  1.0425
18880TIP3    H278132   1.778   1.240  11.066 -0.2014 -0.3108  0.8295
18881TIP3   OH278133   1.797   5.049  15.668 -0.2741 -0.2171 -0.2468
18881TIP3    H178134   1.743   5.122  15.638 -0.9373 -0.5764  0.0574
18881TIP3    H278135   1.789   5.051  15.763  1.3656  0.5689 -0.0945
18882TIP3   OH278136   0.816   5.693   0.077 -0.0858 -0.1276 -0.4593
18882TIP3    H178137   0.846   5.757   0.140 -3.0140  0.8247  0.1381
18882TIP3    H278138   0.823   5.609   0.123 -2.0538  0.5348  1.2017
18883TIP3   OH278139   3.772   4.154   6.654 -0.2640 -0.5884  0.0894
18883TIP3    H178140   3.843   4.102   6.617 -0.1162 -1.1430  1.1076
18883TIP3    H278141   3.812   4.201   6.727 -0.8568 -0.6229  0.4466
18884TIP3   OH278142   5.137   1.548  14.787 -0.4405 -0.3143  0.0703
18884TIP3    H178143   5.113   1.615  14.722 -1.5970  0.3895  1.1926
18884TIP3    H278144   5.120   1.465  14.743  0.2822  0.1146 -1.0753
18885TIP3   OH278145   3.867   3.245  10.707 -0.3940 -0.2469  0.2553
18885TIP3    H178146   3.868   3.314  10.640  0.7009 -0.0406  0.4606
18885TIP3    H278147   3.860   3.164  10.657  0.2881 -0.0850 -0.1218
18886TIP3   OH278148   0.495   1.501   4.384  0.5394 -0.1620 -0.0236
18886TIP3    H178149   0.436   1.499   4.310  1.5624  0.7653 -0.9118
18886TIP3    H278150   0.582   1.512   4.345  1.0440  0.9065  1.3182
18887TIP3   OH278151   1.806   6.690  12.476 -0.4023  0.1387 -0.0860
18887TIP3    H178152   1.724   6.734  12.500 -1.3842 -1.4211 -0.4794
18887TIP3    H278153   1.794   6.665  12.385  0.5474 -0.0595 -0.1668
18888TIP3   OH278154   4.094   0.798   3.543 -0.2408  0.5032 -0.2810
18888TIP3    H178155   4.029   0.774   3.477 -3.2240  4.2221  1.0036
18888TIP3    H278156   4.172   0.822   3.492 -0.1020 -2.7508 -1.9160
18889TIP3   OH278157   5.901   5.929   3.498 -0.3296 -0.3377 -0.1462
18889TIP3    H178158   5.834   5.996   3.495 -0.1836 -0.1486  0.6014
18889TIP3    H278159   5.984   5.978   3.494 -0.2299 -0.5391 -0.6135
18890TIP3   OH278160   1.456   3.723  12.234  0.4913  0.1057 -0.1836
18890TIP3    H178161   1.485   3.813  12.249 -1.5685  1.0154 -1.1121
18890TIP3    H278162   1.362   3.726  12.251  0.6688 -2.3793  1.6919
18891TIP3   OH278163   0.522   0.161  13.727  0.6196 -0.3081  0.4545
18891TIP3    H178164   0.565   0.238  13.763  0.1459  1.3345 -2.1917
18891TIP3    H278165   0.585   0.090  13.738  2.2790  1.1003  0.3684
18892TIP3   OH278166   6.091   5.206  12.650 -0.3964  0.1208 -0.0824
18892TIP3    H178167   6.155   5.256  12.599 -0.5714  1.7888  1.2554
18892TIP3    H278168   6.143   5.136  12.691  0.1013 -0.0125 -0.9030
18893TIP3   OH278169   1.731   1.241  15.740 -0.4491  0.5791 -0.5113
18893TIP3    H178170   1.797   1.185  15.699 -1.9129  0.0008 -2.2667
18893TIP3    H278171   1.747   1.327  15.703 -0.3505  0.5539 -0.5282
18894TIP3   OH278172   5.675   0.254  14.328 -0.2708  0.5363 -0.2770
18894TIP3    H178173   5.695   0.315  14.257  1.3940  0.7779  0.3408
18894TIP3    H278174   5.673   0.168  14.286 -4.0920  1.0232 -1.4334
18895TIP3   OH278175   6.685   3.404  15.173 -0.3156  0.3384 -0.3063
18895TIP3    H178176   6.743   3.421  15.099  1.4037  0.4691  1.0105
18895TIP3    H278177   6.643   3.488  15.190  1.2108  0.9944  0.4168
18896TIP3   OH278178   3.167   1.880  11.309 -0.9745 -0.2700 -0.2089
18896TIP3    H178179   3.083   1.921  11.288 -0.1617  1.9042  0.5220
18896TIP3    H278180   3.213   1.875  11.225 -2.2606 -2.7874 -0.8931
18897TIP3   OH278181   6.750   4.225  15.034 -0.4255 -0.5510  0.3231
18897TIP3    H178182   6.674   4.272  15.001 -2.2134 -1.4248  2.8631
18897TIP3    H278183   6.788   4.285  15.099 -0.6563 -1.2043  1.0777
18898TIP3   OH278184   4.780   2.290   0.710  0.5910  0.0869  0.4598
18898TIP3    H178185   4.741   2.224   0.652 -0.7598 -2.0144  3.4929
18898TIP3    H278186   4.874   2.276   0.702  0.3782 -1.2226 -0.1058
18899TIP3   OH278187   1.522   5.954   4.422  0.5674  0.3403 -0.0874
18899TIP3    H178188   1.561   5.912   4.499  0.6036  0.0024 -0.2907
18899TIP3    H278189   1.427   5.950   4.438  0.4940 -1.0932 -0.7587
18900TIP3   OH278190   5.547   5.597  12.345 -0.3962  0.3328  0.0364
18900TIP3    H178191   5.514   5.538  12.277  1.8169  0.2426 -1.0584
18900TIP3    H278192   5.540   5.546  12.426  1.0646 -1.3454 -0.8230
18901TIP3   OH278193   4.445   2.858   4.564 -0.2665 -0.5789 -0.1606
18901TIP3    H178194   4.355   2.888   4.555 -0.4707 -0.7080  1.2765
18901TIP3    H278195   4.498   2.928   4.526 -0.9050  0.1097  0.2010
18902TIP3   OH278196   0.341   2.965   2.305 -0.4216  0.1866  0.3031
18902TIP3    H178197   0.364   2.889   2.252 -0.1364  2.2438 -2.8616
18902TIP3    H278198   0.420   2.983   2.357  0.1896 -0.5821 -0.3368
18903TIP3   OH278199   2.713   5.899  14.598  0.0151  0.0658  0.1786
18903TIP3    H178200   2.773   5.828  14.579 -0.1068  0.0436 -0.1286
18903TIP3    H278201   2.631   5.874  14.556  0.1929  0.7487 -0.6062
18904TIP3   OH278202   4.251   6.346   4.664 -0.3075  0.8110 -0.1276
18904TIP3    H178203   4.203   6.325   4.584 -1.8195  0.0428  0.9176
18904TIP3    H278204   4.319   6.407   4.636  0.1944 -0.6056 -2.2335
18905TIP3   OH278205   6.051   4.598  11.145 -0.1769 -0.3605 -0.0637
18905TIP3    H178206   6.069   4.568  11.234  3.9889  2.2951  0.2540
18905TIP3    H278207   6.059   4.520  11.091 -0.6003 -1.6377  1.6487
18906TIP3   OH278208   1.011   6.532   2.482  0.6112  0.2706 -0.1012
18906TIP3    H178209   1.081   6.495   2.536 -0.1343  0.5084  1.0607
18906TIP3    H278210   0.959   6.585   2.543 -0.8614 -0.2876 -0.8177
18907TIP3   OH278211   0.452   6.668   2.269 -0.2478 -0.2975  0.2387
18907TIP3    H178212   0.373   6.635   2.313 -0.4729 -1.4280 -0.9579
18907TIP3    H278213   0.525   6.631   2.318 -0.4851 -3.2961 -1.4628
18908TIP3   OH278214   0.098   5.390  12.929  0.1471 -0.5315 -0.1001
18908TIP3    H178215   0.168   5.411  12.991 -1.5745  0.4416  1.6211
18908TIP3    H278216   0.041   5.329  12.977 -0.7720 -0.4348 -1.0355
18909TIP3   OH278217   5.429   0.376   3.828  0.2245 -0.1049 -0.0705
18909TIP3    H178218   5.338   0.349   3.841 -0.3897  0.0904 -3.1821
18909TIP3    H278219   5.428   0.470   3.843  0.0522 -0.1740  0.3973
18910TIP3   OH278220   5.827   3.811   5.476 -0.2284  0.2481 -0.3027
18910TIP3    H178221   5.885   3.763   5.535  0.2806  0.5684 -0.5360
18910TIP3    H278222   5.846   3.903   5.493  1.0113  0.3511 -1.9878
18911TIP3   OH278223   1.730   1.165   3.313 -0.3849  0.3588 -0.5079
18911TIP3    H178224   1.734   1.104   3.239  1.3680 -0.3386  0.1212
18911TIP3    H278225   1.743   1.110   3.390  1.6086  1.5152  0.0547
18912TIP3   OH278226   0.077   5.064  17.085  0.1013 -1.0614 -0.5079
18912TIP3    H178227   0.169   5.089  17.075  0.0792 -0.6006  0.3363
18912TIP3    H278228   0.055   5.020  17.004  1.0206 -1.0100 -0.7931
18913TIP3   OH278229   1.948   5.838   3.002 -0.2163  1.2514 -0.2464
18913TIP3    H178230   1.998   5.794   3.070 -0.0869  1.3494 -0.2792
18913TIP3    H278231   1.902   5.909   3.047 -1.8630 -0.0139  0.1604
18914TIP3   OH278232   6.575   0.714  16.845 -0.2150  0.1695  0.3298
18914TIP3    H178233   6.664   0.679  16.836  0.3245  1.7528 -0.8653
18914TIP3    H278234   6.564   0.727  16.939  1.2089  0.8891  0.4277
18915TIP3   OH278235   0.517   4.334  10.608 -0.1565  0.1601  0.0502
18915TIP3    H178236   0.519   4.251  10.655 -2.4884 -0.6763 -1.1887
18915TIP3    H278237   0.589   4.384  10.646  1.2115 -2.3215  0.9805
18916TIP3   OH278238   6.286   1.592  10.659 -0.0250 -0.2103 -0.1506
18916TIP3    H178239   6.264   1.578  10.567 -0.5921 -0.9112  0.0798
18916TIP3    H278240   6.344   1.520  10.681  1.2777  0.7569 -0.3265
18917TIP3   OH278241   2.174   6.440   2.273 -0.1026 -0.1920  0.3196
18917TIP3    H178242   2.173   6.523   2.226  0.1137  0.0786  0.7868
18917TIP3    H278243   2.251   6.446   2.330 -0.7954 -0.2049  1.2600
18918TIP3   OH278244   0.780   6.716   5.350  0.0904 -0.3306  0.3720
18918TIP3    H178245   0.855   6.659   5.329 -0.8022 -1.3703 -0.0919
18918TIP3    H278246   0.807   6.763   5.428  1.9549  0.7032 -0.8215
18919TIP3   OH278247   2.024   1.619  11.414  0.0010  0.1718  0.5528
18919TIP3    H178248   2.097   1.562  11.387  0.7173  0.9297  0.8368
18919TIP3    H278249   2.003   1.589  11.502 -0.4821 -0.4872  0.2169
18920TIP3   OH278250   3.513   1.288   5.324  0.1104 -0.5662  0.4828
18920TIP3    H178251   3.566   1.209   5.338 -0.3364 -0.6996  1.5292
18920TIP3    H278252   3.577   1.359   5.320  0.6687 -1.1116 -2.1675
18921TIP3   OH278253   4.025   6.007  16.199 -0.1218  0.2446 -0.1864
18921TIP3    H178254   4.045   6.082  16.256  0.3367  2.2624 -2.8152
18921TIP3    H278255   4.084   6.017  16.125 -1.3434 -1.7219 -1.5029
18922TIP3   OH278256   1.660   0.305  14.790  0.1933 -0.0608 -0.4042
18922TIP3    H178257   1.703   0.235  14.839 -0.2989 -1.2459 -1.6203
18922TIP3    H278258   1.566   0.290  14.804  0.0941  0.6246 -0.3149
18923TIP3   OH278259   3.144   6.152  13.657  0.8849  0.2084 -0.2645
18923TIP3    H178260   3.122   6.062  13.680 -0.1470  0.2829 -0.9290
18923TIP3    H278261   3.146   6.198  13.740 -1.2849  0.1465 -0.1198
18924TIP3   OH278262   3.406   1.674  10.881 -0.0072 -0.0246 -0.2980
18924TIP3    H178263   3.339   1.676  10.812 -1.1735 -1.1322  0.7617
18924TIP3    H278264   3.455   1.594  10.864 -0.5270 -0.4911  0.3398
18925TIP3   OH278265   1.837   1.176  13.860  0.1478 -0.3720 -0.0400
18925TIP3    H178266   1.779   1.100  13.865 -0.1709 -0.0889  0.6245
18925TIP3    H278267   1.914   1.151  13.910  0.5695 -0.7063 -0.8330
18926TIP3   OH278268   1.723   1.400   5.201  0.7973  0.0500  0.1240
18926TIP3    H178269   1.769   1.323   5.166 -1.4477 -2.6996  2.6962
18926TIP3    H278270   1.743   1.400   5.294  0.4950  2.5026  0.2537
18927TIP3   OH278271   4.438   1.304   2.307 -0.0964 -0.3614 -0.6904
18927TIP3    H178272   4.502   1.277   2.373  0.2705  1.1982 -0.3743
18927TIP3    H278273   4.490   1.331   2.232 -0.2684  1.6946 -0.1432
18928TIP3   OH278274   6.739   1.402   3.969  0.3666 -0.6715  0.8880
18928TIP3    H178275   6.822   1.446   3.952  0.1587 -1.0967 -1.6250
18928TIP3    H278276   6.732   1.399   4.065  1.1423  3.2592  1.2308
18929TIP3   OH278277   6.656   3.000  16.251 -0.0995 -0.5559 -0.3138
18929TIP3    H178278   6.669   3.011  16.156  0.5193  2.7315  0.0180
18929TIP3    H278279   6.562   2.984  16.260  0.2393 -4.1381 -1.5670
18930TIP3   OH278280   2.781   5.758  11.972 -0.1751 -0.2793  0.2780
18930TIP3    H178281   2.798   5.693  11.905 -0.3614 -0.7057  0.6397
18930TIP3    H278282   2.713   5.719  12.027 -0.1050  0.1101  0.6488
18931TIP3   OH278283   5.795   4.246   3.458  0.1930 -0.0042 -0.1614
18931TIP3    H178284   5.709   4.240   3.415  0.2446 -1.3851 -0.0892
18931TIP3    H278285   5.842   4.311   3.405 -1.0970  1.3095  0.2010
18932TIP3   OH278286   6.235   1.189  13.749 -0.1902  0.1104  0.1745
18932TIP3    H178287   6.216   1.137  13.670 -0.1761 -0.4785  0.5513
18932TIP3    H278288   6.305   1.140  13.793 -0.8199 -0.0605  1.0167
18933TIP3   OH278289   1.831   5.046   2.602  0.6416 -0.4173 -0.3492
18933TIP3    H178290   1.894   4.975   2.615  1.7052  0.7554  1.3061
18933TIP3    H278291   1.841   5.102   2.679  0.9902  2.3606 -2.2317
18934TIP3   OH278292   3.226   4.213   6.387 -0.2596  0.3720  0.0747
18934TIP3    H178293   3.292   4.146   6.368 -0.9004  0.4869 -3.2872
18934TIP3    H278294   3.272   4.296   6.373  0.1693  0.6771  2.8754
18935TIP3   OH278295   1.432   6.536  11.050  0.2732 -0.4298 -0.0943
18935TIP3    H178296   1.476   6.600  10.994 -0.6784  1.4468  1.1852
18935TIP3    H278297   1.340   6.543  11.026  0.2648 -2.1375 -0.6632
18936TIP3   OH278298   5.595   1.269  13.072  0.9690 -0.3964  0.1704
18936TIP3    H178299   5.612   1.347  13.019  0.4675 -0.2261  0.2528
18936TIP3    H278300   5.678   1.221  13.072  1.6436  0.7244  1.1033
18937TIP3   OH278301   0.922   3.935   2.645 -0.2407 -0.0075 -0.2208
18937TIP3    H178302   0.955   3.933   2.555 -0.4216 -0.8190 -0.2768
18937TIP3    H278303   0.941   3.847   2.680  0.0227  0.3649  0.6015
18938TIP3   OH278304   2.203   3.512  11.955 -0.7545 -0.1091  0.4420
18938TIP3    H178305   2.147   3.532  12.030 -0.5467  2.7731 -0.0301
18938TIP3    H278306   2.255   3.437  11.982  0.1081  1.4759  3.6799
18939TIP3   OH278307   4.294   0.155   0.315  0.0081  0.5593 -0.2544
18939TIP3    H178308   4.372   0.106   0.342 -0.0564  0.3708 -0.4127
18939TIP3    H278309   4.226   0.129   0.377 -0.2758 -0.2536 -0.8955
18940TIP3   OH278310   4.325   2.497   2.325  0.7035 -0.2513 -0.4750
18940TIP3    H178311   4.253   2.555   2.302 -0.0396 -1.0057 -0.1040
18940TIP3    H278312   4.302   2.464   2.412  0.8377 -1.5186 -0.9054
18941TIP3   OH278313   2.433   5.563  13.149  0.1983 -0.6069 -0.4104
18941TIP3    H178314   2.489   5.624  13.101 -0.4227 -0.7962 -1.4261
18941TIP3    H278315   2.358   5.616  13.177  0.4784 -0.5356  0.2105
18942TIP3   OH278316   3.716   1.450   0.228 -0.6157 -0.3770  0.7853
18942TIP3    H178317   3.738   1.399   0.306  0.6090  1.0632  1.4158
18942TIP3    H278318   3.686   1.534   0.262 -0.0552  0.2809 -0.2961
18943TIP3   OH278319   6.553   4.284   3.984  0.0258  0.6891  0.4007
18943TIP3    H178320   6.641   4.274   3.948  0.6250 -0.1584  2.0220
18943TIP3    H278321   6.535   4.378   3.974  0.5807  0.6724 -1.0767
18944TIP3   OH278322   0.598   1.756   4.830  0.0266 -0.0640  0.4715
18944TIP3    H178323   0.641   1.794   4.906  0.4980  0.6335 -0.1285
18944TIP3    H278324   0.648   1.788   4.755 -1.1806  0.2950 -0.2124
18945TIP3   OH278325   5.772   1.626   1.483 -0.9835 -0.1603 -0.2408
18945TIP3    H178326   5.770   1.538   1.446 -0.8011 -0.2064 -0.1394
18945TIP3    H278327   5.683   1.639   1.518 -2.3690  1.2192 -3.7821
18946TIP3   OH278328   5.917   6.150  15.468 -0.1022  1.3331  0.1171
18946TIP3    H178329   5.884   6.153  15.558 -0.7782  0.6322 -0.0982
18946TIP3    H278330   5.840   6.132  15.415  0.6418 -0.5324 -0.3802
18947TIP3   OH278331   2.471   5.412  13.662 -0.0466 -0.3317 -0.5351
18947TIP3    H178332   2.496   5.322  13.644  1.6283 -0.3579  1.5668
18947TIP3    H278333   2.438   5.410  13.752 -0.0556  1.1397 -0.4811
18948TIP3   OH278334   5.688   1.874  13.234  0.4308 -0.0685  0.2507
18948TIP3    H178335   5.641   1.826  13.301  1.9774 -1.3269  0.5072
18948TIP3    H278336   5.621   1.923  13.187 -0.9102 -0.6556  1.4878
18949TIP3   OH278337   6.399   2.105  13.740  0.2151  0.1052  0.1628
18949TIP3    H178338   6.471   2.153  13.780  0.9328 -1.3825  0.7031
18949TIP3    H278339   6.335   2.173  13.717  1.1184  1.2929  1.0469
18950TIP3   OH278340   0.356   5.053   2.688 -0.2178 -0.7883 -0.0628
18950TIP3    H178341   0.376   5.121   2.624  4.2537 -2.8934 -1.3423
18950TIP3    H278342   0.407   4.977   2.659 -1.1531 -3.2053  3.8077
18951TIP3   OH278343   3.554   6.437  15.586  0.3497  0.5548  0.2294
18951TIP3    H178344   3.599   6.500  15.531  1.8828  0.2887  1.1188
18951TIP3    H278345   3.579   6.351  15.551 -0.8221  0.4136 -0.2898
18952TIP3   OH278346   1.982   3.345  14.500 -0.1971 -0.4444 -0.4151
18952TIP3    H178347   2.031   3.267  14.527  0.6637  0.1995 -0.0688
18952TIP3    H278348   1.893   3.313  14.484 -0.2524 -1.2209  1.2251
18953TIP3   OH278349   4.062   6.127   1.148  0.2759  0.2561 -0.0217
18953TIP3    H178350   4.059   6.208   1.199 -1.4809  0.4730 -0.4112
18953TIP3    H278351   4.030   6.060   1.208  0.6076  0.0607 -0.0635
18954TIP3   OH278352   0.851   5.456   1.537 -0.3702 -0.1892  0.0124
18954TIP3    H178353   0.944   5.478   1.530 -0.2681 -0.0979  1.4711
18954TIP3    H278354   0.807   5.541   1.545 -0.6086 -0.2265 -0.7791
18955TIP3   OH278355   4.022   5.385   5.418 -0.4958  0.2022  0.1242
18955TIP3    H178356   4.083   5.454   5.445  0.7402 -1.6894  2.5449
18955TIP3    H278357   3.936   5.418   5.443 -0.2803  1.8882 -1.1488
18956TIP3   OH278358   6.298   5.043  11.977  0.1920 -0.2314  0.4146
18956TIP3    H178359   6.241   5.119  11.967 -0.7860 -0.8957  0.6700
18956TIP3    H278360   6.357   5.066  12.049 -0.0602  0.2981  0.4580
18957TIP3   OH278361   5.325   5.848   4.272 -0.6779  0.3396 -0.2086
18957TIP3    H178362   5.297   5.789   4.202 -1.8167 -0.4120  0.8360
18957TIP3    H278363   5.408   5.811   4.302 -1.3995 -0.7962  0.4632
18958TIP3   OH278364   1.870   1.963   0.189  0.3094  0.8400  0.1676
18958TIP3    H178365   1.779   1.957   0.162  0.8925 -1.0583 -1.6555
18958TIP3    H278366   1.867   2.001   0.277 -2.3824 -1.1628  1.0651
18959TIP3   OH278367   4.576   5.332   4.284  0.3437 -0.3993  0.0843
18959TIP3    H178368   4.671   5.341   4.289  0.1616  1.5256  1.1540
18959TIP3    H278369   4.549   5.312   4.374 -0.2654 -1.2868 -0.2724
18960TIP3   OH278370   2.792   2.148   6.822  0.1671  0.2136 -0.5984
18960TIP3    H178371   2.708   2.124   6.783 -0.6088  2.5923 -0.5548
18960TIP3    H278372   2.811   2.077   6.883 -2.2966  0.0546  0.0989
18961TIP3   OH278373   1.745   1.462   4.170 -0.0267  0.3840  0.2288
18961TIP3    H178374   1.753   1.372   4.139 -0.5598 -0.8446  3.3214
18961TIP3    H278375   1.834   1.487   4.193 -0.0820  0.0895  0.7666
18962TIP3   OH278376   2.841   0.221   1.060  0.1946 -0.3437  0.1213
18962TIP3    H178377   2.934   0.223   1.036  0.3768  0.8364  0.8406
18962TIP3    H278378   2.806   0.144   1.015  1.3088 -0.2580 -0.9452
18963TIP3   OH278379   1.095   2.994  14.952  0.1287 -0.2053 -0.0298
18963TIP3    H178380   1.060   3.082  14.936 -2.0935 -0.8462  0.9795
18963TIP3    H278381   1.124   2.964  14.865 -2.2404  0.2628 -1.0748
18964TIP3   OH278382   4.848   5.364   5.421  0.1348  0.8792  0.4443
18964TIP3    H178383   4.775   5.398   5.369  0.1954  0.4754  0.0852
18964TIP3    H278384   4.887   5.441   5.461 -0.6521  1.0729  0.8584
18965TIP3   OH278385   3.986   3.434   6.507  0.2997  0.4365 -0.2050
18965TIP3    H178386   4.039   3.436   6.586 -0.9721 -2.0017  0.7880
18965TIP3    H278387   4.025   3.365   6.453 -1.1263 -0.6194  0.0566
18966TIP3   OH278388   6.423   3.296   5.074 -0.2644 -0.0968 -0.5674
18966TIP3    H178389   6.335   3.260   5.076 -0.6795  0.8755  1.2846
18966TIP3    H278390   6.413   3.381   5.031  0.0705 -0.6123 -1.7067
18967TIP3   OH278391   2.717   4.339   1.967  0.4211  0.0409  0.4025
18967TIP3    H178392   2.623   4.333   1.950  0.5475 -2.0802  0.2080
18967TIP3    H278393   2.723   4.371   2.057 -0.5732 -1.2964  0.9891
18968TIP3   OH278394   1.571   0.507   1.485  0.3809 -0.7356 -0.1586
18968TIP3    H178395   1.519   0.435   1.520 -0.5483 -1.0346 -1.9854
18968TIP3    H278396   1.591   0.480   1.395  0.4120  1.0538 -0.7321
18969TIP3   OH278397   3.984   6.604  14.760  0.0377 -0.3028 -0.2702
18969TIP3    H178398   3.986   6.658  14.839  1.4376 -0.1481 -0.3758
18969TIP3    H278399   3.927   6.652  14.700 -1.0203 -0.4102  0.6168
18970TIP3   OH278400   4.117   1.871   2.391 -0.6138  0.1784 -0.0202
18970TIP3    H178401   4.162   1.856   2.308 -0.2641  0.3990  0.1253
18970TIP3    H278402   4.175   1.833   2.457 -1.1851 -0.5470  0.0743
18971TIP3   OH278403   4.472   2.575   2.090  0.3413 -0.2281  0.0746
18971TIP3    H178404   4.446   2.657   2.047  1.7277 -0.9026 -2.2163
18971TIP3    H278405   4.412   2.568   2.165 -1.0916  1.8918 -0.7581
18972TIP3   OH278406   0.982   1.145  16.936  0.4441 -0.7117 -0.7050
18972TIP3    H178407   1.047   1.197  16.888  0.7256 -0.5829 -0.1992
18972TIP3    H278408   1.002   1.163  17.028  1.1184 -2.3932 -0.4889
18973TIP3   OH278409   0.830   1.129  15.413  0.1911 -0.8359  0.6806
18973TIP3    H178410   0.812   1.161  15.502 -1.2098 -1.3391  0.6006
18973TIP3    H278411   0.905   1.071  15.423  0.8654  0.1099  1.3168
18974TIP3   OH278412   2.053   5.410   3.653  0.1378  0.6476  0.3570
18974TIP3    H178413   2.113   5.391   3.725 -0.0341  0.7392  0.5250
18974TIP3    H278414   1.988   5.339   3.657  1.3447 -0.6131 -1.0630
18975TIP3   OH278415   3.778   5.410   2.924  0.3013 -0.2266  0.8161
18975TIP3    H178416   3.817   5.356   2.992 -1.2198  0.0814  1.9986
18975TIP3    H278417   3.777   5.355   2.846  1.6350 -0.7585  1.1545
18976TIP3   OH278418   3.188   3.179   5.201  0.2178 -0.7834 -0.1556
18976TIP3    H178419   3.123   3.239   5.164  1.6860  0.7083 -0.4642
18976TIP3    H278420   3.193   3.107   5.139  1.1710  0.6891 -1.9104
18977TIP3   OH278421   3.829   0.375  15.167  0.0734 -0.8345  1.0449
18977TIP3    H178422   3.870   0.350  15.250  0.8812 -2.1401  0.2812
18977TIP3    H278423   3.900   0.370  15.103 -0.3237  1.0591  0.4045
18978TIP3   OH278424   2.910   1.117   3.353  0.2625  0.1925 -0.7106
18978TIP3    H178425   2.912   1.031   3.395  2.1696 -0.0580 -1.2498
18978TIP3    H278426   2.866   1.173   3.417 -1.3917 -1.2241 -0.5196
18979TIP3   OH278427   4.900   5.299   3.481  0.2665 -0.0866 -0.3066
18979TIP3    H178428   4.989   5.306   3.446  1.3056 -1.0887  1.9039
18979TIP3    H278429   4.888   5.205   3.495 -0.6558  0.1590  0.6204
18980TIP3   OH278430   6.469   0.133   4.046 -0.3343  0.0369 -0.2544
18980TIP3    H178431   6.389   0.184   4.030 -0.3821 -0.1037 -0.4600
18980TIP3    H278432   6.455   0.093   4.132 -1.2133 -1.3555 -1.0036
18981TIP3   OH278433   5.538   4.086  15.766  0.3901  0.0622  0.7496
18981TIP3    H178434   5.499   4.166  15.730  0.8217  0.6844  1.6187
18981TIP3    H278435   5.517   4.018  15.701  1.8707  1.2755 -1.1156
18982TIP3   OH278436   5.449   5.447   6.077 -0.2399  0.1101 -0.3210
18982TIP3    H178437   5.421   5.504   6.149  2.0020  0.3921  0.4252
18982TIP3    H278438   5.471   5.364   6.119 -0.7783 -0.3698 -0.9797
18983TIP3   OH278439   5.541   1.250   5.547  0.0475  0.7986  0.1670
18983TIP3    H178440   5.577   1.314   5.608 -0.3672 -0.8800  2.2719
18983TIP3    H278441   5.598   1.174   5.556 -2.1812 -0.8270  1.2955
18984TIP3   OH278442   4.465   2.324  14.290 -0.5582  0.1318  0.7531
18984TIP3    H178443   4.545   2.339  14.340  0.4895  0.4250 -0.9411
18984TIP3    H278444   4.478   2.239  14.247 -0.7834  0.5469 -0.1707
18985TIP3   OH278445   4.852   3.077   2.616 -0.3274 -0.0213  0.2865
18985TIP3    H178446   4.910   3.049   2.545 -0.7197  0.6001 -0.2870
18985TIP3    H278447   4.822   2.995   2.656 -0.8986 -0.4082 -0.9086
18986TIP3   OH278448   1.822   4.675  10.812  0.4808  0.3811  0.3806
18986TIP3    H178449   1.875   4.621  10.870  0.6914  0.5438  0.3403
18986TIP3    H278450   1.736   4.680  10.854  0.3158 -0.3768  0.1530
18987TIP3   OH278451   6.377   2.446   4.568 -0.6371  0.1900 -0.2421
18987TIP3    H178452   6.407   2.503   4.497  2.1082 -1.5043 -0.5734
18987TIP3    H278453   6.314   2.387   4.526  0.1074 -0.0709 -1.0246
18988TIP3   OH278454   4.312   4.394   1.701  0.1031  0.3273  0.2511
18988TIP3    H178455   4.258   4.467   1.669  0.1636  0.4529  0.4307
18988TIP3    H278456   4.351   4.357   1.623  0.9647  1.1959  0.2439
18989TIP3   OH278457   3.524   5.427   5.972 -0.0187 -0.0538  0.0751
18989TIP3    H178458   3.475   5.501   5.937  0.3525 -0.0395 -0.4281
18989TIP3    H278459   3.486   5.412   6.059 -2.7733 -1.7877 -1.3154
18990TIP3   OH278460   0.661   0.191   5.897 -0.1502 -0.1636  0.7229
18990TIP3    H178461   0.756   0.205   5.889  0.0518 -0.6828  1.9457
18990TIP3    H278462   0.630   0.186   5.807  0.8169  1.0535  0.2893
18991TIP3   OH278463   6.566   5.081   0.655  0.3874  0.1418 -0.6339
18991TIP3    H178464   6.538   5.060   0.566 -1.4567 -0.2980 -0.0079
18991TIP3    H278465   6.489   5.123   0.695  1.7073  1.8806  0.2663
18992TIP3   OH278466   0.763   3.552  12.596  0.0038 -0.5159  0.2655
18992TIP3    H178467   0.734   3.535  12.506  1.1305 -1.6820  0.1042
18992TIP3    H278468   0.858   3.539  12.594 -0.0494 -1.3985  1.8071
18993TIP3   OH278469   0.289   6.165  13.148  0.1631  0.0290  0.0066
18993TIP3    H178470   0.247   6.079  13.149 -1.5441  0.7576 -2.1809
18993TIP3    H278471   0.292   6.190  13.056  0.1205  2.5310  0.5959
18994TIP3   OH278472   5.244   5.136  17.052  0.4754 -0.0786  0.2898
18994TIP3    H178473   5.223   5.192  16.977  1.3030 -1.5220 -1.0787
18994TIP3    H278474   5.337   5.116  17.041  0.7293  0.0528  1.9873
18995TIP3   OH278475   4.730   0.659  14.190 -0.0073  0.3411 -0.8727
18995TIP3    H178476   4.657   0.721  14.190 -0.3702 -0.0570  0.7889
18995TIP3    H278477   4.716   0.607  14.111 -1.0699  0.7927 -1.0047
18996TIP3   OH278478   2.930   1.924  15.096  0.6981 -0.2634  0.0110
18996TIP3    H178479   2.895   1.916  15.007 -1.2083  2.1692  0.4324
18996TIP3    H278480   2.878   1.861  15.147 -0.4066  0.5346 -0.0865
18997TIP3   OH278481   5.090   0.107  11.072 -0.1199  0.3901  0.4406
18997TIP3    H178482   5.171   0.118  11.022  0.6406  1.2132  1.7926
18997TIP3    H278483   5.079   0.189  11.119 -0.1332 -0.7384  2.5404
18998TIP3   OH278484   2.021   4.725  11.179 -0.4686  0.7324  0.7964
18998TIP3    H178485   1.935   4.754  11.147  0.0112  0.1867 -1.1094
18998TIP3    H278486   2.079   4.798  11.161  0.5426 -0.7682 -3.1297
18999TIP3   OH278487   1.247   5.754   3.782 -0.5141  0.1670 -0.2903
18999TIP3    H178488   1.248   5.670   3.828  0.7974  0.5305  0.4069
18999TIP3    H278489   1.204   5.814   3.844  1.5973  0.7454  0.7074
19000TIP3   OH278490   0.087   0.515  15.709  0.5307 -0.0504 -0.1394
19000TIP3    H178491   0.075   0.602  15.671  1.8025 -0.2489 -1.0519
19000TIP3    H278492   0.181   0.511  15.730  0.2941 -0.8294  0.8533
19001TIP3   OH278493   3.321   2.009  13.088  0.3707  0.3703 -0.1239
19001TIP3    H178494   3.391   2.074  13.089 -0.1235  0.9175  0.8693
19001TIP3    H278495   3.345   1.946  13.156  0.8205 -0.4795 -1.0454
19002TIP3   OH278496   1.971   2.770   1.264 -0.3528 -0.0240  0.0322
19002TIP3    H178497   1.971   2.719   1.184  0.7137  0.9361 -0.6199
19002TIP3    H278498   2.020   2.717   1.327  0.6500  0.1291 -0.6033
19003TIP3   OH278499   4.078   2.072  15.007 -0.0878  0.0202  0.0099
19003TIP3    H178500   4.102   2.143  15.067  0.9444  1.4105 -1.9273
19003TIP3    H278501   4.044   2.117  14.930 -0.4117 -1.6551 -0.8627
19004TIP3   OH278502   1.597   1.054   1.652  0.0384 -0.4504  0.4293
19004TIP3    H178503   1.665   1.035   1.717  0.7947  0.8380  0.0468
19004TIP3    H278504   1.640   1.110   1.588 -1.0749 -0.5874 -0.4692
19005TIP3   OH278505   6.093   5.503   6.478  0.5863  0.2623  0.4805
19005TIP3    H178506   6.106   5.414   6.446 -0.2509  0.1661  0.3651
19005TIP3    H278507   6.001   5.505   6.507 -0.0861  1.6696 -1.5054
19006TIP3   OH278508   5.245   5.307   0.105 -0.3944  0.0208 -0.0573
19006TIP3    H178509   5.243   5.246   0.031 -0.9834 -0.6329  0.4740
19006TIP3    H278510   5.333   5.344   0.104 -0.0270 -0.8393 -0.3981
19007TIP3   OH278511   2.526   4.000   6.071 -0.2378 -0.2524  0.4010
19007TIP3    H178512   2.533   3.931   6.137  0.2506 -0.1022  0.5084
19007TIP3    H278513   2.523   4.081   6.121  1.7474 -0.0188  0.2109
19008TIP3   OH278514   0.760   1.570  17.039 -0.3583  0.4694  0.0960
19008TIP3    H178515   0.746   1.476  17.034 -0.1288  0.4251  0.2631
19008TIP3    H278516   0.672   1.608  17.036 -0.3767  0.3418 -1.6553
19009TIP3   OH278517   6.333   3.740  12.018 -0.4288  0.4607  0.2535
19009TIP3    H178518   6.396   3.670  12.035 -0.0157  0.8492  0.3315
19009TIP3    H278519   6.369   3.816  12.063 -0.1045  1.1148 -1.0378
19010TIP3   OH278520   1.583   0.011  16.897  0.8099 -0.3313 -0.2065
19010TIP3    H178521   1.632   0.045  16.822 -0.5706 -0.1020 -1.0521
19010TIP3    H278522   1.509   0.072  16.906  0.4033 -0.9380  0.7011
19011TIP3   OH278523   1.159   6.253  10.883 -0.4692 -0.5560  0.4059
19011TIP3    H178524   1.074   6.289  10.909 -0.2199 -0.1570  0.6535
19011TIP3    H278525   1.202   6.324  10.835 -0.3748 -0.8424  0.0566
19012TIP3   OH278526   0.606   5.217   3.265  0.3411  0.6086  1.2562
19012TIP3    H178527   0.648   5.163   3.333  1.0850 -1.5076 -0.7558
19012TIP3    H278528   0.651   5.192   3.184 -2.4540  0.8593 -0.4859
19013TIP3   OH278529   3.122   4.421   3.724  0.4149  0.4018  0.3874
19013TIP3    H178530   3.065   4.490   3.757 -0.0192 -0.7813  2.3228
19013TIP3    H278531   3.094   4.407   3.634 -1.1917  1.0353  0.7637
19014TIP3   OH278532   6.783   5.314  16.640 -0.3946  0.0766 -0.8703
19014TIP3    H178533   6.787   5.359  16.724 -0.6476  1.0727 -1.3749
19014TIP3    H278534   6.788   5.221  16.662  0.3332  0.3500  0.1876
19015TIP3   OH278535   2.114   6.164   3.059 -0.4765 -0.0766  0.1052
19015TIP3    H178536   2.143   6.127   2.976 -0.4927 -0.2808  0.1909
19015TIP3    H278537   2.031   6.120   3.078 -0.0287 -0.6891  0.6787
19016TIP3   OH278538   1.318   3.718   4.953  0.1046  0.7540 -0.5279
19016TIP3    H178539   1.360   3.681   4.875 -0.9020 -0.6489 -0.4389
19016TIP3    H278540   1.356   3.668   5.026 -0.6641  0.4474 -0.3313
19017TIP3   OH278541   3.589   6.185  13.048  0.3608 -0.3274 -0.0852
19017TIP3    H178542   3.610   6.094  13.066 -0.8072 -0.5558  0.1650
19017TIP3    H278543   3.494   6.186  13.035  0.5532  0.5653 -1.7659
19018TIP3   OH278544   3.569   4.387   5.234 -0.3818 -0.3282  0.1154
19018TIP3    H178545   3.657   4.426   5.227 -1.0850  1.2402 -0.6147
19018TIP3    H278546   3.546   4.366   5.143 -0.7068 -0.8725  0.3232
19019TIP3   OH278547   3.807   6.502  13.433 -0.5243  0.3486 -0.0368
19019TIP3    H178548   3.747   6.562  13.389 -2.0669 -1.1512 -0.0868
19019TIP3    H278549   3.828   6.436  13.368  2.0859  1.3613 -0.3476
19020TIP3   OH278550   2.407   1.259  13.674  0.5470  0.2594 -0.1651
19020TIP3    H178551   2.407   1.164  13.685  0.7143  0.2771 -0.0011
19020TIP3    H278552   2.493   1.287  13.708  0.4203  0.4890 -0.0295
19021TIP3   OH278553   3.469   5.359  13.136  0.5317 -0.2308  0.2946
19021TIP3    H178554   3.429   5.272  13.134 -0.0590 -0.0850  2.8303
19021TIP3    H278555   3.548   5.348  13.189  2.1454  0.2031 -1.8803
19022TIP3   OH278556   5.079   0.930  14.909  0.3194 -0.6165 -0.2392
19022TIP3    H178557   5.013   0.900  14.971  1.3158 -1.4612  0.4466
19022TIP3    H278558   5.161   0.891  14.940  0.5234 -2.9961 -3.3815
19023TIP3   OH278559   5.022   0.520   4.700 -0.4086 -0.2589 -0.0797
19023TIP3    H178560   5.063   0.445   4.659  0.8065 -1.6303  3.3010
19023TIP3    H278561   5.090   0.588   4.700 -1.2489  0.6887 -2.4179
19024TIP3   OH278562   6.704   0.824   0.654  0.2962  0.1015  0.1111
19024TIP3    H178563   6.772   0.865   0.602  0.1986 -0.8791 -0.8462
19024TIP3    H278564   6.750   0.759   0.708  0.2851  0.4850  0.5947
19025TIP3   OH278565   0.786   0.945   2.624  0.0521 -0.4299  0.3694
19025TIP3    H178566   0.713   0.954   2.563 -1.6718 -0.8652  2.2411
19025TIP3    H278567   0.811   1.035   2.645 -2.6254 -0.0717  2.6084
19026TIP3   OH278568   3.414   6.591  14.394 -0.2971 -0.2023  0.0260
19026TIP3    H178569   3.371   6.607  14.310 -0.7988 -0.0851  0.3013
19026TIP3    H278570   3.352   6.623  14.459 -0.1679 -0.8280  0.4669
19027TIP3   OH278571   1.078   1.104  16.102 -0.0976  0.6102  0.4409
19027TIP3    H178572   1.091   1.161  16.178  0.1877 -1.2835  1.8858
19027TIP3    H278573   0.991   1.126  16.069 -0.4523  1.0998  1.6628
19028TIP3   OH278574   5.851   1.697   4.850 -0.0557  0.5368 -0.2907
19028TIP3    H178575   5.938   1.671   4.818 -0.4243 -0.7754 -0.2866
19028TIP3    H278576   5.868   1.740   4.934  0.5217 -0.5821  0.1819
19029TIP3   OH278577   4.415   0.766   5.786 -0.3248 -0.5079  0.2572
19029TIP3    H178578   4.390   0.700   5.850 -0.6414 -0.4114  0.2398
19029TIP3    H278579   4.351   0.755   5.715  0.1170 -0.7168 -0.1124
19030TIP3   OH278580   5.370   6.462   0.044  0.5689  0.1700  0.0575
19030TIP3    H178581   5.394   6.373   0.017  0.7856  0.4824 -0.8197
19030TIP3    H278582   5.283   6.475   0.006  0.1901  0.0378  0.8804
19031TIP3   OH278583   0.608   0.751  14.797 -0.4761 -0.3882 -0.3989
19031TIP3    H178584   0.519   0.733  14.826 -0.4342  0.7821  0.5631
19031TIP3    H278585   0.662   0.685  14.842 -0.6285  0.2725  0.8133
19032TIP3   OH278586   1.172   6.125   3.230  0.6269 -0.1592 -0.5731
19032TIP3    H178587   1.210   6.053   3.180  2.6761  1.3653 -1.3066
19032TIP3    H278588   1.123   6.176   3.165 -1.5360 -1.2335  0.0872
19033TIP3   OH278589   4.329   2.686   2.956  0.5318 -0.3678  0.4530
19033TIP3    H178590   4.328   2.605   2.906  0.7023  0.7674 -1.4725
19033TIP3    H278591   4.411   2.728   2.931 -1.0223  1.8985 -1.1651
19034TIP3   OH278592   4.204   2.907   1.051 -0.2334  0.3408  0.3289
19034TIP3    H178593   4.261   2.955   1.111 -0.0450  1.7760 -0.9568
19034TIP3    H278594   4.240   2.922   0.964 -0.9506 -1.0636 -0.2548
19035TIP3   OH278595   5.573   0.251  12.682  0.5578 -0.3049 -0.2489
19035TIP3    H178596   5.512   0.229  12.611  0.6704  1.9763 -1.1082
19035TIP3    H278597   5.659   0.254  12.640  0.6335  0.9955 -0.0445
19036TIP3   OH278598   5.448   6.521  14.371  0.1757  0.0847  0.4001
19036TIP3    H178599   5.369   6.468  14.372 -0.6767  1.3160  0.5255
19036TIP3    H278600   5.499   6.488  14.445 -0.4732 -0.3376  0.6716
19037TIP3   OH278601   5.676   1.790  12.684  0.9814 -0.1455 -0.1464
19037TIP3    H178602   5.648   1.765  12.772 -0.1429  0.7336 -0.2307
19037TIP3    H278603   5.740   1.860  12.698  0.0798  0.6676 -0.0419
19038TIP3   OH278604   0.805   0.753   2.983 -0.0410 -0.0697 -0.4516
19038TIP3    H178605   0.789   0.726   2.893  1.2015 -0.4507 -0.5818
19038TIP3    H278606   0.766   0.685   3.037  0.0522 -0.3424 -0.7275
19039TIP3   OH278607   1.841   0.001   0.430 -0.1118  0.4674 -0.2289
19039TIP3    H178608   1.770  -0.026   0.372  1.1117 -0.7770 -1.2188
19039TIP3    H278609   1.852   0.095   0.414  0.0781  0.1819 -1.9184
19040TIP3   OH278610   6.093   0.863  14.814  0.6992  0.2208 -0.8733
19040TIP3    H178611   6.033   0.801  14.772  0.7549 -0.3694 -0.1172
19040TIP3    H278612   6.045   0.893  14.891  1.7319 -1.0420  0.3173
19041TIP3   OH278613   6.490   6.642  15.200  0.2568 -0.4313  0.1068
19041TIP3    H178614   6.540   6.666  15.122  1.0274 -0.0268  0.7099
19041TIP3    H278615   6.401   6.625  15.167 -0.4557  3.3683 -0.3975
19042TIP3   OH278616   4.514   4.699  16.482  0.4873 -0.3115  0.5637
19042TIP3    H178617   4.426   4.734  16.490  0.8089  0.7805 -0.4306
19042TIP3    H278618   4.560   4.730  16.559  0.8393  1.7395 -0.4205
19043TIP3   OH278619   0.194   4.847  14.548  0.0546 -0.3854 -0.3234
19043TIP3    H178620   0.287   4.870  14.559  0.4960 -1.7612 -0.9077
19043TIP3    H278621   0.171   4.879  14.461  0.6541 -1.9771 -1.1162
19044TIP3   OH278622   2.319   5.871   4.657  0.1147  0.0836  0.2643
19044TIP3    H178623   2.270   5.790   4.640  0.1527 -0.1240  1.0913
19044TIP3    H278624   2.253   5.933   4.687  0.1504  0.2431  0.0218
19045TIP3   OH278625   6.646   3.932  12.563 -0.1582  0.2786 -0.5730
19045TIP3    H178626   6.705   3.930  12.639 -1.1482 -0.5212  0.2040
19045TIP3    H278627   6.705   3.933  12.487  0.8489  0.8746  0.1942
19046TIP3   OH278628   2.855   3.780  11.378 -0.2046  0.1118 -0.0378
19046TIP3    H178629   2.944   3.777  11.344  0.1414 -0.9351  0.8884
19046TIP3    H278630   2.810   3.708  11.334 -0.0034 -0.6694  0.9802
19047TIP3   OH278631   1.348   4.375   5.705 -0.1769  0.2381 -0.5252
19047TIP3    H178632   1.271   4.420   5.670 -0.4666  0.5494  0.4942
19047TIP3    H278633   1.407   4.368   5.630  0.6645  3.9345 -0.4030
19048TIP3   OH278634   2.631   5.041   2.593 -0.1115 -0.6425 -0.5655
19048TIP3    H178635   2.693   4.985   2.640  0.3855  0.7299  0.4777
19048TIP3    H278636   2.683   5.083   2.526 -0.8147 -2.5739 -2.4270
19049TIP3   OH278637   0.502   0.456   6.180  0.3943 -0.3905 -0.0596
19049TIP3    H178638   0.488   0.469   6.274 -2.0019  0.1039 -0.4277
19049TIP3    H278639   0.531   0.365   6.173  3.2673  0.3012  1.3319
19050TIP3   OH278640   1.764   4.862  10.637 -0.5995 -0.5764 -0.5558
19050TIP3    H178641   1.829   4.856  10.567  1.1853 -1.9496  1.1113
19050TIP3    H278642   1.788   4.792  10.698 -2.9616 -0.3560  0.7244
19051TIP3   OH278643   6.266   4.166   3.085 -0.1651 -0.1444 -0.1857
19051TIP3    H178644   6.246   4.165   3.178  1.9491  2.2469  0.4035
19051TIP3    H278645   6.339   4.105   3.075 -0.3549 -0.3586 -0.2779
19052TIP3   OH278646   4.296   6.603   3.587  0.9828 -0.1668 -0.3292
19052TIP3    H178647   4.221   6.593   3.646  1.0345  0.2892 -0.1808
19052TIP3    H278648   4.326   6.693   3.602 -0.9003  1.0950 -3.2711
19053TIP3   OH278649   5.711   1.866   5.071 -0.2983 -0.4775  0.4100
19053TIP3    H178650   5.741   1.796   5.129 -0.9448 -2.0067 -1.0176
19053TIP3    H278651   5.647   1.914   5.124  0.0530 -1.0329  1.3826
19054TIP3   OH278652   5.910   5.148   4.395  0.1511 -0.0202 -0.8896
19054TIP3    H178653   5.934   5.236   4.422 -1.8926  0.8914 -1.8387
19054TIP3    H278654   5.853   5.116   4.465 -1.2420  0.4800 -1.7554
19055TIP3   OH278655   3.629   3.922   4.367  0.9441  0.4446  0.0826
19055TIP3    H178656   3.550   3.876   4.396 -0.8277  2.5835 -1.0110
19055TIP3    H278657   3.661   3.869   4.294  0.3260 -0.2796  0.3105
19056TIP3   OH278658   3.757   4.090  15.732 -0.2010  0.2644  0.6398
19056TIP3    H178659   3.797   4.009  15.763 -1.4254 -0.4526  0.4329
19056TIP3    H278660   3.798   4.105  15.647  0.0578 -0.1304  0.6896
19057TIP3   OH278661   2.462   5.063   0.998 -0.1692 -0.3265 -0.0511
19057TIP3    H178662   2.502   5.006   0.932  0.4631 -0.7653  0.6929
19057TIP3    H278663   2.452   5.148   0.953  0.7464 -0.4633 -0.5514
19058TIP3   OH278664   3.806   5.519  11.943 -0.7973 -0.4703  0.1252
19058TIP3    H178665   3.717   5.511  11.909 -0.4154  0.5776 -1.2219
19058TIP3    H278666   3.862   5.504  11.867  0.0990  1.7130  0.2749
19059TIP3   OH278667   2.780   1.403   5.515 -0.4512  0.0933 -0.3111
19059TIP3    H178668   2.753   1.436   5.601 -0.1529  1.4834 -0.7325
19059TIP3    H278669   2.740   1.463   5.452  0.7751  0.1496 -1.0789
19060TIP3   OH278670   1.688   0.781   1.327  0.6426  0.4575  0.3507
19060TIP3    H178671   1.716   0.744   1.243  1.8928  2.2491 -0.0733
19060TIP3    H278672   1.758   0.756   1.388  0.8452  1.0093  0.3488
19061TIP3   OH278673   4.010   3.230   0.804  0.5528 -0.0758 -0.4295
19061TIP3    H178674   3.990   3.194   0.891  0.3577 -0.4192 -0.6162
19061TIP3    H278675   4.105   3.222   0.797  0.4333 -1.3822 -0.8215
19062TIP3   OH278676   4.884   4.127   3.782 -0.0652 -0.3926  0.1802
19062TIP3    H178677   4.957   4.138   3.720  1.0335 -1.2466  1.2693
19062TIP3    H278678   4.833   4.055   3.746 -0.0261 -0.1982 -0.2720
19063TIP3   OH278679   0.173   4.088  13.961  0.1631  0.1386  0.1732
19063TIP3    H178680   0.122   4.082  14.042 -1.3193  1.4189 -0.6064
19063TIP3    H278681   0.180   3.998  13.931 -1.5674 -0.1138  0.3953
19064TIP3   OH278682   3.217   0.540   5.811 -0.0878 -0.6727  0.0962
19064TIP3    H178683   3.125   0.562   5.798  0.1608  0.1540 -0.3177
19064TIP3    H278684   3.216   0.462   5.868 -0.9993 -0.0206  0.9959
19065TIP3   OH278685   6.703   6.527  14.052 -0.2540  0.1469 -0.0800
19065TIP3    H178686   6.671   6.567  13.971 -0.9914 -0.4568 -0.0991
19065TIP3    H278687   6.689   6.433  14.039  1.7912 -0.1870 -0.1870
19066TIP3   OH278688   1.135   3.399   0.930  0.3276  0.7436 -0.3046
19066TIP3    H178689   1.225   3.426   0.948  1.0872 -0.9971 -1.2220
19066TIP3    H278690   1.144   3.316   0.884 -1.7414  1.0555 -1.3752
19067TIP3   OH278691   5.911   5.211  14.592 -0.3191  0.5836  0.3307
19067TIP3    H178692   5.959   5.164  14.523 -0.0985 -0.8620  1.4192
19067TIP3    H278693   5.972   5.278  14.623 -0.1881  0.8272 -0.4357
19068TIP3   OH278694   5.759   5.353  15.884 -0.7080  0.1063 -0.1502
19068TIP3    H178695   5.733   5.445  15.895 -0.6581 -0.0294  1.3556
19068TIP3    H278696   5.839   5.344  15.935  0.5012 -0.2966 -2.0310
19069TIP3   OH278697   2.757   0.971   4.637  0.1440  0.5507  0.6080
19069TIP3    H178698   2.781   0.901   4.577  1.0648 -0.9531  2.6288
19069TIP3    H278699   2.798   1.049   4.600 -0.9052  0.1098 -1.6899
19070TIP3   OH278700   1.983   6.517  14.797  0.1082  0.0215  0.0054
19070TIP3    H178701   2.001   6.482  14.710  1.4329 -0.0845  0.3046
19070TIP3    H278702   2.065   6.559  14.824 -0.6942  1.2318  0.6623
19071TIP3   OH278703   2.045   3.565   2.971 -0.3023 -0.4737 -0.0817
19071TIP3    H178704   2.057   3.570   3.066  1.2761 -0.8802 -0.2286
19071TIP3    H278705   2.061   3.472   2.951 -0.0074 -0.2642 -0.8200
19072TIP3   OH278706   2.074   0.343  16.815  0.3502 -0.5879  0.3083
19072TIP3    H178707   2.028   0.278  16.762  0.0781 -0.0492 -0.1250
19072TIP3    H278708   2.144   0.294  16.858 -0.5834 -1.4098  0.9402
19073TIP3   OH278709   5.905   4.908  12.352 -0.2096  0.6637  0.2090
19073TIP3    H178710   5.967   4.905  12.425 -0.7685  0.5549  0.6969
19073TIP3    H278711   5.895   5.002  12.334  0.4291  0.6629 -0.1738
19074TIP3   OH278712   6.056   5.092  14.096  0.6399 -0.2315 -0.0672
19074TIP3    H178713   6.026   5.132  14.014 -1.4672  0.1296  0.8046
19074TIP3    H278714   6.096   5.009  14.070  1.4969  0.6054 -1.5653
19075TIP3   OH278715   5.838   6.472  15.334 -0.0520  0.6119  0.2833
19075TIP3    H178716   5.911   6.420  15.299 -0.7914  1.1355 -2.1584
19075TIP3    H278717   5.865   6.563  15.321 -0.9489  0.8080 -0.2144
19076TIP3   OH278718   1.182   4.970   5.251 -0.0809 -0.4081 -0.4468
19076TIP3    H178719   1.121   4.970   5.177 -0.1261 -1.2560 -0.4198
19076TIP3    H278720   1.253   5.027   5.223  0.4306 -1.5704 -1.6015
19077TIP3   OH278721   1.655   3.354   2.690  0.1089 -0.1384  0.4445
19077TIP3    H178722   1.578   3.316   2.649  0.1792  0.0893  0.0922
19077TIP3    H278723   1.714   3.372   2.617  0.6998 -0.7651  0.7557
19078TIP3   OH278724   5.990   0.651  16.331  0.0607  0.1685 -0.0410
19078TIP3    H178725   6.020   0.591  16.399  0.4249 -0.7616 -0.9914
19078TIP3    H278726   5.955   0.594  16.263  0.6523  1.0186 -1.0872
19079TIP3   OH278727   5.362   3.437  16.088  0.2588  0.7623 -0.2950
19079TIP3    H178728   5.269   3.426  16.067 -0.1938 -0.3100  2.0010
19079TIP3    H278729   5.376   3.381  16.164  2.4959  1.8955  0.1978
19080TIP3   OH278730   6.009   3.858  12.363 -0.0402 -0.2454  0.2517
19080TIP3    H178731   5.919   3.892  12.365 -0.1218 -0.3490 -0.7534
19080TIP3    H278732   6.037   3.856  12.454  0.3512  3.5031  0.3636
19081TIP3   OH278733   5.421   1.308   4.122  0.3550 -0.2804 -0.5840
19081TIP3    H178734   5.455   1.303   4.212 -0.4737  1.2522 -0.1590
19081TIP3    H278735   5.480   1.367   4.077 -1.2893  1.9633  0.0140
19082TIP3   OH278736   0.713   1.748  12.769  0.2708 -0.3872  0.1684
19082TIP3    H178737   0.731   1.654  12.762 -0.0714 -0.3153 -2.5526
19082TIP3    H278738   0.777   1.789  12.711  0.2429  1.0832  1.1190
19083TIP3   OH278739   5.602   6.097   4.592 -0.1170 -0.5882 -0.5233
19083TIP3    H178740   5.527   6.154   4.581  0.2879  0.3546  1.1739
19083TIP3    H278741   5.573   6.011   4.561 -2.0637 -0.3530  0.5074
19084TIP3   OH278742   6.047   0.983  13.263 -0.7278  0.1990  0.1579
19084TIP3    H178743   5.989   0.912  13.290 -1.0314 -0.1693 -1.4040
19084TIP3    H278744   6.064   0.967  13.171  0.6884  1.1377  0.2236
19085TIP3   OH278745   3.212   0.626   3.256 -0.7030 -0.2161 -0.0673
19085TIP3    H178746   3.137   0.570   3.237  0.8368 -2.2780 -0.4033
19085TIP3    H278747   3.274   0.609   3.186  0.2781  1.1077  0.4254
19086TIP3   OH278748   2.357   1.700  11.621 -0.7239 -0.0247 -0.5371
19086TIP3    H178749   2.271   1.730  11.651 -1.0092  0.8880 -2.1807
19086TIP3    H278750   2.399   1.779  11.586  0.3998 -0.6615 -0.6658
19087TIP3   OH278751   5.416   6.665  16.545 -0.3306  0.1712  0.4539
19087TIP3    H178752   5.485   6.605  16.576  1.1059  2.7861  2.7422
19087TIP3    H278753   5.458   6.714  16.475 -0.7040  0.1475  0.2135
19088TIP3   OH278754   4.799   5.300  10.946 -0.1688  0.2301  0.8944
19088TIP3    H178755   4.864   5.274  11.012  1.1406  0.2441 -0.3553
19088TIP3    H278756   4.843   5.367  10.894 -0.6875 -0.7361 -0.8360
19089TIP3   OH278757   0.814   4.589   3.238  0.4403  0.1463  0.0195
19089TIP3    H178758   0.718   4.592   3.236  0.4588  1.5750 -0.5481
19089TIP3    H278759   0.840   4.618   3.150  1.3846  1.3604  0.6670
19090TIP3   OH278760   2.188   1.191  16.783  0.6813  0.5906  0.4669
19090TIP3    H178761   2.169   1.149  16.698 -0.1592  2.1053 -0.1323
19090TIP3    H278762   2.283   1.184  16.792  0.4850 -2.9568  1.2589
19091TIP3   OH278763   3.411   0.344  12.260  0.1075 -0.1077  0.7222
19091TIP3    H178764   3.469   0.336  12.184  1.0015  0.4811  1.3206
19091TIP3    H278765   3.323   0.329  12.225  0.5273 -0.0932 -0.3788
19092TIP3   OH278766   2.450   5.267  11.143 -0.4257 -0.4604  0.1243
19092TIP3    H178767   2.529   5.215  11.138 -0.1609 -0.2140  1.4038
19092TIP3    H278768   2.379   5.203  11.140 -0.1750 -0.7118 -0.6070
19093TIP3   OH278769   1.809   0.490   1.680  0.5191  0.0190 -0.2163
19093TIP3    H178770   1.836   0.529   1.597  2.1439  1.9945  1.1150
19093TIP3    H278771   1.717   0.467   1.668  0.2108  1.9310 -1.9915
19094TIP3   OH278772   4.915   1.683  14.583 -0.2755  1.1183  0.0688
19094TIP3    H178773   4.867   1.675  14.666  0.8685  0.1158  0.6579
19094TIP3    H278774   4.880   1.612  14.529  1.2801 -0.3748  0.9166
19095TIP3   OH278775   3.212   5.869   3.199 -1.0944 -0.1281  0.4366
19095TIP3    H178776   3.298   5.843   3.165 -0.9504  0.6767  0.1594
19095TIP3    H278777   3.150   5.831   3.136 -0.8223  1.5090 -0.9123
19096TIP3   OH278778   5.541   6.389   4.771 -0.2811  0.1701  0.3491
19096TIP3    H178779   5.514   6.468   4.723  1.8819  0.4495 -0.5172
19096TIP3    H278780   5.513   6.316   4.716  0.3902  0.4424 -0.3711
19097TIP3   OH278781   3.025   5.985   2.399  0.7551 -0.1886 -0.4445
19097TIP3    H178782   3.051   5.895   2.377 -0.1162 -0.4781 -0.3596
19097TIP3    H278783   3.036   6.034   2.318 -2.5451 -1.2584 -1.7190
19098TIP3   OH278784   4.708   2.856   4.732 -0.6203  0.5458 -0.0853
19098TIP3    H178785   4.700   2.951   4.731 -0.2418  0.5925 -1.6695
19098TIP3    H278786   4.638   2.825   4.674 -2.2436 -0.3259  2.2007
19099TIP3   OH278787   2.130   1.384  11.506 -0.0426  0.3222 -0.4028
19099TIP3    H178788   2.043   1.361  11.538 -0.0667  1.7901  0.6569
19099TIP3    H278789   2.186   1.313  11.537 -0.3577  0.8611  1.5590
19100TIP3   OH278790   3.385   5.666   0.152  0.2133  0.3757 -0.4815
19100TIP3    H178791   3.377   5.760   0.165 -1.6898  0.0286  1.3622
19100TIP3    H278792   3.390   5.655   0.057  1.6438  2.3728 -0.6954
19101TIP3   OH278793   4.820   6.083   4.875  0.0819 -0.0030 -0.2284
19101TIP3    H178794   4.857   6.029   4.806  0.4906 -1.2032  0.8942
19101TIP3    H278795   4.888   6.086   4.942 -0.4952  0.7139  0.3448
19102TIP3   OH278796   1.412   2.141   4.925 -0.0508 -0.2079 -0.3362
19102TIP3    H178797   1.339   2.080   4.931  1.0483 -1.6514 -0.9810
19102TIP3    H278798   1.467   2.119   5.001  1.0142 -0.9629 -1.2951
19103TIP3   OH278799   4.641   2.824   5.364  0.5661 -0.2032 -0.3074
19103TIP3    H178800   4.598   2.782   5.438  1.0392  0.3253  0.2743
19103TIP3    H278801   4.586   2.900   5.344 -0.2753 -1.0470 -1.3429
19104TIP3   OH278802   0.493   5.404   3.476 -0.4145  0.1072 -0.2266
19104TIP3    H178803   0.553   5.479   3.472 -0.7826  0.5166  1.3004
19104TIP3    H278804   0.499   5.364   3.389 -0.4226  2.0752 -1.1935
19105TIP3   OH278805   1.915   6.828   1.471 -0.1614  0.5751 -0.2721
19105TIP3    H178806   1.902   6.830   1.566  1.6883  0.7765  0.0113
19105TIP3    H278807   1.955   6.912   1.451 -1.6910  1.0587 -1.4573
19106TIP3   OH278808   3.228   5.037   6.259 -0.1413  0.0257  0.3241
19106TIP3    H178809   3.274   4.988   6.326 -1.4302 -2.2755 -0.3677
19106TIP3    H278810   3.239   4.985   6.179 -1.4617  0.9199 -0.4870
19107TIP3   OH278811   6.721   3.602  10.658  0.3448  0.0849  0.2135
19107TIP3    H178812   6.812   3.620  10.679  0.8774 -1.2638 -0.7837
19107TIP3    H278813   6.717   3.607  10.562 -0.7474  0.6117  0.2741
19108TIP3   OH278814   3.908   6.573   1.432  0.0318  0.7156  0.1143
19108TIP3    H178815   3.886   6.637   1.365  0.9487  0.6929 -0.2112
19108TIP3    H278816   3.989   6.606   1.471 -0.0432  0.2872  0.6351
19109TIP3   OH278817   1.108   0.935   1.044 -0.2385  0.1195  0.0087
19109TIP3    H178818   1.161   0.968   1.116 -1.0077  0.3135  0.5047
19109TIP3    H278819   1.066   0.857   1.079  1.1998 -1.1675 -1.0076
19110TIP3   OH278820   3.193   2.329   1.456 -0.0196  0.2325 -0.1561
19110TIP3    H178821   3.221   2.354   1.544 -0.8813 -1.0158  0.4980
19110TIP3    H278822   3.106   2.370   1.447  0.1500  0.5232 -0.5190
19111TIP3   OH278823   4.334   0.773  12.370  0.2044  0.3502 -1.0121
19111TIP3    H178824   4.392   0.726  12.429  0.3877  0.6569 -0.9462
19111TIP3    H278825   4.391   0.834  12.324 -0.1847  1.1611 -0.4327
19112TIP3   OH278826   0.757   2.823  16.075 -0.3105 -0.8899 -0.2508
19112TIP3    H178827   0.689   2.794  16.136 -0.3527  0.6322  0.4766
19112TIP3    H278828   0.721   2.807  15.988 -1.3217 -0.7098  0.1279
19113TIP3   OH278829   0.952   5.254   2.740 -0.0101  0.0273 -0.5952
19113TIP3    H178830   0.995   5.282   2.820  1.8880  0.6777 -1.7826
19113TIP3    H278831   0.966   5.159   2.737 -0.6777 -0.1064  0.1399
19114TIP3   OH278832   0.878   1.495   4.815  0.1831 -0.1836 -0.6344
19114TIP3    H178833   0.958   1.498   4.763 -0.5547 -1.1345 -1.8673
19114TIP3    H278834   0.886   1.416   4.868 -0.7994 -1.4170 -2.2540
19115TIP3   OH278835   6.668   3.840  11.409  0.0773  0.0923 -0.0427
19115TIP3    H178836   6.676   3.922  11.359 -0.0431  0.0904 -0.0639
19115TIP3    H278837   6.693   3.772  11.347 -0.3894  0.0604 -0.1964
19116TIP3   OH278838   2.855   1.839  10.979 -0.5224  0.0937  0.1581
19116TIP3    H178839   2.863   1.838  10.883  0.2494 -0.4546  0.2179
19116TIP3    H278840   2.760   1.838  10.995 -0.6717  0.9796 -0.5984
19117TIP3   OH278841   6.678   2.693  14.854  0.5043 -0.0572  0.2856
19117TIP3    H178842   6.762   2.662  14.819  0.4500 -0.2390  0.3175
19117TIP3    H278843   6.696   2.708  14.947  0.5227 -0.0195  0.2763
19118TIP3   OH278844   4.012   5.212   4.858 -0.6618  0.2298 -0.1704
19118TIP3    H178845   3.932   5.179   4.816 -0.4826  1.0538 -1.1911
19118TIP3    H278846   3.981   5.262   4.933 -1.0347 -0.5269  0.1871
19119TIP3   OH278847   1.764   4.059  12.190  0.0555  0.1695 -0.3627
19119TIP3    H178848   1.722   3.999  12.128 -2.3098  0.4585  0.8196
19119TIP3    H278849   1.709   4.137  12.188  0.0801  0.3114  1.8097
19120TIP3   OH278850   1.040   5.787   0.554 -0.0655  0.5492  0.1213
19120TIP3    H178851   1.061   5.733   0.478  1.7271  0.0614  0.9040
19120TIP3    H278852   1.074   5.874   0.533 -1.5196  1.0120 -0.4790
19121TIP3   OH278853   5.115   0.716   5.445  0.0923 -0.0095  0.2804
19121TIP3    H178854   5.125   0.643   5.384 -0.0739 -1.0672  1.4876
19121TIP3    H278855   5.189   0.708   5.505  0.7413  1.5318 -0.2540
19122TIP3   OH278856   3.632   0.751  11.911  0.1717  0.1504 -0.2578
19122TIP3    H178857   3.726   0.736  11.920  0.3852  0.9309 -0.9508
19122TIP3    H278858   3.615   0.739  11.817 -0.2617  0.7695 -0.2694
19123TIP3   OH278859   3.044   5.861   6.319  0.1122  0.1152  0.6644
19123TIP3    H178860   3.076   5.901   6.238  1.2849 -4.3867 -1.4329
19123TIP3    H278861   2.948   5.863   6.309  0.1837  1.1780  0.0252
19124TIP3   OH278862   2.782   4.366   1.325 -0.4935 -0.4113  0.2518
19124TIP3    H178863   2.693   4.354   1.356 -1.0729  0.8959 -0.7746
19124TIP3    H278864   2.772   4.410   1.240  1.1419  2.3845  1.3534
19125TIP3   OH278865   1.088   0.058   0.254  0.1056 -0.2992  0.6419
19125TIP3    H178866   1.169   0.017   0.283 -0.1845 -3.1499 -2.0157
19125TIP3    H278867   1.065   0.012   0.173 -4.4780 -0.1237  1.5380
19126TIP3   OH278868   0.978   1.833  12.367 -0.2930  0.0696  0.0139
19126TIP3    H178869   0.920   1.785  12.308  2.1036  0.5815 -3.0382
19126TIP3    H278870   0.962   1.925  12.347 -0.3751  0.3114  1.1630
19127TIP3   OH278871   4.173   5.610   5.382 -0.5120  0.5973 -0.2761
19127TIP3    H178872   4.198   5.590   5.292 -0.9861  0.3643 -0.3627
19127TIP3    H278873   4.245   5.663   5.416  1.6433 -2.5279  0.4600
19128TIP3   OH278874   2.149   4.235   4.516  0.5071  0.7900  0.8724
19128TIP3    H178875   2.072   4.178   4.519  0.1183  1.2728  0.3993
19128TIP3    H278876   2.114   4.320   4.488  1.5861  0.2963 -2.5304
19129TIP3   OH278877   6.533   2.984  11.198 -0.2092 -0.2670 -0.5766
19129TIP3    H178878   6.517   2.978  11.292 -2.7841 -2.0765 -1.0096
19129TIP3    H278879   6.450   2.955  11.158  1.5326 -1.8517 -3.3693
19130TIP3   OH278880   3.129   3.361  14.562 -0.3822 -0.3131 -0.3248
19130TIP3    H178881   3.141   3.405  14.478 -0.7467 -0.5820 -0.5218
19130TIP3    H278882   3.187   3.285  14.558 -0.9806 -0.7606 -0.6549
19131TIP3   OH278883   1.864   0.272   0.364 -0.8690  0.6297 -0.0593
19131TIP3    H178884   1.796   0.288   0.298 -0.7723  1.5268  0.0487
19131TIP3    H278885   1.868   0.354   0.414  1.1083  1.0370 -0.8059
19132TIP3   OH278886   2.737   0.085  15.994 -0.3185  0.2010 -0.1018
19132TIP3    H178887   2.743  -0.004  15.959  0.5978  0.2918 -0.1801
19132TIP3    H278888   2.670   0.127  15.940  0.9009  0.2649 -1.6300
19133TIP3   OH278889   5.911   5.331  15.639 -0.0811 -0.3296 -0.3274
19133TIP3    H178890   5.841   5.329  15.703 -0.5837 -0.5955 -0.8823
19133TIP3    H278891   5.961   5.251  15.655 -1.2860 -1.3475 -1.4553
19134TIP3   OH278892   0.141   2.647  13.312  0.2438  0.0256 -0.2010
19134TIP3    H178893   0.224   2.666  13.355 -0.0411 -0.1351  0.4374
19134TIP3    H278894   0.159   2.572  13.256  0.6478  0.3096 -0.4563
19135TIP3   OH278895   4.572   1.809  14.605  0.4681 -0.0182  0.1120
19135TIP3    H178896   4.597   1.781  14.517 -0.5659 -1.0851  0.1308
19135TIP3    H278897   4.525   1.891  14.592  0.5341 -0.0460 -0.3122
19136TIP3   OH278898   6.768   6.748   5.804 -0.2887  0.0475 -0.2562
19136TIP3    H178899   6.727   6.789   5.880 -0.1969  1.7628 -1.0922
19136TIP3    H278900   6.715   6.670   5.788 -0.0796 -0.5717  1.7645
19137TIP3   OH278901   1.735   0.256  12.783  0.2818 -0.7555 -0.6025
19137TIP3    H178902   1.659   0.264  12.726  0.2062 -1.3410 -0.5854
19137TIP3    H278903   1.809   0.246  12.722  0.6247  1.7442 -0.6910
19138TIP3   OH278904   2.876   5.710  14.510  0.2736 -0.4338 -0.2963
19138TIP3    H178905   2.826   5.631  14.530  1.6655 -1.3666 -0.3409
19138TIP3    H278906   2.968   5.681  14.510  0.7392  0.9125 -1.5686
19139TIP3   OH278907   3.247   4.162   2.405  0.0511  0.1361 -0.3531
19139TIP3    H178908   3.236   4.232   2.469 -0.2182 -2.0679  2.1900
19139TIP3    H278909   3.340   4.163   2.384 -0.1456  1.9545 -1.2843
19140TIP3   OH278910   6.190   1.415  15.616  0.0127 -0.3723  0.1623
19140TIP3    H178911   6.221   1.371  15.694  0.5969 -1.2061 -0.5206
19140TIP3    H278912   6.259   1.477  15.593  0.2978 -0.8304 -0.2420
19141TIP3   OH278913   0.716   2.265   1.876  0.2520 -0.0523  0.2257
19141TIP3    H178914   0.753   2.177   1.871  1.1643  0.2603  1.0506
19141TIP3    H278915   0.741   2.296   1.964  0.5358  1.2785 -0.3008
19142TIP3   OH278916   4.873   4.468  11.989  0.0274 -0.7098  0.1686
19142TIP3    H178917   4.858   4.540  12.050 -1.4434  0.2803 -1.2947
19142TIP3    H278918   4.821   4.489  11.912  1.7925 -1.9008 -1.4756
19143TIP3   OH278919   1.379   3.281  16.802  0.3912  0.2172 -0.1759
19143TIP3    H178920   1.437   3.253  16.731  0.0895  0.8768 -0.6955
19143TIP3    H278921   1.353   3.370  16.778 -0.0098  0.3156  0.5816
19144TIP3   OH278922   3.698   5.273  12.419  0.1899 -0.1660 -0.0925
19144TIP3    H178923   3.654   5.357  12.429  0.3073 -0.0930 -0.1836
19144TIP3    H278924   3.644   5.224  12.358  0.3151 -0.0202 -0.3210
19145TIP3   OH278925   2.715   3.187  16.002 -0.1653  0.3000 -0.0239
19145TIP3    H178926   2.681   3.169  15.914 -0.4173  0.4839  0.0340
19145TIP3    H278927   2.638   3.213  16.052  0.0831  0.8687  0.0728
19146TIP3   OH278928   6.663   5.502  13.234  0.0824  0.0218  0.1674
19146TIP3    H178929   6.595   5.554  13.277 -0.4616 -0.8657  0.4273
19146TIP3    H278930   6.635   5.497  13.142  0.2901  0.4242  0.0814
19147TIP3   OH278931   3.676   5.663   0.229 -0.0416 -0.0473  0.0743
19147TIP3    H178932   3.701   5.672   0.321  0.3991  0.3164 -0.0748
19147TIP3    H278933   3.588   5.699   0.224  0.0320  0.1636  0.3029
19148TIP3   OH278934   4.781   6.692  10.432  0.6395  0.7241  0.4106
19148TIP3    H178935   4.812   6.606  10.405 -1.1482  0.3755 -0.6968
19148TIP3    H278936   4.718   6.675  10.502 -0.3881  1.0337 -0.4148
19149TIP3   OH278937   5.262   1.048   2.854 -0.4409  0.8919 -0.3881
19149TIP3    H178938   5.220   0.965   2.873  3.4232 -0.9484  1.1145
19149TIP3    H278939   5.275   1.048   2.759 -1.3998  0.3054 -0.5238
19150TIP3   OH278940   1.972   4.175   3.017  0.0770 -0.4335  0.2294
19150TIP3    H178941   1.935   4.210   2.936 -0.3803  0.4025  0.7815
19150TIP3    H278942   1.942   4.085   3.021  0.7009 -0.6994 -0.8879
19151TIP3   OH278943   3.485   5.972   3.033 -0.6871  0.0888 -0.3772
19151TIP3    H178944   3.487   6.067   3.021 -2.0937  0.3035  0.8306
19151TIP3    H278945   3.551   5.955   3.100 -0.4070  0.2105 -0.6220
19152TIP3   OH278946   3.859   1.421   3.129  0.1246  0.1754 -0.3427
19152TIP3    H178947   3.863   1.447   3.036 -3.9727  2.2739 -0.1875
19152TIP3    H278948   3.776   1.373   3.136 -0.0879  0.7989  2.3306
19153TIP3   OH278949   4.285   5.118  13.086 -0.5282 -0.3287 -0.0379
19153TIP3    H178950   4.376   5.133  13.059  0.0251 -0.5216  1.6257
19153TIP3    H278951   4.248   5.205  13.092  0.3025 -0.0541  1.6845
19154TIP3   OH278952   3.942   5.964  15.519 -0.1039  0.1834  0.2167
19154TIP3    H178953   4.000   5.997  15.588 -0.4333  0.7526  0.2263
19154TIP3    H278954   3.855   5.961  15.560 -0.4687  1.3705 -0.4238
19155TIP3   OH278955   2.460   2.810  13.628  0.2143 -0.4097 -0.0069
19155TIP3    H178956   2.518   2.820  13.704 -0.2913  1.9714  0.1357
19155TIP3    H278957   2.374   2.792  13.666  0.1357 -0.1255 -0.0478
19156TIP3   OH278958   4.410   6.045  12.088 -0.2000 -0.7479  0.3614
19156TIP3    H178959   4.351   6.039  12.013  0.6013  1.3736 -0.5226
19156TIP3    H278960   4.363   6.101  12.150  0.6268  0.5718 -0.1565
19157TIP3   OH278961   1.973   5.165  16.470  0.2159  0.1781 -0.2599
19157TIP3    H178962   2.028   5.110  16.525  0.1015 -1.0451 -1.3273
19157TIP3    H278963   2.031   5.236  16.442  0.7591 -0.1509  0.0158
19158TIP3   OH278964   3.887   5.734  13.605 -0.2500 -0.0571  0.1317
19158TIP3    H178965   3.947   5.677  13.652 -1.3724 -1.9954 -0.6367
19158TIP3    H278966   3.831   5.771  13.673 -0.6944 -1.3843  0.5242
19159TIP3   OH278967   5.291   6.768  14.047 -0.4422  0.2931 -0.6075
19159TIP3    H178968   5.197   6.752  14.043 -0.7087  1.0159  1.3899
19159TIP3    H278969   5.302   6.857  14.013 -0.6497  0.5867  0.0564
19160TIP3   OH278970   3.043   3.506   5.960 -0.4535  0.1067  0.2169
19160TIP3    H178971   3.021   3.599   5.960 -0.3744  0.1878 -2.4682
19160TIP3    H278972   2.965   3.462   5.927 -0.0666 -0.6544  0.2895
19161TIP3   OH278973   2.481   5.272   5.732  0.0151  0.0845  0.3084
19161TIP3    H178974   2.416   5.327   5.776  1.9420  1.5204  1.4911
19161TIP3    H278975   2.525   5.226   5.803 -0.3852 -1.7358 -0.5566
19162TIP3   OH278976   0.201   6.284  14.536  0.8391 -0.5772 -0.0769
19162TIP3    H178977   0.223   6.200  14.576  1.7270 -0.7493 -0.8835
19162TIP3    H278978   0.258   6.348  14.580 -0.7567 -0.1576  1.4548
19163TIP3   OH278979   1.098   2.994  15.450  0.0745  0.1556  0.0922
19163TIP3    H178980   1.132   3.083  15.448 -1.4586  0.7651 -1.1744
19163TIP3    H278981   1.131   2.957  15.531  1.0764  1.7399  0.4424
19164TIP3   OH278982   0.714   4.172  12.885 -0.4609  0.4864  0.5404
19164TIP3    H178983   0.644   4.158  12.950 -1.5629  2.4524 -0.1357
19164TIP3    H278984   0.702   4.263  12.857  0.4495 -0.0741 -1.8741
19165TIP3   OH278985   2.041   1.394  14.512  0.0189  0.0142  0.3548
19165TIP3    H178986   2.079   1.335  14.577 -0.9670  0.0013  0.9464
19165TIP3    H278987   1.972   1.440  14.559 -1.9642 -1.3133 -1.0889
19166TIP3   OH278988   2.522   4.686   1.285 -0.4409 -0.1862 -0.1750
19166TIP3    H178989   2.528   4.615   1.222  0.0987  0.9274 -1.4328
19166TIP3    H278990   2.606   4.731   1.279 -1.4019  1.6554 -0.7996
19167TIP3   OH278991   2.577   5.695  13.850  0.0015 -0.0052 -0.0935
19167TIP3    H178992   2.615   5.622  13.801 -0.4616 -0.4728  0.2234
19167TIP3    H278993   2.501   5.722  13.798  1.2799  1.5762 -1.2400
19168TIP3   OH278994   4.811   1.372  16.275  0.0322  0.1796  0.1447
19168TIP3    H178995   4.791   1.461  16.304 -1.3856  0.2395 -0.8958
19168TIP3    H278996   4.730   1.342  16.233  1.4938 -0.3399 -2.5639
19169TIP3   OH278997   2.416   4.531  11.818  0.5473  0.8353  0.0308
19169TIP3    H178998   2.465   4.502  11.740 -0.2224  2.7010 -1.2413
19169TIP3    H278999   2.485   4.555  11.880  1.2373  1.0234 -0.7687
19170TIP3   OH279000   3.299   0.966   3.030  0.2950 -0.1863  0.5558
19170TIP3    H179001   3.286   0.874   3.052  0.9619 -1.0324 -2.1311
19170TIP3    H279002   3.393   0.973   3.012  0.1029  0.7637 -0.2039
19171TIP3   OH279003   1.888   0.569  11.818 -0.0271  0.2687  0.0190
19171TIP3    H179004   1.905   0.482  11.856  1.7829 -0.1777 -1.6622
19171TIP3    H279005   1.868   0.624  11.894 -1.8166 -1.6924  1.0929
19172TIP3   OH279006   4.569   0.400   2.249  0.1437 -0.1715  0.1133
19172TIP3    H179007   4.576   0.492   2.274  0.3082 -0.4531  1.1652
19172TIP3    H279008   4.656   0.378   2.217 -0.4678  0.6039 -2.3167
19173TIP3   OH279009   2.748   5.766  15.597 -0.3145 -0.2991 -0.2473
19173TIP3    H179010   2.722   5.792  15.509  0.5595  3.4525  0.4349
19173TIP3    H279011   2.666   5.743  15.640 -1.1187  0.4925 -1.2851
19174TIP3   OH279012   3.606   4.436   0.846 -0.1883  0.1516 -0.8880
19174TIP3    H179013   3.698   4.444   0.822 -0.0305 -0.7654 -0.6361
19174TIP3    H279014   3.599   4.481   0.930  0.2987 -0.7852 -0.3291
19175TIP3   OH279015   3.954   1.360   1.279 -0.0066  0.1449  0.1554
19175TIP3    H179016   4.039   1.333   1.245  0.2100  2.1835 -1.0562
19175TIP3    H279017   3.903   1.383   1.201 -1.3424 -0.1172  0.9203
19176TIP3   OH279018   2.251   5.102  14.638 -0.4200 -0.5623  0.5090
19176TIP3    H179019   2.223   5.194  14.642 -0.3474 -0.5107 -0.0691
19176TIP3    H279020   2.173   5.055  14.609  0.4890 -0.1855 -2.9054
19177TIP3   OH279021   4.978   6.177   4.210 -0.3482  0.1071 -0.2981
19177TIP3    H179022   4.995   6.162   4.117 -0.8959 -1.1115 -0.2273
19177TIP3    H279023   4.917   6.107   4.234 -0.9712  0.9894  0.7503
19178TIP3   OH279024   5.358   6.102  13.749  0.5363  0.4481 -0.1141
19178TIP3    H179025   5.349   6.197  13.738 -0.6483  0.5390  1.2538
19178TIP3    H279026   5.304   6.065  13.679  0.4768  0.8026 -0.2562
19179TIP3   OH279027   2.783   4.440   5.135  1.0608  0.3844  0.1065
19179TIP3    H179028   2.744   4.353   5.150  1.0843 -0.1282 -2.4363
19179TIP3    H279029   2.710   4.501   5.144  0.3859 -0.2212 -1.0181
19180TIP3   OH279030   3.283   6.225   2.506 -0.4524 -0.3399  0.1633
19180TIP3    H179031   3.236   6.306   2.529 -2.1073 -1.3287  0.3775
19180TIP3    H279032   3.267   6.166   2.580  2.4477 -0.2563  1.0041
19181TIP3   OH279033   6.357   6.753  16.972  0.1166 -0.1572  0.6535
19181TIP3    H179034   6.307   6.834  16.959 -0.1102 -0.1245  1.6769
19181TIP3    H279035   6.291   6.687  16.991  0.3127 -0.5710 -0.0414
19182TIP3   OH279036   5.762   4.571   3.433 -0.1509  0.6462 -0.0377
19182TIP3    H179037   5.701   4.635   3.395 -0.2785  0.0869 -0.8031
19182TIP3    H279038   5.733   4.487   3.398  0.1684  0.1928  0.7648
19183TIP3   OH279039   3.168   3.035  16.776 -0.6414  0.5949 -0.2645
19183TIP3    H179040   3.172   3.002  16.686  0.9824 -0.0343  0.0077
19183TIP3    H279041   3.223   3.114  16.774  1.3903 -0.7206  0.6529
19184TIP3   OH279042   0.053   2.238   0.863  0.1942 -0.0046  0.0704
19184TIP3    H179043   0.066   2.327   0.829  2.2901 -0.3521 -0.1581
19184TIP3    H279044   0.121   2.228   0.930 -1.0304 -0.8984  1.2316
19185TIP3   OH279045   0.752   4.598  16.254  0.3022  0.0357 -0.5729
19185TIP3    H179046   0.707   4.565  16.332 -0.2665  0.4045 -0.7437
19185TIP3    H279047   0.813   4.663  16.287 -1.1250  1.4316 -0.5752
19186TIP3   OH279048   0.126   0.353  12.879 -0.2350  0.0680 -0.3338
19186TIP3    H179049   0.182   0.424  12.847  1.1182 -0.7504  0.1230
19186TIP3    H279050   0.142   0.351  12.973 -1.8225  0.4492 -0.0256
19187TIP3   OH279051   1.495   1.400   6.007 -0.6992  0.4457  0.1001
19187TIP3    H179052   1.533   1.486   6.024 -1.6448  1.4025 -2.2528
19187TIP3    H279053   1.412   1.401   6.054 -0.0425  0.1884  1.3181
19188TIP3   OH279054   0.040   5.550   3.470  0.2597  0.0397  0.0492
19188TIP3    H179055   0.059   5.620   3.533 -1.1378 -0.5854  1.2212
19188TIP3    H279056  -0.029   5.499   3.511  0.8916 -1.7556 -1.0008
19189TIP3   OH279057   5.312   0.170  11.881  0.7000 -0.2140  0.0984
19189TIP3    H179058   5.377   0.238  11.860  0.5480 -0.0433  0.1850
19189TIP3    H279059   5.341   0.135  11.965  0.9449 -0.4578 -0.0867
19190TIP3   OH279060   0.399   5.224  11.440 -0.1550 -0.2934 -0.3602
19190TIP3    H179061   0.403   5.248  11.348 -2.3131 -0.4066 -0.5274
19190TIP3    H279062   0.366   5.302  11.485 -0.3105 -0.6276  0.1215
19191TIP3   OH279063   4.075   4.717   4.508 -0.3933 -0.1049 -0.3226
19191TIP3    H179064   4.092   4.787   4.571 -1.9073 -0.7971  0.9153
19191TIP3    H279065   4.011   4.755   4.448 -0.4672 -0.1107 -0.2474
19192TIP3   OH279066   5.974   4.128  17.076  0.2776  0.0788  0.1548
19192TIP3    H179067   5.950   4.036  17.060  1.1614 -0.1794  0.2848
19192TIP3    H279068   5.937   4.175  17.000 -1.3114 -0.1706  0.7289
19193TIP3   OH279069   3.274   2.336   3.269 -0.5282 -0.3817 -0.0702
19193TIP3    H179070   3.245   2.326   3.179  0.6768  0.5476 -0.5939
19193TIP3    H279071   3.316   2.253   3.290  0.6183 -0.0630 -0.9532
19194TIP3   OH279072   1.075   0.147   3.964  0.3012 -0.2086 -0.6021
19194TIP3    H179073   1.133   0.145   4.040  1.6458  0.3986 -1.5756
19194TIP3    H279074   1.051   0.239   3.954 -0.6567 -0.4263 -0.3379
19195TIP3   OH279075   3.486   0.897   1.563  0.3205  0.1417 -0.1372
19195TIP3    H179076   3.469   0.991   1.553 -1.1642 -0.2567 -1.7458
19195TIP3    H279077   3.459   0.877   1.652 -1.4424  0.8483 -0.4738
19196TIP3   OH279078   1.022   5.637  14.356 -0.0811 -0.3175  0.4067
19196TIP3    H179079   1.090   5.679  14.408  0.4816  0.2716 -0.7579
19196TIP3    H279080   0.940   5.676  14.387  0.3049  0.5326  0.3758
19197TIP3   OH279081   6.394   0.192   3.140  0.4093  0.3095  0.1672
19197TIP3    H179082   6.442   0.138   3.204  1.3550 -0.4296 -1.1186
19197TIP3    H279083   6.307   0.152   3.136  0.5007  0.0552  0.6228
19198TIP3   OH279084   4.281   6.705  12.329 -0.0419  0.2310 -0.2433
19198TIP3    H179085   4.305   6.774  12.266  1.7693  0.3399  0.5209
19198TIP3    H279086   4.187   6.692  12.315 -0.0608  1.5870 -1.6491
19199TIP3   OH279087   4.431   3.507   4.441  0.3763  0.2390 -0.1202
19199TIP3    H179088   4.418   3.476   4.530 -1.4084 -1.1824 -0.8023
19199TIP3    H279089   4.423   3.428   4.387 -1.2404  1.4034 -1.7182
19200TIP3   OH279090   5.089   2.443   3.848  0.0632 -0.1218  0.1746
19200TIP3    H179091   5.053   2.399   3.924 -1.3326  1.2121  0.3366
19200TIP3    H279092   5.085   2.378   3.777 -1.8782 -0.3095  0.4086
19201TIP3   OH279093   5.236   0.007   1.512  0.4434  0.0763 -0.2799
19201TIP3    H179094   5.163  -0.046   1.479 -0.0217  1.0265 -0.8267
19201TIP3    H279095   5.283   0.036   1.434  1.6384 -0.8170  0.0824
19202TIP3   OH279096   4.615   0.873   4.116 -0.9310  0.1085 -0.0085
19202TIP3    H179097   4.580   0.784   4.127 -1.6996  0.4945  0.8990
19202TIP3    H279098   4.557   0.928   4.169  0.3908  0.9553  0.6174
19203TIP3   OH279099   4.973   0.531   5.239  0.2254 -0.0943 -0.0182
19203TIP3    H179100   4.916   0.578   5.177  0.0577  2.0606  1.6664
19203TIP3    H279101   5.010   0.460   5.187 -0.5504  1.1070 -2.3745
19204TIP3   OH279102   1.274   5.171  16.591 -0.3196 -0.7469 -0.8988
19204TIP3    H179103   1.312   5.222  16.663 -2.4098  0.8000 -0.7974
19204TIP3    H279104   1.281   5.080  16.620 -1.3080 -0.1740  1.4341
19205TIP3   OH279105   4.888   5.281   0.331 -0.3698 -0.2174 -0.0887
19205TIP3    H179106   4.978   5.249   0.323  0.1951  1.6164 -2.0612
19205TIP3    H279107   4.893   5.348   0.399 -0.3013 -0.2555 -0.0558
19206TIP3   OH279108   4.807   3.547  13.857 -0.0388  0.1429  0.1141
19206TIP3    H179109   4.718   3.540  13.892 -0.0533  2.4858  0.7029
19206TIP3    H279110   4.825   3.460  13.821 -4.0766  0.5712 -3.7769
19207TIP3   OH279111   3.090   5.168   0.603 -0.1755  0.0185  0.4601
19207TIP3    H179112   3.049   5.198   0.522 -0.3052  0.3031  0.6288
19207TIP3    H279113   3.091   5.073   0.596  0.8300  0.0707 -0.3734
19208TIP3   OH279114   4.202   3.570   1.354 -0.0302  0.1870 -0.5268
19208TIP3    H179115   4.259   3.496   1.372 -0.7729 -0.6037 -1.3511
19208TIP3    H279116   4.252   3.646   1.383  0.2577 -0.7098  1.5259
19209TIP3   OH279117   4.704   6.073   3.201 -0.0091  0.0174 -0.3997
19209TIP3    H179118   4.730   6.164   3.219  1.6304 -0.2823 -1.0933
19209TIP3    H279119   4.767   6.020   3.249 -0.3090 -0.7558 -0.8437
19210TIP3   OH279120   3.703   4.932   4.513 -0.5999 -0.2112  0.4367
19210TIP3    H179121   3.735   4.916   4.601  1.6239 -1.3311 -0.5008
19210TIP3    H279122   3.715   4.848   4.467  1.2792  1.1337 -1.7520
19211TIP3   OH279123   5.077   1.777   1.339  0.2378 -0.4809  0.1526
19211TIP3    H179124   5.074   1.802   1.246 -3.3550 -0.0119  0.2520
19211TIP3    H279125   5.095   1.859   1.385  1.1234 -0.5442 -0.0697
19212TIP3   OH279126   4.205   5.724   4.075 -0.1934 -0.4814  0.4242
19212TIP3    H179127   4.139   5.758   4.135  1.0630 -2.5408  3.1781
19212TIP3    H279128   4.266   5.796   4.062 -1.8412  0.8051 -0.5431
19213TIP3   OH279129   2.526   6.615   3.106 -0.2549  0.3927  0.1284
19213TIP3    H179130   2.590   6.551   3.137 -0.1777  0.0387 -0.7314
19213TIP3    H279131   2.445   6.565   3.098 -0.9303  1.0449  2.1365
19214TIP3   OH279132   3.576   3.574   5.176 -0.1427 -0.5279  0.2893
19214TIP3    H179133   3.598   3.508   5.242 -2.0968 -0.8914  0.6387
19214TIP3    H279134   3.492   3.547   5.141 -0.7915  1.5127  0.1081
19215TIP3   OH279135   5.186   6.167  16.877  0.1700 -0.0954  0.0003
19215TIP3    H179136   5.146   6.178  16.963 -0.3602 -0.4212 -0.2000
19215TIP3    H279137   5.124   6.206  16.816  1.2409  1.5362 -0.1058
19216TIP3   OH279138   5.492   2.386  11.316 -0.2000 -0.3877  0.1583
19216TIP3    H179139   5.401   2.377  11.286  0.2122 -1.9588 -0.7163
19216TIP3    H279140   5.496   2.336  11.397 -0.5501  1.3103  1.2842
19217TIP3   OH279141   3.489   1.370  16.554  0.2556  0.1610  0.3301
19217TIP3    H179142   3.475   1.382  16.648 -0.0264  0.6526  0.2262
19217TIP3    H279143   3.559   1.433  16.533  1.3035 -0.9099  0.4703
19218TIP3   OH279144   6.420   1.540  15.539  0.3573  0.1086  0.2729
19218TIP3    H179145   6.445   1.591  15.462 -0.2433  1.7886  1.1569
19218TIP3    H279146   6.417   1.603  15.611  2.5682 -1.6567  2.1002
19219TIP3   OH279147   3.861   6.253  15.199 -0.9768  0.3926 -0.3703
19219TIP3    H179148   3.856   6.344  15.169 -1.9684  0.8211  0.9759
19219TIP3    H279149   3.883   6.261  15.292  0.3359 -0.8141 -0.5551
19220TIP3   OH279150   4.167   3.240  13.617  0.1344  0.6798  0.2229
19220TIP3    H179151   4.198   3.279  13.698 -1.9402 -1.6702  2.3232
19220TIP3    H279152   4.217   3.159  13.609 -1.8856 -0.7397  1.0580
19221TIP3   OH279153   5.718   2.629  13.665 -0.2031 -0.3039 -0.1659
19221TIP3    H179154   5.641   2.675  13.697  0.4111 -0.6857  1.9713
19221TIP3    H279155   5.791   2.689  13.680  0.2509 -0.9348  0.1947
19222TIP3   OH279156   3.891   0.969   4.566  0.8371  0.2006 -0.6751
19222TIP3    H179157   3.864   0.934   4.650  2.5512 -0.5857 -0.4026
19222TIP3    H279158   3.810   0.996   4.523 -0.2434 -1.1864  0.4217
19223TIP3   OH279159   3.173   0.613   5.260  0.1907 -0.1659  0.4949
19223TIP3    H179160   3.156   0.609   5.166 -2.4031  0.2232  0.8501
19223TIP3    H279161   3.140   0.529   5.293  2.4252 -0.9246  0.9378
19224TIP3   OH279162   1.672   5.916  11.242  0.3405  0.2033  0.0374
19224TIP3    H179163   1.706   5.826  11.236  0.4598  0.2205  0.4182
19224TIP3    H279164   1.723   5.965  11.178  0.0518 -0.0643 -0.4086
19225TIP3   OH279165   3.569   6.551  11.343 -0.2666 -0.4861 -0.2620
19225TIP3    H179166   3.606   6.496  11.412 -0.0883 -0.0519 -0.0052
19225TIP3    H279167   3.548   6.633  11.386  0.8669  0.1884 -0.9402
19226TIP3   OH279168   6.363   2.043  14.883  0.4310  0.0558 -0.5037
19226TIP3    H179169   6.357   2.047  14.787  1.7881  1.3250 -0.5711
19226TIP3    H279170   6.448   2.002  14.900 -0.3460 -1.3640  0.2059
19227TIP3   OH279171   5.889   4.488   4.738  0.6724 -0.3191  0.2227
19227TIP3    H179172   5.866   4.448   4.654  2.1522  0.9099 -0.8292
19227TIP3    H279173   5.980   4.462   4.752  0.8683  0.6087  0.7574
19228TIP3   OH279174   3.875   3.217  15.048 -0.1528 -0.0773 -0.0383
19228TIP3    H179175   3.967   3.229  15.071  0.3479  0.3396 -2.0618
19228TIP3    H279176   3.831   3.203  15.132  1.6348  0.4094  1.0375
19229TIP3   OH279177   6.767   4.022   5.229  0.3580  0.6475  0.4446
19229TIP3    H179178   6.845   3.967   5.226 -0.0275  0.1176 -0.8587
19229TIP3    H279179   6.707   3.981   5.167 -0.5169  1.6997  0.5608
19230TIP3   OH279180   4.830   0.317   1.906 -0.3533  0.1442 -0.0987
19230TIP3    H179181   4.867   0.236   1.871  0.5166  0.9321 -1.0315
19230TIP3    H279182   4.820   0.299   2.000 -0.3462 -1.0941 -0.3131
19231TIP3   OH279183   1.378   6.710   0.775 -0.5366 -0.2955  0.2282
19231TIP3    H179184   1.444   6.765   0.817 -0.8923  0.1199  0.2523
19231TIP3    H279185   1.295   6.750   0.799 -0.8145 -0.9795  0.4284
19232TIP3   OH279186   6.493   4.603   2.619 -0.4870 -0.0464  0.3446
19232TIP3    H179187   6.555   4.674   2.600  0.3247 -1.2367 -1.9273
19232TIP3    H279188   6.415   4.626   2.568  0.3886 -1.5068 -1.8034
19233TIP3   OH279189   2.611   0.117  13.578 -0.0451 -0.1318  0.1524
19233TIP3    H179190   2.655   0.202  13.588 -0.5183  0.2476 -0.7916
19233TIP3    H279191   2.525   0.139  13.541 -1.0020 -0.8677  1.8404
19234TIP3   OH279192   0.327   4.733   2.838  0.4045  0.1827 -0.3529
19234TIP3    H179193   0.392   4.735   2.908  0.0086  0.3133  0.0158
19234TIP3    H279194   0.372   4.691   2.765  0.0370 -2.4306  0.7779
19235TIP3   OH279195   0.601   6.742   3.953  0.2193 -0.3654 -0.1882
19235TIP3    H179196   0.682   6.784   3.982  0.7414 -0.8389 -0.9157
19235TIP3    H279197   0.620   6.712   3.864 -1.0459  0.2610 -0.6830
19236TIP3   OH279198   5.073   1.246   2.904 -0.3291 -0.0893  0.5079
19236TIP3    H179199   5.087   1.310   2.834 -0.0065  1.6748  2.1007
19236TIP3    H279200   5.139   1.178   2.888 -0.7127 -0.0968 -1.2520
19237TIP3   OH279201   6.249   0.140  14.005  0.2241 -0.7550  0.0880
19237TIP3    H179202   6.309   0.189  13.948 -0.9947 -0.0770 -0.6600
19237TIP3    H279203   6.306   0.090  14.063  1.5056  0.4524 -0.0873
19238TIP3   OH279204   3.031   2.840  14.264 -0.6554  0.4034 -0.3660
19238TIP3    H179205   2.953   2.801  14.225 -0.5659 -0.0368 -0.1182
19238TIP3    H279206   3.016   2.935  14.258 -2.3392  0.3714  1.8256
19239TIP3   OH279207   0.794   2.424  11.286  0.0137  0.0307 -0.4570
19239TIP3    H179208   0.710   2.379  11.282 -0.0879  0.2755 -1.3572
19239TIP3    H279209   0.772   2.517  11.284  0.2457  0.1411  0.8975
19240TIP3   OH279210   4.843   2.317  16.443  0.5409 -0.1442  0.0401
19240TIP3    H179211   4.831   2.406  16.411  0.4222  0.2715  1.1979
19240TIP3    H279212   4.938   2.306  16.451  0.6170 -0.5106 -1.1042
19241TIP3   OH279213   5.747   3.977   0.599  0.0996  0.2660 -0.1898
19241TIP3    H179214   5.766   3.898   0.549  1.4527  0.1869  0.4125
19241TIP3    H279215   5.765   4.048   0.537 -2.8345  0.1739 -1.3363
19242TIP3   OH279216   2.085   3.910  10.879  0.6459 -0.1334 -0.2918
19242TIP3    H179217   2.178   3.900  10.858  0.5313 -1.2749 -0.3119
19242TIP3    H279218   2.054   3.821  10.894 -0.1369  0.3386  1.0678
19243TIP3   OH279219   6.445   6.350  13.742 -0.3142 -0.0373 -0.3984
19243TIP3    H179220   6.540   6.338  13.748 -0.5319 -1.3259  1.1091
19243TIP3    H279221   6.429   6.438  13.774  0.2438 -0.4662  1.1475
19244TIP3   OH279222   5.637   5.748  15.338 -0.2574  0.0635  0.2920
19244TIP3    H179223   5.729   5.768  15.319 -0.4070  1.3444  0.8149
19244TIP3    H279224   5.629   5.655  15.320  0.8121  0.2027 -1.0466
19245TIP3   OH279225   4.055   5.749   1.474  0.2336  0.6197  0.2750
19245TIP3    H179226   3.969   5.747   1.516 -0.3923  1.3605 -0.9099
19245TIP3    H279227   4.118   5.743   1.547 -0.7988  1.6248  1.2837
19246TIP3   OH279228   6.756   0.654   5.349 -0.5437  0.8583 -0.0972
19246TIP3    H179229   6.765   0.563   5.375 -1.4534  0.5776 -0.6825
19246TIP3    H279230   6.818   0.702   5.403 -0.9395  0.0516  1.1089
19247TIP3   OH279231   5.346   4.598   5.870  0.1232 -0.0585  0.1622
19247TIP3    H179232   5.355   4.507   5.844  0.1333  0.6993 -2.8667
19247TIP3    H279233   5.400   4.646   5.807 -1.4619  2.1849  0.4061
19248TIP3   OH279234   4.314   5.742   1.611 -0.7422  0.1723  0.0502
19248TIP3    H179235   4.338   5.660   1.568  1.2418  0.0854  1.2047
19248TIP3    H279236   4.378   5.806   1.580 -1.2547  0.8833  0.4188
19249TIP3   OH279237   3.094   6.396  12.561 -0.2905  0.0340  0.7572
19249TIP3    H179238   3.178   6.350  12.554  0.5773  1.7230 -0.7103
19249TIP3    H279239   3.045   6.345  12.625  2.1093 -0.6122  2.2287
19250TIP3   OH279240   4.713   5.594   4.454  0.0817 -0.1003  0.2779
19250TIP3    H179241   4.785   5.621   4.510 -0.8060 -0.3597  1.5976
19250TIP3    H279242   4.663   5.675   4.438 -0.6198 -0.3033  1.3221
19251TIP3   OH279243   4.867   3.275  14.137  0.3404  0.5701 -0.1224
19251TIP3    H179244   4.871   3.303  14.046  1.0159 -0.2708 -0.3610
19251TIP3    H279245   4.955   3.243  14.157 -0.3190 -1.1648  0.1892
19252TIP3   OH279246   4.127   6.462   3.747 -0.0029 -0.0446 -0.7076
19252TIP3    H179247   4.093   6.380   3.714 -0.6557  0.8812 -2.4397
19252TIP3    H279248   4.054   6.501   3.796  0.2207 -0.3554 -0.1156
19253TIP3   OH279249   3.573   5.472   0.454 -0.0547  0.5235  0.0138
19253TIP3    H179250   3.551   5.396   0.507  0.9599  0.7889  0.8483
19253TIP3    H279251   3.633   5.438   0.387 -0.7492  0.3281 -0.5176
19254TIP3   OH279252   4.439   5.969   2.786  0.0367 -0.2120 -0.0960
19254TIP3    H179253   4.374   5.986   2.854  0.7113 -0.2526  0.5630
19254TIP3    H279254   4.517   6.015   2.815  0.5700 -0.8775 -0.4543
19255TIP3   OH279255   4.996   0.738  14.181  0.5208 -0.1825  0.2088
19255TIP3    H179256   4.996   0.765  14.089  0.6769 -0.6939  0.0559
19255TIP3    H279257   4.914   0.690  14.192 -0.0403  0.8260  0.6311
19256TIP3   OH279258   2.153   5.338  12.769  0.1119 -0.3222 -0.7564
19256TIP3    H179259   2.189   5.286  12.697  0.9017  0.8745 -1.2614
19256TIP3    H279260   2.166   5.283  12.846  0.7141 -0.9759 -1.3034
19257TIP3   OH279261   2.541   1.609   0.606  0.4097 -0.6684  0.2556
19257TIP3    H179262   2.504   1.697   0.601  1.2645 -0.3649 -1.4641
19257TIP3    H279263   2.484   1.563   0.668 -0.3690  0.9194  0.7902
19258TIP3   OH279264   3.604   1.308  10.584  0.2856  0.2527  0.2493
19258TIP3    H179265   3.625   1.219  10.554  0.6282  0.0063  1.1872
19258TIP3    H279266   3.665   1.364  10.537 -1.5778  0.3270 -2.3281
19259TIP3   OH279267   5.703   5.263  14.282 -0.3509  0.0469 -0.4994
19259TIP3    H179268   5.657   5.264  14.198 -1.8889 -1.5763  0.2463
19259TIP3    H279269   5.763   5.188  14.275  0.5845  0.7921 -0.6485
19260TIP3   OH279270   4.781   0.670   1.481 -0.0473  0.1774 -0.8248
19260TIP3    H179271   4.759   0.617   1.558  0.4662  0.4453 -0.4856
19260TIP3    H279272   4.704   0.665   1.425 -0.5894  0.3124 -0.1027
19261TIP3   OH279273   1.931   5.486   0.346  0.0010 -0.1564  0.0529
19261TIP3    H179274   1.924   5.577   0.374 -0.2739 -0.7645  2.0504
19261TIP3    H279275   1.906   5.435   0.422  1.3484 -1.9477 -0.6460
19262TIP3   OH279276   1.748   1.456  16.180  0.2526 -0.3565  0.0561
19262TIP3    H179277   1.798   1.478  16.258 -1.0806 -0.1582  0.8794
19262TIP3    H279278   1.712   1.539  16.150 -1.2667 -0.7538  0.6880
19263TIP3   OH279279   1.203   0.442   1.273  0.0036  0.0828  0.7706
19263TIP3    H179280   1.286   0.395   1.263 -0.6952 -1.3962  1.5565
19263TIP3    H279281   1.136   0.379   1.246 -0.9521  0.7331  1.5352
19264TIP3   OH279282   3.364   6.722  15.175 -0.1842 -0.0062 -0.6927
19264TIP3    H179283   3.345   6.812  15.148  0.8925  0.4074 -0.1419
19264TIP3    H279284   3.460   6.720  15.184 -0.3728 -0.3422  2.1531
19265TIP3   OH279285   6.244   6.647  11.630 -0.0631 -0.0260 -0.1727
19265TIP3    H179286   6.177   6.707  11.598 -2.3889 -2.4206 -0.1144
19265TIP3    H279287   6.232   6.567  11.578  2.4144 -0.7562  0.2374
19266TIP3   OH279288   3.237   6.716   4.031  0.2905  0.7010  0.5205
19266TIP3    H179289   3.273   6.627   4.032  0.6217  0.6735 -2.6335
19266TIP3    H279290   3.191   6.724   4.115  1.3759 -1.9307  1.4867
19267TIP3   OH279291   4.761   2.587  10.199  0.5092  0.3728  0.7320
19267TIP3    H179292   4.779   2.650  10.129  0.4959  1.3703  1.5975
19267TIP3    H279293   4.671   2.559  10.184  0.6776  0.1799  0.0539
19268TIP3   OH279294   4.880   2.938   3.763 -0.0075 -0.0484  0.5641
19268TIP3    H179295   4.874   2.871   3.831 -0.3143 -0.1826  0.4093
19268TIP3    H279296   4.790   2.948   3.731  0.4724 -1.9856 -1.7244
19269TIP3   OH279297   5.443   4.972   1.118 -0.1053  0.2189  0.2554
19269TIP3    H179298   5.381   4.904   1.146  0.2194 -0.7664 -1.3070
19269TIP3    H279299   5.519   4.958   1.174 -0.6780  0.4050  1.1005
19270TIP3   OH279300   0.394   6.172   0.392 -0.0567 -0.3289 -0.0708
19270TIP3    H179301   0.315   6.122   0.413 -0.9002  0.8409 -0.3922
19270TIP3    H279302   0.399   6.238   0.461  0.7729 -0.5296  0.0702
19271TIP3   OH279303   6.751   1.169  15.994 -0.6255  0.0435  0.5957
19271TIP3    H179304   6.694   1.094  16.012 -1.5950  0.6974  0.3645
19271TIP3    H279305   6.801   1.180  16.075  2.8098 -3.5046 -0.7805
19272TIP3   OH279306   1.208   2.463  13.671 -0.4699 -0.1868 -0.2004
19272TIP3    H179307   1.207   2.368  13.667 -2.4706 -0.1800 -0.9094
19272TIP3    H279308   1.189   2.492  13.582  2.2190  0.9793 -0.5100
19273TIP3   OH279309   3.220   1.449   3.950  0.1432 -0.1731  0.2646
19273TIP3    H179310   3.233   1.401   3.868 -1.4975 -0.0403 -0.1121
19273TIP3    H279311   3.130   1.429   3.975 -0.5525  2.5188  0.2055
19274TIP3   OH279312   3.107   2.297   2.832  0.1947 -0.2662 -0.3470
19274TIP3    H179313   3.132   2.205   2.829 -1.8432 -0.8568 -1.0987
19274TIP3    H279314   3.104   2.324   2.740  1.3151  0.7307 -0.1093
19275TIP3   OH279315   2.398   4.062   1.149 -0.3983 -0.2598 -0.1414
19275TIP3    H179316   2.387   3.973   1.116 -0.7417 -0.6024  0.8680
19275TIP3    H279317   2.315   4.082   1.193  0.5149 -0.3372  1.6866
19276TIP3   OH279318   5.520   3.147   1.075 -0.5622  0.2078 -0.8133
19276TIP3    H179319   5.443   3.097   1.048 -0.8848 -0.0927  0.5686
19276TIP3    H279320   5.573   3.083   1.125  0.5286  0.4377 -1.6402
19277TIP3   OH279321   5.567   6.245   0.546  0.0340 -0.2022  0.4233
19277TIP3    H179322   5.543   6.170   0.601 -0.7120  1.4913  2.5697
19277TIP3    H279323   5.505   6.243   0.474 -2.0013 -0.0259  2.0574
19278TIP3   OH279324   5.025   6.249  12.273  0.2447  0.3742 -0.2295
19278TIP3    H179325   5.098   6.282  12.221  0.9115 -1.0967 -0.2780
19278TIP3    H279326   4.947   6.280  12.227  0.8287 -0.0906 -1.5727
19279TIP3   OH279327   5.489   0.618  11.167 -0.2900 -0.3174  0.3152
19279TIP3    H179328   5.455   0.602  11.079  1.0796  1.8740 -0.7255
19279TIP3    H279329   5.575   0.577  11.167  0.8995  1.9717 -0.4457
19280TIP3   OH279330   1.809   2.821  12.278 -0.2296 -0.0651  0.1201
19280TIP3    H179331   1.892   2.852  12.314 -0.5831  1.1930 -0.1065
19280TIP3    H279332   1.831   2.791  12.189  0.2114 -0.9830  0.5281
19281TIP3   OH279333   5.160   3.761   6.394  0.0543  0.5770  0.0777
19281TIP3    H179334   5.089   3.719   6.346 -0.5271 -0.0272  1.4441
19281TIP3    H279335   5.186   3.698   6.461 -0.9022  2.3639  2.2542
19282TIP3   OH279336   1.136   0.887  11.830 -0.0200 -0.3263  0.2546
19282TIP3    H179337   1.090   0.906  11.912  0.1841  0.9790  0.0824
19282TIP3    H279338   1.100   0.803  11.802 -0.8248 -0.3055  1.1623
19283TIP3   OH279339   3.802   4.875  14.190 -0.2712  0.0303  0.2821
19283TIP3    H179340   3.800   4.903  14.281 -4.0572  1.0309  0.0540
19283TIP3    H279341   3.809   4.956  14.140  0.0259 -0.3787 -0.3571
19284TIP3   OH279342   6.521   6.115  15.572 -0.3332 -0.2859  0.3372
19284TIP3    H179343   6.451   6.144  15.630 -1.9597 -1.2849 -1.0475
19284TIP3    H279344   6.511   6.020  15.568 -0.0321 -0.2740 -1.2516
19285TIP3   OH279345   3.387   2.806  14.636 -0.3701 -0.3285 -0.5633
19285TIP3    H179346   3.479   2.789  14.614 -0.5674 -2.2582 -0.0643
19285TIP3    H279347   3.347   2.832  14.553  1.2504  4.0584 -0.2323
19286TIP3   OH279348   1.304   2.965   2.457 -0.0493 -0.2836 -0.5407
19286TIP3    H179349   1.226   2.911   2.469  0.4396 -0.9033 -0.0459
19286TIP3    H279350   1.377   2.903   2.464  0.4950  0.3196 -0.7719
19287TIP3   OH279351   1.076   4.350  12.369 -0.2338 -0.5876 -0.1100
19287TIP3    H179352   1.086   4.255  12.375  1.5595 -0.3642  1.2739
19287TIP3    H279353   1.013   4.372  12.439 -1.0387 -0.7874 -0.7602
19288TIP3   OH279354   4.801   5.018   1.563 -0.2679 -0.1756 -0.0972
19288TIP3    H179355   4.743   5.088   1.592 -1.1231 -1.8007  2.4696
19288TIP3    H279356   4.754   4.977   1.490 -0.4643  0.9435 -0.6209
19289TIP3   OH279357   4.987   5.043   4.352 -0.1243 -0.6836 -0.1474
19289TIP3    H179358   4.960   5.074   4.265 -0.4448  0.3705  0.3092
19289TIP3    H279359   5.078   5.069   4.360  0.3140 -1.9538 -0.6654
19290TIP3   OH279360   4.914   1.311   4.910 -0.3623  0.6023  0.5539
19290TIP3    H179361   4.869   1.261   4.978 -0.0590 -3.2559 -1.8265
19290TIP3    H279362   5.006   1.287   4.919 -0.5124 -1.4554 -2.1468
19291TIP3   OH279363   3.674   4.783  13.961  0.5677 -0.3174  0.4976
19291TIP3    H179364   3.610   4.853  13.944  1.6433  0.4673 -0.4141
19291TIP3    H279365   3.730   4.818  14.030 -0.5300 -1.4018  2.0238
19292TIP3   OH279366   3.454   4.173  13.013  0.6046  0.9921  0.3797
19292TIP3    H179367   3.487   4.129  12.934  2.2330  0.9172  1.0823
19292TIP3    H279368   3.394   4.108  13.052  0.9752  0.4264  0.0263
19293TIP3   OH279369   4.975   3.180  10.182  0.1172  0.1764 -0.3225
19293TIP3    H179370   4.884   3.180  10.151  0.1251 -0.6532 -0.3703
19293TIP3    H279371   5.006   3.091  10.165  0.7563  0.2844  0.2391
19294TIP3   OH279372   0.628   0.833   1.844 -0.1147 -0.3583 -0.9646
19294TIP3    H179373   0.636   0.753   1.896 -0.9584  0.1479 -0.0093
19294TIP3    H279374   0.641   0.805   1.754 -0.1112 -1.5210 -0.6211
19295TIP3   OH279375   6.381   1.988   4.896 -0.5318  0.0374 -0.0155
19295TIP3    H179376   6.396   1.902   4.935  1.1766  0.9786  1.5696
19295TIP3    H279377   6.363   2.045   4.971  0.4866  1.4623 -0.8171
19296TIP3   OH279378   2.811   4.555  16.768 -0.0278  0.0256  0.1235
19296TIP3    H179379   2.821   4.512  16.852  1.7003 -0.9929 -0.5404
19296TIP3    H279380   2.820   4.485  16.703 -0.3544  0.9185 -0.9319
19297TIP3   OH279381   3.674   4.437   5.934 -0.3323  0.1845 -0.1286
19297TIP3    H179382   3.752   4.421   5.880 -0.8913 -0.6226 -0.7133
19297TIP3    H279383   3.673   4.532   5.947  0.8075  0.1954 -0.0165
19298TIP3   OH279384   5.215   4.774  17.014  0.3328  0.1921  0.7202
19298TIP3    H179385   5.246   4.686  17.035 -0.4952  0.2445  2.3887
19298TIP3    H279386   5.181   4.808  17.097 -1.4132  1.2355 -0.3399
19299TIP3   OH279387   3.732   1.854  11.348 -0.5638 -0.3873 -0.3443
19299TIP3    H179388   3.661   1.833  11.288  1.2381  1.7886 -3.5263
19299TIP3    H279389   3.717   1.945  11.373 -0.1625 -0.6471  0.9485
19300TIP3   OH279390   0.129   4.049   4.241 -0.0779 -0.0776 -0.1834
19300TIP3    H179391   0.035   4.064   4.230 -0.3242  0.6371  2.2571
19300TIP3    H279392   0.137   3.955   4.258 -0.4295 -0.0215  0.2912
19301TIP3   OH279393   1.056   3.947   2.397  0.3016  0.1773 -0.5050
19301TIP3    H179394   1.117   3.875   2.412  0.1819 -0.5888 -3.2327
19301TIP3    H279395   1.100   4.024   2.433  3.0849 -0.2849 -2.6128
19302TIP3   OH279396   6.819   2.920   4.877  1.0183 -0.4077 -0.3942
19302TIP3    H179397   6.843   3.005   4.841  0.0389 -0.1964 -0.5706
19302TIP3    H279398   6.844   2.925   4.969  1.7712 -0.2568 -0.5989
19303TIP3   OH279399   6.018   3.486   0.862  0.9235  0.7680  0.5064
19303TIP3    H179400   6.029   3.428   0.786 -0.6406  1.6055 -0.4289
19303TIP3    H279401   6.060   3.567   0.835 -1.9634  2.0089 -0.7055
19304TIP3   OH279402   2.796   1.165  14.394  0.0633  0.5267 -0.7858
19304TIP3    H179403   2.717   1.207  14.359  1.0417  2.4806 -0.7811
19304TIP3    H279404   2.849   1.237  14.429  1.2842 -0.8600  0.4055
19305TIP3   OH279405   0.021   4.881  14.829  0.2612 -0.0565  0.3822
19305TIP3    H179406   0.040   4.802  14.778  0.3953  0.8699 -1.0712
19305TIP3    H279407   0.107   4.918  14.849  0.2228 -0.6041  1.6284
19306TIP3   OH279408   0.208   1.948  12.898 -0.3578  0.1323 -0.0497
19306TIP3    H179409   0.216   1.853  12.891 -0.3144  0.1245  0.0864
19306TIP3    H279410   0.225   1.981  12.810  1.2443  0.1176  0.2147
19307TIP3   OH279411   1.188   6.310  13.604 -1.0488 -0.5147  0.7379
19307TIP3    H179412   1.205   6.216  13.600 -0.4315 -0.4599  1.8048
19307TIP3    H279413   1.275   6.350  13.597 -1.4091  0.0599 -1.2410
19308TIP3   OH279414   1.640   0.742  16.226 -0.3704  0.1316  0.0749
19308TIP3    H179415   1.619   0.823  16.271 -1.4343  0.7914 -1.5088
19308TIP3    H279416   1.733   0.727  16.244  0.0817  2.1903 -0.3451
19309TIP3   OH279417   4.395   1.459  12.871  0.1516  0.4636  0.2932
19309TIP3    H179418   4.459   1.495  12.810 -0.1764 -0.4601 -0.6266
19309TIP3    H279419   4.406   1.364  12.863  1.2944  0.2893  2.9647
19310TIP3   OH279420   5.667   2.008  16.956 -0.0026 -0.0273  0.0435
19310TIP3    H179421   5.742   1.950  16.949 -0.5112 -0.6091 -0.7129
19310TIP3    H279422   5.697   2.091  16.918  0.6674  0.1718  0.9702
19311TIP3   OH279423   0.844   2.450  15.072 -0.3779 -0.3614 -0.0928
19311TIP3    H179424   0.768   2.406  15.032  0.2848 -0.3765 -1.4005
19311TIP3    H279425   0.811   2.485  15.154 -2.2295  0.9151 -1.2938
19312TIP3   OH279426   6.317   4.402   6.630 -0.1808  0.0557  0.6015
19312TIP3    H179427   6.235   4.439   6.663  0.8485 -0.0736  3.5760
19312TIP3    H279428   6.328   4.321   6.679  1.2680 -0.4250 -0.4578
19313TIP3   OH279429   2.778   1.189   1.457 -1.0258  0.6162  0.4638
19313TIP3    H179430   2.683   1.184   1.458 -1.0263  0.1666 -0.5861
19313TIP3    H279431   2.802   1.167   1.367  0.0317  1.4124  0.5343
19314TIP3   OH279432   5.046   4.520   4.716  0.4097 -0.1509 -0.0845
19314TIP3    H179433   4.990   4.472   4.777  0.8331  0.0446  0.4622
19314TIP3    H279434   5.110   4.455   4.686  0.9024  0.0327  0.5559
19315TIP3   OH279435   3.289   1.687   5.820  0.3105  0.2059 -0.0805
19315TIP3    H179436   3.355   1.625   5.790 -0.1612 -1.6869  2.5103
19315TIP3    H279437   3.334   1.740   5.886  0.3509  1.8336 -1.3556
19316TIP3   OH279438   4.556   1.500  14.879  0.0343 -0.2088 -0.0290
19316TIP3    H179439   4.590   1.466  14.796  0.6371 -1.3102  0.6415
19316TIP3    H279440   4.470   1.536  14.857  1.3501  2.2096 -1.6843
19317TIP3   OH279441   2.386   2.095  16.958 -0.4942 -0.3668  0.1947
19317TIP3    H179442   2.348   2.032  16.897  0.4818 -0.9288  0.1615
19317TIP3    H279443   2.423   2.042  17.028 -0.5493  0.2193  0.6796
19318TIP3   OH279444   2.792   6.621  15.011 -0.0890 -0.0858  0.9526
19318TIP3    H179445   2.786   6.714  15.033 -0.4023 -0.2639  1.6306
19318TIP3    H279446   2.724   6.608  14.945 -0.5526  0.0043  1.4098
19319TIP3   OH279447   3.421   6.264   0.069  0.0828  0.0875 -0.0926
19319TIP3    H179448   3.379   6.290   0.151  0.9705  1.4297 -0.0235
19319TIP3    H279449   3.371   6.189   0.038 -0.7196  0.0279  1.3030
19320TIP3   OH279450   3.283   0.866   0.981 -0.4347  0.0241 -0.0057
19320TIP3    H179451   3.208   0.807   0.979 -0.7638  0.3207  1.7767
19320TIP3    H279452   3.359   0.809   0.966 -0.9349 -0.4364 -0.8118
19321TIP3   OH279453   1.818   5.063   3.984  0.3496  0.3544 -0.4362
19321TIP3    H179454   1.785   5.153   3.975  1.0840  0.5707 -1.0725
19321TIP3    H279455   1.871   5.049   3.906  2.3547  0.2933  0.8399
19322TIP3   OH279456   1.427   4.093  17.036  0.0754  0.1366  0.2481
19322TIP3    H179457   1.457   4.043  17.113 -2.5054 -0.6553  0.8480
19322TIP3    H279458   1.388   4.172  17.073 -0.0124  0.3727 -0.3520
19323TIP3   OH279459   4.167   2.038  12.150 -0.3334  0.7004  0.5986
19323TIP3    H179460   4.180   1.959  12.202 -0.3912  0.2286 -0.0821
19323TIP3    H279461   4.255   2.060  12.118 -0.7210 -1.2210 -2.1964
19324TIP3   OH279462   4.097   0.228   0.578 -0.1237  0.5300 -0.2936
19324TIP3    H179463   4.060   0.167   0.641  0.0183 -1.9218 -2.4079
19324TIP3    H279464   4.034   0.300   0.574 -2.6020 -1.5462 -0.7993
19325TIP3   OH279465   5.302   3.312   1.376 -0.5718 -0.0417  0.0704
19325TIP3    H179466   5.233   3.317   1.442 -0.3575  1.1217  0.2145
19325TIP3    H279467   5.354   3.236   1.403 -0.9553 -0.0716  0.7676
19326TIP3   OH279468   4.749   4.405  15.046 -0.1528  0.3101  0.0384
19326TIP3    H179469   4.785   4.322  15.016 -0.9596  0.4617 -1.4006
19326TIP3    H279470   4.696   4.437  14.974 -1.1872  1.3012  1.1832
19327TIP3   OH279471   6.555   2.635  11.313 -0.4773  0.1110  0.1276
19327TIP3    H179472   6.587   2.708  11.260 -1.7505  1.3194  0.9385
19327TIP3    H279473   6.463   2.657  11.331 -1.3050 -2.3630 -0.7159
19328TIP3   OH279474   5.046   3.355  12.434  0.3113  0.3801  0.0817
19328TIP3    H179475   5.030   3.263  12.411 -0.0034  0.3757  0.3083
19328TIP3    H279476   5.135   3.371  12.405  0.6747 -0.2485  0.7982
19329TIP3   OH279477   2.278   6.681  17.032  0.6501 -0.3844 -0.0125
19329TIP3    H179478   2.279   6.684  17.128  0.2018 -1.8074  0.0742
19329TIP3    H279479   2.341   6.747  17.005  0.8894 -0.0551  1.2750
19330TIP3   OH279480   1.966   1.974  16.839 -0.1246  0.5215 -0.0752
19330TIP3    H179481   2.040   2.028  16.867 -0.0900  0.0824  0.7150
19330TIP3    H279482   1.999   1.926  16.763  1.5427 -2.0799  2.1147
19331TIP3   OH279483   4.845   5.593  14.593  0.3882 -0.1627 -0.1989
19331TIP3    H179484   4.806   5.516  14.553 -0.9315  0.1481  0.4495
19331TIP3    H279485   4.825   5.585  14.686  0.6328  0.7378 -0.0558
19332TIP3   OH279486   3.304   4.744   1.045  0.4918  0.0040 -0.6601
19332TIP3    H179487   3.329   4.704   0.962  0.9363  0.3905 -0.7146
19332TIP3    H279488   3.362   4.820   1.054 -0.2808  0.5852 -0.5156
19333TIP3   OH279489   6.173   5.841  12.700  0.0410  0.4318 -0.1955
19333TIP3    H179490   6.237   5.884  12.644  0.9120  1.4625  1.4976
19333TIP3    H279491   6.191   5.875  12.788 -0.3704 -2.0977  0.9700
19334TIP3   OH279492   6.208   5.091   5.304  0.1798  0.2932 -0.3570
19334TIP3    H179493   6.136   5.123   5.249  0.0738  0.4768 -0.1116
19334TIP3    H279494   6.170   5.084   5.392 -0.3657 -2.2977 -0.7023
19335TIP3   OH279495   1.392   2.571  11.026 -0.2701 -0.7127 -0.0660
19335TIP3    H179496   1.312   2.565  10.974  0.2920 -0.1850 -1.0068
19335TIP3    H279497   1.460   2.532  10.972 -0.1018 -2.4833  1.2925
19336TIP3   OH279498   1.588   6.809  13.430 -0.5560 -0.6228  0.5080
19336TIP3    H179499   1.583   6.776  13.520 -0.5563  0.6189  0.9902
19336TIP3    H279500   1.668   6.861  13.428 -0.8975 -0.1025 -0.0127
19337TIP3   OH279501   4.744   5.632   4.174  0.2812  0.4252  0.0138
19337TIP3    H179502   4.652   5.622   4.149 -0.0577  1.6742  0.6501
19337TIP3    H279503   4.746   5.608   4.266  0.6704  0.0550 -0.0905
19338TIP3   OH279504   1.114   6.187  15.054  0.2057  0.5376 -0.7003
19338TIP3    H179505   1.164   6.268  15.061 -0.1888  0.7312 -0.0346
19338TIP3    H279506   1.062   6.184  15.134  1.6702 -1.3696  0.2684
19339TIP3   OH279507   3.186   3.270  15.549 -0.3163  0.0562 -0.2292
19339TIP3    H179508   3.164   3.293  15.459  0.5110 -1.7061 -0.9325
19339TIP3    H279509   3.268   3.317  15.566  0.7580 -1.3326 -1.2535
19340TIP3   OH279510   6.162   2.015  13.959 -0.2011  0.3761  0.3856
19340TIP3    H179511   6.254   2.010  13.985  0.2672  0.2413 -1.2025
19340TIP3    H279512   6.143   2.109  13.957  1.0414  0.6877 -2.8126
19341TIP3   OH279513   2.137   0.533   4.763  0.2484 -0.4011 -0.3618
19341TIP3    H179514   2.129   0.444   4.727  0.8556 -0.9331  0.7766
19341TIP3    H279515   2.224   0.562   4.734 -0.2880  0.1843 -1.4633
19342TIP3   OH279516   1.720   5.436  14.961  0.1740  0.2609 -0.3217
19342TIP3    H179517   1.640   5.393  14.931  0.9949  0.6665 -3.3337
19342TIP3    H279518   1.701   5.530  14.952 -0.1771  0.5361  2.3600
19343TIP3   OH279519   4.276   2.430   1.303  0.3747 -0.5318 -0.3928
19343TIP3    H179520   4.366   2.461   1.293  1.5742 -3.3339  0.8456
19343TIP3    H279521   4.240   2.484   1.374  1.6875 -0.5883  0.3387
19344TIP3   OH279522   5.362   0.809  15.374 -0.0695  0.0177  0.2964
19344TIP3    H179523   5.343   0.892  15.331  2.0514  0.9742  1.0881
19344TIP3    H279524   5.337   0.822  15.465 -1.4706 -0.8919  0.0755
19345TIP3   OH279525   5.518   4.187  13.023  0.1272  0.1405  0.5285
19345TIP3    H179526   5.490   4.169  13.113 -1.9040  0.9551  0.1204
19345TIP3    H279527   5.535   4.281  13.022 -0.4764  0.2463 -0.0876
19346TIP3   OH279528   0.826   0.751  12.698  0.1260 -0.5127  0.7925
19346TIP3    H179529   0.770   0.747  12.620  0.8956  1.1272  0.1261
19346TIP3    H279530   0.884   0.675  12.689 -0.1806 -0.6713  0.0829
19347TIP3   OH279531   3.127   0.913   2.837  0.0785 -0.1916 -0.4238
19347TIP3    H179532   3.195   0.930   2.902  1.2535 -1.0208 -1.3671
19347TIP3    H279533   3.169   0.934   2.753 -1.0808 -0.0428 -0.9904
19348TIP3   OH279534   3.774   0.360  11.236 -0.2132 -0.1338  0.1839
19348TIP3    H179535   3.708   0.423  11.208 -0.1929 -0.1585  0.0815
19348TIP3    H279536   3.823   0.405  11.304  0.6478  0.4316 -0.7862
19349TIP3   OH279537   2.339   2.273   2.886 -0.1458 -0.1389 -0.4095
19349TIP3    H179538   2.403   2.209   2.854  0.7222  0.1660  0.6443
19349TIP3    H279539   2.305   2.234   2.967 -0.1797  0.3787 -0.1703
19350TIP3   OH279540   1.755   3.402   3.956  0.4490  0.1776 -0.4984
19350TIP3    H179541   1.661   3.389   3.965  0.4494  0.2165 -0.4383
19350TIP3    H279542   1.770   3.492   3.984  0.2676  0.7700 -2.1605
19351TIP3   OH279543   0.374   2.186  15.872  0.6328 -0.2006 -0.0143
19351TIP3    H179544   0.447   2.187  15.809  0.2890 -0.7906 -0.4389
19351TIP3    H279545   0.416   2.196  15.957  1.1723 -0.0943 -0.2860
19352TIP3   OH279546   3.207   5.582   5.403  0.4176 -0.1363  0.6419
19352TIP3    H179547   3.178   5.513   5.343 -0.3202 -0.8381  1.7625
19352TIP3    H279548   3.221   5.658   5.347 -2.4424 -0.0985 -0.1610
19353TIP3   OH279549   6.406   3.820   0.045  0.1495  0.5555  0.0142
19353TIP3    H179550   6.382   3.839   0.136  0.4880  1.7704 -0.1341
19353TIP3    H279551   6.329   3.846  -0.006  0.1911  0.4480 -0.1035
19354TIP3   OH279552   3.939   5.258  16.646 -0.4303  0.3638  0.0676
19354TIP3    H179553   3.957   5.216  16.730 -2.7916  0.8592  0.9147
19354TIP3    H279554   4.016   5.311  16.628  0.9319 -1.2434  0.9431
19355TIP3   OH279555   5.487   1.962  16.184  0.3368 -0.0350 -0.3483
19355TIP3    H179556   5.512   1.896  16.120  2.6267  0.3537  0.0564
19355TIP3    H279557   5.561   1.967  16.244 -1.2920  0.3578  1.7565
19356TIP3   OH279558   6.508   5.058  11.183 -0.7452  0.0846 -0.6623
19356TIP3    H179559   6.557   4.977  11.196 -0.1360  0.2290 -1.9317
19356TIP3    H279560   6.546   5.097  11.105 -0.9922  1.6427 -0.0446
19357TIP3   OH279561   1.868   4.148   1.378 -0.5449  0.2672 -0.4619
19357TIP3    H179562   1.935   4.112   1.435 -0.8447  0.3056 -0.0821
19357TIP3    H279563   1.870   4.093   1.300 -1.2576 -0.8299  0.2678
19358TIP3   OH279564   1.385   3.774   3.812 -0.0159  0.0722  0.5563
19358TIP3    H179565   1.343   3.782   3.897  1.8172 -0.4686  1.5616
19358TIP3    H279566   1.398   3.864   3.782  1.9588  0.4220  2.2499
19359TIP3   OH279567   3.801   1.342  12.036 -0.1780  0.3531  0.7720
19359TIP3    H179568   3.722   1.392  12.016 -2.0037 -2.0924  1.4250
19359TIP3    H279569   3.799   1.332  12.132  0.4296 -0.5096  0.7023
19360TIP3   OH279570   4.808   6.730  16.293 -0.4387 -0.2191  0.8856
19360TIP3    H179571   4.832   6.653  16.344 -1.1326 -1.4276 -0.5690
19360TIP3    H279572   4.888   6.782  16.289 -0.2919 -0.1841  2.9683
19361TIP3   OH279573   4.424   6.456   1.609  0.4726  0.3526  0.4392
19361TIP3    H179574   4.472   6.386   1.653  1.8597  0.1731 -1.2588
19361TIP3    H279575   4.485   6.530   1.607 -0.0863  0.8145  0.0592
19362TIP3   OH279576   3.337   0.267  16.453 -0.2735  0.1148  0.2132
19362TIP3    H179577   3.326   0.188  16.399  2.1829 -0.2903  0.2092
19362TIP3    H279578   3.248   0.290  16.479 -1.3024 -1.1745 -1.8705
19363TIP3   OH279579   3.892   0.093  13.121  0.6284  0.0211 -0.8120
19363TIP3    H179580   3.924   0.032  13.055  0.8630  0.1853 -0.8550
19363TIP3    H279581   3.931   0.177  13.096  2.4642 -0.3054  0.7164
19364TIP3   OH279582   5.286   1.986   5.211 -0.2370 -0.4483 -0.2350
19364TIP3    H179583   5.231   1.961   5.285  1.6834  0.2189  1.5121
19364TIP3    H279584   5.339   1.908   5.193  1.1983  0.2116  0.9397
19365TIP3   OH279585   2.099   5.016   4.806  0.3374 -0.1301 -0.0669
19365TIP3    H179586   2.158   5.091   4.820  0.8065 -0.5280  0.1504
19365TIP3    H279587   2.021   5.038   4.856  0.1688  0.5529 -0.6195
19366TIP3   OH279588   5.865   2.846  11.204 -0.3781 -0.7451 -0.3202
19366TIP3    H179589   5.916   2.796  11.141 -1.9337 -4.3261  0.9470
19366TIP3    H279590   5.795   2.886  11.153  0.8918  0.2207 -1.3816
19367TIP3   OH279591   2.651   4.039   3.859 -0.6971 -0.1307  0.3926
19367TIP3    H179592   2.562   4.011   3.879 -0.7031 -0.6283 -0.2834
19367TIP3    H279593   2.664   4.013   3.768  1.0778 -2.6224  1.2231
19368TIP3   OH279594   4.669   4.342   2.274 -0.1461  0.3728  0.7558
19368TIP3    H179595   4.657   4.437   2.272 -0.7774  0.3014  1.1503
19368TIP3    H279596   4.719   4.325   2.354 -0.1758  0.3552  0.7703
19369TIP3   OH279597   3.468   5.072  13.178  0.2803 -0.7659  0.0590
19369TIP3    H179598   3.432   4.985  13.165  0.9060 -1.4979  2.6170
19369TIP3    H279599   3.554   5.057  13.219  0.9630  1.0280 -0.6073
19370TIP3   OH279600   1.336   2.619  11.292 -0.7056 -0.3184  0.6524
19370TIP3    H179601   1.375   2.609  11.205 -0.1283  0.1891  0.8478
19370TIP3    H279602   1.253   2.664  11.276 -0.5039 -0.0386  0.3860
19371TIP3   OH279603   1.078   2.282   4.829  0.2758 -0.0829 -0.2403
19371TIP3    H179604   1.168   2.284   4.797 -0.0648 -1.2114 -1.3273
19371TIP3    H279605   1.024   2.294   4.751 -0.5270  1.7868  0.5415
19372TIP3   OH279606   1.701   1.748   2.921  0.3287 -0.5391 -0.2039
19372TIP3    H179607   1.755   1.707   2.988 -0.2777 -3.1996 -1.2400
19372TIP3    H279608   1.748   1.732   2.839 -1.2820 -1.6844 -0.9531
19373TIP3   OH279609   0.291   0.916   3.697  0.0703 -0.2281  0.0179
19373TIP3    H179610   0.353   0.951   3.761  0.3731  1.1720 -0.9970
19373TIP3    H279611   0.204   0.938   3.733  0.2084 -0.4075  0.4642
19374TIP3   OH279612   5.541   3.300  13.666  0.3721  0.1481  0.3140
19374TIP3    H179613   5.547   3.301  13.762  0.2402  1.9013  0.3528
19374TIP3    H279614   5.522   3.210  13.643 -1.1683 -0.0212  2.0566
19375TIP3   OH279615   0.602   1.706   2.705 -0.6561 -0.2423  0.2747
19375TIP3    H179616   0.527   1.757   2.674  0.3207  0.6029 -0.8159
19375TIP3    H279617   0.615   1.734   2.795 -2.8277 -1.8511  1.1702
19376TIP3   OH279618   2.305   0.287   3.666 -0.0561 -0.1571 -0.0387
19376TIP3    H179619   2.295   0.349   3.739  2.0340  1.9177 -1.3454
19376TIP3    H279620   2.235   0.310   3.605 -1.0465 -1.0639  0.7302
19377TIP3   OH279621   2.970   3.754   5.971  0.0457  0.0691 -0.1450
19377TIP3    H179622   2.877   3.771   5.957 -0.2543  1.4909  2.8908
19377TIP3    H279623   3.014   3.827   5.928  0.0849 -1.7102 -3.5361
19378TIP3   OH279624   2.814   3.647   3.478 -0.2140  0.8628 -0.1705
19378TIP3    H179625   2.718   3.651   3.471 -0.3601  1.2916  1.5777
19378TIP3    H279626   2.841   3.594   3.403 -1.9785 -0.7474  0.2543
19379TIP3   OH279627   1.015   4.815   3.600  0.1313 -0.3458 -0.3567
19379TIP3    H179628   0.951   4.801   3.530  0.3594 -2.7488 -0.1872
19379TIP3    H279629   0.962   4.829   3.678 -0.1232  1.9739 -0.8721
19380TIP3   OH279630   2.830   5.449   5.568  0.0368  0.1193  0.1917
19380TIP3    H179631   2.894   5.405   5.624  1.1581  0.3420 -0.8547
19380TIP3    H279632   2.857   5.541   5.569  0.7572 -0.0296 -1.5072
19381TIP3   OH279633   5.112   3.711  12.839  0.2076  0.7042  0.0607
19381TIP3    H179634   5.112   3.681  12.748  0.2008 -0.1296  0.3349
19381TIP3    H279635   5.197   3.684  12.873  0.2749  1.1587  0.2649
19382TIP3   OH279636   1.896   4.411  13.079  0.2768 -0.3402 -0.3194
19382TIP3    H179637   1.886   4.492  13.129  0.6878 -1.6023  1.9779
19382TIP3    H279638   1.900   4.439  12.988 -1.8374  2.0140  0.2060
19383TIP3   OH279639   2.374   1.997   2.322 -0.9084  0.1830 -0.1559
19383TIP3    H179640   2.373   2.089   2.295 -2.0574  0.1526 -0.2999
19383TIP3    H279641   2.284   1.981   2.352 -0.9888 -1.1368 -1.0029
19384TIP3   OH279642   4.540   2.685  13.639 -0.6314 -0.8854  0.2147
19384TIP3    H179643   4.547   2.650  13.728 -1.4941 -2.7471 -0.3945
19384TIP3    H279644   4.468   2.635  13.599  1.0364 -1.5563 -2.1650
19385TIP3   OH279645   2.736   2.669   3.244 -0.5710 -0.0919 -0.1256
19385TIP3    H179646   2.775   2.755   3.234  0.5254 -0.3509  1.5017
19385TIP3    H279647   2.659   2.671   3.188  2.0191  0.2125 -4.0570
19386TIP3   OH279648   4.765   2.749  10.437  0.2266  0.3754 -0.3646
19386TIP3    H179649   4.857   2.744  10.462  0.3849  1.6318 -0.6433
19386TIP3    H279650   4.759   2.697  10.356  0.9415  1.2463 -0.9958
19387TIP3   OH279651   5.144   2.143  15.348  0.5307 -0.6932 -0.2234
19387TIP3    H179652   5.165   2.117  15.258 -1.3009 -0.4407 -0.7583
19387TIP3    H279653   5.203   2.091  15.402  1.7788 -0.7389 -1.5654
19388TIP3   OH279654   5.332   1.628   5.454  0.0608 -0.4198 -0.1264
19388TIP3    H179655   5.401   1.647   5.517 -0.7593 -1.2600  1.0611
19388TIP3    H279656   5.297   1.714   5.430 -1.0635 -0.1164  2.2592
19389TIP3   OH279657   1.881   4.516   1.536 -0.0460  0.2654 -0.0828
19389TIP3    H179658   1.836   4.480   1.459  1.1786 -0.7995 -0.3420
19389TIP3    H279659   1.834   4.597   1.556 -2.2596 -0.9435 -0.1174
19390TIP3   OH279660   6.108   1.770   2.575  0.6388 -0.1276  0.0698
19390TIP3    H179661   6.079   1.859   2.593  0.6641 -0.1974  0.4653
19390TIP3    H279662   6.036   1.730   2.525 -0.4384 -0.6297  1.9266
19391TIP3   OH279663   0.292   5.575  14.818  0.3869  0.0230  0.1754
19391TIP3    H179664   0.250   5.616  14.743 -0.2063  1.5788  1.2996
19391TIP3    H279665   0.309   5.486  14.790 -2.5327 -0.3433 -0.8011
19392TIP3   OH279666   1.625   0.200   3.939 -0.1058 -0.3098 -0.0172
19392TIP3    H179667   1.721   0.192   3.939  0.0943  1.6244 -0.0753
19392TIP3    H279668   1.603   0.222   3.848 -0.5082  0.0932  0.1733
19393TIP3   OH279669   2.695   5.781  11.127 -0.3724 -0.2080 -0.5087
19393TIP3    H179670   2.682   5.686  11.129 -1.1653 -0.0878  1.0509
19393TIP3    H279671   2.619   5.817  11.173  1.0224  1.0453  0.9294
19394TIP3   OH279672   0.054   5.279  14.042  0.1894 -0.2401 -0.5619
19394TIP3    H179673   0.063   5.243  13.954 -0.7036  0.0930 -0.8008
19394TIP3    H279674  -0.024   5.335  14.037 -0.5586 -1.1236  0.7444
19395TIP3   OH279675   1.086   3.814   1.423 -0.3507  0.3523 -0.2875
19395TIP3    H179676   1.075   3.754   1.349 -0.3482  0.8739 -0.7234
19395TIP3    H279677   1.138   3.765   1.486  0.4727  0.2311 -1.0406
19396TIP3   OH279678   1.865   3.376  12.198 -0.3403  0.1436 -0.1565
19396TIP3    H179679   1.954   3.376  12.234 -0.4488  2.1659  0.2722
19396TIP3    H279680   1.818   3.310  12.249  1.0939 -1.6216 -0.9973
19397TIP3   OH279681   5.853   3.816  13.408  0.3944  0.4373  0.0812
19397TIP3    H179682   5.885   3.733  13.444 -0.1119 -0.6780 -1.9087
19397TIP3    H279683   5.863   3.807  13.313 -1.7760  1.7238 -0.3537
19398TIP3   OH279684   6.020   4.999   3.582 -0.4184 -0.0112 -0.1261
19398TIP3    H179685   5.944   4.984   3.527  2.0946  1.2159 -4.4497
19398TIP3    H279686   6.039   5.092   3.572  1.7223 -0.3066  0.5990
19399TIP3   OH279687   5.310   5.608   0.068 -0.3405 -0.5191  0.8566
19399TIP3    H179688   5.233   5.642   0.114 -1.6003  1.5448 -2.4413
19399TIP3    H279689   5.274   5.562  -0.008  1.5777  1.8256 -1.6341
19400TIP3   OH279690   6.319   6.061  11.679  0.2227  0.0902 -0.0855
19400TIP3    H179691   6.291   6.140  11.631  1.3042  0.6463  0.1587
19400TIP3    H279692   6.367   6.095  11.755 -0.5978 -0.7940  0.8603
19401TIP3   OH279693   1.453   1.622   0.818  0.7489  0.4631  1.0432
19401TIP3    H179694   1.447   1.717   0.806 -0.3729  0.7418  3.2363
19401TIP3    H279695   1.438   1.609   0.911  1.8044 -1.8292  0.9572
19402TIP3   OH279696   4.608   1.382  11.652 -0.2056  0.7421 -0.2416
19402TIP3    H179697   4.677   1.415  11.710 -0.7955 -0.1755  1.0427
19402TIP3    H279698   4.527   1.415  11.691 -0.8407 -2.0652  1.1309
19403TIP3   OH279699   0.365   0.324   2.550 -0.2920  0.1170  0.0238
19403TIP3    H179700   0.421   0.262   2.503 -0.5623  0.5097 -0.8368
19403TIP3    H279701   0.349   0.282   2.634  0.5321 -0.4252 -0.0727
19404TIP3   OH279702   1.351   2.287  16.201 -0.3901  0.3014  0.5270
19404TIP3    H179703   1.281   2.257  16.260 -1.4997  2.1753  0.2594
19404TIP3    H279704   1.373   2.374  16.233  0.0101  0.7712 -0.9723
19405TIP3   OH279705   0.108   6.467  12.193 -0.3842  0.2223 -0.3285
19405TIP3    H179706   0.192   6.459  12.239 -0.4617  0.8587 -0.0737
19405TIP3    H279707   0.045   6.482  12.263 -0.5045  1.2062 -0.6411
19406TIP3   OH279708   2.920   2.087  12.418 -0.1058 -0.2438  0.7255
19406TIP3    H179709   2.948   2.137  12.342 -1.6633  1.1641  1.0294
19406TIP3    H279710   2.854   2.026  12.384 -3.8328  3.0351  1.3424
19407TIP3   OH279711   5.038   3.185   5.724 -0.2796 -0.0507 -0.2833
19407TIP3    H179712   5.017   3.125   5.652 -0.9020 -1.8431  1.3118
19407TIP3    H279713   5.055   3.128   5.799 -0.5409  1.7676  1.2445
19408TIP3   OH279714   3.406   0.768   5.600 -0.1239 -0.0184 -0.1466
19408TIP3    H179715   3.429   0.858   5.575 -0.5167  0.0625 -0.2202
19408TIP3    H279716   3.313   0.760   5.579 -0.0961 -0.4371 -0.1190
19409TIP3   OH279717   3.832   5.361  13.869 -0.1480  0.2595 -0.4052
19409TIP3    H179718   3.739   5.385  13.862  0.0217  0.6872 -1.2215
19409TIP3    H279719   3.854   5.323  13.784  1.0003  2.2014 -1.0144
19410TIP3   OH279720   6.383   4.292  15.788  0.1276 -0.1170 -0.7207
19410TIP3    H179721   6.429   4.225  15.838  0.9709  0.6055 -0.5191
19410TIP3    H279722   6.350   4.353  15.854  3.0734  2.0252 -1.0453
19411TIP3   OH279723   2.097   6.641  14.283 -0.4289  0.1492 -0.4353
19411TIP3    H179724   2.110   6.563  14.337  0.2169 -0.2257 -1.1229
19411TIP3    H279725   2.184   6.678  14.271 -0.4266 -0.2893 -1.9753
19412TIP3   OH279726   6.198   6.001   2.562  0.4368  0.2289  0.3607
19412TIP3    H179727   6.190   6.031   2.653 -0.8467  1.3657 -0.0916
19412TIP3    H279728   6.245   5.918   2.568  0.5420  0.3776  2.0443
19413TIP3   OH279729   2.675   2.537  11.404  0.3611  0.3531 -0.2735
19413TIP3    H179730   2.643   2.579  11.484  0.1832 -0.0808 -0.1144
19413TIP3    H279731   2.723   2.460  11.435  1.2076  0.7562 -0.5297
19414TIP3   OH279732   2.709   2.704  16.444  0.0339  0.3737  0.2766
19414TIP3    H179733   2.642   2.644  16.476  0.3869 -0.4926 -0.5840
19414TIP3    H279734   2.661   2.766  16.390 -0.0079 -0.6564 -0.9083
19415TIP3   OH279735   3.608   0.838   3.252 -0.2688  0.2806 -0.7083
19415TIP3    H179736   3.573   0.858   3.339  0.9995  0.5586 -0.2370
19415TIP3    H279737   3.670   0.908   3.235  1.7924 -1.3716 -0.4811
19416TIP3   OH279738   3.681   1.024  14.182  0.5706 -0.4717  0.0842
19416TIP3    H179739   3.707   1.003  14.092  0.0397 -0.0770 -0.1710
19416TIP3    H279740   3.762   1.049  14.226  0.3577  4.3376 -1.6441
19417TIP3   OH279741   1.631   5.107   4.617 -0.1231 -0.1784 -0.4177
19417TIP3    H179742   1.715   5.113   4.570  0.5442 -2.2246  0.4118
19417TIP3    H279743   1.571   5.068   4.554  0.5363 -2.0861  0.0937
19418TIP3   OH279744   4.994   3.050  13.273  0.4561 -0.5593  0.0018
19418TIP3    H179745   5.051   2.979  13.301  1.1604 -0.4672 -1.1292
19418TIP3    H279746   4.906   3.020  13.294  0.8608 -1.0228  1.0820
19419TIP3   OH279747   4.381   2.976  14.260  0.0228 -0.3814 -0.3544
19419TIP3    H179748   4.437   3.052  14.280 -1.2710  0.3729  0.5502
19419TIP3    H279749   4.352   2.945  14.346  1.7191 -2.9160 -0.5703
19420TIP3   OH279750   3.010   0.289  16.242  0.6238 -0.3489 -0.1663
19420TIP3    H179751   3.040   0.299  16.332  0.9696 -0.9981 -0.2063
19420TIP3    H279752   2.987   0.197  16.234 -0.9511  0.0228 -0.2826
19421TIP3   OH279753   4.326   0.263  16.746 -0.1432  0.0952 -0.5019
19421TIP3    H179754   4.291   0.342  16.705 -0.1522 -0.1299 -0.9363
19421TIP3    H279755   4.380   0.295  16.818  0.2726  0.5221 -0.9984
19422TIP3   OH279756   5.873   0.705   3.753  0.1973  0.1495 -0.0386
19422TIP3    H179757   5.827   0.689   3.835  0.2542 -0.5484 -0.1377
19422TIP3    H279758   5.958   0.738   3.779 -0.6342  2.3139  0.1382
19423TIP3   OH279759   1.644   2.390   0.766  0.1001  0.3415  1.0647
19423TIP3    H179760   1.735   2.385   0.797  0.1041 -0.2863  0.9540
19423TIP3    H279761   1.612   2.473   0.801  0.8372  0.7561  0.7731
19424TIP3   OH279762   0.268   6.117  15.993 -0.2766 -0.1141  0.5618
19424TIP3    H179763   0.196   6.131  16.055 -0.6656  2.5519 -0.3823
19424TIP3    H279764   0.347   6.142  16.042 -0.5494  1.6494  0.1816
19425TIP3   OH279765   3.807   1.859  12.361  0.0899 -0.3265 -0.0421
19425TIP3    H179766   3.757   1.809  12.425 -1.3473 -0.7363 -1.4159
19425TIP3    H279767   3.880   1.803  12.338  0.3705 -0.3599  0.8895
19426TIP3   OH279768   6.104   5.352  14.157 -0.1069  0.5399  0.1655
19426TIP3    H179769   6.118   5.376  14.065 -1.5342  0.2928 -0.1317
19426TIP3    H279770   6.095   5.257  14.156 -1.4159  0.6505  0.3731
19427TIP3   OH279771   0.807   6.449   3.491  0.0188  0.1213 -0.2638
19427TIP3    H179772   0.875   6.493   3.542 -0.7336  0.7527  0.2107
19427TIP3    H279773   0.802   6.499   3.410 -0.1717  0.3327 -0.1224
19428TIP3   OH279774   2.957   5.655   3.636 -0.0196  0.3490  0.2333
19428TIP3    H179775   3.001   5.604   3.569  1.0301  2.0997 -0.4785
19428TIP3    H279776   2.878   5.689   3.593 -0.1666  0.1936  0.3775
19429TIP3   OH279777   4.714   5.480   0.904 -0.2575  0.3971 -0.1452
19429TIP3    H179778   4.661   5.486   0.825 -0.0689  0.0685 -0.2947
19429TIP3    H279779   4.654   5.449   0.972 -0.5178  1.0592 -0.0614
19430TIP3   OH279780   4.560   6.469  16.690  0.5115 -0.3264 -0.3876
19430TIP3    H179781   4.643   6.508  16.662  1.4237 -1.4401  0.6215
19430TIP3    H279782   4.581   6.376  16.702 -0.5169 -0.3829  1.1996
19431TIP3   OH279783   4.575   4.588  14.206 -0.4430 -0.0816  0.5637
19431TIP3    H179784   4.628   4.616  14.132 -1.4963  2.8697  0.8188
19431TIP3    H279785   4.543   4.501  14.181  0.2027  0.3167 -1.8856
19432TIP3   OH279786   5.833   5.867   2.276 -0.2451  0.3883  0.1118
19432TIP3    H179787   5.915   5.900   2.311  0.2436 -0.0042 -0.6191
19432TIP3    H279788   5.817   5.920   2.198 -0.4240  0.1436 -0.0213
19433TIP3   OH279789   2.070   6.657   1.321  0.0311 -0.3918  0.7469
19433TIP3    H179790   2.162   6.685   1.322 -0.3152  0.8736 -0.1590
19433TIP3    H279791   2.027   6.714   1.385 -0.4204  0.2023 -0.0659
19434TIP3   OH279792   0.439   2.992   4.420  0.0257  0.6100 -1.2095
19434TIP3    H179793   0.441   3.072   4.367 -2.8073  0.8883 -1.0579
19434TIP3    H279794   0.487   2.927   4.368  1.2858  2.0484 -1.9158
19435TIP3   OH279795   1.057   0.233   5.608 -0.1469 -0.8949 -0.5881
19435TIP3    H179796   1.108   0.292   5.553  1.8900 -2.9586 -1.0800
19435TIP3    H279797   1.089   0.249   5.697  0.1061 -0.9842 -0.6635
19436TIP3   OH279798   3.310   1.770   5.538 -0.0263 -0.2905 -0.1355
19436TIP3    H179799   3.328   1.726   5.621  1.1154 -1.6855 -1.0827
19436TIP3    H279800   3.385   1.748   5.482 -0.9924  0.2154 -1.6997
19437TIP3   OH279801   6.664   2.287   0.528  0.1255  0.0469 -0.1294
19437TIP3    H179802   6.628   2.240   0.603  1.1092  0.0097  0.3354
19437TIP3    H279803   6.712   2.220   0.478 -1.3809 -0.1481 -1.3734
19438TIP3   OH279804   5.128   1.978   5.741  0.1403 -0.7271 -0.2883
19438TIP3    H179805   5.057   2.001   5.800 -0.8360 -0.5804 -1.4811
19438TIP3    H279806   5.208   2.001   5.789 -0.5889 -1.0657  1.1451
19439TIP3   OH279807   5.347   5.667  14.475 -0.4597  0.0634 -0.0980
19439TIP3    H179808   5.287   5.740  14.492 -1.6922 -1.1487  1.0764
19439TIP3    H279809   5.421   5.684  14.533 -1.0815  0.0243  0.7349
19440TIP3   OH279810   3.825   5.487  16.322 -0.0660 -0.1954 -0.0129
19440TIP3    H179811   3.797   5.400  16.351 -1.8904  1.2042  2.9160
19440TIP3    H279812   3.776   5.503  16.242 -0.9471 -1.2676  0.2921
19441TIP3   OH279813   4.980   0.167   3.016  0.6275  0.1855 -0.3465
19441TIP3    H179814   4.999   0.084   2.974 -1.1194 -0.5301  0.1965
19441TIP3    H279815   4.885   0.177   3.009  0.7058  1.7328  0.3276
19442TIP3   OH279816   0.171   2.321  14.922 -0.6754  0.5415 -0.6530
19442TIP3    H179817   0.156   2.316  14.828 -2.2137  2.8351 -0.6401
19442TIP3    H279818   0.130   2.404  14.947  3.2427  2.0858  1.3823
19443TIP3   OH279819   2.249   3.496   4.272 -0.0813 -0.0431 -0.3562
19443TIP3    H179820   2.248   3.591   4.266  2.4590  0.1327  0.8039
19443TIP3    H279821   2.269   3.466   4.184  0.1583  0.5569 -0.5067
19444TIP3   OH279822   5.185   6.052   4.421  0.6661  0.3300  0.4047
19444TIP3    H179823   5.238   5.991   4.369  0.3051  0.1564  0.2377
19444TIP3    H279824   5.150   6.114   4.357  0.5527  0.3611  0.4985
19445TIP3   OH279825   0.528   5.556  12.805 -0.3546  0.6575  0.5419
19445TIP3    H179826   0.471   5.632  12.800 -0.5580  0.4849  0.1686
19445TIP3    H279827   0.591   5.577  12.874  0.6889  1.9004 -0.7329
19446TIP3   OH279828   2.261   5.132  13.289  0.5678  0.0268  0.0991
19446TIP3    H179829   2.356   5.122  13.293  0.6098 -0.2562 -1.1208
19446TIP3    H279830   2.244   5.217  13.330  1.4230  0.4443 -0.3836
19447TIP3   OH279831   1.822   5.360   5.991  0.2865  0.9706  0.0622
19447TIP3    H179832   1.833   5.413   6.069  0.2963 -0.2001  0.8788
19447TIP3    H279833   1.841   5.270   6.019  0.8198  0.5864 -1.4023
19448TIP3   OH279834   2.543   6.775   3.934  0.3003  0.2415 -0.5171
19448TIP3    H179835   2.599   6.725   3.875  1.4264  0.2135  0.5262
19448TIP3    H279836   2.485   6.825   3.876 -2.0828 -3.3914 -1.6965
19449TIP3   OH279837   5.360   5.719   1.473  0.4548  0.2853 -0.1930
19449TIP3    H179838   5.297   5.791   1.466  0.7929  0.7090  0.9028
19449TIP3    H279839   5.317   5.645   1.430 -1.0266  0.4301  0.9675
19450TIP3   OH279840   0.194   0.509   4.112  0.0677  0.0052 -0.1486
19450TIP3    H179841   0.228   0.433   4.159 -0.4947 -0.9107 -1.1915
19450TIP3    H279842   0.269   0.567   4.103  0.6613 -0.7075  0.1053
19451TIP3   OH279843   4.046   0.509  13.169  0.0594 -0.2754  0.1060
19451TIP3    H179844   4.047   0.423  13.126  0.8081 -0.1909 -0.0617
19451TIP3    H279845   3.953   0.531  13.177 -0.1212 -0.7725 -0.5122
19452TIP3   OH279846   2.431   0.674  14.425  0.4035 -0.2027 -0.7106
19452TIP3    H179847   2.355   0.668  14.484  0.5843  0.3059 -0.4167
19452TIP3    H279848   2.497   0.722  14.476  0.2047  1.1874 -1.6861
19453TIP3   OH279849   2.508   6.699  14.376  0.1998 -0.0740  0.1796
19453TIP3    H179850   2.439   6.712  14.311 -1.3645 -1.3810  1.4947
19453TIP3    H279851   2.586   6.679  14.325 -0.4827  0.9882 -1.3407
19454TIP3   OH279852   3.387   4.124  16.007  0.6129 -0.2216  0.1283
19454TIP3    H179853   3.450   4.166  15.948 -0.4151 -1.0198 -1.5896
19454TIP3    H279854   3.321   4.087  15.949 -0.9899 -0.1749  1.8538
19455TIP3   OH279855   0.206   3.273  12.642  0.0950 -0.3707  0.0438
19455TIP3    H179856   0.257   3.344  12.604 -0.5985  0.9327  1.4534
19455TIP3    H279857   0.270   3.224  12.694  0.5325 -0.6631 -0.7539
19456TIP3   OH279858   0.572   1.194   3.172 -0.9617 -0.3673 -0.0717
19456TIP3    H179859   0.488   1.225   3.139 -1.1663 -1.8903 -1.0450
19456TIP3    H279860   0.628   1.189   3.094  0.9052  2.9834  0.8196
19457TIP3   OH279861   5.142   2.555   1.653 -0.2867 -0.5358 -0.1784
19457TIP3    H179862   5.218   2.562   1.710  0.6391 -3.3266 -0.9372
19457TIP3    H279863   5.163   2.612   1.578 -0.3068  0.9871  0.9182
19458TIP3   OH279864   1.732   3.071  14.808  0.0122 -0.4205  0.3833
19458TIP3    H179865   1.705   3.031  14.890 -2.4505  1.1054  0.4064
19458TIP3    H279866   1.738   2.998  14.746 -0.7270 -1.2632  1.2799
19459TIP3   OH279867   3.407   0.321   2.567 -0.3933 -0.3167  0.1179
19459TIP3    H179868   3.450   0.235   2.565 -1.6797 -0.9725 -2.1397
19459TIP3    H279869   3.339   0.315   2.501 -1.1486  2.1593  0.5936
19460TIP3   OH279870   2.405   3.415  13.638  0.0372 -0.5340 -0.2190
19460TIP3    H179871   2.376   3.373  13.557 -1.3820 -1.7310  0.8393
19460TIP3    H279872   2.350   3.493  13.646 -0.4310 -0.8855  0.0167
19461TIP3   OH279873   6.600   1.378   3.350 -0.1370 -0.3371 -0.5081
19461TIP3    H179874   6.653   1.398   3.427  0.4091 -1.3432 -0.6006
19461TIP3    H279875   6.638   1.430   3.280 -0.6705  0.6258 -0.1091
19462TIP3   OH279876   1.127   4.820  13.294  0.0555 -0.0121 -0.1124
19462TIP3    H179877   1.039   4.856  13.308  1.1490  1.9135  2.7325
19462TIP3    H279878   1.143   4.766  13.371  1.6413  0.2917 -0.1899
19463TIP3   OH279879   0.292   3.950  12.518 -0.1182  0.2445 -0.3818
19463TIP3    H179880   0.354   3.878  12.505 -0.1863  0.0697  0.2139
19463TIP3    H279881   0.330   4.000  12.590  0.1956  1.1066 -1.1347
19464TIP3   OH279882   1.676   1.774   0.461 -0.0031  1.0835 -0.9751
19464TIP3    H179883   1.638   1.848   0.508  0.0752  0.1805  0.5732
19464TIP3    H279884   1.770   1.781   0.477  0.0370  0.8451 -1.1038
19465TIP3   OH279885   0.767   4.136   1.176 -0.4136  0.1521  0.3919
19465TIP3    H179886   0.738   4.083   1.250  0.1521  1.1965  1.3889
19465TIP3    H279887   0.852   4.171   1.202 -0.3460  0.7963 -0.6113
19466TIP3   OH279888   4.379   2.915  16.230  0.1569 -0.1055  0.8678
19466TIP3    H179889   4.285   2.901  16.228  0.3228 -1.4347 -1.5145
19466TIP3    H279890   4.393   2.999  16.186  0.1940 -1.1813 -1.2660
19467TIP3   OH279891   2.615   3.119  15.744 -0.7694 -0.4335 -0.2173
19467TIP3    H179892   2.676   3.070  15.689 -0.0575  0.2273 -0.0392
19467TIP3    H279893   2.566   3.173  15.681  0.6292  0.9536 -0.1681
19468TIP3   OH279894   4.912   3.852  11.753  0.0579  0.0610  0.1223
19468TIP3    H179895   4.869   3.777  11.792 -0.5408 -0.2973 -1.1606
19468TIP3    H279896   4.943   3.820  11.668  1.8934  0.6229  0.5359
19469TIP3   OH279897   6.168   0.159   3.701  0.2366 -0.5473  0.2805
19469TIP3    H179898   6.089   0.111   3.675  0.0709  0.4750 -1.2265
19469TIP3    H279899   6.212   0.179   3.619  2.4797 -1.7134  1.1143
19470TIP3   OH279900   6.701   3.508  16.252 -0.4362 -0.5802  0.0028
19470TIP3    H179901   6.706   3.598  16.281  1.1736 -0.9972  1.1113
19470TIP3    H279902   6.636   3.468  16.309  1.0221 -0.8204  1.5630
19471TIP3   OH279903   0.626   2.533  12.761 -0.0921  0.2507  0.3576
19471TIP3    H179904   0.696   2.580  12.716 -2.2099  2.3127 -1.0079
19471TIP3    H279905   0.580   2.486  12.692 -2.0950  1.7283  0.6084
19472TIP3   OH279906   0.194   5.533  10.874  0.4060  0.2666 -0.2587
19472TIP3    H179907   0.132   5.503  10.807  0.3964  2.1675 -1.1844
19472TIP3    H279908   0.229   5.615  10.838  0.7847  1.0799  1.8457
19473TIP3   OH279909   2.881   3.043   6.012  0.2496  0.5483 -0.5020
19473TIP3    H179910   2.973   3.070   6.013  0.2029  0.8250 -1.6547
19473TIP3    H279911   2.832   3.124   6.005 -0.0214  0.3317 -1.1662
19474TIP3   OH279912   5.537   5.641   0.760  0.2234  0.2493 -0.4571
19474TIP3    H179913   5.591   5.719   0.768  3.5760 -1.6860 -2.0086
19474TIP3    H279914   5.557   5.591   0.839 -1.0826  0.4542  0.0203
19475TIP3   OH279915   2.992   0.219  15.192 -0.3801 -0.3582  0.8325
19475TIP3    H179916   3.071   0.218  15.245 -0.0016 -0.1565  0.2838
19475TIP3    H279917   2.945   0.298  15.219  1.1701  1.3097 -1.0557
19476TIP3   OH279918   4.891   1.616   3.255 -0.3719  0.2591  0.6854
19476TIP3    H179919   4.831   1.685   3.283 -0.6188  0.2086  0.2800
19476TIP3    H279920   4.960   1.617   3.321 -0.9088  0.1911  1.2601
19477TIP3   OH279921   1.684   3.971  17.059 -0.2483  0.2319  0.2503
19477TIP3    H179922   1.658   4.026  16.985  0.0877 -0.2987 -0.2699
19477TIP3    H279923   1.779   3.965  17.052 -0.2201  0.1225  0.6896
19478TIP3   OH279924   1.700   6.206   2.684 -0.8803  0.2604 -0.1293
19478TIP3    H179925   1.688   6.137   2.619  0.3143 -0.0310 -0.0618
19478TIP3    H279926   1.784   6.187   2.724 -1.2605  0.8695  0.9934
19479TIP3   OH279927   5.405   5.237   1.882 -0.3545 -0.2569  0.1607
19479TIP3    H179928   5.466   5.236   1.808 -0.7781 -1.0181 -0.1846
19479TIP3    H279929   5.461   5.235   1.959  0.1846  2.5119 -0.0612
19480TIP3   OH279930   6.047   5.141  16.600 -0.0759  0.1781  0.2558
19480TIP3    H179931   6.053   5.093  16.517  2.2931  0.5323  0.1556
19480TIP3    H279932   6.128   5.120  16.646  0.2600  2.6643  0.9644
19481TIP3   OH279933   4.889   0.262  12.767  0.7069  0.2535 -0.1677
19481TIP3    H179934   4.819   0.196  12.770  0.0828  0.8441 -1.2233
19481TIP3    H279935   4.931   0.250  12.683  1.4970  0.3088  0.2094
19482TIP3   OH279936   0.666   4.307  16.029  0.0298 -0.0078  0.5791
19482TIP3    H179937   0.688   4.214  16.030 -0.0643 -0.0420 -0.3974
19482TIP3    H279938   0.614   4.320  16.108  1.0207 -0.5405  1.3425
19483TIP3   OH279939   1.128   0.275  14.652 -0.3964 -0.2847  0.4676
19483TIP3    H179940   1.197   0.337  14.675 -0.1201 -1.0425  1.8412
19483TIP3    H279941   1.135   0.207  14.719 -1.2532 -1.3473 -0.4921
19484TIP3   OH279942   2.058   0.581  11.592  0.0477  0.1435 -0.6261
19484TIP3    H179943   1.984   0.598  11.650  0.8459  1.0047  0.1650
19484TIP3    H279944   2.080   0.489  11.608 -0.8982 -0.1504 -0.9445
19485TIP3   OH279945   5.348   3.796   2.389 -0.3314 -0.5582 -0.1609
19485TIP3    H179946   5.371   3.788   2.481  3.1770 -1.8199 -0.9958
19485TIP3    H279947   5.368   3.710   2.351  0.7440  0.6165 -2.4915
19486TIP3   OH279948   2.020   5.174   0.391 -0.2123  0.2432 -0.0079
19486TIP3    H179949   1.988   5.084   0.397 -2.1013  0.9516  1.8601
19486TIP3    H279950   2.107   5.172   0.429 -0.1962 -0.8087 -0.0755
19487TIP3   OH279951   4.229   3.212  14.913  0.0766  0.3300  0.3162
19487TIP3    H179952   4.279   3.285  14.877 -0.0014 -0.9292 -2.7262
19487TIP3    H279953   4.256   3.137  14.860 -1.4338 -1.4115  1.8638
19488TIP3   OH279954   1.594   4.111   5.372 -0.6042 -0.0109 -0.2163
19488TIP3    H179955   1.499   4.126   5.368 -0.6447  0.2254  1.1163
19488TIP3    H279956   1.606   4.022   5.340 -1.3499 -0.2415  0.1191
19489TIP3   OH279957   5.550   4.892  14.195  0.3855  0.0483 -0.2110
19489TIP3    H179958   5.613   4.956  14.162  2.4887 -2.7099 -2.0449
19489TIP3    H279959   5.470   4.909  14.145  1.1334  0.7876 -1.2021
19490TIP3   OH279960   0.378   0.884   3.264 -0.4903 -0.3151 -0.0002
19490TIP3    H179961   0.469   0.908   3.244 -0.8541  0.3400 -0.9496
19490TIP3    H279962   0.329   0.911   3.186 -1.6114  0.0020  0.7998
19491TIP3   OH279963   1.128   6.520   1.064 -0.1890 -0.1116 -0.0847
19491TIP3    H179964   1.127   6.439   1.116  1.2554 -0.1944 -0.1560
19491TIP3    H279965   1.038   6.552   1.069 -0.5772 -1.2473  0.6933
19492TIP3   OH279966   3.668   2.433  12.979 -0.1016 -0.2907 -0.7081
19492TIP3    H179967   3.681   2.514  12.931 -0.8420 -0.2840 -0.8977
19492TIP3    H279968   3.742   2.377  12.952  1.2243  0.7948  0.4996
19493TIP3   OH279969   0.693   2.812   1.671  0.0726 -1.0653  0.3642
19493TIP3    H179970   0.700   2.861   1.752  2.0565  0.5565 -0.7013
19493TIP3    H279971   0.696   2.720   1.698 -2.3139 -0.6629  2.2883
19494TIP3   OH279972   5.038   5.625   2.755  0.0104 -0.0548 -0.5603
19494TIP3    H179973   5.045   5.599   2.663  0.9763  0.5788 -0.6752
19494TIP3    H279974   4.996   5.550   2.797  1.9391 -1.4995 -1.0314
19495TIP3   OH279975   3.664   3.249   0.075  0.2506 -0.1804 -0.0363
19495TIP3    H179976   3.591   3.233   0.135  0.6435 -0.9893  0.2390
19495TIP3    H279977   3.702   3.163   0.060  1.1298  0.2269 -0.2059
19496TIP3   OH279978   6.518   5.356  15.393 -0.3955 -0.0652  0.2665
19496TIP3    H179979   6.596   5.304  15.414 -1.4551 -0.9120  2.5137
19496TIP3    H279980   6.552   5.433  15.348  1.5620 -1.1967 -0.3357
19497TIP3   OH279981   4.386   1.961   3.926  0.3185  0.1102 -0.0180
19497TIP3    H179982   4.392   1.871   3.894  2.0519  0.1057  0.2385
19497TIP3    H279983   4.405   2.015   3.850 -1.0589  0.3128 -0.2553
19498TIP3   OH279984   6.368   2.890  12.081  0.2260 -0.5948  0.6210
19498TIP3    H179985   6.319   2.887  12.162 -1.5618  1.1125 -0.3242
19498TIP3    H279986   6.440   2.951  12.098 -0.5320  0.2774  0.7358
19499TIP3   OH279987   0.039   2.553  14.713  0.5342  0.0268 -0.0113
19499TIP3    H179988   0.056   2.470  14.667 -1.0176 -0.3682  0.0930
19499TIP3    H279989   0.113   2.609  14.689  1.4000 -1.2338 -0.4240
19500TIP3   OH279990   3.959   1.280   2.441 -0.2570  0.2796 -0.1074
19500TIP3    H179991   3.881   1.316   2.400  2.4291  3.9141 -2.5741
19500TIP3    H279992   4.011   1.244   2.369  0.6523 -1.6744  1.3982
19501TIP3   OH279993   5.477   1.501   5.215  0.0121 -0.0230 -0.2778
19501TIP3    H179994   5.547   1.450   5.255  1.8446  2.9130  0.4792
19501TIP3    H279995   5.408   1.503   5.281 -1.1424 -3.2230 -1.1605
19502TIP3   OH279996   4.755   3.660   1.383  0.0891  0.3724  0.7666
19502TIP3    H179997   4.742   3.753   1.366 -0.6882  0.5344  2.1043
19502TIP3    H279998   4.707   3.616   1.312 -0.5075  0.9913  0.7713
19503TIP3   OH279999   0.098   2.779   4.638  0.1820 -0.0079 -0.1794
19503TIP3    H180000   0.116   2.686   4.623 -1.6797 -0.0840 -2.4112
19503TIP3    H280001   0.072   2.783   4.731  3.2305 -1.1247  0.8476
19504TIP3   OH280002   3.106   2.066   1.044  0.1701  0.6741 -0.6389
19504TIP3    H180003   3.180   2.009   1.065 -1.2899 -0.5924  1.4856
19504TIP3    H280004   3.138   2.123   0.974  2.4572 -1.1658 -1.1887
19505TIP3   OH280005   5.742   1.003   5.556 -0.8078 -0.2795  0.2899
19505TIP3    H180006   5.693   1.013   5.637  1.1682 -1.6258  1.7254
19505TIP3    H280007   5.728   0.911   5.531  0.4987 -0.5337  0.4269
19506TIP3   OH280008   5.231   4.553  11.337  0.6810 -0.4835 -0.1215
19506TIP3    H180009   5.172   4.493  11.292 -0.8810  0.1014  1.0581
19506TIP3    H280010   5.249   4.512  11.421  0.2905  0.2948  0.3522
19507TIP3   OH280011   3.797   3.426   2.144  0.1997 -0.0794  0.6744
19507TIP3    H180012   3.826   3.335   2.150  2.1281  0.5456  2.0425
19507TIP3    H280013   3.822   3.464   2.229 -1.9843  1.3640  0.7576
19508TIP3   OH280014   3.747   2.280   4.327 -0.3236  0.2129  0.5703
19508TIP3    H180015   3.701   2.290   4.411 -1.5362  2.0997 -0.2577
19508TIP3    H280016   3.677   2.267   4.263  0.6381 -2.2570 -0.0807
19509TIP3   OH280017   2.850   1.037   0.462  0.0124  0.4140 -0.0640
19509TIP3    H180018   2.839   0.953   0.506  2.7500  0.7247  1.4765
19509TIP3    H280019   2.891   1.015   0.378  0.6912  0.1858  0.3212
19510TIP3   OH280020   6.794   5.379  16.356 -0.0733  0.1534 -0.2057
19510TIP3    H180021   6.776   5.353  16.446 -0.7824  0.7026 -0.1754
19510TIP3    H280022   6.785   5.298  16.305 -0.6930  0.0337  0.0850
19511TIP3   OH280023   3.072   3.377   1.213  0.4333 -0.0315  0.4068
19511TIP3    H180024   3.081   3.419   1.299  2.6497  1.3973 -0.4367
19511TIP3    H280025   3.048   3.448   1.154  1.3104 -0.5114 -0.5529
19512TIP3   OH280026   1.858   0.635  10.736 -0.8005  0.0266  0.2364
19512TIP3    H180027   1.778   0.653  10.685  1.1402  0.7885 -2.8357
19512TIP3    H280028   1.886   0.549  10.706  0.3387  0.4484  0.0246
19513TIP3   OH280029   1.994   2.898  14.685 -0.7254  0.1186  0.3109
19513TIP3    H180030   1.902   2.874  14.695 -0.7524  0.1714  0.1940
19513TIP3    H280031   2.037   2.818  14.654 -0.1869 -0.7814  3.1455
19514TIP3   OH280032   3.993   2.755   3.814  0.2563 -0.1831 -0.0454
19514TIP3    H180033   3.987   2.676   3.760  1.7526 -0.3841  0.0289
19514TIP3    H280034   4.064   2.737   3.876  0.7710  1.2718 -0.1585
19515TIP3   OH280035   0.103   4.075  16.712 -0.2781 -0.0465  0.2662
19515TIP3    H180036   0.172   4.012  16.693  1.7043  1.6729  1.4401
19515TIP3    H280037   0.030   4.047  16.657  1.3663 -1.8645 -1.1285
19516TIP3   OH280038   5.148   5.886  14.483 -0.3176 -0.2642  0.2122
19516TIP3    H180039   5.125   5.979  14.474 -0.1652 -0.1683  0.7652
19516TIP3    H280040   5.140   5.851  14.395  0.5325  0.4815 -0.1760
19517TIP3   OH280041   5.980   5.386   3.778  0.0136 -0.2093 -0.2373
19517TIP3    H180042   5.973   5.459   3.840 -0.9915  1.0391 -1.7458
19517TIP3    H280043   5.912   5.324   3.807 -0.4750  0.3799 -0.0988
19518TIP3   OH280044   4.819   5.479   3.039 -0.2242 -0.8407 -0.8533
19518TIP3    H180045   4.744   5.522   2.997 -0.1461 -0.8751 -1.0276
19518TIP3    H280046   4.849   5.543   3.104 -1.7437 -1.6867  0.7558
19519TIP3   OH280047   2.398   3.576   0.146  0.3654  0.0828  0.3146
19519TIP3    H180048   2.465   3.539   0.089 -0.2887 -1.4920  0.5211
19519TIP3    H280049   2.417   3.541   0.233  0.1565  0.8339  0.6746
19520TIP3   OH280050   1.385   2.665  11.553  0.5879  0.1867 -0.2716
19520TIP3    H180051   1.417   2.576  11.566  1.0648  0.5806  1.5049
19520TIP3    H280052   1.392   2.680  11.459  1.0096 -1.4527 -0.5223
19521TIP3   OH280053   3.980   1.865  15.298  0.3894  0.9734 -0.1624
19521TIP3    H180054   3.966   1.770  15.298 -1.2194  1.1090 -2.5880
19521TIP3    H280055   4.073   1.875  15.276  1.2512  0.0347  2.6318
19522TIP3   OH280056   0.371   2.944  13.673 -0.3998  0.3810 -0.5044
19522TIP3    H180057   0.439   2.895  13.627  0.1527  0.5058  0.1601
19522TIP3    H280058   0.291   2.893  13.660 -0.1242  0.0923 -1.0739
19523TIP3   OH280059   0.028   1.299  16.515 -0.1446  0.7341 -0.4213
19523TIP3    H180060   0.042   1.388  16.549  1.9026  0.0043  0.8084
19523TIP3    H280061  -0.031   1.258  16.579 -0.1510  0.8408 -0.3567
19524TIP3   OH280062   1.682   4.792   4.758 -0.1396 -0.3459 -0.6112
19524TIP3    H180063   1.683   4.886   4.776 -0.2594 -0.2963 -0.8474
19524TIP3    H280064   1.646   4.786   4.669 -0.9696 -0.6637 -0.2645
19525TIP3   OH280065   5.593   6.379   5.740 -0.0272 -0.0972 -0.0842
19525TIP3    H180066   5.533   6.417   5.676  0.1930  0.7462  0.1845
19525TIP3    H280067   5.629   6.302   5.697  0.6689  0.8518 -1.2925
19526TIP3   OH280068   1.072   3.915  14.142 -0.0597 -0.1385  0.5497
19526TIP3    H180069   1.006   3.862  14.187 -0.6485  0.0260 -0.1009
19526TIP3    H280070   1.068   3.886  14.051  0.5335  0.1075  0.4403
19527TIP3   OH280071   0.746   4.911   2.430  0.3565 -0.0534 -0.2761
19527TIP3    H180072   0.836   4.936   2.450  0.7888 -2.6408  1.4340
19527TIP3    H280073   0.753   4.850   2.357 -0.1541  0.5082 -0.8135
19528TIP3   OH280074   2.886   6.384   3.676  0.4754 -0.5137 -0.1995
19528TIP3    H180075   2.965   6.404   3.626  0.9271 -0.0628  0.6772
19528TIP3    H280076   2.914   6.316   3.738 -0.0713 -1.0485 -0.5304
19529TIP3   OH280077   4.249   5.247   2.460 -0.3464  0.1152  0.4129
19529TIP3    H180078   4.247   5.152   2.460 -0.1711  0.0523  2.9600
19529TIP3    H280079   4.186   5.273   2.527 -0.7890  1.8377 -0.6025
19530TIP3   OH280080   3.454   1.807  11.754 -0.2975  0.3309  0.3043
19530TIP3    H180081   3.412   1.881  11.799  0.0461  1.0897 -0.5927
19530TIP3    H280082   3.443   1.826  11.661  0.1218 -0.5683  0.0596
19531TIP3   OH280083   1.115   3.641   4.729 -0.5918 -0.4940 -0.2785
19531TIP3    H180084   1.204   3.606   4.735 -0.1725  0.2425 -1.6518
19531TIP3    H280085   1.116   3.695   4.650 -1.6340  1.3075  0.8598
19532TIP3   OH280086   2.952   0.675  11.354  0.6323 -0.0617 -0.5249
19532TIP3    H180087   3.038   0.690  11.394 -0.2862 -2.5398  2.8368
19532TIP3    H280088   2.890   0.711  11.417 -0.8850 -1.2568 -1.2640
19533TIP3   OH280089   4.060   6.507  16.258 -0.0282  0.1681  0.4667
19533TIP3    H180090   4.019   6.486  16.343 -0.7215  0.4366  0.2128
19533TIP3    H280091   3.996   6.565  16.216  0.0178 -0.4767 -0.5057
19534TIP3   OH280092   5.324   0.934   0.025 -0.6645 -0.1296 -0.4823
19534TIP3    H180093   5.354   0.847  -0.000 -0.5280 -0.4800  0.7990
19534TIP3    H280094   5.390   0.993  -0.011 -1.0602 -0.4951 -1.8509
19535TIP3   OH280095   1.285   0.534   3.726  0.1325 -0.1158  0.2383
19535TIP3    H180096   1.206   0.563   3.682 -0.3380  0.3239  1.3364
19535TIP3    H280097   1.346   0.513   3.655 -0.9915 -0.5680 -0.6244
19536TIP3   OH280098   4.646   1.951   5.300  0.1279 -0.0852  0.4646
19536TIP3    H180099   4.614   1.869   5.336  1.5544  0.7913  4.1567
19536TIP3    H280100   4.580   2.016   5.325 -0.6263  0.1045 -1.7813
19537TIP3   OH280101   3.226   1.919   4.151  0.1285 -0.7060  0.2745
19537TIP3    H180102   3.192   1.842   4.195 -0.5244 -0.1824  0.7030
19537TIP3    H280103   3.192   1.913   4.061 -2.0672  0.3468  0.9609
19538TIP3   OH280104   4.432   2.270  16.682 -0.5744  0.3441  0.1824
19538TIP3    H180105   4.442   2.229  16.596 -1.0499  0.1749  0.2023
19538TIP3    H280106   4.357   2.328  16.672 -1.0556 -0.1838  0.6689
19539TIP3   OH280107   1.979   5.638  16.747  0.3073 -0.5937 -0.5617
19539TIP3    H180108   1.984   5.563  16.806 -1.1098 -0.2688  0.0092
19539TIP3    H280109   1.908   5.692  16.782 -0.6086 -0.3993 -2.5361
19540TIP3   OH280110   2.039   6.616  13.904  0.2112 -0.1266 -0.0556
19540TIP3    H180111   2.069   6.540  13.954 -0.2455  1.0241  2.1066
19540TIP3    H280112   1.978   6.580  13.840 -1.4502 -1.4516  2.1398
19541TIP3   OH280113   2.517   0.267  10.763 -0.2724 -0.5215  0.4499
19541TIP3    H180114   2.574   0.343  10.766 -0.3596 -0.4778  1.2427
19541TIP3    H280115   2.574   0.193  10.781 -0.7002 -0.3211  3.0444
19542TIP3   OH280116   4.270   1.516   2.400  0.4923 -0.4674 -0.1967
19542TIP3    H180117   4.329   1.446   2.370  0.3880 -0.4529 -0.4366
19542TIP3    H280118   4.288   1.589   2.341 -0.5782 -0.8335 -1.0127
19543TIP3   OH280119   0.271   0.129   5.793  0.1407 -0.1793  0.3548
19543TIP3    H180120   0.329   0.200   5.822 -0.1023 -0.8962  2.8302
19543TIP3    H280121   0.293   0.117   5.701 -0.3244  3.5565 -0.4159
19544TIP3   OH280122   3.557   3.500  14.882 -0.0066  0.6810  0.6333
19544TIP3    H180123   3.479   3.553  14.897 -0.5938  0.0551 -0.0672
19544TIP3    H280124   3.593   3.484  14.969 -0.0481  1.8747  0.8783
19545TIP3   OH280125   5.900   5.845  11.220  0.3690  0.0005  0.5517
19545TIP3    H180126   5.981   5.804  11.250  0.5120 -0.3574 -0.2647
19545TIP3    H280127   5.893   5.818  11.128  0.9683  2.5768 -0.3486
19546TIP3   OH280128   1.089   0.766  15.464  0.6568  0.5522  0.0207
19546TIP3    H180129   1.023   0.734  15.525  1.9991 -0.3871  1.0487
19546TIP3    H280130   1.086   0.861  15.473 -1.3671  0.6180 -0.8788
19547TIP3   OH280131   3.359   6.601  13.241 -0.3451  0.4044  0.4211
19547TIP3    H180132   3.314   6.681  13.269  0.7321  1.1996 -0.0694
19547TIP3    H280133   3.379   6.555  13.323 -0.3696  0.9628  0.7426
19548TIP3   OH280134   3.558   1.895   1.998  0.4413 -0.1188  0.2935
19548TIP3    H180135   3.620   1.846   2.053  1.1703 -1.6658 -1.7786
19548TIP3    H280136   3.613   1.935   1.930 -0.5301  0.9651  0.1309
19549TIP3   OH280137   2.489   6.128   2.711  0.1137  0.0553  0.2478
19549TIP3    H180138   2.567   6.167   2.671 -0.1648  0.5692  0.1935
19549TIP3    H280139   2.523   6.067   2.776  0.6103 -1.5837 -1.4438
19550TIP3   OH280140   5.397   3.134  15.810 -0.0433  0.0741  0.5101
19550TIP3    H180141   5.323   3.117  15.867 -0.0028  0.5398  0.7104
19550TIP3    H280142   5.445   3.205  15.854 -1.0133  1.7390 -0.9966
19551TIP3   OH280143   3.536   0.886   2.453 -0.4455 -0.3054  0.3797
19551TIP3    H180144   3.576   0.830   2.386  2.0493 -0.0207  1.5152
19551TIP3    H280145   3.491   0.954   2.403  0.9791 -0.3273 -1.0343
19552TIP3   OH280146   5.268   2.592   1.356  0.2089 -1.1497  0.3720
19552TIP3    H180147   5.295   2.501   1.361  0.5985 -0.9737  1.9038
19552TIP3    H280148   5.173   2.589   1.345  0.2454 -1.7405  0.2148
19553TIP3   OH280149   5.121   2.064  13.256  0.3583  0.1593 -1.2045
19553TIP3    H180150   5.027   2.049  13.270  0.6161  0.9236  2.4498
19553TIP3    H280151   5.158   1.976  13.249 -0.3089 -0.3906  1.0830
19554TIP3   OH280152   0.669   0.078  15.629  0.3908 -0.0035 -0.6929
19554TIP3    H180153   0.721   0.018  15.682  1.7541  0.9813 -0.8560
19554TIP3    H280154   0.595   0.101  15.685 -0.1403 -1.7695 -0.6128
19555TIP3   OH280155   6.511   0.031  15.430 -0.5519  0.1587  0.1951
19555TIP3    H180156   6.553   0.034  15.515 -0.6470 -0.3589  0.2601
19555TIP3    H280157   6.582   0.017  15.368 -0.3784  1.3182  0.0998
19556TIP3   OH280158   5.847   1.259  13.486  0.2964  0.1698 -0.4435
19556TIP3    H180159   5.790   1.182  13.489  0.5358 -0.1331 -2.5682
19556TIP3    H280160   5.796   1.327  13.530 -0.4230 -0.8562  0.3876
19557TIP3   OH280161   4.156   3.209   2.851 -0.1858  0.2225 -0.0075
19557TIP3    H180162   4.134   3.256   2.931 -1.5307  0.3132 -0.4078
19557TIP3    H280163   4.161   3.278   2.784 -0.8964 -0.0438 -0.3464
19558TIP3   OH280164   2.287   6.167  14.017 -0.0844  0.1404  0.1389
19558TIP3    H180165   2.306   6.173  14.111  0.4048 -0.2471  0.0701
19558TIP3    H280166   2.371   6.183  13.975 -0.2771  0.1808 -0.2331
19559TIP3   OH280167   6.074   1.006  16.341 -0.0716 -0.2957  0.0755
19559TIP3    H180168   6.003   1.007  16.276 -0.5503 -0.1790  0.5942
19559TIP3    H280169   6.153   0.990  16.289 -0.3224  0.7023 -0.6691
19560TIP3   OH280170   4.895   2.507  13.026 -0.1392 -0.6295  0.0446
19560TIP3    H180171   4.877   2.417  13.053 -1.3668 -0.3553  0.2120
19560TIP3    H280172   4.849   2.561  13.090  0.0794  0.1010 -0.4042
19561TIP3   OH280173   2.665   4.628  14.212 -0.1073 -0.1795  0.2199
19561TIP3    H180174   2.708   4.668  14.137  0.7875  0.4674  1.0563
19561TIP3    H280175   2.666   4.695  14.280  2.8054 -1.9695  2.1833
19562TIP3   OH280176   3.893   1.803   2.652 -0.3508 -0.1490  0.4343
19562TIP3    H180177   3.865   1.824   2.741 -1.4343 -0.8733  0.2739
19562TIP3    H280178   3.948   1.725   2.662  2.1339  1.5334  0.8053
19563TIP3   OH280179   3.905   3.140   3.547  0.0360 -0.0019 -0.6207
19563TIP3    H180180   3.975   3.154   3.611 -0.3387 -0.6315 -0.0571
19563TIP3    H280181   3.949   3.103   3.471  0.4111  0.2270 -0.5172
19564TIP3   OH280182   6.423   4.915  10.500 -0.1998  0.1040  0.4640
19564TIP3    H180183   6.386   4.827  10.506  0.4223 -0.1225  1.3849
19564TIP3    H280184   6.492   4.915  10.567  0.1326  1.1322  0.1293
19565TIP3   OH280185   0.114   5.882   1.553 -0.1288 -0.1562  0.0923
19565TIP3    H180186   0.106   5.792   1.523 -0.3896 -0.4677  1.0646
19565TIP3    H280187   0.207   5.893   1.573 -0.1242 -0.2607  0.1272
19566TIP3   OH280188   1.123   0.116   2.947 -0.0466 -0.0200 -0.4062
19566TIP3    H180189   1.153   0.174   2.878  0.6786  1.5882  1.1947
19566TIP3    H280190   1.200   0.064   2.970  0.1803  0.6087  0.2934
19567TIP3   OH280191   2.437   6.644  12.679  0.4560 -0.1612  0.0287
19567TIP3    H180192   2.464   6.732  12.706  1.5184 -0.0832 -1.1983
19567TIP3    H280193   2.476   6.632  12.593  0.9924 -2.1512  0.5006
19568TIP3   OH280194   3.239   0.826  13.245 -0.4526  0.5727  0.2098
19568TIP3    H180195   3.170   0.779  13.292  0.2268 -0.6099  0.0616
19568TIP3    H280196   3.312   0.829  13.306 -1.0488  3.0894  0.9160
19569TIP3   OH280197   0.688   5.201   1.835  0.3968  0.6160  0.2606
19569TIP3    H180198   0.734   5.154   1.765 -1.5795 -0.0461 -0.6884
19569TIP3    H280199   0.634   5.265   1.788 -1.1075  0.0312  1.1383
19570TIP3   OH280200   6.532   6.725  12.052 -0.6778  0.2633 -0.5073
19570TIP3    H180201   6.478   6.798  12.081 -0.2276  0.0148  1.0600
19570TIP3    H280202   6.472   6.669  12.001 -1.3084  1.1096 -0.7108
19571TIP3   OH280203   1.393   4.000  15.196 -0.1514 -0.2656 -0.1953
19571TIP3    H180204   1.469   3.944  15.212 -0.3915 -1.4003 -2.6011
19571TIP3    H280205   1.431   4.084  15.169  0.2376 -0.3466  0.0853
19572TIP3   OH280206   0.630   0.048  16.025  0.1769  0.6075 -0.2526
19572TIP3    H180207   0.558   0.037  15.963  0.1404  0.1752 -0.1341
19572TIP3    H280208   0.679  -0.034  16.021  2.0819  1.7295 -2.1254
19573TIP3   OH280209   4.668   3.591  10.569 -0.4079  0.1856 -0.1306
19573TIP3    H180210   4.686   3.497  10.573 -0.9709  0.1020  0.7261
19573TIP3    H280211   4.749   3.629  10.536 -0.2737 -0.6245 -0.7812
19574TIP3   OH280212   0.380   5.418  15.963 -0.1485  0.1502  0.0244
19574TIP3    H180213   0.285   5.402  15.964  0.0081 -1.2282 -1.6555
19574TIP3    H280214   0.416   5.347  16.017 -0.0844  1.2149  1.4462
19575TIP3   OH280215   5.290   3.207   2.572 -0.2789 -0.1384  0.2237
19575TIP3    H180216   5.214   3.191   2.628 -1.9610  0.0064 -1.8956
19575TIP3    H280217   5.282   3.299   2.546 -0.5697 -0.6404 -1.6151
19576TIP3   OH280218   1.578   5.897  12.466  0.8842 -0.2326 -0.1956
19576TIP3    H180219   1.535   5.843  12.400 -0.0189  0.5028 -0.2226
19576TIP3    H280220   1.527   5.882  12.546  2.6350 -2.0085  0.6905
19577TIP3   OH280221   2.478   2.708   1.792 -0.1312  0.7830 -0.3892
19577TIP3    H180222   2.492   2.683   1.884  0.0439  0.6842 -0.4407
19577TIP3    H280223   2.423   2.786   1.796  2.1411  2.4628 -0.0808
19578TIP3   OH280224   0.338   1.026   1.459  0.1511 -0.7261  0.8187
19578TIP3    H180225   0.347   1.112   1.500 -0.7892 -1.4808  2.7210
19578TIP3    H280226   0.376   0.965   1.522  1.6094 -1.6733 -0.8924
19579TIP3   OH280227   3.152   1.653   3.691  0.4108 -0.1771  0.6903
19579TIP3    H180228   3.063   1.622   3.708  0.9950 -2.0014  0.6266
19579TIP3    H280229   3.208   1.578   3.710  1.7384  0.1308 -1.6394
19580TIP3   OH280230   3.291   3.079   6.206  0.0003 -0.0328 -0.5073
19580TIP3    H180231   3.217   3.120   6.253 -0.8670 -0.2003 -1.6794
19580TIP3    H280232   3.358   3.068   6.273  0.2263  3.1241 -0.0708
19581TIP3   OH280233   0.413   2.157   4.295 -0.2504  0.9775 -0.5557
19581TIP3    H180234   0.401   2.209   4.215  0.5001 -0.4546 -1.6537
19581TIP3    H280235   0.436   2.221   4.362  0.2791  2.1004 -1.7640
19582TIP3   OH280236   2.443   1.134  13.239 -0.0502  0.9195 -0.8745
19582TIP3    H180237   2.377   1.201  13.258 -2.2456 -1.5250  0.6727
19582TIP3    H280238   2.405   1.082  13.168  0.7426  0.1768 -0.7738
19583TIP3   OH280239   6.576   3.269   4.730  0.1891  0.5502 -0.3388
19583TIP3    H180240   6.499   3.316   4.762  0.5933  1.4769 -0.6699
19583TIP3    H280241   6.614   3.328   4.665  1.4531  0.3397  0.1793
19584TIP3   OH280242   3.845   4.185  16.704  0.3650  0.1549 -0.1469
19584TIP3    H180243   3.795   4.180  16.623  0.2556 -0.2762 -0.0559
19584TIP3    H280244   3.826   4.103  16.749 -0.3277  0.7928  0.7605
19585TIP3   OH280245   4.999   3.370  13.313 -0.6075  0.5734  0.5204
19585TIP3    H180246   5.084   3.408  13.290 -0.2736  0.6685  1.8585
19585TIP3    H280247   5.001   3.282  13.277  0.7505 -0.0325  1.9911
19586TIP3   OH280248   5.055   0.018   4.870 -0.0320 -0.0748  0.2087
19586TIP3    H180249   5.068   0.108   4.840 -0.6847 -0.1949 -0.4468
19586TIP3    H280250   5.047   0.025   4.965  2.0666  0.3154  0.4152
19587TIP3   OH280251   0.947   6.212   2.631  0.1986 -0.9796 -0.8551
19587TIP3    H180252   1.037   6.184   2.620  0.1603 -1.3184 -0.3234
19587TIP3    H280253   0.899   6.171   2.559 -0.1626 -3.6629  0.7919
19588TIP3   OH280254   3.358   0.131  17.071  0.0852 -0.3674  0.0298
19588TIP3    H180255   3.420   0.065  17.099 -0.0776 -0.5925 -0.1327
19588TIP3    H280256   3.273   0.100  17.104 -0.1176 -0.6744 -0.7584
19589TIP3   OH280257   5.952   6.675   4.755 -0.1834  0.2379  0.5492
19589TIP3    H180258   5.981   6.765   4.766 -5.0988  2.4362 -1.3965
19589TIP3    H280259   5.894   6.660   4.830  0.5949 -1.3967  0.8657
19590TIP3   OH280260   0.769   0.729   0.866  0.4290  0.1577  0.7022
19590TIP3    H180261   0.807   0.758   0.783  2.4826  0.6237  1.7310
19590TIP3    H280262   0.802   0.640   0.878  0.3029  0.1628  1.1055
19591TIP3   OH280263   3.507   5.198  11.692 -0.4844  0.3582 -0.5243
19591TIP3    H180264   3.576   5.252  11.731  0.4393 -2.0188  1.4009
19591TIP3    H280265   3.512   5.116  11.740 -2.9831 -0.8271 -2.1238
19592TIP3   OH280266   4.758   0.506   1.049  0.2137  0.5751 -0.3417
19592TIP3    H180267   4.715   0.460   0.978 -1.4031 -0.3111  1.1340
19592TIP3    H280268   4.729   0.597   1.041  0.0668  0.4883 -0.8054
19593TIP3   OH280269   0.657   0.004   4.425 -0.3837  0.2580 -0.6419
19593TIP3    H180270   0.752  -0.007   4.418 -0.2698 -0.7855  1.6441
19593TIP3    H280271   0.621  -0.069   4.374  0.0614  0.0723 -0.6938
19594TIP3   OH280272   4.369   4.649  11.638  0.2762  0.3079 -0.6050
19594TIP3    H180273   4.354   4.651  11.543 -0.1574 -3.0982 -0.7310
19594TIP3    H280274   4.281   4.636  11.675  0.8494 -3.1869 -0.1752
19595TIP3   OH280275   5.746   0.591  15.243  0.2664  0.3286  0.0006
19595TIP3    H180276   5.676   0.653  15.220 -0.4026 -0.3398  0.1826
19595TIP3    H280277   5.701   0.522  15.292  1.3256  0.7201  1.5957
19596TIP3   OH280278   6.461   4.935   4.095 -0.2001  0.2150  0.0098
19596TIP3    H180279   6.480   4.880   4.019 -0.5197  1.0622 -0.7046
19596TIP3    H280280   6.541   4.984   4.109 -0.6164  1.1376 -0.7260
19597TIP3   OH280281   1.475   3.081   2.283  0.2284  0.0046  0.3487
19597TIP3    H180282   1.458   3.022   2.210 -1.0416 -1.2258  1.5585
19597TIP3    H280283   1.419   3.048   2.354  1.3244  1.1975  1.8503
19598TIP3   OH280284   6.786   1.569   4.657  0.1959  0.2582 -0.4779
19598TIP3    H180285   6.863   1.589   4.711 -0.2974  0.7027  0.0604
19598TIP3    H280286   6.802   1.615   4.575  0.8198 -0.1963 -0.6213
19599TIP3   OH280287   1.425   6.280   3.111  0.5820  0.8044  0.3204
19599TIP3    H180288   1.423   6.340   3.186  0.7898 -0.2501  1.1880
19599TIP3    H280289   1.351   6.221   3.125  1.5925 -0.4411  0.5882
19600TIP3   OH280290   3.306   6.058  13.032 -0.2714 -0.0224  0.3295
19600TIP3    H180291   3.265   6.012  13.106 -0.9301 -1.6103 -0.9620
19600TIP3    H280292   3.248   6.132  13.016 -0.6935 -0.2479  0.7593
19601TIP3   OH280293   3.290   4.931   0.350  0.1321  0.1507  0.4223
19601TIP3    H180294   3.386   4.928   0.356  0.2644 -0.2877 -1.3768
19601TIP3    H280295   3.272   5.019   0.317 -0.1836  0.6116  1.7631
19602TIP3   OH280296   3.845   0.582   2.620 -0.5642  0.8409  0.0247
19602TIP3    H180297   3.820   0.570   2.711  0.8830 -1.5582  0.2167
19602TIP3    H280298   3.771   0.549   2.570 -0.2059 -0.6716  0.4412
19603TIP3   OH280299   2.824   1.304  11.321 -0.3281 -0.0224  0.7923
19603TIP3    H180300   2.815   1.337  11.410 -1.9506  0.0437  0.6328
19603TIP3    H280301   2.805   1.211  11.328  0.5342 -0.2130  0.6617
19604TIP3   OH280302   4.129   3.278  12.672 -0.9235 -0.1593  0.3312
19604TIP3    H180303   4.170   3.295  12.587  0.9471 -3.0580  0.5002
19604TIP3    H280304   4.189   3.318  12.735 -1.0776  0.0136  0.3663
19605TIP3   OH280305   6.833   3.158  13.466  0.5883  0.2302 -0.2112
19605TIP3    H180306   6.813   3.070  13.434  2.0095 -0.5342  0.8844
19605TIP3    H280307   6.806   3.156  13.558  1.0409  0.7956 -0.0642
19606TIP3   OH280308   0.017   2.629   6.295  0.1503 -0.3574  0.1804
19606TIP3    H180309   0.060   2.622   6.380  1.7228  1.6488 -0.3587
19606TIP3    H280310  -0.050   2.697   6.308 -0.2163 -0.6888  0.0348
19607TIP3   OH280311   6.479   0.489   4.888  0.1757  0.2641 -0.4742
19607TIP3    H180312   6.405   0.454   4.938  0.0711  0.2072 -0.6658
19607TIP3    H280313   6.518   0.556   4.944  0.9576 -0.8118  0.3111
19608TIP3   OH280314   4.488   3.604  16.731 -0.5168  0.5940 -0.1144
19608TIP3    H180315   4.583   3.613  16.734 -0.5761  2.5018 -2.0733
19608TIP3    H280316   4.472   3.546  16.657 -0.8996  2.6386 -1.7236
19609TIP3   OH280317   3.334   5.616  12.077 -0.8530  0.1087  0.5862
19609TIP3    H180318   3.246   5.591  12.104 -0.8251 -3.4536 -1.8427
19609TIP3    H280319   3.326   5.636  11.983  0.6051  1.8098  0.7700
19610TIP3   OH280320   3.720   6.108   5.166 -0.8766  0.1659 -0.4052
19610TIP3    H180321   3.771   6.179   5.204  0.3638 -0.4709 -0.8533
19610TIP3    H280322   3.755   6.097   5.077 -0.1221 -1.8649  0.0835
19611TIP3   OH280323   0.662   0.219  12.587 -0.4127  0.5551 -0.3711
19611TIP3    H180324   0.633   0.148  12.530 -0.1871  0.5493 -0.4829
19611TIP3    H280325   0.662   0.297  12.532 -0.5396  0.6183 -0.2825
19612TIP3   OH280326   5.491   3.269  13.322 -0.3830 -0.0936 -0.4307
19612TIP3    H180327   5.483   3.309  13.408  1.2550  0.5095 -0.5175
19612TIP3    H280328   5.436   3.191  13.326 -1.2191  0.5210  0.7621
19613TIP3   OH280329   3.379   0.969   3.515  0.2989  0.4983 -1.1330
19613TIP3    H180330   3.368   1.064   3.507 -1.2709  0.3384 -1.2799
19613TIP3    H280331   3.309   0.932   3.461 -1.5745 -0.6927  1.8568
19614TIP3   OH280332   6.178   4.427   1.172  0.1217 -0.3873 -0.2781
19614TIP3    H180333   6.096   4.415   1.124 -1.4665  0.6713  1.9774
19614TIP3    H280334   6.245   4.437   1.104 -1.9523  1.0393 -2.2615
19615TIP3   OH280335   4.356   5.088  14.485  0.5099  0.0877 -0.0717
19615TIP3    H180336   4.347   5.008  14.434  2.7902 -0.1151 -0.2586
19615TIP3    H280337   4.339   5.159  14.423 -0.2359 -0.2091 -0.2176
19616TIP3   OH280338   3.637   3.743   5.451  0.7412 -0.4002 -0.1099
19616TIP3    H180339   3.704   3.764   5.517 -0.3771 -0.9109  1.2275
19616TIP3    H280340   3.597   3.662   5.483  0.2393 -0.7113 -1.4936
19617TIP3   OH280341   0.476   5.279  11.179  0.5498  0.1091  0.6251
19617TIP3    H180342   0.426   5.306  11.103 -1.5651 -1.1197  1.5070
19617TIP3    H280343   0.564   5.263  11.145 -0.4131 -0.7930 -1.6354
19618TIP3   OH280344   3.044   1.373   1.901  0.2492 -0.2033  0.6621
19618TIP3    H180345   3.135   1.380   1.872  0.8048 -1.0527  2.0880
19618TIP3    H280346   3.050   1.341   1.991 -1.4858 -1.3326  0.4311
19619TIP3   OH280347   1.039   2.809  16.045  0.6810  0.6997 -0.6499
19619TIP3    H180348   1.080   2.725  16.023  0.9142  0.8751 -0.9085
19619TIP3    H280349   0.948   2.788  16.064  0.9063  0.2876  0.0141
19620TIP3   OH280350   6.189   2.420   3.170  0.2769  0.5554  0.0027
19620TIP3    H180351   6.203   2.385   3.258 -1.5005  1.3578  0.6520
19620TIP3    H280352   6.141   2.502   3.184 -0.2753  0.5649 -1.7246
19621TIP3   OH280353   1.510   2.085   5.188  0.3320  0.0582 -0.6764
19621TIP3    H180354   1.458   2.027   5.244 -1.1158  1.9121  0.0167
19621TIP3    H280355   1.553   2.145   5.249  1.3486  0.0917 -1.4026
19622TIP3   OH280356   1.600   1.621   4.560 -0.1673 -0.0859  0.1007
19622TIP3    H180357   1.688   1.596   4.531 -0.4939 -0.2076 -0.7957
19622TIP3    H280358   1.584   1.565   4.636  0.0144 -0.9876 -0.5110
19623TIP3   OH280359   0.276   4.488   5.290  0.7016 -0.1703  0.3006
19623TIP3    H180360   0.252   4.405   5.331  0.6263  0.3394  1.3102
19623TIP3    H280361   0.284   4.467   5.196  0.8353 -1.3441  0.5602
19624TIP3   OH280362   5.305   1.604   0.002  0.0299  0.5547  0.7894
19624TIP3    H180363   5.331   1.514   0.024  0.8845  0.8531  1.0060
19624TIP3    H280364   5.230   1.593  -0.057  1.4590 -0.3514 -0.9538
19625TIP3   OH280365   5.712   2.141   4.989 -0.3782  0.0964 -0.4242
19625TIP3    H180366   5.682   2.107   5.073  1.8684  0.0931  0.4371
19625TIP3    H280367   5.722   2.064   4.934 -0.7651 -0.0178 -0.3374
19626TIP3   OH280368   0.909   2.750  14.850  0.0450  0.0695  0.1733
19626TIP3    H180369   0.986   2.781  14.897  0.3173 -1.7139  1.0192
19626TIP3    H280370   0.838   2.757  14.914 -0.1784  0.2658 -0.0942
19627TIP3   OH280371   5.593   5.379  13.146 -0.0763  0.1595 -0.0451
19627TIP3    H180372   5.636   5.453  13.189 -0.0155  0.6381 -0.9057
19627TIP3    H280373   5.519   5.419  13.100 -0.0035 -0.3002 -0.5679
19628TIP3   OH280374   6.084   2.820   5.085  0.0581 -0.0920  0.4518
19628TIP3    H180375   6.045   2.769   5.156  1.3176 -1.2037  0.3853
19628TIP3    H280376   6.104   2.756   5.018 -0.1477  0.8005 -0.4800
19629TIP3   OH280377   1.590   6.213  13.751 -0.1556 -0.0457  0.3881
19629TIP3    H180378   1.554   6.198  13.663 -1.7446  2.4464  0.5308
19629TIP3    H280379   1.526   6.173  13.810 -0.8998  1.2527  0.4991
19630TIP3   OH280380   2.010   6.625  12.203 -0.5579 -0.1360  0.1374
19630TIP3    H180381   2.039   6.547  12.157 -0.0583 -0.5285  1.1029
19630TIP3    H280382   1.916   6.612  12.216 -0.2698 -1.1973  1.4207
19631TIP3   OH280383   0.467   4.442   0.544  0.0983  0.4917 -0.5312
19631TIP3    H180384   0.549   4.434   0.593  0.3468  0.4846 -0.9413
19631TIP3    H280385   0.413   4.501   0.597 -0.4259 -1.0849  0.7720
19632TIP3   OH280386   4.150   4.799  15.063  0.1524 -0.5124 -0.5057
19632TIP3    H180387   4.122   4.880  15.021 -0.0757 -0.8090 -0.9464
19632TIP3    H280388   4.115   4.804  15.152 -0.3815 -0.3903 -0.7148
19633TIP3   OH280389   0.237   0.999  15.614  0.1199 -0.4993 -0.1087
19633TIP3    H180390   0.258   0.942  15.540 -0.2504 -0.3843 -0.3073
19633TIP3    H280391   0.322   1.021  15.652  0.4613  0.7932 -1.5249
19634TIP3   OH280392   3.639   4.264  10.802  0.4586 -0.3918  0.5661
19634TIP3    H180393   3.711   4.305  10.852  1.6097 -1.8166  0.1479
19634TIP3    H280394   3.669   4.175  10.787 -1.2460 -0.8895 -0.0127
19635TIP3   OH280395   3.295   3.350  12.330  0.3776 -0.1880  0.2082
19635TIP3    H180396   3.388   3.340  12.311  0.1917 -1.2066 -0.2729
19635TIP3    H280397   3.272   3.271  12.378 -0.4270 -0.4069 -0.5003
19636TIP3   OH280398   2.226   6.134   5.172  0.2472 -0.7916 -0.7875
19636TIP3    H180399   2.278   6.210   5.199 -2.6834  1.2352 -0.4556
19636TIP3    H280400   2.239   6.071   5.243 -0.8262  1.2307  1.3537
19637TIP3   OH280401   2.822   4.043  13.092  1.3165 -0.0968 -0.3329
19637TIP3    H180402   2.742   4.043  13.040  1.3149 -1.9793 -0.4203
19637TIP3    H280403   2.806   4.106  13.162  0.5016  0.9252 -1.4175
19638TIP3   OH280404   4.473   5.700  12.363 -0.3625 -0.4657  0.0035
19638TIP3    H180405   4.486   5.684  12.269 -0.6600 -0.9430  0.0425
19638TIP3    H280406   4.516   5.784  12.379  0.4710 -0.8054 -0.3808
19639TIP3   OH280407   4.435   4.340   0.158  0.1901  0.4922 -0.3281
19639TIP3    H180408   4.376   4.337   0.083 -0.1862 -2.4097 -0.0139
19639TIP3    H280409   4.385   4.387   0.225 -0.8768  0.0573 -0.7883
19640TIP3   OH280410   0.512   6.053  10.968 -0.6471 -0.0064 -0.1330
19640TIP3    H180411   0.441   6.012  10.920 -0.2765 -0.7803 -0.0325
19640TIP3    H280412   0.563   6.099  10.901  0.1592 -1.5064 -0.5749
19641TIP3   OH280413   1.261   4.114  14.471 -0.4610  0.2266  0.2371
19641TIP3    H180414   1.289   4.128  14.562  0.3997 -0.3016  0.0687
19641TIP3    H280415   1.231   4.200  14.442  1.6344  1.0350  0.2467
19642TIP3   OH280416   4.623   2.056   4.060  0.4322  0.0052 -0.6030
19642TIP3    H180417   4.643   2.144   4.027 -1.0801  0.8967  0.6817
19642TIP3    H280418   4.554   2.024   4.002  1.3702 -0.6028 -1.4150
19643TIP3   OH280419   2.978   3.298  16.865  0.3953  0.0162 -0.1010
19643TIP3    H180420   2.927   3.366  16.821 -0.4304 -0.2091  0.5005
19643TIP3    H280421   2.937   3.216  16.838 -0.0137 -0.1318  0.9529
19644TIP3   OH280422   4.271   2.613   4.195  0.1160 -0.5576  0.1678
19644TIP3    H180423   4.263   2.554   4.270  0.9298 -2.1054 -0.9126
19644TIP3    H280424   4.344   2.577   4.144 -0.2237  0.6278 -1.2185
19645TIP3   OH280425   4.106   4.548  16.132  0.4392  0.0518 -0.6025
19645TIP3    H180426   4.096   4.531  16.038  1.1174  0.2324 -0.7141
19645TIP3    H280427   4.017   4.549  16.166  0.2556 -1.2965 -1.0110
19646TIP3   OH280428   3.016   4.167  14.345  0.1660 -0.3497  0.0452
19646TIP3    H180429   3.078   4.239  14.333 -0.7457  0.5908  0.8071
19646TIP3    H280430   2.930   4.207  14.335 -0.4250 -0.9924  2.0600
19647TIP3   OH280431   2.809   4.259   4.468 -0.3433  0.2847 -0.6137
19647TIP3    H180432   2.896   4.269   4.431 -0.6099  0.5215 -1.1887
19647TIP3    H280433   2.749   4.275   4.395 -0.8668 -0.1872 -0.3030
19648TIP3   OH280434   5.193   5.322  12.521  0.3884  1.1164  0.3307
19648TIP3    H180435   5.165   5.274  12.442  1.1537 -0.1366  0.7899
19648TIP3    H280436   5.236   5.256  12.575  0.4375  2.0954  1.5331
19649TIP3   OH280437   1.118   6.085   3.513 -0.0970 -0.2285  0.2514
19649TIP3    H180438   1.124   6.084   3.418 -0.8876 -0.8915  0.1986
19649TIP3    H280439   1.081   5.999   3.536  0.8186 -0.3894  1.2099
19650TIP3   OH280440   6.104   1.838  11.557 -0.0695  0.1056 -0.1779
19650TIP3    H180441   6.180   1.784  11.580 -0.9445 -0.2874  2.0050
19650TIP3    H280442   6.140   1.904  11.497  1.6686 -0.9728 -0.4165
19651TIP3   OH280443   4.275   1.214   2.859 -0.1743 -0.3993 -0.2538
19651TIP3    H180444   4.224   1.172   2.790  0.3975 -0.7707 -0.4636
19651TIP3    H280445   4.210   1.256   2.915 -0.6590 -0.2424 -0.9192
19652TIP3   OH280446   3.407   1.142   4.671  0.4100  0.3878 -0.2521
19652TIP3    H180447   3.412   1.196   4.592  0.1706  1.7551  0.6246
19652TIP3    H280448   3.448   1.197   4.739 -0.5076 -0.2415  0.8298
19653TIP3   OH280449   2.197   3.381   2.301 -0.2173 -0.0188  0.1587
19653TIP3    H180450   2.157   3.426   2.375  0.1139  2.1971 -0.9158
19653TIP3    H280451   2.139   3.400   2.227 -0.3957 -1.9482 -0.2385
19654TIP3   OH280452   2.502   3.883   4.143 -0.5385 -0.6659 -0.3105
19654TIP3    H180453   2.523   3.799   4.102 -0.4418 -1.1009  0.6095
19654TIP3    H280454   2.564   3.945   4.104 -0.2435 -1.1335 -0.5937
19655TIP3   OH280455   3.121   4.246  12.009  0.0582 -0.1675 -0.2681
19655TIP3    H180456   3.152   4.268  11.922  2.2381 -0.4276  0.3686
19655TIP3    H280457   3.101   4.152  12.004  0.3933 -0.2330 -0.4501
19656TIP3   OH280458   1.681   0.708  11.250  0.2213 -0.2358 -0.6714
19656TIP3    H180459   1.707   0.656  11.326 -0.2101 -1.2373 -1.1872
19656TIP3    H280460   1.600   0.752  11.277 -1.0293 -2.1178 -1.1561
19657TIP3   OH280461   5.306   6.263  14.813 -0.8242  0.5573 -0.1921
19657TIP3    H180462   5.299   6.181  14.764  0.0104  1.8175 -2.6192
19657TIP3    H280463   5.333   6.327  14.747 -1.2784  2.7533  1.6477
19658TIP3   OH280464   2.230   5.967   2.568 -0.3069 -0.5560 -0.0565
19658TIP3    H180465   2.311   6.004   2.606 -0.8688 -0.3077  0.9464
19658TIP3    H280466   2.220   6.013   2.485 -0.4377  0.8537  0.6945
19659TIP3   OH280467   0.833   2.615   1.517  0.1135  0.1338  0.1402
19659TIP3    H180468   0.743   2.648   1.509  0.7835  1.7845 -1.1000
19659TIP3    H280469   0.885   2.693   1.538  1.4431 -0.5426 -0.5244
19660TIP3   OH280470   3.544   0.932  13.572 -0.6892  0.2093 -1.0388
19660TIP3    H180471   3.569   0.850  13.614  2.1266  0.1771 -2.5386
19660TIP3    H280472   3.473   0.908  13.513 -0.6445 -0.9042 -0.6627
19661TIP3   OH280473   5.818   4.065   4.763  0.0931 -0.0335 -0.1607
19661TIP3    H180474   5.912   4.074   4.744  0.1645  0.3557  0.3522
19661TIP3    H280475   5.785   4.007   4.694  1.2193 -2.3476  1.1157
19662TIP3   OH280476   1.702   5.459   4.076 -0.1970 -0.8989 -0.0523
19662TIP3    H180477   1.696   5.527   4.009  0.4170 -0.1955  0.5871
19662TIP3    H280478   1.663   5.381   4.035 -1.5746  0.0118 -0.5483
19663TIP3   OH280479   4.045   4.608  13.868 -0.1808 -0.1035 -0.2532
19663TIP3    H180480   4.133   4.577  13.847  0.4242  0.2192  1.5526
19663TIP3    H280481   4.005   4.536  13.916  0.6489  1.1050  2.5252
19664TIP3   OH280482   2.242   3.402  14.439 -0.1285  0.0597 -0.6560
19664TIP3    H180483   2.290   3.432  14.516  0.7703  0.0298 -1.1947
19664TIP3    H280484   2.149   3.410  14.464  0.1399 -1.6721  1.0725
19665TIP3   OH280485   6.840   2.526   4.918  0.3044 -0.6640 -0.4006
19665TIP3    H180486   6.776   2.559   4.856 -0.0010 -1.4108 -0.4939
19665TIP3    H280487   6.849   2.596   4.983  1.6939  0.7433 -2.0196
19666TIP3   OH280488   5.416   4.357  14.570  0.0345 -0.8042  0.5013
19666TIP3    H180489   5.459   4.433  14.611 -0.8002  1.0018 -1.7648
19666TIP3    H280490   5.323   4.370  14.587 -0.2323 -0.5485 -1.0190
19667TIP3   OH280491   2.192   0.347   5.801 -0.2033 -0.4042 -0.3983
19667TIP3    H180492   2.206   0.344   5.896  0.3322 -0.0526 -0.4625
19667TIP3    H280493   2.110   0.396   5.790 -1.9917 -3.0740  0.0132
19668TIP3   OH280494   0.291   2.202   1.056 -0.2594 -0.0921  0.5752
19668TIP3    H180495   0.356   2.172   1.119  0.2061  2.1998  1.2751
19668TIP3    H280496   0.342   2.233   0.981 -0.6724 -0.3929  0.1621
19669TIP3   OH280497   1.790   3.016   1.287  0.1637 -0.2615  0.1711
19669TIP3    H180498   1.755   3.030   1.199 -2.2995 -0.0864  1.0976
19669TIP3    H280499   1.833   2.930   1.283  0.4389 -0.0710 -1.2783
19670TIP3   OH280500   4.184   2.568  11.370  0.1513 -0.1889 -0.5828
19670TIP3    H180501   4.090   2.585  11.382  0.1566  0.2388 -1.1028
19670TIP3    H280502   4.188   2.500  11.302  0.2255 -0.0880 -0.6790
19671TIP3   OH280503   1.872   4.236  13.571 -0.2011  0.1346  0.2869
19671TIP3    H180504   1.885   4.330  13.559 -1.0706  0.2178 -0.0884
19671TIP3    H280505   1.869   4.224  13.666 -0.8444  0.6046  0.3359
19672TIP3   OH280506   2.348   0.814   5.482  0.7003  0.3501  0.6199
19672TIP3    H180507   2.293   0.886   5.511  1.4650  0.6697  1.3189
19672TIP3    H280508   2.333   0.808   5.388  0.2569  1.0926  0.6401
19673TIP3   OH280509   1.897   6.143  13.273  0.1298 -0.0474  0.0666
19673TIP3    H180510   1.900   6.114  13.182  0.2754 -1.0121  0.3659
19673TIP3    H280511   1.807   6.126  13.301 -0.7371  2.8126 -0.6714
19674TIP3   OH280512   0.661   5.190   5.036  0.8868 -0.0192 -0.2013
19674TIP3    H180513   0.602   5.262   5.012 -0.1801 -1.0982 -0.9450
19674TIP3    H280514   0.629   5.160   5.121  1.3627  0.4032  0.1323
19675TIP3   OH280515   4.971   3.792   1.557 -0.2302 -0.3409  0.0739
19675TIP3    H180516   4.987   3.824   1.468 -1.5712 -1.0681 -0.4583
19675TIP3    H280517   5.038   3.834   1.610 -0.5546  1.5622 -0.9593
19676TIP3   OH280518   6.575   2.093   2.532 -0.0274 -0.0872 -0.3961
19676TIP3    H180519   6.637   2.164   2.518 -1.2595  0.9908 -0.5500
19676TIP3    H280520   6.568   2.085   2.627 -1.3575  1.3466 -0.3534
19677TIP3   OH280521   5.942   0.606  12.275  0.2862 -0.2536  0.2779
19677TIP3    H180522   6.024   0.645  12.245  1.1119 -2.4304 -0.4555
19677TIP3    H280523   5.968   0.549  12.348 -0.3192 -1.9697 -0.7845
19678TIP3   OH280524   3.755   5.914   0.840  0.2280 -0.3566  0.2719
19678TIP3    H180525   3.698   5.926   0.916 -1.2419  1.1682 -0.9972
19678TIP3    H280526   3.814   5.990   0.842  0.3139 -0.4145 -0.0016
19679TIP3   OH280527   4.180   4.105   3.037  0.1082  0.0428  0.1819
19679TIP3    H180528   4.103   4.130   3.088  0.3085 -0.2246  0.6144
19679TIP3    H280529   4.254   4.116   3.097  0.3616 -0.1275 -0.0934
19680TIP3   OH280530   3.727   4.707   5.192  0.3635  0.0659  0.8932
19680TIP3    H180531   3.788   4.708   5.117 -1.9554  0.2209 -1.1028
19680TIP3    H280532   3.784   4.710   5.269  2.9144 -1.0559 -0.8152
19681TIP3   OH280533   1.984   1.870  14.372  0.1777  0.0930  0.4303
19681TIP3    H180534   2.066   1.857  14.420  1.9518  1.5727 -1.9458
19681TIP3    H280535   2.007   1.856  14.281 -2.3759  0.0843 -0.2875
19682TIP3   OH280536   1.561   5.854  15.408 -0.3504 -0.2529 -0.0594
19682TIP3    H180537   1.484   5.831  15.460 -1.3997 -0.3865 -1.6066
19682TIP3    H280538   1.559   5.792  15.335  1.5376 -0.5901  0.1386
19683TIP3   OH280539   3.101   4.429  14.340 -0.1054  0.5550  0.2861
19683TIP3    H180540   3.011   4.436  14.308  0.1254  1.6676 -0.1670
19683TIP3    H280541   3.155   4.448  14.263  0.4884  1.3835  0.8851
19684TIP3   OH280542   4.684   4.720  15.746  0.2654  0.0539  0.1067
19684TIP3    H180543   4.732   4.802  15.733 -2.6076  1.8080 -0.3489
19684TIP3    H280544   4.595   4.740  15.718 -0.2909 -3.6609 -1.2777
19685TIP3   OH280545   3.023   5.830   6.597 -0.5271 -0.2066 -0.2344
19685TIP3    H180546   3.077   5.814   6.520 -0.1002 -0.3288  0.0874
19685TIP3    H280547   3.079   5.806   6.671 -1.1960 -0.8491  0.0778
19686TIP3   OH280548   6.049   4.424   6.684 -0.1007 -0.3768  0.7088
19686TIP3    H180549   6.008   4.370   6.752 -1.7477  0.5907  0.5561
19686TIP3    H280550   6.010   4.392   6.602  0.0586  0.0165  0.4742
19687TIP3   OH280551   1.542   1.593   3.223  0.3024 -0.2903 -0.2480
19687TIP3    H180552   1.448   1.573   3.216  0.3589 -0.4836 -0.4508
19687TIP3    H280553   1.586   1.516   3.187  0.5883 -0.8950  1.2901
19688TIP3   OH280554   6.381   4.889  12.295  0.2984 -0.0611 -0.2132
19688TIP3    H180555   6.406   4.960  12.237  1.3409 -0.7589 -0.6483
19688TIP3    H280556   6.448   4.889  12.363 -0.1830 -0.0818  0.2702
19689TIP3   OH280557   5.871   2.910   2.689  0.7396  0.8288  0.1734
19689TIP3    H180558   5.824   2.831   2.663  0.2406  1.3182 -0.4692
19689TIP3    H280559   5.835   2.979   2.631  1.1511  1.5194  0.7264
19690TIP3   OH280560   4.971   4.471  15.980 -0.0371 -0.2363  0.7871
19690TIP3    H180561   4.923   4.538  16.028 -2.5207 -1.4060  0.0943
19690TIP3    H280562   4.921   4.457  15.900  3.0036  0.3738 -1.4466
19691TIP3   OH280563   3.370   5.853  15.708 -0.3543  0.0319 -0.3033
19691TIP3    H180564   3.415   5.899  15.779 -1.1606 -1.2835  1.1451
19691TIP3    H280565   3.366   5.762  15.739 -1.7436 -0.3513 -1.5360
19692TIP3   OH280566   1.398   1.031  16.311 -0.0131  0.1750 -0.1934
19692TIP3    H180567   1.327   1.095  16.319  1.3702  1.5669  2.5551
19692TIP3    H280568   1.472   1.080  16.276  1.7099  0.8876  3.8932
19693TIP3   OH280569   0.236   2.564   5.817  0.0206 -0.7394 -0.5155
19693TIP3    H180570   0.250   2.601   5.730 -2.5676 -0.1545 -0.7524
19693TIP3    H280571   0.273   2.630   5.876 -0.2253 -0.0496 -1.1088
19694TIP3   OH280572   5.372   0.056   6.435 -0.2409  0.2387 -0.5334
19694TIP3    H180573   5.400   0.040   6.525  3.0596  0.6706 -1.3569
19694TIP3    H280574   5.383  -0.028   6.390 -4.3795 -0.7347 -0.1571
19695TIP3   OH280575   3.671   6.833   6.254 -0.2780  0.4942  0.2547
19695TIP3    H180576   3.632   6.921   6.246 -0.4293  0.2598 -2.4738
19695TIP3    H280577   3.752   6.847   6.301 -0.0728  2.2189 -0.5281
19696TIP3   OH280578   3.072   5.551   1.317  0.1815 -0.2462  0.5989
19696TIP3    H180579   3.136   5.622   1.306  0.3507 -0.2685  1.3769
19696TIP3    H280580   2.987   5.596   1.322  0.3129 -0.0707  1.3490
19697TIP3   OH280581   3.460   4.645  11.859 -0.0118  0.1597 -0.3984
19697TIP3    H180582   3.371   4.614  11.841  0.7679 -2.5089 -0.1409
19697TIP3    H280583   3.466   4.645  11.955  0.4960 -0.4576 -0.4252
19698TIP3   OH280584   0.353   0.624  15.725 -0.2177  0.5926 -0.1313
19698TIP3    H180585   0.400   0.674  15.792 -0.0085  0.9067 -0.5070
19698TIP3    H280586   0.394   0.537  15.727 -2.4485 -0.5242  2.4922
19699TIP3   OH280587   2.034   5.470  16.999 -0.3133  0.0319  0.3346
19699TIP3    H180588   2.102   5.499  17.060  0.3848  0.7778 -0.7556
19699TIP3    H280589   2.058   5.380  16.978 -0.4139 -0.1443  0.9546
19700TIP3   OH280590   2.271   0.265  16.158  0.6718  0.4789 -0.2289
19700TIP3    H180591   2.232   0.348  16.130 -0.7836 -0.1672 -0.2035
19700TIP3    H280592   2.238   0.200  16.096  1.7947 -0.0976 -0.2533
19701TIP3   OH280593   4.748   3.490  12.291  0.0483 -0.1308 -0.1778
19701TIP3    H180594   4.786   3.546  12.223 -0.8187 -0.0095 -0.5776
19701TIP3    H280595   4.822   3.440  12.325  0.9068  1.4060  0.3471
19702TIP3   OH280596   6.477   0.292  13.871  0.1885 -0.5134  0.6371
19702TIP3    H180597   6.495   0.376  13.830  0.4990 -0.9517 -0.1428
19702TIP3    H280598   6.546   0.283  13.937  0.1134 -0.1294  0.7711
19703TIP3   OH280599   2.861   5.988   3.200 -0.3943  0.5834 -0.1574
19703TIP3    H180600   2.882   5.959   3.111 -2.9544  1.6757 -1.2413
19703TIP3    H280601   2.766   6.000   3.199 -0.1404  3.9181  1.6787
19704TIP3   OH280602   3.282   1.841  16.538 -0.7533  0.2667  0.1481
19704TIP3    H180603   3.329   1.895  16.474 -2.6688 -0.2734 -1.8202
19704TIP3    H280604   3.275   1.755  16.496 -1.7843 -0.1971  1.2283
19705TIP3   OH280605   4.032   4.341   4.904 -0.4649  0.4510  0.8099
19705TIP3    H180606   3.997   4.427   4.881  0.6871  0.2935 -1.7721
19705TIP3    H280607   3.970   4.279   4.865 -0.7652  0.0862  1.8323
19706TIP3   OH280608   3.917   2.620   1.309 -0.0760  0.5085 -0.0987
19706TIP3    H180609   3.847   2.555   1.309  0.4122 -0.0690 -1.5482
19706TIP3    H280610   3.894   2.681   1.239  1.8471 -0.8697 -2.0457
19707TIP3   OH280611   6.762   2.032   3.410  0.4276  0.3147 -0.1173
19707TIP3    H180612   6.845   2.079   3.410  0.7489 -0.2409 -0.1675
19707TIP3    H280613   6.725   2.048   3.496  0.9162 -0.0006  0.1544
19708TIP3   OH280614   3.688   0.155  11.710 -0.1484  0.1307  0.0165
19708TIP3    H180615   3.673   0.167  11.804 -1.2483 -1.1033  0.0144
19708TIP3    H280616   3.685   0.061  11.697  1.5729  0.1823 -1.0269
19709TIP3   OH280617   0.945   1.592   5.254 -0.2701 -0.0346 -0.5904
19709TIP3    H180618   0.890   1.514   5.245  0.4699 -0.4444 -1.7684
19709TIP3    H280619   0.913   1.651   5.186 -0.0141  0.1945 -0.5144
19710TIP3   OH280620   3.707   6.175  10.865 -0.3704 -1.0169  0.2867
19710TIP3    H180621   3.722   6.246  10.803  1.7889  0.7703  2.6483
19710TIP3    H280622   3.768   6.107  10.839  2.3225  0.6811  1.6706
19711TIP3   OH280623   6.243   2.514  15.736  0.1840  0.0269  0.1570
19711TIP3    H180624   6.263   2.438  15.791 -0.4731  1.7699  2.9959
19711TIP3    H280625   6.149   2.528  15.748 -0.0504  0.3337 -1.7106
19712TIP3   OH280626   4.064   6.698   1.634  0.3900 -0.1898 -0.4197
19712TIP3    H180627   4.084   6.791   1.627 -0.4913 -0.0549 -1.3514
19712TIP3    H280628   3.996   6.693   1.701 -2.1046  0.3085 -2.6987
19713TIP3   OH280629   6.175   2.473   2.904  0.2863  0.2628  0.3202
19713TIP3    H180630   6.178   2.465   2.999  1.5021  2.1488  0.4973
19713TIP3    H280631   6.093   2.431   2.879  0.5908 -1.4770  2.0293
19714TIP3   OH280632   0.546   1.009  14.392  0.2203  0.3895 -0.6611
19714TIP3    H180633   0.529   1.004  14.298  0.2036  0.8353 -0.6875
19714TIP3    H280634   0.524   0.922  14.426 -2.4713  0.9890 -0.6307
19715TIP3   OH280635   3.466   2.260   6.319  0.0811  0.7087 -0.2429
19715TIP3    H180636   3.550   2.262   6.365  0.5777 -0.8815 -1.0100
19715TIP3    H280637   3.405   2.300   6.380  0.8512 -0.6753  1.5444
19716TIP3   OH280638   5.188   1.985  16.504 -0.0022 -0.2655  0.4699
19716TIP3    H180639   5.263   1.929  16.524  0.6654 -0.2422 -1.6962
19716TIP3    H280640   5.218   2.074  16.525  0.3023 -0.3385  0.3531
19717TIP3   OH280641   4.335   5.351   1.269 -0.0501 -0.2095  0.2437
19717TIP3    H180642   4.302   5.303   1.194  0.8036 -4.7128  2.4306
19717TIP3    H280643   4.430   5.356   1.256  0.1173 -1.1134  1.0216
19718TIP3   OH280644   5.153   4.405  10.808  0.5374 -0.3339 -0.1076
19718TIP3    H180645   5.134   4.474  10.871 -0.5069  1.1972 -1.9808
19718TIP3    H280646   5.104   4.430  10.730  0.6674 -2.8726 -1.0914
19719TIP3   OH280647   1.478   5.334  13.141 -0.1992  0.4601 -0.4036
19719TIP3    H180648   1.445   5.422  13.120  0.0094  0.4385 -0.8543
19719TIP3    H280649   1.400   5.280  13.146 -0.2344  0.3089 -1.9521
19720TIP3   OH280650   5.620   3.604  15.729 -0.0820 -0.0392  0.0355
19720TIP3    H180651   5.551   3.665  15.753  0.6589  0.7897  0.1153
19720TIP3    H280652   5.610   3.530  15.789 -1.0872 -0.0799 -0.1690
19721TIP3   OH280653   2.146   5.419   6.186  0.1859 -0.2922  1.2246
19721TIP3    H180654   2.063   5.467   6.188  0.1803 -0.2965  1.0984
19721TIP3    H280655   2.190   5.444   6.268  0.8640  1.1536  0.4621
19722TIP3   OH280656   5.369   4.219  16.996  0.0902 -1.3781 -0.0546
19722TIP3    H180657   5.280   4.185  17.010 -0.8097  0.5166 -0.7319
19722TIP3    H280658   5.426   4.154  17.036 -1.6189 -2.5202  0.6702
19723TIP3   OH280659   4.588   5.474   4.847 -0.1695 -0.7047 -1.0843
19723TIP3    H180660   4.682   5.465   4.858 -0.4852 -1.1625  2.3555
19723TIP3    H280661   4.565   5.551   4.899 -1.9764 -2.4278  0.8898
19724TIP3   OH280662   3.048   2.051  16.939  0.7519  0.3678 -0.0885
19724TIP3    H180663   3.142   2.036  16.941  1.1916  2.8668  0.1097
19724TIP3    H280664   3.020   2.044  17.030  1.1829  1.9297  0.1868
19725TIP3   OH280665   2.084   1.820  15.682  0.1559  0.2056  0.1312
19725TIP3    H180666   2.100   1.914  15.678 -0.8056  0.3438 -2.3658
19725TIP3    H280667   2.054   1.804  15.772  1.5053  2.0340  0.9700
19726TIP3   OH280668   4.070   2.671  15.258  0.4234  0.1962  0.5796
19726TIP3    H180669   4.028   2.588  15.282 -1.7109  1.0149 -0.1007
19726TIP3    H280670   4.084   2.715  15.342  0.3291 -0.2756  0.8489
19727TIP3   OH280671   3.219   6.480  14.729  0.0799  0.5465 -0.2808
19727TIP3    H180672   3.172   6.542  14.784 -0.5711  2.1403 -2.4977
19727TIP3    H280673   3.310   6.486  14.758 -0.5640 -0.5679  2.2485
19728TIP3   OH280674   5.238   0.633  15.198 -0.1779  0.4915 -0.1192
19728TIP3    H180675   5.282   0.656  15.280 -1.6874 -0.1078  0.8999
19728TIP3    H280676   5.155   0.595  15.225  0.3831 -2.2606 -1.8320
19729TIP3   OH280677   0.999   3.849   5.428  0.6527 -0.2100 -0.4836
19729TIP3    H180678   1.079   3.847   5.480  0.0444 -2.2660  0.4464
19729TIP3    H280679   1.010   3.781   5.362  0.2347  0.4649 -1.2852
19730TIP3   OH280680   1.364   0.184   2.009 -0.2664 -0.7205  0.4613
19730TIP3    H180681   1.282   0.135   2.017  0.1080 -1.2977  0.7855
19730TIP3    H280682   1.407   0.173   2.094  0.2470 -0.5910  0.2200
19731TIP3   OH280683   4.041   0.181  10.575  0.0461 -0.3749  0.4219
19731TIP3    H180684   4.055   0.111  10.511 -0.9822  0.1563 -0.4132
19731TIP3    H280685   4.121   0.182  10.627  1.1189 -0.5241 -1.1543
19732TIP3   OH280686   5.492   1.081  15.053 -0.0800 -0.0419 -0.0071
19732TIP3    H180687   5.415   1.138  15.052 -0.4996 -0.5535 -1.6478
19732TIP3    H280688   5.527   1.088  15.141 -1.4462  0.9728  0.4869
19733TIP3   OH280689   2.505   0.949  17.047  0.0939  0.5619  0.0823
19733TIP3    H180690   2.521   1.043  17.048  1.5008  0.3687 -1.3642
19733TIP3    H280691   2.592   0.910  17.057 -0.5811 -0.6130  1.7723
19734TIP3   OH280692   0.927   0.955   4.172 -0.0654  0.3078 -0.5029
19734TIP3    H180693   0.873   0.898   4.227 -0.5183  1.2931  0.1138
19734TIP3    H280694   0.887   1.041   4.182  0.7363  0.7745 -1.2366
19735TIP3   OH280695   3.986   2.455  16.961  0.1178  0.1691 -0.0015
19735TIP3    H180696   3.890   2.446  16.964  0.1467 -0.0972  0.1836
19735TIP3    H280697   4.018   2.377  17.006  0.4216  0.3177  0.0387
19736TIP3   OH280698   4.412   6.003  16.746  0.0619 -0.3958  0.0613
19736TIP3    H180699   4.347   5.940  16.775  0.1209 -0.2983  0.4158
19736TIP3    H280700   4.361   6.073  16.705 -0.1180  0.0432  1.0144
19737TIP3   OH280701   1.847   3.563  14.715 -0.2882  0.0179  0.1615
19737TIP3    H180702   1.862   3.469  14.729 -0.6881  0.2192  2.1433
19737TIP3    H280703   1.926   3.593  14.670 -0.0642 -1.2102 -0.3339
19738TIP3   OH280704   4.907   3.389   1.953  0.1263 -0.0314  0.3807
19738TIP3    H180705   4.861   3.430   2.025 -3.1880 -0.3303 -1.3836
19738TIP3    H280706   4.911   3.296   1.976 -2.2831 -0.3862 -0.3427
19739TIP3   OH280707   4.012   4.386  15.647  0.8107  0.1804 -0.2795
19739TIP3    H180708   3.941   4.339  15.603 -1.0668  1.4766  1.1432
19739TIP3    H280709   4.091   4.364  15.598 -0.5812 -1.3123 -1.9767
19740TIP3   OH280710   2.365   5.476  16.105  0.1045 -0.6046 -0.3351
19740TIP3    H180711   2.333   5.497  16.192 -0.7344 -2.4579 -0.1612
19740TIP3    H280712   2.448   5.431  16.120  1.0683  0.9922 -0.6329
19741TIP3   OH280713   5.194   4.043   4.427 -0.0554 -0.1973  0.2429
19741TIP3    H180714   5.169   4.057   4.336  0.8590  0.1529  0.0340
19741TIP3    H280715   5.274   3.990   4.422  0.0729 -0.0680  0.8331
19742TIP3   OH280716   4.455   5.984  14.363  0.2553 -0.1026 -0.2288
19742TIP3    H180717   4.511   6.038  14.419  1.2112 -1.7682  0.4973
19742TIP3    H280718   4.423   5.916  14.421 -2.2586  0.5624 -0.7317
19743TIP3   OH280719   5.015   4.674  16.679 -0.0708  0.1938 -0.4721
19743TIP3    H180720   4.921   4.662  16.697 -0.1103  2.3460  1.1384
19743TIP3    H280721   5.034   4.763  16.708  2.9477 -0.8830  1.3628
19744TIP3   OH280722   0.469   0.968   4.765  0.8588 -0.1138 -0.6651
19744TIP3    H180723   0.379   0.936   4.762  1.1602 -1.1161 -0.0035
19744TIP3    H280724   0.467   1.052   4.721 -0.6560  0.4821  0.4432
19745TIP3   OH280725   1.492   2.809  14.106 -0.0145  0.0456 -0.0828
19745TIP3    H180726   1.398   2.792  14.095  0.2981 -1.5078 -0.5996
19745TIP3    H280727   1.496   2.900  14.135 -1.7788 -0.2817  1.4295
19746TIP3   OH280728   6.060   3.624  13.507 -0.4396  0.1938  0.2364
19746TIP3    H180729   6.131   3.569  13.474 -1.2838 -0.4340 -0.5577
19746TIP3    H280730   6.089   3.714  13.489  0.6346  0.0041  0.9146
19747TIP3   OH280731   2.765   2.190   0.460  0.1280 -0.0451  0.0980
19747TIP3    H180732   2.726   2.108   0.492  1.2375 -0.0290  1.6424
19747TIP3    H280733   2.844   2.200   0.513 -0.0252  2.0715  0.0063
19748TIP3   OH280734   3.132   4.050  14.137  0.2017 -0.9502 -0.2789
19748TIP3    H180735   3.103   4.090  14.219  0.3067  0.8175 -1.0610
19748TIP3    H280736   3.224   4.076  14.128 -0.4921  1.2826 -2.2266
19749TIP3   OH280737   5.269   5.370   2.723 -0.4105 -0.4579  0.1121
19749TIP3    H180738   5.190   5.320   2.742  1.1932 -2.7391  1.3222
19749TIP3    H280739   5.337   5.329   2.777  1.7251  1.0304 -1.2628
19750TIP3   OH280740   6.649   5.490   3.620 -0.5541 -0.0542  0.0607
19750TIP3    H180741   6.610   5.414   3.663 -1.2332  0.2819  0.0386
19750TIP3    H280742   6.588   5.562   3.636 -0.6999  0.1360 -1.2431
19751TIP3   OH280743   0.907   5.761  13.840  0.0090 -0.0248  0.4536
19751TIP3    H180744   0.839   5.803  13.787 -1.4448  0.3784  2.4983
19751TIP3    H280745   0.989   5.797  13.806 -0.7379 -0.6284 -2.1869
19752TIP3   OH280746   6.749   2.018   2.260  0.0815 -0.1043 -0.5931
19752TIP3    H180747   6.757   1.967   2.341 -0.9384  1.8216  0.7987
19752TIP3    H280748   6.684   1.970   2.208  1.2259 -1.7188 -0.6113
19753TIP3   OH280749   4.484   1.338  15.923 -0.1794  0.8260 -0.6290
19753TIP3    H180750   4.472   1.410  15.985 -0.6171  0.4106 -0.2256
19753TIP3    H280751   4.403   1.287  15.929  0.8058 -0.7268  0.4328
19754TIP3   OH280752   3.716   3.889   5.015  0.6026 -0.2862 -0.7028
19754TIP3    H180753   3.736   3.839   4.937 -1.1985  0.3095 -1.5985
19754TIP3    H280754   3.705   3.979   4.984 -0.8584 -0.1623  0.0850
19755TIP3   OH280755   1.215   5.089   3.484 -0.3151 -0.0246 -0.1361
19755TIP3    H180756   1.173   5.120   3.564 -0.2246  0.8426 -0.4201
19755TIP3    H280757   1.220   4.994   3.495 -1.2385 -0.0125  0.4256
19756TIP3   OH280758   5.388   4.454   0.027  0.3956 -0.2537 -0.1696
19756TIP3    H180759   5.441   4.479  -0.048 -0.6732  0.9953 -0.5604
19756TIP3    H280760   5.299   4.443  -0.008 -0.0625  0.0157  0.8391
19757TIP3   OH280761   2.626   3.547  12.758  0.4306  0.2583  0.2331
19757TIP3    H180762   2.599   3.629  12.799 -0.7173 -0.7129  1.5231
19757TIP3    H280763   2.568   3.481  12.796  0.6165 -1.0040 -1.5578
19758TIP3   OH280764   1.086   6.319   0.352 -0.4961 -0.3301  0.4630
19758TIP3    H180765   1.096   6.373   0.274  1.2319 -0.4640  0.5604
19758TIP3    H280766   0.992   6.301   0.357 -0.6197 -0.4487 -1.6492
19759TIP3   OH280767   5.835   6.552   2.908  0.5801 -0.0881  0.1281
19759TIP3    H180768   5.826   6.479   2.969 -2.0994  0.7880  0.9259
19759TIP3    H280769   5.795   6.627   2.953  1.0495  1.2956 -1.6002
19760TIP3   OH280770   5.881   4.171   3.946 -0.6472  0.0000  0.0218
19760TIP3    H180771   5.801   4.119   3.946 -0.8267  0.2537 -0.9954
19760TIP3    H280772   5.864   4.242   3.883  0.4045  0.0017 -0.2777
19761TIP3   OH280773   6.644   0.138   2.253 -0.2597 -0.1016 -0.2026
19761TIP3    H180774   6.673   0.047   2.259  2.3163  0.5273 -1.6084
19761TIP3    H280775   6.658   0.173   2.341  0.5819 -0.5988 -0.1229
19762TIP3   OH280776   6.572   0.139   3.774 -0.0810  0.1168 -0.6620
19762TIP3    H180777   6.550   0.145   3.867  0.4427  2.0887 -0.6292
19762TIP3    H280778   6.488   0.145   3.729 -0.2174  0.6464 -0.3458
19763TIP3   OH280779   1.173   5.263  15.160  0.0093  0.5706  0.0132
19763TIP3    H180780   1.211   5.322  15.225 -0.7592  0.3013  0.7205
19763TIP3    H280781   1.089   5.236  15.198 -0.3426  0.2170 -0.9795
19764TIP3   OH280782   0.653   4.435  13.341  0.3096  0.4428  0.0659
19764TIP3    H180783   0.577   4.381  13.367  1.0411 -0.8732 -0.4283
19764TIP3    H280784   0.722   4.371  13.324  1.9052  1.6448  1.6221
19765TIP3   OH280785   3.976   4.377  14.912 -0.0906 -0.3710  0.0789
19765TIP3    H180786   3.910   4.438  14.878  0.5873  0.3309 -0.0027
19765TIP3    H280787   4.055   4.398  14.863  1.0171  0.9111  2.2553
19766TIP3   OH280788   3.931   0.116  12.695 -0.0535  0.6240 -0.0648
19766TIP3    H180789   3.995   0.176  12.657 -0.3892  0.2320 -1.2836
19766TIP3    H280790   3.979   0.069  12.763  0.9570  0.3572 -0.9380
19767TIP3   OH280791   3.357   5.199  16.273  0.0815 -0.1305  0.4030
19767TIP3    H180792   3.316   5.159  16.196 -1.4361  0.4200  0.8992
19767TIP3    H280793   3.344   5.293  16.261 -1.7092 -0.1025  2.1156
19768TIP3   OH280794   1.026   3.501  14.353  0.2080 -0.7457 -0.4289
19768TIP3    H180795   0.974   3.499  14.273  0.4770 -1.1886 -0.5998
19768TIP3    H280796   0.971   3.458  14.418  0.6535 -1.9210 -0.8006
19769TIP3   OH280797   5.559   3.828  11.614 -0.4016 -0.2639 -0.5793
19769TIP3    H180798   5.543   3.899  11.552 -1.4693  0.7162  0.7647
19769TIP3    H280799   5.474   3.812  11.655  0.1228 -1.3913  0.1067
19770TIP3   OH280800   5.596   5.762  15.879  0.0494 -0.8610  0.1252
19770TIP3    H180801   5.505   5.744  15.853  0.4458 -1.1530 -1.1134
19770TIP3    H280802   5.610   5.707  15.956 -0.5977 -1.3761 -0.1123
19771TIP3   OH280803   3.010   2.649   5.324 -0.2833  0.2369 -0.2425
19771TIP3    H180804   2.975   2.706   5.255 -1.0178 -1.0943 -1.0230
19771TIP3    H280805   3.096   2.622   5.292  0.3420  1.3448  0.4161
19772TIP3   OH280806   6.289   5.425  16.016  0.0924 -0.8440  0.3928
19772TIP3    H180807   6.287   5.409  15.921  0.6123 -0.0999  0.2407
19772TIP3    H280808   6.382   5.425  16.038  0.0155 -0.1673  0.7481
19773TIP3   OH280809   0.496   0.343   2.201  0.6144 -0.5030 -0.6566
19773TIP3    H180810   0.436   0.382   2.265  1.9033  0.8712 -0.2263
19773TIP3    H280811   0.460   0.256   2.184 -0.2799 -0.5569  1.2544
19774TIP3   OH280812   4.081   3.082   3.125 -0.9144 -0.5462  0.2890
19774TIP3    H180813   4.087   3.031   3.206 -0.4482  1.1736  1.3914
19774TIP3    H280814   4.167   3.123   3.116 -1.4227  0.4537 -0.2610
19775TIP3   OH280815   0.977   6.203  15.286  0.3620  0.2637 -0.1757
19775TIP3    H180816   0.894   6.158  15.267 -0.0740  1.1106 -0.3084
19775TIP3    H280817   0.953   6.276  15.342  1.2758 -0.5375  1.3268
19776TIP3   OH280818   6.034   3.916   4.574  0.0885  0.1285 -0.0135
19776TIP3    H180819   6.030   4.007   4.602 -0.7073  0.8578 -2.2795
19776TIP3    H280820   6.082   3.917   4.492 -0.2618 -1.4484 -0.2874
19777TIP3   OH280821   0.498   0.700   0.879 -0.0515 -0.9114  0.0404
19777TIP3    H180822   0.490   0.753   0.958 -3.7150 -0.3421 -0.5677
19777TIP3    H280823   0.593   0.691   0.867  0.7586  2.8198  1.9263
19778TIP3   OH280824   3.625   4.094   0.284 -0.2261 -0.4619  0.5821
19778TIP3    H180825   3.697   4.154   0.264  0.0522 -0.5054  1.4066
19778TIP3    H280826   3.666   4.007   0.287 -0.2741 -0.4712  1.1904
19779TIP3   OH280827   4.347   3.389  11.355  0.1461 -0.5923 -0.2054
19779TIP3    H180828   4.305   3.304  11.344 -0.3746 -0.3668  0.0131
19779TIP3    H280829   4.348   3.427  11.267 -0.3662 -0.4827 -0.1694
19780TIP3   OH280830   3.274   5.145   0.835 -0.3807 -0.5721  0.4718
19780TIP3    H180831   3.321   5.223   0.864  0.0977 -0.6151 -0.1832
19780TIP3    H280832   3.216   5.176   0.766 -0.3193 -0.7628  0.3344
19781TIP3   OH280833   1.923   3.861  16.102  0.1657 -0.2893 -1.0434
19781TIP3    H180834   1.934   3.956  16.103  1.0288 -0.3599  0.6918
19781TIP3    H280835   1.931   3.836  16.010  0.6657  1.2327 -1.4379
19782TIP3   OH280836   4.853   0.835   1.268  0.0300  0.5216  0.1313
19782TIP3    H180837   4.843   0.803   1.358  1.0685 -1.6763 -0.4563
19782TIP3    H280838   4.769   0.876   1.248 -0.8795 -0.5768  1.5111
19783TIP3   OH280839   5.736   0.397   4.606  0.5842  0.0931 -0.1358
19783TIP3    H180840   5.821   0.410   4.565  0.0743  0.5281 -1.1031
19783TIP3    H280841   5.679   0.460   4.561 -1.0851 -2.5867 -2.0991
19784TIP3   OH280842   5.410   3.769  15.794 -0.1577 -0.3315  0.1001
19784TIP3    H180843   5.420   3.800  15.704 -0.6233  1.0016  0.4840
19784TIP3    H280844   5.350   3.832  15.835  0.7489 -0.3858  1.5988
19785TIP3   OH280845   2.430   3.239  11.895  0.3385  0.0786 -0.2262
19785TIP3    H180846   2.369   3.224  11.967  0.3395 -1.1777 -0.4630
19785TIP3    H280847   2.513   3.260  11.937  0.2725 -0.3729  0.1357
19786TIP3   OH280848   0.050   0.824  16.408 -0.5248  0.0525  0.6941
19786TIP3    H180849   0.131   0.774  16.401 -0.6336 -0.4297  2.4112
19786TIP3    H280850   0.025   0.841  16.317  3.1674  3.0486  0.0119
19787TIP3   OH280851   2.952   3.526   3.295  0.4953 -0.1218  0.2260
19787TIP3    H180852   2.955   3.432   3.281  1.0261  0.1418 -1.7490
19787TIP3    H280853   2.979   3.564   3.212 -3.1289  1.8434 -0.2865
19788TIP3   OH280854   3.833   2.107  10.792  0.1204  0.1771  0.2458
19788TIP3    H180855   3.926   2.115  10.770 -0.1357  0.9551 -0.5988
19788TIP3    H280856   3.794   2.064  10.716 -0.4086  0.9324  0.0832
19789TIP3   OH280857   4.544   2.163   1.819 -0.0240 -0.0035 -0.1353
19789TIP3    H180858   4.505   2.186   1.903 -0.2576  0.1421 -0.2831
19789TIP3    H280859   4.524   2.237   1.762 -3.8117 -1.9323 -1.6411
19790TIP3   OH280860   4.031   5.081  16.444  0.2475 -0.6389  0.5377
19790TIP3    H180861   3.971   5.035  16.386 -0.9266  1.5580 -0.0926
19790TIP3    H280862   3.976   5.118  16.512  0.7575  1.6471 -0.1890
19791TIP3   OH280863   4.116   6.138   5.474 -0.0966  0.1288  0.4497
19791TIP3    H180864   4.031   6.113   5.438  0.5781 -0.5960 -0.7301
19791TIP3    H280865   4.147   6.206   5.415  0.6758 -0.4967  0.1180
19792TIP3   OH280866   1.207   6.081   1.558  0.2615 -0.0172 -0.5428
19792TIP3    H180867   1.137   6.079   1.493  0.9547  0.9433 -1.3598
19792TIP3    H280868   1.174   6.140   1.627 -0.1066 -0.3221 -0.4530
19793TIP3   OH280869   0.090   1.574   0.991  0.0682 -0.3647 -0.6173
19793TIP3    H180870   0.084   1.547   0.900  0.5730 -1.9485 -0.2039
19793TIP3    H280871   0.177   1.547   1.019 -0.0121  0.2686  0.2882
19794TIP3   OH280872   5.856   1.056   4.410 -0.4313  0.2298 -0.1992
19794TIP3    H180873   5.807   1.042   4.491  0.8190  0.0882  0.5657
19794TIP3    H280874   5.948   1.045   4.436  0.0343  0.8787 -1.4970
19795TIP3   OH280875   2.482   3.347  11.612  0.0973 -0.5946 -0.3224
19795TIP3    H180876   2.441   3.432  11.598  0.4132 -0.5035 -0.7108
19795TIP3    H280877   2.439   3.311  11.689  0.1189  0.0148 -0.0264
19796TIP3   OH280878   1.553   2.242  12.677 -0.1039 -0.0712 -0.1228
19796TIP3    H180879   1.571   2.225  12.585 -1.9094 -1.0139 -0.3449
19796TIP3    H280880   1.640   2.253  12.717  0.7411 -0.4454 -1.7666
19797TIP3   OH280881   5.887   2.064   3.822  0.4641 -0.0520 -0.5353
19797TIP3    H180882   5.888   2.152   3.786  0.7573 -0.0419 -0.5047
19797TIP3    H280883   5.804   2.057   3.869  0.7159  0.4241 -0.0051
19798TIP3   OH280884   2.846   6.090  16.644 -0.0518  0.0944 -0.8099
19798TIP3    H180885   2.920   6.077  16.703 -0.5462 -1.0648 -0.4210
19798TIP3    H280886   2.835   6.185  16.639  1.3629  0.2717 -0.7666
19799TIP3   OH280887   0.233   2.932   5.902 -0.3239 -0.4209 -0.3321
19799TIP3    H180888   0.324   2.947   5.930 -0.6662 -0.3877  0.8277
19799TIP3    H280889   0.200   2.867   5.964 -1.1671 -0.2601 -0.6011
19800TIP3   OH280890   0.105   3.458  16.499 -0.1275  0.6161 -0.4524
19800TIP3    H180891   0.096   3.397  16.572  1.7031 -0.3870 -1.0189
19800TIP3    H280892   0.073   3.409  16.423 -0.1446  0.9349 -0.6516
19801TIP3   OH280893   6.562   0.259   1.066  0.2014 -0.2342  0.2394
19801TIP3    H180894   6.502   0.274   0.993 -2.1645 -0.9505  1.9322
19801TIP3    H280895   6.563   0.341   1.114  0.8883 -0.1243  0.0621
19802TIP3   OH280896   5.595   0.570   2.997 -0.7167 -0.0599  0.4946
19802TIP3    H180897   5.607   0.487   3.043 -1.2601  0.1970  1.1195
19802TIP3    H280898   5.511   0.603   3.030 -0.0452  1.1998  0.9911
19803TIP3   OH280899   1.637   1.776  16.030 -0.5175 -0.2834 -0.8134
19803TIP3    H180900   1.601   1.705  15.978 -3.7341  0.0894  0.6442
19803TIP3    H280901   1.611   1.856  15.984 -0.0924 -0.0115 -0.5889
19804TIP3   OH280902   4.145   5.042   0.807 -0.0343  0.2205  0.3276
19804TIP3    H180903   4.066   4.988   0.814 -0.0851  0.4257  1.5896
19804TIP3    H280904   4.214   4.981   0.781 -0.8898  0.3309 -2.4956
19805TIP3   OH280905   5.681   2.193   3.209  0.0143 -0.1558  0.1948
19805TIP3    H180906   5.757   2.146   3.243  0.1362 -0.3975 -0.4046
19805TIP3    H280907   5.645   2.134   3.142  0.4068  0.7831 -0.8659
19806TIP3   OH280908   5.343   2.012   1.091  0.2632 -0.1080 -0.0536
19806TIP3    H180909   5.380   2.027   1.178  0.5547  0.6507 -0.3027
19806TIP3    H280910   5.418   1.982   1.038  0.0554 -0.7175 -0.0103
19807TIP3   OH280911   5.784   5.363   4.682 -0.0057  0.5836  0.0857
19807TIP3    H180912   5.880   5.360   4.682 -0.0239 -1.2099  0.7544
19807TIP3    H280913   5.761   5.401   4.767  0.0721  3.8021 -1.1940
19808TIP3   OH280914   2.996   1.307  12.379 -0.4235  0.4693 -0.1224
19808TIP3    H180915   3.072   1.361  12.357 -0.5883  0.3932 -0.9140
19808TIP3    H280916   3.033   1.224  12.410 -0.1804  0.2170 -1.0675
19809TIP3   OH280917   4.306   2.603   0.993  0.0674 -0.0536 -0.0218
19809TIP3    H180918   4.310   2.515   0.955 -1.0329 -1.0101  1.8887
19809TIP3    H280919   4.212   2.619   1.005  0.1977  1.8023 -1.1813
19810TIP3   OH280920   3.190   5.003  13.733  0.1429 -0.0107 -0.1716
19810TIP3    H180921   3.159   4.929  13.679 -1.9001  1.1753 -0.7455
19810TIP3    H280922   3.114   5.027  13.786  0.8721  1.4526  0.2622
19811TIP3   OH280923   1.061   0.113  14.909 -0.0485  0.4577  0.2528
19811TIP3    H180924   1.022   0.027  14.920 -2.1910  1.1978 -0.9251
19811TIP3    H280925   1.139   0.112  14.965  0.1851 -2.3152  0.0038
19812TIP3   OH280926   4.046   1.894   1.690  0.4915  0.2257 -0.1111
19812TIP3    H180927   4.142   1.891   1.681  0.4807  1.5696 -1.0335
19812TIP3    H280928   4.015   1.921   1.603 -0.7786 -0.7450  0.0087
19813TIP3   OH280929   4.637   3.421   0.363 -0.4826 -0.2933  0.6021
19813TIP3    H180930   4.582   3.360   0.412 -0.1043 -1.1023  0.0491
19813TIP3    H280931   4.603   3.417   0.274 -1.6000  1.6704  0.8814
19814TIP3   OH280932   0.538   0.795  12.723  0.5770 -0.3571 -0.4889
19814TIP3    H180933   0.633   0.784  12.718  0.8355  1.7206 -0.7250
19814TIP3    H280934   0.520   0.797  12.817  1.1050  1.5426 -0.3916
19815TIP3   OH280935   5.333   6.011   3.599 -0.0241  0.3732 -0.3356
19815TIP3    H180936   5.419   5.971   3.583 -0.0486 -0.5281  1.4454
19815TIP3    H280937   5.348   6.069   3.674 -1.3207 -1.3837  1.3944
19816TIP3   OH280938   5.942   1.632   2.364 -0.1948 -0.2145  0.7675
19816TIP3    H180939   5.900   1.718   2.361 -0.6253 -0.4282  0.4961
19816TIP3    H280940   5.934   1.598   2.275 -1.2652 -1.1145  1.1876
19817TIP3   OH280941   0.285   4.802  13.177  0.3854  0.1867  0.0851
19817TIP3    H180942   0.375   4.833  13.186  0.2549  0.3152  1.1055
19817TIP3    H280943   0.282   4.722  13.230 -0.4616  0.9644  1.2475
19818TIP3   OH280944   5.437   5.556   5.447 -0.5454  0.1822  0.2073
19818TIP3    H180945   5.472   5.534   5.533 -1.5192  0.1126  0.6027
19818TIP3    H280946   5.502   5.521   5.385  1.0789  1.8133  0.8999
19819TIP3   OH280947   1.628   3.531  13.470  0.2987 -0.1698 -0.1054
19819TIP3    H180948   1.663   3.476  13.541 -0.9804 -0.4200  0.3481
19819TIP3    H280949   1.704   3.547  13.414  1.0588 -1.0459  0.6249
19820TIP3   OH280950   2.802   6.288  16.829 -0.1770 -0.1719 -0.0377
19820TIP3    H180951   2.870   6.253  16.886 -1.3802 -0.3046  1.3743
19820TIP3    H280952   2.813   6.383  16.833  1.0811 -0.2307 -1.3320
19821TIP3   OH280953   5.412   5.960   5.637  0.0756  0.0257 -0.6717
19821TIP3    H180954   5.372   5.899   5.574  2.1868 -4.1480  1.5666
19821TIP3    H280955   5.366   5.942   5.719  1.7623  0.2903  0.3751
19822TIP3   OH280956   4.569   4.102   5.700  0.2283 -0.0588 -0.4271
19822TIP3    H180957   4.626   4.160   5.751  1.8397 -1.9919  0.0752
19822TIP3    H280958   4.501   4.160   5.665  1.5963  2.0721  0.2634
19823TIP3   OH280959   1.563   1.282   0.359 -0.1631  0.0480  0.4621
19823TIP3    H180960   1.650   1.314   0.384 -0.1674  0.0728  0.4454
19823TIP3    H280961   1.542   1.216   0.425  0.5574 -1.1014 -0.4423
19824TIP3   OH280962   4.508   5.930   1.593 -0.3977 -0.4337  0.2986
19824TIP3    H180963   4.574   5.954   1.527  0.4761  0.9924  1.6138
19824TIP3    H280964   4.459   6.011   1.607 -1.0307 -0.9157  0.8754
19825TIP3   OH280965   1.837   0.329  13.120  0.2815  0.2735 -0.6203
19825TIP3    H180966   1.917   0.342  13.068  0.3963  2.0412 -0.0603
19825TIP3    H280967   1.801   0.417  13.130 -1.2422 -0.3906 -0.0566
19826TIP3   OH280968   0.570   3.889  13.250  0.2901  0.1255 -0.2851
19826TIP3    H180969   0.591   3.831  13.178 -0.0318 -0.9050  0.4263
19826TIP3    H280970   0.535   3.831  13.318  4.0303  0.4351  2.1893
19827TIP3   OH280971   1.497   1.970   2.936 -0.7203  0.1195 -0.8770
19827TIP3    H180972   1.586   1.935   2.946  0.0563  2.5805  2.3689
19827TIP3    H280973   1.442   1.911   2.987 -0.4557  0.1991 -0.4951
19828TIP3   OH280974   0.663   2.507  16.265  0.4643 -0.0676  0.0008
19828TIP3    H180975   0.741   2.561  16.276 -0.5840  1.3459  0.7080
19828TIP3    H280976   0.651   2.465  16.350  0.7047 -0.6656 -0.2513
19829TIP3   OH280977   4.357   2.492  13.576 -0.4637  0.3546  0.3691
19829TIP3    H180978   4.302   2.564  13.546 -0.8291 -0.3606 -0.7497
19829TIP3    H280979   4.331   2.418  13.522 -0.0157 -0.5969  1.4146
19830TIP3   OH280980   5.456   1.698   3.272  0.5888 -0.3791  0.2413
19830TIP3    H180981   5.420   1.617   3.237  1.1641 -0.7972  0.5998
19830TIP3    H280982   5.511   1.670   3.346  0.6677  0.3458  0.4639
19831TIP3   OH280983   2.100   3.134   3.216  0.1906 -0.6565  0.2329
19831TIP3    H180984   2.015   3.089   3.214 -0.8704  1.2318 -0.3616
19831TIP3    H280985   2.136   3.122   3.128  0.8667 -1.9754  0.6649
19832TIP3   OH280986   6.212   4.763   3.436 -0.3438 -0.3551  0.2820
19832TIP3    H180987   6.170   4.719   3.361 -2.5850 -0.1963  1.3601
19832TIP3    H280988   6.141   4.811   3.478  0.7574 -0.7210  2.7221
19833TIP3   OH280989   0.728   6.791  10.660 -0.1158 -0.3786 -0.0517
19833TIP3    H180990   0.660   6.842  10.618 -0.0580 -1.1368 -1.0977
19833TIP3    H280991   0.750   6.723  10.597  0.9790 -0.6894  0.6326
19834TIP3   OH280992   2.592   5.356   0.305  0.3795 -0.0572 -0.5578
19834TIP3    H180993   2.567   5.264   0.299 -0.4229  0.2177 -1.5863
19834TIP3    H280994   2.653   5.370   0.232  0.8517  0.1212 -0.1360
19835TIP3   OH280995   4.069   6.404   0.952 -0.5023 -0.1262  0.1354
19835TIP3    H180996   4.050   6.409   1.046 -1.7086 -1.0812 -0.0194
19835TIP3    H280997   3.985   6.381   0.912  0.0073  0.2024 -1.1778
19836TIP3   OH280998   5.228   6.343   1.302 -0.1684 -0.3155 -0.1036
19836TIP3    H180999   5.136   6.367   1.310 -0.0406  0.2625 -0.3551
19836TIP3    H281000   5.246   6.347   1.208 -0.1647 -1.4965 -0.1727
19837TIP3   OH281001   1.886   3.198  12.598 -0.8119  0.2908 -0.4167
19837TIP3    H181002   1.897   3.289  12.624 -0.5597  0.0499  0.3228
19837TIP3    H281003   1.917   3.147  12.672 -0.4890 -0.4037 -1.0136
19838TIP3   OH281004   5.395   0.327   4.857 -1.1513  0.2103  0.0641
19838TIP3    H181005   5.415   0.235   4.874 -1.2228  0.0335 -0.7869
19838TIP3    H281006   5.400   0.336   4.762  1.5177  1.6987  0.2332
19839TIP3   OH281007   6.505   0.039  15.888  0.2805 -0.4897 -0.0473
19839TIP3    H181008   6.543   0.093  15.819  0.1680  0.1481  0.3799
19839TIP3    H281009   6.412   0.059  15.886  0.4390  0.4495  1.0722
19840TIP3   OH281010   1.244   1.954   0.104  0.3523  0.5235 -0.0709
19840TIP3    H181011   1.232   2.011   0.028 -0.1221  1.6604  0.8346
19840TIP3    H281012   1.195   1.997   0.174 -1.3401 -1.7727  0.2770
19841TIP3   OH281013   6.270   4.416   1.478 -0.0326  0.1345 -0.8416
19841TIP3    H181014   6.235   4.463   1.402 -1.1261  0.2394 -0.2921
19841TIP3    H281015   6.330   4.478   1.519  1.2573 -0.2295 -2.0886
19842TIP3   OH281016   0.271   5.520  13.100 -0.0207 -0.1867 -0.2323
19842TIP3    H181017   0.320   5.600  13.085 -1.1112  0.3174 -1.3003
19842TIP3    H281018   0.196   5.547  13.153 -0.2295 -0.5458 -0.3380
19843TIP3   OH281019   5.840   0.490  16.802 -0.0181  0.0408  0.3045
19843TIP3    H181020   5.853   0.421  16.737  0.1808  0.3134  0.0486
19843TIP3    H281021   5.928   0.514  16.830 -0.0310  0.7917 -0.2558
19844TIP3   OH281022   3.731   0.616  15.077  0.5115  0.4930  0.1035
19844TIP3    H181023   3.777   0.572  15.006 -1.8969  1.3111 -2.1535
19844TIP3    H281024   3.752   0.565  15.155  3.4305 -0.3521 -1.0968
19845TIP3   OH281025   5.921   1.457   0.471  0.0808  0.4588 -0.2487
19845TIP3    H181026   5.947   1.545   0.444  0.5869  0.0896 -0.9952
19845TIP3    H281027   5.866   1.425   0.400 -1.2433  0.6665  0.6432
19846TIP3   OH281028   0.975   5.925   2.582  0.1443  0.9259 -0.1100
19846TIP3    H181029   1.062   5.913   2.618  0.1127 -1.0285 -0.5739
19846TIP3    H281030   0.916   5.913   2.656  0.2330  2.9623  0.3570
19847TIP3   OH281031   5.735   1.222  12.413 -0.2701 -0.0689  0.0356
19847TIP3    H181032   5.709   1.135  12.384  0.6575 -0.8955  1.5498
19847TIP3    H281033   5.741   1.273  12.332  1.5826 -2.0774 -1.2072
19848TIP3   OH281034   1.649   4.607  14.180  0.2445 -0.7143  0.6538
19848TIP3    H181035   1.574   4.548  14.174  0.9804 -1.5566 -0.5959
19848TIP3    H281036   1.691   4.585  14.262 -0.5532 -0.6000  1.1101
19849TIP3   OH281037   3.152   4.322   5.470  0.6067 -0.1548  0.4108
19849TIP3    H181038   3.097   4.360   5.402  0.8935 -1.6380 -0.6960
19849TIP3    H281039   3.240   4.354   5.449  0.5994 -0.0945  0.4716
19850TIP3   OH281040   2.996   4.468   1.532  0.2851 -0.1210  0.1980
19850TIP3    H181041   2.973   4.561   1.528 -0.9587 -0.4045  0.3825
19850TIP3    H281042   2.933   4.425   1.474 -0.4605 -1.0674  1.6348
19851TIP3   OH281043   6.008   0.336   1.379 -0.3883 -0.6841 -0.0945
19851TIP3    H181044   6.004   0.303   1.289 -0.1235 -0.7522 -0.0831
19851TIP3    H281045   6.099   0.364   1.390 -0.7576  0.6700 -0.3242
19852TIP3   OH281046   4.274   2.495  15.173  0.6255  0.1651  0.2468
19852TIP3    H181047   4.349   2.503  15.232  1.6519  0.8438 -1.0985
19852TIP3    H281048   4.211   2.559  15.204  1.4831  1.0742  0.1568
19853TIP3   OH281049   2.534   6.245  16.419 -0.1634  0.0231  0.4012
19853TIP3    H181050   2.578   6.270  16.338 -0.0923 -1.4465 -0.0417
19853TIP3    H281051   2.464   6.185  16.392 -0.1652 -0.4596  1.4004
19854TIP3   OH281052   2.394   3.496  11.020 -0.3716  1.1690 -0.1829
19854TIP3    H181053   2.330   3.553  11.062  0.3186  2.0305 -0.2474
19854TIP3    H281054   2.465   3.556  10.994  1.5676  0.0060  1.9813
19855TIP3   OH281055   3.857   0.851  15.561  0.2908  0.0129  0.3511
19855TIP3    H181056   3.844   0.808  15.646  0.5046 -1.5435 -0.3551
19855TIP3    H281057   3.775   0.836  15.514  0.8288 -0.7493 -0.3676
19856TIP3   OH281058   4.217   6.491  14.315 -0.7567 -0.2855 -0.0177
19856TIP3    H181059   4.157   6.442  14.258 -0.5322 -1.8259  1.0163
19856TIP3    H281060   4.169   6.498  14.398 -0.6197  0.9474 -0.0243
19857TIP3   OH281061   2.649   2.398   1.632 -0.3980 -0.0353 -0.0391
19857TIP3    H181062   2.618   2.338   1.699 -0.3841  0.1463  0.1308
19857TIP3    H281063   2.643   2.485   1.673 -2.1934  0.2983 -0.9219
19858TIP3   OH281064   1.910   5.397   4.902  0.1031  0.2267 -0.1629
19858TIP3    H181065   1.849   5.451   4.852  0.7255  1.9216  0.8132
19858TIP3    H281066   1.875   5.308   4.895 -1.8311  0.9682 -0.5889
19859TIP3   OH281067   0.931   5.931   5.881  0.6644 -0.0525 -0.4639
19859TIP3    H181068   0.888   5.878   5.949  1.6716  0.6941  0.8024
19859TIP3    H281069   0.891   6.018   5.890  2.8717  0.8722  1.2669
19860TIP3   OH281070   1.518   0.702  15.955 -0.4363  0.4017 -0.1599
19860TIP3    H181071   1.560   0.722  16.039  0.0530  3.0207 -0.9531
19860TIP3    H281072   1.582   0.646  15.910 -0.8746 -1.3660  1.3012
19861TIP3   OH281073   1.021   5.687  11.760  0.1731  0.0086  0.5495
19861TIP3    H181074   1.064   5.721  11.838  0.4620  0.3442  0.2460
19861TIP3    H281075   1.058   5.738  11.688 -0.7321  0.3093  0.2856
19862TIP3   OH281076   3.010   5.171  17.066 -0.6528  0.1628  0.3665
19862TIP3    H181077   2.990   5.104  17.000 -0.5637  0.0095  0.4960
19862TIP3    H281078   3.098   5.150  17.096 -1.2100 -0.6463  1.5688
19863TIP3   OH281079   2.762   1.939  12.029 -0.0252 -0.5250 -0.5070
19863TIP3    H181080   2.703   2.010  12.053 -0.9452 -1.9015  1.6045
19863TIP3    H281081   2.846   1.981  12.015 -0.8230  1.1131 -0.5696
19864TIP3   OH281082   6.136   6.802  11.954  0.5142 -0.5898 -0.2138
19864TIP3    H181083   6.212   6.855  11.930  1.1646 -1.5765 -0.3910
19864TIP3    H281084   6.069   6.826  11.891  0.0713  1.5325  0.9469
19865TIP3   OH281085   2.755   5.392  11.941 -0.5532 -0.3172 -0.0749
19865TIP3    H181086   2.727   5.310  11.900 -1.8789  0.4672 -0.8088
19865TIP3    H281087   2.770   5.451  11.867 -1.2321  0.5891  0.5010
19866TIP3   OH281088   0.837   0.069  15.185  0.4147 -0.2974  0.2130
19866TIP3    H181089   0.878   0.025  15.260  1.7595  1.9513  0.8938
19866TIP3    H281090   0.834   0.003  15.117  1.9550 -1.5634  1.2987
19867TIP3   OH281091   6.077   6.745  13.917  0.5549 -0.3256 -0.0322
19867TIP3    H181092   6.125   6.679  13.967 -1.8582 -0.1821  2.7053
19867TIP3    H281093   6.119   6.828  13.941  0.0936 -0.3669  0.9701
19868TIP3   OH281094   1.604   0.441   1.219  0.1346 -0.0201  0.3658
19868TIP3    H181095   1.548   0.365   1.203  0.7774 -0.3031 -0.6049
19868TIP3    H281096   1.575   0.507   1.156  0.2745  0.1704  0.4987
19869TIP3   OH281097   4.306   3.068  16.904  0.3309 -0.2134 -0.1570
19869TIP3    H181098   4.212   3.088  16.904  0.3778  0.0295 -0.6959
19869TIP3    H281099   4.310   2.973  16.896  0.1325 -0.1878 -0.5919
19870TIP3   OH281100   0.137   1.856   5.467  0.5097  0.2170  0.2907
19870TIP3    H181101   0.214   1.804   5.489  0.4426 -0.5908 -1.3124
19870TIP3    H281102   0.154   1.889   5.379 -0.2285  1.4841  0.5920
19871TIP3   OH281103   4.337   6.716  12.874  0.1515 -0.4711  0.2193
19871TIP3    H181104   4.278   6.647  12.905  0.5334 -1.0789 -0.3717
19871TIP3    H281105   4.424   6.678  12.882  0.4617  0.3675  0.9421
19872TIP3   OH281106   5.384   5.145  12.640 -0.6665  0.0751 -0.0723
19872TIP3    H181107   5.378   5.057  12.677  0.0247  0.5140  1.1453
19872TIP3    H281108   5.458   5.185  12.686 -1.4566  1.5454 -0.0288
19873TIP3   OH281109   4.026   3.900   0.416  0.1662 -0.5215 -0.4671
19873TIP3    H181110   4.032   3.917   0.510 -0.9723  1.9474 -0.7439
19873TIP3    H281111   3.940   3.861   0.403 -0.5715  1.0806 -0.6481
19874TIP3   OH281112   2.908   0.315   3.823  0.4544  0.0028  0.2436
19874TIP3    H181113   2.832   0.301   3.767  0.5937 -0.3833  0.1458
19874TIP3    H281114   2.908   0.409   3.841 -0.9106 -0.2082  1.4855
19875TIP3   OH281115   2.222   1.862  15.989  0.5318  0.0269  0.6907
19875TIP3    H181116   2.176   1.929  16.040 -0.6470 -1.0506  1.0851
19875TIP3    H281117   2.155   1.798  15.966  1.2520 -0.0676 -1.3261
19876TIP3   OH281118   1.424   2.916   2.039  0.3738  0.5067 -0.0149
19876TIP3    H181119   1.497   2.932   1.980  0.1815 -0.1949 -0.4571
19876TIP3    H281120   1.347   2.942   1.989  0.3148  1.2537  0.4520
19877TIP3   OH281121   2.433   0.063   3.622  0.0628 -0.2636 -0.5125
19877TIP3    H181122   2.365  -0.003   3.633  0.9363 -0.8954  1.6251
19877TIP3    H281123   2.386   0.146   3.617 -0.8928 -0.7335  0.4525
19878TIP3   OH281124   0.821   1.232  12.879  0.2556  0.1528 -0.0474
19878TIP3    H181125   0.770   1.257  12.956 -1.1129 -1.0412 -0.5248
19878TIP3    H281126   0.911   1.224  12.911 -0.5531 -2.2668  1.9733
19879TIP3   OH281127   2.708   2.275  11.551 -1.2176  0.1074  0.2362
19879TIP3    H181128   2.686   2.254  11.460 -0.0797  0.9132 -0.2505
19879TIP3    H281129   2.654   2.216  11.603 -2.7808  0.4496 -0.9348
19880TIP3   OH281130   4.957   6.526  16.369 -1.1256 -0.1296 -0.0899
19880TIP3    H181131   5.043   6.553  16.336 -0.3510  1.0840  2.6590
19880TIP3    H281132   4.973   6.441  16.410 -1.6106 -0.6237 -0.8921
19881TIP3   OH281133   4.131   6.716  13.652 -0.6259 -0.3344 -0.4898
19881TIP3    H181134   4.082   6.686  13.576 -1.0516  1.7414 -1.0953
19881TIP3    H281135   4.092   6.801  13.674 -0.2368 -0.6934  1.8025
19882TIP3   OH281136   0.241   3.383  13.811  0.2941 -0.1531 -0.4862
19882TIP3    H181137   0.205   3.375  13.723 -1.2901  0.2761  0.0951
19882TIP3    H281138   0.232   3.295  13.848  1.5309 -0.4958 -0.9175
19883TIP3   OH281139   0.900   4.859   5.427  0.1050  0.3386  0.1770
19883TIP3    H181140   0.818   4.835   5.383 -0.5359  1.6502  0.6377
19883TIP3    H281141   0.908   4.795   5.498 -0.5755  0.2830  0.2097
19884TIP3   OH281142   2.741   0.189  11.045 -0.1366 -0.4429  0.0218
19884TIP3    H181143   2.695   0.130  10.984 -1.6337  0.9278 -0.2548
19884TIP3    H281144   2.756   0.268  10.994  3.0141 -0.9430 -0.0214
19885TIP3   OH281145   3.595   0.347  10.720  0.3168 -0.4071  0.3541
19885TIP3    H181146   3.606   0.402  10.642 -0.1631 -0.2176  0.4105
19885TIP3    H281147   3.620   0.260  10.692  2.2620  0.0421  0.5850
19886TIP3   OH281148   5.496   2.579  11.117  0.3258  0.0129  0.7238
19886TIP3    H181149   5.490   2.523  11.195  1.3143  1.1557  1.6575
19886TIP3    H281150   5.544   2.527  11.053 -0.9341 -1.1343  0.6756
19887TIP3   OH281151   4.154   3.364   3.612 -0.0410 -0.1747 -0.2777
19887TIP3    H181152   4.165   3.427   3.683  1.6550  1.4174 -1.8520
19887TIP3    H281153   4.123   3.284   3.656 -0.4684  1.1578  2.0257
19888TIP3   OH281154   1.475   3.049  10.517 -0.5961 -0.5160 -0.2227
19888TIP3    H181155   1.420   2.974  10.495  0.7611 -0.9360 -2.4072
19888TIP3    H281156   1.447   3.118  10.458  0.2087 -0.2573 -0.3137
19889TIP3   OH281157   1.721   4.941   2.141 -0.4068  0.0935  0.0279
19889TIP3    H181158   1.816   4.933   2.154 -0.4067  1.1309  0.7548
19889TIP3    H281159   1.699   5.026   2.179 -1.9293 -0.9251  1.4985
19890TIP3   OH281160   1.790   5.629   5.157  0.2103  0.0241  0.6198
19890TIP3    H181161   1.877   5.602   5.186  0.1835 -0.2021  0.4910
19890TIP3    H281162   1.737   5.550   5.161 -0.2861  0.3973  1.7766
19891TIP3   OH281163   4.532   3.200  11.627  0.6952 -0.0773 -0.2277
19891TIP3    H181164   4.578   3.201  11.711  0.9786  0.5095 -0.3819
19891TIP3    H281165   4.538   3.290  11.595  0.3793 -0.2390 -0.7621
19892TIP3   OH281166   6.368   6.695  12.725  0.2129 -0.3911  0.0336
19892TIP3    H181167   6.396   6.609  12.693  1.0289 -0.1678  0.1063
19892TIP3    H281168   6.353   6.746  12.645  1.3293 -0.1190 -0.0248
19893TIP3   OH281169   4.904   3.007  15.006 -0.0894 -0.0855 -0.3281
19893TIP3    H181170   4.939   2.921  14.983  0.4708  0.3032 -0.9767
19893TIP3    H281171   4.874   2.998  15.096  0.1656 -0.8964 -0.3192
19894TIP3   OH281172   1.298   6.269  16.832  0.2221  0.8231  0.3715
19894TIP3    H181173   1.392   6.274  16.817 -0.0696 -1.1219 -3.1652
19894TIP3    H281174   1.260   6.324  16.764 -1.2604  0.7043  1.0656
19895TIP3   OH281175   0.104   3.944  13.504  0.2478 -0.2632 -0.2383
19895TIP3    H181176   0.195   3.966  13.527  0.1438 -0.9132  0.8627
19895TIP3    H281177   0.051   4.011  13.548  0.2109  0.4940 -1.4031
19896TIP3   OH281178   1.082   6.251   4.496 -0.3837  0.0023  0.4011
19896TIP3    H181179   1.120   6.206   4.421 -1.0508  0.1725 -0.0410
19896TIP3    H281180   1.158   6.272   4.551  0.5072  2.2402 -1.4696
19897TIP3   OH281181   0.911   1.877  12.634  0.4502  0.0189 -0.0123
19897TIP3    H181182   1.000   1.880  12.671  0.3984 -1.5848  0.3116
19897TIP3    H281183   0.924   1.851  12.543  0.2851 -0.9801  0.2390
19898TIP3   OH281184   3.746   2.682   3.320 -0.1685  0.1768 -0.5660
19898TIP3    H181185   3.760   2.620   3.248 -0.8533 -0.3865 -0.2207
19898TIP3    H281186   3.662   2.723   3.301 -0.6186 -0.3636  0.1728
19899TIP3   OH281187   5.801   1.373  14.530 -0.2030 -0.0474  0.2941
19899TIP3    H181188   5.744   1.302  14.499 -0.2695  0.3679 -0.5581
19899TIP3    H281189   5.888   1.350  14.498 -0.5444  1.2393 -1.7949
19900TIP3   OH281190   6.665   2.381  12.624 -0.9942  0.0790 -0.1646
19900TIP3    H181191   6.669   2.448  12.555 -2.6603 -1.8794 -2.3457
19900TIP3    H281192   6.574   2.351  12.623 -1.4579  0.7688  3.8754
19901TIP3   OH281193   6.111   5.458   2.145  0.0888 -0.2592  0.4292
19901TIP3    H181194   6.138   5.373   2.180  0.7047  0.2469  1.2058
19901TIP3    H281195   6.031   5.438   2.095 -0.5814 -1.0868  1.7480
19902TIP3   OH281196   6.400   0.922  16.729  0.0148  0.3594 -0.2772
19902TIP3    H181197   6.315   0.920  16.773 -0.0290  1.3891 -0.2775
19902TIP3    H281198   6.440   0.838  16.750 -0.3793  0.4621  1.0198
19903TIP3   OH281199   0.687   4.792  17.077  0.0116 -0.1679 -0.2625
19903TIP3    H181200   0.599   4.796  17.116  0.9913  0.8705  2.0708
19903TIP3    H281201   0.716   4.884  17.075  1.8156 -0.6365  1.0711
19904TIP3   OH281202   0.921   6.323  13.585  0.0981 -0.2286 -0.6022
19904TIP3    H181203   0.928   6.243  13.533  1.0606 -2.1885  2.2825
19904TIP3    H281204   1.011   6.350  13.600 -0.0657 -0.5820  1.2162
19905TIP3   OH281205   0.974   3.232   4.367  0.5545  0.3280 -0.1146
19905TIP3    H181206   1.017   3.171   4.427 -1.0749 -1.4413 -0.6516
19905TIP3    H281207   1.000   3.203   4.280  0.1983  0.7610 -0.3691
19906TIP3   OH281208   4.959   4.729   3.137  0.1548  0.6858  0.1319
19906TIP3    H181209   4.867   4.713   3.155 -0.1442  1.3368 -0.7538
19906TIP3    H281210   5.005   4.695   3.213 -0.9866  2.6728  1.8108
19907TIP3   OH281211   4.300   0.455  12.298 -0.1771  0.2612  0.2660
19907TIP3    H181212   4.337   0.445  12.386  0.2167  0.5854  0.1439
19907TIP3    H281213   4.309   0.549  12.279  0.4202  0.0847 -0.4081
19908TIP3   OH281214   2.509   3.090  12.982  0.7337 -0.1213  0.0019
19908TIP3    H181215   2.520   3.129  12.895  0.5804  0.2958  0.1667
19908TIP3    H281216   2.555   3.007  12.977  0.5309 -0.2039 -0.5501
19909TIP3   OH281217   1.416   2.038  15.036  0.5626  0.0645 -0.0020
19909TIP3    H181218   1.417   2.120  14.987 -1.1567  0.0534 -0.0991
19909TIP3    H281219   1.378   1.974  14.975  1.1212 -0.6244  0.3537
19910TIP3   OH281220   4.440   0.818  11.479 -0.1312  0.3056 -0.1908
19910TIP3    H181221   4.438   0.730  11.516 -1.1122 -0.6768 -2.3954
19910TIP3    H281222   4.530   0.830  11.449  0.5526  0.9368  1.9411
19911TIP3   OH281223   3.971   3.714  16.285 -0.2165 -0.8902  0.3673
19911TIP3    H181224   3.999   3.746  16.199 -0.8230 -1.8052 -0.1778
19911TIP3    H281225   3.971   3.619  16.277 -2.6202 -0.9620  0.6159
19912TIP3   OH281226   5.852   4.223  16.050 -0.1939 -0.0985 -0.0011
19912TIP3    H181227   5.831   4.140  16.093  0.9852 -1.0613 -1.1750
19912TIP3    H281228   5.770   4.251  16.010 -1.3388  0.8670  2.8278
19913TIP3   OH281229   1.202   4.168   3.596  0.0219  0.1794  0.0788
19913TIP3    H181230   1.133   4.223   3.634 -0.5128 -0.9231  0.7396
19913TIP3    H281231   1.169   4.145   3.509 -0.0808  0.2980  0.0856
19914TIP3   OH281232   4.358   2.403  14.919  0.0257 -0.0718 -0.2061
19914TIP3    H181233   4.301   2.406  14.843 -1.2406 -2.0156  0.6016
19914TIP3    H281234   4.310   2.450  14.987  0.6500  0.6692 -0.2594
19915TIP3   OH281235   5.587   3.079   3.977 -0.3433 -0.1934 -0.3185
19915TIP3    H181236   5.506   3.130   3.975 -0.1402  0.2178  1.2574
19915TIP3    H281237   5.578   3.022   4.053  0.5649 -0.6517 -0.5418
19916TIP3   OH281238   4.319   0.133  12.265 -0.2646 -0.3049 -0.5198
19916TIP3    H181239   4.269   0.171  12.194  0.4838 -0.6440 -1.2432
19916TIP3    H281240   4.406   0.117  12.228  1.0524  2.0837  1.2355
19917TIP3   OH281241   3.909   0.755  11.908  0.2415 -0.1744  0.0780
19917TIP3    H181242   3.940   0.667  11.925  1.9222 -0.0086 -1.7764
19917TIP3    H281243   3.970   0.790  11.843 -1.0029  1.9751 -0.0307
19918TIP3   OH281244   2.292   6.769   1.421  0.4105 -0.6017 -0.3150
19918TIP3    H181245   2.327   6.858   1.415  0.8034 -0.7692 -0.5586
19918TIP3    H281246   2.261   6.761   1.511 -0.4904  0.0963 -0.5473
19919TIP3   OH281247   5.307   4.066   5.857 -0.3910  0.0421  0.3483
19919TIP3    H181248   5.399   4.065   5.833 -0.2836 -0.6694  0.7689
19919TIP3    H281249   5.262   4.022   5.785 -0.3042 -0.3210  0.5135
19920TIP3   OH281250   3.751   2.864   2.572 -0.2564  0.4814  0.1993
19920TIP3    H181251   3.690   2.817   2.515 -0.8305  0.5894  0.7129
19920TIP3    H281252   3.698   2.889   2.647  0.6493 -0.2423  1.0999
19921TIP3   OH281253   6.124   3.608   5.349  0.2561  0.0828  1.0817
19921TIP3    H181254   6.143   3.654   5.267  0.1676  0.3476  1.2061
19921TIP3    H281255   6.046   3.556   5.331  0.7994 -0.6098  0.7175
19922TIP3   OH281256   1.511   2.532  14.698 -0.1106 -0.3693 -0.5103
19922TIP3    H181257   1.545   2.552  14.786 -0.0118  0.1095 -0.6545
19922TIP3    H281258   1.465   2.612  14.672  1.4249  0.1869 -1.6448
19923TIP3   OH281259   1.696   2.466  12.018  0.0736 -0.2424 -0.5479
19923TIP3    H181260   1.742   2.477  11.935 -0.4397  1.1054 -0.6622
19923TIP3    H281261   1.767   2.463  12.083  0.3847  0.6744 -0.8353
19924TIP3   OH281262   6.031   0.945   3.097 -0.8954  0.6465 -0.0177
19924TIP3    H181263   5.969   0.894   3.149 -0.8467  0.7280  0.1190
19924TIP3    H281264   5.975   1.000   3.041 -0.9473  0.5278 -0.0838
19925TIP3   OH281265   4.883   1.372   3.497 -0.2711 -0.4770 -0.5194
19925TIP3    H181266   4.865   1.284   3.530  0.3656  0.0363  1.2745
19925TIP3    H281267   4.916   1.357   3.408 -0.8782 -1.9875 -0.5264
19926TIP3   OH281268   3.420   3.953  10.941  0.0115 -0.8357 -0.1944
19926TIP3    H181269   3.351   4.015  10.919 -1.6731 -2.1441  1.0970
19926TIP3    H281270   3.376   3.885  10.992  1.8620 -2.8349 -1.0896
19927TIP3   OH281271   4.953   4.965   3.318  0.5002  0.2558  0.1998
19927TIP3    H181272   4.997   4.901   3.262  0.5615  0.1204  0.4032
19927TIP3    H281273   4.991   4.951   3.405 -0.8142 -0.6794  0.6384
19928TIP3   OH281274   1.944   4.455   6.418  0.2400 -0.3216 -0.1118
19928TIP3    H181275   1.977   4.405   6.492 -0.5703  2.9280  2.6864
19928TIP3    H281276   2.020   4.501   6.384  0.2486 -0.1312  0.1606
19929TIP3   OH281277   0.582   4.378   1.220 -0.6414 -0.3805  0.3930
19929TIP3    H181278   0.627   4.463   1.222  0.8758 -1.1104 -0.8401
19929TIP3    H281279   0.652   4.315   1.204 -1.9361 -1.7378 -0.0276
19930TIP3   OH281280   5.373   2.001  11.074 -0.8426 -0.1402  0.6231
19930TIP3    H181281   5.312   2.038  11.009  0.0375 -2.7429 -1.9093
19930TIP3    H281282   5.454   2.051  11.061 -0.1561 -1.6448 -1.6447
19931TIP3   OH281283   3.679   2.579   0.433  0.1498  0.4406 -0.0788
19931TIP3    H181284   3.622   2.514   0.475  0.3079  0.3240 -0.0387
19931TIP3    H281285   3.624   2.655   0.419 -0.1933  0.0913 -0.6538
19932TIP3   OH281286   6.305   6.128  12.293 -0.0327 -0.6966  0.1139
19932TIP3    H181287   6.249   6.054  12.318 -2.6467  1.1032 -0.0529
19932TIP3    H281288   6.359   6.093  12.222 -1.5210 -2.3193 -0.2947
19933TIP3   OH281289   3.169   1.870  10.795 -0.0564  1.1720  0.5113
19933TIP3    H181290   3.224   1.887  10.718 -1.1504  1.9836 -0.1283
19933TIP3    H281291   3.112   1.798  10.767 -0.8030  1.8085  0.3569
19934TIP3   OH281292   0.603   0.710  15.167 -0.1607  0.0469 -0.2179
19934TIP3    H181293   0.540   0.767  15.123  1.9016  0.7836 -2.4733
19934TIP3    H281294   0.686   0.758  15.161  0.9703 -1.6567  0.9963
19935TIP3   OH281295   0.012   2.310  11.581  0.2184 -0.3967  0.2203
19935TIP3    H181296   0.096   2.266  11.572  0.5821  0.2135  0.5650
19935TIP3    H281297  -0.036   2.288  11.501  0.9483 -0.2359 -0.2683
19936TIP3   OH281298   1.625   2.721   2.765 -0.5765  0.2422  0.6779
19936TIP3    H181299   1.551   2.680   2.808 -1.3531  0.3360 -0.5328
19936TIP3    H281300   1.701   2.693   2.816 -0.9035 -3.5775 -0.6418
19937TIP3   OH281301   1.245   3.202   1.633  0.0768  0.3569 -0.5599
19937TIP3    H181302   1.274   3.183   1.544  1.9858 -1.7297  0.3967
19937TIP3    H281303   1.151   3.222   1.624  0.2349  0.3130 -3.0207
19938TIP3   OH281304   4.397   4.012  12.079  0.4717 -0.2838  0.4723
19938TIP3    H181305   4.465   3.955  12.046  1.3669  1.2630 -0.4607
19938TIP3    H281306   4.372   4.067  12.005 -1.1552 -0.1871  1.0301
19939TIP3   OH281307   5.202   6.202  10.961 -0.3836 -0.1524 -0.5770
19939TIP3    H181308   5.203   6.297  10.946 -0.1425 -0.0516  0.0620
19939TIP3    H281309   5.276   6.169  10.909  0.0598  0.1213 -0.1362
19940TIP3   OH281310   6.725   3.644  11.231  0.1894 -0.0211 -0.1184
19940TIP3    H181311   6.791   3.655  11.162  0.3514 -0.0067  0.0396
19940TIP3    H281312   6.744   3.558  11.269  1.0522  0.6004  0.9185
19941TIP3   OH281313   5.803   2.687   5.664  0.6531  0.7713 -0.0722
19941TIP3    H181314   5.769   2.628   5.731 -0.0312  0.6033 -0.5586
19941TIP3    H281315   5.864   2.744   5.711  1.0508 -0.0803  0.4759
19942TIP3   OH281316   3.985   6.064   3.076 -0.0908  0.5796 -0.1657
19942TIP3    H181317   4.062   6.090   3.126  0.7660 -0.7905 -0.7365
19942TIP3    H281318   3.966   5.975   3.106  0.2618 -0.1633 -2.0221
19943TIP3   OH281319   2.032   0.833  13.725 -0.7096  0.0544 -0.2380
19943TIP3    H181320   2.046   0.818  13.819 -1.9770 -2.4759 -0.3717
19943TIP3    H281321   1.940   0.862  13.719 -0.3667  1.1166 -0.6611
19944TIP3   OH281322   0.820   1.737  13.657  0.0526  0.5625  0.3130
19944TIP3    H181323   0.737   1.692  13.644 -0.1823  1.4445 -1.4754
19944TIP3    H281324   0.798   1.815  13.708 -0.1840  0.6609  0.0614
19945TIP3   OH281325   6.090   2.373  10.729  0.0453 -0.0681 -0.4148
19945TIP3    H181326   6.153   2.300  10.731  0.7971  0.5812  0.8351
19945TIP3    H281327   6.100   2.411  10.642  1.2432 -0.1182 -0.3168
19946TIP3   OH281328   2.723   1.623  15.782 -0.2480 -0.0554 -0.1136
19946TIP3    H181329   2.690   1.655  15.698  1.4789  0.6813 -0.5705
19946TIP3    H281330   2.651   1.636  15.844 -1.5868 -0.7005 -1.4753
19947TIP3   OH281331   3.864   5.341   3.956  0.2462 -0.4818 -0.0920
19947TIP3    H181332   3.900   5.420   3.914 -1.1218 -0.0435 -0.5044
19947TIP3    H281333   3.855   5.364   4.048  1.8796 -0.9295  0.1976
19948TIP3   OH281334   2.230   6.606   4.004 -0.2658 -0.2335  0.3854
19948TIP3    H181335   2.306   6.638   4.052 -0.9040 -1.2809  2.2291
19948TIP3    H281336   2.209   6.522   4.046 -3.0790  0.5177  0.7147
19949TIP3   OH281337   3.125   5.666  14.330  0.5839  0.2837 -0.2374
19949TIP3    H181338   3.159   5.669  14.240  0.6674 -2.1970 -0.3719
19949TIP3    H281339   3.156   5.747  14.370  1.9340  0.7044 -1.9886
19950TIP3   OH281340   0.008   2.457   5.695  0.2693  0.4042  0.0106
19950TIP3    H181341  -0.037   2.396   5.753 -0.0757 -0.9044 -1.5844
19950TIP3    H281342   0.089   2.479   5.742  0.7500 -1.8430  0.3217
19951TIP3   OH281343   1.355   5.733  16.906 -0.1531  0.0535  1.1703
19951TIP3    H181344   1.333   5.824  16.884 -0.2405 -0.1413  0.3935
19951TIP3    H281345   1.444   5.737  16.940  1.0349  0.1068 -1.6520
19952TIP3   OH281346   4.161   2.829  15.856  0.8969 -0.0884  0.0352
19952TIP3    H181347   4.195   2.749  15.897  0.4994  0.9123  2.4659
19952TIP3    H281348   4.129   2.882  15.929  0.5761  2.0449 -1.5584
19953TIP3   OH281349   5.212   6.166  11.909  0.1960 -0.1966  0.4534
19953TIP3    H181350   5.226   6.228  11.980 -1.2676  0.3119  0.3339
19953TIP3    H281351   5.249   6.209  11.831  2.0703 -0.8822  0.9171
19954TIP3   OH281352   6.029   6.064  11.344 -0.0553  1.0017  0.5313
19954TIP3    H181353   5.969   6.125  11.388 -1.9645  1.1905 -2.0937
19954TIP3    H281354   5.972   6.007  11.293  1.9063 -0.4592 -0.1447
19955TIP3   OH281355   3.247   0.021  15.873  0.6514 -0.0094 -0.2777
19955TIP3    H181356   3.273  -0.026  15.794  0.5933  0.1148 -0.3708
19955TIP3    H281357   3.306   0.095  15.877  1.3915 -0.6224  0.4014
19956TIP3   OH281358   6.248   5.808   5.655 -0.6345  0.1819 -0.5763
19956TIP3    H181359   6.290   5.847   5.732 -3.8303  1.6905  0.5858
19956TIP3    H281360   6.201   5.880   5.615 -1.4921 -1.2348 -2.2177
19957TIP3   OH281361   2.710   2.847  14.208 -0.5618  0.4567  0.1407
19957TIP3    H181362   2.790   2.824  14.161 -1.5906  0.6748 -1.7977
19957TIP3    H281363   2.651   2.774  14.193  0.0496 -0.9760  3.7552
19958TIP3   OH281364   1.104   4.415  13.813 -0.4526 -0.3638  0.4062
19958TIP3    H181365   1.033   4.468  13.849 -1.3208  0.5668 -2.4019
19958TIP3    H281366   1.064   4.368  13.739  1.6976 -0.1890 -0.9724
19959TIP3   OH281367   0.943   3.511   3.139 -1.0488  0.0598 -0.6134
19959TIP3    H181368   0.862   3.461   3.136 -0.4254 -0.9325 -2.3813
19959TIP3    H281369   0.927   3.587   3.082 -1.8652  1.8043  1.7664
19960TIP3   OH281370   5.124   4.146   4.675  0.4667  0.0335  0.2969
19960TIP3    H181371   5.125   4.117   4.583  0.9427  1.4188 -0.1613
19960TIP3    H281372   5.213   4.129   4.706  0.8723  1.3406 -0.1029
19961TIP3   OH281373   4.186   4.160  14.072 -0.7383  0.3158 -0.0564
19961TIP3    H181374   4.277   4.133  14.086  0.4754  2.7786 -2.2620
19961TIP3    H281375   4.157   4.111  13.996 -0.8560  0.3805 -0.0531
19962TIP3   OH281376   0.817   5.439  14.222 -0.0058 -0.0779 -0.5280
19962TIP3    H181377   0.874   5.484  14.284 -0.9953  2.2234 -1.1802
19962TIP3    H281378   0.789   5.507  14.161 -0.6719 -1.8410 -2.3250
19963TIP3   OH281379   4.721   4.048  11.496 -0.5553  0.0775  0.2504
19963TIP3    H181380   4.800   4.081  11.538 -0.4213 -1.7408  1.5527
19963TIP3    H281381   4.751   4.010  11.413  0.1559 -1.5330  1.2058
19964TIP3   OH281382   3.377   5.215   1.171 -0.1816 -0.5783 -0.1794
19964TIP3    H181383   3.423   5.181   1.247 -0.3707 -1.5918 -0.5041
19964TIP3    H281384   3.313   5.276   1.207  1.4337  0.9292  0.2675
19965TIP3   OH281385   0.510   4.322  16.969  0.1367 -0.8546  0.7312
19965TIP3    H181386   0.418   4.310  16.946 -0.0118 -1.0444  1.4069
19965TIP3    H281387   0.512   4.318  17.065  0.7276  0.0048  0.7634
19966TIP3   OH281388   1.670   6.336   0.502  0.3366  0.2866 -0.5312
19966TIP3    H181389   1.652   6.406   0.564 -0.8481 -1.8044  1.6865
19966TIP3    H281390   1.762   6.313   0.517  0.7273  1.3289 -1.2712
19967TIP3   OH281391   2.063   5.608   1.822  1.0837  0.3656  0.2367
19967TIP3    H181392   2.017   5.532   1.789  1.1045  0.8208 -0.9053
19967TIP3    H281393   2.156   5.586   1.812  1.0899  0.5194 -0.0894
19968TIP3   OH281394   5.467   0.872   4.376 -0.6425 -1.0813  0.2528
19968TIP3    H181395   5.486   0.821   4.455  1.1765 -1.5336 -0.4210
19968TIP3    H281396   5.543   0.859   4.320 -2.4806 -2.0055 -2.2477
19969TIP3   OH281397   4.125   4.594  11.759 -0.2925  0.2209  0.3439
19969TIP3    H181398   4.069   4.527  11.798  2.5400 -1.2953  2.1751
19969TIP3    H281399   4.122   4.667  11.821 -0.5262  0.2945  0.2464
19970TIP3   OH281400   1.543   3.717  13.093  0.2011 -0.0101 -0.2939
19970TIP3    H181401   1.475   3.649  13.089 -0.2685  0.0029  3.5544
19970TIP3    H281402   1.499   3.793  13.129  1.8696  0.5462  0.6936
19971TIP3   OH281403   4.682   1.277  11.397  0.8188  0.5133 -0.1380
19971TIP3    H181404   4.600   1.240  11.366  1.1451  0.2110 -0.6499
19971TIP3    H281405   4.661   1.313  11.484  0.3328 -0.2306  0.0580
19972TIP3   OH281406   6.059   2.034  10.833  0.1226  0.1531 -0.0873
19972TIP3    H181407   6.083   1.964  10.772  3.0140  0.5006  0.5205
19972TIP3    H281408   6.117   2.107  10.810 -2.0952  2.0474 -0.0274
19973TIP3   OH281409   6.547   2.032   5.753 -0.5061 -0.2322  0.3891
19973TIP3    H181410   6.488   2.048   5.826 -1.3139  0.2988 -0.3560
19973TIP3    H281411   6.560   1.937   5.752 -1.8120 -0.4285  0.2319
19974TIP3   OH281412   2.532   0.978  15.638 -0.2754  0.3903 -0.3054
19974TIP3    H181413   2.591   0.907  15.665 -1.1621 -0.1800  0.1611
19974TIP3    H281414   2.472   0.989  15.711 -0.9088  0.8017 -0.8740
19975TIP3   OH281415   3.424   0.805  13.043  0.2834  0.3910 -0.3013
19975TIP3    H181416   3.356   0.808  13.111  0.3967  0.8914 -0.2099
19975TIP3    H281417   3.500   0.848  13.083  0.5507  0.1263 -0.5216
19976TIP3   OH281418   3.986   0.507  15.723 -0.1513 -0.4287 -0.2683
19976TIP3    H181419   3.931   0.583  15.745 -0.0873 -0.4992  0.1444
19976TIP3    H281420   4.016   0.525  15.634  2.3835  1.5874  0.8591
19977TIP3   OH281421   5.465   6.318  15.862  0.0545  0.2398 -0.0810
19977TIP3    H181422   5.433   6.243  15.812  0.8535  0.9051 -1.6688
19977TIP3    H281423   5.466   6.288  15.953  0.2225 -1.6263 -0.6582
19978TIP3   OH281424   2.251   0.349  14.406  0.2854  0.1679 -0.0517
19978TIP3    H181425   2.298   0.370  14.487  0.5692  1.1165 -0.4530
19978TIP3    H281426   2.185   0.284  14.433  0.5374  0.2866  0.8892
19979TIP3   OH281427   5.970   6.330   5.711 -0.2515 -0.1098  0.3955
19979TIP3    H181428   6.063   6.344   5.692 -0.0823 -0.6601  0.7987
19979TIP3    H281429   5.925   6.401   5.665  0.3062 -0.2876 -0.4409
19980TIP3   OH281430   5.345   0.811   5.627 -0.5151  0.2171  0.5537
19980TIP3    H181431   5.324   0.717   5.628 -0.1779  0.0905 -1.1570
19980TIP3    H281432   5.394   0.825   5.707  2.4982 -1.8664 -0.7299
19981TIP3   OH281433   6.078   5.058  14.438 -0.4178  0.2309 -0.1650
19981TIP3    H181434   6.173   5.052  14.428 -0.5602 -0.1268 -1.4865
19981TIP3    H281435   6.056   4.989  14.501  0.1315 -0.0876 -0.3134
19982TIP3   OH281436   2.604   1.708  11.054  0.2202 -0.3078  0.0566
19982TIP3    H181437   2.637   1.620  11.038 -1.1388 -0.8994  0.3865
19982TIP3    H281438   2.638   1.731  11.141 -1.2930 -1.4595  0.9997
19983TIP3   OH281439   0.517   2.078  11.827  0.0968 -0.1287 -0.1585
19983TIP3    H181440   0.553   1.993  11.853  0.2861 -0.0197 -0.0577
19983TIP3    H281441   0.583   2.116  11.769  0.1301  0.0573 -0.0022
19984TIP3   OH281442   4.963   5.932   5.717 -0.3647  0.2347 -0.2122
19984TIP3    H181443   4.874   5.899   5.705 -1.7710  3.0837  1.4326
19984TIP3    H281444   5.003   5.870   5.777 -1.6977 -0.3930  0.0775
19985TIP3   OH281445   0.259   4.834   4.003  0.1075 -0.1521 -0.0424
19985TIP3    H181446   0.303   4.904   4.052 -0.7985 -0.3135  1.0511
19985TIP3    H281447   0.290   4.754   4.045  0.9315 -0.4172 -1.1175
19986TIP3   OH281448   5.742   3.963  12.442  0.0497 -0.3833 -0.1658
19986TIP3    H181449   5.766   4.055  12.437  0.2989 -0.4865 -1.0785
19986TIP3    H281450   5.670   3.960  12.505  2.9136 -0.1735  3.4790
19987TIP3   OH281451   2.572   6.185  12.140  0.1392 -0.2038 -0.9998
19987TIP3    H181452   2.646   6.125  12.151 -0.9847 -1.4513  0.0700
19987TIP3    H281453   2.502   6.131  12.103 -0.6125  0.6754 -0.9064
19988TIP3   OH281454   1.275   6.355   4.757  0.9418  0.1398  0.5645
19988TIP3    H181455   1.333   6.386   4.827  0.2759  1.4507  0.5483
19988TIP3    H281456   1.205   6.309   4.803  0.3852  1.1946  0.7887
19989TIP3   OH281457   3.944   2.264  14.047  0.1786  0.2303 -0.3019
19989TIP3    H181458   3.946   2.343  13.994 -1.7126 -0.0986 -0.9615
19989TIP3    H281459   3.951   2.295  14.137  2.0520  0.9093 -0.6394
19990TIP3   OH281460   0.611   1.487  15.121  0.0587  0.0642  0.2840
19990TIP3    H181461   0.544   1.425  15.148  1.0224 -0.0683  2.5576
19990TIP3    H281462   0.577   1.573  15.148 -1.1610  0.5984 -2.6258
19991TIP3   OH281463   3.603   5.851  11.795 -0.3475  0.4304  0.2403
19991TIP3    H181464   3.569   5.765  11.770 -1.7782  1.0613 -0.0444
19991TIP3    H281465   3.532   5.893  11.842  1.1086  0.6378  2.3951
19992TIP3   OH281466   5.342   3.701   1.940 -0.5991  0.2638  0.4591
19992TIP3    H181467   5.332   3.788   1.981  0.9990 -0.1143  1.7620
19992TIP3    H281468   5.329   3.639   2.012 -1.2147 -0.5753 -0.3561
19993TIP3   OH281469   5.461   1.218   5.024 -0.1448 -0.1507 -0.4606
19993TIP3    H181470   5.511   1.183   5.097 -1.1254  1.2983  0.9939
19993TIP3    H281471   5.525   1.264   4.971  0.2592  0.8544  0.8373
19994TIP3   OH281472   0.073   2.930  10.403  0.0244  0.3127 -0.2698
19994TIP3    H181473  -0.007   2.939  10.455  1.1744 -0.4148  1.7114
19994TIP3    H281474   0.074   2.838  10.375 -0.3618  0.5922 -1.2630
19995TIP3   OH281475   3.840   3.740  15.886  0.1114 -0.7815  0.0098
19995TIP3    H181476   3.769   3.697  15.934 -0.6493  1.3378  0.8913
19995TIP3    H281477   3.807   3.747  15.796 -0.2896 -0.9134  0.1443
19996TIP3   OH281478   4.135   0.103  10.868 -0.5902 -0.3897  0.0681
19996TIP3    H181479   4.095   0.027  10.826  0.1633 -0.8577  0.1785
19996TIP3    H281480   4.200   0.134  10.804 -1.0802  0.3283 -0.0894
19997TIP3   OH281481   1.170   6.050  11.752  0.1546  0.2968  0.3683
19997TIP3    H181482   1.181   6.138  11.788 -2.1117  0.2080  1.4581
19997TIP3    H281483   1.217   5.993  11.812 -1.7777  0.3894  2.0762
19998TIP3   OH281484   2.244   0.932   4.647  0.4108  0.1777  0.1781
19998TIP3    H181485   2.287   1.009   4.684 -1.9547  0.7257  2.0237
19998TIP3    H281486   2.151   0.955   4.645 -0.1158 -1.7972 -1.4238
19999TIP3   OH281487   3.161   4.694  14.457  0.9852  0.1643  0.2064
19999TIP3    H181488   3.168   4.599  14.443 -0.2138 -0.0686  1.0059
19999TIP3    H281489   3.080   4.718  14.413  0.8753  0.6767  0.6842
20000TIP3   OH281490   5.078   1.060  11.021  0.1132 -0.4664  0.3212
20000TIP3    H181491   4.990   1.022  11.023  0.6426 -1.7339  1.3043
20000TIP3    H281492   5.064   1.153  11.008 -1.3093 -0.8285 -0.9888
20001TIP3   OH281493   0.235   0.379   2.303 -0.0428  0.1657 -0.0066
20001TIP3    H181494   0.226   0.365   2.397  0.5604  1.6925  0.2986
20001TIP3    H281495   0.174   0.316   2.264 -2.0874  1.1007  1.4778
20002TIP3   OH281496   4.552   6.493  14.788  0.0372 -0.1709  0.3596
20002TIP3    H181497   4.539   6.561  14.854 -0.6092  0.5122 -0.4469
20002TIP3    H281498   4.627   6.524  14.736 -0.3784  0.0414 -0.1278
20003TIP3   OH281499   0.007   3.407  15.458 -0.4142 -0.0820 -0.7163
20003TIP3    H181500  -0.072   3.443  15.416 -1.1437  2.1882  2.2448
20003TIP3    H281501   0.078   3.462  15.425 -0.6471  0.2434 -0.6922
20004TIP3   OH281502   4.051   0.135  11.208 -0.1659 -0.3081 -0.5367
20004TIP3    H181503   3.987   0.080  11.162  0.0004  0.0907 -1.2647
20004TIP3    H281504   4.134   0.087  11.201 -0.0765 -0.1024 -0.9385
20005TIP3   OH281505   3.293   4.618   2.117  0.2420 -0.2177  0.2901
20005TIP3    H181506   3.304   4.674   2.194  0.1315  0.1720  0.0288
20005TIP3    H281507   3.315   4.675   2.043  0.2175 -0.5493  0.0266
20006TIP3   OH281508   6.620   4.237  10.696  0.2298  0.0360 -0.4282
20006TIP3    H181509   6.596   4.205  10.783  0.2997  0.1066 -0.3820
20006TIP3    H281510   6.659   4.323  10.712  1.0561 -0.3247 -0.4349
20007TIP3   OH281511   0.232   0.871   3.028 -0.6182  0.4709  0.1187
20007TIP3    H181512   0.242   0.801   2.964  3.2680  0.1539  0.8202
20007TIP3    H281513   0.187   0.831   3.102 -2.7001  0.1178 -1.2631
20008TIP3   OH281514   0.597   4.958   4.308  0.4303  0.6406  0.3261
20008TIP3    H181515   0.611   4.879   4.360 -0.2997  0.3051  0.0195
20008TIP3    H281516   0.678   5.008   4.318  0.2431  0.6790  1.9479
20009TIP3   OH281517   2.256   1.549  15.245 -0.5395 -0.3648 -0.3963
20009TIP3    H181518   2.212   1.516  15.167 -2.4122  1.0150 -0.0113
20009TIP3    H281519   2.281   1.471  15.294 -1.2758 -1.2328 -1.3606
20010TIP3   OH281520   6.014   5.979  15.897  0.6699  0.1756 -0.4105
20010TIP3    H181521   5.997   6.072  15.882  0.9949  0.2533 -0.3148
20010TIP3    H281522   5.967   5.960  15.978  0.6484  0.2715 -0.3997
20011TIP3   OH281523   6.075   5.361   0.474 -0.3829  0.2588 -0.0190
20011TIP3    H181524   6.142   5.360   0.406 -0.1159 -0.8630  0.2446
20011TIP3    H281525   5.993   5.342   0.427 -0.1085 -1.1555  0.0427
20012TIP3   OH281526   2.425   0.660  11.539  0.0193 -0.1280 -0.8325
20012TIP3    H181527   2.334   0.646  11.513 -0.3478  1.2129 -0.3861
20012TIP3    H281528   2.461   0.716  11.470 -0.3910  1.7852  0.4014
20013TIP3   OH281529   1.348   5.188  15.449 -0.5787  0.2135 -0.2002
20013TIP3    H181530   1.364   5.133  15.373 -0.7128  1.4745 -1.1651
20013TIP3    H281531   1.312   5.270  15.414  0.4813  1.2962  1.0851
20014TIP3   OH281532   4.008   4.155  11.953  0.0256 -0.5452  0.2747
20014TIP3    H181533   4.023   4.233  12.006  0.1511  1.1112 -2.0616
20014TIP3    H281534   3.934   4.111  11.996 -0.8952  1.5379  0.9565
20015TIP3   OH281535   3.219   1.070   0.816  0.1314 -0.1224 -0.0014
20015TIP3    H181536   3.218   1.024   0.899 -0.3436  0.8223  0.5310
20015TIP3    H281537   3.282   1.142   0.829 -0.2174  0.2512 -0.3257
20016TIP3   OH281538   1.778   3.839   5.507  0.3653  0.0283  0.5067
20016TIP3    H181539   1.718   3.765   5.519  0.5139 -0.3186 -0.6560
20016TIP3    H281540   1.775   3.855   5.412  1.1357  0.8313  0.6175
20017TIP3   OH281541   5.728   5.147  13.016  0.2644 -0.4882  0.1022
20017TIP3    H181542   5.765   5.114  13.098  0.9544  0.4911  0.2055
20017TIP3    H281543   5.707   5.239  13.035  0.2558 -0.3016 -0.7663
20018TIP3   OH281544   2.699   4.685   2.155 -0.1802 -0.2300 -0.1584
20018TIP3    H181545   2.642   4.755   2.123 -0.2547  0.5090  1.4740
20018TIP3    H281546   2.646   4.606   2.150 -0.6803  0.1196 -0.4521
20019TIP3   OH281547   3.886   3.943  11.386 -0.0702 -0.3755  0.1515
20019TIP3    H181548   3.902   3.933  11.480  1.0636 -0.5715 -0.0570
20019TIP3    H281549   3.967   3.916  11.344 -0.6782 -0.6161 -0.9124
20020TIP3   OH281550   3.886   3.138  10.267  0.0067  0.1185  0.0457
20020TIP3    H181551   3.954   3.126  10.200  1.1153 -2.0727  1.4502
20020TIP3    H281552   3.915   3.213  10.318  1.0893 -0.4714  0.3035
20021TIP3   OH281553   3.119   5.727  15.689  0.0143 -0.2211 -0.3593
20021TIP3    H181554   3.189   5.672  15.723  0.6178  0.3307 -0.7053
20021TIP3    H281555   3.139   5.815  15.721 -0.2232  0.0380 -0.9122
20022TIP3   OH281556   0.043   1.496   0.295  0.0707 -0.2223 -0.2132
20022TIP3    H181557  -0.046   1.497   0.329  0.0556  3.2189 -0.1033
20022TIP3    H281558   0.097   1.475   0.372 -0.5605 -3.6850 -0.5329
20023TIP3   OH281559   1.708   1.902   5.076  0.4141  0.1255 -0.2988
20023TIP3    H181560   1.633   1.942   5.120  0.5119  0.7859 -0.7106
20023TIP3    H281561   1.781   1.916   5.136  0.1110 -1.0626  0.3860
20024TIP3   OH281562   5.375   0.338   3.063 -0.4426  0.1513  0.2091
20024TIP3    H181563   5.306   0.401   3.041 -0.1096  0.8392  1.0998
20024TIP3    H281564   5.360   0.316   3.155  0.9414  0.8688  0.6342
20025TIP3   OH281565   0.520   4.163   5.900 -0.4388  0.2917 -0.5125
20025TIP3    H181566   0.559   4.224   5.962  2.7477  0.7362 -2.7158
20025TIP3    H281567   0.573   4.084   5.908  0.2550  0.4598 -2.7441
20026TIP3   OH281568   6.584   2.906  15.487  0.3335 -0.3676 -0.5234
20026TIP3    H181569   6.675   2.917  15.460  0.5530  0.0131  0.3513
20026TIP3    H281570   6.571   2.811  15.489  0.9008 -0.4420 -0.0423
20027TIP3   OH281571   0.608   3.625   2.688 -0.2858 -0.3388  0.2727
20027TIP3    H181572   0.660   3.564   2.635  1.0879  0.3914  0.7211
20027TIP3    H281573   0.575   3.689   2.626  0.9691  0.2746  0.1998
20028TIP3   OH281574   6.292   0.723   3.241  0.6338  0.0388  0.0984
20028TIP3    H181575   6.272   0.632   3.219  0.0884  0.3101 -0.5453
20028TIP3    H281576   6.285   0.770   3.158 -0.9517  0.9922  0.7351
20029TIP3   OH281577   6.251   0.321  11.063 -0.0463  0.1349 -0.2600
20029TIP3    H181578   6.178   0.308  11.003 -1.1265  0.1810  0.9965
20029TIP3    H281579   6.297   0.237  11.063 -1.6501 -0.8052  0.8900
20030TIP3   OH281580   1.212   3.342  14.650  0.1775 -0.1594 -0.7213
20030TIP3    H181581   1.219   3.328  14.744 -0.0989 -1.0167 -0.8119
20030TIP3    H281582   1.283   3.402  14.628 -1.1854  1.9478  0.3837
20031TIP3   OH281583   3.472   1.455  12.109 -0.3250  0.5517 -0.4240
20031TIP3    H181584   3.379   1.474  12.108 -0.2868  0.7157 -1.0072
20031TIP3    H281585   3.513   1.538  12.135 -0.2533  0.8760 -1.5474
20032TIP3   OH281586   1.465   6.168   0.328  0.4191 -0.7551 -0.4325
20032TIP3    H181587   1.371   6.170   0.347  0.6934  0.0316  1.0058
20032TIP3    H281588   1.505   6.213   0.402  1.7656  0.9146 -2.0716
20033TIP3   OH281589   2.010   1.724  12.080 -0.0994 -0.0589 -0.2112
20033TIP3    H181590   1.995   1.638  12.043 -0.7399  0.3993 -1.0397
20033TIP3    H281591   1.985   1.715  12.172 -0.5070 -0.6638 -0.3726
20034TIP3   OH281592   1.424   1.661  12.688 -0.2519 -0.1287  0.4788
20034TIP3    H181593   1.494   1.719  12.717  0.9092 -1.0946 -0.3044
20034TIP3    H281594   1.345   1.715  12.691  0.2025  0.5244  2.9716
20035TIP3   OH281595   0.738   4.052  12.211 -0.6260  0.0801  0.2654
20035TIP3    H181596   0.721   4.105  12.289  0.9771 -0.9433  1.3828
20035TIP3    H281597   0.829   4.069  12.190 -0.0100 -2.2514  0.7475
20036TIP3   OH281598   5.047   1.580  17.007 -0.3090 -0.2646  0.1907
20036TIP3    H181599   4.990   1.526  16.952 -0.4416  1.0145 -0.9817
20036TIP3    H281600   5.038   1.668  16.971 -0.1288  0.5633  2.0722
20037TIP3   OH281601   1.440   4.384  12.513  0.0599  0.4384  0.0356
20037TIP3    H181602   1.482   4.379  12.598 -0.4981  0.4866  0.3163
20037TIP3    H281603   1.473   4.466  12.474 -0.2896  0.8138  0.5259
20038TIP3   OH281604   5.011   4.193   0.819 -0.1807  0.2918  0.3823
20038TIP3    H181605   5.082   4.129   0.831 -0.9792 -0.8555 -0.7427
20038TIP3    H281606   5.048   4.276   0.849  0.8068 -0.7236  2.1578
20039TIP3   OH281607   0.037   2.283   3.715 -0.7728  0.1584  0.1282
20039TIP3    H181608   0.025   2.368   3.673 -1.3966  0.3345  0.6492
20039TIP3    H281609  -0.050   2.242   3.713 -0.2168 -1.0385 -1.2975
20040TIP3   OH281610   2.411   2.314   2.418  0.4837  0.3013 -0.0177
20040TIP3    H181611   2.455   2.369   2.482  1.8508 -1.5583  0.7293
20040TIP3    H281612   2.320   2.308   2.448  0.1152  2.6341 -0.5079
20041TIP3   OH281613   2.968   1.565  15.454  0.7426  0.1077  0.1067
20041TIP3    H181614   2.969   1.517  15.536  2.0344 -0.8277 -0.4138
20041TIP3    H281615   2.876   1.575  15.432  0.3911  0.1121  1.5023
20042TIP3   OH281616   2.902   2.519   3.996  0.3704 -0.4321  0.0733
20042TIP3    H181617   2.837   2.520   4.067 -0.7582  0.1998 -0.9426
20042TIP3    H281618   2.929   2.428   3.990  0.5615 -0.4890  1.3728
20043TIP3   OH281619   0.395   5.323  10.906 -0.1291  0.5909 -0.1907
20043TIP3    H181620   0.329   5.386  10.877 -0.2913  0.1607 -0.7713
20043TIP3    H281621   0.477   5.371  10.903 -0.6066  1.8349  2.6114
20044TIP3   OH281622   6.426   4.964   2.027 -0.2307  0.1421  0.2706
20044TIP3    H181623   6.355   4.903   2.006 -0.5964  0.2513  1.1380
20044TIP3    H281624   6.506   4.920   1.996 -0.5657 -0.4465  0.2286
20045TIP3   OH281625   5.139   2.346   5.643 -0.0936 -0.1423  0.1466
20045TIP3    H181626   5.099   2.336   5.556  0.2514  0.9527 -0.1482
20045TIP3    H281627   5.222   2.390   5.626 -0.4156  0.8633  1.1174
20046TIP3   OH281628   0.970   6.585   4.084  0.3111 -0.0395 -0.0815
20046TIP3    H181629   1.007   6.508   4.127  1.5595  0.0468 -0.9449
20046TIP3    H281630   0.902   6.550   4.027  1.1429 -0.5687 -0.7739
20047TIP3   OH281631   0.077   5.019  15.805 -0.5008  0.1109  0.1806
20047TIP3    H181632   0.093   5.091  15.744  1.3836 -0.7471 -0.3875
20047TIP3    H281633   0.116   4.942  15.764 -1.0726 -0.9296  1.4943
20048TIP3   OH281634   1.711   2.740   1.529  0.3083  0.1789  0.3569
20048TIP3    H181635   1.662   2.661   1.554 -0.8432  1.7954  3.9150
20048TIP3    H281636   1.661   2.777   1.456 -0.6454 -1.0146  0.3679
20049TIP3   OH281637   4.005   1.646  11.662 -0.2932  0.6044 -0.2232
20049TIP3    H181638   4.058   1.706  11.713 -1.9076  0.9768  1.1074
20049TIP3    H281639   4.068   1.589  11.617  1.2387  2.6591 -0.7853
20050TIP3   OH281640   5.772   0.596   3.995  0.1073 -0.3491 -0.0240
20050TIP3    H181641   5.732   0.513   4.022  0.4807 -1.1176 -1.6703
20050TIP3    H281642   5.728   0.662   4.048  0.3478 -1.6533  1.9058
20051TIP3   OH281643   1.177   5.436  14.945  0.2902 -0.1221  0.4014
20051TIP3    H181644   1.146   5.522  14.975  3.7996  1.5479 -0.2280
20051TIP3    H281645   1.167   5.379  15.021 -3.9769  0.1474  0.2725
20052TIP3   OH281646   2.686   1.799  14.961  0.2480  0.0556 -0.3090
20052TIP3    H181647   2.628   1.865  14.924 -0.2262  0.3940  1.0088
20052TIP3    H281648   2.751   1.783  14.892 -0.6577  0.5939 -1.3063
20053TIP3   OH281649   3.606   3.178  16.208 -0.5605 -0.1839  0.0851
20053TIP3    H181650   3.623   3.211  16.296 -1.7034 -0.4631  0.4365
20053TIP3    H281651   3.526   3.125  16.217 -0.0046 -1.2429 -0.8746
20054TIP3   OH281652   3.849   1.851   5.615  0.8423  0.4874 -0.3036
20054TIP3    H181653   3.844   1.877   5.707  0.0035 -1.7582  0.3576
20054TIP3    H281654   3.922   1.790   5.612  0.4089 -0.0076 -0.9599
20055TIP3   OH281655   4.410   3.968   1.492  0.8218  0.0887  0.2655
20055TIP3    H181656   4.405   3.937   1.583  0.7416 -0.2202  0.1578
20055TIP3    H281657   4.331   3.933   1.451  1.0655 -0.1227 -0.0268
20056TIP3   OH281658   0.203   4.233   2.954  0.1071  0.0553 -0.1245
20056TIP3    H181659   0.159   4.296   3.011  1.1247  0.1709  0.5594
20056TIP3    H281660   0.172   4.148   2.985  0.5013  0.1260  0.4904
20057TIP3   OH281661   2.081   5.335  14.664  0.3223  0.4119 -0.4109
20057TIP3    H181662   2.005   5.355  14.608  0.5737  0.4128 -0.7542
20057TIP3    H281663   2.134   5.414  14.661 -0.6563  1.2068  1.4922
20058TIP3   OH281664   5.117   3.514  11.765 -0.3611  0.2583  0.6712
20058TIP3    H181665   5.100   3.455  11.838 -1.6971  1.4389  1.3612
20058TIP3    H281666   5.191   3.568  11.794 -1.9228  1.8361  1.9054
20059TIP3   OH281667   5.744   0.640   3.504 -0.2956  0.1914 -0.0966
20059TIP3    H181668   5.817   0.666   3.449  0.6915  2.2239  2.0147
20059TIP3    H281669   5.772   0.661   3.593 -2.3484 -1.6407  1.0864
20060TIP3   OH281670   0.020   6.388   3.468 -0.5568 -0.0712  0.1394
20060TIP3    H181671   0.112   6.381   3.443 -0.4574  1.5394 -0.0615
20060TIP3    H281672  -0.025   6.410   3.387 -1.2152 -1.2945  0.1426
20061TIP3   OH281673   2.905   4.389  10.857 -0.0963  0.1698 -0.4039
20061TIP3    H181674   2.940   4.303  10.881  0.8493  0.8475  0.7778
20061TIP3    H281675   2.981   4.436  10.823 -0.3984  0.8539 -0.1370
20062TIP3   OH281676   5.641   1.946  14.691 -0.5501 -0.0593  0.8369
20062TIP3    H181677   5.617   1.864  14.734 -2.5106 -0.5355 -0.9958
20062TIP3    H281678   5.591   2.013  14.737 -1.3781 -0.3477  0.3826
20063TIP3   OH281679   1.939   6.811   5.700 -0.6948  0.2723 -0.0041
20063TIP3    H181680   1.988   6.872   5.644  0.0518 -0.2729  0.0340
20063TIP3    H281681   2.007   6.762   5.748 -1.3215  1.1516  1.8648
20064TIP3   OH281682   6.124   4.909  15.159  0.0959  0.4578 -0.3240
20064TIP3    H181683   6.210   4.904  15.118 -1.2442  0.1263 -3.4572
20064TIP3    H281684   6.119   4.999  15.192  1.2166  0.8790 -1.2129
20065TIP3   OH281685   1.242   4.580  12.639 -0.2263 -0.1217 -0.5266
20065TIP3    H181686   1.222   4.518  12.709 -0.2936 -0.6733 -1.0208
20065TIP3    H281687   1.300   4.530  12.580 -1.3280 -0.1584 -1.6123
20066TIP3   OH281688   5.219   6.341   6.100 -0.0173 -0.0543  0.1901
20066TIP3    H181689   5.182   6.370   6.016 -1.5839 -1.7021  0.2481
20066TIP3    H281690   5.182   6.401   6.164 -1.4201 -0.7232  0.0458
20067TIP3   OH281691   5.381   6.041   1.363  0.2027  0.0437 -0.1838
20067TIP3    H181692   5.419   6.097   1.295  0.2994 -0.1631 -0.3024
20067TIP3    H281693   5.404   6.084   1.445 -0.3691  0.5800 -0.2986
20068TIP3   OH281694   6.205   1.528  11.834  0.1429 -0.0874  0.0131
20068TIP3    H181695   6.142   1.458  11.817 -0.6586  0.6135  0.0597
20068TIP3    H281696   6.276   1.485  11.883 -0.8152 -0.6611  0.9290
20069TIP3   OH281697   6.501   5.993   2.497  0.0183 -0.2347  0.3861
20069TIP3    H181698   6.540   5.906   2.497 -0.8555 -0.6422  0.1749
20069TIP3    H281699   6.527   6.031   2.581  2.8251  0.4604 -0.6908
20070TIP3   OH281700   0.709   4.142  11.868  0.1140  0.4881 -0.2146
20070TIP3    H181701   0.650   4.108  11.934  0.0962 -0.3262 -0.6441
20070TIP3    H281702   0.764   4.068  11.843  0.6600  0.9865 -0.5280
20071TIP3   OH281703   4.231   4.857  17.042  0.1724  0.1027 -0.5119
20071TIP3    H181704   4.258   4.949  17.036  1.2377 -0.1071  0.7307
20071TIP3    H281705   4.154   4.858  17.097  1.4496  0.0695  1.3664
20072TIP3   OH281706   4.677   5.276   5.714 -0.1855 -0.4266  0.2472
20072TIP3    H181707   4.590   5.250   5.743 -1.0653  2.3052  0.2868
20072TIP3    H281708   4.671   5.275   5.619 -1.1729  2.2534  0.2055
20073TIP3   OH281709   1.496   6.145  16.066 -0.1543 -0.1268  0.1122
20073TIP3    H181710   1.533   6.092  15.996  1.4366  1.0177  0.0186
20073TIP3    H281711   1.571   6.168  16.121 -1.3115 -0.8407  2.1371
20074TIP3   OH281712   5.131   3.072  14.847  0.0173  0.0485  0.2036
20074TIP3    H181713   5.101   3.086  14.757  0.4649  0.8168  0.1629
20074TIP3    H281714   5.050   3.059  14.898 -0.8169  4.8624  0.6128
20075TIP3   OH281715   2.526   3.728  15.582 -0.1174  0.1658 -0.2981
20075TIP3    H181716   2.473   3.806  15.566 -0.5846  0.1860  1.2174
20075TIP3    H281717   2.509   3.672  15.506  1.3605  2.0731 -2.1782
20076TIP3   OH281718   5.822   6.721   3.990 -0.3328 -0.6966  0.6713
20076TIP3    H181719   5.764   6.693   4.060 -0.8835 -0.2671  0.3973
20076TIP3    H281720   5.771   6.787   3.942  0.8164  0.5764  1.1437
20077TIP3   OH281721   4.031   4.106   5.108 -0.0448 -0.1726  0.0190
20077TIP3    H181722   4.023   4.017   5.072  0.3171 -0.4523  0.6167
20077TIP3    H281723   4.036   4.092   5.203 -0.9107  0.5457  0.1846
20078TIP3   OH281724   6.464   2.752  12.639 -0.6320  0.1598 -0.4266
20078TIP3    H181725   6.520   2.821  12.675 -0.9419  0.7523 -1.0513
20078TIP3    H281726   6.403   2.731  12.710 -1.3861  1.4740 -0.6511
20079TIP3   OH281727   6.539   2.974   5.185  0.0009  0.0449  0.5840
20079TIP3    H181728   6.591   3.047   5.151 -0.4633  0.1357  0.0523
20079TIP3    H281729   6.520   2.998   5.276  1.3397 -0.2420  0.9610
20080TIP3   OH281730   6.181   3.575   3.265  0.3914 -0.3738  0.4686
20080TIP3    H181731   6.256   3.518   3.285  0.7899 -0.0923 -0.1968
20080TIP3    H281732   6.163   3.560   3.173  0.6502  0.7518  0.2264
20081TIP3   OH281733   0.528   3.758  16.681 -0.0422  0.0700 -0.1126
20081TIP3    H181734   0.596   3.775  16.747 -1.5566 -0.1544  1.6121
20081TIP3    H281735   0.564   3.688  16.627  0.4484 -1.3071  1.8570
20082TIP3   OH281736   2.645   5.197  11.772 -0.2302 -0.5149  0.3708
20082TIP3    H181737   2.551   5.208  11.784 -0.6902 -0.8290 -2.3006
20082TIP3    H281738   2.662   5.228  11.683  1.5956 -3.4485 -0.4787
20083TIP3   OH281739   3.766   2.025   3.749 -0.2831 -0.0867 -0.2622
20083TIP3    H181740   3.745   2.050   3.839 -1.7814  1.9139 -1.0874
20083TIP3    H281741   3.689   2.052   3.698  1.5715  1.3220 -2.5219
20084TIP3   OH281742   3.905   5.397   5.057  0.3062 -0.6261  0.2543
20084TIP3    H181743   3.911   5.420   5.150 -3.3066 -0.3023  0.5537
20084TIP3    H281744   3.826   5.442   5.026  1.0135 -1.2938 -2.8276
20085TIP3   OH281745   6.424   0.905   1.077  0.3510  0.0900 -0.3287
20085TIP3    H181746   6.473   0.939   1.002  0.9721 -0.4611 -0.1859
20085TIP3    H281747   6.378   0.828   1.044  3.4367 -2.3588  0.5887
20086TIP3   OH281748   2.505   0.110  10.443  0.6440 -0.3232 -0.0618
20086TIP3    H181749   2.534   0.021  10.466  0.9484 -0.4345 -0.8426
20086TIP3    H281750   2.440   0.132  10.510 -0.0951 -1.4891 -0.3731
20087TIP3   OH281751   5.233   2.436   4.923  0.5505 -0.4049 -0.1307
20087TIP3    H181752   5.192   2.349   4.924  1.3894 -0.8462 -1.5966
20087TIP3    H281753   5.321   2.422   4.957  0.4611  0.0252  0.3027
20088TIP3   OH281754   5.516   0.066   4.974  0.0297  0.6910  0.2259
20088TIP3    H181755   5.461  -0.011   4.988  2.0275 -0.5928  1.6706
20088TIP3    H281756   5.500   0.121   5.051  0.2307  0.6377  0.3080
20089TIP3   OH281757   4.576   1.417  14.614  0.2608 -0.2158  0.4915
20089TIP3    H181758   4.525   1.359  14.557  1.1203  0.6994 -1.3132
20089TIP3    H281759   4.646   1.450  14.557  1.2688  0.6424  2.1556
20090TIP3   OH281760   4.273   6.646  14.097  0.3057 -0.1712 -0.5648
20090TIP3    H181761   4.267   6.595  14.178  2.3892  0.4853  0.0702
20090TIP3    H281762   4.265   6.737  14.125  2.7507  0.1887 -0.7595
20091TIP3   OH281763   1.673   3.764   3.797 -0.1588 -0.0438 -0.1921
20091TIP3    H181764   1.648   3.842   3.747  0.0301 -1.1128 -2.0261
20091TIP3    H281765   1.591   3.714   3.806 -0.6382  1.0592  2.4020
20092TIP3   OH281766   3.251   5.899   2.861 -0.5365 -0.2106 -0.0589
20092TIP3    H181767   3.221   5.815   2.894 -0.6107 -0.1954 -0.0887
20092TIP3    H281768   3.334   5.914   2.907 -0.0194 -0.7644 -0.7756
20093TIP3   OH281769   5.421   5.481  12.838  0.0368  0.2684 -0.2367
20093TIP3    H181770   5.344   5.453  12.888 -0.2555  0.5628 -0.5195
20093TIP3    H281771   5.446   5.565  12.877 -1.0500  1.2028 -1.4954
20094TIP3   OH281772   1.942   5.061   5.291 -0.2328  0.3234 -0.0599
20094TIP3    H181773   1.906   4.973   5.281  0.7090 -0.2176  1.0530
20094TIP3    H281774   1.865   5.119   5.291 -0.8654 -0.5043 -0.6484
20095TIP3   OH281775   4.179   6.247  12.869 -0.2147  0.3139 -0.4362
20095TIP3    H181776   4.257   6.205  12.905 -1.3088 -1.6456 -0.1943
20095TIP3    H281777   4.186   6.233  12.774  0.4480  1.5064 -0.5862
20096TIP3   OH281778   6.671   0.102  10.951  0.0994  0.2797 -0.3191
20096TIP3    H181779   6.716   0.066  10.874 -1.8782 -0.0891 -1.3533
20096TIP3    H281780   6.667   0.029  11.013 -0.6097 -0.2230 -0.9363
20097TIP3   OH281781   0.024   0.777   3.203  0.3579  0.2467 -0.3318
20097TIP3    H181782  -0.046   0.715   3.225 -0.2581  1.6300  1.9725
20097TIP3    H281783   0.057   0.806   3.288  2.3973  1.1326 -1.3806
20098TIP3   OH281784   3.966   0.623   1.412 -0.0737 -0.1174 -0.4240
20098TIP3    H181785   3.942   0.690   1.476  1.3290  0.2677 -0.2599
20098TIP3    H281786   3.968   0.542   1.463 -0.7151 -0.1054 -0.3784
20099TIP3   OH281787   1.231   0.194  11.798 -0.4442  0.1527 -0.1564
20099TIP3    H181788   1.225   0.284  11.830  0.6416  0.0245  0.4581
20099TIP3    H281789   1.304   0.156  11.847 -0.6930 -0.9727 -0.6295
20100TIP3   OH281790   6.198   2.023  13.322 -0.3737  0.2019 -0.0083
20100TIP3    H181791   6.221   1.944  13.273  0.1594  0.6754 -0.5262
20100TIP3    H281792   6.114   2.051  13.285 -0.0751  0.4395 -0.5130
20101TIP3   OH281793   1.035   5.687  12.586 -0.3327  0.1011  0.1207
20101TIP3    H181794   1.122   5.676  12.548 -1.3067 -1.1607 -1.8707
20101TIP3    H281795   1.047   5.664  12.679  1.2181 -1.3027 -0.3712
20102TIP3   OH281796   6.224   1.646  16.652 -0.3877 -0.3331  0.0999
20102TIP3    H181797   6.204   1.738  16.633 -2.3084 -0.6823  0.2618
20102TIP3    H281798   6.195   1.598  16.574 -0.2222 -0.8799  0.3676
20103TIP3   OH281799   5.436   5.915   3.043  0.1556  0.1250  0.0716
20103TIP3    H181800   5.402   5.906   2.954 -0.8125 -0.2570  0.4625
20103TIP3    H281801   5.450   5.825   3.073 -0.1549  0.2269  0.5320
20104TIP3   OH281802   4.424   5.631   5.760  0.1856  0.6937  0.1125
20104TIP3    H181803   4.433   5.537   5.741 -0.9890  0.6985 -0.6032
20104TIP3    H281804   4.503   5.671   5.724  0.1026  0.1272 -0.7365
20105TIP3   OH281805   0.716   0.039   2.302 -0.5796  0.1710  0.2433
20105TIP3    H181806   0.734  -0.052   2.277 -2.2584 -0.0835 -0.1115
20105TIP3    H281807   0.773   0.090   2.245 -1.4642 -0.5724 -1.3710
20106TIP3   OH281808   3.873   4.705  15.036 -0.4315 -0.5055  0.3277
20106TIP3    H181809   3.834   4.711  14.949 -2.4479  0.0516  1.2090
20106TIP3    H281810   3.967   4.718  15.021 -0.8161  0.3746 -1.6533
20107TIP3   OH281811   0.535   1.632   3.257  0.3904 -0.0798  0.4066
20107TIP3    H181812   0.608   1.571   3.265  0.9433  0.5850  0.5479
20107TIP3    H281813   0.555   1.702   3.320 -0.2706  0.2044  0.3122
20108TIP3   OH281814   4.622   1.668  12.348  0.5553  0.3320  0.6773
20108TIP3    H181815   4.611   1.756  12.384  0.2988  0.4838  0.2270
20108TIP3    H281816   4.545   1.654  12.293 -0.1074 -0.6933  1.8113
20109TIP3   OH281817   2.852   2.864  14.844  0.1932  0.1736 -0.1883
20109TIP3    H181818   2.821   2.946  14.884 -0.4401  0.2279 -0.7682
20109TIP3    H281819   2.842   2.799  14.913  0.5048  0.5438  0.2139
20110TIP3   OH281820   4.720   3.272   2.967  0.0502  0.2846  0.1466
20110TIP3    H181821   4.674   3.281   2.883  2.1066 -0.2342 -1.0957
20110TIP3    H281822   4.660   3.220   3.021 -1.9604  1.8728 -0.4344
20111TIP3   OH281823   2.123   3.724   2.740 -0.4171 -0.5398 -0.4739
20111TIP3    H181824   2.086   3.681   2.817 -3.4470  2.6836  0.1396
20111TIP3    H281825   2.188   3.662   2.707 -1.2598 -3.4856  2.7512
20112TIP3   OH281826   5.759   6.683   3.708  0.6448  0.0486 -0.2124
20112TIP3    H181827   5.767   6.630   3.787 -0.7749 -1.2255 -0.8907
20112TIP3    H281828   5.670   6.669   3.677  0.8436  1.3062 -1.5097
20113TIP3   OH281829   6.457   1.805   0.140  0.6075 -0.0137 -0.1044
20113TIP3    H181830   6.543   1.844   0.126  1.4138 -0.9667  1.8122
20113TIP3    H281831   6.446   1.806   0.235 -1.2767 -0.3953 -0.2884
20114TIP3   OH281832   3.901   6.380  12.556 -0.0999  0.0901 -0.0026
20114TIP3    H181833   3.826   6.346  12.603 -0.3831  0.8592  0.1205
20114TIP3    H281834   3.875   6.376  12.464 -0.5064  0.8431  0.0733
20115TIP3   OH281835   6.197   3.789   5.556 -0.7198 -0.3786 -0.3496
20115TIP3    H181836   6.277   3.841   5.542 -1.0005  0.7615  1.8756
20115TIP3    H281837   6.193   3.731   5.480  2.2994 -0.5708 -0.4965
20116TIP3   OH281838   5.411   3.962  14.361 -0.2811  0.0022 -0.2333
20116TIP3    H181839   5.327   3.923  14.337 -0.1807 -0.8117  0.6894
20116TIP3    H281840   5.402   3.984  14.454  0.9164 -1.1868  0.1866
20117TIP3   OH281841   6.781   1.788   0.282 -0.0832  0.5156 -0.9453
20117TIP3    H181842   6.829   1.705   0.288 -1.0835 -0.1402 -1.7184
20117TIP3    H281843   6.793   1.817   0.192 -0.3905  0.8045 -0.8980
20118TIP3   OH281844   2.679   1.934  14.067 -0.4317 -0.7326  0.2435
20118TIP3    H181845   2.597   1.919  14.113 -1.4929  2.1295 -0.5032
20118TIP3    H281846   2.709   2.019  14.098  1.4499 -0.9904 -0.6795
20119TIP3   OH281847   3.566   1.268  11.860 -0.6179  0.3308 -0.1836
20119TIP3    H181848   3.482   1.285  11.902 -0.2050  0.6367  0.5430
20119TIP3    H281849   3.555   1.184  11.816 -1.9907  1.3477 -1.9246
20120TIP3   OH281850   5.812   0.106   5.927 -0.8390 -0.1567  0.0014
20120TIP3    H181851   5.854   0.111   5.842  1.5189 -1.0402  1.0403
20120TIP3    H281852   5.814   0.195   5.962 -2.4183  0.3458 -1.0630
20121TIP3   OH281853   0.249   6.061  16.967  0.0051 -0.1108  0.7243
20121TIP3    H181854   0.285   5.977  16.940  3.5365  1.4635  0.0617
20121TIP3    H281855   0.259   6.063  17.062 -1.4949 -0.9616  0.9312
20122TIP3   OH281856   0.318   2.982   4.024 -0.0182 -0.2684  0.1748
20122TIP3    H181857   0.393   3.041   4.030 -0.5752  0.3660  1.0657
20122TIP3    H281858   0.354   2.902   3.986  0.9588  0.2794 -0.0873
20123TIP3   OH281859   6.659   5.485  17.129 -0.0953  0.7497 -0.3778
20123TIP3    H181860   6.624   5.572  17.110  0.6842  1.0317 -0.5602
20123TIP3    H281861   6.696   5.455  17.046 -1.2632 -0.2002 -0.5782
20124TIP3   OH281862   5.657   0.967  12.347 -0.4290 -0.1147  0.4775
20124TIP3    H181863   5.605   0.961  12.427  0.9823  0.6643  1.5033
20124TIP3    H281864   5.608   0.917  12.282 -2.2503  0.2998  1.4853
20125TIP3   OH281865   0.915   3.236   5.292  0.4106  0.0764 -0.1217
20125TIP3    H181866   0.880   3.149   5.269 -1.1300  0.7167 -0.2920
20125TIP3    H281867   0.945   3.272   5.208  1.7460 -0.5618  0.0574
20126TIP3   OH281868   1.494   2.002   4.700  0.1897 -0.1260  1.2910
20126TIP3    H181869   1.535   1.926   4.741  2.8351  1.0430  1.0660
20126TIP3    H281870   1.469   2.058   4.774  0.5064 -0.1554  1.4240
20127TIP3   OH281871   3.224   0.946   0.119  0.1288 -0.2807 -0.3874
20127TIP3    H181872   3.276   0.928   0.040 -1.0494 -1.4179 -0.9490
20127TIP3    H281873   3.246   0.874   0.178  1.6642  1.0281  0.7221
20128TIP3   OH281874   2.087   2.532   0.004 -0.3653  0.5828  0.6095
20128TIP3    H181875   2.028   2.569   0.069  1.2795  1.2300  1.8066
20128TIP3    H281876   2.166   2.586   0.009  0.3647 -0.2513 -0.9153
20129TIP3   OH281877   3.400   1.776   0.428  0.1635  0.5235 -0.4823
20129TIP3    H181878   3.337   1.725   0.480 -1.3126  1.3222 -1.4057
20129TIP3    H281879   3.472   1.716   0.412 -1.4213 -1.2433 -1.3918
20130TIP3   OH281880   5.248   2.550  11.467 -0.0554 -0.1218  0.2821
20130TIP3    H181881   5.248   2.467  11.419 -1.0966  0.1866 -0.2722
20130TIP3    H281882   5.194   2.608  11.414 -0.4604  0.5081  1.3688
20131TIP3   OH281883   0.893   0.139  12.747  0.3334  0.6111 -0.4678
20131TIP3    H181884   0.822   0.173  12.692  0.6289  0.2670 -1.0675
20131TIP3    H281885   0.852   0.071  12.801  0.3405 -0.0441 -1.2786
20132TIP3   OH281886   4.283   6.712  11.578 -0.2626  0.2001  0.3401
20132TIP3    H181887   4.273   6.800  11.613  1.0860  0.6450 -0.3350
20132TIP3    H281888   4.375   6.705  11.554 -0.4363 -1.2351 -0.0508
20133TIP3   OH281889   0.201   2.750  13.065  0.7007  0.0707  0.3555
20133TIP3    H181890   0.153   2.778  13.143  0.0221 -0.2812  0.0624
20133TIP3    H281891   0.167   2.664  13.044 -2.5595  1.8977 -3.0570
20134TIP3   OH281892   2.903   3.615  14.483 -0.3649  0.2130 -0.0896
20134TIP3    H181893   2.974   3.670  14.449 -0.4764  0.0090 -0.6661
20134TIP3    H281894   2.939   3.576  14.563 -0.6269  1.9063  0.9030
20135TIP3   OH281895   0.578   1.023   4.217  0.0203  0.3324  0.6141
20135TIP3    H181896   0.500   1.079   4.214 -0.6971 -0.6429 -1.2562
20135TIP3    H281897   0.651   1.084   4.226 -0.8856  1.3637  1.2259
20136TIP3   OH281898   6.780   5.381   5.234  0.1585  0.6040 -0.2584
20136TIP3    H181899   6.819   5.344   5.155 -0.8631 -0.0424 -0.4796
20136TIP3    H281900   6.734   5.307   5.275 -3.0573  1.8172 -1.3697
20137TIP3   OH281901   4.276   5.269   4.571  0.4507 -0.1039 -0.0487
20137TIP3    H181902   4.339   5.254   4.641  0.3173  1.0338  0.3296
20137TIP3    H281903   4.222   5.341   4.602 -1.8492 -1.7915  0.1809
20138TIP3   OH281904   0.393   2.735   3.691 -1.0074  0.2894  0.7214
20138TIP3    H181905   0.432   2.777   3.768 -2.3156  2.9839  0.0504
20138TIP3    H281906   0.340   2.804   3.651  0.0041 -0.8314 -2.9218
20139TIP3   OH281907   1.311   1.829   4.341 -0.5317  0.7249  0.6264
20139TIP3    H181908   1.304   1.769   4.415 -1.7465 -1.2505 -1.0050
20139TIP3    H281909   1.388   1.799   4.293  0.1582  1.8980  0.9601
20140TIP3   OH281910   6.404   0.641   5.184 -0.0662 -0.3702  0.3254
20140TIP3    H181911   6.452   0.713   5.145  0.6871 -1.3547 -0.6070
20140TIP3    H281912   6.312   0.658   5.163  0.0317  0.6402  0.6819
20141TIP3   OH281913   2.413   6.030  13.524 -0.2860 -0.0961  0.0502
20141TIP3    H181914   2.358   6.026  13.603  0.9988 -0.2675  0.9706
20141TIP3    H281915   2.501   6.012  13.556  0.4637  1.1223 -1.2336
20142TIP3   OH281916   6.342   3.499  13.993 -0.8320 -0.2859 -0.3682
20142TIP3    H181917   6.335   3.404  13.993 -0.5144 -0.3096 -0.3197
20142TIP3    H281918   6.429   3.517  14.027  0.6686 -0.1183 -3.8709
20143TIP3   OH281919   4.555   1.895  11.144  0.0291  0.5193 -0.3890
20143TIP3    H181920   4.501   1.883  11.066 -2.1967 -0.8044  1.2202
20143TIP3    H281921   4.589   1.808  11.163 -0.5319  0.5359  0.8056
20144TIP3   OH281922   0.510   1.121  11.358  0.1942 -0.3423 -0.2452
20144TIP3    H181923   0.424   1.082  11.348 -0.3574  1.2136 -2.1194
20144TIP3    H281924   0.497   1.194  11.419  0.0682  0.1788 -0.8869
20145TIP3   OH281925   1.096   4.037  13.141  0.5220  0.2510 -0.3336
20145TIP3    H181926   1.036   4.010  13.211 -0.3714  0.5595 -0.9662
20145TIP3    H281927   1.051   4.109  13.097  2.0337  1.5558  0.1402
20146TIP3   OH281928   1.690   4.615   3.478 -0.0808 -0.0875  0.0771
20146TIP3    H181929   1.689   4.684   3.543  1.2887 -1.1848  1.3439
20146TIP3    H281930   1.769   4.631   3.426 -1.4243  1.0815 -1.7429
20147TIP3   OH281931   3.818   3.354   4.709 -0.1588 -0.2307 -0.3535
20147TIP3    H181932   3.781   3.285   4.764  1.1480 -0.0751  0.7790
20147TIP3    H281933   3.748   3.377   4.649 -0.6679 -2.4889 -0.7293
20148TIP3   OH281934   6.003   4.407  14.259 -0.3659 -0.1591  0.4254
20148TIP3    H181935   5.970   4.412  14.169 -0.6551 -2.3174  0.3598
20148TIP3    H281936   5.962   4.481  14.303 -1.0037  0.3664 -0.9748
20149TIP3   OH281937   5.200   3.560  16.931 -0.4036  0.0516 -0.0986
20149TIP3    H181938   5.132   3.593  16.874 -0.6684  0.3378  0.3774
20149TIP3    H281939   5.281   3.597  16.896 -0.7913  2.1012  1.0218
20150TIP3   OH281940   2.066   2.149  15.833 -0.0578 -0.2215  0.7420
20150TIP3    H181941   2.156   2.160  15.862  0.6209  0.4179 -1.3898
20150TIP3    H281942   2.072   2.142  15.738 -2.2139 -0.8477  0.5864
20151TIP3   OH281943   3.633   1.040   0.347 -0.2440 -0.6781 -0.2277
20151TIP3    H181944   3.583   1.122   0.351 -0.7541 -1.0247  0.7506
20151TIP3    H281945   3.567   0.972   0.338  0.1091 -1.0814  0.1980
20152TIP3   OH281946   0.501   5.343   6.358  0.3397 -0.2078  0.2814
20152TIP3    H181947   0.556   5.307   6.427 -0.4176 -0.8454  0.5789
20152TIP3    H281948   0.449   5.411   6.401 -0.3736 -0.8357  0.4361
20153TIP3   OH281949   4.035   6.083  11.832 -0.6337  0.1209 -0.0814
20153TIP3    H181950   3.969   6.036  11.781  0.0453 -1.6439  0.6128
20153TIP3    H281951   4.108   6.022  11.839 -0.0600  0.9535  1.6227
20154TIP3   OH281952   6.030   1.692   5.411  0.0766 -0.0829 -0.6464
20154TIP3    H181953   6.047   1.598   5.412  0.3713 -0.0472 -1.2963
20154TIP3    H281954   6.116   1.732   5.395  0.0064  0.3140 -0.0676
20155TIP3   OH281955   2.786   6.756   0.300 -0.1063  0.4194 -0.1924
20155TIP3    H181956   2.801   6.838   0.252 -0.0964  0.3595 -0.2917
20155TIP3    H281957   2.698   6.766   0.336  0.0963  0.6958  0.2396
20156TIP3   OH281958   0.145   4.933   0.923  0.1252 -0.3533  0.2498
20156TIP3    H181959   0.229   4.914   0.882 -0.1576 -0.7430 -0.1476
20156TIP3    H281960   0.117   5.016   0.884  0.8926  0.4240  1.2734
20157TIP3   OH281961   3.697   2.484   6.029 -0.0409  0.4362  0.2064
20157TIP3    H181962   3.653   2.489   6.113 -0.1428 -0.1049  0.1891
20157TIP3    H281963   3.761   2.414   6.039 -0.3167  0.1050 -0.2827
20158TIP3   OH281964   6.707   5.103  13.284  0.6154 -0.8526 -0.0756
20158TIP3    H181965   6.689   5.168  13.216  1.2965 -0.7676 -0.1889
20158TIP3    H281966   6.648   5.031  13.265  1.4137 -1.2117 -1.3021
20159TIP3   OH281967   5.606   6.223   3.953 -0.2218  0.4784 -0.0691
20159TIP3    H181968   5.650   6.246   4.035 -1.8420  0.6770  0.8023
20159TIP3    H281969   5.543   6.156   3.979  0.7086 -1.0565 -1.5771
20160TIP3   OH281970   3.374   5.624  13.161 -0.2527  0.0897  0.0587
20160TIP3    H181971   3.325   5.656  13.086  0.0114 -0.7247 -0.4769
20160TIP3    H281972   3.426   5.552  13.127  0.4128  0.1611  0.8743
20161TIP3   OH281973   2.285   2.568  12.148  0.1088 -0.4769  0.1216
20161TIP3    H181974   2.290   2.496  12.212 -0.4222  1.6640  2.7598
20161TIP3    H281975   2.370   2.612  12.155 -0.1198  0.0529 -0.3379
20162TIP3   OH281976   4.618   6.343   2.796  1.2038  0.3453  0.0659
20162TIP3    H181977   4.671   6.371   2.722 -0.1662  4.4821  0.3895
20162TIP3    H281978   4.531   6.329   2.760  1.2896 -1.1488  0.3832
20163TIP3   OH281979   0.553   4.081   4.838  0.4074  0.4108  0.1104
20163TIP3    H181980   0.541   4.136   4.916 -1.2288 -0.6067  0.6185
20163TIP3    H281981   0.478   4.021   4.839  1.0819 -0.5174 -1.5188
20164TIP3   OH281982   3.874   5.593   4.322 -0.0997  0.5919 -0.1417
20164TIP3    H181983   3.889   5.680   4.285 -1.2171  1.5740  1.5653
20164TIP3    H281984   3.952   5.574   4.373  0.0691  0.6544 -0.3737
20165TIP3   OH281985   1.710   3.058  11.704  0.4575  0.6873 -0.3458
20165TIP3    H181986   1.803   3.070  11.722  0.0243  0.0884  2.8020
20165TIP3    H281987   1.675   3.148  11.700  1.2073  0.9533 -2.3985
20166TIP3   OH281988   3.477   3.630  13.357 -0.0626 -0.9349  0.5229
20166TIP3    H181989   3.555   3.606  13.307  0.2390  1.9555 -0.5995
20166TIP3    H281990   3.511   3.661  13.441  0.3098  1.6775 -0.4635
20167TIP3   OH281991   6.470   0.776  13.972 -0.3145 -0.0574  0.2419
20167TIP3    H181992   6.398   0.715  13.955  0.3173 -0.8083  0.2397
20167TIP3    H281993   6.529   0.728  14.030  0.5668  0.2801 -0.3665
20168TIP3   OH281994   0.294   5.899   2.278 -0.1695 -0.0513 -0.2686
20168TIP3    H181995   0.213   5.881   2.326 -0.0808  1.5655  0.5547
20168TIP3    H281996   0.330   5.977   2.320  1.5895 -0.4721 -0.9229
20169TIP3   OH281997   0.236   2.380  15.544 -0.5764  0.0104  0.7605
20169TIP3    H181998   0.218   2.456  15.600  2.0832  1.1279  0.2318
20169TIP3    H281999   0.263   2.417  15.460 -1.9607 -1.6088 -0.4681
20170TIP3   OH282000   4.852   3.154  11.594 -0.4507  0.9284 -0.2025
20170TIP3    H182001   4.800   3.149  11.514 -0.0714  0.0217 -0.4043
20170TIP3    H282002   4.915   3.082  11.586 -2.0514 -0.8960  2.0532
20171TIP3   OH282003   3.027   5.185  11.165 -0.1718 -0.5241  0.0900
20171TIP3    H182004   3.109   5.234  11.171 -0.4718 -0.1189  0.8738
20171TIP3    H282005   3.021   5.138  11.249 -1.5113  0.6638  0.6849
20172TIP3   OH282006   4.924   5.692  16.470 -0.4466 -0.4508 -0.5476
20172TIP3    H182007   4.970   5.765  16.429 -1.4474  0.9212  0.6958
20172TIP3    H282008   4.890   5.641  16.396  0.8189 -0.0396 -1.4338
20173TIP3   OH282009   1.793   1.048   6.006 -0.2565  0.3272  0.3672
20173TIP3    H182010   1.820   1.073   5.918  0.4877  0.3444  0.5909
20173TIP3    H282011   1.863   1.082   6.063  0.3756 -1.5098  0.7614
20174TIP3   OH282012   3.432   3.942   1.523  0.0648  0.5506 -0.2318
20174TIP3    H182013   3.377   4.008   1.566  0.3672  0.9684 -0.4767
20174TIP3    H282014   3.478   3.898   1.595 -0.7435  0.0427 -0.0029
20175TIP3   OH282015   0.988   3.310  12.805  0.6184  0.5229 -0.1085
20175TIP3    H182016   0.971   3.232  12.754 -1.2203  1.8524 -1.7009
20175TIP3    H282017   1.047   3.363  12.751 -1.9738  2.2978 -1.4070
20176TIP3   OH282018   4.273   4.317  13.083  0.2618 -0.1348  0.3026
20176TIP3    H182019   4.194   4.309  13.136  0.1528  1.0935  0.3550
20176TIP3    H282020   4.281   4.233  13.038  0.0103 -0.9765  1.7663
20177TIP3   OH282021   2.806   0.665   2.439  0.0573 -0.3784  0.1239
20177TIP3    H182022   2.811   0.698   2.528  0.6924  1.0513 -0.4203
20177TIP3    H282023   2.750   0.587   2.446 -2.8277  1.6224  1.2465
20178TIP3   OH282024   4.421   0.212  13.713  0.2300  0.5520  0.0627
20178TIP3    H182025   4.472   0.240  13.636 -0.5706 -1.2682 -1.1846
20178TIP3    H282026   4.422   0.116  13.709 -2.1369  0.4369  0.7615
20179TIP3   OH282027   2.253   2.193   2.063 -0.6152 -0.1929  0.4428
20179TIP3    H182028   2.327   2.234   2.108 -0.5252  0.4085 -0.2265
20179TIP3    H282029   2.279   2.102   2.050  0.3601  0.2023 -0.5058
20180TIP3   OH282030   1.445   0.862   6.033  0.2745 -0.1268 -0.3663
20180TIP3    H182031   1.429   0.822   6.119  3.6761 -1.1904 -0.0771
20180TIP3    H282032   1.428   0.955   6.047 -0.8539 -0.4976  0.9632
20181TIP3   OH282033   5.395   0.024   2.382  0.4859  0.0126  0.4502
20181TIP3    H182034   5.476   0.009   2.334 -0.1201  0.3004 -0.7047
20181TIP3    H282035   5.422   0.064   2.465  1.6000 -1.0430  0.6229
20182TIP3   OH282036   0.227   4.889  16.172  0.0175 -0.3660  0.1821
20182TIP3    H182037   0.241   4.850  16.086  0.7797 -0.4822  0.3454
20182TIP3    H282038   0.144   4.936  16.165 -0.2161 -0.8670 -0.4328
20183TIP3   OH282039   3.643   3.370  15.340  0.1253  0.1583 -0.5845
20183TIP3    H182040   3.733   3.352  15.364 -0.6939 -1.5958  1.5268
20183TIP3    H282041   3.605   3.284  15.321 -2.0010  0.3221  2.2379
20184TIP3   OH282042   2.391   1.962  11.275  0.4728 -0.2142 -0.1129
20184TIP3    H182043   2.322   2.022  11.307  1.9434  1.3606  0.2459
20184TIP3    H282044   2.369   1.948  11.183 -0.0690  0.6605 -0.1373
20185TIP3   OH282045   5.950   6.596  14.571  0.0348 -0.7246  0.0175
20185TIP3    H182046   5.877   6.622  14.627 -1.4265 -0.2234 -1.9946
20185TIP3    H282047   6.001   6.536  14.625 -1.6210 -0.7705  1.6546
20186TIP3   OH282048   3.635   0.660   4.391  0.3060  0.1847  0.5297
20186TIP3    H182049   3.590   0.743   4.402 -0.9219 -0.7680  3.8065
20186TIP3    H282050   3.566   0.594   4.390  1.3663 -0.9838  0.2441
20187TIP3   OH282051   2.910   4.272  15.585 -0.7056 -0.2680 -0.4803
20187TIP3    H182052   2.896   4.210  15.513  1.6887 -1.0084 -0.3991
20187TIP3    H282053   2.941   4.351  15.542 -0.7539 -0.1943 -0.3779
20188TIP3   OH282054   1.860   0.740  12.060  0.2248  0.2897  0.3206
20188TIP3    H182055   1.885   0.747  12.152  0.2694 -1.6926  0.5132
20188TIP3    H282056   1.886   0.823  12.020  1.8212  0.4927  1.7246
20189TIP3   OH282057   6.754   0.635  13.754 -0.2991 -0.7502  0.4317
20189TIP3    H182058   6.746   0.574  13.681 -1.0678 -0.5234  0.3253
20189TIP3    H282059   6.791   0.582  13.825  0.9786 -0.8474 -0.2690
20190TIP3   OH282060   4.171   5.565   0.992 -0.4265  0.2842  0.3655
20190TIP3    H182061   4.191   5.550   1.085  1.9414  0.7440 -0.0007
20190TIP3    H282062   4.201   5.654   0.975 -1.0864  0.3053 -0.7957
20191TIP3   OH282063   1.219   5.249  13.114  0.3367 -0.0768 -0.3580
20191TIP3    H182064   1.182   5.331  13.082  0.7891  0.2360 -0.0915
20191TIP3    H282065   1.173   5.233  13.197  2.4784  1.6365  1.3035
20192TIP3   OH282066   6.202   2.532  12.837 -0.0046  1.0425 -0.0766
20192TIP3    H182067   6.286   2.486  12.848 -1.2186 -1.4694 -0.5085
20192TIP3    H282068   6.200   2.556  12.745 -0.4325 -0.4089 -0.4680
20193TIP3   OH282069   0.315   3.154   0.432 -0.4270 -0.2368  0.3674
20193TIP3    H182070   0.323   3.072   0.383  0.4099 -0.4308  0.8132
20193TIP3    H282071   0.398   3.163   0.478 -0.7470  0.5521  0.8163
20194TIP3   OH282072   5.162   3.836   2.200  0.0245  0.5002  0.0298
20194TIP3    H182073   5.094   3.836   2.267 -0.3386  2.3293 -0.2852
20194TIP3    H282074   5.244   3.827   2.249 -0.3441 -0.1928  0.5357
20195TIP3   OH282075   5.727   4.281  12.717  0.4669  0.0470  0.3014
20195TIP3    H182076   5.728   4.281  12.813  1.6866 -0.3821  0.3048
20195TIP3    H282077   5.819   4.290  12.692  0.2376 -0.5802 -0.8295
20196TIP3   OH282078   6.336   3.550   0.639 -0.1915 -0.0396 -0.3995
20196TIP3    H182079   6.428   3.571   0.619 -0.1856 -0.5300 -0.9012
20196TIP3    H282080   6.338   3.459   0.669 -0.6916 -0.5420 -1.8107
20197TIP3   OH282081   0.369   0.590  17.142  0.7658 -0.1831  0.6057
20197TIP3    H182082   0.283   0.553  17.126  0.9489 -1.3599  2.1537
20197TIP3    H282083   0.352   0.682  17.163  0.1501  0.2401 -1.4585
20198TIP3   OH282084   1.814   2.976   2.472  0.1402 -0.3362  0.2973
20198TIP3    H182085   1.875   3.035   2.516 -0.0209 -0.2162  0.3588
20198TIP3    H282086   1.732   2.987   2.519  0.2663 -1.0680  0.7014
20199TIP3   OH282087   4.499   0.253  14.261  0.2249 -0.1100  0.1776
20199TIP3    H182088   4.492   0.171  14.310 -0.6995  0.2214  0.6401
20199TIP3    H282089   4.462   0.232  14.175  0.5443 -0.3322  0.0949
20200TIP3   OH282090   0.220   6.211   1.792  0.0034 -0.3277 -0.5041
20200TIP3    H182091   0.207   6.275   1.862 -1.4018 -0.5745 -0.5089
20200TIP3    H282092   0.305   6.233   1.755  0.8299 -0.2280  1.3139
20201TIP3   OH282093   0.586   4.512  14.062 -0.1250  0.3513  0.4784
20201TIP3    H182094   0.638   4.536  14.139  1.4873 -0.3853 -0.3332
20201TIP3    H282095   0.592   4.587  14.004  1.1556 -0.2126 -0.1564
20202TIP3   OH282096   4.053   2.784  15.491 -0.0027 -0.3634 -0.2701
20202TIP3    H182097   3.998   2.755  15.564 -0.0284 -1.0914 -0.5748
20202TIP3    H282098   4.113   2.848  15.530 -1.4324  0.9062 -0.0435
20203TIP3   OH282099   4.629   0.834   3.183 -0.3035  0.0512 -0.0752
20203TIP3    H182100   4.645   0.764   3.246 -2.8672 -1.4281 -0.9201
20203TIP3    H282101   4.659   0.798   3.100  1.2620  1.2390 -0.0718
20204TIP3   OH282102   5.632   2.603   5.855 -0.6068 -0.1813 -0.1159
20204TIP3    H182103   5.564   2.540   5.830 -1.8489  1.0816 -0.0901
20204TIP3    H282104   5.643   2.590   5.949  0.0778 -1.1990 -0.3192
20205TIP3   OH282105   2.416   6.496   1.758  0.3278 -0.0444 -0.0647
20205TIP3    H182106   2.459   6.509   1.673  0.6633 -1.1289 -0.0755
20205TIP3    H282107   2.345   6.435   1.739  0.0309  0.1790  0.3315
20206TIP3   OH282108   6.700   6.334   0.250  0.0471  0.0745  0.0412
20206TIP3    H182109   6.762   6.388   0.299  0.2694  1.8929 -2.0976
20206TIP3    H282110   6.755   6.277   0.197 -0.0838  0.9978 -1.1196
20207TIP3   OH282111   0.152   4.731  11.692 -0.3125 -0.6805 -0.0252
20207TIP3    H182112   0.238   4.698  11.714 -1.1196 -1.2703  2.5046
20207TIP3    H282113   0.169   4.813  11.645  1.6048 -0.8688  0.2798
20208TIP3   OH282114   3.969   0.446   1.622  0.1309  0.1163  0.0400
20208TIP3    H182115   3.973   0.435   1.717  0.9450  1.2681  0.1734
20208TIP3    H282116   3.876   0.446   1.601 -0.1880  2.1426  1.1786
20209TIP3   OH282117   2.741   3.271   6.038  0.1268  0.4147 -0.0219
20209TIP3    H182118   2.775   3.318   6.114 -1.1546  0.7136  0.4020
20209TIP3    H282119   2.704   3.339   5.982 -0.3274  0.0631 -0.1583
20210TIP3   OH282120   4.567   1.175   4.793 -0.0411 -0.1057  0.9850
20210TIP3    H182121   4.480   1.137   4.784  0.2640 -0.4004 -1.2986
20210TIP3    H282122   4.553   1.269   4.780  0.1890 -0.3740 -1.9220
20211TIP3   OH282123   5.739   6.517  16.235  0.1608  0.0854 -0.2455
20211TIP3    H182124   5.687   6.583  16.190  0.0471  0.8699  0.9942
20211TIP3    H282125   5.707   6.434  16.199 -0.5777  0.6366 -0.9149
20212TIP3   OH282126   0.547   4.032   3.847 -0.0529  0.0142  0.3844
20212TIP3    H182127   0.607   3.958   3.845  1.0498  0.8976 -1.1529
20212TIP3    H282128   0.595   4.101   3.893  0.0025  0.6316 -0.5826
20213TIP3   OH282129   0.058   3.262  14.647 -0.8489 -0.4622 -0.0615
20213TIP3    H182130   0.144   3.258  14.689 -0.4433  0.9475 -0.7062
20213TIP3    H282131   0.008   3.324  14.700 -0.4017  1.1727 -1.4655
20214TIP3   OH282132   4.240   4.730   2.916 -0.3019  0.1306 -0.0592
20214TIP3    H182133   4.334   4.727   2.897 -0.7409 -1.1443 -2.5300
20214TIP3    H282134   4.221   4.649   2.962 -0.0727  0.8361  1.3196
20215TIP3   OH282135   2.538   6.445  13.283  0.0316  0.5535 -0.0198
20215TIP3    H182136   2.526   6.407  13.370 -0.4198  0.1738 -0.2366
20215TIP3    H282137   2.506   6.377  13.223  0.7581  0.6291 -0.5029
20216TIP3   OH282138   5.378   4.070   6.131 -0.5186 -0.4235 -0.1667
20216TIP3    H182139   5.327   4.048   6.053 -0.8426  0.3095 -0.1686
20216TIP3    H282140   5.467   4.086   6.098 -0.8137  0.6205 -0.5087
20217TIP3   OH282141   3.800   1.734   1.025  0.2616 -0.1768  0.4022
20217TIP3    H182142   3.837   1.690   0.949  1.5592  0.9336  0.3598
20217TIP3    H282143   3.785   1.824   0.996 -0.2049  0.0036  1.1564
20218TIP3   OH282144   6.513   3.843   1.519  0.0920 -0.0542 -0.2644
20218TIP3    H182145   6.425   3.805   1.528  0.0258  0.2249  0.3179
20218TIP3    H282146   6.572   3.777   1.554 -0.0665  0.5591  1.2221
20219TIP3   OH282147   2.458   0.525   1.486 -0.0655 -0.5679  0.3970
20219TIP3    H182148   2.445   0.579   1.564  0.4643 -0.1148  0.1751
20219TIP3    H282149   2.375   0.478   1.475  0.0677 -1.1240  1.5996
20220TIP3   OH282150   0.906   1.280  10.671  0.3037 -0.0687  0.3715
20220TIP3    H182151   0.882   1.361  10.715 -0.6699 -0.7492  1.1551
20220TIP3    H282152   0.842   1.272  10.600  0.2371 -0.2639  0.4520
20221TIP3   OH282153   1.954   5.852   1.727 -0.0855  0.0299 -0.1748
20221TIP3    H182154   1.868   5.833   1.689 -0.9540  1.6658  0.8302
20221TIP3    H282155   1.985   5.768   1.761 -0.4187 -0.9491 -2.1720
20222TIP3   OH282156   1.018   2.157   2.169 -0.2800  0.2747  0.0621
20222TIP3    H182157   1.036   2.183   2.078  0.5556 -1.1636 -0.2076
20222TIP3    H282158   0.922   2.149   2.173 -0.3382  0.5306 -0.6278
20223TIP3   OH282159   2.825   6.097   4.507 -0.0794 -0.5496 -0.5540
20223TIP3    H182160   2.873   6.017   4.487 -0.7088 -1.7233  2.2467
20223TIP3    H282161   2.734   6.068   4.520 -0.7255  0.9572 -1.4814
20224TIP3   OH282162   1.652   3.911   0.195 -0.0099  0.2110 -0.3279
20224TIP3    H182163   1.697   3.931   0.113 -0.1161 -0.2518 -0.5008
20224TIP3    H282164   1.708   3.848   0.239 -0.3554 -0.1717 -0.4277
20225TIP3   OH282165   2.699   1.908   0.475 -0.0477  0.0487  0.1721
20225TIP3    H182166   2.624   1.864   0.514  0.0348 -1.2973 -1.0940
20225TIP3    H282167   2.696   1.884   0.383  2.0714 -0.2808  0.1261
20226TIP3   OH282168   5.353   2.404  13.311  0.1811 -0.6155  0.0610
20226TIP3    H182169   5.336   2.485  13.263 -1.9252 -1.7661 -1.3456
20226TIP3    H282170   5.435   2.371  13.274  1.3709  1.0940  1.0584
20227TIP3   OH282171   6.235   6.254  13.961 -0.0079 -0.6366 -0.5638
20227TIP3    H182172   6.285   6.197  14.020 -0.6531 -1.0616 -0.4124
20227TIP3    H282173   6.144   6.244  13.989  0.0041  1.9629  0.7642
20228TIP3   OH282174   6.340   1.628  14.060 -0.3047  0.1150  0.2870
20228TIP3    H182175   6.275   1.679  14.110  0.4589 -0.2143  1.6748
20228TIP3    H282176   6.380   1.692  14.002  1.1770  1.3884  2.5348
20229TIP3   OH282177   5.429   6.512  14.979 -0.1691 -0.0240  0.4636
20229TIP3    H182178   5.370   6.552  14.914  0.8891  1.0126  0.1104
20229TIP3    H282179   5.485   6.584  15.008  0.6929 -0.9117  1.0587
20230TIP3   OH282180   3.321   2.637   6.154 -0.3096 -0.3511 -0.1775
20230TIP3    H182181   3.275   2.574   6.208  0.0586 -0.5819 -0.1260
20230TIP3    H282182   3.412   2.634   6.186 -0.0839 -0.5081 -0.8121
20231TIP3   OH282183   4.977   5.551   1.392  0.4130  0.2461 -0.6294
20231TIP3    H182184   4.976   5.458   1.369 -2.9508  0.1646 -0.7140
20231TIP3    H282185   5.041   5.589   1.333  3.1556 -2.1745  0.5360
20232TIP3   OH282186   0.063   4.548  15.969  0.1639 -0.3723  0.8674
20232TIP3    H182187   0.138   4.607  15.966  0.6114 -0.9375  0.6363
20232TIP3    H282188   0.042   4.531  15.877 -0.2781 -0.1724  0.9333
20233TIP3   OH282189   0.606   5.882  16.381  0.2530 -0.1435 -0.0692
20233TIP3    H182190   0.683   5.932  16.355  0.8942 -0.2271  1.5704
20233TIP3    H282191   0.572   5.928  16.458 -1.7996  0.3204 -1.1974
20234TIP3   OH282192   2.099   3.916   3.452  0.5174 -0.5875 -0.2719
20234TIP3    H182193   2.130   3.836   3.494  2.1714  0.4924  0.7216
20234TIP3    H282194   2.080   3.975   3.525 -1.5304 -0.3273 -0.9539
20235TIP3   OH282195   2.318   1.619  13.676 -0.4186  0.3109 -0.6174
20235TIP3    H182196   2.256   1.633  13.604 -1.7577  0.6449  0.5666
20235TIP3    H282197   2.325   1.524  13.684 -0.4200  0.2718 -1.0376
20236TIP3   OH282198   2.196   6.223  15.969  0.3205  0.5322  0.1790
20236TIP3    H182199   2.161   6.222  16.058  1.9870 -1.6284  0.9021
20236TIP3    H282200   2.137   6.166  15.920 -0.4029  1.4553 -0.0547
20237TIP3   OH282201   4.280   4.577  12.603  0.0673  0.4238 -0.3203
20237TIP3    H182202   4.282   4.486  12.574  2.0717  0.1105  0.6022
20237TIP3    H282203   4.293   4.628  12.523 -0.6786 -0.1100 -0.7893
20238TIP3   OH282204   0.040   0.761   0.175  0.3145 -0.2052  0.0766
20238TIP3    H182205   0.042   0.856   0.186 -2.3540  0.0291 -0.8141
20238TIP3    H282206   0.055   0.727   0.263  1.9642  0.9817  0.3042
20239TIP3   OH282207   3.897   4.021   4.437 -0.2273  0.1460  0.1393
20239TIP3    H182208   3.913   4.106   4.395  2.0955 -0.2308  0.1611
20239TIP3    H282209   3.807   3.999   4.413 -0.2311  1.7118 -1.4589
20240TIP3   OH282210   0.329   3.519   2.690  0.4156  0.4999 -0.3383
20240TIP3    H182211   0.295   3.430   2.697  0.0444  0.7287  1.2906
20240TIP3    H282212   0.417   3.515   2.726  0.4131  0.7772 -0.2925
20241TIP3   OH282213   3.594   4.400   4.164 -0.1443 -0.3322  0.4233
20241TIP3    H182214   3.581   4.329   4.228  1.0670 -1.6747 -0.7513
20241TIP3    H282215   3.542   4.373   4.088  1.4627 -0.7536 -0.5756
20242TIP3   OH282216   1.270   0.318   4.754  0.3427 -0.1080 -0.2602
20242TIP3    H182217   1.305   0.397   4.796  0.1514  0.2605 -0.7752
20242TIP3    H282218   1.326   0.247   4.785 -0.4221 -0.0327  1.4664
20243TIP3   OH282219   2.835   4.416  11.523  0.0606 -0.0416 -0.1490
20243TIP3    H182220   2.895   4.384  11.455 -0.1956  0.9165 -0.8493
20243TIP3    H282221   2.862   4.370  11.602  0.8306 -0.6499 -0.7455
20244TIP3   OH282222   1.990   1.337  15.411  0.0934  0.4134  0.0004
20244TIP3    H182223   1.998   1.303  15.322  0.3588 -0.4015  0.3278
20244TIP3    H282224   2.040   1.418  15.410 -0.6937  0.9128 -0.8404
20245TIP3   OH282225   0.705   0.878   4.568  0.4362  0.4958  0.4840
20245TIP3    H182226   0.667   0.960   4.600 -0.1686  1.0998 -1.6177
20245TIP3    H282227   0.725   0.895   4.476  2.7331 -0.9123  0.6434
20246TIP3   OH282228   2.296   0.983   3.006  0.2321  0.5934  0.2048
20246TIP3    H182229   2.376   1.022   2.971  1.9639 -0.2540  2.8814
20246TIP3    H282230   2.301   0.999   3.100 -2.1184 -0.6264  0.6157
20247TIP3   OH282231   4.495   4.534   4.843 -0.4043 -0.0389  0.0875
20247TIP3    H182232   4.536   4.449   4.863 -0.5950 -0.3708 -0.8938
20247TIP3    H282233   4.569   4.595   4.839 -0.4517  0.3915  3.2645
20248TIP3   OH282234   4.942   0.332  14.773  0.3072 -0.1518  0.1596
20248TIP3    H182235   4.879   0.368  14.711  0.2158 -0.4404  0.0825
20248TIP3    H282236   4.913   0.366  14.858 -2.4390 -3.4381  0.7603
20249TIP3   OH282237   0.044   3.590  12.289 -0.2471  0.3394 -0.5206
20249TIP3    H182238   0.030   3.643  12.210 -0.7268  1.3661  0.2233
20249TIP3    H282239  -0.042   3.585  12.330 -0.7726 -3.0352 -1.7121
20250TIP3   OH282240   2.745   4.688  13.241 -0.3435  0.1664  0.0067
20250TIP3    H182241   2.654   4.660  13.251 -0.5050  1.1593  1.6939
20250TIP3    H282242   2.797   4.608  13.252 -1.0122 -1.0580 -4.1345
20251TIP3   OH282243   0.052   2.159   2.538 -0.6539  0.0695  0.4000
20251TIP3    H182244   0.025   2.193   2.453  0.1030  0.1119  0.1675
20251TIP3    H282245   0.044   2.234   2.597  0.8712  0.6504 -0.0826
20252TIP3   OH282246   5.522   6.265  14.202 -0.0565  0.1587  0.3008
20252TIP3    H182247   5.476   6.205  14.144 -0.6048 -0.3578  1.2485
20252TIP3    H282248   5.496   6.352  14.172 -1.7845 -0.1217  0.9081
20253TIP3   OH282249   3.725   2.232   0.297 -0.2422  0.2224 -0.1362
20253TIP3    H182250   3.742   2.226   0.391 -1.3755 -3.2923  0.0141
20253TIP3    H282251   3.635   2.262   0.291  0.1330  1.3715 -0.1694
20254TIP3   OH282252   1.303   3.986   4.104  0.1209 -0.3020  0.8163
20254TIP3    H182253   1.288   3.899   4.067  0.2890  0.5547 -1.3993
20254TIP3    H282254   1.387   4.014   4.067 -0.4852  1.2666  0.5620
20255TIP3   OH282255   3.718   5.601   4.625 -0.0115 -0.3520  0.2521
20255TIP3    H182256   3.639   5.595   4.679 -0.3192  1.8312  0.1073
20255TIP3    H282257   3.685   5.608   4.535  0.3730 -0.0472  0.1367
20256TIP3   OH282258   2.050   5.293   2.680 -0.0349 -0.2281  0.2014
20256TIP3    H182259   2.014   5.379   2.704  0.2792  0.6033 -2.0152
20256TIP3    H282260   1.973   5.240   2.659 -0.1851 -0.0887  0.3922
20257LIG     O182261   5.382   4.600   0.574 -0.8541  0.3647 -0.1613
20257LIG     O282262   5.572   4.675   0.460 -0.1010 -0.1258  0.0778
20257LIG     O382263   5.517   4.847   0.620  0.6105 -0.6722 -0.6820
20257LIG     O482264   5.478   4.334   0.441  0.4592 -0.0919  0.1264
20257LIG     O582265   5.263   4.437   0.281  0.5596  0.6457 -0.0496
20257LIG     O682266   5.803   4.809   0.392  0.0824 -0.5696 -0.2129
20257LIG     O782267   5.550   4.911   0.274  0.2914  0.3150 -0.0746
20257LIG     O882268   5.433   5.139   0.405  0.8030  0.1200  0.6752
20257LIG     O982269   5.738   4.478   0.595 -0.0702 -0.2547 -0.5379
20257LIG    O1082270   5.170   4.749   0.423  0.0739 -0.0292 -0.0617
20257LIG    O1182271   5.373   5.083   0.736  0.4617  0.0579 -0.2339
20257LIG     C182272   5.511   4.562   0.521 -0.1051 -0.8027  0.1513
20257LIG     C282273   5.476   4.472   0.398  0.0997 -0.0794 -0.4460
20257LIG     C382274   5.343   4.520   0.360  0.3450  1.0718  0.1762
20257LIG     C482275   5.281   4.545   0.497  0.5377 -0.6521 -0.0202
20257LIG     C582276   5.616   4.785   0.545 -0.0228  0.1863 -0.1201
20257LIG     C682277   5.697   4.880   0.463  0.2274  0.0984  0.2195
20257LIG     C782278   5.613   4.976   0.385  0.3285  0.5941  0.6149
20257LIG     C882279   5.511   5.042   0.478  0.0483 -0.2817 -0.6397
20257LIG     C982280   5.430   4.937   0.547 -0.1496 -0.0205  0.1189
20257LIG    C1082281   5.604   4.504   0.639 -1.0397 -0.3343  0.4575
20257LIG    C1182282   5.152   4.627   0.494  0.1288  0.4242  0.0238
20257LIG    C1282283   5.323   4.996   0.641  0.5856  0.4688  0.4045
20257LIG     H182284   5.555   4.477   0.322  0.1827 -0.8361 -0.4204
20257LIG     H282285   5.365   4.616   0.310  0.0558  1.5861  1.0201
20257LIG     H382286   5.256   4.453   0.551 -3.3669  0.3923  0.2798
20257LIG     H482287   5.685   4.742   0.621 -0.0593 -3.5771 -1.9874
20257LIG     H582288   5.754   4.935   0.542 -2.4912 -0.3339  2.6701
20257LIG     H682289   5.685   5.054   0.350  0.4381  0.3099  0.2047
20257LIG     H782290   5.569   5.101   0.552  1.3276 -0.0616 -1.7681
20257LIG     H882291   5.374   4.882   0.469  1.0341 -0.7669 -0.2250
20257LIG     H982292   5.617   4.585   0.714 -2.2090 -0.6225  0.9998
20257LIG    H1082293   5.553   4.412   0.674  0.6555 -2.1041 -1.4614
20257LIG    H1182294   5.077   4.566   0.440 -0.7017  0.2580  1.3158
20257LIG    H1282295   5.099   4.633   0.592 -1.5258 -3.6998 -0.4287
20257LIG    H1382296   5.240   5.053   0.593 -2.0577  0.4697  4.4872
20257LIG    H1482297   5.273   4.915   0.698  0.2586  0.4905  0.1583
20257LIG    H1582298   5.423   4.281   0.383  1.1697 -0.4109 -0.2636
20257LIG    H1682299   5.301   4.448   0.193 -1.7423  1.3760 -1.0317
20257LIG    H1782300   5.753   4.740   0.348 -0.6264  1.2249 -2.4258
20257LIG    H1882301   5.456   4.927   0.281  0.2537 -0.2553  1.2667
20257LIG    H1982302   5.383   5.202   0.457 -0.7580  1.3536 -2.0420
20257LIG    H2082303   5.781   4.427   0.663  1.3173  1.5394  0.0066
20257LIG    H2182304   5.083   4.789   0.415 -0.0875 -0.3233  0.1776
20257LIG    H2282305   5.444   5.032   0.775 -1.3989 -2.1797  0.5095
   6.84185   6.84185  17.14638
