Title
43194
    1CHL1    C3    1   3.254   3.730   6.149  0.3617  0.5440  0.2570
    1CHL1    H3    2   3.345   3.677   6.115 -0.1024  0.2559 -0.5737
    1CHL1    O3    3   3.239   3.730   6.288 -0.1358 -0.0860 -0.8955
    1CHL1   H3'    4   3.151   3.767   6.292  0.5967  2.0115 -2.3408
    1CHL1    C4    5   3.271   3.872   6.117 -0.3617 -0.7504  0.5999
    1CHL1   H4A    6   3.191   3.930   6.167  0.7448 -0.1296  1.7264
    1CHL1   H4B    7   3.365   3.909   6.165 -0.5369  3.6073 -1.8838
    1CHL1    C5    8   3.283   3.906   5.968 -0.2725  0.2439 -0.5531
    1CHL1    C6    9   3.385   3.989   5.935 -0.8409  0.0017 -0.0896
    1CHL1    H6   10   3.433   4.050   6.013 -1.9706 -0.5114  1.0505
    1CHL1    C7   11   3.422   4.003   5.795  0.1585  0.4015 -0.2374
    1CHL1   H7A   12   3.426   4.110   5.768 -2.9088  0.5122 -0.5804
    1CHL1   H7B   13   3.530   3.979   5.782 -0.4593 -2.6070 -0.7225
    1CHL1    C8   14   3.335   3.930   5.689  0.7615 -0.1321  0.1021
    1CHL1    H8   15   3.256   4.008   5.676  0.3205 -0.7017 -0.7139
    1CHL1   C14   16   3.401   3.912   5.560  0.0911 -0.3164 -0.7758
    1CHL1   H14   17   3.477   3.832   5.570  0.5794 -0.0956 -2.4915
    1CHL1   C15   18   3.478   4.030   5.514  0.0947 -0.5936 -0.6448
    1CHL1  H15A   19   3.431   4.129   5.534  1.0496 -0.2630  0.0338
    1CHL1  H15B   20   3.576   4.027   5.566  0.5939 -1.6397 -1.6032
    1CHL1   C16   21   3.497   4.000   5.364  0.5211  0.3163  0.1142
    1CHL1  H16A   22   3.452   4.086   5.309 -2.0176 -1.4870 -0.8031
    1CHL1  H16B   23   3.606   3.996   5.342  0.3700  2.2032 -1.2019
    1CHL1   C17   24   3.409   3.870   5.337 -0.4699  0.6339  0.0459
    1CHL1   H17   25   3.480   3.792   5.370 -0.0025  2.0745  2.7505
    1CHL1   C13   26   3.299   3.870   5.446 -0.9156 -0.4728 -0.1292
    1CHL1   C18   27   3.198   3.975   5.407 -0.7710 -0.1863  0.2957
    1CHL1  H18A   28   3.137   3.942   5.321 -0.0748  2.8592 -1.5135
    1CHL1  H18B   29   3.131   3.994   5.494 -2.5372 -4.9299  0.2626
    1CHL1  H18C   30   3.249   4.069   5.377 -0.7435  0.4824  2.2458
    1CHL1   C12   31   3.237   3.731   5.482 -0.0948  0.1366 -0.9388
    1CHL1  H12A   32   3.165   3.686   5.410 -2.2327 -0.1989  1.2549
    1CHL1  H12B   33   3.315   3.654   5.501 -0.7988 -0.1643  1.0329
    1CHL1   C11   34   3.159   3.749   5.617 -0.5979  0.2310  0.5139
    1CHL1  H11A   35   3.083   3.828   5.607 -1.8620 -1.0161 -0.0248
    1CHL1  H11B   36   3.094   3.663   5.644 -0.1775 -0.6377 -1.0878
    1CHL1    C9   37   3.263   3.797   5.726  0.3141 -0.0484 -0.2604
    1CHL1    H9   38   3.341   3.720   5.745 -1.1084 -1.3310  0.5541
    1CHL1   C10   39   3.197   3.813   5.871  0.5569  0.5579 -0.2278
    1CHL1   C19   40   3.066   3.894   5.855 -0.7947  0.1756 -0.1760
    1CHL1  H19A   41   3.014   3.891   5.954  0.2595  0.8311  0.4188
    1CHL1  H19B   42   3.092   3.998   5.829  1.9081  0.4855  3.0101
    1CHL1  H19C   43   2.997   3.857   5.777 -1.3102 -0.6489  0.6412
    1CHL1    C1   44   3.165   3.668   5.924 -0.0500 -0.5806  0.1735
    1CHL1   H1A   45   3.070   3.632   5.878  0.2826  0.7138 -1.6179
    1CHL1   H1B   46   3.248   3.597   5.900 -0.0455  0.1152 -2.1628
    1CHL1    C2   47   3.133   3.670   6.073 -0.1285 -0.1117  0.6893
    1CHL1   H2A   48   3.122   3.567   6.114 -2.3466  0.2573  1.1103
    1CHL1   H2B   49   3.039   3.726   6.089 -0.7646 -1.5741  2.3760
    1CHL1   C20   50   3.371   3.860   5.190  0.1732  0.3952 -0.2833
    1CHL1   H20   51   3.308   3.948   5.164  0.6194  1.3754  1.7694
    1CHL1   C21   52   3.277   3.731   5.166 -0.7425  0.3969  0.1531
    1CHL1  H21A   53   3.182   3.739   5.223 -0.2331 -1.8255  1.4549
    1CHL1  H21B   54   3.326   3.640   5.207 -0.0665 -0.0695 -1.6188
    1CHL1  H21C   55   3.256   3.719   5.058  2.8502  1.5975 -0.8325
    1CHL1   C22   56   3.495   3.863   5.100 -0.2776 -0.4740 -0.2593
    1CHL1  H22A   57   3.553   3.955   5.121 -1.3456 -0.3326  2.5279
    1CHL1  H22B   58   3.554   3.769   5.114  1.5444  0.5350 -0.8829
    1CHL1   C23   59   3.456   3.867   4.949 -0.4105 -0.1409 -0.0741
    1CHL1  H23A   60   3.401   3.774   4.922 -2.3776  0.7211  0.8514
    1CHL1  H23B   61   3.388   3.954   4.940 -0.0368  0.2333  0.6461
    1CHL1   C24   62   3.585   3.891   4.860  0.0727  0.1369  0.1655
    1CHL1  H24A   63   3.569   3.871   4.751  2.5947  0.7295 -0.3784
    1CHL1  H24B   64   3.620   3.995   4.876  4.0348 -0.7406 -1.6116
    1CHL1   C25   65   3.719   3.805   4.884  0.2104 -0.5698  0.1235
    1CHL1   H25   66   3.734   3.821   4.993  0.1506 -0.7034  0.1521
    1CHL1   C26   67   3.700   3.656   4.852  0.4315 -0.5238 -0.4652
    1CHL1  H26A   68   3.619   3.620   4.918 -1.0331  0.3508 -1.7096
    1CHL1  H26B   69   3.661   3.656   4.748 -1.3253  2.1449  0.1142
    1CHL1  H26C   70   3.793   3.597   4.871  0.5726 -0.0641  0.3057
    1CHL1   C27   71   3.848   3.858   4.813  0.4126 -0.3620 -0.7408
    1CHL1  H27A   72   3.827   3.854   4.704  0.8794 -1.6223 -0.8030
    1CHL1  H27B   73   3.872   3.960   4.848 -2.0703 -0.2928  0.9960
    1CHL1  H27C   74   3.936   3.798   4.844  0.9290  0.2752 -0.9522
    2CHL1    C3   75   2.482   3.209   5.907  0.2268 -0.4208  0.6821
    2CHL1    H3   76   2.526   3.306   5.940  0.7687  0.2566 -1.8066
    2CHL1    O3   77   2.442   3.139   6.024  0.4023  1.1361 -0.2249
    2CHL1   H3'   78   2.407   3.055   5.991  1.8885 -0.0019  0.9395
    2CHL1    C4   79   2.354   3.245   5.839  0.6969  0.9995 -0.2468
    2CHL1   H4A   80   2.290   3.154   5.846 -1.6306  2.6966  2.3934
    2CHL1   H4B   81   2.292   3.324   5.886 -0.8558  0.7525 -1.7567
    2CHL1    C5   82   2.359   3.270   5.687 -0.2714  0.0031 -0.4150
    2CHL1    C6   83   2.288   3.369   5.635 -0.2030 -0.0308 -0.2747
    2CHL1    H6   84   2.211   3.424   5.690 -0.1487 -0.5786  0.3628
    2CHL1    C7   85   2.299   3.415   5.496  0.4167  0.0830  0.0760
    2CHL1   H7A   86   2.196   3.423   5.457 -0.5571 -0.6885  2.3580
    2CHL1   H7B   87   2.351   3.513   5.490  0.4336  0.0816  0.1975
    2CHL1    C8   88   2.370   3.308   5.410  0.0299  0.0627  0.4609
    2CHL1    H8   89   2.297   3.224   5.405 -1.4943  1.4148 -2.2441
    2CHL1   C14   90   2.400   3.375   5.270 -0.5295  0.5943 -0.5894
    2CHL1   H14   91   2.466   3.459   5.298  0.6201 -0.4567 -0.0396
    2CHL1   C15   92   2.281   3.420   5.184 -0.3283 -0.7121 -0.5069
    2CHL1  H15A   93   2.202   3.342   5.180 -0.8668 -0.1505 -1.1779
    2CHL1  H15B   94   2.255   3.523   5.215  1.0936 -0.0493 -1.3855
    2CHL1   C16   95   2.352   3.423   5.043  0.2539 -0.2448 -0.2354
    2CHL1  H16A   96   2.290   3.365   4.971  0.1314 -2.4362  1.5586
    2CHL1  H16B   97   2.355   3.528   5.007  0.0285 -0.5827 -1.2759
    2CHL1   C17   98   2.493   3.353   5.056  0.7201 -0.4870  0.0973
    2CHL1   H17   99   2.574   3.426   5.080 -1.9708  1.6355  3.6411
    2CHL1   C13  100   2.481   3.275   5.183  0.5511  0.2221 -0.0432
    2CHL1   C18  101   2.404   3.141   5.150  0.2713  0.1629  0.0520
    2CHL1  H18A  102   2.393   3.087   5.246 -0.2148  0.7268  0.3208
    2CHL1  H18B  103   2.301   3.158   5.113 -0.7324 -2.3056  1.5053
    2CHL1  H18C  104   2.465   3.073   5.086 -1.0508 -2.4809  1.4564
    2CHL1   C12  105   2.612   3.252   5.254 -0.6064  0.3059  0.0795
    2CHL1  H12A  106   2.678   3.185   5.195 -0.0446 -0.8639  1.9798
    2CHL1  H12B  107   2.664   3.348   5.273  1.0895 -0.9031  1.9570
    2CHL1   C11  108   2.603   3.188   5.391 -0.4814  0.2296 -0.9190
    2CHL1  H11A  109   2.576   3.085   5.359 -0.8696 -0.5995  1.8360
    2CHL1  H11B  110   2.704   3.183   5.438 -1.5790 -0.3850  1.5002
    2CHL1    C9  111   2.499   3.265   5.480  0.8620 -0.3980 -0.3175
    2CHL1    H9  112   2.559   3.358   5.494  1.1835 -0.9076  1.9947
    2CHL1   C10  113   2.467   3.191   5.609 -0.7636  0.0026 -1.0729
    2CHL1   C19  114   2.408   3.054   5.587 -0.0569  0.5919 -0.5613
    2CHL1  H19A  115   2.371   2.997   5.675  0.2979 -2.6826 -2.3853
    2CHL1  H19B  116   2.318   3.062   5.522  0.1451  0.5047 -0.8519
    2CHL1  H19C  117   2.481   2.988   5.536  0.0872  0.5403 -0.2931
    2CHL1    C1  118   2.598   3.173   5.688  0.2075 -0.1901  0.1350
    2CHL1   H1A  119   2.660   3.100   5.632 -0.6604 -0.2464 -0.7759
    2CHL1   H1B  120   2.649   3.272   5.692 -1.1545  0.5011  3.2629
    2CHL1    C2  121   2.577   3.120   5.829 -0.3735  0.3093  0.0755
    2CHL1   H2A  122   2.670   3.116   5.890  0.7111 -1.4117 -1.5695
    2CHL1   H2B  123   2.546   3.014   5.815  1.1691  0.0781 -2.0954
    2CHL1   C20  124   2.530   3.291   4.922 -0.0336  0.4354 -0.1265
    2CHL1   H20  125   2.453   3.220   4.886 -0.3305  2.0230 -2.8743
    2CHL1   C21  126   2.664   3.225   4.926  0.1112 -0.2115  0.2581
    2CHL1  H21A  127   2.683   3.176   4.828 -2.1933  1.0164 -0.8917
    2CHL1  H21B  128   2.671   3.145   5.002  0.9563  0.8402  1.3281
    2CHL1  H21C  129   2.744   3.300   4.944  0.1380 -0.1990  0.0897
    2CHL1   C22  130   2.532   3.398   4.809 -0.2507 -0.4592  0.3424
    2CHL1  H22A  131   2.433   3.450   4.812  0.9660  2.2106 -1.6217
    2CHL1  H22B  132   2.612   3.467   4.843 -1.3214  1.2674 -0.4844
    2CHL1   C23  133   2.547   3.347   4.668 -0.5389 -0.4460 -0.0511
    2CHL1  H23A  134   2.555   3.434   4.598  0.9084  0.4045  1.1200
    2CHL1  H23B  135   2.641   3.288   4.654  0.2632 -0.1881  3.4520
    2CHL1   C24  136   2.437   3.251   4.629  0.3723  0.1311 -0.4961
    2CHL1  H24A  137   2.447   3.154   4.682 -0.4733 -0.7608 -1.8862
    2CHL1  H24B  138   2.341   3.302   4.653  0.6075  0.7724 -0.8854
    2CHL1   C25  139   2.428   3.225   4.478  0.0398  0.2645 -0.1978
    2CHL1   H25  140   2.514   3.160   4.452 -0.6055  0.1446 -2.1618
    2CHL1   C26  141   2.299   3.147   4.452 -0.1107 -0.3871 -0.1220
    2CHL1  H26A  142   2.279   3.120   4.346  1.3800 -0.7303 -0.3365
    2CHL1  H26B  143   2.303   3.051   4.508 -0.8398  0.5349  1.5928
    2CHL1  H26C  144   2.208   3.200   4.486  1.1237  1.2014  0.8522
    2CHL1   C27  145   2.443   3.344   4.389 -0.5333 -0.1275 -0.1031
    2CHL1  H27A  146   2.418   3.315   4.285 -0.3243 -0.0782 -0.1675
    2CHL1  H27B  147   2.377   3.428   4.419  0.2906  0.8068 -0.8106
    2CHL1  H27C  148   2.550   3.372   4.379  0.0222 -1.9539  0.2690
    3CHL1    C3  149   3.710   3.240   6.318  0.1612 -0.9423  0.1233
    3CHL1    H3  150   3.776   3.151   6.311 -0.8511 -1.9458  2.1638
    3CHL1    O3  151   3.719   3.288   6.452  0.2301  0.1399  0.5083
    3CHL1   H3'  152   3.688   3.379   6.449 -0.3335 -0.0777 -0.6794
    3CHL1    C4  153   3.739   3.351   6.217 -0.1674  0.4491  0.2029
    3CHL1   H4A  154   3.665   3.431   6.237 -1.8172 -0.9920  0.1467
    3CHL1   H4B  155   3.840   3.397   6.223 -0.7001  1.4378  2.3434
    3CHL1    C5  156   3.724   3.298   6.072 -0.0699  0.2887 -0.0631
    3CHL1    C6  157   3.826   3.290   5.990  0.3080  0.0886 -0.4431
    3CHL1    H6  158   3.926   3.308   6.032 -0.6595  0.2710  1.9823
    3CHL1    C7  159   3.810   3.253   5.843  0.1276  0.1374  0.4425
    3CHL1   H7A  160   3.861   3.333   5.786  1.8363 -1.8132 -0.9164
    3CHL1   H7B  161   3.873   3.162   5.826  0.0587  0.5038 -2.0687
    3CHL1    C8  162   3.671   3.236   5.794 -0.2893 -0.1723 -0.3650
    3CHL1    H8  163   3.626   3.336   5.776  1.2235  0.2048 -2.4413
    3CHL1   C14  164   3.673   3.167   5.665  0.3362 -0.2632 -0.5147
    3CHL1   H14  165   3.713   3.066   5.691 -0.9544 -1.1758 -1.8787
    3CHL1   C15  166   3.763   3.216   5.551  0.4381  0.5598 -0.4708
    3CHL1  H15A  167   3.775   3.327   5.553 -0.5125  0.7050  3.2781
    3CHL1  H15B  168   3.866   3.179   5.569  1.1354  0.2539 -4.1363
    3CHL1   C16  169   3.697   3.147   5.431  0.1243 -0.3323  0.4693
    3CHL1  H16A  170   3.662   3.222   5.357 -1.9727  0.5606  2.2349
    3CHL1  H16B  171   3.762   3.082   5.369 -0.4472 -1.3655  0.9433
    3CHL1   C17  172   3.579   3.062   5.469  0.0996 -0.5837 -0.2658
    3CHL1   H17  173   3.625   2.963   5.491  1.3239 -0.0871 -0.5321
    3CHL1   C13  174   3.538   3.126   5.602  0.2295  0.8604 -0.0878
    3CHL1   C18  175   3.462   3.256   5.567  0.5696  1.5416 -0.7866
    3CHL1  H18A  176   3.509   3.318   5.487 -1.7128  1.2167 -2.5070
    3CHL1  H18B  177   3.361   3.232   5.528  0.7804  0.2422 -0.5823
    3CHL1  H18C  178   3.442   3.319   5.656 -0.1782  2.8724 -1.8607
    3CHL1   C12  179   3.469   3.032   5.715  0.6888  0.0829  0.2691
    3CHL1  H12A  180   3.369   2.993   5.686 -0.4075  3.4524 -0.9856
    3CHL1  H12B  181   3.543   2.949   5.719  1.0851  0.3511 -0.9800
    3CHL1   C11  182   3.450   3.112   5.849 -0.4136  0.3382 -0.2118
    3CHL1  H11A  183   3.382   3.197   5.826 -0.1788  0.3263 -0.9593
    3CHL1  H11B  184   3.400   3.044   5.922  0.6221 -0.1692  0.0465
    3CHL1    C9  185   3.587   3.160   5.901 -0.6583  0.7036  0.0228
    3CHL1    H9  186   3.651   3.071   5.917 -1.4937  0.3638  1.6589
    3CHL1   C10  187   3.580   3.241   6.034 -0.1402  0.3178 -0.2908
    3CHL1   C19  188   3.475   3.350   6.022  0.0503 -0.2587  0.0658
    3CHL1  H19A  189   3.372   3.318   5.998 -0.5214  2.1741 -1.0807
    3CHL1  H19B  190   3.474   3.416   6.111  0.8198  1.1492 -0.9355
    3CHL1  H19C  191   3.507   3.409   5.933  0.1344 -0.3968  0.0036
    3CHL1    C1  192   3.534   3.144   6.150 -0.5494 -0.3607  0.5126
    3CHL1   H1A  193   3.427   3.118   6.139 -0.4436  0.0989 -2.4461
    3CHL1   H1B  194   3.584   3.046   6.134  0.8947  0.3145  0.7237
    3CHL1    C2  195   3.562   3.194   6.296  0.3725  0.1472  0.0297
    3CHL1   H2A  196   3.550   3.111   6.369  0.4417  0.5409  0.4930
    3CHL1   H2B  197   3.493   3.277   6.325  1.8515  1.5727 -0.4135
    3CHL1   C20  198   3.472   3.040   5.357 -0.1604 -0.1024  0.2612
    3CHL1   H20  199   3.433   3.141   5.333 -0.5485 -0.3462 -0.1560
    3CHL1   C21  200   3.351   2.959   5.409  0.2262  0.4521 -0.2630
    3CHL1  H21A  201   3.300   3.033   5.474  0.7736  1.2026 -0.6679
    3CHL1  H21B  202   3.377   2.864   5.461 -0.5421  0.9460  1.0803
    3CHL1  H21C  203   3.273   2.937   5.333  0.0063  0.0463  0.0795
    3CHL1   C22  204   3.535   2.979   5.232  0.6237  0.4501  0.9168
    3CHL1  H22A  205   3.471   2.995   5.142  0.2815 -1.3002  0.8221
    3CHL1  H22B  206   3.633   3.028   5.214  1.5133 -2.0514 -1.7254
    3CHL1   C23  207   3.561   2.832   5.247  0.2454 -0.1382  0.0607
    3CHL1  H23A  208   3.623   2.808   5.336  0.6452  0.9263  0.0848
    3CHL1  H23B  209   3.462   2.783   5.258 -0.8658  2.0845  0.6697
    3CHL1   C24  210   3.637   2.764   5.128  0.3474 -0.4258  1.0481
    3CHL1  H24A  211   3.587   2.810   5.040 -0.1218 -2.0326  0.4361
    3CHL1  H24B  212   3.746   2.782   5.129  0.6761 -1.9622 -0.6907
    3CHL1   C25  213   3.621   2.607   5.114 -0.9250 -1.0351 -0.2039
    3CHL1   H25  214   3.515   2.580   5.136 -0.3095 -1.9056  1.9482
    3CHL1   C26  215   3.673   2.549   4.975  0.2913  0.5132  0.6739
    3CHL1  H26A  216   3.650   2.441   4.968 -0.2118  0.6036  0.9421
    3CHL1  H26B  217   3.637   2.605   4.886  2.2236  2.8617  1.2677
    3CHL1  H26C  218   3.784   2.563   4.979  0.2746  1.8761 -1.5482
    3CHL1   C27  219   3.700   2.532   5.221 -0.8171  0.3864 -0.4024
    3CHL1  H27A  220   3.809   2.555   5.227 -0.6701 -0.4472  0.4899
    3CHL1  H27B  221   3.661   2.560   5.321 -2.9399 -1.0769 -0.7605
    3CHL1  H27C  222   3.683   2.423   5.209  2.3822 -0.3802  0.8665
    4CHL1    C3  223   2.637   3.725   5.988 -0.6420 -0.2869 -0.1871
    4CHL1    H3  224   2.741   3.752   6.015 -0.5325 -1.5735  0.7330
    4CHL1    O3  225   2.564   3.720   6.112 -0.2271  0.6511  0.3881
    4CHL1   H3'  226   2.485   3.672   6.086 -0.7616  0.6989  1.8164
    4CHL1    C4  227   2.582   3.831   5.899 -0.9741  0.3467  0.9412
    4CHL1   H4A  228   2.476   3.804   5.878 -0.2111 -1.4648 -0.9238
    4CHL1   H4B  229   2.577   3.923   5.961  0.6865  0.1830  1.3640
    4CHL1    C5  230   2.655   3.848   5.762 -0.7313  0.1915 -0.6043
    4CHL1    C6  231   2.701   3.966   5.710 -0.1749  0.3502  0.2387
    4CHL1    H6  232   2.695   4.061   5.766 -1.3787  0.1435  0.4891
    4CHL1    C7  233   2.761   3.984   5.567 -0.2165 -0.2691  0.4863
    4CHL1   H7A  234   2.729   4.081   5.524  0.9566 -0.6072 -1.2807
    4CHL1   H7B  235   2.871   3.999   5.571 -0.1908 -0.4783  0.5378
    4CHL1    C8  236   2.719   3.859   5.477 -0.2369  0.9048  0.5331
    4CHL1    H8  237   2.610   3.862   5.456 -0.2179  1.4074  0.4968
    4CHL1   C14  238   2.786   3.869   5.343  0.1097 -0.6273  0.4037
    4CHL1   H14  239   2.891   3.865   5.378 -0.1026 -0.5058  1.0659
    4CHL1   C15  240   2.764   3.995   5.260  0.4429 -0.4766 -0.6457
    4CHL1  H15A  241   2.655   4.000   5.244  0.1828 -1.9709  0.3952
    4CHL1  H15B  242   2.792   4.092   5.306 -1.8827 -0.1440  0.1649
    4CHL1   C16  243   2.832   3.969   5.129 -0.7591  0.1957  0.0581
    4CHL1  H16A  244   2.791   4.011   5.034  0.0957  0.3412 -0.2499
    4CHL1  H16B  245   2.935   4.010   5.136 -1.2399  1.5641 -0.3981
    4CHL1   C17  246   2.849   3.816   5.119  0.3047  0.3177 -0.0317
    4CHL1   H17  247   2.956   3.792   5.131  0.0828 -0.2937  0.9085
    4CHL1   C13  248   2.772   3.754   5.246  0.3785  0.1128  0.2848
    4CHL1   C18  249   2.626   3.735   5.210  1.3390  0.2075  0.4795
    4CHL1  H18A  250   2.559   3.752   5.297  1.4024 -1.1116  0.8159
    4CHL1  H18B  251   2.600   3.820   5.144  0.4055  0.4521  1.1454
    4CHL1  H18C  252   2.601   3.638   5.161  0.5848 -0.0464  1.3276
    4CHL1   C12  253   2.816   3.627   5.317 -0.4740  0.7268 -0.3166
    4CHL1  H12A  254   2.788   3.536   5.261  0.7059  0.0763  0.1174
    4CHL1  H12B  255   2.927   3.626   5.324 -0.2668 -3.1516 -1.7987
    4CHL1   C11  256   2.746   3.606   5.460 -0.8562 -0.0587 -0.3885
    4CHL1  H11A  257   2.641   3.569   5.453 -1.0582  0.3543  0.4191
    4CHL1  H11B  258   2.798   3.520   5.509  1.1666  0.9805 -0.6128
    4CHL1    C9  259   2.752   3.725   5.559 -0.1036 -0.3886  0.1603
    4CHL1    H9  260   2.856   3.747   5.593  0.0920  0.4546 -0.9335
    4CHL1   C10  261   2.661   3.712   5.687  0.3208 -0.6336  0.4722
    4CHL1   C19  262   2.522   3.659   5.641  0.3336 -0.4495 -0.6628
    4CHL1  H19A  263   2.445   3.662   5.721 -0.5666  0.4831 -1.5350
    4CHL1  H19B  264   2.485   3.733   5.567 -1.8270  0.6191  1.3740
    4CHL1  H19C  265   2.532   3.553   5.607  0.3651 -0.7588  0.2807
    4CHL1    C1  266   2.731   3.610   5.784  0.9528 -0.0028  0.1930
    4CHL1   H1A  267   2.738   3.513   5.731 -0.0635  0.9320 -1.7596
    4CHL1   H1B  268   2.829   3.647   5.819  0.6100 -1.1044  2.5407
    4CHL1    C2  269   2.650   3.590   5.915 -0.3887 -0.4144  0.2778
    4CHL1   H2A  270   2.696   3.511   5.978  0.4804 -1.0826 -1.1305
    4CHL1   H2B  271   2.551   3.544   5.891  0.6002 -3.3894  1.4377
    4CHL1   C20  272   2.812   3.762   4.984  0.3909 -0.0012 -0.1992
    4CHL1   H20  273   2.706   3.790   4.962 -0.0335  0.7224  2.3811
    4CHL1   C21  274   2.831   3.605   4.981  0.0070  1.4162 -0.6462
    4CHL1  H21A  275   2.824   3.574   4.875  1.4954 -0.7894 -0.1636
    4CHL1  H21B  276   2.757   3.557   5.049  3.1927 -1.6929  0.9198
    4CHL1  H21C  277   2.930   3.566   5.012 -1.6408 -3.1288 -0.3872
    4CHL1   C22  278   2.892   3.819   4.867  0.1098 -0.4243  0.6800
    4CHL1  H22A  279   2.879   3.743   4.787 -0.8289 -0.3598  0.7610
    4CHL1  H22B  280   2.845   3.915   4.836 -0.1173 -0.6919  0.1631
    4CHL1   C23  281   3.044   3.835   4.887  0.6600  0.4340  1.0663
    4CHL1  H23A  282   3.083   3.902   4.966  2.6241 -0.4285  0.9046
    4CHL1  H23B  283   3.084   3.739   4.927  0.2549 -1.1905 -2.1032
    4CHL1   C24  284   3.126   3.846   4.754 -0.1019  0.0536 -0.0842
    4CHL1  H24A  285   3.232   3.854   4.785  0.1738  1.6465 -1.2603
    4CHL1  H24B  286   3.118   3.759   4.685  1.6867  0.1556 -0.4621
    4CHL1   C25  287   3.104   3.980   4.680 -0.1639 -0.8008 -0.4043
    4CHL1   H25  288   2.998   3.991   4.648 -0.9014 -0.3501  2.0185
    4CHL1   C26  289   3.137   4.108   4.760 -0.0528 -0.3249  0.6518
    4CHL1  H26A  290   3.107   4.094   4.866  2.9205 -1.2101  1.4906
    4CHL1  H26B  291   3.248   4.119   4.761  0.6435 -4.8158 -1.5727
    4CHL1  H26C  292   3.088   4.199   4.719 -0.2355 -0.4735  0.5376
    4CHL1   C27  293   3.186   3.983   4.548  0.0890  0.8437 -0.4526
    4CHL1  H27A  294   3.295   3.965   4.562 -0.2127 -1.6570 -0.8743
    4CHL1  H27B  295   3.150   3.896   4.490  2.3668 -1.2331  1.0369
    4CHL1  H27C  296   3.171   4.076   4.488  0.9956  0.0225 -2.0042
    5CHL1    C3  297   3.112   5.557   6.070  0.1524  0.4713  0.2481
    5CHL1    H3  298   3.145   5.658   6.036 -2.2408  1.3677  0.3830
    5CHL1    O3  299   3.068   5.559   6.201 -0.0760 -0.2283 -0.7019
    5CHL1   H3'  300   3.146   5.555   6.257 -1.0358 -0.4849  0.6778
    5CHL1    C4  301   2.994   5.520   5.974  0.1464  0.0687 -0.3587
    5CHL1   H4A  302   2.953   5.422   6.005 -0.7110  0.8406  1.0816
    5CHL1   H4B  303   2.910   5.593   5.980 -0.5688 -0.4281 -3.0478
    5CHL1    C5  304   3.038   5.500   5.830  0.0929  0.0533  0.3387
    5CHL1    C6  305   2.980   5.565   5.726  0.4615 -0.0946 -0.3988
    5CHL1    H6  306   2.906   5.643   5.747  0.2496 -0.4408  0.1531
    5CHL1    C7  307   3.011   5.541   5.582 -0.2130  0.6872 -0.8356
    5CHL1   H7A  308   2.920   5.525   5.522 -0.5297  0.5170 -0.3147
    5CHL1   H7B  309   3.068   5.628   5.542 -1.7744  1.7480 -0.8324
    5CHL1    C8  310   3.101   5.411   5.548  0.0132 -0.1118  0.3873
    5CHL1    H8  311   3.032   5.324   5.545 -0.7920  0.5325 -0.4236
    5CHL1   C14  312   3.184   5.422   5.417 -0.0728  0.1649 -0.3963
    5CHL1   H14  313   3.250   5.509   5.442 -1.6522  0.9472  1.3109
    5CHL1   C15  314   3.111   5.468   5.297  0.1755 -0.1655  0.1949
    5CHL1  H15A  315   3.013   5.416   5.286 -0.2339  0.6105  0.1453
    5CHL1  H15B  316   3.088   5.576   5.298 -0.5891 -0.3100 -0.6322
    5CHL1   C16  317   3.208   5.437   5.174  0.2583  0.8215 -0.7901
    5CHL1  H16A  318   3.166   5.379   5.090 -0.6344  0.7817 -0.3324
    5CHL1  H16B  319   3.236   5.537   5.135 -2.0422  3.5334  3.6103
    5CHL1   C17  320   3.330   5.361   5.239 -0.1227 -0.1874  0.3866
    5CHL1   H17  321   3.415   5.429   5.262  2.5209 -2.5687 -1.6888
    5CHL1   C13  322   3.274   5.305   5.376  0.3601 -0.0488  0.4191
    5CHL1   C18  323   3.178   5.178   5.341 -0.6412 -0.3224 -0.3078
    5CHL1  H18A  324   3.251   5.095   5.337  1.6813  1.5998 -0.0004
    5CHL1  H18B  325   3.107   5.165   5.426 -0.2165 -1.1154 -0.0724
    5CHL1  H18C  326   3.116   5.193   5.250 -0.5130  1.5745 -0.1365
    5CHL1   C12  327   3.369   5.281   5.496 -0.0040 -0.0883  0.6756
    5CHL1  H12A  328   3.427   5.193   5.462 -0.9821  0.0348 -1.4615
    5CHL1  H12B  329   3.436   5.370   5.500 -1.0502  0.8097 -0.6803
    5CHL1   C11  330   3.296   5.262   5.626  0.8820 -0.3137 -0.7060
    5CHL1  H11A  331   3.237   5.169   5.612  0.7721 -0.5192  1.0081
    5CHL1  H11B  332   3.363   5.237   5.711 -0.3912 -1.0526  0.1109
    5CHL1    C9  333   3.199   5.382   5.658 -0.2245 -0.0342 -0.4053
    5CHL1    H9  334   3.256   5.478   5.653 -3.4232  2.0286 -0.7265
    5CHL1   C10  335   3.141   5.385   5.805  0.4491 -0.7318  0.1454
    5CHL1   C19  336   3.076   5.251   5.832  0.5306  0.3408 -0.2185
    5CHL1  H19A  337   3.033   5.227   5.932  1.3217 -0.0643  0.0383
    5CHL1  H19B  338   2.998   5.230   5.756 -0.6137 -1.5868  1.3996
    5CHL1  H19C  339   3.153   5.171   5.824 -0.2097 -0.1990 -2.4243
    5CHL1    C1  340   3.257   5.423   5.902 -0.0028  0.4528  0.4648
    5CHL1   H1A  341   3.349   5.361   5.900  0.3304  0.8932  1.4506
    5CHL1   H1B  342   3.292   5.523   5.866  4.7447 -1.1576 -0.0887
    5CHL1    C2  343   3.216   5.448   6.054  0.1198  0.5569  0.3148
    5CHL1   H2A  344   3.313   5.466   6.106  0.9819  1.3021 -1.4409
    5CHL1   H2B  345   3.175   5.355   6.098 -0.2610  0.7762  0.4225
    5CHL1   C20  346   3.390   5.252   5.135 -0.4882 -0.4440  0.0991
    5CHL1   H20  347   3.309   5.186   5.097 -1.4238  0.3073  0.7496
    5CHL1   C21  348   3.503   5.160   5.199  0.7815 -0.2586 -0.4262
    5CHL1  H21A  349   3.467   5.093   5.280  1.6761 -0.9118 -0.5550
    5CHL1  H21B  350   3.576   5.238   5.229  1.7405 -1.5753  0.7427
    5CHL1  H21C  351   3.546   5.095   5.120  0.1913 -1.5924  0.3107
    5CHL1   C22  352   3.450   5.319   5.011 -0.3788  0.3117 -0.1305
    5CHL1  H22A  353   3.375   5.394   4.979 -1.3789  0.2272  1.9030
    5CHL1  H22B  354   3.547   5.371   5.028 -1.4546  2.5578 -0.5047
    5CHL1   C23  355   3.471   5.224   4.894  0.2741 -0.3605  0.3466
    5CHL1  H23A  356   3.551   5.150   4.917 -0.9482 -2.1714 -0.9500
    5CHL1  H23B  357   3.383   5.158   4.878  0.1817 -0.0653 -0.3873
    5CHL1   C24  358   3.500   5.304   4.767  0.9244  0.2540  1.1899
    5CHL1  H24A  359   3.422   5.382   4.759 -0.8515 -1.6346 -1.3753
    5CHL1  H24B  360   3.602   5.348   4.774  1.9208 -1.7155 -0.2110
    5CHL1   C25  361   3.498   5.230   4.632 -0.0383  0.9351  0.0442
    5CHL1   H25  362   3.408   5.165   4.629  0.7880 -0.2797 -3.3161
    5CHL1   C26  363   3.487   5.319   4.508  0.6426 -0.1622  0.0242
    5CHL1  H26A  364   3.496   5.427   4.535 -1.5487  0.2949 -0.8694
    5CHL1  H26B  365   3.564   5.297   4.430 -0.1067 -0.7076 -0.5772
    5CHL1  H26C  366   3.385   5.317   4.464  0.7672 -0.0346 -0.2726
    5CHL1   C27  367   3.613   5.133   4.627 -0.3281  0.0411 -0.0514
    5CHL1  H27A  368   3.710   5.183   4.606  1.6008 -3.3602  0.1121
    5CHL1  H27B  369   3.627   5.073   4.720  0.9073 -0.2834 -0.4253
    5CHL1  H27C  370   3.599   5.058   4.546  0.2492  0.1295 -0.2359
    6CHL1    C3  371   1.643   2.876   5.661  0.3161 -0.1108  0.4141
    6CHL1    H3  372   1.730   2.943   5.641  0.7114 -1.4835 -2.9619
    6CHL1    O3  373   1.640   2.842   5.798  0.3604  0.3137 -0.5372
    6CHL1   H3'  374   1.614   2.925   5.839  0.8828  2.2426 -3.7602
    6CHL1    C4  375   1.511   2.944   5.626  0.2368 -0.1462  0.0606
    6CHL1   H4A  376   1.419   2.898   5.667 -0.1018  0.8094  0.4060
    6CHL1   H4B  377   1.519   3.038   5.684  0.4838  0.0275 -0.2517
    6CHL1    C5  378   1.501   2.980   5.481  0.0229 -0.1943  0.3368
    6CHL1    C6  379   1.491   3.106   5.438  0.7408 -0.2830 -0.1698
    6CHL1    H6  380   1.482   3.183   5.515  0.6735 -1.7707  1.3674
    6CHL1    C7  381   1.487   3.149   5.294  0.2253 -0.1533  0.3600
    6CHL1   H7A  382   1.404   3.223   5.287 -2.1710 -2.6393  0.8974
    6CHL1   H7B  383   1.580   3.201   5.262 -0.7933  1.3221 -0.3231
    6CHL1    C8  384   1.463   3.036   5.193  0.3315 -0.4087  0.2693
    6CHL1    H8  385   1.354   3.017   5.192  0.2856 -0.1354 -0.2357
    6CHL1   C14  386   1.505   3.081   5.055 -0.5441 -0.2337  0.2923
    6CHL1   H14  387   1.614   3.098   5.065 -0.4247 -1.4379  1.3789
    6CHL1   C15  388   1.447   3.215   4.997  0.1846  0.1831  0.3014
    6CHL1  H15A  389   1.338   3.215   5.018  0.3944  3.4527  2.0238
    6CHL1  H15B  390   1.494   3.308   5.035 -2.2046  2.0678 -1.0839
    6CHL1   C16  391   1.480   3.202   4.844  0.0972 -0.4613 -0.4467
    6CHL1  H16A  392   1.394   3.227   4.778  1.6019 -0.3353 -2.4447
    6CHL1  H16B  393   1.566   3.269   4.824  1.0044 -1.8406 -1.3683
    6CHL1   C17  394   1.533   3.053   4.819  0.3275  0.4369 -0.3471
    6CHL1   H17  395   1.644   3.053   4.822  0.3936 -0.7271 -1.6860
    6CHL1   C13  396   1.484   2.978   4.949  0.1486 -0.5573  0.4106
    6CHL1   C18  397   1.332   2.929   4.938  0.4288  0.2687 -0.3603
    6CHL1  H18A  398   1.260   3.005   4.902 -1.5550 -1.6312 -0.5931
    6CHL1  H18B  399   1.325   2.848   4.862 -1.9029  0.6316 -0.6059
    6CHL1  H18C  400   1.294   2.881   5.030  1.5785  0.3549  0.1774
    6CHL1   C12  401   1.571   2.850   4.984  0.4246 -0.6603 -0.0727
    6CHL1  H12A  402   1.557   2.766   4.913 -1.8852 -0.4450  0.0378
    6CHL1  H12B  403   1.676   2.884   4.985 -0.2117  1.4022  0.2637
    6CHL1   C11  404   1.532   2.799   5.128 -0.4443 -0.1480  0.2312
    6CHL1  H11A  405   1.429   2.758   5.121  0.3985 -2.1512 -1.4995
    6CHL1  H11B  406   1.602   2.714   5.146  1.2950  1.1499 -0.1126
    6CHL1    C9  407   1.542   2.908   5.234  0.3404  0.8849  0.6818
    6CHL1    H9  408   1.649   2.938   5.226  0.1312  1.5040  0.0591
    6CHL1   C10  409   1.519   2.862   5.384 -0.4600  0.6216  0.2966
    6CHL1   C19  410   1.398   2.763   5.388  0.5093 -0.8371  0.1850
    6CHL1  H19A  411   1.315   2.824   5.347  0.0800 -0.2258  1.8897
    6CHL1  H19B  412   1.414   2.676   5.321 -0.0864 -1.3439  0.6862
    6CHL1  H19C  413   1.378   2.741   5.495  0.2158 -0.3790  0.2243
    6CHL1    C1  414   1.647   2.789   5.424 -0.3034 -1.0736 -0.5310
    6CHL1   H1A  415   1.662   2.702   5.358  0.0522 -0.7776 -0.8475
    6CHL1   H1B  416   1.734   2.854   5.399 -0.0983 -0.3780  1.6965
    6CHL1    C2  417   1.650   2.749   5.572 -0.5896  0.2308 -0.7250
    6CHL1   H2A  418   1.751   2.707   5.593 -0.3458  0.5347 -1.2771
    6CHL1   H2B  419   1.570   2.682   5.610 -0.7939  1.2450  0.6936
    6CHL1   C20  420   1.490   3.009   4.681  0.4147 -0.2025 -0.2261
    6CHL1   H20  421   1.380   3.002   4.667  0.3914 -2.2585  0.6738
    6CHL1   C21  422   1.535   2.863   4.657  0.0894  0.0880  0.4358
    6CHL1  H21A  423   1.523   2.837   4.550  0.9341  0.6055  0.2044
    6CHL1  H21B  424   1.457   2.808   4.714 -1.5403  1.5920 -0.2476
    6CHL1  H21C  425   1.640   2.849   4.692 -0.1022  0.7544  1.3076
    6CHL1   C22  426   1.554   3.094   4.567 -0.4944 -0.1436 -0.1619
    6CHL1  H22A  427   1.533   3.203   4.571  1.7759  0.4004 -1.2088
    6CHL1  H22B  428   1.665   3.085   4.570 -0.1564  2.7249 -1.3924
    6CHL1   C23  429   1.500   3.066   4.428 -0.2253  1.1594  0.1802
    6CHL1  H23A  430   1.499   2.965   4.381 -1.7676  0.7319  1.0816
    6CHL1  H23B  431   1.390   3.078   4.430 -0.7837 -2.3833 -1.6398
    6CHL1   C24  432   1.561   3.162   4.322  0.2982 -0.6899 -0.4285
    6CHL1  H24A  433   1.571   3.266   4.359 -0.3370 -0.1903 -1.6126
    6CHL1  H24B  434   1.658   3.130   4.278  0.8100  2.3572 -1.8090
    6CHL1   C25  435   1.470   3.176   4.193 -0.3330 -0.2877 -0.3608
    6CHL1   H25  436   1.410   3.083   4.194 -0.6327 -0.1022  0.5115
    6CHL1   C26  437   1.375   3.296   4.213  0.3671 -0.3346  0.3183
    6CHL1  H26A  438   1.303   3.283   4.297 -0.3816  0.3831 -0.1921
    6CHL1  H26B  439   1.432   3.391   4.224 -2.3261  1.5540 -0.7963
    6CHL1  H26C  440   1.314   3.301   4.120  0.4590  1.1575  0.3109
    6CHL1   C27  441   1.557   3.201   4.066 -0.2105  0.3607  0.0358
    6CHL1  H27A  442   1.611   3.297   4.079 -1.7138  1.0601  1.5495
    6CHL1  H27B  443   1.632   3.120   4.063  0.8374  1.3240 -2.0572
    6CHL1  H27C  444   1.485   3.207   3.982 -0.8340 -0.3464  0.5099
    7CHL1    C3  445   4.148   2.838   6.357  0.0801  0.1102  0.2989
    7CHL1    H3  446   4.110   2.941   6.343 -1.2508 -0.0537  2.2810
    7CHL1    O3  447   4.178   2.795   6.492  0.1343 -0.1685 -0.4703
    7CHL1   H3'  448   4.223   2.712   6.476 -0.6292 -0.2539 -2.5104
    7CHL1    C4  449   4.033   2.750   6.298  0.4634 -0.3277  0.0267
    7CHL1   H4A  450   4.046   2.643   6.324  1.3562 -0.0579  0.7518
    7CHL1   H4B  451   3.940   2.771   6.355  0.2920  0.2661 -0.4516
    7CHL1    C5  452   4.014   2.758   6.144  0.4190  0.6253 -0.4308
    7CHL1    C6  453   3.890   2.774   6.094 -0.2134  0.3442  0.9176
    7CHL1    H6  454   3.804   2.782   6.162 -1.3084  3.6922 -0.6374
    7CHL1    C7  455   3.867   2.784   5.943  0.4367 -0.0348  0.1684
    7CHL1   H7A  456   3.780   2.722   5.911  1.3012 -0.9635 -0.4532
    7CHL1   H7B  457   3.853   2.889   5.911 -1.2857 -0.5150 -0.7594
    7CHL1    C8  458   3.982   2.738   5.856 -0.5779 -0.0122  1.0984
    7CHL1    H8  459   3.985   2.627   5.854 -0.3582 -0.0402  2.1396
    7CHL1   C14  460   3.971   2.795   5.714  0.7313 -0.0259 -0.8407
    7CHL1   H14  461   3.964   2.905   5.723  0.1936 -0.1930  1.7233
    7CHL1   C15  462   3.849   2.750   5.631  0.2676  0.4729  0.2181
    7CHL1  H15A  463   3.809   2.647   5.643  3.0264 -0.5805  1.2403
    7CHL1  H15B  464   3.773   2.828   5.653  0.0861  0.6465 -0.9425
    7CHL1   C16  465   3.891   2.770   5.487  1.1242  0.1706  0.0012
    7CHL1  H16A  466   3.874   2.671   5.439  1.5909  0.8997 -1.7332
    7CHL1  H16B  467   3.837   2.852   5.436  0.4639 -1.0672 -1.3483
    7CHL1   C17  468   4.041   2.816   5.484  0.2819  0.8488 -0.5890
    7CHL1   H17  469   4.035   2.927   5.494  2.6816  0.8994  1.0934
    7CHL1   C13  470   4.094   2.773   5.623  0.7050 -0.4026 -0.0726
    7CHL1   C18  471   4.118   2.616   5.622 -0.7830  0.2885  0.2431
    7CHL1  H18A  472   4.048   2.549   5.568  0.6705 -1.7686  0.7789
    7CHL1  H18B  473   4.214   2.596   5.571 -0.4651 -0.3345  1.0649
    7CHL1  H18C  474   4.138   2.579   5.725  2.4131 -1.0144 -0.7412
    7CHL1   C12  475   4.209   2.858   5.685  0.0377  0.5400  0.6659
    7CHL1  H12A  476   4.303   2.850   5.628 -0.5005  1.4455 -0.3745
    7CHL1  H12B  477   4.179   2.965   5.682  0.7543  0.7260 -0.0974
    7CHL1   C11  478   4.240   2.808   5.825  0.3590 -1.2892  0.0650
    7CHL1  H11A  479   4.284   2.706   5.821  1.7506 -0.6703 -0.7244
    7CHL1  H11B  480   4.307   2.881   5.875 -1.4020  1.0431 -0.7908
    7CHL1    C9  481   4.109   2.798   5.921  0.6167  0.1929 -0.0947
    7CHL1    H9  482   4.083   2.906   5.927 -0.6198 -0.1188  0.4717
    7CHL1   C10  483   4.139   2.747   6.062 -0.4938 -0.2100 -0.3989
    7CHL1   C19  484   4.179   2.606   6.049 -0.4524 -0.7187 -0.5286
    7CHL1  H19A  485   4.110   2.541   5.991 -0.0062 -1.6490 -0.0246
    7CHL1  H19B  486   4.281   2.597   6.006 -0.1106  2.5903 -0.6894
    7CHL1  H19C  487   4.179   2.570   6.154  1.4428 -1.9138 -0.8922
    7CHL1    C1  488   4.249   2.831   6.124  0.3665  0.0332 -0.1268
    7CHL1   H1A  489   4.341   2.799   6.071 -0.9101 -2.9865 -0.7340
    7CHL1   H1B  490   4.227   2.937   6.098 -0.5967 -0.3698 -1.0376
    7CHL1    C2  491   4.274   2.812   6.277 -0.1279  0.5495  0.2054
    7CHL1   H2A  492   4.364   2.871   6.304 -0.2412  1.1362 -0.6853
    7CHL1   H2B  493   4.292   2.702   6.285  2.8520  0.8956 -0.3370
    7CHL1   C20  494   4.119   2.768   5.363  0.1334 -0.0163 -0.1431
    7CHL1   H20  495   4.140   2.659   5.365  0.0599 -0.0425 -0.6521
    7CHL1   C21  496   4.263   2.826   5.369 -0.0931  0.0604 -0.0835
    7CHL1  H21A  497   4.328   2.753   5.422  0.9052  0.4636 -0.7122
    7CHL1  H21B  498   4.261   2.925   5.420 -1.1068  0.2081 -0.3888
    7CHL1  H21C  499   4.299   2.839   5.265 -4.4952 -0.5890 -1.9088
    7CHL1   C22  500   4.036   2.792   5.230 -0.5144 -0.5478 -0.4935
    7CHL1  H22A  501   3.936   2.746   5.243 -0.5662 -0.1844  0.5696
    7CHL1  H22B  502   4.003   2.898   5.234  0.4255 -0.2662  0.4941
    7CHL1   C23  503   4.102   2.752   5.102  0.5890 -0.2106  0.9156
    7CHL1  H23A  504   4.207   2.790   5.102  0.1222  1.2005  2.1874
    7CHL1  H23B  505   4.097   2.642   5.098 -1.2302 -0.2181  2.1552
    7CHL1   C24  506   4.023   2.824   4.984 -0.2964 -0.1409 -0.6560
    7CHL1  H24A  507   3.931   2.760   4.984 -0.3058 -0.1318  0.1164
    7CHL1  H24B  508   3.997   2.924   5.024 -0.1260 -0.3378 -0.0533
    7CHL1   C25  509   4.086   2.820   4.844  0.3394  0.4624 -0.6199
    7CHL1   H25  510   4.130   2.718   4.832 -0.0911  0.2900 -0.7366
    7CHL1   C26  511   3.988   2.852   4.734  0.0939  0.4679 -0.8103
    7CHL1  H26A  512   3.900   2.786   4.744 -1.4275  2.6721  1.5435
    7CHL1  H26B  513   3.955   2.957   4.747 -0.0702  0.5041 -1.4844
    7CHL1  H26C  514   4.036   2.837   4.635  0.7515 -0.5518 -0.3563
    7CHL1   C27  515   4.202   2.921   4.847 -0.0182 -0.2060 -0.6041
    7CHL1  H27A  516   4.260   2.910   4.753 -0.5351 -0.1365 -0.9346
    7CHL1  H27B  517   4.170   3.027   4.854 -0.0747 -0.2718  0.2732
    7CHL1  H27C  518   4.274   2.899   4.929 -0.5192  2.6266  0.7233
    8CHL1    C3  519   1.066   3.332   5.983 -0.0750 -0.6243  0.2445
    8CHL1    H3  520   0.984   3.407   5.983  1.0710  0.6814 -0.9980
    8CHL1    O3  521   1.068   3.269   6.108  0.0657  0.5483  0.2553
    8CHL1   H3'  522   1.121   3.192   6.087 -1.3039 -0.3679  0.0295
    8CHL1    C4  523   1.033   3.230   5.874 -0.0193 -0.5646  0.2658
    8CHL1   H4A  524   1.118   3.158   5.879 -0.7649 -1.5365 -0.5141
    8CHL1   H4B  525   0.940   3.179   5.907 -1.4399  0.1178 -2.4623
    8CHL1    C5  526   1.026   3.299   5.739  0.0292 -0.4003  0.3349
    8CHL1    C6  527   0.908   3.296   5.664  0.4923  0.1597 -0.4449
    8CHL1    H6  528   0.823   3.237   5.700  0.4681  0.8262  0.6582
    8CHL1    C7  529   0.889   3.360   5.531 -0.0847  0.8826 -0.0608
    8CHL1   H7A  530   0.841   3.284   5.466 -1.3455 -1.4798  3.3580
    8CHL1   H7B  531   0.823   3.449   5.541 -0.4282  0.6229 -0.0172
    8CHL1    C8  532   1.028   3.389   5.472  0.4277 -0.7941  1.1210
    8CHL1    H8  533   1.059   3.286   5.445 -0.9439 -0.5448 -1.7539
    8CHL1   C14  534   1.002   3.466   5.339 -0.4113 -0.3887  0.7957
    8CHL1   H14  535   0.969   3.565   5.376 -0.3830 -1.1017  2.8804
    8CHL1   C15  536   0.885   3.430   5.245  0.0453 -0.0482 -0.3728
    8CHL1  H15A  537   0.887   3.319   5.234 -0.4616  0.0128 -1.1833
    8CHL1  H15B  538   0.791   3.471   5.289  0.3608 -0.7263  0.9903
    8CHL1   C16  539   0.933   3.499   5.120  0.4814 -1.1727 -0.4163
    8CHL1  H16A  540   0.947   3.429   5.035 -0.8867 -0.9375 -0.8608
    8CHL1  H16B  541   0.868   3.584   5.090 -1.5984 -1.6372  2.3343
    8CHL1   C17  542   1.068   3.569   5.140 -0.5065 -0.1564  0.5598
    8CHL1   H17  543   1.044   3.673   5.173 -0.4245  0.3042 -0.7807
    8CHL1   C13  544   1.128   3.499   5.258  0.9490 -0.0657 -1.0817
    8CHL1   C18  545   1.203   3.374   5.212  0.4870  0.2256  0.0988
    8CHL1  H18A  546   1.146   3.323   5.131  0.2023 -0.1255  0.5150
    8CHL1  H18B  547   1.301   3.404   5.169  0.8201  0.7170  1.1811
    8CHL1  H18C  548   1.214   3.300   5.293 -1.2435  1.0798  1.1729
    8CHL1   C12  549   1.212   3.590   5.356 -0.2997  0.1194 -0.2435
    8CHL1  H12A  550   1.307   3.615   5.303 -0.2990  1.9305  0.5456
    8CHL1  H12B  551   1.156   3.681   5.386 -0.7616  0.0070 -0.7540
    8CHL1   C11  552   1.246   3.503   5.484 -0.3290  0.7930  0.5759
    8CHL1  H11A  553   1.296   3.413   5.443 -0.3051  0.5185  1.1894
    8CHL1  H11B  554   1.313   3.567   5.545  0.2759  2.6889 -1.9284
    8CHL1    C9  555   1.124   3.462   5.564  0.4515  0.4082  0.6913
    8CHL1    H9  556   1.063   3.550   5.593 -3.3668 -1.9586  0.6194
    8CHL1   C10  557   1.146   3.377   5.698 -0.1719 -0.4359 -0.3437
    8CHL1   C19  558   1.259   3.274   5.683  0.6196 -0.5714  0.1000
    8CHL1  H19A  559   1.288   3.210   5.769 -0.1622 -0.9416  0.0984
    8CHL1  H19B  560   1.243   3.206   5.596  1.4720  1.1516 -1.4527
    8CHL1  H19C  561   1.346   3.334   5.650  0.5621 -1.3975 -1.6899
    8CHL1    C1  562   1.188   3.473   5.812 -0.0258  0.3741  0.0009
    8CHL1   H1A  563   1.281   3.526   5.784  0.0492 -0.7205 -1.9943
    8CHL1   H1B  564   1.107   3.548   5.822 -0.2800  0.3485 -1.6994
    8CHL1    C2  565   1.198   3.404   5.948  0.5586  0.6202 -0.4487
    8CHL1   H2A  566   1.207   3.484   6.024 -2.9966 -0.1045  0.9035
    8CHL1   H2B  567   1.279   3.327   5.949 -1.2837 -1.4134 -1.1521
    8CHL1   C20  568   1.142   3.590   5.002 -0.1566  0.2695  0.6342
    8CHL1   H20  569   1.174   3.492   4.961 -3.0003  0.2051 -1.7263
    8CHL1   C21  570   1.254   3.690   5.026 -0.7008 -0.3682  0.0071
    8CHL1  H21A  571   1.290   3.743   4.935  0.7989  0.4075  1.0044
    8CHL1  H21B  572   1.336   3.631   5.073 -1.0363  0.2264  1.3940
    8CHL1  H21C  573   1.218   3.763   5.102  1.4662 -1.7810  2.5872
    8CHL1   C22  574   1.053   3.639   4.887  0.1406 -0.0881 -0.2213
    8CHL1  H22A  575   0.976   3.562   4.867  0.8819 -0.8591 -0.1582
    8CHL1  H22B  576   1.012   3.735   4.926  0.2975  0.6383 -1.7378
    8CHL1   C23  577   1.124   3.670   4.755 -0.1060 -0.5452  0.9279
    8CHL1  H23A  578   1.170   3.771   4.754  0.9389 -1.0030  1.6099
    8CHL1  H23B  579   1.204   3.596   4.732 -0.7705 -0.4829 -2.0240
    8CHL1   C24  580   1.023   3.674   4.639  0.6543 -0.4128 -0.0111
    8CHL1  H24A  581   0.958   3.584   4.645 -0.4826  0.3994  0.1810
    8CHL1  H24B  582   0.960   3.763   4.660 -0.7926 -1.2761 -0.5690
    8CHL1   C25  583   1.096   3.690   4.502  0.2627  0.0315 -0.4657
    8CHL1   H25  584   1.185   3.756   4.503  0.2743  0.0134 -0.0382
    8CHL1   C26  585   1.141   3.556   4.439  0.6544  0.2614 -0.8541
    8CHL1  H26A  586   1.248   3.529   4.453  0.6113  0.9369  1.0980
    8CHL1  H26B  587   1.068   3.478   4.472  0.4548  1.2960  1.3348
    8CHL1  H26C  588   1.130   3.559   4.329  0.4182 -2.7620 -1.0150
    8CHL1   C27  589   0.998   3.770   4.413  0.4268  0.3865 -0.1364
    8CHL1  H27A  590   0.907   3.708   4.404  0.6581 -0.0373  0.4006
    8CHL1  H27B  591   0.969   3.864   4.466 -0.7256 -0.6946  1.2268
    8CHL1  H27C  592   1.036   3.772   4.309 -1.0279 -2.1175 -0.7894
    9CHL1    C3  593   4.634   2.970   5.984 -0.4372 -0.2779  0.1712
    9CHL1    H3  594   4.603   2.864   5.972 -0.5837 -0.3903  1.4099
    9CHL1    O3  595   4.608   3.007   6.119  0.2532 -0.5695  0.1403
    9CHL1   H3'  596   4.605   3.103   6.117 -0.0250 -0.5740  0.2997
    9CHL1    C4  597   4.784   2.989   5.948 -0.0667 -0.1223 -0.1027
    9CHL1   H4A  598   4.796   3.092   5.987 -0.1919 -1.1359  2.8238
    9CHL1   H4B  599   4.839   2.920   6.015 -1.2151 -0.3323  0.6583
    9CHL1    C5  600   4.791   2.964   5.795 -0.1715  0.2365 -0.2175
    9CHL1    C6  601   4.887   2.881   5.749  0.6742 -0.0236 -0.2394
    9CHL1    H6  602   4.953   2.838   5.826 -0.5679 -0.1386  0.7798
    9CHL1    C7  603   4.921   2.846   5.605  0.3007 -0.1730 -0.2377
    9CHL1   H7A  604   5.029   2.852   5.579 -0.1904 -2.2809 -3.2428
    9CHL1   H7B  605   4.892   2.739   5.597 -0.8990  0.0775  0.4577
    9CHL1    C8  606   4.840   2.930   5.505  0.4607 -0.3639 -0.0242
    9CHL1    H8  607   4.900   3.023   5.495  0.0296 -0.1273 -0.5348
    9CHL1   C14  608   4.831   2.862   5.368  0.3226 -0.2511  0.0772
    9CHL1   H14  609   4.753   2.784   5.378 -0.1168  0.2215  0.3538
    9CHL1   C15  610   4.958   2.790   5.313 -0.2331  0.3261 -0.6476
    9CHL1  H15A  611   5.040   2.860   5.338  0.1264 -0.3666  0.1636
    9CHL1  H15B  612   4.976   2.692   5.362  0.7128  0.1437 -1.3289
    9CHL1   C16  613   4.938   2.790   5.162  0.8118  0.6457  0.2852
    9CHL1  H16A  614   5.016   2.854   5.116  0.1247  2.3037  1.2767
    9CHL1  H16B  615   4.936   2.686   5.124  2.0270  0.9271 -0.5793
    9CHL1   C17  616   4.794   2.857   5.138 -0.3209 -0.9651 -0.3905
    9CHL1   H17  617   4.729   2.771   5.163  0.0565 -0.7830  1.3702
    9CHL1   C13  618   4.771   2.951   5.258  0.4734  0.3300 -0.4501
    9CHL1   C18  619   4.846   3.087   5.238 -0.2599 -1.1281  0.6842
    9CHL1  H18A  620   4.832   3.152   5.327  2.7157 -1.1977  1.2990
    9CHL1  H18B  621   4.954   3.075   5.217 -0.4640 -1.6804 -0.0847
    9CHL1  H18C  622   4.801   3.143   5.153  2.0760  0.7665  0.5883
    9CHL1   C12  623   4.627   2.977   5.295  0.5698  0.0325 -0.7055
    9CHL1  H12A  624   4.594   3.054   5.222  0.9659 -0.9096 -1.9296
    9CHL1  H12B  625   4.557   2.891   5.284 -1.7652  1.8061 -0.3050
    9CHL1   C11  626   4.615   3.035   5.439 -0.1683  0.3869  0.3754
    9CHL1  H11A  627   4.654   3.139   5.443 -1.2769  0.7879  2.3009
    9CHL1  H11B  628   4.504   3.044   5.447 -0.1645 -0.3909  1.5856
    9CHL1    C9  629   4.697   2.955   5.549  0.1263 -0.1954  0.4110
    9CHL1    H9  630   4.641   2.861   5.567 -2.5219  1.1998 -0.0235
    9CHL1   C10  631   4.689   3.021   5.691 -0.4370  0.6803 -0.6180
    9CHL1   C19  632   4.728   3.171   5.675 -0.1074  0.7347  0.4345
    9CHL1  H19A  633   4.650   3.237   5.632 -0.6805 -0.0536  0.2196
    9CHL1  H19B  634   4.743   3.212   5.777 -0.0583  1.0741  0.2898
    9CHL1  H19C  635   4.821   3.183   5.615 -0.0265 -0.0591  0.3860
    9CHL1    C1  636   4.546   3.003   5.749  0.3045 -0.0663 -0.6182
    9CHL1   H1A  637   4.468   3.046   5.684 -1.5072 -0.6824  1.0484
    9CHL1   H1B  638   4.514   2.898   5.733  2.8033 -0.6993 -2.0111
    9CHL1    C2  639   4.536   3.053   5.892 -0.1241  0.5089  0.5556
    9CHL1   H2A  640   4.433   3.034   5.928  0.0399 -1.3649  0.1339
    9CHL1   H2B  641   4.556   3.162   5.892  2.0931  0.1635  0.0709
    9CHL1   C20  642   4.775   2.903   4.989  0.7846  0.0259  0.3283
    9CHL1   H20  643   4.854   2.978   4.966  0.0127  1.0854  1.0748
    9CHL1   C21  644   4.638   2.959   4.969 -0.7624 -0.3512  0.5018
    9CHL1  H21A  645   4.568   2.881   5.005 -0.6022 -1.1029 -0.7379
    9CHL1  H21B  646   4.614   2.990   4.865  0.1510 -1.3999 -0.0514
    9CHL1  H21C  647   4.621   3.051   5.029 -2.2629  0.0140 -0.4416
    9CHL1   C22  648   4.781   2.783   4.885 -0.1126  0.2176  0.2980
    9CHL1  H22A  649   4.871   2.722   4.907 -1.6440 -1.3527  2.7763
    9CHL1  H22B  650   4.686   2.725   4.895  0.3642 -0.8165 -0.9024
    9CHL1   C23  651   4.801   2.825   4.743  0.1035  0.0567 -0.5813
    9CHL1  H23A  652   4.699   2.848   4.705 -1.7821 -0.7958  3.3675
    9CHL1  H23B  653   4.873   2.905   4.719  0.3602  0.0562  0.1785
    9CHL1   C24  654   4.852   2.709   4.644 -0.7985 -0.2714 -0.0516
    9CHL1  H24A  655   4.947   2.666   4.681  0.3580  1.0349 -1.4032
    9CHL1  H24B  656   4.774   2.636   4.614  0.3307 -0.4666 -2.7077
    9CHL1   C25  657   4.894   2.766   4.506  0.4758 -0.0997 -0.0053
    9CHL1   H25  658   4.938   2.864   4.534  0.1356  0.1800 -0.4468
    9CHL1   C26  659   4.992   2.681   4.431  0.2026 -0.0922  0.3452
    9CHL1  H26A  660   4.941   2.591   4.391  0.8932  0.4773 -1.9789
    9CHL1  H26B  661   5.030   2.733   4.340 -3.4177  1.1034 -0.6544
    9CHL1  H26C  662   5.073   2.635   4.491 -0.0718 -1.2671 -0.1591
    9CHL1   C27  663   4.772   2.794   4.420  0.4408  0.5297  0.8261
    9CHL1  H27A  664   4.700   2.845   4.488 -0.1587 -0.6781  1.1235
    9CHL1  H27B  665   4.810   2.851   4.332  2.8184 -0.5860  1.0563
    9CHL1  H27C  666   4.729   2.700   4.379  1.0493 -0.0953  1.5922
   10CHL1    C3  667   4.944   4.239   6.312 -0.2657 -0.6806  0.3133
   10CHL1    H3  668   4.858   4.171   6.327 -1.1595  0.7510  1.9765
   10CHL1    O3  669   4.995   4.283   6.436 -0.6428  0.1378 -0.1348
   10CHL1   H3'  670   5.081   4.319   6.413  0.6208 -1.1928  2.1709
   10CHL1    C4  671   5.050   4.159   6.234 -1.1056  0.2206 -0.8038
   10CHL1   H4A  672   5.153   4.200   6.231 -1.2761  0.6993 -0.2987
   10CHL1   H4B  673   5.051   4.063   6.291  0.7051  0.6037 -0.1215
   10CHL1    C5  674   5.019   4.123   6.097  0.4314  0.0168  0.3066
   10CHL1    C6  675   5.021   4.001   6.036  0.1008  0.0617  0.0240
   10CHL1    H6  676   5.064   3.916   6.092 -0.4432 -1.0319 -1.1529
   10CHL1    C7  677   5.004   3.965   5.893  0.3797 -0.5125 -0.5507
   10CHL1   H7A  678   5.090   3.901   5.864  1.0395 -0.1573  0.5485
   10CHL1   H7B  679   4.911   3.907   5.876  0.4160 -0.4012 -1.1327
   10CHL1    C8  680   4.999   4.087   5.807  0.0063 -0.7007 -0.0601
   10CHL1    H8  681   5.102   4.120   5.784 -0.9350  0.6001 -3.0508
   10CHL1   C14  682   4.946   4.049   5.667  0.5941  0.4107  0.8060
   10CHL1   H14  683   4.841   4.013   5.665  1.5251 -2.5672 -0.5906
   10CHL1   C15  684   5.012   3.926   5.601  0.0192  0.1382  0.1278
   10CHL1  H15A  685   5.122   3.914   5.614  0.0391  1.0437  0.8762
   10CHL1  H15B  686   4.954   3.841   5.644 -0.4536  0.7022  0.6151
   10CHL1   C16  687   4.962   3.944   5.457  0.2759  0.5575  0.3193
   10CHL1  H16A  688   5.043   3.952   5.381 -1.2336 -0.1736 -1.4341
   10CHL1  H16B  689   4.892   3.864   5.428  0.7063  0.2274  0.1817
   10CHL1   C17  690   4.884   4.086   5.454  0.6526 -0.5224  0.2976
   10CHL1   H17  691   4.777   4.061   5.467  0.8474 -1.4065  0.3302
   10CHL1   C13  692   4.940   4.166   5.567  0.3512  0.4802  0.0738
   10CHL1   C18  693   5.086   4.221   5.545  0.0542  0.7522 -0.9028
   10CHL1  H18A  694   5.084   4.301   5.468  0.7383  1.6412 -0.0205
   10CHL1  H18B  695   5.119   4.263   5.643 -2.0114 -1.0916  0.6941
   10CHL1  H18C  696   5.152   4.140   5.506  1.1867  0.4304  1.4445
   10CHL1   C12  697   4.848   4.269   5.637  0.3633 -0.0941 -0.2615
   10CHL1  H12A  698   4.820   4.354   5.571  1.8813 -1.1784 -2.4476
   10CHL1  H12B  699   4.753   4.213   5.649 -1.1324  2.0439 -1.5320
   10CHL1   C11  700   4.889   4.311   5.775  0.2500  0.0336  0.0008
   10CHL1  H11A  701   4.973   4.382   5.759 -0.7993  1.2785 -0.1557
   10CHL1  H11B  702   4.802   4.372   5.808 -0.0706 -0.6329  0.4008
   10CHL1    C9  703   4.914   4.200   5.871  0.0802  0.5802  0.2098
   10CHL1    H9  704   4.819   4.147   5.896  0.7232 -0.9996 -0.6058
   10CHL1   C10  705   4.976   4.246   6.006 -0.9456 -0.3459  0.9666
   10CHL1   C19  706   5.103   4.340   5.984  0.0844 -0.7479  0.2720
   10CHL1  H19A  707   5.065   4.423   5.921  1.1548 -2.1109 -2.3231
   10CHL1  H19B  708   5.127   4.377   6.086 -1.0480  0.4121  0.1424
   10CHL1  H19C  709   5.184   4.289   5.926  0.4316  0.6773 -0.5421
   10CHL1    C1  710   4.873   4.329   6.085 -0.4692  0.1339  0.1519
   10CHL1   H1A  711   4.854   4.420   6.024  2.7957  0.6027 -0.3139
   10CHL1   H1B  712   4.781   4.266   6.092  0.8985 -1.9383  0.4625
   10CHL1    C2  713   4.906   4.362   6.231  0.8316 -0.2883 -0.4175
   10CHL1   H2A  714   4.826   4.416   6.286 -0.0686  0.0427 -1.9948
   10CHL1   H2B  715   4.993   4.432   6.231  1.8041 -1.4555 -1.1412
   10CHL1   C20  716   4.882   4.145   5.313  0.0385  0.1297 -0.0743
   10CHL1   H20  717   4.988   4.163   5.286  0.1886 -0.9773 -0.2495
   10CHL1   C21  718   4.814   4.279   5.295 -0.2323 -0.0353 -0.6276
   10CHL1  H21A  719   4.710   4.277   5.335 -0.3935  2.5112 -0.8066
   10CHL1  H21B  720   4.802   4.305   5.188 -1.0655 -2.9255 -1.3404
   10CHL1  H21C  721   4.868   4.362   5.345 -0.6749 -0.3443  0.4130
   10CHL1   C22  722   4.815   4.042   5.215  0.3707  0.4786  0.1619
   10CHL1  H22A  723   4.828   3.933   5.234  0.2533  0.6666  1.4473
   10CHL1  H22B  724   4.704   4.048   5.216  0.2729  0.0588 -2.1531
   10CHL1   C23  725   4.863   4.073   5.063 -0.0649 -0.1057 -1.2606
   10CHL1  H23A  726   4.811   4.169   5.042  2.0537  1.4311  0.0543
   10CHL1  H23B  727   4.974   4.081   5.069  0.0245 -1.7491  0.9550
   10CHL1   C24  728   4.812   3.970   4.977 -0.5409  0.1202  0.1319
   10CHL1  H24A  729   4.856   3.868   4.990 -1.8371 -0.4853 -0.0425
   10CHL1  H24B  730   4.703   3.954   4.987 -1.0204  0.1275 -3.7112
   10CHL1   C25  731   4.822   3.995   4.820  0.7506  0.4823 -0.4932
   10CHL1   H25  732   4.929   3.993   4.790  0.5683 -0.8217 -1.1520
   10CHL1   C26  733   4.747   3.891   4.732 -0.0675 -0.2392 -0.0406
   10CHL1  H26A  734   4.647   3.865   4.771 -0.8356  1.6542 -0.6559
   10CHL1  H26B  735   4.735   3.935   4.631  1.1687  0.5895  0.1520
   10CHL1  H26C  736   4.812   3.801   4.727  0.6914  0.1827  1.4416
   10CHL1   C27  737   4.754   4.128   4.793  0.2883 -0.2314  0.4271
   10CHL1  H27A  738   4.816   4.212   4.832  1.1693 -0.2159 -0.9584
   10CHL1  H27B  739   4.749   4.150   4.684 -2.8976 -2.6231 -0.0656
   10CHL1  H27C  740   4.648   4.126   4.826 -0.4046  2.0612 -1.3433
   11CHL1    C3  741   1.647   1.776   5.945  0.4106  0.1529 -0.5656
   11CHL1    H3  742   1.680   1.882   5.940  0.1115  0.4985  2.6313
   11CHL1    O3  743   1.646   1.729   6.079  0.0139  0.1941  0.0811
   11CHL1   H3'  744   1.615   1.638   6.070 -1.0576  0.4781  0.6274
   11CHL1    C4  745   1.502   1.752   5.893  0.3623  0.1144  0.1139
   11CHL1   H4A  746   1.477   1.654   5.937  0.2067 -0.2051 -0.6679
   11CHL1   H4B  747   1.425   1.824   5.927 -0.3143 -0.5511  0.0201
   11CHL1    C5  748   1.495   1.759   5.743  0.1404  0.1461  0.1919
   11CHL1    C6  749   1.395   1.831   5.689 -0.4289 -0.0401 -0.6283
   11CHL1    H6  750   1.324   1.880   5.756 -2.8753 -0.6636 -2.6041
   11CHL1    C7  751   1.383   1.851   5.546  0.2117 -0.5432  0.4092
   11CHL1   H7A  752   1.278   1.848   5.509  0.6597 -4.7114 -1.0682
   11CHL1   H7B  753   1.426   1.950   5.522  3.3564 -1.1179  2.9109
   11CHL1    C8  754   1.458   1.745   5.464 -0.4296  0.1574  0.3519
   11CHL1    H8  755   1.398   1.651   5.468  0.0965 -0.1416  1.3442
   11CHL1   C14  756   1.474   1.797   5.323 -0.0745 -0.2080 -0.0122
   11CHL1   H14  757   1.544   1.883   5.326  0.6568 -0.6375 -2.3036
   11CHL1   C15  758   1.346   1.834   5.255 -0.6760 -0.5974 -0.8210
   11CHL1  H15A  759   1.268   1.760   5.285  0.0225 -0.3145  1.9548
   11CHL1  H15B  760   1.305   1.930   5.292 -1.3447 -0.8701 -0.8323
   11CHL1   C16  761   1.388   1.828   5.107 -0.6919  0.3854 -0.3799
   11CHL1  H16A  762   1.315   1.759   5.059 -2.2901  0.4977  1.7430
   11CHL1  H16B  763   1.361   1.931   5.075 -1.5522  0.0936 -0.6197
   11CHL1   C17  764   1.532   1.773   5.101  0.4374 -1.0339 -0.0134
   11CHL1   H17  765   1.594   1.864   5.110  0.3068 -0.8409 -1.0336
   11CHL1   C13  766   1.550   1.693   5.231 -0.5074 -0.4750 -0.1215
   11CHL1   C18  767   1.492   1.554   5.220 -0.4641 -0.1530  0.4559
   11CHL1  H18A  768   1.389   1.571   5.182 -0.3239  2.4106  1.0491
   11CHL1  H18B  769   1.555   1.487   5.158 -1.5791 -0.4862 -0.3541
   11CHL1  H18C  770   1.489   1.504   5.319  2.8825  0.3347  0.9311
   11CHL1   C12  771   1.696   1.685   5.280 -0.1643 -0.0968  0.0603
   11CHL1  H12A  772   1.756   1.606   5.230  2.9658  1.6359  0.8212
   11CHL1  H12B  773   1.761   1.774   5.280 -1.3696  0.8341  1.2952
   11CHL1   C11  774   1.703   1.651   5.431 -0.2291 -0.2060 -0.0877
   11CHL1  H11A  775   1.678   1.542   5.431  0.0789 -0.2759  0.3548
   11CHL1  H11B  776   1.803   1.663   5.477 -0.6426  1.5061  0.4256
   11CHL1    C9  777   1.602   1.731   5.518 -0.0932  0.0868  0.3068
   11CHL1    H9  778   1.640   1.835   5.525 -1.0684  0.4249  0.8314
   11CHL1   C10  779   1.604   1.691   5.670 -1.0808  0.2746  0.2377
   11CHL1   C19  780   1.576   1.537   5.685  0.6942 -0.4746  0.4665
   11CHL1  H19A  781   1.583   1.501   5.790 -1.0630  1.8691  1.4613
   11CHL1  H19B  782   1.477   1.509   5.643 -0.8483 -1.8006  4.5301
   11CHL1  H19C  783   1.652   1.485   5.622  1.9647  1.3402  0.4015
   11CHL1    C1  784   1.746   1.725   5.725 -0.9467  0.3274  0.1331
   11CHL1   H1A  785   1.827   1.662   5.681 -0.3890  0.9108  0.3027
   11CHL1   H1B  786   1.761   1.833   5.703 -1.4546 -0.2122 -3.3642
   11CHL1    C2  787   1.755   1.697   5.876 -0.5021 -0.0357  0.0934
   11CHL1   H2A  788   1.852   1.743   5.906 -0.2571 -0.7425  0.4117
   11CHL1   H2B  789   1.749   1.587   5.891 -1.6727 -0.1129 -0.7876
   11CHL1   C20  790   1.574   1.710   4.970 -0.2903  0.1483  0.1596
   11CHL1   H20  791   1.537   1.605   4.965 -0.1818  0.1749 -1.9913
   11CHL1   C21  792   1.724   1.712   4.964 -0.2215  0.2853  0.2324
   11CHL1  H21A  793   1.761   1.805   5.012  1.8514  0.3359 -1.3003
   11CHL1  H21B  794   1.761   1.728   4.860 -2.7620  3.6911 -0.3094
   11CHL1  H21C  795   1.776   1.618   4.994  0.3995  0.3918 -0.4505
   11CHL1   C22  796   1.516   1.783   4.838 -0.5732 -0.2174 -0.5847
   11CHL1  H22A  797   1.406   1.799   4.838 -0.4541  0.6378 -0.4883
   11CHL1  H22B  798   1.563   1.884   4.838  2.3008 -1.4279 -2.5582
   11CHL1   C23  799   1.538   1.695   4.715  0.2045 -0.6409  0.3109
   11CHL1  H23A  800   1.641   1.655   4.699  0.8628 -0.3724  3.3421
   11CHL1  H23B  801   1.465   1.612   4.725  0.0273 -0.3742  1.3172
   11CHL1   C24  802   1.500   1.766   4.580 -0.0462 -0.3397  0.2538
   11CHL1  H24A  803   1.484   1.680   4.512 -0.9724 -1.8759  2.3126
   11CHL1  H24B  804   1.407   1.826   4.587  0.7666  0.9523  0.3482
   11CHL1   C25  805   1.611   1.850   4.516 -0.4079 -0.6073 -0.6264
   11CHL1   H25  806   1.654   1.909   4.600  0.8271 -0.5258 -1.3022
   11CHL1   C26  807   1.722   1.767   4.451 -0.5343 -0.2996 -0.1316
   11CHL1  H26A  808   1.686   1.688   4.382 -0.6943  2.5976 -3.7089
   11CHL1  H26B  809   1.795   1.829   4.393  0.8599 -1.5693  0.2120
   11CHL1  H26C  810   1.769   1.717   4.538 -1.2270  1.2029  1.1488
   11CHL1   C27  811   1.536   1.942   4.417  0.0319 -0.2145  0.7681
   11CHL1  H27A  812   1.481   1.864   4.358  1.3350 -0.3797 -0.2586
   11CHL1  H27B  813   1.458   2.006   4.463  0.4340  1.9372 -1.3919
   11CHL1  H27C  814   1.593   1.996   4.339 -2.1212 -1.9256 -2.2203
   12CHL1    C3  815   3.520   1.655   5.912  0.9855  0.1839 -0.4435
   12CHL1    H3  816   3.415   1.692   5.918  1.0279  0.2658 -0.1794
   12CHL1    O3  817   3.580   1.688   6.035  0.2310  0.1325 -0.0303
   12CHL1   H3'  818   3.565   1.616   6.097 -1.1136  0.0097 -0.4702
   12CHL1    C4  819   3.538   1.506   5.885 -0.3946  0.0598 -0.6296
   12CHL1   H4A  820   3.636   1.456   5.896 -1.8981 -3.0630 -0.4542
   12CHL1   H4B  821   3.471   1.455   5.957  0.1842 -0.1843 -0.2594
   12CHL1    C5  822   3.496   1.464   5.741 -0.7606  0.9112  0.5043
   12CHL1    C6  823   3.405   1.369   5.716  0.2979  0.2197 -0.5980
   12CHL1    H6  824   3.358   1.325   5.805 -0.0545  2.8537  0.6129
   12CHL1    C7  825   3.357   1.331   5.578 -0.0904  0.1050 -0.6260
   12CHL1   H7A  826   3.359   1.221   5.567 -1.9557  0.1958 -2.5500
   12CHL1   H7B  827   3.252   1.361   5.556 -0.2416 -0.7194 -1.0469
   12CHL1    C8  828   3.450   1.386   5.467 -0.2008  0.5141  0.1923
   12CHL1    H8  829   3.539   1.321   5.449  0.6203  1.8121 -0.5781
   12CHL1   C14  830   3.363   1.383   5.343 -0.5613 -0.1051  0.4810
   12CHL1   H14  831   3.273   1.445   5.361  0.3251  1.3244  0.1718
   12CHL1   C15  832   3.307   1.247   5.306  0.7633 -0.4718  0.6285
   12CHL1  H15A  833   3.389   1.175   5.330 -0.0711 -1.6839 -0.0762
   12CHL1  H15B  834   3.221   1.215   5.368  1.7177  0.5108  2.5856
   12CHL1   C16  835   3.259   1.270   5.159 -0.8314  0.0133  0.5059
   12CHL1  H16A  836   3.293   1.189   5.091 -1.0020 -0.7883  1.3578
   12CHL1  H16B  837   3.149   1.273   5.149 -0.6577  0.4818 -2.1831
   12CHL1   C17  838   3.318   1.415   5.116  0.0349 -0.0963 -0.2811
   12CHL1   H17  839   3.241   1.491   5.136  1.0930  1.0775 -0.5367
   12CHL1   C13  840   3.431   1.439   5.215  0.6268  0.1738  0.0785
   12CHL1   C18  841   3.555   1.349   5.189 -0.7371 -0.3481  0.3474
   12CHL1  H18A  842   3.608   1.382   5.097 -2.1091  2.1604  0.3476
   12CHL1  H18B  843   3.629   1.363   5.271 -1.0337 -1.4681  0.8268
   12CHL1  H18C  844   3.533   1.241   5.196  1.0101 -0.6995  0.9980
   12CHL1   C12  845   3.481   1.579   5.250 -0.2596 -0.4042  0.1106
   12CHL1  H12A  846   3.539   1.625   5.167 -0.5406 -0.1906  0.0301
   12CHL1  H12B  847   3.396   1.649   5.268  1.1764  1.0781  1.5217
   12CHL1   C11  848   3.567   1.590   5.378  0.1404 -0.2473  0.2452
   12CHL1  H11A  849   3.662   1.534   5.361 -1.3895 -2.9095 -0.0958
   12CHL1  H11B  850   3.577   1.700   5.384 -1.8993 -0.0732  1.2092
   12CHL1    C9  851   3.491   1.524   5.497  0.0724  0.0722 -0.0974
   12CHL1    H9  852   3.393   1.577   5.502  0.0697  0.4410 -2.5770
   12CHL1   C10  853   3.563   1.554   5.637  0.1683 -0.3938  0.7330
   12CHL1   C19  854   3.708   1.514   5.627  0.1784 -0.4058 -0.5998
   12CHL1  H19A  855   3.750   1.583   5.551 -2.0994  0.0764 -1.5163
   12CHL1  H19B  856   3.759   1.542   5.721 -0.8976 -4.3068  1.3475
   12CHL1  H19C  857   3.716   1.406   5.600 -0.3415 -0.7080  0.4245
   12CHL1    C1  858   3.553   1.705   5.660  0.2574 -0.1247  0.5350
   12CHL1   H1A  859   3.605   1.769   5.585  1.7046 -1.2624  0.5159
   12CHL1   H1B  860   3.447   1.737   5.657  0.3927  0.3575  0.6496
   12CHL1    C2  861   3.601   1.738   5.805  0.5631  0.0454 -0.0500
   12CHL1   H2A  862   3.582   1.845   5.825  3.2316  0.8152 -1.1234
   12CHL1   H2B  863   3.708   1.710   5.821  1.3646  1.8685 -1.8160
   12CHL1   C20  864   3.357   1.413   4.967 -0.6202  0.2516 -0.6962
   12CHL1   H20  865   3.417   1.323   4.944  1.5945  2.0084 -2.2676
   12CHL1   C21  866   3.438   1.535   4.918 -0.4351 -0.6143 -0.3548
   12CHL1  H21A  867   3.444   1.548   4.807  0.9163 -1.5886 -0.4191
   12CHL1  H21B  868   3.539   1.529   4.963 -0.9401  2.7192  1.5650
   12CHL1  H21C  869   3.374   1.619   4.952  0.0086  0.1628 -1.3779
   12CHL1   C22  870   3.226   1.402   4.883  0.4705 -0.6218 -0.3455
   12CHL1  H22A  871   3.150   1.344   4.940  0.4419  0.7925  1.1130
   12CHL1  H22B  872   3.191   1.507   4.874 -0.9214 -1.0510 -0.1858
   12CHL1   C23  873   3.242   1.346   4.744  0.7014 -0.2880  0.3015
   12CHL1  H23A  874   3.316   1.397   4.678  1.1038 -0.5621  0.5343
   12CHL1  H23B  875   3.273   1.240   4.754  0.9982 -0.4027 -1.4015
   12CHL1   C24  876   3.102   1.346   4.678  0.6324 -0.0200  0.0224
   12CHL1  H24A  877   3.037   1.305   4.758 -0.6288  2.6395  0.4721
   12CHL1  H24B  878   3.071   1.448   4.646 -0.3539  0.1578  1.4443
   12CHL1   C25  879   3.080   1.251   4.568  0.4148  0.2375 -0.2579
   12CHL1   H25  880   3.079   1.144   4.598 -1.1448  0.1486 -0.5455
   12CHL1   C26  881   2.942   1.281   4.515 -0.4438 -0.0554  0.5661
   12CHL1  H26A  882   2.942   1.378   4.461 -0.7424 -0.4659 -0.1885
   12CHL1  H26B  883   2.911   1.202   4.443 -0.3002  0.6476 -0.2844
   12CHL1  H26C  884   2.871   1.267   4.600 -1.6395 -2.1314 -0.6902
   12CHL1   C27  885   3.181   1.271   4.452  0.1772 -0.0476 -0.1649
   12CHL1  H27A  886   3.268   1.202   4.464 -2.0550 -2.8208  1.2614
   12CHL1  H27B  887   3.125   1.244   4.361 -0.5084  0.1853  0.1860
   12CHL1  H27C  888   3.214   1.377   4.450 -0.2174  0.0967  0.6939
   13CHL1    C3  889   2.887   1.578   6.016  0.1658 -0.4988 -0.1127
   13CHL1    H3  890   2.849   1.679   5.993  2.7792  0.7324  0.6053
   13CHL1    O3  891   2.895   1.571   6.158 -0.2273  0.0324  0.6373
   13CHL1   H3'  892   2.962   1.506   6.178  2.4931  2.9253  1.8411
   13CHL1    C4  893   2.774   1.478   5.966 -0.3800 -0.1570  0.4206
   13CHL1   H4A  894   2.815   1.377   5.988  0.7690 -0.3317 -2.1993
   13CHL1   H4B  895   2.678   1.478   6.022  0.1109 -0.0191  1.2809
   13CHL1    C5  896   2.756   1.482   5.817  0.5062 -0.5146  0.4932
   13CHL1    C6  897   2.631   1.503   5.766  0.2146 -0.4926  0.1970
   13CHL1    H6  898   2.547   1.518   5.835 -0.2649  0.0695 -0.4889
   13CHL1    C7  899   2.596   1.505   5.618 -0.2143  0.3245 -0.4899
   13CHL1   H7A  900   2.506   1.442   5.596  0.1460 -0.1394 -0.6559
   13CHL1   H7B  901   2.583   1.613   5.598 -0.2083  0.3447 -0.3815
   13CHL1    C8  902   2.709   1.451   5.532  0.4118  0.0595  0.0817
   13CHL1    H8  903   2.710   1.341   5.547  2.4178 -0.4679 -2.9483
   13CHL1   C14  904   2.677   1.500   5.389  0.2409 -0.3028 -0.6885
   13CHL1   H14  905   2.687   1.610   5.389 -1.0711 -0.1722 -0.5723
   13CHL1   C15  906   2.538   1.477   5.334  0.1678 -0.3033  0.1933
   13CHL1  H15A  907   2.486   1.387   5.372 -0.0351 -0.2742 -0.0130
   13CHL1  H15B  908   2.467   1.560   5.354 -0.9986 -1.4663  0.9844
   13CHL1   C16  909   2.552   1.485   5.184 -0.5101 -0.3289  0.2667
   13CHL1  H16A  910   2.503   1.395   5.141 -0.0915 -0.0501 -0.8246
   13CHL1  H16B  911   2.500   1.574   5.143  0.7593  1.3074  2.0120
   13CHL1   C17  912   2.706   1.492   5.148  0.3212 -0.6226  0.4417
   13CHL1   H17  913   2.741   1.596   5.130  1.1744 -1.0657 -0.5459
   13CHL1   C13  914   2.772   1.438   5.285  0.3895 -0.1512  0.7177
   13CHL1   C18  915   2.749   1.287   5.284  0.3961  0.2305 -0.9210
   13CHL1  H18A  916   2.642   1.260   5.272  0.1680  0.7751 -0.1651
   13CHL1  H18B  917   2.813   1.238   5.207  1.4204  2.9486 -1.9642
   13CHL1  H18C  918   2.785   1.255   5.384  1.1414  4.0494  0.1887
   13CHL1   C12  919   2.914   1.470   5.328  0.1075  0.1943  1.0781
   13CHL1  H12A  920   2.987   1.421   5.260 -2.3558 -0.9855 -0.8595
   13CHL1  H12B  921   2.930   1.578   5.308  1.6623 -0.1285  0.4640
   13CHL1   C11  922   2.951   1.440   5.478 -0.6625 -0.0925 -0.3473
   13CHL1  H11A  923   2.968   1.330   5.490 -1.7753 -0.0968  1.6597
   13CHL1  H11B  924   3.043   1.500   5.492 -0.9545  0.3162 -0.1703
   13CHL1    C9  925   2.851   1.490   5.579 -0.6861 -0.2421  0.3599
   13CHL1    H9  926   2.847   1.600   5.569 -0.2212 -0.1831  0.7730
   13CHL1   C10  927   2.885   1.467   5.730  0.0701 -0.5982  0.4281
   13CHL1   C19  928   2.943   1.322   5.732 -0.0989  0.4129 -0.3361
   13CHL1  H19A  929   3.040   1.311   5.680  1.4858 -1.6536  2.7295
   13CHL1  H19B  930   2.974   1.285   5.832  1.5532 -0.1115 -1.0008
   13CHL1  H19C  931   2.868   1.252   5.689  0.9599 -0.2358 -1.1755
   13CHL1    C1  932   2.992   1.569   5.781 -0.3724  0.4569 -0.7135
   13CHL1   H1A  933   3.094   1.559   5.738 -0.1951 -1.5902  0.0487
   13CHL1   H1B  934   2.946   1.668   5.761  0.3497  1.3734  1.7189
   13CHL1    C2  935   3.019   1.560   5.940  0.2333  0.5426  0.4112
   13CHL1   H2A  936   3.100   1.621   5.984  2.1833 -1.7651  0.2561
   13CHL1   H2B  937   3.041   1.453   5.962  1.8040  0.7816  0.0889
   13CHL1   C20  938   2.733   1.423   5.007 -0.1039 -0.1969  0.1004
   13CHL1   H20  939   2.691   1.320   5.008  0.1802 -0.4549 -3.0573
   13CHL1   C21  940   2.884   1.411   4.977  0.2516 -0.3406  0.8462
   13CHL1  H21A  941   2.939   1.358   5.058  3.4587 -1.7810 -2.0225
   13CHL1  H21B  942   2.942   1.506   4.970  0.1590 -0.2482  1.2984
   13CHL1  H21C  943   2.895   1.353   4.883  1.9919  0.1028  0.7364
   13CHL1   C22  944   2.646   1.498   4.899 -0.1721  0.1428  0.2441
   13CHL1  H22A  945   2.540   1.501   4.933  0.1879 -2.3867  1.8143
   13CHL1  H22B  946   2.687   1.601   4.884  0.9487 -0.4384 -0.9057
   13CHL1   C23  947   2.637   1.438   4.761  0.1078  0.5858 -0.8861
   13CHL1  H23A  948   2.736   1.429   4.711  1.8514  3.4729  1.6319
   13CHL1  H23B  949   2.609   1.332   4.776 -1.0104  1.1173  1.1179
   13CHL1   C24  950   2.536   1.512   4.674  0.1842  0.3322 -0.1248
   13CHL1  H24A  951   2.433   1.523   4.715 -0.5961 -0.0360 -1.8839
   13CHL1  H24B  952   2.570   1.617   4.675 -1.9897  1.0778  0.4874
   13CHL1   C25  953   2.521   1.463   4.528 -0.0218  0.1666  0.4022
   13CHL1   H25  954   2.621   1.454   4.480 -0.2642 -1.4668  0.1593
   13CHL1   C26  955   2.459   1.324   4.523 -0.4262  0.1791 -0.1689
   13CHL1  H26A  956   2.371   1.311   4.590  0.7351 -2.7816  0.9367
   13CHL1  H26B  957   2.436   1.282   4.422 -0.5398 -0.9485  0.3120
   13CHL1  H26C  958   2.535   1.262   4.575  0.2004  2.0473  1.2101
   13CHL1   C27  959   2.441   1.577   4.454 -0.2251  0.7241 -0.1331
   13CHL1  H27A  960   2.508   1.665   4.437  2.7563 -1.4199 -0.4064
   13CHL1  H27B  961   2.392   1.532   4.365 -0.0641 -1.9300  1.0075
   13CHL1  H27C  962   2.356   1.603   4.520  0.1810  2.8209 -0.3639
   14CHL1    C3  963   2.004   5.522   6.001 -0.0283 -0.5631 -0.8154
   14CHL1    H3  964   1.935   5.441   5.969 -0.4194 -0.8889  0.7404
   14CHL1    O3  965   2.019   5.531   6.144  0.0229  0.2551  0.0579
   14CHL1   H3'  966   1.950   5.472   6.175  0.0016  0.0406 -0.3814
   14CHL1    C4  967   2.141   5.494   5.932  0.3670 -0.3525 -0.2484
   14CHL1   H4A  968   2.210   5.555   5.994 -1.7315 -0.5514  2.4731
   14CHL1   H4B  969   2.172   5.391   5.957 -1.2787 -0.9195 -0.4241
   14CHL1    C5  970   2.152   5.519   5.784 -0.1511  0.1837  0.2882
   14CHL1    C6  971   2.200   5.425   5.700 -0.2094  0.6473  0.1115
   14CHL1    H6  972   2.244   5.329   5.732 -0.1019  0.5500 -0.3302
   14CHL1    C7  973   2.209   5.453   5.550  0.5211  0.1297 -0.2551
   14CHL1   H7A  974   2.307   5.412   5.515  0.8819 -2.2720  3.0640
   14CHL1   H7B  975   2.137   5.394   5.490  0.9078 -2.1974  1.4432
   14CHL1    C8  976   2.201   5.599   5.513 -0.8289 -0.2702 -0.1529
   14CHL1    H8  977   2.291   5.649   5.554 -1.4297  0.1813  0.6295
   14CHL1   C14  978   2.186   5.612   5.369 -0.0063  0.9507 -0.2223
   14CHL1   H14  979   2.092   5.557   5.345 -0.1444 -1.2353  4.3005
   14CHL1   C15  980   2.298   5.549   5.281  0.3812  0.7418  0.9964
   14CHL1  H15A  981   2.396   5.570   5.330  0.3092  0.3172  1.3213
   14CHL1  H15B  982   2.279   5.441   5.267 -1.0484  1.2684 -1.7794
   14CHL1   C16  983   2.284   5.633   5.144  0.0211 -0.7739 -0.2969
   14CHL1  H16A  984   2.378   5.687   5.119 -1.1464  2.3058  1.4168
   14CHL1  H16B  985   2.271   5.559   5.062 -0.2535 -1.4741  0.3612
   14CHL1   C17  986   2.158   5.727   5.160 -0.1175 -0.0635 -0.5887
   14CHL1   H17  987   2.070   5.674   5.118 -0.8446 -1.3550  2.3049
   14CHL1   C13  988   2.144   5.752   5.317 -0.4304  0.3788 -0.1953
   14CHL1   C18  989   2.260   5.849   5.366 -0.5283  0.3535  0.0494
   14CHL1  H18A  990   2.230   5.952   5.338 -1.2540  0.1090 -0.0762
   14CHL1  H18B  991   2.270   5.845   5.477 -1.7731  0.9507  0.1988
   14CHL1  H18C  992   2.357   5.821   5.320 -0.3019  3.6226 -1.7181
   14CHL1   C12  993   2.005   5.784   5.376 -0.4240  0.2236  0.5858
   14CHL1  H12A  994   1.960   5.879   5.340  0.1275  0.7382  1.2245
   14CHL1  H12B  995   1.939   5.699   5.349  1.2769 -0.6274 -1.1141
   14CHL1   C11  996   2.012   5.792   5.534 -0.2760 -0.6114 -0.6978
   14CHL1  H11A  997   2.076   5.876   5.569 -0.3182 -1.3485  1.2743
   14CHL1  H11B  998   1.911   5.811   5.577  0.9915  0.6702  1.9520
   14CHL1    C9  999   2.073   5.654   5.582  0.1165 -0.2487 -0.3337
   14CHL1    H9 1000   1.992   5.582   5.558  0.5970 -1.8737  2.5507
   14CHL1   C10 1001   2.090   5.648   5.736  0.7493 -0.3158 -0.9161
   14CHL1   C19 1002   2.176   5.770   5.774  0.0267 -0.1825  0.0242
   14CHL1  H19A 1003   2.223   5.764   5.874 -0.2489 -2.0905  0.0760
   14CHL1  H19B 1004   2.253   5.796   5.698 -1.5474  0.9530 -1.2574
   14CHL1  H19C 1005   2.115   5.862   5.766  0.2966 -0.0346 -0.3929
   14CHL1    C1 1006   1.947   5.662   5.797 -0.0457  0.0067  0.1616
   14CHL1   H1A 1007   1.908   5.761   5.768  0.1601  0.1142  0.2502
   14CHL1   H1B 1008   1.880   5.589   5.747  2.1033 -1.0302 -1.4200
   14CHL1    C2 1009   1.944   5.653   5.947  0.1025  0.2769  0.4007
   14CHL1   H2A 1010   1.840   5.670   5.984  0.4754 -0.1089  1.6611
   14CHL1   H2B 1011   1.998   5.739   5.990  0.8598 -0.7085  1.4777
   14CHL1   C20 1012   2.162   5.865   5.077  0.5106  0.0172  0.5665
   14CHL1   H20 1013   2.253   5.920   5.109  0.3234 -0.5849  2.2663
   14CHL1   C21 1014   2.039   5.957   5.097 -0.2184 -0.0093  0.1486
   14CHL1  H21A 1015   1.941   5.913   5.066  0.0660  0.7703 -2.0137
   14CHL1  H21B 1016   2.055   6.047   5.034  2.4871 -1.4476 -1.4276
   14CHL1  H21C 1017   2.031   5.985   5.204  0.7466 -0.8640  0.4649
   14CHL1   C22 1018   2.203   5.848   4.926  0.6530 -0.0446 -0.2817
   14CHL1  H22A 1019   2.229   5.949   4.889 -1.9490  0.9958  0.4664
   14CHL1  H22B 1020   2.294   5.785   4.921  0.5829 -0.0953 -0.9374
   14CHL1   C23 1021   2.108   5.774   4.826 -0.5790 -0.1878  0.3047
   14CHL1  H23A 1022   2.099   5.672   4.869  1.3534 -0.6551 -0.3433
   14CHL1  H23B 1023   2.004   5.814   4.814 -1.7175 -3.4188 -1.6717
   14CHL1   C24 1024   2.168   5.739   4.689 -0.4181  0.0030  0.2794
   14CHL1  H24A 1025   2.265   5.691   4.713  0.1079  0.3992 -0.9701
   14CHL1  H24B 1026   2.109   5.658   4.641  1.5419 -1.2465 -0.1178
   14CHL1   C25 1027   2.200   5.848   4.583 -0.3863  0.5473 -0.9586
   14CHL1   H25 1028   2.275   5.914   4.632 -0.2778 -0.2649  0.0127
   14CHL1   C26 1029   2.250   5.786   4.452  0.3124 -0.2449 -0.3787
   14CHL1  H26A 1030   2.277   5.866   4.379  0.9836  0.5397  0.6900
   14CHL1  H26B 1031   2.334   5.716   4.473  1.0171  1.1990  1.9627
   14CHL1  H26C 1032   2.164   5.729   4.413 -0.3080  1.2209 -1.2053
   14CHL1   C27 1033   2.073   5.932   4.554  0.1112  0.5067 -0.1103
   14CHL1  H27A 1034   2.096   5.999   4.469  0.0100  1.9284  0.9401
   14CHL1  H27B 1035   1.991   5.868   4.515  1.0015 -0.0269 -1.1637
   14CHL1  H27C 1036   2.057   6.003   4.638  0.3479 -1.0829  1.3342
   15CHL1    C3 1037   2.155   4.401   5.903 -0.1654 -0.6284 -0.6751
   15CHL1    H3 1038   2.253   4.371   5.860 -0.4568  0.1579 -1.9487
   15CHL1    O3 1039   2.134   4.325   6.019  0.0638 -0.0648  0.1789
   15CHL1   H3' 1040   2.043   4.351   6.035 -0.7157 -0.8490 -2.4524
   15CHL1    C4 1041   2.172   4.552   5.938  0.3440  0.1315  0.3367
   15CHL1   H4A 1042   2.077   4.585   5.986 -0.9191  0.5366 -2.2647
   15CHL1   H4B 1043   2.259   4.561   6.005  1.1218 -1.8916 -0.3534
   15CHL1    C5 1044   2.188   4.638   5.815 -0.2326  0.1719 -0.1390
   15CHL1    C6 1045   2.288   4.728   5.809 -0.5418 -0.5227  1.0003
   15CHL1    H6 1046   2.366   4.739   5.885 -1.0582 -1.4092  1.6661
   15CHL1    C7 1047   2.306   4.824   5.699 -0.5577  0.0640  0.1941
   15CHL1   H7A 1048   2.323   4.927   5.737  0.9649  0.1379 -0.5787
   15CHL1   H7B 1049   2.395   4.802   5.635 -0.4527 -0.2734  0.4488
   15CHL1    C8 1050   2.193   4.826   5.593  0.0015 -0.3645  0.9131
   15CHL1    H8 1051   2.107   4.884   5.632 -0.4514 -0.0869 -0.4453
   15CHL1   C14 1052   2.238   4.890   5.463  0.2997 -0.1980  0.1633
   15CHL1   H14 1053   2.322   4.829   5.426  0.0039 -1.0890  0.9236
   15CHL1   C15 1054   2.295   5.041   5.474 -0.2601 -0.1383 -0.3604
   15CHL1  H15A 1055   2.243   5.103   5.550 -0.3984 -0.7027  0.0139
   15CHL1  H15B 1056   2.405   5.055   5.488 -0.4609  1.5356 -0.2562
   15CHL1   C16 1057   2.274   5.093   5.333 -0.2439  0.0409  0.4503
   15CHL1  H16A 1058   2.203   5.178   5.340 -1.6093 -1.0443  0.2658
   15CHL1  H16B 1059   2.368   5.125   5.285 -0.7273  0.3521 -0.3110
   15CHL1   C17 1060   2.210   4.982   5.248  0.0470 -0.6694 -0.4290
   15CHL1   H17 1061   2.289   4.913   5.214  0.5371 -0.3466  0.0465
   15CHL1   C13 1062   2.140   4.894   5.350  0.4909  0.0352  0.4480
   15CHL1   C18 1063   2.014   4.967   5.392 -0.1480 -0.6704 -0.3849
   15CHL1  H18A 1064   1.936   4.980   5.314 -2.0783 -1.9082  1.2227
   15CHL1  H18B 1065   1.962   4.931   5.483  0.6979 -2.3383 -0.5080
   15CHL1  H18C 1066   2.034   5.074   5.415 -0.8944 -0.0598 -2.3546
   15CHL1   C12 1067   2.107   4.742   5.314  0.0371 -0.1421 -0.1541
   15CHL1  H12A 1068   2.041   4.738   5.225  1.5548 -0.7722 -1.2919
   15CHL1  H12B 1069   2.194   4.686   5.274  0.2022  0.2456 -0.3462
   15CHL1   C11 1070   2.056   4.670   5.445  0.6558 -0.1871 -0.0616
   15CHL1  H11A 1071   1.952   4.706   5.462  1.0621 -0.0302  2.3230
   15CHL1  H11B 1072   2.049   4.566   5.406 -0.7047 -0.5514  1.0636
   15CHL1    C9 1073   2.148   4.683   5.568  0.8854  0.2568 -0.2485
   15CHL1    H9 1074   2.233   4.621   5.533  1.2973 -0.2273  1.4929
   15CHL1   C10 1075   2.097   4.618   5.697  0.9332  0.1988 -0.1190
   15CHL1   C19 1076   1.955   4.683   5.735 -0.5341  0.0469  0.5837
   15CHL1  H19A 1077   1.967   4.794   5.740  1.7914 -0.2012  1.6142
   15CHL1  H19B 1078   1.874   4.649   5.667  0.2985 -1.5259  0.3356
   15CHL1  H19C 1079   1.928   4.649   5.838 -1.6923 -3.3210 -0.7034
   15CHL1    C1 1080   2.082   4.464   5.676  0.4504 -0.0801  0.3998
   15CHL1   H1A 1081   2.012   4.448   5.591  2.0410 -0.4134 -0.8977
   15CHL1   H1B 1082   2.173   4.438   5.618  0.7924  2.7930 -0.5070
   15CHL1    C2 1083   2.051   4.383   5.796  0.4652 -0.0218  1.0431
   15CHL1   H2A 1084   2.032   4.276   5.771 -0.6006 -0.4478  3.4020
   15CHL1   H2B 1085   1.955   4.420   5.838  0.1294  1.5319 -0.9649
   15CHL1   C20 1086   2.131   5.040   5.132 -0.8969  0.9403  0.3490
   15CHL1   H20 1087   2.034   5.084   5.164 -0.2869  1.6011  1.3178
   15CHL1   C21 1088   2.095   4.919   5.035 -0.6154 -0.0077  0.2410
   15CHL1  H21A 1089   2.080   4.935   4.926  2.4577 -0.6261 -0.3542
   15CHL1  H21B 1090   2.009   4.857   5.068  1.8957 -3.4728  0.7826
   15CHL1  H21C 1091   2.183   4.851   5.033 -1.3709 -1.2155  3.2873
   15CHL1   C22 1092   2.201   5.151   5.054  0.0121 -0.3410 -0.5966
   15CHL1  H22A 1093   2.125   5.178   4.977 -0.3256  0.8138  0.1165
   15CHL1  H22B 1094   2.217   5.247   5.108  1.9474 -0.8465 -0.1990
   15CHL1   C23 1095   2.332   5.113   4.991  0.1049  0.0685 -0.3326
   15CHL1  H23A 1096   2.408   5.066   5.056 -0.6270 -1.2795 -0.4227
   15CHL1  H23B 1097   2.322   5.043   4.905  1.6170  1.7929 -2.0315
   15CHL1   C24 1098   2.395   5.245   4.933  0.7100  0.8299  0.1113
   15CHL1  H24A 1099   2.419   5.311   5.019  1.3899  1.9037 -0.8733
   15CHL1  H24B 1100   2.498   5.216   4.901 -0.4830 -1.9400 -1.6115
   15CHL1   C25 1101   2.329   5.315   4.810 -0.2015 -0.0379  1.1843
   15CHL1   H25 1102   2.239   5.368   4.849 -1.0206 -1.2821  1.0182
   15CHL1   C26 1103   2.430   5.411   4.749  0.5663 -0.8411 -0.0521
   15CHL1  H26A 1104   2.488   5.458   4.831  1.2157 -0.2052 -0.8484
   15CHL1  H26B 1105   2.487   5.346   4.678  1.5364  0.4251 -0.4838
   15CHL1  H26C 1106   2.392   5.492   4.683 -1.6429 -1.3405  0.5430
   15CHL1   C27 1107   2.283   5.218   4.699  1.0843 -0.0621 -0.0915
   15CHL1  H27A 1108   2.184   5.174   4.724 -0.6499  2.1284 -2.5325
   15CHL1  H27B 1109   2.276   5.270   4.601 -2.8540 -2.0314 -1.0258
   15CHL1  H27C 1110   2.358   5.136   4.702  1.2480  0.1019  0.8678
   16CHL1    C3 1111   0.440   4.859   5.999 -0.5344 -0.3675  0.1702
   16CHL1    H3 1112   0.400   4.962   6.010  0.1319  0.3242 -2.8588
   16CHL1    O3 1113   0.460   4.804   6.126 -0.4294 -0.2426  0.2906
   16CHL1   H3' 1114   0.554   4.790   6.135 -0.4897 -0.8966 -0.0633
   16CHL1    C4 1115   0.360   4.766   5.916 -0.1390 -0.5467 -0.3466
   16CHL1   H4A 1116   0.400   4.663   5.929 -0.2444 -0.6252 -0.6473
   16CHL1   H4B 1117   0.257   4.769   5.957 -0.3653  1.0050 -0.9635
   16CHL1    C5 1118   0.352   4.802   5.768  0.3194  1.1129 -0.8432
   16CHL1    C6 1119   0.229   4.825   5.711 -0.2371  0.5048 -0.6086
   16CHL1    H6 1120   0.142   4.816   5.778 -0.7837  0.6864 -1.2827
   16CHL1    C7 1121   0.199   4.867   5.570  0.1431 -0.3749  0.1126
   16CHL1   H7A 1122   0.112   4.806   5.540 -1.4703  0.9076  1.9628
   16CHL1   H7B 1123   0.167   4.973   5.575  0.4109 -0.3351  3.5662
   16CHL1    C8 1124   0.321   4.845   5.484  0.7494  0.2236  0.7509
   16CHL1    H8 1125   0.334   4.737   5.462 -0.4476  0.0931  0.5970
   16CHL1   C14 1126   0.304   4.927   5.359  1.3465 -0.3091 -0.0441
   16CHL1   H14 1127   0.293   5.034   5.386  0.1858 -0.5897  0.6358
   16CHL1   C15 1128   0.178   4.891   5.266 -0.5673 -0.3640 -0.6798
   16CHL1  H15A 1129   0.179   4.782   5.241 -0.5141 -0.2980 -0.9676
   16CHL1  H15B 1130   0.082   4.915   5.317  0.9946  1.2177  1.7276
   16CHL1   C16 1131   0.210   4.959   5.131 -0.1123  0.1772  0.5601
   16CHL1  H16A 1132   0.195   4.899   5.040 -0.2197 -0.4068  0.9588
   16CHL1  H16B 1133   0.149   5.049   5.106  0.0245  0.8918  2.5616
   16CHL1   C17 1134   0.360   5.003   5.146 -1.0412  0.5395 -0.7191
   16CHL1   H17 1135   0.361   5.106   5.190  1.2490  0.9892 -1.6460
   16CHL1   C13 1136   0.423   4.917   5.262  0.0766 -0.7249  0.2566
   16CHL1   C18 1137   0.453   4.773   5.211 -0.1633 -0.3144 -0.3890
   16CHL1  H18A 1138   0.471   4.702   5.295  0.6275  0.7871  0.4096
   16CHL1  H18B 1139   0.375   4.736   5.141  0.2623  2.3662 -2.4473
   16CHL1  H18C 1140   0.549   4.783   5.156  0.5499  1.1450  1.0363
   16CHL1   C12 1141   0.545   4.979   5.333 -0.7564 -0.6037  0.6446
   16CHL1  H12A 1142   0.632   4.969   5.264 -0.2697  2.5384  0.6158
   16CHL1  H12B 1143   0.516   5.084   5.358  3.8695  0.6157  1.9196
   16CHL1   C11 1144   0.576   4.899   5.459  0.1967 -0.7958  0.0594
   16CHL1  H11A 1145   0.606   4.798   5.424 -1.2988 -0.7552 -1.4826
   16CHL1  H11B 1146   0.659   4.944   5.517  0.5460  0.4227 -1.3360
   16CHL1    C9 1147   0.454   4.895   5.554 -0.0176  0.4002  0.7329
   16CHL1    H9 1148   0.439   5.002   5.577  2.3557  0.3380  2.9775
   16CHL1   C10 1149   0.484   4.824   5.696  0.0457  0.6073  0.5098
   16CHL1   C19 1150   0.555   4.679   5.670  0.4263 -0.0531 -0.3543
   16CHL1  H19A 1151   0.657   4.698   5.627  0.8841  2.5720  1.6440
   16CHL1  H19B 1152   0.583   4.639   5.770 -1.0564  2.0958  1.0012
   16CHL1  H19C 1153   0.503   4.618   5.594  0.7861 -1.2468  0.3345
   16CHL1    C1 1154   0.566   4.918   5.782  0.0970  0.0245 -0.3138
   16CHL1   H1A 1155   0.672   4.920   5.747  0.2260 -1.3096 -0.0748
   16CHL1   H1B 1156   0.531   5.023   5.778 -2.5484 -0.7663  0.2821
   16CHL1    C2 1157   0.576   4.879   5.935 -0.1069  0.6307 -0.2376
   16CHL1   H2A 1158   0.630   4.964   5.982  1.2368 -0.0488 -0.5057
   16CHL1   H2B 1159   0.635   4.785   5.938  0.2037  0.7928 -0.8888
   16CHL1   C20 1160   0.435   4.998   5.008 -0.1159  0.1681 -0.2695
   16CHL1   H20 1161   0.449   4.890   4.984  0.1035 -0.2970  1.7612
   16CHL1   C21 1162   0.564   5.078   5.025 -0.2280 -0.5954  0.1620
   16CHL1  H21A 1163   0.599   5.087   4.920 -0.0856 -0.6435  0.2056
   16CHL1  H21B 1164   0.644   5.029   5.085  0.0041 -1.6415 -0.9779
   16CHL1  H21C 1165   0.547   5.178   5.072  0.3153 -0.5609  0.2917
   16CHL1   C22 1166   0.352   5.037   4.889  0.2150  0.0970  0.3655
   16CHL1  H22A 1167   0.415   5.017   4.799 -0.6193 -0.4998 -0.0954
   16CHL1  H22B 1168   0.270   4.967   4.865 -0.2633  0.8415 -0.2338
   16CHL1   C23 1169   0.309   5.185   4.875  0.0973 -0.2662  0.5210
   16CHL1  H23A 1170   0.232   5.216   4.949 -0.4917  0.6571 -0.4428
   16CHL1  H23B 1171   0.395   5.254   4.890  0.1500  0.2406 -1.6807
   16CHL1   C24 1172   0.244   5.215   4.743 -0.3386 -0.2973  0.6582
   16CHL1  H24A 1173   0.223   5.324   4.739 -0.8454 -0.4120  0.0003
   16CHL1  H24B 1174   0.303   5.183   4.655 -0.1018  2.0280 -0.0958
   16CHL1   C25 1175   0.109   5.142   4.726  0.8392  0.4606 -0.0601
   16CHL1   H25 1176   0.106   5.041   4.773  1.5038  0.8504  0.8301
   16CHL1   C26 1177  -0.010   5.223   4.774 -0.1912  0.9195 -0.8760
   16CHL1  H26A 1178  -0.102   5.174   4.735 -0.6930  1.0000  0.1691
   16CHL1  H26B 1179  -0.009   5.209   4.884 -0.2969 -1.5522 -1.1258
   16CHL1  H26C 1180  -0.013   5.325   4.730  2.3201  0.3370 -2.6720
   16CHL1   C27 1181   0.077   5.106   4.580  0.2555  0.5163  0.1079
   16CHL1  H27A 1182   0.147   5.024   4.553  0.9312  1.7128 -2.0078
   16CHL1  H27B 1183  -0.026   5.066   4.572  0.5481 -0.3040  0.3744
   16CHL1  H27C 1184   0.088   5.200   4.521  2.3048  0.8277  0.9047
   17CHL1    C3 1185   1.624   0.250   6.064  0.0604 -0.2333  0.3876
   17CHL1    H3 1186   1.713   0.183   6.056  0.1808 -0.5436  3.1869
   17CHL1    O3 1187   1.560   0.216   6.183  0.6017  0.0175 -0.4847
   17CHL1   H3' 1188   1.627   0.195   6.248 -0.1904 -1.4320 -0.0978
   17CHL1    C4 1189   1.668   0.396   6.089  0.6754  0.1772  0.3642
   17CHL1   H4A 1190   1.596   0.473   6.122  1.8011  1.7760 -0.7444
   17CHL1   H4B 1191   1.739   0.391   6.174  1.7219 -1.8862 -0.5495
   17CHL1    C5 1192   1.736   0.458   5.970  0.9333 -0.2639 -0.7821
   17CHL1    C6 1193   1.858   0.506   5.966  0.4283  0.2178 -0.4357
   17CHL1    H6 1194   1.908   0.495   6.063  0.8292 -3.7414 -0.9078
   17CHL1    C7 1195   1.928   0.561   5.848  0.5686  0.6356 -0.1428
   17CHL1   H7A 1196   1.983   0.653   5.878 -2.3916  3.0794 -1.5848
   17CHL1   H7B 1197   2.002   0.486   5.813  2.7525  2.6679 -0.1808
   17CHL1    C8 1198   1.833   0.594   5.729 -0.2766  0.2331 -0.3275
   17CHL1    H8 1199   1.784   0.687   5.765 -1.0100 -0.8231  1.5095
   17CHL1   C14 1200   1.914   0.621   5.602  0.0401 -0.0734 -1.4395
   17CHL1   H14 1201   1.949   0.518   5.583  0.3307 -0.2024 -0.2825
   17CHL1   C15 1202   2.029   0.721   5.604 -0.4829 -0.6756  0.0200
   17CHL1  H15A 1203   2.004   0.813   5.660  0.8043  0.4196 -1.1284
   17CHL1  H15B 1204   2.119   0.671   5.648 -0.3453 -0.7805 -0.3716
   17CHL1   C16 1205   2.048   0.752   5.455 -1.0579  0.2666 -0.0535
   17CHL1  H16A 1206   2.066   0.861   5.447 -1.6260  0.4616  1.0945
   17CHL1  H16B 1207   2.137   0.693   5.422 -0.3899  1.9575 -1.3972
   17CHL1   C17 1208   1.923   0.694   5.380 -0.7898  0.3983 -0.2865
   17CHL1   H17 1209   1.937   0.591   5.342 -3.1189  0.0368 -0.3052
   17CHL1   C13 1210   1.822   0.671   5.489 -0.6072 -0.6517 -0.3732
   17CHL1   C18 1211   1.757   0.810   5.511  0.6516 -0.4518  0.2027
   17CHL1  H18A 1212   1.833   0.887   5.538  0.6456 -0.2917 -0.2283
   17CHL1  H18B 1213   1.704   0.834   5.417  2.2061 -2.7809 -1.3713
   17CHL1  H18C 1214   1.690   0.808   5.599 -0.0273  0.0739 -0.2972
   17CHL1   C12 1215   1.711   0.561   5.466 -0.2317  0.3619  0.2225
   17CHL1  H12A 1216   1.634   0.601   5.398 -0.4555 -1.1883 -0.4646
   17CHL1  H12B 1217   1.763   0.468   5.433  0.7287  0.7363  0.6208
   17CHL1   C11 1218   1.633   0.527   5.595 -0.7052 -0.2849 -0.0890
   17CHL1  H11A 1219   1.575   0.619   5.616 -1.2198 -0.7872  0.7386
   17CHL1  H11B 1220   1.564   0.441   5.581  1.1931 -2.3101  2.1179
   17CHL1    C9 1221   1.731   0.492   5.712  0.5422  0.5163  0.3261
   17CHL1    H9 1222   1.771   0.401   5.663 -0.9422 -1.0216  1.8119
   17CHL1   C10 1223   1.653   0.446   5.842  0.0030 -1.0368 -0.0645
   17CHL1   C19 1224   1.530   0.535   5.858  0.0927 -0.1332  0.4282
   17CHL1  H19A 1225   1.478   0.522   5.955 -1.1106 -1.1948 -0.3207
   17CHL1  H19B 1226   1.563   0.641   5.855 -0.0263 -0.1113 -0.7183
   17CHL1  H19C 1227   1.456   0.518   5.776  0.9764 -1.1564 -0.1848
   17CHL1    C1 1228   1.598   0.298   5.822  0.3856  0.0618 -0.2480
   17CHL1   H1A 1229   1.533   0.301   5.732  0.0743  0.3724 -0.0152
   17CHL1   H1B 1230   1.681   0.230   5.792 -0.7362 -1.0369 -0.9597
   17CHL1    C2 1231   1.532   0.244   5.947 -0.3535 -0.2137 -0.0959
   17CHL1   H2A 1232   1.511   0.135   5.941 -1.8779 -0.1007  1.8374
   17CHL1   H2B 1233   1.436   0.293   5.973  0.7330  0.9774  1.9902
   17CHL1   C20 1234   1.892   0.770   5.250 -0.1007 -0.2528 -0.2503
   17CHL1   H20 1235   1.848   0.870   5.272  0.5459 -0.3762  1.9009
   17CHL1   C21 1236   1.789   0.692   5.171  0.6424  0.3451  0.3837
   17CHL1  H21A 1237   1.785   0.737   5.069 -0.9533 -0.4571  0.0647
   17CHL1  H21B 1238   1.691   0.708   5.218  1.4036 -0.4095  2.3202
   17CHL1  H21C 1239   1.822   0.587   5.156  3.8373  1.2534  0.2668
   17CHL1   C22 1240   2.016   0.800   5.164  0.3254 -0.0677  0.8607
   17CHL1  H22A 1241   1.984   0.880   5.094  1.3536 -0.3841  0.0049
   17CHL1  H22B 1242   2.108   0.831   5.218  2.0775  1.2134 -2.6124
   17CHL1   C23 1243   2.064   0.679   5.074  0.4823  0.5785  0.0072
   17CHL1  H23A 1244   2.086   0.605   5.154 -1.5173  0.4934  0.5373
   17CHL1  H23B 1245   1.985   0.637   5.008 -0.2387  1.6642  0.1510
   17CHL1   C24 1246   2.189   0.704   4.999 -0.6019  0.4066  0.1611
   17CHL1  H24A 1247   2.179   0.785   4.925  0.6859  1.0473  0.6680
   17CHL1  H24B 1248   2.275   0.724   5.066  0.2051 -2.9946  0.3276
   17CHL1   C25 1249   2.235   0.584   4.914 -0.3941  0.6652  0.7436
   17CHL1   H25 1250   2.161   0.554   4.837  1.5683 -0.9931 -0.5746
   17CHL1   C26 1251   2.366   0.619   4.835 -0.2006 -0.6312  0.0341
   17CHL1  H26A 1252   2.385   0.549   4.751 -1.6452 -0.7987 -0.1780
   17CHL1  H26B 1253   2.343   0.722   4.800  0.3385 -0.2018  0.9095
   17CHL1  H26C 1254   2.453   0.632   4.902  0.2392  2.3036 -0.9502
   17CHL1   C27 1255   2.269   0.466   5.006 -0.7278  0.5357 -0.6299
   17CHL1  H27A 1256   2.332   0.386   4.960 -0.6610 -0.1991  0.7096
   17CHL1  H27B 1257   2.309   0.502   5.103 -0.9915  0.1889 -0.3904
   17CHL1  H27C 1258   2.175   0.421   5.044 -0.7725  0.1312 -1.2002
   18CHL1    C3 1259   2.157   2.368   6.106 -1.2446  0.2956 -0.2964
   18CHL1    H3 1260   2.205   2.455   6.057 -2.2472 -0.1225 -2.1276
   18CHL1    O3 1261   2.165   2.385   6.249 -0.2208 -0.0473 -0.4695
   18CHL1   H3' 1262   2.260   2.385   6.263 -0.4700 -1.3828  1.5413
   18CHL1    C4 1263   2.012   2.370   6.071  0.7758 -0.3051 -0.3127
   18CHL1   H4A 1264   1.959   2.294   6.131 -1.3301  0.3096 -1.3164
   18CHL1   H4B 1265   1.956   2.460   6.105 -1.0110 -1.5448  0.1810
   18CHL1    C5 1266   1.991   2.361   5.922  0.6714 -0.2805 -0.2015
   18CHL1    C6 1267   1.949   2.471   5.854 -0.4245  0.2686  0.1035
   18CHL1    H6 1268   1.927   2.562   5.912 -2.4920 -0.9332  1.3434
   18CHL1    C7 1269   1.930   2.463   5.710  0.3963 -0.3278  1.1169
   18CHL1   H7A 1270   1.842   2.522   5.675  0.5444 -0.1722  1.0025
   18CHL1   H7B 1271   2.018   2.508   5.659 -0.5884  2.8405  1.9537
   18CHL1    C8 1272   1.916   2.311   5.664 -0.5837 -0.6476  0.4063
   18CHL1    H8 1273   1.821   2.271   5.704 -0.4806 -0.7262  0.5741
   18CHL1   C14 1274   1.910   2.320   5.514 -0.5074  0.1261  0.0043
   18CHL1   H14 1275   2.007   2.366   5.485 -0.5440 -1.3656 -2.8829
   18CHL1   C15 1276   1.815   2.409   5.432 -0.3976 -0.5586  0.0118
   18CHL1  H15A 1277   1.713   2.398   5.474  0.1256 -0.7145  1.2889
   18CHL1  H15B 1278   1.850   2.514   5.438  1.1138 -1.0226 -0.3159
   18CHL1   C16 1279   1.830   2.359   5.288  0.4620 -0.1411 -1.2401
   18CHL1  H16A 1280   1.727   2.323   5.265 -0.8712  0.6487  2.7535
   18CHL1  H16B 1281   1.867   2.436   5.217  1.0666 -0.6216 -1.4538
   18CHL1   C17 1282   1.918   2.230   5.293  0.4973 -0.6153  0.3257
   18CHL1   H17 1283   2.022   2.263   5.274  0.4759 -0.4991  0.4081
   18CHL1   C13 1284   1.917   2.185   5.437  0.1067  0.2938  0.1158
   18CHL1   C18 1285   1.790   2.108   5.467  0.1048  0.0211  0.6928
   18CHL1  H18A 1286   1.793   2.019   5.401 -1.4331  1.0156 -0.7736
   18CHL1  H18B 1287   1.785   2.067   5.570 -1.6222  0.3395  0.7557
   18CHL1  H18C 1288   1.694   2.163   5.456  0.6216  0.8455  0.1695
   18CHL1   C12 1289   2.053   2.109   5.486 -0.0031  0.3582 -0.4132
   18CHL1  H12A 1290   2.045   2.009   5.439 -0.4016  1.9368 -4.1054
   18CHL1  H12B 1291   2.139   2.168   5.448 -0.5392  0.7839 -0.9994
   18CHL1   C11 1292   2.049   2.098   5.638 -0.0184  0.0473  0.0503
   18CHL1  H11A 1293   1.955   2.046   5.668 -0.2605 -0.2575 -1.1788
   18CHL1  H11B 1294   2.145   2.046   5.661  0.8024  1.2229 -0.6075
   18CHL1    C9 1295   2.044   2.235   5.703 -0.1174  0.1922 -0.1848
   18CHL1    H9 1296   2.133   2.292   5.669  1.3394 -1.8506  0.0219
   18CHL1   C10 1297   2.037   2.231   5.862 -0.1604  0.1707  0.0584
   18CHL1   C19 1298   1.946   2.114   5.910  0.1917 -0.5111  0.1657
   18CHL1  H19A 1299   1.934   2.104   6.020 -0.4651  1.1275  0.2694
   18CHL1  H19B 1300   1.842   2.125   5.873  0.2496 -0.9601 -0.1320
   18CHL1  H19C 1301   1.975   2.014   5.873 -0.3479 -0.0517 -1.5972
   18CHL1    C1 1302   2.181   2.199   5.915  0.2417  0.0517  0.2414
   18CHL1   H1A 1303   2.199   2.092   5.889 -1.5078  0.0060 -0.9733
   18CHL1   H1B 1304   2.256   2.257   5.856 -0.2569 -0.1523 -0.6096
   18CHL1    C2 1305   2.210   2.227   6.062  0.3676 -0.1288  0.0208
   18CHL1   H2A 1306   2.319   2.212   6.079  0.0162 -0.8319  1.8050
   18CHL1   H2B 1307   2.149   2.159   6.125  0.9002 -0.3967  0.2502
   18CHL1   C20 1308   1.890   2.147   5.172 -0.2151  0.5145  0.8481
   18CHL1   H20 1309   1.780   2.127   5.172  0.0421 -1.0926  0.6447
   18CHL1   C21 1310   1.966   2.010   5.184  0.5529  0.2002 -0.0174
   18CHL1  H21A 1311   1.927   1.944   5.264 -0.3945  1.8852  0.9716
   18CHL1  H21B 1312   2.072   2.040   5.196  0.5192  0.0936  0.5897
   18CHL1  H21C 1313   1.956   1.956   5.087  0.3660  0.1377  0.0349
   18CHL1   C22 1314   1.934   2.209   5.044 -0.1338  0.0981  0.8329
   18CHL1  H22A 1315   1.906   2.316   5.034 -1.1895 -0.3678 -2.0920
   18CHL1  H22B 1316   2.044   2.204   5.038  0.1723  2.6089  2.9033
   18CHL1   C23 1317   1.881   2.149   4.910  0.2508 -0.6000  0.5538
   18CHL1  H23A 1318   1.940   2.060   4.880  0.0779 -1.4192  2.5137
   18CHL1  H23B 1319   1.773   2.128   4.900  0.5155 -1.5939 -0.4427
   18CHL1   C24 1320   1.924   2.247   4.798  0.1756 -0.8475 -0.2325
   18CHL1  H24A 1321   1.885   2.350   4.811  2.0426  0.1103 -1.7708
   18CHL1  H24B 1322   2.034   2.259   4.791  0.1638 -1.6185 -2.3525
   18CHL1   C25 1323   1.878   2.190   4.659 -0.0380 -1.0587  0.3095
   18CHL1   H25 1324   1.901   2.083   4.642  0.9207 -1.1575  1.9776
   18CHL1   C26 1325   1.729   2.229   4.653 -0.2480 -0.5413 -0.6381
   18CHL1  H26A 1326   1.677   2.188   4.565 -2.2021 -0.3454  0.3663
   18CHL1  H26B 1327   1.660   2.201   4.735  0.1506 -2.0999 -0.8188
   18CHL1  H26C 1328   1.720   2.340   4.645  1.4846 -0.3808 -0.8635
   18CHL1   C27 1329   1.962   2.263   4.553 -1.0106 -0.2551 -0.0680
   18CHL1  H27A 1330   2.066   2.224   4.554 -0.8609  0.1459  0.7992
   18CHL1  H27B 1331   1.920   2.252   4.451  1.0242 -1.7194 -0.8092
   18CHL1  H27C 1332   1.980   2.370   4.577 -1.2844 -0.2404  0.0795
   19CHL1    C3 1333   1.412   1.194   5.998 -0.6038 -0.1867  0.4054
   19CHL1    H3 1334   1.507   1.232   5.955 -0.8533 -2.2542 -2.1525
   19CHL1    O3 1335   1.396   1.253   6.122  0.3934 -0.8964 -0.2084
   19CHL1   H3' 1336   1.349   1.192   6.179  3.7963 -1.7295  2.0177
   19CHL1    C4 1337   1.294   1.241   5.909 -0.0304  0.0101  0.2097
   19CHL1   H4A 1338   1.201   1.217   5.965 -0.1813  1.7202  0.7388
   19CHL1   H4B 1339   1.307   1.350   5.895 -0.5437 -0.1725 -2.1047
   19CHL1    C5 1340   1.304   1.169   5.774 -0.0751  0.2022  0.3924
   19CHL1    C6 1341   1.309   1.241   5.658 -0.0276  0.3396  0.2470
   19CHL1    H6 1342   1.311   1.349   5.677 -2.5176  0.4492  0.1573
   19CHL1    C7 1343   1.316   1.189   5.522  0.4740  0.4117 -0.1004
   19CHL1   H7A 1344   1.251   1.247   5.452 -0.9264  0.3796  1.1117
   19CHL1   H7B 1345   1.414   1.182   5.471 -0.7482 -2.5641 -2.3233
   19CHL1    C8 1346   1.269   1.037   5.522  0.0881 -0.1882  0.2226
   19CHL1    H8 1347   1.159   1.039   5.534  0.0596  2.7352  0.3289
   19CHL1   C14 1348   1.301   0.960   5.394  0.2076 -0.4388 -0.3489
   19CHL1   H14 1349   1.412   0.956   5.390  0.3409  1.9933 -1.3600
   19CHL1   C15 1350   1.247   1.028   5.271 -0.1321 -0.0086 -0.0169
   19CHL1  H15A 1351   1.143   1.066   5.285 -0.0901 -0.1562  0.7127
   19CHL1  H15B 1352   1.304   1.124   5.268 -0.8957  0.4498 -0.3173
   19CHL1   C16 1353   1.265   0.918   5.169 -0.2480  0.0290  0.1877
   19CHL1  H16A 1354   1.163   0.909   5.127  0.3439 -2.4191 -0.9428
   19CHL1  H16B 1355   1.342   0.944   5.093  0.4027 -2.9182 -0.2957
   19CHL1   C17 1356   1.304   0.782   5.246 -0.2659 -0.3241 -0.1863
   19CHL1   H17 1357   1.415   0.779   5.247 -0.2645 -1.0343 -1.0518
   19CHL1   C13 1358   1.261   0.818   5.392  0.3825  0.3591  0.7407
   19CHL1   C18 1359   1.109   0.797   5.403 -0.5099  0.5432 -0.1104
   19CHL1  H18A 1360   1.048   0.827   5.315 -1.1294  0.7057  0.3651
   19CHL1  H18B 1361   1.086   0.688   5.412 -0.1385  0.2433 -2.1717
   19CHL1  H18C 1362   1.073   0.846   5.495  1.4560 -0.2086  1.1090
   19CHL1   C12 1363   1.334   0.742   5.501 -0.5112 -0.0553  0.0146
   19CHL1  H12A 1364   1.304   0.635   5.504 -0.1774 -0.1391  0.5009
   19CHL1  H12B 1365   1.441   0.745   5.473  1.0087 -0.1667  4.8712
   19CHL1   C11 1366   1.306   0.805   5.631 -0.2900 -0.7455  0.5995
   19CHL1  H11A 1367   1.197   0.790   5.651 -0.6601 -0.4742 -1.1126
   19CHL1  H11B 1368   1.351   0.753   5.718  1.5724  0.4969  0.4308
   19CHL1    C9 1369   1.328   0.959   5.639  0.3913 -0.3912 -0.5192
   19CHL1    H9 1370   1.436   0.978   5.621  0.5061 -0.2057  0.3570
   19CHL1   C10 1371   1.292   1.015   5.782 -0.0585 -0.0777  0.1303
   19CHL1   C19 1372   1.149   0.982   5.816  0.0404 -0.2556 -0.5923
   19CHL1  H19A 1373   1.116   1.016   5.916 -1.0196  0.1080 -1.0460
   19CHL1  H19B 1374   1.081   1.024   5.738 -0.0387  0.0055 -0.3863
   19CHL1  H19C 1375   1.145   0.872   5.829  0.6077 -0.2151 -0.0101
   19CHL1    C1 1376   1.400   0.961   5.885 -0.7672  0.5654 -0.6448
   19CHL1   H1A 1377   1.362   0.860   5.911  1.4185 -0.2136 -0.3332
   19CHL1   H1B 1378   1.503   0.946   5.847  0.0824  3.0916  0.4181
   19CHL1    C2 1379   1.412   1.044   6.018 -0.7076 -0.3113  0.1409
   19CHL1   H2A 1380   1.504   1.010   6.070 -0.5422  2.2796  1.7169
   19CHL1   H2B 1381   1.327   1.015   6.085 -0.5825  1.0751  0.9467
   19CHL1   C20 1382   1.239   0.657   5.182  0.1122 -0.8911  0.1080
   19CHL1   H20 1383   1.130   0.672   5.188  0.0036 -1.4025 -0.4816
   19CHL1   C21 1384   1.268   0.524   5.258  0.4584  0.1875 -0.0684
   19CHL1  H21A 1385   1.197   0.451   5.213 -0.7871  0.4906  1.3360
   19CHL1  H21B 1386   1.243   0.529   5.366  0.8305  3.9358 -0.0264
   19CHL1  H21C 1387   1.373   0.488   5.249  0.7729  1.2847 -1.0224
   19CHL1   C22 1388   1.281   0.640   5.027  0.3587  0.7200  0.5595
   19CHL1  H22A 1389   1.253   0.535   5.003 -0.7209  1.2749 -0.7361
   19CHL1  H22B 1390   1.213   0.706   4.968  1.3201 -0.6384 -2.2270
   19CHL1   C23 1391   1.430   0.650   4.991 -1.0117 -0.1074 -0.0953
   19CHL1  H23A 1392   1.460   0.751   5.026 -0.0580  1.0030 -3.6612
   19CHL1  H23B 1393   1.492   0.576   5.045  0.0052  1.7634  1.4407
   19CHL1   C24 1394   1.461   0.638   4.841 -0.0382  0.1703 -0.8645
   19CHL1  H24A 1395   1.570   0.658   4.834 -0.0430 -0.2366 -2.5359
   19CHL1  H24B 1396   1.440   0.535   4.803 -2.4628 -0.1077  0.9502
   19CHL1   C25 1397   1.399   0.739   4.753 -0.3956 -0.5097 -0.1387
   19CHL1   H25 1398   1.290   0.727   4.741 -0.3985 -1.1674  0.5312
   19CHL1   C26 1399   1.421   0.884   4.811 -0.3779  0.1493 -0.4892
   19CHL1  H26A 1400   1.402   0.959   4.730 -0.0290  0.5450 -0.2110
   19CHL1  H26B 1401   1.360   0.912   4.900 -2.7783  0.6487 -2.1840
   19CHL1  H26C 1402   1.526   0.895   4.843 -1.2165  3.0116  1.7649
   19CHL1   C27 1403   1.464   0.726   4.614 -0.1951  0.2963 -0.0854
   19CHL1  H27A 1404   1.438   0.625   4.577  0.7480  0.3913 -1.0464
   19CHL1  H27B 1405   1.422   0.805   4.548  2.5789  0.9638 -1.2061
   19CHL1  H27C 1406   1.575   0.726   4.618 -0.0679  2.9184 -1.5535
   20CHL1    C3 1407   6.751   2.501   6.143  0.4260  0.1388  0.0202
   20CHL1    H3 1408   6.708   2.603   6.133 -0.9771 -0.6209 -2.5039
   20CHL1    O3 1409   6.757   2.468   6.281  0.2779 -0.2052 -0.1059
   20CHL1   H3' 1410   6.842   2.504   6.308  1.4209 -2.4322 -0.5310
   20CHL1    C4 1411   6.675   2.397   6.064  0.9652  0.0708  0.5202
   20CHL1   H4A 1412   6.722   2.297   6.079  3.3288  0.8007 -1.4456
   20CHL1   H4B 1413   6.573   2.392   6.107  0.4361 -2.6837 -0.7889
   20CHL1    C5 1414   6.681   2.443   5.919  0.0949 -0.0469 -0.0397
   20CHL1    C6 1415   6.568   2.478   5.851 -0.5533  0.8731  0.5063
   20CHL1    H6 1416   6.475   2.487   5.909 -1.8645  0.9405 -1.5149
   20CHL1    C7 1417   6.562   2.520   5.703 -0.1311 -0.3228 -0.6325
   20CHL1   H7A 1418   6.474   2.480   5.649 -1.1762  0.1201  0.6777
   20CHL1   H7B 1419   6.563   2.631   5.702  2.5434 -0.2739  0.3706
   20CHL1    C8 1420   6.695   2.488   5.628 -0.6309  0.6126  0.1031
   20CHL1    H8 1421   6.698   2.378   5.611  1.3648  0.9368 -2.3305
   20CHL1   C14 1422   6.707   2.554   5.492  0.0910  0.3622  0.5156
   20CHL1   H14 1423   6.692   2.660   5.524 -1.7573 -0.5341  2.9568
   20CHL1   C15 1424   6.590   2.540   5.390 -0.3506 -0.4086 -0.1305
   20CHL1  H15A 1425   6.543   2.440   5.400  1.2693 -1.0779  1.5539
   20CHL1  H15B 1426   6.512   2.615   5.415 -0.3913 -0.8724  1.2447
   20CHL1   C16 1427   6.654   2.562   5.253 -0.6499 -0.2647  0.1720
   20CHL1  H16A 1428   6.647   2.470   5.192  1.0967  0.5431 -1.3793
   20CHL1  H16B 1429   6.608   2.646   5.195 -0.8922 -2.4415 -3.0505
   20CHL1   C17 1430   6.807   2.591   5.276 -0.6832  0.6251  0.1161
   20CHL1   H17 1431   6.832   2.696   5.302  0.6438 -0.0133  1.5839
   20CHL1   C13 1432   6.840   2.525   5.414  0.2654 -0.5024 -0.0282
   20CHL1   C18 1433   6.843   2.374   5.380 -0.1644 -0.1237  0.0944
   20CHL1  H18A 1434   6.749   2.350   5.327  0.6020  1.1133 -1.9309
   20CHL1  H18B 1435   6.931   2.342   5.319 -0.4098  0.1097 -0.3867
   20CHL1  H18C 1436   6.848   2.322   5.478 -0.7234  0.4547  0.4393
   20CHL1   C12 1437   6.957   2.577   5.500 -0.5088  0.6223  0.5631
   20CHL1  H12A 1438   7.057   2.559   5.454 -0.9963 -0.0290 -0.2572
   20CHL1  H12B 1439   6.936   2.685   5.514 -0.7331  0.6335  0.1349
   20CHL1   C11 1440   6.954   2.521   5.644  0.3456 -0.5972 -0.9578
   20CHL1  H11A 1441   7.002   2.421   5.648  0.8777 -0.3683 -1.4032
   20CHL1  H11B 1442   7.022   2.589   5.700 -0.2030  1.3510 -2.5689
   20CHL1    C9 1443   6.820   2.527   5.716 -0.6097 -0.6070  0.3867
   20CHL1    H9 1444   6.810   2.637   5.729  0.0305 -0.3390 -1.1966
   20CHL1   C10 1445   6.821   2.451   5.856 -0.1701 -0.6746 -0.1128
   20CHL1   C19 1446   6.871   2.306   5.841  0.1769  1.5860 -0.4291
   20CHL1  H19A 1447   6.817   2.245   5.765  1.1585 -0.4791  0.4366
   20CHL1  H19B 1448   6.980   2.298   5.826  0.0487 -0.8048 -0.4831
   20CHL1  H19C 1449   6.852   2.248   5.935 -0.2313  0.4817 -1.1718
   20CHL1    C1 1450   6.910   2.533   5.959  0.1558  0.0059  0.1386
   20CHL1   H1A 1451   7.012   2.500   5.931 -0.6332 -2.1434 -0.3918
   20CHL1   H1B 1452   6.907   2.643   5.944 -0.0259  0.2011  1.4741
   20CHL1    C2 1453   6.892   2.497   6.102  0.1729 -0.2490 -0.2840
   20CHL1   H2A 1454   6.954   2.566   6.163  1.6714 -0.6019 -1.3641
   20CHL1   H2B 1455   6.939   2.397   6.114  0.3505  0.0303  1.8108
   20CHL1   C20 1456   6.897   2.576   5.147  0.5560  0.4369 -0.2717
   20CHL1   H20 1457   6.885   2.471   5.112  0.4165  0.8770 -1.6351
   20CHL1   C21 1458   7.049   2.602   5.171 -0.8716 -0.1967  0.3675
   20CHL1  H21A 1459   7.088   2.534   5.249 -0.2288  0.0071  0.2292
   20CHL1  H21B 1460   7.077   2.708   5.189  2.0735 -0.9648  0.8080
   20CHL1  H21C 1461   7.100   2.568   5.079  0.9520  2.9974  0.0517
   20CHL1   C22 1462   6.848   2.660   5.031  0.1402  0.4045 -0.3822
   20CHL1  H22A 1463   6.738   2.647   5.026  0.4154 -2.6147 -0.2925
   20CHL1  H22B 1464   6.887   2.764   5.040  1.2198  0.1073 -1.3495
   20CHL1   C23 1465   6.887   2.619   4.888  0.3974 -0.0048  0.1954
   20CHL1  H23A 1466   6.998   2.625   4.895  0.6490 -3.2764  0.4447
   20CHL1  H23B 1467   6.857   2.515   4.864 -0.5710  0.8356 -2.5775
   20CHL1   C24 1468   6.825   2.711   4.785  0.2809  0.2765 -0.3521
   20CHL1  H24A 1469   6.717   2.703   4.808  0.5383  1.0487  1.3024
   20CHL1  H24B 1470   6.859   2.816   4.802 -0.1962  0.3996 -0.1302
   20CHL1   C25 1471   6.836   2.672   4.637 -0.0415  0.3395 -0.2732
   20CHL1   H25 1472   6.781   2.576   4.624 -0.2501  0.5317 -0.8629
   20CHL1   C26 1473   6.766   2.779   4.553 -0.0013 -0.9374 -0.0992
   20CHL1  H26A 1474   6.661   2.789   4.590  0.0662 -1.7796  0.3494
   20CHL1  H26B 1475   6.823   2.873   4.557 -1.0087 -0.1627 -2.2812
   20CHL1  H26C 1476   6.765   2.738   4.450  0.7885 -1.6435  0.1631
   20CHL1   C27 1477   6.975   2.664   4.578 -0.6104 -0.3790  0.8056
   20CHL1  H27A 1478   7.010   2.769   4.577 -2.7161  0.3791  0.2227
   20CHL1  H27B 1479   7.039   2.587   4.625  0.6361 -0.5151 -0.9938
   20CHL1  H27C 1480   6.965   2.631   4.472  0.0471  1.7508  0.0348
   21CHL1    C3 1481   4.878   1.565   6.179  0.0916 -0.4072 -0.3579
   21CHL1    H3 1482   4.772   1.537   6.162  0.4462 -2.0994  0.0722
   21CHL1    O3 1483   4.880   1.562   6.326 -0.2097  0.6691  0.5571
   21CHL1   H3' 1484   4.935   1.485   6.344 -0.5212  0.5480  0.9885
   21CHL1    C4 1485   4.968   1.464   6.119  0.5831  0.3480 -0.3588
   21CHL1   H4A 1486   5.071   1.490   6.153 -0.6432  2.2524  2.2414
   21CHL1   H4B 1487   4.946   1.365   6.164  0.5335 -0.0768 -1.2961
   21CHL1    C5 1488   4.952   1.465   5.966 -0.2522 -0.0090 -0.3733
   21CHL1    C6 1489   4.917   1.352   5.899 -0.2155  0.4016  0.6253
   21CHL1    H6 1490   4.891   1.261   5.955 -3.3451  1.1298  0.5272
   21CHL1    C7 1491   4.906   1.339   5.755 -0.9322 -0.2490  0.0544
   21CHL1   H7A 1492   4.944   1.244   5.711  0.0664 -0.3547  1.0845
   21CHL1   H7B 1493   4.797   1.341   5.736 -1.1514  1.4210  1.2583
   21CHL1    C8 1494   4.974   1.457   5.684 -0.1803 -0.1915  0.8448
   21CHL1    H8 1495   5.083   1.455   5.707  0.0608  0.7965 -0.1170
   21CHL1   C14 1496   4.948   1.444   5.535 -0.3827 -0.2404  0.2299
   21CHL1   H14 1497   4.838   1.441   5.525 -0.4464 -0.3441  0.9109
   21CHL1   C15 1498   5.012   1.324   5.459  0.5676  0.5285  0.4802
   21CHL1  H15A 1499   5.123   1.322   5.465  0.6746 -0.5945 -1.1657
   21CHL1  H15B 1500   4.954   1.232   5.482 -1.6246  1.6943 -0.1057
   21CHL1   C16 1501   4.978   1.363   5.313  0.1701  0.1373 -0.0417
   21CHL1  H16A 1502   5.056   1.332   5.240 -1.6661 -0.2839 -1.9341
   21CHL1  H16B 1503   4.887   1.314   5.273 -0.0183  0.1955  0.3144
   21CHL1   C17 1504   4.957   1.515   5.319 -0.4766 -0.3423  0.4329
   21CHL1   H17 1505   4.847   1.529   5.318 -0.2615  1.6816  1.3692
   21CHL1   C13 1506   4.994   1.564   5.454 -0.2051  0.4850  0.4632
   21CHL1   C18 1507   5.151   1.578   5.465 -0.7943 -0.2350 -0.1943
   21CHL1  H18A 1508   5.200   1.489   5.422 -1.6285 -0.7571 -0.1022
   21CHL1  H18B 1509   5.189   1.669   5.413  0.9801  1.2958  3.3886
   21CHL1  H18C 1510   5.193   1.613   5.562  4.0271  1.6760 -2.6331
   21CHL1   C12 1511   4.920   1.691   5.509 -0.4934 -0.3400  0.0018
   21CHL1  H12A 1512   4.957   1.782   5.457  0.7671  0.5151  2.2817
   21CHL1  H12B 1513   4.813   1.664   5.499 -0.4002 -0.6497 -0.1828
   21CHL1   C11 1514   4.954   1.714   5.658 -0.5416 -0.0698 -0.0174
   21CHL1  H11A 1515   5.063   1.732   5.670 -0.4354  0.0386 -1.0977
   21CHL1  H11B 1516   4.899   1.802   5.699 -2.2691 -1.3144  0.4286
   21CHL1    C9 1517   4.926   1.591   5.746  0.9647  0.2375  0.2399
   21CHL1    H9 1518   4.815   1.585   5.745  0.9192  0.9760  0.1706
   21CHL1   C10 1519   4.968   1.601   5.895 -1.2350 -0.8422  0.2513
   21CHL1   C19 1520   5.111   1.653   5.910 -0.0858 -0.0977  0.5276
   21CHL1  H19A 1521   5.098   1.756   5.869 -2.5709 -0.3439  0.4997
   21CHL1  H19B 1522   5.136   1.678   6.015  1.7709  0.4014  0.0089
   21CHL1  H19C 1523   5.192   1.595   5.860 -0.8143 -0.7716  0.1026
   21CHL1    C1 1524   4.880   1.709   5.975  0.7417  1.3963  0.1670
   21CHL1   H1A 1525   4.891   1.814   5.940  2.3483  0.9466 -0.7738
   21CHL1   H1B 1526   4.775   1.675   5.967  1.4311 -1.2803  1.4368
   21CHL1    C2 1527   4.896   1.708   6.127 -0.6011 -0.2273 -0.4806
   21CHL1   H2A 1528   4.814   1.772   6.168 -1.1207 -1.9381  1.3330
   21CHL1   H2B 1529   4.990   1.742   6.176 -0.8131 -1.4281  0.8175
   21CHL1   C20 1530   4.996   1.586   5.190 -0.2248 -0.2320 -0.7194
   21CHL1   H20 1531   5.104   1.572   5.169  0.1604 -0.3243  1.1529
   21CHL1   C21 1532   4.959   1.736   5.203 -0.6097 -0.2767  0.3858
   21CHL1  H21A 1533   5.035   1.788   5.265  0.2574 -1.0881  0.0356
   21CHL1  H21B 1534   4.857   1.753   5.245  0.2709 -1.0168  2.9999
   21CHL1  H21C 1535   4.971   1.774   5.099  0.3808 -0.5186  0.4015
   21CHL1   C22 1536   4.933   1.534   5.062 -0.8521 -0.1367 -0.8904
   21CHL1  H22A 1537   4.975   1.600   4.983  2.8443 -0.1757  0.8279
   21CHL1  H22B 1538   4.964   1.429   5.047  1.2311  0.2259  0.3648
   21CHL1   C23 1539   4.776   1.534   5.066  0.2813  0.2872  0.3721
   21CHL1  H23A 1540   4.724   1.501   5.158  1.6323  0.5492  1.2676
   21CHL1  H23B 1541   4.734   1.636   5.050 -1.4266 -0.2214  1.4264
   21CHL1   C24 1542   4.732   1.434   4.959 -0.0728  0.3637  0.5276
   21CHL1  H24A 1543   4.794   1.342   4.960  1.0156  1.0528 -0.6348
   21CHL1  H24B 1544   4.626   1.405   4.974 -0.9290  1.0168 -3.0887
   21CHL1   C25 1545   4.740   1.488   4.815  0.3387 -0.5671 -0.4700
   21CHL1   H25 1546   4.846   1.504   4.784 -0.1886  0.5103 -1.7934
   21CHL1   C26 1547   4.688   1.387   4.716 -0.2317 -0.7147 -1.0005
   21CHL1  H26A 1548   4.756   1.299   4.710 -0.8949 -1.4509  1.1648
   21CHL1  H26B 1549   4.588   1.341   4.733  0.7404 -2.0801  1.5786
   21CHL1  H26C 1550   4.676   1.425   4.613 -3.0766  4.5673  0.8720
   21CHL1   C27 1551   4.656   1.615   4.789  0.5763 -0.5927 -0.2993
   21CHL1  H27A 1552   4.637   1.633   4.682  0.2110 -1.7856 -0.4532
   21CHL1  H27B 1553   4.556   1.606   4.838  0.1858  3.2812 -0.1360
   21CHL1  H27C 1554   4.698   1.704   4.840  2.0280 -0.2873 -1.9673
   22CHL1    C3 1555   0.152   5.280   6.132  0.5793 -1.0318  0.5118
   22CHL1    H3 1556   0.048   5.318   6.129  0.8475 -0.2804 -1.7813
   22CHL1    O3 1557   0.181   5.230   6.256  0.3839  0.4100 -0.2506
   22CHL1   H3' 1558   0.277   5.221   6.260  0.3291 -2.5252 -1.9769
   22CHL1    C4 1559   0.158   5.168   6.023 -0.4600  0.2397  0.0315
   22CHL1   H4A 1560   0.265   5.139   6.033 -1.1350 -2.0217  1.5599
   22CHL1   H4B 1561   0.101   5.085   6.070 -0.3354  1.8672  3.3049
   22CHL1    C5 1562   0.116   5.214   5.887 -0.0038  0.7358 -0.2504
   22CHL1    C6 1563   0.010   5.170   5.822 -0.0191 -0.9617 -0.4195
   22CHL1    H6 1564  -0.043   5.093   5.880  0.6278 -0.0304  1.4742
   22CHL1    C7 1565  -0.026   5.219   5.683 -0.5094  0.3552 -0.9533
   22CHL1   H7A 1566  -0.059   5.132   5.622  1.3699 -1.3152  0.2845
   22CHL1   H7B 1567  -0.109   5.291   5.693  0.6044  1.4103  1.5827
   22CHL1    C8 1568   0.086   5.290   5.611  0.0753  1.1785 -0.5736
   22CHL1    H8 1569   0.160   5.218   5.569  0.1649  3.1409 -4.1927
   22CHL1   C14 1570   0.039   5.360   5.485  0.5022  0.0609 -0.7893
   22CHL1   H14 1571  -0.030   5.437   5.526  1.9425  1.2314 -0.4782
   22CHL1   C15 1572  -0.036   5.276   5.383 -0.5028  0.4031 -0.5017
   22CHL1  H15A 1573   0.028   5.189   5.355  1.1983  2.0696 -2.2046
   22CHL1  H15B 1574  -0.138   5.242   5.411 -0.0508 -0.9875 -0.4574
   22CHL1   C16 1575  -0.034   5.368   5.262  0.9732 -0.1498  0.2088
   22CHL1  H16A 1576  -0.015   5.303   5.174  1.8010  0.7182 -0.2703
   22CHL1  H16B 1577  -0.137   5.409   5.253  1.1724 -0.0930 -2.9586
   22CHL1   C17 1578   0.058   5.487   5.289 -0.3161 -0.3454  0.4221
   22CHL1   H17 1579  -0.002   5.573   5.327  2.2063  2.1729 -0.9712
   22CHL1   C13 1580   0.148   5.442   5.412  0.2765 -0.2834  0.2699
   22CHL1   C18 1581   0.263   5.347   5.371 -0.1398  0.8423 -0.6816
   22CHL1  H18A 1582   0.317   5.311   5.462 -0.2773 -2.7904 -1.8679
   22CHL1  H18B 1583   0.233   5.256   5.315 -1.4322  0.0564  1.1631
   22CHL1  H18C 1584   0.334   5.411   5.315  1.6609  1.6699  2.3097
   22CHL1   C12 1585   0.204   5.554   5.506 -0.2177 -0.0197 -0.0265
   22CHL1  H12A 1586   0.294   5.604   5.464  1.1482 -1.4534  1.1097
   22CHL1  H12B 1587   0.124   5.626   5.533 -0.7085 -0.6067  0.0986
   22CHL1   C11 1588   0.256   5.490   5.636  0.0366 -1.0194  0.1932
   22CHL1  H11A 1589   0.355   5.451   5.603  0.3959 -0.3469  0.4469
   22CHL1  H11B 1590   0.276   5.567   5.714 -1.9455 -1.0293  0.7475
   22CHL1    C9 1591   0.156   5.396   5.705  0.2173 -1.2301 -0.1197
   22CHL1    H9 1592   0.066   5.455   5.734 -1.5898 -2.8468 -2.1157
   22CHL1   C10 1593   0.211   5.328   5.840 -0.2045 -0.0910 -0.1015
   22CHL1   C19 1594   0.350   5.270   5.804  0.3669 -0.1337 -0.4985
   22CHL1  H19A 1595   0.437   5.336   5.822  0.8400 -1.0631  0.8004
   22CHL1  H19B 1596   0.377   5.174   5.854 -0.9366  0.1629  0.8581
   22CHL1  H19C 1597   0.358   5.254   5.695  3.0164  1.9416 -0.7142
   22CHL1    C1 1598   0.236   5.436   5.953  0.5178 -0.1620 -0.1882
   22CHL1   H1A 1599   0.322   5.503   5.933  1.0138 -1.2202 -1.7650
   22CHL1   H1B 1600   0.143   5.496   5.948  0.4852 -0.2414 -0.5652
   22CHL1    C2 1601   0.260   5.381   6.100 -0.4062  0.1665  0.3659
   22CHL1   H2A 1602   0.282   5.465   6.169  0.9037  1.0618 -1.0631
   22CHL1   H2B 1603   0.357   5.328   6.090  0.7041  1.6592  2.5553
   22CHL1   C20 1604   0.128   5.537   5.164 -0.1144  0.1079  0.1826
   22CHL1   H20 1605   0.188   5.449   5.133  1.6186  1.2231  0.2592
   22CHL1   C21 1606   0.220   5.657   5.191  0.0171 -0.0446 -0.1351
   22CHL1  H21A 1607   0.167   5.742   5.239 -0.7854 -1.0535  0.8384
   22CHL1  H21B 1608   0.277   5.687   5.100  0.8328 -2.3886 -0.4654
   22CHL1  H21C 1609   0.303   5.628   5.260  0.8360  1.9641 -0.1858
   22CHL1   C22 1610   0.021   5.588   5.059 -0.8415 -0.4727  0.1354
   22CHL1  H22A 1611  -0.049   5.505   5.034 -1.4835 -0.1501  0.8199
   22CHL1  H22B 1612  -0.034   5.680   5.090  1.4188  1.2214 -0.5898
   22CHL1   C23 1613   0.074   5.618   4.915  0.5242 -0.7673  0.0585
   22CHL1  H23A 1614   0.123   5.717   4.917 -0.4662 -0.2636  1.9547
   22CHL1  H23B 1615   0.147   5.540   4.885  0.5115 -0.3758 -1.0318
   22CHL1   C24 1616  -0.047   5.630   4.814  0.3277  0.9189  0.5058
   22CHL1  H24A 1617  -0.109   5.538   4.814  1.3612  0.2048 -0.0792
   22CHL1  H24B 1618  -0.114   5.704   4.863 -0.2540  1.1780 -0.6619
   22CHL1   C25 1619  -0.004   5.679   4.676  0.0192 -0.2968 -0.6358
   22CHL1   H25 1620  -0.096   5.697   4.617 -0.9124  0.0827  0.8862
   22CHL1   C26 1621   0.069   5.813   4.672  0.5930  0.2072  0.3665
   22CHL1  H26A 1622   0.010   5.883   4.734 -2.0057 -0.9121 -0.7151
   22CHL1  H26B 1623   0.174   5.798   4.707  0.8147  1.5056  0.3018
   22CHL1  H26C 1624   0.079   5.847   4.567 -0.2274  2.4484  0.9630
   22CHL1   C27 1625   0.080   5.570   4.596  0.5552 -0.5251  0.2051
   22CHL1  H27A 1626   0.170   5.541   4.655  1.0460  1.5072  0.5178
   22CHL1  H27B 1627   0.012   5.482   4.599  0.8592 -0.7385  1.7655
   22CHL1  H27C 1628   0.098   5.582   4.487 -1.6297  0.0965 -0.1349
   23CHL1    C3 1629   5.512   3.451   6.537  0.3539  0.2536 -0.3046
   23CHL1    H3 1630   5.558   3.351   6.528 -1.1329 -0.6280  1.3329
   23CHL1    O3 1631   5.449   3.465   6.664  0.8015 -0.2159  0.0692
   23CHL1   H3' 1632   5.404   3.549   6.673  1.4574  0.0392  1.1816
   23CHL1    C4 1633   5.632   3.552   6.521  0.5339 -0.3326  0.0225
   23CHL1   H4A 1634   5.600   3.654   6.550  1.7553  0.4305 -1.1832
   23CHL1   H4B 1635   5.707   3.536   6.602  2.8305 -1.4902 -2.1769
   23CHL1    C5 1636   5.690   3.541   6.380  0.2973 -0.5238  0.6804
   23CHL1    C6 1637   5.822   3.519   6.363  1.0887  0.7199  1.0036
   23CHL1    H6 1638   5.876   3.518   6.459  0.3887  1.2980  1.4156
   23CHL1    C7 1639   5.888   3.510   6.233  0.0779 -0.6540  0.6722
   23CHL1   H7A 1640   5.985   3.563   6.242 -0.0411  0.2023 -2.2283
   23CHL1   H7B 1641   5.907   3.403   6.209 -3.0904 -0.9301 -1.1515
   23CHL1    C8 1642   5.806   3.567   6.110  0.2853  0.4453  0.8110
   23CHL1    H8 1643   5.787   3.677   6.110 -1.1653  0.2098  0.3499
   23CHL1   C14 1644   5.864   3.525   5.983 -0.5008  0.7453 -0.0276
   23CHL1   H14 1645   5.862   3.415   5.989  1.2767  0.6336 -0.9249
   23CHL1   C15 1646   6.008   3.570   5.946 -0.4458 -0.2746 -0.2794
   23CHL1  H15A 1647   6.022   3.680   5.953  2.6583 -0.6293  0.4141
   23CHL1  H15B 1648   6.083   3.521   6.012  0.2173  0.5258 -0.4217
   23CHL1   C16 1649   6.019   3.514   5.801 -0.1404  0.3200  0.1448
   23CHL1  H16A 1650   6.075   3.595   5.749 -1.4541  0.3055 -1.3410
   23CHL1  H16B 1651   6.084   3.426   5.781  2.2864  1.4987  2.1677
   23CHL1   C17 1652   5.866   3.483   5.755  0.4407  0.5847  0.4466
   23CHL1   H17 1653   5.872   3.373   5.769  0.9102  0.4518 -0.6616
   23CHL1   C13 1654   5.775   3.542   5.864 -0.0123 -0.1460 -0.5202
   23CHL1   C18 1655   5.759   3.693   5.840  0.6112  0.4167  0.4718
   23CHL1  H18A 1656   5.853   3.751   5.826  0.7228  0.2904  0.7014
   23CHL1  H18B 1657   5.696   3.696   5.748  0.9347 -1.6742  0.1305
   23CHL1  H18C 1658   5.708   3.736   5.929  1.2286  0.9884  0.5556
   23CHL1   C12 1659   5.643   3.466   5.876 -0.1276 -0.3792  0.6155
   23CHL1  H12A 1660   5.585   3.482   5.783 -0.9409  0.8373  1.2970
   23CHL1  H12B 1661   5.665   3.357   5.879  1.7196 -0.0717  0.0090
   23CHL1   C11 1662   5.574   3.523   6.000 -0.0010  0.5283  0.0182
   23CHL1  H11A 1663   5.540   3.626   5.976 -0.5790  1.2665  3.4424
   23CHL1  H11B 1664   5.478   3.473   6.025  0.7563 -0.9381  0.0805
   23CHL1    C9 1665   5.661   3.508   6.127  0.4859 -0.1219 -0.6559
   23CHL1    H9 1666   5.684   3.400   6.145 -0.6910 -0.6837 -2.3162
   23CHL1   C10 1667   5.591   3.553   6.260 -0.3399 -0.9166 -0.0632
   23CHL1   C19 1668   5.534   3.692   6.239  1.0573 -0.1639 -0.2596
   23CHL1  H19A 1669   5.459   3.697   6.157 -0.5428 -0.6274  1.1218
   23CHL1  H19B 1670   5.479   3.738   6.324  1.5604  2.2992 -1.1917
   23CHL1  H19C 1671   5.603   3.775   6.214 -1.7912  2.4726 -0.0198
   23CHL1    C1 1672   5.472   3.466   6.288  0.3926  0.1439  0.3622
   23CHL1   H1A 1673   5.388   3.487   6.219  0.7067 -0.9113 -0.3624
   23CHL1   H1B 1674   5.497   3.365   6.251  1.2853  1.1493 -1.9943
   23CHL1    C2 1675   5.412   3.471   6.429 -0.1844 -0.6721 -0.0245
   23CHL1   H2A 1676   5.320   3.409   6.436 -0.4458 -0.1640  1.5994
   23CHL1   H2B 1677   5.370   3.570   6.455 -2.1187 -1.5116  0.1918
   23CHL1   C20 1678   5.840   3.499   5.599 -0.1725 -0.1135 -0.0526
   23CHL1   H20 1679   5.880   3.601   5.582  2.8331 -1.0707  0.7184
   23CHL1   C21 1680   5.693   3.494   5.560  0.0376 -0.0234 -0.0854
   23CHL1  H21A 1681   5.644   3.589   5.592 -0.5081  0.1513 -1.3905
   23CHL1  H21B 1682   5.636   3.405   5.594 -0.2224  0.2249  0.1419
   23CHL1  H21C 1683   5.691   3.498   5.449 -2.9184 -0.2266 -0.1137
   23CHL1   C22 1684   5.928   3.396   5.520  0.0767 -0.0198  0.3487
   23CHL1  H22A 1685   6.035   3.408   5.546  0.1855 -0.3042  0.0395
   23CHL1  H22B 1686   5.912   3.292   5.557  1.3718  0.0483  1.1924
   23CHL1   C23 1687   5.920   3.397   5.364 -0.6428  0.4714 -0.4176
   23CHL1  H23A 1688   6.014   3.344   5.335 -1.2065 -0.1970 -1.0733
   23CHL1  H23B 1689   5.834   3.334   5.333  2.0216 -2.1939 -3.1522
   23CHL1   C24 1690   5.942   3.535   5.307  0.2525 -0.8246  0.1553
   23CHL1  H24A 1691   5.868   3.610   5.342  1.2621  0.0234  0.5267
   23CHL1  H24B 1692   6.043   3.565   5.341 -0.3270  0.9723  0.4016
   23CHL1   C25 1693   5.927   3.539   5.148  0.6100  0.1960  0.1458
   23CHL1   H25 1694   5.960   3.442   5.104  0.3923  1.2212 -2.4151
   23CHL1   C26 1695   5.783   3.554   5.104  0.0801 -0.7989  0.8001
   23CHL1  H26A 1696   5.766   3.574   4.996  1.3934 -0.8977  0.5606
   23CHL1  H26B 1697   5.733   3.458   5.126 -1.0244 -0.2767  0.6471
   23CHL1  H26C 1698   5.728   3.640   5.148  0.4827  0.0681 -0.3546
   23CHL1   C27 1699   5.999   3.666   5.087  0.3925 -0.0490  0.0594
   23CHL1  H27A 1700   5.979   3.665   4.977 -2.6093  1.3110  0.5140
   23CHL1  H27B 1701   5.954   3.763   5.117  0.3424 -0.2787  0.7398
   23CHL1  H27C 1702   6.106   3.652   5.116 -0.4972 -2.9868  2.3921
   24CHL1    C3 1703   0.509   0.929   6.089  0.3832  0.1785 -0.0584
   24CHL1    H3 1704   0.600   0.986   6.061 -0.3928  0.9283 -1.1517
   24CHL1    O3 1705   0.515   0.916   6.229 -0.2959  0.6641 -0.3135
   24CHL1   H3' 1706   0.459   0.840   6.246 -0.3557  0.6016 -0.7700
   24CHL1    C4 1707   0.384   1.012   6.057  0.1270 -0.6126  0.3431
   24CHL1   H4A 1708   0.292   0.981   6.110 -2.5598  1.0931 -2.9382
   24CHL1   H4B 1709   0.404   1.115   6.095 -0.7423 -0.6266  0.8627
   24CHL1    C5 1710   0.355   0.998   5.907  0.1191 -0.0984  0.4210
   24CHL1    C6 1711   0.346   1.112   5.837  1.3867 -0.1627  0.2297
   24CHL1    H6 1712   0.336   1.206   5.894 -2.0519 -0.0748 -0.3250
   24CHL1    C7 1713   0.335   1.126   5.688  0.1408  0.8286 -0.7514
   24CHL1   H7A 1714   0.259   1.206   5.677 -0.0087  1.1966  2.1802
   24CHL1   H7B 1715   0.430   1.167   5.647 -0.6221  2.5108 -0.9079
   24CHL1    C8 1716   0.299   0.988   5.629  0.1060  0.0897  0.2637
   24CHL1    H8 1717   0.192   0.964   5.648  0.3507 -1.2454  0.0184
   24CHL1   C14 1718   0.325   0.987   5.479 -0.3255  0.0623 -0.0354
   24CHL1   H14 1719   0.435   1.001   5.467 -0.2812 -0.0978  0.1743
   24CHL1   C15 1720   0.267   1.109   5.399  0.0776 -0.6966 -0.4801
   24CHL1  H15A 1721   0.165   1.127   5.441 -0.1696 -0.1282 -1.2907
   24CHL1  H15B 1722   0.324   1.203   5.414 -1.7821  0.9011 -2.6571
   24CHL1   C16 1723   0.260   1.065   5.261 -0.2480  0.4193  0.3512
   24CHL1  H16A 1724   0.151   1.067   5.237  0.0588 -0.6759 -1.2733
   24CHL1  H16B 1725   0.319   1.137   5.201  1.9172 -1.5503 -0.0279
   24CHL1   C17 1726   0.302   0.915   5.259  0.0860  0.5237  0.2058
   24CHL1   H17 1727   0.413   0.915   5.253  0.2475 -0.8307  2.1703
   24CHL1   C13 1728   0.277   0.861   5.398 -0.0157  0.1314 -0.0141
   24CHL1   C18 1729   0.127   0.837   5.427 -0.5520  0.7123 -0.4000
   24CHL1  H18A 1730   0.074   0.931   5.400  1.0527  1.0546 -2.6149
   24CHL1  H18B 1731   0.094   0.746   5.373  0.0810  0.2538 -0.0362
   24CHL1  H18C 1732   0.120   0.805   5.533  0.2252 -0.4906 -0.6888
   24CHL1   C12 1733   0.363   0.747   5.449 -0.4845 -0.1355  0.3438
   24CHL1  H12A 1734   0.338   0.649   5.405  1.3755  0.2817 -1.7975
   24CHL1  H12B 1735   0.472   0.760   5.431  0.0746 -1.0554  2.6935
   24CHL1   C11 1736   0.359   0.729   5.608  0.6202 -0.0476 -0.2517
   24CHL1  H11A 1737   0.267   0.676   5.638  1.0271  0.8336  2.8734
   24CHL1  H11B 1738   0.442   0.664   5.643  0.1588 -0.2769  0.4289
   24CHL1    C9 1739   0.373   0.868   5.680  0.7427 -0.0667 -0.5965
   24CHL1    H9 1740   0.481   0.885   5.658  0.8861  1.9936  1.2811
   24CHL1   C10 1741   0.364   0.857   5.839 -0.2062 -0.4022  0.1067
   24CHL1   C19 1742   0.242   0.774   5.887  0.0645 -0.5632  0.3991
   24CHL1  H19A 1743   0.141   0.812   5.860 -0.4471 -0.0702  2.7900
   24CHL1  H19B 1744   0.242   0.671   5.847 -1.2353  0.2649 -1.9887
   24CHL1  H19C 1745   0.236   0.759   5.997  1.0028 -0.5587  0.4543
   24CHL1    C1 1746   0.503   0.786   5.877  0.4301  0.5128  0.2208
   24CHL1   H1A 1747   0.515   0.685   5.832  0.1251  0.0471  1.1566
   24CHL1   H1B 1748   0.579   0.855   5.833  0.3133  0.5540  0.0827
   24CHL1    C2 1749   0.531   0.785   6.027  0.0230  0.0178 -0.9048
   24CHL1   H2A 1750   0.633   0.757   6.058 -0.3248  0.7274  1.0110
   24CHL1   H2B 1751   0.459   0.715   6.075  0.8820  0.6395  1.3950
   24CHL1   C20 1752   0.243   0.825   5.136 -0.0487 -0.3761  0.0090
   24CHL1   H20 1753   0.141   0.790   5.158  0.7016 -2.9659 -0.3168
   24CHL1   C21 1754   0.330   0.698   5.119  0.0273  0.3729  0.0553
   24CHL1  H21A 1755   0.328   0.627   5.205  0.0176  0.2297 -0.0610
   24CHL1  H21B 1756   0.435   0.724   5.096 -0.0213  1.2976  0.8375
   24CHL1  H21C 1757   0.273   0.640   5.042 -1.6240  2.5339 -0.4402
   24CHL1   C22 1758   0.233   0.902   4.998  0.4249  0.4921 -0.2786
   24CHL1  H22A 1759   0.200   0.822   4.928  1.6469  0.4115 -0.7903
   24CHL1  H22B 1760   0.160   0.986   4.997  1.8239  1.7479  0.5339
   24CHL1   C23 1761   0.358   0.942   4.929 -0.2856 -0.3525 -0.3647
   24CHL1  H23A 1762   0.415   1.010   4.995 -3.1954  0.3111  1.6425
   24CHL1  H23B 1763   0.433   0.860   4.925 -2.9446 -2.9348 -2.9510
   24CHL1   C24 1764   0.331   0.994   4.792  0.7097  0.1831  0.3911
   24CHL1  H24A 1765   0.269   0.918   4.740  0.3185  2.5858 -2.9682
   24CHL1  H24B 1766   0.263   1.081   4.783  2.4551  1.3795 -3.1879
   24CHL1   C25 1767   0.457   1.029   4.705  0.1942  0.3961  0.3033
   24CHL1   H25 1768   0.526   1.082   4.774  0.2946  0.0368  0.4745
   24CHL1   C26 1769   0.528   0.896   4.667 -0.6677  0.2763 -0.6954
   24CHL1  H26A 1770   0.562   0.849   4.761  3.3583  5.1093  0.6940
   24CHL1  H26B 1771   0.469   0.822   4.609 -3.5314 -1.2778  3.6869
   24CHL1  H26C 1772   0.629   0.910   4.622  0.0539  0.6668  0.9719
   24CHL1   C27 1773   0.425   1.118   4.576 -0.0051 -0.1916  0.4965
   24CHL1  H27A 1774   0.507   1.127   4.502  0.8855 -1.4055  1.3003
   24CHL1  H27B 1775   0.348   1.074   4.510  1.1776  1.1664 -1.8917
   24CHL1  H27C 1776   0.401   1.220   4.613 -1.5596 -0.7262  1.0613
   25CHL1    C3 1777   4.845   0.835   6.090  0.4055  0.2592 -0.0012
   25CHL1    H3 1778   4.742   0.840   6.048  1.1414 -0.4071 -1.9740
   25CHL1    O3 1779   4.830   0.823   6.227  0.1947 -0.4247 -0.5339
   25CHL1   H3' 1780   4.760   0.886   6.246  1.7224  1.3816 -0.5934
   25CHL1    C4 1781   4.912   0.705   6.042 -0.2045  0.4824  0.4552
   25CHL1   H4A 1782   5.008   0.696   6.097  0.3726  0.2967 -0.5617
   25CHL1   H4B 1783   4.854   0.614   6.068 -1.1588  0.6718 -0.8881
   25CHL1    C5 1784   4.937   0.710   5.891 -0.3461  0.2262 -0.7043
   25CHL1    C6 1785   4.897   0.608   5.819  0.1202  0.6162 -0.5487
   25CHL1    H6 1786   4.845   0.522   5.864  0.9480 -0.0199 -0.7979
   25CHL1    C7 1787   4.914   0.605   5.674 -0.3869  0.3814  0.6675
   25CHL1   H7A 1788   4.928   0.501   5.638  1.8441  0.2682  1.7309
   25CHL1   H7B 1789   4.816   0.639   5.634 -0.1454  1.6147  1.0803
   25CHL1    C8 1790   5.027   0.701   5.624 -0.1239  0.3139 -0.4305
   25CHL1    H8 1791   5.118   0.657   5.670 -2.0637 -2.2888  1.2537
   25CHL1   C14 1792   5.029   0.702   5.464 -0.2917  0.4114  0.7293
   25CHL1   H14 1793   4.928   0.746   5.451  0.0131  1.2797  1.2468
   25CHL1   C15 1794   5.022   0.570   5.378 -0.3299 -0.0639  0.0678
   25CHL1  H15A 1795   5.085   0.492   5.427  0.5568 -1.4436 -3.0138
   25CHL1  H15B 1796   4.914   0.545   5.380 -0.2602 -0.3113  1.9964
   25CHL1   C16 1797   5.074   0.619   5.244 -0.4302  0.6001  0.2949
   25CHL1  H16A 1798   5.167   0.564   5.219 -0.2718 -0.0014  2.1237
   25CHL1  H16B 1799   5.005   0.596   5.160  0.5115 -0.3807 -0.2424
   25CHL1   C17 1800   5.106   0.766   5.248  0.3454  0.2485 -0.2884
   25CHL1   H17 1801   5.007   0.813   5.232 -1.4768 -2.0903  3.1566
   25CHL1   C13 1802   5.135   0.789   5.399 -0.2468 -0.1521  0.8658
   25CHL1   C18 1803   5.281   0.722   5.432 -0.0205  0.5732 -0.1113
   25CHL1  H18A 1804   5.316   0.742   5.536 -1.1788 -1.8083  0.8203
   25CHL1  H18B 1805   5.276   0.614   5.404 -0.2849 -0.1031  2.3009
   25CHL1  H18C 1806   5.365   0.765   5.373  2.1254 -2.5176  0.4041
   25CHL1   C12 1807   5.122   0.936   5.459  0.7956 -0.0618 -0.4156
   25CHL1  H12A 1808   5.203   0.998   5.413  3.1728 -1.8534  1.1327
   25CHL1  H12B 1809   5.027   0.982   5.424  0.9015  2.0916  1.8234
   25CHL1   C11 1810   5.119   0.931   5.616 -0.9817  0.2337  0.2031
   25CHL1  H11A 1811   5.224   0.910   5.646 -0.3218  0.2608 -1.9022
   25CHL1  H11B 1812   5.109   1.038   5.643 -1.3512  0.3230 -0.2617
   25CHL1    C9 1813   5.015   0.840   5.685 -0.3492  0.5400  0.0724
   25CHL1    H9 1814   4.920   0.883   5.646 -1.2576 -0.7623  0.7751
   25CHL1   C10 1815   5.007   0.833   5.843 -0.2207 -0.4079  0.4490
   25CHL1   C19 1816   5.155   0.824   5.888  0.2559 -0.1505 -0.4436
   25CHL1  H19A 1817   5.213   0.765   5.814  0.8867  1.0259 -0.9236
   25CHL1  H19B 1818   5.205   0.923   5.895  0.3523 -0.2992  1.5378
   25CHL1  H19C 1819   5.169   0.773   5.986 -1.2996  0.8434  0.3351
   25CHL1    C1 1820   4.941   0.964   5.910 -0.3858  0.3331  0.0610
   25CHL1   H1A 1821   4.998   1.054   5.879  2.2236 -1.0732  0.5151
   25CHL1   H1B 1822   4.835   0.975   5.880 -0.3157 -1.3132 -0.8920
   25CHL1    C2 1823   4.921   0.962   6.061 -0.6028 -0.5517  0.8238
   25CHL1   H2A 1824   4.860   1.048   6.095 -0.7195 -0.0537 -0.5882
   25CHL1   H2B 1825   5.015   0.966   6.120  1.5725  0.7738 -2.4605
   25CHL1   C20 1826   5.209   0.820   5.137  0.0257 -0.4239  0.3047
   25CHL1   H20 1827   5.311   0.807   5.178 -0.3190  1.4041  1.9062
   25CHL1   C21 1828   5.171   0.968   5.120  0.2819 -0.5482  0.6505
   25CHL1  H21A 1829   5.217   1.025   5.203 -0.4432  0.2676  0.5097
   25CHL1  H21B 1830   5.060   0.978   5.120  0.2509  0.9790  4.5639
   25CHL1  H21C 1831   5.201   1.009   5.021 -1.2627  0.9446  0.7563
   25CHL1   C22 1832   5.204   0.747   4.994 -0.1293 -0.7280 -0.4550
   25CHL1  H22A 1833   5.209   0.639   5.020  1.7117 -0.7942 -0.8940
   25CHL1  H22B 1834   5.108   0.771   4.945 -0.0417  0.0307 -0.2784
   25CHL1   C23 1835   5.324   0.786   4.908  0.0449  1.0263  0.0628
   25CHL1  H23A 1836   5.323   0.892   4.874 -0.7727  0.7114 -0.9351
   25CHL1  H23B 1837   5.420   0.761   4.959 -0.1619  0.8105  0.3505
   25CHL1   C24 1838   5.309   0.699   4.782  0.1637 -0.3710 -0.3373
   25CHL1  H24A 1839   5.340   0.594   4.802  1.3456 -0.0554 -0.4648
   25CHL1  H24B 1840   5.202   0.699   4.753 -0.4840  2.4596  1.5726
   25CHL1   C25 1841   5.380   0.754   4.652  0.1053 -0.1724  0.1040
   25CHL1   H25 1842   5.355   0.862   4.641  0.3205 -0.1924 -0.6705
   25CHL1   C26 1843   5.537   0.756   4.662  0.2206 -0.0799 -0.0579
   25CHL1  H26A 1844   5.556   0.808   4.758  3.7198 -2.3530  0.6574
   25CHL1  H26B 1845   5.577   0.653   4.665 -0.6007 -0.5089 -1.9982
   25CHL1  H26C 1846   5.572   0.810   4.571  0.3396  0.4831  0.3126
   25CHL1   C27 1847   5.327   0.680   4.530 -0.4877  0.1895 -0.1709
   25CHL1  H27A 1848   5.361   0.744   4.446 -1.8714 -0.1799 -1.0452
   25CHL1  H27B 1849   5.363   0.576   4.517  0.0080  0.3003  0.3130
   25CHL1  H27C 1850   5.216   0.673   4.534 -0.4629 -1.4775 -1.4135
   26CHL1    C3 1851   2.054   6.753   6.397 -0.3893  0.5832  0.1988
   26CHL1    H3 1852   1.956   6.714   6.361 -1.4405  3.2983 -0.1497
   26CHL1    O3 1853   2.058   6.734   6.539 -0.0907  0.0350 -0.6060
   26CHL1   H3' 1854   2.148   6.760   6.558  1.3185 -2.9485 -2.4595
   26CHL1    C4 1855   2.166   6.672   6.331 -0.4165  0.4292 -0.0291
   26CHL1   H4A 1856   2.264   6.707   6.371 -0.4254  1.0202 -0.5223
   26CHL1   H4B 1857   2.154   6.568   6.370  0.8799  0.7998  1.4680
   26CHL1    C5 1858   2.158   6.688   6.182 -0.3588  0.0228 -0.6305
   26CHL1    C6 1859   2.142   6.585   6.101 -0.1229  0.1558 -0.0873
   26CHL1    H6 1860   2.134   6.482   6.139 -0.4177 -0.6210 -2.0961
   26CHL1    C7 1861   2.140   6.583   5.958 -0.2328  0.3598 -0.0624
   26CHL1   H7A 1862   2.226   6.529   5.913  0.9696  2.2208 -0.1207
   26CHL1   H7B 1863   2.047   6.533   5.923 -0.2428 -0.9237  1.6940
   26CHL1    C8 1864   2.152   6.719   5.899 -0.0802  0.5034 -0.0997
   26CHL1    H8 1865   2.260   6.738   5.882  0.3049  0.4777  2.0351
   26CHL1   C14 1866   2.071   6.721   5.770  0.4544 -0.5621 -0.2123
   26CHL1   H14 1867   1.965   6.707   5.799  0.4706  0.9934  0.7178
   26CHL1   C15 1868   2.101   6.605   5.668  0.3670  0.4199  0.8028
   26CHL1  H15A 1869   2.211   6.598   5.655  0.7369 -1.5982  3.9629
   26CHL1  H15B 1870   2.066   6.504   5.701  0.3398  1.2149  3.4218
   26CHL1   C16 1871   2.030   6.649   5.539  0.1280 -0.1164 -0.5709
   26CHL1  H16A 1872   2.091   6.623   5.450  1.2342  0.9090 -0.1228
   26CHL1  H16B 1873   1.935   6.593   5.521 -0.4202  0.8361 -0.7231
   26CHL1   C17 1874   1.994   6.801   5.558  0.2130  0.2404 -0.5810
   26CHL1   H17 1875   1.889   6.809   5.592  0.3598 -1.6021  0.4408
   26CHL1   C13 1876   2.070   6.845   5.684  0.0179 -0.1395 -0.6955
   26CHL1   C18 1877   2.210   6.882   5.643  0.3559  0.0844  0.5296
   26CHL1  H18A 1878   2.282   6.893   5.727 -1.2914  1.5377  1.8458
   26CHL1  H18B 1879   2.251   6.804   5.575  0.4005  0.8378 -0.3233
   26CHL1  H18C 1880   2.215   6.980   5.592  1.4450  0.6626  1.6955
   26CHL1   C12 1881   2.010   6.957   5.771  0.0974  1.0612  0.1298
   26CHL1  H12A 1882   2.013   7.058   5.724  0.3200  0.8325 -0.3555
   26CHL1  H12B 1883   1.903   6.929   5.786  0.3433 -1.3422 -1.9552
   26CHL1   C11 1884   2.083   6.972   5.912 -0.1842  0.5027  0.2256
   26CHL1  H11A 1885   2.190   7.002   5.909  0.1425 -0.6108  0.2791
   26CHL1  H11B 1886   2.035   7.047   5.978  1.6096  0.2159  1.9793
   26CHL1    C9 1887   2.091   6.829   5.984 -0.4719 -0.0160 -0.3699
   26CHL1    H9 1888   1.986   6.798   6.004 -0.6850  1.9415  1.8590
   26CHL1   C10 1889   2.145   6.834   6.135  0.0647 -0.5682  1.0245
   26CHL1   C19 1890   2.280   6.907   6.135 -0.0486 -0.4090  0.2357
   26CHL1  H19A 1891   2.306   6.918   6.242  0.6577 -1.5912  0.1992
   26CHL1  H19B 1892   2.352   6.844   6.079 -1.3490 -0.7685 -1.1082
   26CHL1  H19C 1893   2.271   7.010   6.095 -0.7817  0.1814  1.8500
   26CHL1    C1 1894   2.046   6.931   6.221 -0.2113 -0.1419 -0.4590
   26CHL1   H1A 1895   2.085   7.033   6.199 -0.6565 -0.3677 -2.5295
   26CHL1   H1B 1896   1.943   6.923   6.180 -0.0193 -0.0229 -0.9822
   26CHL1    C2 1897   2.068   6.898   6.373 -0.3408 -0.4295  0.0245
   26CHL1   H2A 1898   1.982   6.947   6.423 -0.2331 -0.2947  0.0764
   26CHL1   H2B 1899   2.159   6.950   6.407 -0.0846 -0.5736 -0.4288
   26CHL1   C20 1900   2.000   6.878   5.433  0.0026 -0.1053  0.1225
   26CHL1   H20 1901   2.105   6.885   5.398  0.1731  0.2568  0.7034
   26CHL1   C21 1902   1.964   7.026   5.464 -0.7162 -0.6093 -0.4160
   26CHL1  H21A 1903   1.932   7.074   5.369  1.9554  0.1072 -1.0607
   26CHL1  H21B 1904   2.058   7.077   5.494 -0.7049 -1.5724  1.3196
   26CHL1  H21C 1905   1.887   7.039   5.543 -0.5706  2.7776 -0.6691
   26CHL1   C22 1906   1.914   6.825   5.310  0.1509  0.3212 -0.0284
   26CHL1  H22A 1907   1.864   6.729   5.335 -1.5422  1.5195  1.4371
   26CHL1  H22B 1908   1.835   6.901   5.291 -0.3687 -0.7216 -2.4887
   26CHL1   C23 1909   2.004   6.805   5.178  0.0804 -0.0473  0.4203
   26CHL1  H23A 1910   1.935   6.780   5.095  1.2727 -1.6160 -0.1489
   26CHL1  H23B 1911   2.055   6.902   5.163 -2.2672  1.8857  3.6509
   26CHL1   C24 1912   2.114   6.703   5.193  0.4247  0.0097  0.2208
   26CHL1  H24A 1913   2.170   6.706   5.289 -3.8827 -1.1515  3.0771
   26CHL1  H24B 1914   2.069   6.601   5.190  0.0536  0.1797 -0.0902
   26CHL1   C25 1915   2.201   6.697   5.062 -0.1818 -0.0340  0.2768
   26CHL1   H25 1916   2.134   6.687   4.974  0.7221  0.4483 -0.4878
   26CHL1   C26 1917   2.283   6.828   5.048  0.1889  0.1085  0.0955
   26CHL1  H26A 1918   2.357   6.829   4.966  2.6325 -2.8660  2.0207
   26CHL1  H26B 1919   2.211   6.906   5.014 -0.9154 -1.2069 -0.6775
   26CHL1  H26C 1920   2.328   6.854   5.146  2.2981  0.3261 -0.8779
   26CHL1   C27 1921   2.296   6.573   5.071  0.2041 -0.0126 -0.4949
   26CHL1  H27A 1922   2.361   6.574   5.161  0.0321 -2.6439 -0.2590
   26CHL1  H27B 1923   2.232   6.482   5.074  0.9380 -0.5237 -0.1202
   26CHL1  H27C 1924   2.355   6.573   4.978  1.1208  0.8228  0.0757
   27CHL1    C3 1925   0.594   5.746   6.143 -0.0630  0.4075 -0.8825
   27CHL1    H3 1926   0.607   5.638   6.122  3.8392 -0.0462  2.6347
   27CHL1    O3 1927   0.530   5.742   6.274 -0.5208 -0.0807 -0.1812
   27CHL1   H3' 1928   0.522   5.834   6.299 -0.0038  1.3653 -4.4123
   27CHL1    C4 1929   0.726   5.824   6.146  0.5714 -0.2533 -0.6247
   27CHL1   H4A 1930   0.706   5.928   6.182 -2.8031 -0.8171 -0.5340
   27CHL1   H4B 1931   0.783   5.789   6.234  0.1155  3.6553  1.4439
   27CHL1    C5 1932   0.804   5.805   6.026  0.0628  0.5038 -0.3484
   27CHL1    C6 1933   0.925   5.754   6.010  0.5048 -0.1297  0.0586
   27CHL1    H6 1934   0.971   5.711   6.100 -1.6625  1.2139  1.9059
   27CHL1    C7 1935   1.007   5.750   5.885  0.8921  0.2052 -0.1925
   27CHL1   H7A 1936   1.109   5.789   5.906  0.2315  1.6085  0.5617
   27CHL1   H7B 1937   1.019   5.642   5.861  2.8573  0.4347 -0.3689
   27CHL1    C8 1938   0.952   5.830   5.777  0.2139  0.0023  0.8883
   27CHL1    H8 1939   0.974   5.937   5.801  2.2268 -0.0965 -0.2803
   27CHL1   C14 1940   1.000   5.800   5.630 -0.3826 -0.0554  0.1614
   27CHL1   H14 1941   0.971   5.695   5.608  0.8665 -0.0701 -1.6447
   27CHL1   C15 1942   1.158   5.809   5.611  0.2243  0.5769  0.3646
   27CHL1  H15A 1943   1.190   5.905   5.656  1.2397  0.5991 -0.3715
   27CHL1  H15B 1944   1.214   5.725   5.657 -0.2243  0.3170  0.4438
   27CHL1   C16 1945   1.159   5.818   5.453 -0.1162  0.3062  0.6189
   27CHL1  H16A 1946   1.213   5.910   5.420  0.3660 -0.2176 -0.0803
   27CHL1  H16B 1947   1.224   5.733   5.426 -0.8117 -0.2428  0.6490
   27CHL1   C17 1948   1.016   5.826   5.393 -1.2926  0.4586 -0.0586
   27CHL1   H17 1949   1.002   5.715   5.387  0.6202  0.2145 -0.7917
   27CHL1   C13 1950   0.936   5.883   5.514 -0.1807  0.4427  0.2167
   27CHL1   C18 1951   0.956   6.035   5.541 -0.0688 -0.5630 -0.4138
   27CHL1  H18A 1952   1.056   6.077   5.563  1.1649 -3.2723 -0.3857
   27CHL1  H18B 1953   0.925   6.083   5.446 -0.2896  0.9235  0.3892
   27CHL1  H18C 1954   0.892   6.073   5.623  1.6414  0.4762  0.4963
   27CHL1   C12 1955   0.792   5.852   5.508  0.0624 -0.1264 -0.5716
   27CHL1  H12A 1956   0.739   5.911   5.429 -0.7060 -0.3309 -0.2194
   27CHL1  H12B 1957   0.781   5.746   5.477 -0.1911  0.1312 -1.4051
   27CHL1   C11 1958   0.724   5.876   5.644  0.9552  0.6237 -0.0322
   27CHL1  H11A 1959   0.702   5.983   5.662  0.5872  0.1812  2.4406
   27CHL1  H11B 1960   0.628   5.821   5.634  0.3132  1.7994 -0.4939
   27CHL1    C9 1961   0.800   5.816   5.767 -0.0382 -0.4679  0.3217
   27CHL1    H9 1962   0.778   5.707   5.761 -0.4127 -0.4222  0.7564
   27CHL1   C10 1963   0.725   5.856   5.905 -0.1414  0.5897  0.7487
   27CHL1   C19 1964   0.730   6.011   5.923  0.0804 -0.1428 -0.6273
   27CHL1  H19A 1965   0.689   6.040   6.022  1.9126 -1.5652  0.6122
   27CHL1  H19B 1966   0.837   6.043   5.915 -0.0167  0.1326 -0.8502
   27CHL1  H19C 1967   0.685   6.083   5.851  0.7177  1.3356  0.4024
   27CHL1    C1 1968   0.578   5.801   5.905  0.2947 -0.3689 -0.3270
   27CHL1   H1A 1969   0.521   5.870   5.839 -3.3253 -1.6944  1.2097
   27CHL1   H1B 1970   0.575   5.698   5.865  2.2480 -1.3235  1.7651
   27CHL1    C2 1971   0.504   5.805   6.044 -0.1294  0.0890 -0.4380
   27CHL1   H2A 1972   0.408   5.753   6.026 -1.3796  2.5209 -1.2772
   27CHL1   H2B 1973   0.498   5.913   6.068 -0.6165  0.4597 -2.1237
   27CHL1   C20 1974   1.001   5.889   5.255 -0.4589 -0.1405 -0.9143
   27CHL1   H20 1975   0.903   5.941   5.257  0.8044  2.3407  0.7445
   27CHL1   C21 1976   0.977   5.771   5.152  0.1684  0.0293  0.3146
   27CHL1  H21A 1977   0.898   5.703   5.190  0.9930 -1.2857 -0.2500
   27CHL1  H21B 1978   1.077   5.723   5.138  0.0748 -0.1550  0.2830
   27CHL1  H21C 1979   0.934   5.810   5.057  0.1529 -0.9242 -0.0775
   27CHL1   C22 1980   1.099   5.996   5.203  0.0698 -0.0145 -0.0692
   27CHL1  H22A 1981   1.091   6.091   5.260  1.6832  1.1298 -1.6359
   27CHL1  H22B 1982   1.196   5.945   5.219 -1.5789 -2.7526  2.1494
   27CHL1   C23 1983   1.077   6.036   5.061  0.2877 -0.0126 -0.2536
   27CHL1  H23A 1984   1.067   5.952   4.988 -2.0156  0.0392 -0.0630
   27CHL1  H23B 1985   0.974   6.076   5.065 -0.2062 -1.3478  0.8138
   27CHL1   C24 1986   1.181   6.148   5.017 -0.7275 -0.1794  0.1743
   27CHL1  H24A 1987   1.189   6.228   5.094 -1.3918  0.2511 -0.1992
   27CHL1  H24B 1988   1.271   6.083   5.022 -0.2524  0.5422  2.5710
   27CHL1   C25 1989   1.166   6.201   4.877  0.0861 -0.1773 -0.0730
   27CHL1   H25 1990   1.068   6.252   4.881 -0.1255 -0.6153  0.4841
   27CHL1   C26 1991   1.274   6.306   4.837  0.7943 -0.9078 -0.9628
   27CHL1  H26A 1992   1.237   6.345   4.740  0.3100  0.5261 -0.2274
   27CHL1  H26B 1993   1.273   6.397   4.901  1.7490  0.3911 -2.7221
   27CHL1  H26C 1994   1.376   6.262   4.827  0.4930 -1.9615  0.3036
   27CHL1   C27 1995   1.170   6.090   4.776  0.2015 -1.1176 -0.1935
   27CHL1  H27A 1996   1.170   6.129   4.672  1.7867  1.5231  0.6838
   27CHL1  H27B 1997   1.259   6.027   4.798  0.3273 -1.1546 -0.7890
   27CHL1  H27C 1998   1.083   6.022   4.787  1.2449 -2.5582 -0.6040
   28CHL1    C3 1999   5.911   5.830   6.394  0.9652  0.4693  0.0211
   28CHL1    H3 2000   5.817   5.771   6.392  0.9343  0.5267 -1.6600
   28CHL1    O3 2001   5.946   5.851   6.533  0.2956 -0.0162  0.5288
   28CHL1   H3' 2002   5.968   5.767   6.575 -1.2640  0.3285  2.1794
   28CHL1    C4 2003   6.027   5.751   6.331 -0.2926  0.2901 -0.7136
   28CHL1   H4A 2004   6.111   5.822   6.347 -1.0100  0.5337  2.9921
   28CHL1   H4B 2005   6.042   5.658   6.390  0.0584  0.5386 -0.4056
   28CHL1    C5 2006   6.003   5.718   6.188 -0.8005 -0.0803  0.7424
   28CHL1    C6 2007   6.012   5.592   6.135  0.1498 -0.1534  0.2180
   28CHL1    H6 2008   6.040   5.503   6.193  0.7172  0.7469  1.3604
   28CHL1    C7 2009   6.001   5.552   5.993 -0.3207  0.1126  1.3103
   28CHL1   H7A 2010   6.084   5.483   5.963 -2.1533 -1.3072 -0.7803
   28CHL1   H7B 2011   5.906   5.496   5.993  1.1574 -2.5724  0.6461
   28CHL1    C8 2012   5.991   5.677   5.889  0.1018 -0.7930 -0.0625
   28CHL1    H8 2013   6.098   5.704   5.873  1.1588 -2.5798  3.0512
   28CHL1   C14 2014   5.922   5.639   5.762  0.3132 -0.0243 -0.5992
   28CHL1   H14 2015   5.820   5.619   5.800  1.3533 -0.0964  2.4911
   28CHL1   C15 2016   5.978   5.520   5.688 -0.8056  0.2895  0.7642
   28CHL1  H15A 2017   6.088   5.513   5.698 -0.9119  0.3560  2.1333
   28CHL1  H15B 2018   5.927   5.431   5.729  1.1970 -1.5915 -0.6032
   28CHL1   C16 2019   5.941   5.545   5.537  0.4505  0.3684 -0.2685
   28CHL1  H16A 2020   6.035   5.549   5.479 -0.3733  0.3272 -1.6540
   28CHL1  H16B 2021   5.879   5.462   5.496  1.6437 -1.1462  0.8549
   28CHL1   C17 2022   5.858   5.677   5.536  0.7084 -0.9279 -0.0952
   28CHL1   H17 2023   5.754   5.643   5.556 -0.0564  1.3231  0.1195
   28CHL1   C13 2024   5.906   5.752   5.660  0.4701 -0.2453  1.0058
   28CHL1   C18 2025   6.046   5.819   5.624  0.1567  0.6939 -0.5065
   28CHL1  H18A 2026   6.045   5.908   5.558 -0.4932  2.3575  1.6699
   28CHL1  H18B 2027   6.086   5.870   5.714  0.6128  1.4349 -1.1171
   28CHL1  H18C 2028   6.120   5.740   5.596  0.7641  0.9617  0.3209
   28CHL1   C12 2029   5.819   5.860   5.726 -0.6827 -0.0683 -0.5897
   28CHL1  H12A 2030   5.809   5.946   5.656  1.5204  2.0724  1.5209
   28CHL1  H12B 2031   5.719   5.811   5.733  0.0842 -1.8850 -1.8191
   28CHL1   C11 2032   5.867   5.913   5.863 -0.1100  0.2519  0.3862
   28CHL1  H11A 2033   5.944   5.993   5.851  0.4711 -0.1852  1.1312
   28CHL1  H11B 2034   5.776   5.961   5.905 -0.3766  0.3977 -0.3486
   28CHL1    C9 2035   5.910   5.796   5.954  0.3680  0.6721  0.1085
   28CHL1    H9 2036   5.813   5.748   5.979  0.8947 -1.4693 -1.7130
   28CHL1   C10 2037   5.969   5.837   6.094 -0.3743 -0.0322 -0.0070
   28CHL1   C19 2038   6.098   5.915   6.075 -0.4182  0.3019  0.2005
   28CHL1  H19A 2039   6.090   5.985   5.989  1.6119 -0.8185 -0.9820
   28CHL1  H19B 2040   6.126   5.979   6.162 -1.0160  0.3128  0.3898
   28CHL1  H19C 2041   6.183   5.848   6.050 -0.8270 -0.7166  1.4372
   28CHL1    C1 2042   5.858   5.917   6.168 -0.2591  0.8710 -0.2623
   28CHL1   H1A 2043   5.847   6.004   6.099  2.5995  1.2630 -0.3486
   28CHL1   H1B 2044   5.765   5.859   6.149  1.5848 -1.4787 -2.8145
   28CHL1    C2 2045   5.882   5.958   6.315 -0.1607  0.6356 -0.3052
   28CHL1   H2A 2046   5.790   6.001   6.361 -0.3722  1.0708 -1.0978
   28CHL1   H2B 2047   5.975   6.018   6.318  0.7513 -0.7587  0.4427
   28CHL1   C20 2048   5.848   5.752   5.399  0.1595  0.4234  0.2076
   28CHL1   H20 2049   5.939   5.816   5.393 -0.6883  1.8388  1.5927
   28CHL1   C21 2050   5.719   5.836   5.399 -0.1166  0.5042  0.0880
   28CHL1  H21A 2051   5.747   5.925   5.460  0.9965  0.0367  0.2774
   28CHL1  H21B 2052   5.637   5.779   5.447  0.4585  1.6663  2.6200
   28CHL1  H21C 2053   5.682   5.866   5.299 -2.1953 -0.5965  0.4651
   28CHL1   C22 2054   5.861   5.661   5.276 -0.1257  0.4857 -0.3202
   28CHL1  H22A 2055   5.944   5.587   5.279 -1.6038 -1.3000 -1.3412
   28CHL1  H22B 2056   5.768   5.601   5.288  0.4315 -0.0390  1.6916
   28CHL1   C23 2057   5.865   5.732   5.139  0.4097 -0.2593 -0.3682
   28CHL1  H23A 2058   5.758   5.764   5.134  0.2191 -0.3441  1.9876
   28CHL1  H23B 2059   5.938   5.814   5.152 -0.6517  0.3349  2.6164
   28CHL1   C24 2060   5.889   5.641   5.018 -0.2475 -0.5253 -0.1980
   28CHL1  H24A 2061   5.974   5.574   5.041  0.3658  0.7815  1.5152
   28CHL1  H24B 2062   5.796   5.580   5.011 -1.3118  0.7823  1.7826
   28CHL1   C25 2063   5.907   5.728   4.895  0.3214  0.8036  0.6479
   28CHL1   H25 2064   5.975   5.808   4.930  0.2537  0.9364  0.4812
   28CHL1   C26 2065   5.977   5.647   4.786 -0.4566  0.8501 -0.2509
   28CHL1  H26A 2066   6.067   5.607   4.836 -0.8551  0.2087 -0.0337
   28CHL1  H26B 2067   5.913   5.564   4.750  0.6043 -1.5016  2.8706
   28CHL1  H26C 2068   5.994   5.706   4.693 -0.0867  0.7028 -0.2768
   28CHL1   C27 2069   5.769   5.787   4.833 -0.0274  0.1081 -0.0549
   28CHL1  H27A 2070   5.786   5.829   4.732  0.7663  0.8238  0.3586
   28CHL1  H27B 2071   5.697   5.703   4.831  1.4993 -1.2489  0.0630
   28CHL1  H27C 2072   5.739   5.878   4.890  1.8881  2.5266 -2.6303
   29CHL1    C3 2073   6.396   2.552   2.847  0.2177 -0.1882 -0.0239
   29CHL1    H3 2074   6.290   2.575   2.872 -0.1260 -0.5824 -1.0814
   29CHL1    O3 2075   6.418   2.571   2.710  0.4465  0.6939  0.7538
   29CHL1   H3' 2076   6.476   2.497   2.690 -0.5907 -0.5625  2.1242
   29CHL1    C4 2077   6.485   2.646   2.922 -0.0755 -0.7722 -0.3582
   29CHL1   H4A 2078   6.589   2.634   2.883  0.5741  2.4933  0.0049
   29CHL1   H4B 2079   6.450   2.749   2.899  0.9957  0.3731  2.5353
   29CHL1    C5 2080   6.498   2.627   3.073  0.8045  0.6336  0.0044
   29CHL1    C6 2081   6.468   2.728   3.155  0.2741 -0.0597  0.5402
   29CHL1    H6 2082   6.426   2.819   3.111 -2.0616 -2.4140 -2.4639
   29CHL1    C7 2083   6.487   2.724   3.302  0.9530 -0.1508  0.0455
   29CHL1   H7A 2084   6.534   2.819   3.336 -3.6783  2.7638 -0.7464
   29CHL1   H7B 2085   6.384   2.718   3.343  0.3629 -1.1138 -1.5022
   29CHL1    C8 2086   6.564   2.597   3.351  0.1766 -0.9941 -0.2551
   29CHL1    H8 2087   6.672   2.617   3.334 -0.2425  0.8975 -0.8632
   29CHL1   C14 2088   6.533   2.582   3.497  0.4147  0.0337 -0.4031
   29CHL1   H14 2089   6.425   2.555   3.506  0.2323  1.2712  2.0690
   29CHL1   C15 2090   6.542   2.707   3.588 -0.5896 -0.3638 -0.8576
   29CHL1  H15A 2091   6.629   2.774   3.567 -1.3445  0.8131 -0.3666
   29CHL1  H15B 2092   6.448   2.764   3.570 -0.0972 -0.1738 -3.0088
   29CHL1   C16 2093   6.558   2.648   3.731  0.1140  0.4871  0.5386
   29CHL1  H16A 2094   6.655   2.682   3.775  0.0343 -0.8005  1.7994
   29CHL1  H16B 2095   6.476   2.675   3.800  0.1041  3.4902 -0.5330
   29CHL1   C17 2096   6.560   2.492   3.717 -0.5483  0.2927 -0.0866
   29CHL1   H17 2097   6.452   2.468   3.717 -0.4809 -0.0221  0.5120
   29CHL1   C13 2098   6.609   2.469   3.567  0.0680  0.2236 -0.2989
   29CHL1   C18 2099   6.760   2.495   3.560 -0.2815  0.2643  0.2354
   29CHL1  H18A 2100   6.792   2.503   3.453 -1.3235  1.2116 -0.0241
   29CHL1  H18B 2101   6.795   2.586   3.612  1.2012  0.0023 -0.2694
   29CHL1  H18C 2102   6.817   2.410   3.603 -0.2513  0.5402  0.7418
   29CHL1   C12 2103   6.568   2.343   3.502  0.1686  0.3523  0.8768
   29CHL1  H12A 2104   6.626   2.261   3.551 -0.7650 -0.3695  0.7887
   29CHL1  H12B 2105   6.461   2.323   3.520  0.2619  0.6724  1.8321
   29CHL1   C11 2106   6.590   2.349   3.344  0.7350  0.2269  0.3089
   29CHL1  H11A 2107   6.700   2.356   3.327  0.4241  1.3703 -1.5641
   29CHL1  H11B 2108   6.547   2.264   3.286 -0.0208  0.2598  0.8100
   29CHL1    C9 2109   6.521   2.472   3.279 -0.5414 -0.2895 -0.4617
   29CHL1    H9 2110   6.413   2.455   3.297  0.2945 -3.5063  2.5331
   29CHL1   C10 2111   6.541   2.485   3.123  0.0253  0.1133  0.0246
   29CHL1   C19 2112   6.682   2.440   3.091 -0.9531 -0.2474  0.0598
   29CHL1  H19A 2113   6.715   2.455   2.987 -0.6522 -0.5304  0.1148
   29CHL1  H19B 2114   6.752   2.495   3.158 -1.9774 -0.6450  1.5300
   29CHL1  H19C 2115   6.692   2.330   3.098  1.5679 -0.0324  0.8366
   29CHL1    C1 2116   6.439   2.400   3.048  0.8220  0.0712 -0.8018
   29CHL1   H1A 2117   6.466   2.293   3.065 -0.4099  0.1334  2.2608
   29CHL1   H1B 2118   6.338   2.421   3.089  1.8314  0.4998  1.6249
   29CHL1    C2 2119   6.440   2.414   2.895 -0.5728 -0.2439 -0.1943
   29CHL1   H2A 2120   6.365   2.340   2.858 -0.0740  0.2978 -2.4713
   29CHL1   H2B 2121   6.543   2.399   2.857 -0.6048  2.3080 -1.4981
   29CHL1   C20 2122   6.628   2.412   3.836 -0.7732 -0.3370 -0.7562
   29CHL1   H20 2123   6.739   2.414   3.825 -0.4494 -1.7057  1.5805
   29CHL1   C21 2124   6.603   2.261   3.833  0.2214 -0.2570 -0.0722
   29CHL1  H21A 2125   6.662   2.205   3.908  0.8725 -1.9815 -1.7955
   29CHL1  H21B 2126   6.624   2.219   3.733 -1.6920  1.0158 -1.0805
   29CHL1  H21C 2127   6.495   2.256   3.858 -0.0992  1.2411 -0.9876
   29CHL1   C22 2128   6.608   2.483   3.981  0.2758 -1.0669 -0.3951
   29CHL1  H22A 2129   6.659   2.581   3.978  0.7986 -1.3429 -0.7274
   29CHL1  H22B 2130   6.506   2.529   3.986  1.2027  0.9561  1.4541
   29CHL1   C23 2131   6.640   2.407   4.105 -0.0303  0.3473 -0.3304
   29CHL1  H23A 2132   6.604   2.462   4.194  2.7842  0.4795  0.8265
   29CHL1  H23B 2133   6.599   2.303   4.098  0.2397  0.1887  0.3859
   29CHL1   C24 2134   6.789   2.398   4.122 -0.3500 -0.1044  0.0406
   29CHL1  H24A 2135   6.838   2.351   4.034 -0.1382  0.1114  0.0424
   29CHL1  H24B 2136   6.835   2.498   4.136 -0.2478 -0.3712  1.8036
   29CHL1   C25 2137   6.838   2.321   4.245 -0.4668  0.0889 -0.6172
   29CHL1   H25 2138   6.804   2.215   4.252  0.9447 -0.3543 -0.1730
   29CHL1   C26 2139   6.993   2.323   4.250  0.2758 -0.3257  0.3108
   29CHL1  H26A 2140   7.029   2.424   4.275 -1.6647  0.8242 -1.2366
   29CHL1  H26B 2141   7.031   2.252   4.327 -0.3238 -2.7933 -1.5126
   29CHL1  H26C 2142   7.031   2.302   4.148  0.3174  1.9691 -0.1877
   29CHL1   C27 2143   6.781   2.396   4.374  0.0192  0.1006  0.6078
   29CHL1  H27A 2144   6.823   2.356   4.469 -2.9574  0.4509  2.1692
   29CHL1  H27B 2145   6.791   2.506   4.383  2.2996 -0.1332  1.6441
   29CHL1  H27C 2146   6.674   2.367   4.377 -0.0807  0.5175  1.1163
   30CHL1    C3 2147   6.353   6.014   3.227  0.3857 -0.0359 -0.1752
   30CHL1    H3 2148   6.243   6.002   3.228  0.3637 -0.0694  1.8954
   30CHL1    O3 2149   6.403   6.017   3.095  0.5385  0.1388 -0.0598
   30CHL1   H3' 2150   6.499   6.027   3.093  1.1791 -4.1681 -2.4939
   30CHL1    C4 2151   6.396   6.142   3.299 -0.1493 -0.8468  0.7041
   30CHL1   H4A 2152   6.499   6.173   3.273 -0.7042  1.6141  1.2127
   30CHL1   H4B 2153   6.333   6.223   3.257  1.5375  1.9553  3.1823
   30CHL1    C5 2154   6.385   6.147   3.446 -0.8311  0.3366 -0.3765
   30CHL1    C6 2155   6.318   6.233   3.517  0.4701  0.2899  0.1938
   30CHL1    H6 2156   6.268   6.311   3.457 -0.4217 -1.4088 -1.3697
   30CHL1    C7 2157   6.316   6.231   3.663  0.0901 -0.1248  0.2812
   30CHL1   H7A 2158   6.342   6.335   3.695  0.3852 -0.4333  1.0707
   30CHL1   H7B 2159   6.219   6.212   3.714  0.0567 -1.4419 -0.2486
   30CHL1    C8 2160   6.425   6.143   3.719 -0.4446 -0.2854  0.2635
   30CHL1    H8 2161   6.517   6.200   3.695 -0.7874 -0.8044 -2.6746
   30CHL1   C14 2162   6.411   6.123   3.870 -0.0359  0.7128 -1.0652
   30CHL1   H14 2163   6.307   6.090   3.891 -0.1450  1.5871 -0.1086
   30CHL1   C15 2164   6.425   6.248   3.960  0.2717 -0.4469 -0.7457
   30CHL1  H15A 2165   6.482   6.330   3.912 -0.1062  0.7644  0.8232
   30CHL1  H15B 2166   6.327   6.298   3.972 -0.4374 -2.1302  1.0808
   30CHL1   C16 2167   6.475   6.206   4.100  0.0814 -0.1917  0.3994
   30CHL1  H16A 2168   6.561   6.270   4.130 -0.3163  0.2649  0.5741
   30CHL1  H16B 2169   6.401   6.214   4.181 -2.1232  1.5471 -1.6534
   30CHL1   C17 2170   6.496   6.055   4.084 -0.0553 -0.6445 -0.1586
   30CHL1   H17 2171   6.396   6.008   4.100  0.2704 -0.8577  1.4471
   30CHL1   C13 2172   6.519   6.027   3.932  0.5406 -0.2478 -0.1513
   30CHL1   C18 2173   6.656   6.085   3.904 -0.6815 -0.8728 -0.4688
   30CHL1  H18A 2174   6.678   6.174   3.967 -1.1024 -0.7951 -0.4244
   30CHL1  H18B 2175   6.726   6.002   3.926 -1.2430 -1.5562 -1.1867
   30CHL1  H18C 2176   6.679   6.116   3.800 -0.9919 -0.3691 -0.3925
   30CHL1   C12 2177   6.506   5.889   3.881  0.9944  1.2346  0.0140
   30CHL1  H12A 2178   6.582   5.813   3.909  0.8265  0.2281 -2.0759
   30CHL1  H12B 2179   6.417   5.833   3.918  2.4585 -0.4504  1.1160
   30CHL1   C11 2180   6.510   5.894   3.730  0.2729  0.1912  0.6749
   30CHL1  H11A 2181   6.616   5.905   3.700 -0.2846 -1.0700 -2.1262
   30CHL1  H11B 2182   6.485   5.790   3.697  3.0969 -0.0019 -1.1404
   30CHL1    C9 2183   6.420   5.999   3.662  0.0515 -0.6854  0.5023
   30CHL1    H9 2184   6.315   5.965   3.672 -0.2817 -1.0150 -2.8163
   30CHL1   C10 2185   6.448   6.013   3.508  0.2044 -0.3962 -0.2133
   30CHL1   C19 2186   6.605   6.018   3.478  0.1774 -0.4529 -0.2124
   30CHL1  H19A 2187   6.637   6.094   3.552  0.9913 -1.9652  1.0373
   30CHL1  H19B 2188   6.648   5.917   3.497 -0.5946 -0.8560 -0.5683
   30CHL1  H19C 2189   6.637   6.038   3.373  1.1885 -1.3581 -0.0927
   30CHL1    C1 2190   6.387   5.892   3.437 -0.5877  0.0747 -0.4576
   30CHL1   H1A 2191   6.426   5.801   3.487 -0.3492  0.6183  0.3594
   30CHL1   H1B 2192   6.279   5.888   3.463 -0.2166 -0.5374  1.1180
   30CHL1    C2 2193   6.406   5.885   3.284 -0.0173 -0.7220  0.6612
   30CHL1   H2A 2194   6.352   5.801   3.237  0.1054 -0.1640 -0.5142
   30CHL1   H2B 2195   6.516   5.874   3.273 -0.0871 -1.2651  0.4891
   30CHL1   C20 2196   6.607   5.993   4.170  0.2568  0.6036 -0.1324
   30CHL1   H20 2197   6.706   5.994   4.120  0.4579  1.6309  0.2529
   30CHL1   C21 2198   6.565   5.843   4.194  0.7762 -0.1364 -0.0902
   30CHL1  H21A 2199   6.566   5.788   4.098  3.3055  0.0130 -0.2114
   30CHL1  H21B 2200   6.464   5.844   4.242  1.2125  1.4939  0.9200
   30CHL1  H21C 2201   6.634   5.787   4.261  1.1506 -1.5584 -1.6277
   30CHL1   C22 2202   6.643   6.060   4.302 -0.5245  0.0475  0.6258
   30CHL1  H22A 2203   6.723   6.004   4.355 -0.2845  0.4235  0.6629
   30CHL1  H22B 2204   6.668   6.168   4.293 -0.2574 -0.0197  0.5773
   30CHL1   C23 2205   6.525   6.064   4.409 -0.2120 -0.2231 -0.0792
   30CHL1  H23A 2206   6.438   6.119   4.367 -1.0872 -2.0864 -0.8079
   30CHL1  H23B 2207   6.495   5.959   4.427 -1.1462 -0.1063 -0.8802
   30CHL1   C24 2208   6.582   6.116   4.539  0.6117  0.1531 -0.5648
   30CHL1  H24A 2209   6.656   6.041   4.575  0.4142  0.0371 -0.3971
   30CHL1  H24B 2210   6.637   6.211   4.525 -0.4962  0.7740 -0.7918
   30CHL1   C25 2211   6.493   6.131   4.661 -0.1807  0.4972  0.9116
   30CHL1   H25 2212   6.445   6.031   4.666 -1.0641  0.8229 -0.5778
   30CHL1   C26 2213   6.576   6.158   4.786  0.6595 -0.5935 -1.0049
   30CHL1  H26A 2214   6.506   6.183   4.868  0.9606 -2.2820 -0.1902
   30CHL1  H26B 2215   6.641   6.072   4.812 -0.4978 -1.3282 -0.4609
   30CHL1  H26C 2216   6.645   6.245   4.780 -0.4254  0.3274 -0.4244
   30CHL1   C27 2217   6.373   6.236   4.646 -0.3169 -0.1903  1.5245
   30CHL1  H27A 2218   6.285   6.209   4.708 -1.1754 -3.1982 -0.7542
   30CHL1  H27B 2219   6.405   6.338   4.676  0.6761  0.0680 -0.2504
   30CHL1  H27C 2220   6.338   6.246   4.541  0.6811  0.1468  1.2129
   31CHL1    C3 2221   6.613   6.591   3.215 -0.0914  0.3839  0.3223
   31CHL1    H3 2222   6.719   6.557   3.213 -0.1310  0.3037 -0.4550
   31CHL1    O3 2223   6.546   6.576   3.094 -0.0535  0.0580  0.0210
   31CHL1   H3' 2224   6.453   6.595   3.100  0.1190  0.8681  0.2248
   31CHL1    C4 2225   6.539   6.513   3.325  0.0979 -0.3100  0.2079
   31CHL1   H4A 2226   6.437   6.555   3.322 -0.6599 -2.0068  0.5922
   31CHL1   H4B 2227   6.541   6.406   3.296  0.1775  0.0920 -1.3281
   31CHL1    C5 2228   6.605   6.528   3.464 -0.6079  0.8910 -0.1349
   31CHL1    C6 2229   6.627   6.423   3.547 -0.1627  0.1295  0.3150
   31CHL1    H6 2230   6.609   6.317   3.525 -0.2032  0.0562  0.7041
   31CHL1    C7 2231   6.680   6.443   3.683  0.0372  0.2239  0.1277
   31CHL1   H7A 2232   6.622   6.380   3.754  0.9080  0.2613  0.8891
   31CHL1   H7B 2233   6.779   6.393   3.682 -0.5405 -0.9564 -0.1609
   31CHL1    C8 2234   6.677   6.589   3.726  0.7072 -0.3272 -0.0284
   31CHL1    H8 2235   6.573   6.612   3.758  0.3785  0.1759 -1.3744
   31CHL1   C14 2236   6.765   6.597   3.848 -0.0313 -0.6991  0.2656
   31CHL1   H14 2237   6.864   6.574   3.804 -0.9305  1.9768 -3.6041
   31CHL1   C15 2238   6.744   6.491   3.957 -0.2618 -1.0457 -0.9249
   31CHL1  H15A 2239   6.638   6.470   3.981 -0.7189  0.8457 -1.1443
   31CHL1  H15B 2240   6.791   6.395   3.924 -0.3981 -1.9816  1.3685
   31CHL1   C16 2241   6.818   6.546   4.078 -0.0856 -0.0923  0.2449
   31CHL1  H16A 2242   6.753   6.546   4.168 -1.4070  1.3473 -0.6653
   31CHL1  H16B 2243   6.907   6.480   4.087 -0.4029 -0.8267 -1.6254
   31CHL1   C17 2244   6.863   6.690   4.045 -0.2055 -0.3934  0.1030
   31CHL1   H17 2245   6.966   6.673   4.008 -1.5380 -4.5481 -2.3607
   31CHL1   C13 2246   6.788   6.731   3.918 -0.6549 -0.2501  0.0095
   31CHL1   C18 2247   6.654   6.799   3.969 -0.8664 -0.1540 -0.4079
   31CHL1  H18A 2248   6.581   6.820   3.888 -1.5417  0.0260  0.2340
   31CHL1  H18B 2249   6.590   6.747   4.044 -0.7106 -0.0207 -0.1811
   31CHL1  H18C 2250   6.683   6.897   4.011  1.6940 -1.9738  2.4866
   31CHL1   C12 2251   6.852   6.816   3.805 -0.0817 -0.0232 -0.7304
   31CHL1  H12A 2252   6.866   6.920   3.841  1.4872 -0.6934  0.7349
   31CHL1  H12B 2253   6.951   6.768   3.792 -0.8642 -1.9561  0.0740
   31CHL1   C11 2254   6.757   6.823   3.679 -0.2988  0.8463 -0.0914
   31CHL1  H11A 2255   6.670   6.885   3.708 -1.4149 -1.0848  0.9061
   31CHL1  H11B 2256   6.804   6.891   3.605 -2.7636  3.2903  0.4418
   31CHL1    C9 2257   6.728   6.680   3.624 -0.1788 -0.8604  0.5703
   31CHL1    H9 2258   6.829   6.645   3.593 -0.2771  0.0458 -0.8438
   31CHL1   C10 2259   6.636   6.678   3.504 -0.6754 -0.4260 -0.2007
   31CHL1   C19 2260   6.504   6.751   3.542  0.2839 -0.4786 -0.1615
   31CHL1  H19A 2261   6.542   6.855   3.548 -2.3570  0.5180  0.4837
   31CHL1  H19B 2262   6.428   6.756   3.462  1.2393  0.2246 -1.0496
   31CHL1  H19C 2263   6.462   6.719   3.640  1.3232  0.6185  0.6648
   31CHL1    C1 2264   6.688   6.766   3.387  0.5141  0.2306 -0.3066
   31CHL1   H1A 2265   6.686   6.873   3.414  0.8611  0.3756 -0.8407
   31CHL1   H1B 2266   6.796   6.741   3.375  0.1095 -1.7177 -0.2902
   31CHL1    C2 2267   6.616   6.741   3.251 -0.1503 -0.6709 -0.6830
   31CHL1   H2A 2268   6.672   6.799   3.174  1.3920 -0.2229  0.7110
   31CHL1   H2B 2269   6.512   6.778   3.262 -0.1021 -0.9028  0.7027
   31CHL1   C20 2270   6.870   6.797   4.160  0.3411  0.2796 -0.1493
   31CHL1   H20 2271   6.768   6.823   4.192  0.2539 -0.6779  0.3884
   31CHL1   C21 2272   6.926   6.940   4.116 -0.2696 -0.1410 -0.3767
   31CHL1  H21A 2273   7.026   6.929   4.068  0.0442 -0.1992  0.2905
   31CHL1  H21B 2274   6.939   7.015   4.197 -0.3515  1.0623 -1.4358
   31CHL1  H21C 2275   6.859   6.988   4.040 -1.8303 -0.9364  0.4550
   31CHL1   C22 2276   6.941   6.745   4.287  0.5672  1.1204  0.0861
   31CHL1  H22A 2277   6.937   6.819   4.371  3.0660 -0.0249  1.3389
   31CHL1  H22B 2278   6.886   6.659   4.331  0.1079  0.6557 -1.3640
   31CHL1   C23 2279   7.088   6.701   4.258 -0.2440 -0.2984  0.1406
   31CHL1  H23A 2280   7.112   6.650   4.162 -0.6835  1.3921 -0.8931
   31CHL1  H23B 2281   7.151   6.792   4.258  1.3634 -1.3569  0.2728
   31CHL1   C24 2282   7.143   6.617   4.371 -0.4896  0.4693 -0.5088
   31CHL1  H24A 2283   7.110   6.646   4.473  0.3283 -2.7339  0.7957
   31CHL1  H24B 2284   7.106   6.513   4.353 -0.9373  0.4186  0.6404
   31CHL1   C25 2285   7.301   6.615   4.369 -0.1030  0.0583  0.5848
   31CHL1   H25 2286   7.321   6.588   4.263 -1.8965 -0.8245  0.4309
   31CHL1   C26 2287   7.371   6.743   4.403 -1.2123  0.2422  0.0657
   31CHL1  H26A 2288   7.476   6.735   4.367 -1.5677 -1.9151 -0.6256
   31CHL1  H26B 2289   7.337   6.829   4.341 -1.1684  1.5892  1.8230
   31CHL1  H26C 2290   7.361   6.755   4.513 -1.7786 -1.1961  0.1900
   31CHL1   C27 2291   7.354   6.496   4.453  0.8032  0.9893 -0.6433
   31CHL1  H27A 2292   7.331   6.398   4.407 -0.5672  0.1800  1.5926
   31CHL1  H27B 2293   7.465   6.500   4.462  1.0242 -0.9249 -2.0592
   31CHL1  H27C 2294   7.296   6.496   4.548 -0.1889  3.7440 -1.1497
   32CHL1    C3 2295   6.561   3.267   2.677  0.3995  0.0530 -0.1228
   32CHL1    H3 2296   6.670   3.243   2.673 -0.1090 -2.3981 -1.0033
   32CHL1    O3 2297   6.506   3.266   2.548  0.5208 -0.3496  0.1695
   32CHL1   H3' 2298   6.531   3.177   2.523  0.4008 -0.4200  0.2934
   32CHL1    C4 2299   6.501   3.158   2.767  0.3547  1.1261  0.0515
   32CHL1   H4A 2300   6.390   3.157   2.759  0.3136  1.0786  0.5801
   32CHL1   H4B 2301   6.527   3.059   2.723 -0.3431  0.3954  1.2025
   32CHL1    C5 2302   6.540   3.166   2.914 -0.1251 -0.1320  0.1796
   32CHL1    C6 2303   6.597   3.062   2.979 -0.0443  0.6046  0.4653
   32CHL1    H6 2304   6.621   2.962   2.941  1.2120  0.1576  2.2564
   32CHL1    C7 2305   6.633   3.068   3.123  0.5276  0.2125  0.0599
   32CHL1   H7A 2306   6.608   2.971   3.171  1.9804  0.5905  1.6638
   32CHL1   H7B 2307   6.741   3.092   3.137  1.3481 -1.6171 -2.4187
   32CHL1    C8 2308   6.559   3.170   3.205 -0.7885 -0.8425  0.2065
   32CHL1    H8 2309   6.452   3.140   3.210 -1.2882  0.4946 -1.5133
   32CHL1   C14 2310   6.612   3.189   3.343  0.2977  0.0602  0.1135
   32CHL1   H14 2311   6.720   3.217   3.334  0.2098  0.5682  0.5623
   32CHL1   C15 2312   6.610   3.064   3.436  0.0398 -0.4499 -0.3750
   32CHL1  H15A 2313   6.509   3.019   3.446 -0.1937  0.0576 -0.4806
   32CHL1  H15B 2314   6.684   2.984   3.415  1.6983  1.0089 -0.3130
   32CHL1   C16 2315   6.634   3.120   3.578  0.0949 -0.7583  0.2212
   32CHL1  H16A 2316   6.559   3.086   3.652 -2.9383  0.5906 -1.9960
   32CHL1  H16B 2317   6.734   3.079   3.601  0.3571  0.0421  0.5397
   32CHL1   C17 2318   6.636   3.274   3.560 -0.0312  0.3492  0.9125
   32CHL1   H17 2319   6.744   3.295   3.540 -0.3884  1.5183  0.1337
   32CHL1   C13 2320   6.560   3.305   3.429 -0.1538  0.5960  0.0625
   32CHL1   C18 2321   6.399   3.287   3.450 -0.7238 -0.0789 -0.2061
   32CHL1  H18A 2322   6.374   3.192   3.502 -0.9999  0.7140  1.1228
   32CHL1  H18B 2323   6.360   3.367   3.515 -0.4427  1.1028 -1.4462
   32CHL1  H18C 2324   6.362   3.291   3.345  0.3203 -1.3713 -0.6525
   32CHL1   C12 2325   6.604   3.431   3.359 -0.3799  0.0742  0.4967
   32CHL1  H12A 2326   6.549   3.515   3.406 -1.8177 -0.6040  0.0622
   32CHL1  H12B 2327   6.714   3.442   3.369 -0.3342 -0.1569  0.2523
   32CHL1   C11 2328   6.554   3.434   3.212  0.4425  0.3690  0.6816
   32CHL1  H11A 2329   6.445   3.456   3.208  0.6535  1.2759 -1.2133
   32CHL1  H11B 2330   6.583   3.523   3.153  2.6732 -0.4063  0.5260
   32CHL1    C9 2331   6.582   3.302   3.123  0.6166  0.0535 -0.6023
   32CHL1    H9 2332   6.691   3.316   3.108  1.5006  0.6665  4.6095
   32CHL1   C10 2333   6.519   3.299   2.981 -0.3693  0.6819  0.5419
   32CHL1   C19 2334   6.368   3.316   2.989 -0.0205 -1.0300  0.1902
   32CHL1  H19A 2335   6.324   3.307   2.888  1.6978 -2.2765 -0.5098
   32CHL1  H19B 2336   6.310   3.241   3.047  1.0756 -1.7225  0.4479
   32CHL1  H19C 2337   6.352   3.420   3.025 -3.8013 -1.6353  0.6318
   32CHL1    C1 2338   6.585   3.408   2.886 -0.3484  0.4774 -0.2607
   32CHL1   H1A 2339   6.568   3.501   2.944 -0.2612  0.3192  0.0228
   32CHL1   H1B 2340   6.695   3.393   2.890  0.0662  3.0347  3.9566
   32CHL1    C2 2341   6.539   3.411   2.741  0.8194 -0.1247  0.2113
   32CHL1   H2A 2342   6.607   3.476   2.682  2.3034 -0.0481  1.9081
   32CHL1   H2B 2343   6.430   3.435   2.736  1.0608  0.7697 -1.6937
   32CHL1   C20 2344   6.586   3.347   3.686  0.0625  0.6850 -0.0563
   32CHL1   H20 2345   6.484   3.312   3.710 -0.9014  2.8623 -0.6637
   32CHL1   C21 2346   6.588   3.498   3.673 -0.5636 -0.5253 -0.1342
   32CHL1  H21A 2347   6.505   3.526   3.606 -1.4679 -3.5492 -0.4323
   32CHL1  H21B 2348   6.684   3.538   3.634 -0.3343 -0.7147  0.2214
   32CHL1  H21C 2349   6.574   3.538   3.776  3.6519 -1.3813  0.9754
   32CHL1   C22 2350   6.669   3.315   3.812 -0.3366  0.1542 -0.2832
   32CHL1  H22A 2351   6.710   3.211   3.809 -0.2987  0.1332  0.6749
   32CHL1  H22B 2352   6.757   3.380   3.828 -0.3240  0.5958 -1.9723
   32CHL1   C23 2353   6.594   3.327   3.940 -0.0607 -0.0644 -0.3963
   32CHL1  H23A 2354   6.517   3.408   3.935  1.9857  2.1171  0.8372
   32CHL1  H23B 2355   6.537   3.233   3.951 -2.1171  0.9527 -1.6950
   32CHL1   C24 2356   6.666   3.375   4.066 -0.3835  0.3783 -0.1339
   32CHL1  H24A 2357   6.703   3.478   4.047 -5.7870  2.5237 -0.7612
   32CHL1  H24B 2358   6.586   3.388   4.143  0.6679  1.5724  0.8192
   32CHL1   C25 2359   6.769   3.272   4.115 -0.7612  0.4876 -0.3664
   32CHL1   H25 2360   6.830   3.232   4.031 -1.7361 -3.5491  0.6268
   32CHL1   C26 2361   6.865   3.323   4.215  0.4547  0.2876 -0.6404
   32CHL1  H26A 2362   6.924   3.405   4.167  0.0510  0.8772 -0.1480
   32CHL1  H26B 2363   6.821   3.369   4.306  0.6265 -0.7054 -0.0458
   32CHL1  H26C 2364   6.926   3.242   4.260  0.9646  0.8550 -0.2856
   32CHL1   C27 2365   6.686   3.153   4.175  0.2171 -0.2089  0.0384
   32CHL1  H27A 2366   6.608   3.195   4.242  0.1436  1.2121 -0.8844
   32CHL1  H27B 2367   6.630   3.098   4.097  1.2555 -0.9686 -0.1954
   32CHL1  H27C 2368   6.746   3.083   4.237 -2.2789 -1.0980  1.6100
   33CHL1    C3 2369   4.255   5.327   3.091  0.3567 -0.1177 -0.1444
   33CHL1    H3 2370   4.231   5.432   3.118  0.5162  0.5911 -2.5176
   33CHL1    O3 2371   4.219   5.325   2.952 -0.0944  0.0834 -0.2605
   33CHL1   H3' 2372   4.127   5.298   2.959 -0.1592  0.3563 -0.0065
   33CHL1    C4 2373   4.407   5.307   3.111  0.1977  0.2964  0.4067
   33CHL1   H4A 2374   4.431   5.207   3.069  0.0798  0.1554  0.6751
   33CHL1   H4B 2375   4.453   5.382   3.044  0.2890 -2.2822 -2.6724
   33CHL1    C5 2376   4.440   5.311   3.261  1.0421 -0.2369  0.6301
   33CHL1    C6 2377   4.529   5.405   3.303 -0.2995 -0.1714  0.3468
   33CHL1    H6 2378   4.565   5.476   3.228 -0.7171  0.0427  0.3463
   33CHL1    C7 2379   4.574   5.414   3.445 -0.0880  0.5905  0.8664
   33CHL1   H7A 2380   4.683   5.418   3.461 -0.4139  0.8922  3.3579
   33CHL1   H7B 2381   4.523   5.507   3.479 -3.1165 -0.1107 -1.2486
   33CHL1    C8 2382   4.515   5.297   3.533  0.0374  0.3451 -0.1733
   33CHL1    H8 2383   4.580   5.210   3.509 -1.4107 -1.2031  1.2864
   33CHL1   C14 2384   4.539   5.328   3.679  0.7697  0.5212  0.7498
   33CHL1   H14 2385   4.489   5.425   3.700  0.8932  0.7369  0.0690
   33CHL1   C15 2386   4.685   5.365   3.726  0.4489  0.6529 -0.0379
   33CHL1  H15A 2387   4.756   5.300   3.671 -0.0445  0.9207 -1.0232
   33CHL1  H15B 2388   4.700   5.472   3.702  0.2531  0.3392 -1.7268
   33CHL1   C16 2389   4.675   5.340   3.879 -0.3025 -0.2911 -0.1265
   33CHL1  H16A 2390   4.759   5.268   3.892  0.2389  0.0138 -1.6839
   33CHL1  H16B 2391   4.706   5.435   3.927  2.1682 -0.7398 -0.7025
   33CHL1   C17 2392   4.535   5.286   3.914 -0.0515 -0.6995  0.0133
   33CHL1   H17 2393   4.476   5.380   3.910  0.0315 -0.6823 -1.6411
   33CHL1   C13 2394   4.483   5.227   3.781 -0.6122  0.2653 -0.4481
   33CHL1   C18 2395   4.539   5.088   3.778 -0.5030 -0.1246  0.3095
   33CHL1  H18A 2396   4.647   5.095   3.805 -0.2175 -1.2185 -0.4718
   33CHL1  H18B 2397   4.483   5.026   3.852 -0.8638  0.6248  0.6817
   33CHL1  H18C 2398   4.517   5.024   3.690 -2.1519 -0.1921  0.7398
   33CHL1   C12 2399   4.334   5.217   3.759 -0.4341 -0.0945  0.4929
   33CHL1  H12A 2400   4.290   5.140   3.826 -4.6365  1.1740 -0.4806
   33CHL1  H12B 2401   4.292   5.318   3.777  0.6983  0.4682  0.0674
   33CHL1   C11 2402   4.305   5.186   3.608 -1.0875 -0.5197 -0.4720
   33CHL1  H11A 2403   4.336   5.080   3.606 -0.3236 -0.3903  1.7255
   33CHL1  H11B 2404   4.194   5.194   3.608 -1.0493  0.3545  0.6965
   33CHL1    C9 2405   4.365   5.278   3.502 -0.4150 -1.3036  0.4496
   33CHL1    H9 2406   4.326   5.381   3.519  1.3952 -0.9308  3.0414
   33CHL1   C10 2407   4.350   5.223   3.354  0.2453 -0.8912  0.2618
   33CHL1   C19 2408   4.386   5.080   3.343 -0.4264 -0.2837 -0.4384
   33CHL1  H19A 2409   4.316   5.019   3.404 -2.4104 -0.1858 -2.4781
   33CHL1  H19B 2410   4.370   5.049   3.238  1.9992 -0.5063 -0.7914
   33CHL1  H19C 2411   4.491   5.049   3.362  0.6227  2.3931 -1.3311
   33CHL1    C1 2412   4.204   5.248   3.316  1.0696 -0.5509 -0.2459
   33CHL1   H1A 2413   4.139   5.181   3.376 -1.5099  2.6058  0.7824
   33CHL1   H1B 2414   4.186   5.352   3.350  2.2414 -0.6261  0.6532
   33CHL1    C2 2415   4.161   5.234   3.169 -0.5011  0.3236 -0.4846
   33CHL1   H2A 2416   4.056   5.262   3.146 -1.2996 -1.1758  1.0883
   33CHL1   H2B 2417   4.181   5.134   3.124 -1.4096  0.2458 -0.7355
   33CHL1   C20 2418   4.501   5.222   4.050 -0.5725  0.6195  0.3074
   33CHL1   H20 2419   4.409   5.163   4.031 -1.1403  1.7349 -0.5365
   33CHL1   C21 2420   4.470   5.333   4.155 -0.2849 -0.3367 -0.1150
   33CHL1  H21A 2421   4.560   5.396   4.166  0.8363 -1.9208  0.1667
   33CHL1  H21B 2422   4.458   5.278   4.251  1.2071 -0.9451 -0.2471
   33CHL1  H21C 2423   4.381   5.394   4.129  0.7205  1.0697 -0.3541
   33CHL1   C22 2424   4.607   5.120   4.094  0.0969  0.1268  0.1267
   33CHL1  H22A 2425   4.642   5.058   4.009 -0.7235 -1.0434  0.6129
   33CHL1  H22B 2426   4.690   5.173   4.144 -1.1459  0.2097  2.2679
   33CHL1   C23 2427   4.565   5.012   4.199 -0.0429 -0.7912  0.0951
   33CHL1  H23A 2428   4.659   4.966   4.234 -0.1249 -1.2708 -0.3093
   33CHL1  H23B 2429   4.509   5.045   4.289  0.5938  2.4018 -0.5520
   33CHL1   C24 2430   4.485   4.901   4.127  0.2333 -0.0851 -0.7335
   33CHL1  H24A 2431   4.396   4.960   4.096 -1.5666 -1.3661  1.6568
   33CHL1  H24B 2432   4.541   4.856   4.041  1.0936 -1.1500  0.3471
   33CHL1   C25 2433   4.438   4.779   4.221 -0.6302 -0.1450 -0.1174
   33CHL1   H25 2434   4.386   4.820   4.310 -0.3126 -3.0586  1.5669
   33CHL1   C26 2435   4.334   4.705   4.135  0.5351 -0.9367 -0.0873
   33CHL1  H26A 2436   4.393   4.673   4.047  1.6117  0.8215 -0.0532
   33CHL1  H26B 2437   4.297   4.615   4.189 -3.2671  0.2132 -0.4281
   33CHL1  H26C 2438   4.243   4.766   4.116  1.3038  0.6033  0.9446
   33CHL1   C27 2439   4.543   4.685   4.277  0.0968  0.0246 -0.3907
   33CHL1  H27A 2440   4.486   4.604   4.327 -0.2429  0.8468  0.5846
   33CHL1  H27B 2441   4.613   4.633   4.208  3.4423 -1.7752  3.8488
   33CHL1  H27C 2442   4.605   4.742   4.349  0.3272 -1.5599  0.7199
   34CHL1    C3 2443   1.583   6.251   2.746 -0.2745  0.1515  0.1409
   34CHL1    H3 2444   1.566   6.145   2.772 -1.4715  0.4948  0.8236
   34CHL1    O3 2445   1.545   6.268   2.607 -0.2407  0.3453  0.8761
   34CHL1   H3' 2446   1.570   6.359   2.586 -1.4054  0.2845 -1.0631
   34CHL1    C4 2447   1.491   6.337   2.827  1.1152  0.3323 -0.8503
   34CHL1   H4A 2448   1.513   6.442   2.801 -0.3006  0.3322 -2.1906
   34CHL1   H4B 2449   1.385   6.312   2.805  0.7056 -1.4208  2.5249
   34CHL1    C5 2450   1.506   6.311   2.977 -0.2676 -0.0359  0.0897
   34CHL1    C6 2451   1.405   6.258   3.054 -0.4078 -0.1960  0.2599
   34CHL1    H6 2452   1.306   6.251   3.008 -0.8813  0.2037  1.1936
   34CHL1    C7 2453   1.415   6.225   3.200  0.2814  0.6867  0.1141
   34CHL1   H7A 2454   1.336   6.276   3.259 -1.0252  0.3042 -1.2419
   34CHL1   H7B 2455   1.401   6.115   3.212  0.0335  0.7007 -0.0349
   34CHL1    C8 2456   1.557   6.261   3.264 -0.0804 -0.6665  0.5680
   34CHL1    H8 2457   1.545   6.369   3.289  0.4953 -0.3990 -0.2809
   34CHL1   C14 2458   1.575   6.188   3.395  0.4932 -0.6701 -0.0102
   34CHL1   H14 2459   1.577   6.083   3.357  0.2105 -1.8989  3.0876
   34CHL1   C15 2460   1.461   6.181   3.501  0.7977 -0.1137  0.0279
   34CHL1  H15A 2461   1.409   6.279   3.506  1.8576  0.7552 -3.4253
   34CHL1  H15B 2462   1.384   6.108   3.467  0.6233 -0.3832  0.9933
   34CHL1   C16 2463   1.546   6.143   3.627 -0.2859  0.1765 -0.1233
   34CHL1  H16A 2464   1.537   6.228   3.698  2.5181 -0.9079  1.7181
   34CHL1  H16B 2465   1.502   6.056   3.679 -0.9100  1.0069  0.7762
   34CHL1   C17 2466   1.692   6.122   3.586 -0.2342 -0.1008 -0.1212
   34CHL1   H17 2467   1.708   6.014   3.562 -1.5689 -0.3557  0.0395
   34CHL1   C13 2468   1.712   6.212   3.461 -0.0485  0.4556 -0.5671
   34CHL1   C18 2469   1.723   6.363   3.504 -0.5050 -0.1215 -0.3468
   34CHL1  H18A 2470   1.804   6.384   3.577 -1.3321  0.2144  0.4987
   34CHL1  H18B 2471   1.762   6.429   3.423  1.1034  0.9085  1.1858
   34CHL1  H18C 2472   1.623   6.398   3.537 -0.7759  1.6703 -2.7447
   34CHL1   C12 2473   1.823   6.175   3.363 -0.6834  0.0823  0.7219
   34CHL1  H12A 2474   1.924   6.195   3.404 -0.4374  2.2030 -0.8091
   34CHL1  H12B 2475   1.828   6.065   3.346  1.3800  0.3089 -0.4646
   34CHL1   C11 2476   1.809   6.251   3.222  0.4197 -0.1382 -0.4370
   34CHL1  H11A 2477   1.824   6.358   3.247  0.2653 -0.5912  1.8006
   34CHL1  H11B 2478   1.892   6.212   3.160 -0.2396  0.7486 -1.9247
   34CHL1    C9 2479   1.667   6.235   3.158 -0.3792 -0.1138 -0.0687
   34CHL1    H9 2480   1.659   6.130   3.121 -2.0514 -0.6180  1.5624
   34CHL1   C10 2481   1.655   6.317   3.024  0.0525 -0.0349 -0.5296
   34CHL1   C19 2482   1.681   6.465   3.050  0.7120 -0.1415 -0.4050
   34CHL1  H19A 2483   1.790   6.480   3.065  0.6649 -1.3901  1.5651
   34CHL1  H19B 2484   1.649   6.530   2.966 -0.6166  0.2863  0.4086
   34CHL1  H19C 2485   1.631   6.499   3.143 -0.8797 -2.9150 -0.1362
   34CHL1    C1 2486   1.759   6.262   2.919  0.1917  0.9190 -0.1372
   34CHL1   H1A 2487   1.861   6.296   2.946  0.3740  0.6600 -0.4942
   34CHL1   H1B 2488   1.743   6.152   2.929 -2.6055  1.2874  0.0908
   34CHL1    C2 2489   1.727   6.294   2.772 -0.3172  0.5979  0.4513
   34CHL1   H2A 2490   1.802   6.244   2.707  0.0427 -1.1413  2.1200
   34CHL1   H2B 2491   1.735   6.404   2.762 -0.9809  0.4805 -1.9142
   34CHL1   C20 2492   1.776   6.135   3.708  1.0077 -0.1790 -0.4695
   34CHL1   H20 2493   1.773   6.232   3.761  0.1761 -0.2883 -0.2948
   34CHL1   C21 2494   1.923   6.122   3.666 -0.6682 -0.3900  0.2193
   34CHL1  H21A 2495   1.947   6.023   3.620 -1.3384  0.0537 -1.1419
   34CHL1  H21B 2496   1.994   6.130   3.751  1.3929  1.4845 -1.5678
   34CHL1  H21C 2497   1.934   6.203   3.591 -1.7333 -2.4981 -2.4092
   34CHL1   C22 2498   1.741   6.026   3.810 -0.3882  0.3958 -0.3982
   34CHL1  H22A 2499   1.639   6.043   3.849  0.2392 -0.0978  1.6072
   34CHL1  H22B 2500   1.737   5.922   3.771  1.5255  0.0197  0.2897
   34CHL1   C23 2501   1.850   6.017   3.924  0.5695  0.3890  0.9422
   34CHL1  H23A 2502   1.945   5.972   3.889  0.7185  0.9178  0.6417
   34CHL1  H23B 2503   1.883   6.120   3.949  1.5721  0.0281  1.1125
   34CHL1   C24 2504   1.793   5.942   4.047 -0.0959  0.0416 -0.2123
   34CHL1  H24A 2505   1.712   6.008   4.085  0.6928  0.5649  0.5767
   34CHL1  H24B 2506   1.759   5.841   4.015 -0.9838  0.7949 -1.7814
   34CHL1   C25 2507   1.878   5.919   4.174  0.2717  0.2799  0.0792
   34CHL1   H25 2508   1.906   6.018   4.216  1.0815  0.3609 -0.6402
   34CHL1   C26 2509   1.782   5.846   4.273 -0.0433  0.3255  0.3734
   34CHL1  H26A 2510   1.838   5.840   4.369  0.8069  1.1521 -0.0561
   34CHL1  H26B 2511   1.687   5.898   4.297 -0.2161 -0.9399  2.7109
   34CHL1  H26C 2512   1.757   5.744   4.238 -1.9339  0.6545  0.6461
   34CHL1   C27 2513   1.997   5.825   4.146 -0.5559 -0.3098  0.4477
   34CHL1  H27A 2514   1.965   5.729   4.100  2.1461 -1.8837  1.6496
   34CHL1  H27B 2515   2.068   5.879   4.080 -0.9849  1.4292  1.3570
   34CHL1  H27C 2516   2.053   5.809   4.240 -0.5422 -1.2656  0.2862
   35CHL1    C3 2517   4.824   0.077   3.084  0.7196  0.2933  0.8105
   35CHL1    H3 2518   4.882  -0.011   3.120 -1.5581 -1.9221 -0.5284
   35CHL1    O3 2519   4.807   0.065   2.940 -0.6791 -0.7172 -0.2229
   35CHL1   H3' 2520   4.874   0.123   2.903  0.5692 -2.3495 -0.6559
   35CHL1    C4 2521   4.681   0.077   3.146  0.3689 -0.9722 -0.1175
   35CHL1   H4A 2522   4.619   0.155   3.097  0.0705 -1.3307 -0.3182
   35CHL1   H4B 2523   4.648  -0.023   3.112  1.0712 -0.7039 -1.6808
   35CHL1    C5 2524   4.705   0.092   3.296 -0.3660  0.6700 -0.2103
   35CHL1    C6 2525   4.668  -0.016   3.375 -0.0197 -0.9118  0.9185
   35CHL1    H6 2526   4.626  -0.105   3.325 -0.2541 -0.0675 -0.4485
   35CHL1    C7 2527   4.669  -0.009   3.526 -0.4106 -0.0539  0.3728
   35CHL1   H7A 2528   4.581  -0.065   3.564 -0.1681 -1.9040 -1.5785
   35CHL1   H7B 2529   4.765  -0.053   3.561  0.6191  1.4130 -0.5017
   35CHL1    C8 2530   4.662   0.139   3.572 -0.5051  0.4565 -0.1550
   35CHL1    H8 2531   4.562   0.182   3.549 -0.6420  0.4281  0.3887
   35CHL1   C14 2532   4.676   0.133   3.724 -0.7409 -0.6653  0.0053
   35CHL1   H14 2533   4.778   0.092   3.738 -0.7512 -0.2121  1.6371
   35CHL1   C15 2534   4.578   0.061   3.825 -0.1080 -0.7411  0.0076
   35CHL1  H15A 2535   4.478   0.107   3.813  1.0322  2.2664  1.0755
   35CHL1  H15B 2536   4.584  -0.047   3.800  1.2353 -1.0142  1.3613
   35CHL1   C16 2537   4.634   0.092   3.963 -0.4096 -0.3938  0.5831
   35CHL1  H16A 2538   4.552   0.131   4.027  0.0220 -0.3364  1.1087
   35CHL1  H16B 2539   4.689   0.011   4.016  1.3683  0.4307  0.0780
   35CHL1   C17 2540   4.729   0.223   3.939 -0.5466  0.6297  0.0513
   35CHL1   H17 2541   4.834   0.185   3.936 -0.3113  1.1304  1.3361
   35CHL1   C13 2542   4.701   0.266   3.793  0.2584 -0.1513 -0.2656
   35CHL1   C18 2543   4.564   0.338   3.801  0.0072 -0.1062  0.3029
   35CHL1  H18A 2544   4.508   0.320   3.706 -0.6812 -0.9678  0.8484
   35CHL1  H18B 2545   4.501   0.297   3.883  0.3913 -0.4016  0.4533
   35CHL1  H18C 2546   4.587   0.444   3.821  1.9424 -0.2271 -1.0169
   35CHL1   C12 2547   4.820   0.338   3.725 -0.3595  0.1387 -0.0169
   35CHL1  H12A 2548   4.819   0.436   3.777 -2.2543 -0.1209  0.5286
   35CHL1  H12B 2549   4.914   0.284   3.747  0.0378  0.3306 -1.1825
   35CHL1   C11 2550   4.799   0.354   3.573 -0.1089  0.0469  0.0561
   35CHL1  H11A 2551   4.712   0.424   3.571 -0.4834 -0.0296  4.2078
   35CHL1  H11B 2552   4.878   0.414   3.523 -0.0214  0.1047  0.2605
   35CHL1    C9 2553   4.774   0.216   3.506 -0.3170 -0.2506  0.7246
   35CHL1    H9 2554   4.872   0.166   3.517 -0.4759 -0.5278  0.9045
   35CHL1   C10 2555   4.766   0.221   3.346  0.5336  0.0908  0.7185
   35CHL1   C19 2556   4.679   0.343   3.299 -0.1544 -0.4757 -0.1990
   35CHL1  H19A 2557   4.666   0.352   3.189 -2.7032  1.8966  0.1939
   35CHL1  H19B 2558   4.582   0.335   3.351 -0.4708  0.6363 -0.5811
   35CHL1  H19C 2559   4.729   0.439   3.327 -0.6177 -0.4625  0.5936
   35CHL1    C1 2560   4.899   0.240   3.274 -0.3519 -0.2973  0.7825
   35CHL1   H1A 2561   4.934   0.344   3.289  2.1914 -1.0378  0.4538
   35CHL1   H1B 2562   4.977   0.179   3.325  0.3223  0.7897  1.0787
   35CHL1    C2 2563   4.892   0.209   3.121  0.1864 -1.0089 -0.6003
   35CHL1   H2A 2564   4.997   0.204   3.085  1.2813  0.8165  2.0462
   35CHL1   H2B 2565   4.840   0.289   3.065 -0.0711  0.6186  1.7859
   35CHL1   C20 2566   4.711   0.321   4.056 -0.3376  0.1234 -0.1414
   35CHL1   H20 2567   4.608   0.360   4.074 -1.0290 -1.2548 -0.9748
   35CHL1   C21 2568   4.795   0.452   4.038  0.4453 -0.1615 -0.1764
   35CHL1  H21A 2569   4.740   0.522   3.972 -1.6971 -0.3585  1.3104
   35CHL1  H21B 2570   4.890   0.421   3.989  0.6377 -1.1096  0.7486
   35CHL1  H21C 2571   4.811   0.505   4.135 -3.5879  0.4375  0.3383
   35CHL1   C22 2572   4.756   0.270   4.203  0.3428 -0.0474 -0.2669
   35CHL1  H22A 2573   4.721   0.349   4.273  1.3045 -0.2347  0.4405
   35CHL1  H22B 2574   4.692   0.183   4.229 -1.4086  1.1616 -0.3554
   35CHL1   C23 2575   4.900   0.221   4.218  0.4920  0.0171  0.3957
   35CHL1  H23A 2576   4.903   0.136   4.146 -0.9415  1.3040 -1.2596
   35CHL1  H23B 2577   4.954   0.301   4.163 -2.9269  2.6927  0.5770
   35CHL1   C24 2578   4.952   0.171   4.352  0.0276 -0.6501 -0.3823
   35CHL1  H24A 2579   4.878   0.106   4.403  0.8804 -1.4273 -0.1087
   35CHL1  H24B 2580   5.048   0.116   4.347 -0.6004 -1.7593 -0.5245
   35CHL1   C25 2581   4.975   0.291   4.450  0.3445  0.9558  0.6714
   35CHL1   H25 2582   4.883   0.350   4.472  1.6285  3.1874  0.3277
   35CHL1   C26 2583   5.015   0.230   4.587  0.2941 -0.0726  0.0067
   35CHL1  H26A 2584   5.025   0.320   4.652  0.5906 -0.6436  0.7715
   35CHL1  H26B 2585   4.936   0.163   4.629  0.1815  0.6423  0.9879
   35CHL1  H26C 2586   5.118   0.189   4.578  0.1428 -0.2406 -1.1550
   35CHL1   C27 2587   5.076   0.386   4.397  0.0545 -1.0585 -0.4377
   35CHL1  H27A 2588   5.175   0.336   4.391 -0.3967 -2.0962  0.3204
   35CHL1  H27B 2589   5.061   0.411   4.290  1.2966  0.3903 -0.2872
   35CHL1  H27C 2590   5.089   0.476   4.460  0.1246 -1.7890  0.6211
   36CHL1    C3 2591   6.393   1.895   2.934 -0.1525  1.0745  1.2070
   36CHL1    H3 2592   6.429   1.790   2.932 -2.3619  0.2721 -0.1454
   36CHL1    O3 2593   6.379   1.934   2.798  0.4847 -0.4528  0.1481
   36CHL1   H3' 2594   6.324   1.867   2.757 -0.7465  0.2273  0.6483
   36CHL1    C4 2595   6.248   1.895   2.988 -0.8327  0.0617 -0.0291
   36CHL1   H4A 2596   6.216   1.999   2.965  1.1790  0.8158  0.3818
   36CHL1   H4B 2597   6.190   1.816   2.935  0.0392 -0.3216 -0.4252
   36CHL1    C5 2598   6.245   1.879   3.143 -0.1004  0.6683 -0.1855
   36CHL1    C6 2599   6.168   1.784   3.193 -0.2761 -0.0089 -0.2440
   36CHL1    H6 2600   6.112   1.713   3.129 -0.6403 -0.3397  0.4329
   36CHL1    C7 2601   6.169   1.739   3.338  0.0994 -0.1385 -0.5140
   36CHL1   H7A 2602   6.066   1.716   3.372  0.4932 -1.4615 -0.1867
   36CHL1   H7B 2603   6.222   1.643   3.353 -1.4813 -1.1662 -1.2338
   36CHL1    C8 2604   6.225   1.845   3.432 -0.4784 -0.3188 -0.2695
   36CHL1    H8 2605   6.145   1.922   3.436 -0.4165 -0.3052  0.9984
   36CHL1   C14 2606   6.249   1.786   3.572 -0.3134 -0.6233  0.1381
   36CHL1   H14 2607   6.340   1.722   3.558 -0.4204 -0.2889 -2.6873
   36CHL1   C15 2608   6.136   1.714   3.634 -0.1435 -0.0785 -0.3971
   36CHL1  H15A 2609   6.045   1.779   3.632  0.3205  0.5717 -0.7364
   36CHL1  H15B 2610   6.112   1.619   3.583 -0.1061  0.5000 -1.5251
   36CHL1   C16 2611   6.181   1.694   3.779  0.5238  0.1960 -0.0183
   36CHL1  H16A 2612   6.103   1.732   3.848  1.2280 -3.3058  3.0490
   36CHL1  H16B 2613   6.208   1.588   3.796  0.2957  0.2502  0.7334
   36CHL1   C17 2614   6.309   1.778   3.788 -0.4043  0.1835  0.8667
   36CHL1   H17 2615   6.389   1.704   3.770 -1.2233 -0.2284 -1.3912
   36CHL1   C13 2616   6.302   1.879   3.675  0.5039 -0.0991  0.3216
   36CHL1   C18 2617   6.201   1.989   3.706  1.1637  0.0904  0.0321
   36CHL1  H18A 2618   6.168   2.037   3.611 -2.1412  0.3936  1.2175
   36CHL1  H18B 2619   6.106   1.957   3.753  1.5721  0.5372  1.1926
   36CHL1  H18C 2620   6.249   2.081   3.746 -0.6478  0.7505  0.7736
   36CHL1   C12 2621   6.432   1.954   3.619  0.3736  0.5783 -0.0371
   36CHL1  H12A 2622   6.463   2.037   3.685 -2.0313  0.4560  1.3653
   36CHL1  H12B 2623   6.522   1.888   3.612 -0.2280 -0.0914 -2.6059
   36CHL1   C11 2624   6.406   2.011   3.479  0.1354 -0.4899 -0.1268
   36CHL1  H11A 2625   6.336   2.096   3.490  1.5990  1.0904 -2.1410
   36CHL1  H11B 2626   6.501   2.043   3.431 -0.4317  0.2592 -0.7738
   36CHL1    C9 2627   6.349   1.903   3.376 -0.5531 -0.4845 -0.9410
   36CHL1    H9 2628   6.426   1.824   3.370 -1.0696 -1.0296 -0.4904
   36CHL1   C10 2629   6.340   1.952   3.227  1.3575 -0.7787 -0.0015
   36CHL1   C19 2630   6.284   2.101   3.226  0.2191  1.0011  0.6317
   36CHL1  H19A 2631   6.346   2.176   3.280 -2.9769  2.6237  2.3695
   36CHL1  H19B 2632   6.279   2.133   3.119  0.3525 -2.5078 -0.5471
   36CHL1  H19C 2633   6.181   2.114   3.265  0.3702  1.1489  0.9874
   36CHL1    C1 2634   6.483   1.952   3.160 -0.5766  0.7392  0.2343
   36CHL1   H1A 2635   6.546   2.028   3.211 -0.2759 -0.5028  1.7903
   36CHL1   H1B 2636   6.523   1.849   3.170  0.7008  1.2355  0.4974
   36CHL1    C2 2637   6.479   1.998   3.010 -0.0085  0.1922 -0.1655
   36CHL1   H2A 2638   6.580   2.015   2.968  0.8566 -1.8384  0.9586
   36CHL1   H2B 2639   6.425   2.095   3.005 -0.9025 -0.2206  0.9142
   36CHL1   C20 2640   6.332   1.830   3.932  0.0053 -0.0943  0.4169
   36CHL1   H20 2641   6.249   1.901   3.949  0.3914  0.0229  1.9304
   36CHL1   C21 2642   6.460   1.902   3.942  0.3508  0.3337  0.5859
   36CHL1  H21A 2643   6.545   1.848   3.896 -1.1108  0.5776 -2.6364
   36CHL1  H21B 2644   6.497   1.917   4.046  3.7427  0.2219 -0.4880
   36CHL1  H21C 2645   6.443   1.998   3.889 -1.5474  0.7753  1.8769
   36CHL1   C22 2646   6.311   1.726   4.047 -0.1831 -0.5902  0.1937
   36CHL1  H22A 2647   6.222   1.661   4.032  0.6788 -1.5547 -0.9404
   36CHL1  H22B 2648   6.395   1.656   4.063  0.6411  0.6166  1.3579
   36CHL1   C23 2649   6.274   1.799   4.181 -0.6308 -0.2567  0.6195
   36CHL1  H23A 2650   6.350   1.875   4.207 -0.7317  0.3686 -0.8439
   36CHL1  H23B 2651   6.177   1.853   4.172 -0.1325  0.9246  2.1019
   36CHL1   C24 2652   6.260   1.699   4.298 -0.3811 -0.0184 -0.4614
   36CHL1  H24A 2653   6.202   1.606   4.281 -0.9590  0.0743  0.8655
   36CHL1  H24B 2654   6.362   1.657   4.309 -0.1397  0.4803 -0.7642
   36CHL1   C25 2655   6.213   1.759   4.430 -0.2515 -0.4345 -0.1199
   36CHL1   H25 2656   6.265   1.856   4.443  1.3276 -0.8914 -2.4826
   36CHL1   C26 2657   6.068   1.810   4.441 -0.8178 -0.0165  0.1381
   36CHL1  H26A 2658   6.076   1.857   4.541  0.9947 -0.2700  0.1482
   36CHL1  H26B 2659   6.056   1.887   4.362 -0.0436 -1.4531 -1.4364
   36CHL1  H26C 2660   5.997   1.726   4.430  0.1454 -0.6265 -2.0334
   36CHL1   C27 2661   6.252   1.672   4.549 -0.4571  0.1202 -0.1117
   36CHL1  H27A 2662   6.203   1.572   4.547  0.1810 -0.1903 -1.1182
   36CHL1  H27B 2663   6.358   1.642   4.532 -1.4059 -1.8041 -3.3845
   36CHL1  H27C 2664   6.225   1.708   4.651  0.0901 -0.0529  0.0979
   37CHL1    C3 2665   2.859   0.424   2.741  0.8847  0.1751 -0.0457
   37CHL1    H3 2666   2.911   0.333   2.776 -2.0985 -1.0043  1.7669
   37CHL1    O3 2667   2.850   0.422   2.596  0.2777  0.0530 -0.1288
   37CHL1   H3' 2668   2.815   0.510   2.577  0.4984  0.1881  0.0917
   37CHL1    C4 2669   2.716   0.424   2.812 -0.0726 -0.6342  0.3650
   37CHL1   H4A 2670   2.674   0.518   2.771 -0.3202 -0.7028  0.4592
   37CHL1   H4B 2671   2.651   0.346   2.766 -0.4686 -0.1995  0.1797
   37CHL1    C5 2672   2.733   0.427   2.959 -0.0669 -0.2255  0.3096
   37CHL1    C6 2673   2.680   0.321   3.025  0.4454  0.0453 -0.0876
   37CHL1    H6 2674   2.633   0.242   2.964 -3.3245  0.6736  1.7100
   37CHL1    C7 2675   2.695   0.303   3.170  0.0200  0.1950  0.2031
   37CHL1   H7A 2676   2.593   0.283   3.210 -1.0587  1.9824 -1.4381
   37CHL1   H7B 2677   2.760   0.218   3.198  2.3541  1.5289 -0.8668
   37CHL1    C8 2678   2.735   0.437   3.242 -0.2679 -0.5806  0.0911
   37CHL1    H8 2679   2.642   0.496   3.230 -0.6587 -1.7244 -3.7867
   37CHL1   C14 2680   2.791   0.421   3.384  0.2244  0.2516 -0.9029
   37CHL1   H14 2681   2.883   0.362   3.366 -1.3399 -1.8605 -2.4747
   37CHL1   C15 2682   2.699   0.336   3.477  0.1973  0.0753  0.4958
   37CHL1  H15A 2683   2.593   0.360   3.457  0.6364  0.4750 -1.5207
   37CHL1  H15B 2684   2.703   0.226   3.461 -0.1925  0.3421 -1.6318
   37CHL1   C16 2685   2.737   0.375   3.621  0.0370  0.4509  0.2444
   37CHL1  H16A 2686   2.645   0.412   3.671 -1.0154 -2.3765  0.5808
   37CHL1  H16B 2687   2.786   0.298   3.684  0.5608  1.6298  1.3007
   37CHL1   C17 2688   2.842   0.496   3.603  0.5766  0.6959  0.9138
   37CHL1   H17 2689   2.946   0.457   3.597  0.4519  0.3102  1.1896
   37CHL1   C13 2690   2.821   0.547   3.460  0.7024  0.7468 -0.2968
   37CHL1   C18 2691   2.704   0.643   3.479  0.9309 -0.4958  0.0218
   37CHL1  H18A 2692   2.744   0.733   3.529 -0.8713  0.7758 -0.7293
   37CHL1  H18B 2693   2.662   0.683   3.384  0.2458 -1.9443 -0.3236
   37CHL1  H18C 2694   2.610   0.609   3.526 -0.5069 -0.2266 -2.4616
   37CHL1   C12 2695   2.943   0.608   3.384  0.0886 -0.7217  0.1235
   37CHL1  H12A 2696   2.974   0.703   3.432  0.0255  0.0325 -1.2544
   37CHL1  H12B 2697   3.029   0.538   3.395 -0.0534 -0.9230 -0.0363
   37CHL1   C11 2698   2.902   0.636   3.237  0.0087 -0.0160 -0.2167
   37CHL1  H11A 2699   2.816   0.706   3.232 -0.4619 -0.6013 -0.4499
   37CHL1  H11B 2700   2.981   0.689   3.180 -0.1733 -0.6076 -1.0292
   37CHL1    C9 2701   2.850   0.510   3.162 -0.2871 -0.5209  0.7766
   37CHL1    H9 2702   2.941   0.447   3.168  0.0466 -0.6481 -3.0998
   37CHL1   C10 2703   2.818   0.541   3.018  0.0540 -0.0887  0.3796
   37CHL1   C19 2704   2.735   0.676   2.996  0.0205 -0.2304  1.0660
   37CHL1  H19A 2705   2.648   0.664   3.065  1.2532  2.4174  3.2942
   37CHL1  H19B 2706   2.786   0.770   3.025 -1.7247  1.1593 -0.1494
   37CHL1  H19C 2707   2.697   0.687   2.893 -0.6380 -0.2505  1.3009
   37CHL1    C1 2708   2.955   0.546   2.939 -0.1166 -0.6891  0.2691
   37CHL1   H1A 2709   3.011   0.637   2.970 -2.1951  0.5726  0.5265
   37CHL1   H1B 2710   3.013   0.458   2.974  2.7117  1.1889  0.6954
   37CHL1    C2 2711   2.942   0.542   2.783 -0.2441 -0.0580  0.2586
   37CHL1   H2A 2712   3.038   0.527   2.729 -0.3170  0.1930  0.0586
   37CHL1   H2B 2713   2.897   0.634   2.738 -0.5143 -1.3809 -2.3137
   37CHL1   C20 2714   2.851   0.599   3.718 -0.4697  0.3483  0.0013
   37CHL1   H20 2715   2.753   0.648   3.739 -0.2554 -0.2364  2.6839
   37CHL1   C21 2716   2.950   0.712   3.695  0.4060 -0.6859  1.0182
   37CHL1  H21A 2717   2.930   0.780   3.610 -0.0721 -1.4761  0.4867
   37CHL1  H21B 2718   3.048   0.663   3.678  0.0879 -1.4380  1.2995
   37CHL1  H21C 2719   2.946   0.779   3.784 -2.0114  1.7578 -0.7593
   37CHL1   C22 2720   2.883   0.547   3.855 -0.0231 -0.6370 -0.1504
   37CHL1  H22A 2721   2.834   0.450   3.878 -2.2769  0.6560  0.9185
   37CHL1  H22B 2722   2.992   0.525   3.864  0.0142 -0.1835  0.6001
   37CHL1   C23 2723   2.825   0.632   3.970 -0.9215  0.4978 -0.0242
   37CHL1  H23A 2724   2.880   0.728   3.963  2.9048 -1.5344 -0.7982
   37CHL1  H23B 2725   2.716   0.654   3.960 -1.0576 -0.0920  0.1200
   37CHL1   C24 2726   2.868   0.576   4.109 -0.0413 -0.0412  0.0846
   37CHL1  H24A 2727   2.833   0.472   4.103 -0.7979  0.1861  0.4664
   37CHL1  H24B 2728   2.979   0.568   4.105  0.1784 -1.9847  4.5184
   37CHL1   C25 2729   2.818   0.658   4.227 -0.2620  0.6942  0.2723
   37CHL1   H25 2730   2.729   0.713   4.187  0.5370  0.3270 -2.1941
   37CHL1   C26 2731   2.775   0.583   4.348  0.2024  0.3224  0.1465
   37CHL1  H26A 2732   2.851   0.528   4.408  2.7668  2.7882 -0.6158
   37CHL1  H26B 2733   2.747   0.654   4.429  1.6058 -1.2871  2.1546
   37CHL1  H26C 2734   2.682   0.526   4.326 -0.3057  0.9345  0.6676
   37CHL1   C27 2735   2.913   0.767   4.268  0.9128  0.5815 -0.2047
   37CHL1  H27A 2736   3.012   0.723   4.290  0.6114 -0.4170 -0.7655
   37CHL1  H27B 2737   2.920   0.840   4.184 -0.6956  1.7522  0.6010
   37CHL1  H27C 2738   2.880   0.827   4.356 -0.4503 -0.7696  0.2422
   38CHL1    C3 2739   5.454   5.083   3.120 -0.0708  0.0822 -0.1251
   38CHL1    H3 2740   5.427   5.187   3.150  2.2113  0.1350  2.1423
   38CHL1    O3 2741   5.472   5.079   2.983  0.5345  0.0792  0.2440
   38CHL1   H3' 2742   5.532   5.006   2.966  2.4500  1.8670 -1.1824
   38CHL1    C4 2743   5.594   5.050   3.176 -0.1341  0.6361 -0.3336
   38CHL1   H4A 2744   5.615   4.949   3.135 -0.4010 -1.2308  3.6903
   38CHL1   H4B 2745   5.659   5.130   3.133  0.3906  0.7048  0.5633
   38CHL1    C5 2746   5.602   5.035   3.331  0.7074  0.3078 -0.1432
   38CHL1    C6 2747   5.683   5.111   3.414 -0.6069 -0.5697 -0.5404
   38CHL1    H6 2748   5.755   5.181   3.370  0.6617 -0.1575  1.9985
   38CHL1    C7 2749   5.684   5.096   3.564  0.2525 -0.7448  0.3279
   38CHL1   H7A 2750   5.787   5.082   3.602 -0.5332  1.0959  3.4700
   38CHL1   H7B 2751   5.637   5.191   3.598 -2.2633 -1.0644 -1.8772
   38CHL1    C8 2752   5.609   4.973   3.618 -0.1940  0.1690  0.9435
   38CHL1    H8 2753   5.669   4.881   3.605  1.6048  1.4734 -0.4813
   38CHL1   C14 2754   5.580   4.992   3.769  0.3052 -0.4779  0.0655
   38CHL1   H14 2755   5.518   5.084   3.764  1.3193  0.2392  0.4220
   38CHL1   C15 2756   5.698   5.020   3.858  1.1487 -0.3066 -0.0161
   38CHL1  H15A 2757   5.782   4.947   3.856  1.0660 -0.4037 -2.2378
   38CHL1  H15B 2758   5.747   5.117   3.840 -0.3189  1.0162  2.5438
   38CHL1   C16 2759   5.638   5.000   4.002  0.2508 -0.3075  0.6158
   38CHL1  H16A 2760   5.717   4.949   4.061 -1.3159 -0.4077  2.7157
   38CHL1  H16B 2761   5.627   5.098   4.053  0.7298 -0.0208  0.1813
   38CHL1   C17 2762   5.492   4.941   3.979 -0.6664  0.2811 -0.2563
   38CHL1   H17 2763   5.417   5.022   3.972 -1.0931 -0.0994 -0.1885
   38CHL1   C13 2764   5.499   4.877   3.837 -0.2873 -0.1940  0.2506
   38CHL1   C18 2765   5.573   4.738   3.828 -0.1123  0.1233  0.2550
   38CHL1  H18A 2766   5.599   4.716   3.722 -2.4541 -0.2271 -0.3008
   38CHL1  H18B 2767   5.666   4.739   3.888  0.1315  1.0439 -0.1167
   38CHL1  H18C 2768   5.508   4.652   3.856  1.1086 -1.7850 -2.3652
   38CHL1   C12 2769   5.364   4.874   3.760 -0.1407 -0.1224  0.5605
   38CHL1  H12A 2770   5.301   4.788   3.792  1.3367 -0.9334  1.4054
   38CHL1  H12B 2771   5.300   4.965   3.769 -1.8175 -1.0825 -0.9015
   38CHL1   C11 2772   5.395   4.847   3.608 -0.4784  0.0482 -0.6278
   38CHL1  H11A 2773   5.441   4.747   3.593 -1.0563 -0.5283  1.2099
   38CHL1  H11B 2774   5.298   4.846   3.554 -0.4066  3.1080 -1.0191
   38CHL1    C9 2775   5.472   4.956   3.544 -0.0171  0.2008  0.1362
   38CHL1    H9 2776   5.409   5.046   3.562 -0.4452  0.1230 -0.9360
   38CHL1   C10 2777   5.499   4.937   3.390  1.2082 -0.7763  0.5591
   38CHL1   C19 2778   5.558   4.791   3.366  0.2343 -0.2219 -0.8922
   38CHL1  H19A 2779   5.587   4.773   3.261  0.4058  1.0132 -1.0786
   38CHL1  H19B 2780   5.648   4.789   3.433 -1.4967  0.4555  1.6074
   38CHL1  H19C 2781   5.483   4.720   3.407  1.1185 -2.1055 -2.3843
   38CHL1    C1 2782   5.360   4.961   3.321  0.1923 -0.2235 -0.8597
   38CHL1   H1A 2783   5.293   4.882   3.361 -0.0769 -0.5104 -1.8574
   38CHL1   H1B 2784   5.323   5.051   3.374  3.5934  0.3654  0.7573
   38CHL1    C2 2785   5.347   4.980   3.167  0.6176  0.1663 -0.8813
   38CHL1   H2A 2786   5.246   5.011   3.135  0.1194 -2.6393 -2.2960
   38CHL1   H2B 2787   5.380   4.886   3.118  2.1118 -0.2994  0.9089
   38CHL1   C20 2788   5.462   4.836   4.089  0.4191 -0.2794  0.7189
   38CHL1   H20 2789   5.528   4.748   4.078 -0.0757 -0.6689  0.8472
   38CHL1   C21 2790   5.316   4.792   4.086  0.4229  0.5883  0.3214
   38CHL1  H21A 2791   5.309   4.725   3.997 -1.9572  0.7449  0.3121
   38CHL1  H21B 2792   5.248   4.880   4.089 -1.8020 -0.9120 -2.0719
   38CHL1  H21C 2793   5.300   4.727   4.175 -0.1922 -0.6934 -0.6950
   38CHL1   C22 2794   5.493   4.891   4.234  0.1631  0.5550 -0.1208
   38CHL1  H22A 2795   5.446   4.823   4.308 -1.2090  0.0603 -1.3734
   38CHL1  H22B 2796   5.600   4.876   4.259  0.3044 -0.4099 -1.1710
   38CHL1   C23 2797   5.437   5.026   4.270 -0.1230  0.3738 -0.6208
   38CHL1  H23A 2798   5.439   5.106   4.193 -1.4285 -0.0972 -1.1753
   38CHL1  H23B 2799   5.328   5.020   4.289  0.1218 -1.0699  0.5505
   38CHL1   C24 2800   5.501   5.076   4.403  0.6740 -0.0148  0.4441
   38CHL1  H24A 2801   5.490   4.999   4.482  1.3944 -0.8363 -0.2360
   38CHL1  H24B 2802   5.611   5.080   4.384  0.5862  1.4819  0.0607
   38CHL1   C25 2803   5.455   5.213   4.459 -0.4733 -0.0684  0.5356
   38CHL1   H25 2804   5.344   5.214   4.459 -0.5080 -0.8885  2.2051
   38CHL1   C26 2805   5.506   5.242   4.595 -0.5685 -0.9619 -0.3996
   38CHL1  H26A 2806   5.616   5.235   4.603 -0.3396  1.1744 -1.0290
   38CHL1  H26B 2807   5.477   5.346   4.623 -0.0342 -1.3741  1.8693
   38CHL1  H26C 2808   5.453   5.184   4.674 -1.3542 -0.5050 -0.5780
   38CHL1   C27 2809   5.497   5.327   4.370  0.1269  0.5085 -0.1673
   38CHL1  H27A 2810   5.464   5.313   4.265  1.8225 -1.1930 -0.5499
   38CHL1  H27B 2811   5.451   5.423   4.402 -2.7211  0.1623 -2.8287
   38CHL1  H27C 2812   5.607   5.334   4.385  0.1904 -1.1238  0.4103
   39CHL1    C3 2813   5.974   5.833   2.994 -0.5107 -0.0479 -0.1262
   39CHL1    H3 2814   6.082   5.858   3.008 -0.4902  0.4868 -1.1452
   39CHL1    O3 2815   5.949   5.803   2.855 -0.4323  0.0222  0.1241
   39CHL1   H3' 2816   5.854   5.799   2.841 -0.4103 -2.6581  0.1600
   39CHL1    C4 2817   5.934   5.717   3.089  0.5959 -0.9169 -0.4612
   39CHL1   H4A 2818   5.834   5.676   3.064  0.7590 -1.1231 -0.7900
   39CHL1   H4B 2819   5.997   5.630   3.063 -0.4253 -1.0407 -2.7949
   39CHL1    C5 2820   5.947   5.750   3.234  0.4867  0.1992 -0.7587
   39CHL1    C6 2821   6.017   5.667   3.312  0.4157 -0.4623 -0.3288
   39CHL1    H6 2822   6.054   5.569   3.278  1.6165 -0.0883 -0.1560
   39CHL1    C7 2823   6.024   5.682   3.460  0.5922 -0.2531 -0.1148
   39CHL1   H7A 2824   5.982   5.592   3.510 -0.8215  0.7520  0.5485
   39CHL1   H7B 2825   6.129   5.682   3.496 -0.0294 -0.2227  1.7647
   39CHL1    C8 2826   5.953   5.808   3.523 -0.1338 -0.1797  0.4488
   39CHL1    H8 2827   5.851   5.789   3.562  0.0548  2.5864  2.6259
   39CHL1   C14 2828   6.022   5.863   3.644  0.1059 -0.1475 -0.7618
   39CHL1   H14 2829   6.115   5.917   3.617  0.7686 -0.2668  1.1852
   39CHL1   C15 2830   6.060   5.768   3.752  0.2255  0.0304  0.6751
   39CHL1  H15A 2831   5.972   5.701   3.765  0.5960 -0.2780  1.6665
   39CHL1  H15B 2832   6.150   5.705   3.737 -1.0238 -2.8014  3.7937
   39CHL1   C16 2833   6.099   5.849   3.881  0.6245 -0.2502  0.3517
   39CHL1  H16A 2834   6.043   5.799   3.962 -0.7914 -1.1359 -1.1191
   39CHL1  H16B 2835   6.208   5.840   3.897  0.5252 -0.7003  0.8010
   39CHL1   C17 2836   6.042   5.995   3.841 -0.3827  0.2412  0.7827
   39CHL1   H17 2837   6.133   6.045   3.801 -0.3195 -1.5426 -1.4753
   39CHL1   C13 2838   5.952   5.974   3.717  1.4714 -0.6783 -0.4623
   39CHL1   C18 2839   5.814   5.934   3.777  0.1515  0.0445 -0.0072
   39CHL1  H18A 2840   5.751   6.018   3.812 -1.7840 -1.1238 -0.5516
   39CHL1  H18B 2841   5.749   5.893   3.697 -0.4112  1.3712 -0.2638
   39CHL1  H18C 2842   5.819   5.860   3.860 -3.1695 -0.9612 -0.5695
   39CHL1   C12 2843   5.947   6.096   3.617  0.2143  1.1880  0.0372
   39CHL1  H12A 2844   5.903   6.183   3.670 -0.4588  0.9018 -0.0372
   39CHL1  H12B 2845   6.049   6.133   3.592  0.1804  1.5887  0.4805
   39CHL1   C11 2846   5.880   6.055   3.486 -0.2574  0.7000  0.3540
   39CHL1  H11A 2847   5.777   6.028   3.518  0.2530 -0.8553  0.7852
   39CHL1  H11B 2848   5.886   6.141   3.416  0.0866  0.5017  0.1335
   39CHL1    C9 2849   5.941   5.926   3.424 -0.0331 -0.0791 -0.4966
   39CHL1    H9 2850   6.044   5.966   3.411 -0.3196  1.3642  1.2390
   39CHL1   C10 2851   5.885   5.882   3.285 -0.2961 -0.1414  0.9174
   39CHL1   C19 2852   5.739   5.870   3.301 -0.0033  0.4941 -0.2106
   39CHL1  H19A 2853   5.687   5.967   3.307 -2.0060 -0.4144 -1.7316
   39CHL1  H19B 2854   5.687   5.823   3.214 -1.4091 -0.5637  1.1577
   39CHL1  H19C 2855   5.707   5.812   3.389  1.2691 -0.4830 -0.3536
   39CHL1    C1 2856   5.915   5.998   3.183  0.0332  1.0338 -0.7648
   39CHL1   H1A 2857   5.863   6.093   3.209  0.2225  1.5485 -2.1985
   39CHL1   H1B 2858   6.020   6.032   3.184 -0.3529  2.2943  0.0738
   39CHL1    C2 2859   5.886   5.952   3.040 -1.2494  0.4354  0.4331
   39CHL1   H2A 2860   5.911   6.044   2.982 -1.7622  1.1670  1.3321
   39CHL1   H2B 2861   5.778   5.930   3.026 -0.5970 -1.4012 -2.5023
   39CHL1   C20 2862   5.993   6.068   3.965 -0.6052 -0.0529  0.3385
   39CHL1   H20 2863   5.903   6.012   3.997 -0.4486 -2.0557 -2.4273
   39CHL1   C21 2864   5.941   6.211   3.938 -0.2091 -0.2489 -0.0468
   39CHL1  H21A 2865   6.021   6.274   3.893  1.1362 -1.0286  1.1776
   39CHL1  H21B 2866   5.904   6.257   4.033 -0.4102  0.0342 -0.2612
   39CHL1  H21C 2867   5.859   6.206   3.863  0.4295 -2.2163 -0.6687
   39CHL1   C22 2868   6.095   6.068   4.086 -0.1670  0.2070  0.4441
   39CHL1  H22A 2869   6.158   5.977   4.096 -0.2875 -0.1275 -1.4238
   39CHL1  H22B 2870   6.165   6.154   4.081  0.0085  0.1770  2.0069
   39CHL1   C23 2871   6.018   6.086   4.223 -0.1462 -0.0957  0.1348
   39CHL1  H23A 2872   5.981   6.191   4.229 -1.0840 -0.4559  1.0364
   39CHL1  H23B 2873   5.926   6.025   4.207  0.4124 -0.9373  0.0807
   39CHL1   C24 2874   6.084   6.034   4.349  0.0476  0.0070  0.3494
   39CHL1  H24A 2875   6.120   5.930   4.333 -1.6610 -0.8873  1.8601
   39CHL1  H24B 2876   6.166   6.103   4.377  0.3172  0.3427 -1.1749
   39CHL1   C25 2877   6.003   6.040   4.480 -0.0247  0.1567 -0.1215
   39CHL1   H25 2878   5.993   6.147   4.510  0.4899 -0.0645  0.8752
   39CHL1   C26 2879   5.861   5.976   4.470 -0.2229  0.2185 -0.0335
   39CHL1  H26A 2880   5.810   5.974   4.569  1.5386 -0.3794  0.8831
   39CHL1  H26B 2881   5.782   6.018   4.404 -1.1078 -1.1947  0.0769
   39CHL1  H26C 2882   5.866   5.870   4.440  0.9213  0.9361 -2.6040
   39CHL1   C27 2883   6.083   5.970   4.589 -0.3644  0.1179 -0.7307
   39CHL1  H27A 2884   6.181   6.019   4.609 -0.3943 -0.1808  0.2009
   39CHL1  H27B 2885   6.027   5.966   4.685 -3.8591 -1.8553 -2.6721
   39CHL1  H27C 2886   6.093   5.862   4.565 -0.8883  0.0426 -0.6107
   40CHL1    C3 2887   4.640   3.064   2.556 -0.5277  0.2966  0.2013
   40CHL1    H3 2888   4.732   3.007   2.577  0.9874  1.1008 -3.5320
   40CHL1    O3 2889   4.629   3.073   2.418  0.0057 -0.3774 -0.0944
   40CHL1   H3' 2890   4.563   3.007   2.395  1.3773 -0.3408 -5.1522
   40CHL1    C4 2891   4.516   3.006   2.629  0.0160  0.2723  0.2195
   40CHL1   H4A 2892   4.423   3.062   2.603 -2.9216 -4.3629 -0.4633
   40CHL1   H4B 2893   4.506   2.906   2.582  0.9219 -0.4200  1.4435
   40CHL1    C5 2894   4.526   2.995   2.775 -0.0827 -0.5596  0.0444
   40CHL1    C6 2895   4.515   2.880   2.840  0.2250  0.4311  0.2505
   40CHL1    H6 2896   4.490   2.795   2.775 -0.3551  1.0450 -0.3572
   40CHL1    C7 2897   4.528   2.859   2.990 -0.9331  0.5636 -0.4398
   40CHL1   H7A 2898   4.458   2.780   3.024  0.6818 -0.6736  0.0945
   40CHL1   H7B 2899   4.625   2.809   3.007 -1.2701 -0.1104 -0.4558
   40CHL1    C8 2900   4.510   2.991   3.056 -0.0554 -0.0174  0.1462
   40CHL1    H8 2901   4.402   3.018   3.057 -0.6509 -2.0556  3.2974
   40CHL1   C14 2902   4.547   2.976   3.205  0.1504  0.3197  0.1439
   40CHL1   H14 2903   4.656   2.955   3.210 -0.1684 -1.2507  3.6982
   40CHL1   C15 2904   4.485   2.860   3.285  0.1706  0.3172  0.0357
   40CHL1  H15A 2905   4.374   2.856   3.283 -0.1783  0.8740  4.7952
   40CHL1  H15B 2906   4.515   2.761   3.244  2.0358  0.0087  1.9476
   40CHL1   C16 2907   4.531   2.898   3.427  0.0046 -0.2218 -0.0818
   40CHL1  H16A 2908   4.460   2.861   3.504  0.8214 -0.9724  0.3343
   40CHL1  H16B 2909   4.624   2.841   3.444 -0.1635 -0.1546  1.1799
   40CHL1   C17 2910   4.565   3.047   3.428 -0.4901 -0.0978 -0.6734
   40CHL1   H17 2911   4.676   3.058   3.431 -0.4526 -0.5371  2.0909
   40CHL1   C13 2912   4.520   3.107   3.291 -0.0549  1.0464  0.5989
   40CHL1   C18 2913   4.377   3.160   3.292  1.0852 -0.5972 -0.1369
   40CHL1  H18A 2914   4.307   3.120   3.369 -0.0615  2.2002  0.4213
   40CHL1  H18B 2915   4.371   3.271   3.302 -1.1058 -0.6488 -0.3754
   40CHL1  H18C 2916   4.326   3.136   3.196  2.4893  1.0948 -1.3711
   40CHL1   C12 2917   4.618   3.210   3.226  0.0663  0.0802  0.3639
   40CHL1  H12A 2918   4.605   3.310   3.272  1.1173  0.0416  0.7825
   40CHL1  H12B 2919   4.723   3.175   3.240  1.5161  3.3133 -1.3893
   40CHL1   C11 2920   4.595   3.225   3.071  0.3932  0.1877 -0.5625
   40CHL1  H11A 2921   4.498   3.277   3.062  0.5165  0.4797 -0.2744
   40CHL1  H11B 2922   4.675   3.293   3.032  1.5182 -1.2034 -0.7690
   40CHL1    C9 2923   4.593   3.097   2.993 -0.7844  1.3512  0.9957
   40CHL1    H9 2924   4.697   3.060   2.992 -0.6551  1.6694  1.6858
   40CHL1   C10 2925   4.568   3.128   2.842  0.0147  0.3746 -0.5511
   40CHL1   C19 2926   4.449   3.228   2.831  0.2465  0.5501  0.1047
   40CHL1  H19A 2927   4.393   3.242   2.736 -1.6363  1.5212  1.2845
   40CHL1  H19B 2928   4.376   3.196   2.909 -1.0444 -0.5846 -1.4940
   40CHL1  H19C 2929   4.490   3.328   2.854  1.9056  0.4671 -2.2696
   40CHL1    C1 2930   4.690   3.187   2.768  1.4257  0.3499  0.0953
   40CHL1   H1A 2931   4.703   3.288   2.811 -2.5390  0.0128  2.6225
   40CHL1   H1B 2932   4.777   3.123   2.791 -0.9397 -1.9085  3.8687
   40CHL1    C2 2933   4.667   3.201   2.615 -0.1714  0.3867  0.2973
   40CHL1   H2A 2934   4.757   3.248   2.570 -0.5114  0.8851  0.1231
   40CHL1   H2B 2935   4.585   3.276   2.605 -0.4636  0.1501  0.8755
   40CHL1   C20 2936   4.531   3.126   3.553  0.5163  0.3819  0.3617
   40CHL1   H20 2937   4.420   3.119   3.559  0.0989  2.8447 -2.3734
   40CHL1   C21 2938   4.560   3.274   3.536 -0.4293 -0.2064 -0.6297
   40CHL1  H21A 2939   4.667   3.289   3.511 -0.5729 -0.1399 -1.2355
   40CHL1  H21B 2940   4.543   3.336   3.626  0.8851 -0.1999 -0.3677
   40CHL1  H21C 2941   4.512   3.318   3.446  1.2883 -2.2974 -2.7146
   40CHL1   C22 2942   4.610   3.061   3.672 -0.0457  0.6685 -0.8515
   40CHL1  H22A 2943   4.581   2.954   3.683 -0.0023  0.7805  0.6411
   40CHL1  H22B 2944   4.720   3.060   3.655  0.5332 -0.9783  2.2423
   40CHL1   C23 2945   4.581   3.127   3.814 -1.1348 -0.0672  0.3814
   40CHL1  H23A 2946   4.643   3.219   3.815  1.8358 -1.9210  0.5021
   40CHL1  H23B 2947   4.474   3.156   3.816 -1.1835 -0.2510  2.0599
   40CHL1   C24 2948   4.639   3.048   3.928  0.8982  0.0414 -0.6064
   40CHL1  H24A 2949   4.743   3.012   3.913  1.5517  0.7749  1.7708
   40CHL1  H24B 2950   4.645   3.119   4.013  1.8161  0.0974 -0.7075
   40CHL1   C25 2951   4.550   2.931   3.980 -0.0354  0.4855  1.4201
   40CHL1   H25 2952   4.540   2.862   3.893 -0.5312  0.6291  1.3607
   40CHL1   C26 2953   4.615   2.845   4.091  0.2926 -0.3303 -0.7538
   40CHL1  H26A 2954   4.546   2.759   4.106  2.8225 -2.4706 -0.5778
   40CHL1  H26B 2955   4.719   2.809   4.076 -0.1013 -1.8576 -0.0311
   40CHL1  H26C 2956   4.623   2.915   4.177 -1.6495 -0.1404 -0.6665
   40CHL1   C27 2957   4.413   2.979   4.019  0.2852  0.0200 -0.9268
   40CHL1  H27A 2958   4.359   3.034   3.939  1.3270  1.1056 -0.9134
   40CHL1  H27B 2959   4.357   2.892   4.061  1.8663 -1.1369 -1.1082
   40CHL1  H27C 2960   4.423   3.045   4.108  0.9832 -4.3921  2.6327
   41CHL1    C3 2961   1.274   0.008   2.950  0.5343 -0.7513 -0.1673
   41CHL1    H3 2962   1.280   0.119   2.943  3.2158 -0.7448  1.0265
   41CHL1    O3 2963   1.256  -0.044   2.814  0.4859  0.0353  0.2488
   41CHL1   H3' 2964   1.231  -0.136   2.825  1.8582 -0.6419 -1.8637
   41CHL1    C4 2965   1.412  -0.047   2.999  0.5235 -0.0587 -0.1295
   41CHL1   H4A 2966   1.413  -0.157   3.008  1.4072  0.0953  2.7333
   41CHL1   H4B 2967   1.490  -0.016   2.927  0.2525 -1.9391 -1.2810
   41CHL1    C5 2968   1.445   0.007   3.138 -0.4390  0.7832 -0.8144
   41CHL1    C6 2969   1.552   0.076   3.178 -1.2914 -0.8301  0.1408
   41CHL1    H6 2970   1.628   0.102   3.103 -1.7437 -0.7970 -0.3144
   41CHL1    C7 2971   1.587   0.116   3.310 -0.0636 -0.2367  0.1152
   41CHL1   H7A 2972   1.691   0.097   3.344  0.6020 -0.0637 -1.7105
   41CHL1   H7B 2973   1.567   0.222   3.339  1.9239 -0.0649  1.0008
   41CHL1    C8 2974   1.503   0.035   3.416 -0.0310 -0.0540  0.5594
   41CHL1    H8 2975   1.555  -0.063   3.420  1.2546  0.5765  0.0092
   41CHL1   C14 2976   1.518   0.099   3.552  0.9562  0.4542  0.0273
   41CHL1   H14 2977   1.471   0.199   3.544 -1.5554 -0.5556  1.0348
   41CHL1   C15 2978   1.656   0.127   3.612  0.2855 -0.1348  0.4668
   41CHL1  H15A 2979   1.714   0.033   3.623 -1.0127 -1.0769 -0.4656
   41CHL1  H15B 2980   1.713   0.199   3.549 -2.4426 -0.9449 -3.2346
   41CHL1   C16 2981   1.626   0.190   3.745  0.2142 -0.3049 -0.2574
   41CHL1  H16A 2982   1.690   0.153   3.828 -0.2556 -1.8495 -0.5648
   41CHL1  H16B 2983   1.616   0.301   3.750 -0.0849 -0.2894 -1.0612
   41CHL1   C17 2984   1.480   0.133   3.786  0.4627  0.5084  0.1361
   41CHL1   H17 2985   1.402   0.212   3.785 -1.9423 -1.6853  0.5012
   41CHL1   C13 2986   1.436   0.037   3.670  0.9520 -0.1668  0.5795
   41CHL1   C18 2987   1.480  -0.105   3.702  0.4979  0.4378 -0.5782
   41CHL1  H18A 2988   1.404  -0.158   3.763 -2.0715  2.1662 -2.0904
   41CHL1  H18B 2989   1.490  -0.161   3.606 -3.2797  0.4263 -1.0972
   41CHL1  H18C 2990   1.577  -0.114   3.756  0.0091 -2.3777  0.0240
   41CHL1   C12 2991   1.287   0.051   3.630 -0.1678 -0.0266 -0.5164
   41CHL1  H12A 2992   1.224  -0.002   3.704  0.3193 -0.1837 -0.2057
   41CHL1  H12B 2993   1.248   0.155   3.624 -2.9911 -1.0394 -0.9542
   41CHL1   C11 2994   1.257  -0.018   3.498  0.2085  0.3105  0.4766
   41CHL1  H11A 2995   1.260  -0.126   3.523 -2.1869 -0.6911 -2.8182
   41CHL1  H11B 2996   1.152  -0.008   3.461  0.3682 -1.9927 -0.8078
   41CHL1    C9 2997   1.353   0.034   3.386 -0.1346  0.1808  1.0633
   41CHL1    H9 2998   1.325   0.141   3.376 -4.8851 -0.8807  0.3865
   41CHL1   C10 2999   1.330  -0.024   3.237 -0.6003  0.3936  0.0184
   41CHL1   C19 3000   1.340  -0.173   3.246  0.2015  0.3308  0.4629
   41CHL1  H19A 3001   1.309  -0.229   3.155  1.1072  2.6215 -1.3681
   41CHL1  H19B 3002   1.446  -0.202   3.261  0.2983 -0.4147 -1.4435
   41CHL1  H19C 3003   1.279  -0.203   3.333 -1.2538 -0.5320 -0.8067
   41CHL1    C1 3004   1.189   0.021   3.184  0.3472 -0.0220  0.2687
   41CHL1   H1A 3005   1.112   0.001   3.261 -0.2520 -1.2280 -0.6094
   41CHL1   H1B 3006   1.191   0.130   3.164  1.1270 -0.0269  0.2847
   41CHL1    C2 3007   1.164  -0.035   3.043  0.8554 -0.3537  0.1152
   41CHL1   H2A 3008   1.071   0.006   2.997  1.2249 -0.1939 -0.5025
   41CHL1   H2B 3009   1.161  -0.146   3.050  1.1101 -0.3207  0.8125
   41CHL1   C20 3010   1.464   0.088   3.932  0.0526 -0.4526 -0.2661
   41CHL1   H20 3011   1.534   0.002   3.941 -2.0875 -2.4791 -1.7661
   41CHL1   C21 3012   1.324   0.034   3.963  0.1519 -0.2904 -0.3003
   41CHL1  H21A 3013   1.243   0.110   3.967 -0.0295 -0.5181  1.5077
   41CHL1  H21B 3014   1.319  -0.011   4.065  0.5401  2.0334  0.8018
   41CHL1  H21C 3015   1.289  -0.042   3.890 -0.8269  1.4323 -1.6822
   41CHL1   C22 3016   1.489   0.202   4.035  0.4597  0.4631  0.1226
   41CHL1  H22A 3017   1.462   0.157   4.133  0.7364  0.2181  0.0859
   41CHL1  H22B 3018   1.593   0.240   4.040 -0.3640  2.7840  1.0497
   41CHL1   C23 3019   1.414   0.333   4.029  0.3754  0.2594  0.2285
   41CHL1  H23A 3020   1.448   0.387   3.937 -3.0266  0.5808 -1.0027
   41CHL1  H23B 3021   1.305   0.312   4.028  0.6524 -1.3227  0.8450
   41CHL1   C24 3022   1.436   0.411   4.158 -0.1811 -0.8849 -0.1508
   41CHL1  H24A 3023   1.394   0.341   4.233 -0.8552 -0.9678 -0.6038
   41CHL1  H24B 3024   1.544   0.402   4.186 -0.0864 -0.4907 -0.3929
   41CHL1   C25 3025   1.375   0.558   4.173 -0.5737  0.2887 -0.5071
   41CHL1   H25 3026   1.275   0.533   4.130 -0.2499 -1.7593 -0.1736
   41CHL1   C26 3027   1.359   0.605   4.317  0.5590 -1.0628  0.3085
   41CHL1  H26A 3028   1.252   0.629   4.331 -0.0214 -1.9258 -2.1509
   41CHL1  H26B 3029   1.389   0.540   4.402 -0.4066  0.2457  1.6999
   41CHL1  H26C 3030   1.413   0.702   4.322  0.6252 -1.0582 -0.4414
   41CHL1   C27 3031   1.450   0.665   4.086  0.4158 -0.0231 -0.2359
   41CHL1  H27A 3032   1.390   0.759   4.082  0.1945 -0.1845 -3.2612
   41CHL1  H27B 3033   1.552   0.684   4.126 -0.1731  1.2446  0.7377
   41CHL1  H27C 3034   1.470   0.626   3.983  0.6864 -0.6410  0.0469
   42CHL1    C3 3035   2.954   5.644   2.950  0.1621  0.1158  0.6989
   42CHL1    H3 3036   3.007   5.559   2.997 -1.7058 -1.9795 -0.7402
   42CHL1    O3 3037   2.941   5.624   2.808  0.1968 -0.5645 -0.6571
   42CHL1   H3' 3038   2.931   5.713   2.773  1.1618  0.1159  0.7223
   42CHL1    C4 3039   2.810   5.651   3.005 -0.1432  0.2298 -0.1455
   42CHL1   H4A 3040   2.743   5.734   2.975 -1.0642  0.4956  2.4211
   42CHL1   H4B 3041   2.771   5.551   2.976  4.3792 -1.2390 -2.1372
   42CHL1    C5 3042   2.812   5.673   3.155  0.5972  0.5050  0.4930
   42CHL1    C6 3043   2.733   5.595   3.233 -0.0614 -0.2590 -0.1596
   42CHL1    H6 3044   2.665   5.519   3.192 -0.9134 -0.8885  2.2786
   42CHL1    C7 3045   2.726   5.619   3.380 -0.1430  0.4006  0.1229
   42CHL1   H7A 3046   2.620   5.619   3.414  0.1337  0.2514  1.0030
   42CHL1   H7B 3047   2.777   5.530   3.422 -0.0007 -0.0073 -0.8972
   42CHL1    C8 3048   2.798   5.749   3.439 -0.4228  0.2400  0.2049
   42CHL1    H8 3049   2.723   5.831   3.435 -0.7327 -0.0801 -0.8229
   42CHL1   C14 3050   2.847   5.736   3.587  0.0469  0.1478  0.1559
   42CHL1   H14 3051   2.923   5.655   3.585  0.5030  0.5053  1.4600
   42CHL1   C15 3052   2.745   5.687   3.683 -0.3780 -0.0155  0.2649
   42CHL1  H15A 3053   2.657   5.755   3.671 -0.5616 -0.3057 -0.0493
   42CHL1  H15B 3054   2.708   5.584   3.668 -3.1360  0.5871  2.1839
   42CHL1   C16 3055   2.809   5.712   3.821 -0.0230  0.5463 -0.0996
   42CHL1  H16A 3056   2.734   5.767   3.883 -1.3899 -0.3629 -0.8943
   42CHL1  H16B 3057   2.842   5.618   3.871 -2.2434 -0.2727 -0.0368
   42CHL1   C17 3058   2.944   5.791   3.790  0.5294  0.3844  0.1196
   42CHL1   H17 3059   3.022   5.713   3.784 -0.1166 -0.2121 -0.8936
   42CHL1   C13 3060   2.922   5.851   3.652 -0.6190 -1.3251  0.3115
   42CHL1   C18 3061   2.833   5.971   3.668 -0.0175 -0.5259  0.3598
   42CHL1  H18A 3062   2.755   5.960   3.747 -1.7877 -0.9176 -1.3609
   42CHL1  H18B 3063   2.891   6.065   3.679  0.1970 -0.6062 -0.0701
   42CHL1  H18C 3064   2.777   5.988   3.573  0.4165  0.8058  0.3192
   42CHL1   C12 3065   3.052   5.871   3.562  0.9605 -0.5301  0.1614
   42CHL1  H12A 3066   3.112   5.960   3.589 -4.0662  2.9792  0.9126
   42CHL1  H12B 3067   3.114   5.779   3.574  1.8882 -0.1371 -1.3592
   42CHL1   C11 3068   3.019   5.880   3.409  0.6067 -0.8024  0.1199
   42CHL1  H11A 3069   2.962   5.976   3.404  2.3715  0.5957  3.7108
   42CHL1  H11B 3070   3.115   5.902   3.359  0.0080 -0.6360 -0.9950
   42CHL1    C9 3071   2.924   5.769   3.352  0.0588 -0.1469  0.3280
   42CHL1    H9 3072   2.981   5.675   3.370 -0.1576 -0.4406 -0.4820
   42CHL1   C10 3073   2.908   5.781   3.197  0.3028 -0.1080 -0.2739
   42CHL1   C19 3074   2.832   5.915   3.168  0.3585  0.1762  0.5154
   42CHL1  H19A 3075   2.824   5.912   3.058  2.5360  0.2517  0.3252
   42CHL1  H19B 3076   2.731   5.931   3.214  0.2789 -1.2559  0.8860
   42CHL1  H19C 3077   2.902   5.999   3.190 -2.5227  3.2889 -1.2676
   42CHL1    C1 3078   3.048   5.787   3.126  0.0422 -1.0681 -0.0862
   42CHL1   H1A 3079   3.089   5.886   3.154  1.5380 -2.1675  1.8692
   42CHL1   H1B 3080   3.120   5.716   3.172 -0.4771 -0.5106  1.6823
   42CHL1    C2 3081   3.038   5.766   2.978  0.5118 -0.1003  0.3348
   42CHL1   H2A 3082   3.142   5.766   2.939  0.6505  1.7312  0.5913
   42CHL1   H2B 3083   2.998   5.862   2.938  1.2948  0.7393  1.4677
   42CHL1   C20 3084   2.976   5.878   3.910  0.7439 -0.1720  0.4104
   42CHL1   H20 3085   2.898   5.953   3.933  0.7964  0.2447 -0.6790
   42CHL1   C21 3086   3.098   5.965   3.867  0.0734 -0.0521  0.3643
   42CHL1  H21A 3087   3.143   6.018   3.954  3.0948 -0.8480 -0.5901
   42CHL1  H21B 3088   3.067   6.050   3.802  1.5255 -0.0159 -0.3045
   42CHL1  H21C 3089   3.167   5.906   3.803  1.1137  0.5483  0.9012
   42CHL1   C22 3090   3.013   5.790   4.034  0.2024  0.1039  0.2851
   42CHL1  H22A 3091   3.041   5.868   4.108  1.1777  1.0205 -0.9996
   42CHL1  H22B 3092   2.931   5.718   4.055  1.9201 -2.5062 -1.2662
   42CHL1   C23 3093   3.131   5.691   4.023 -0.2168 -0.4662  0.0545
   42CHL1  H23A 3094   3.085   5.614   3.956 -1.1060  0.5359 -0.5218
   42CHL1  H23B 3095   3.218   5.738   3.972 -0.1982  0.8614  1.2514
   42CHL1   C24 3096   3.176   5.631   4.154 -0.1912 -0.7374  0.6370
   42CHL1  H24A 3097   3.098   5.565   4.199 -0.3352 -1.0461 -0.0498
   42CHL1  H24B 3098   3.266   5.568   4.134 -0.1852 -0.0282 -1.9716
   42CHL1   C25 3099   3.230   5.737   4.255  0.0769  0.7004 -0.5417
   42CHL1   H25 3100   3.155   5.807   4.299  0.9540  0.2418  1.8483
   42CHL1   C26 3101   3.301   5.665   4.374  0.3178 -0.4931 -0.6862
   42CHL1  H26A 3102   3.377   5.592   4.340  0.5955 -0.5347  0.0132
   42CHL1  H26B 3103   3.345   5.745   4.438 -3.3364  0.4253  0.9251
   42CHL1  H26C 3104   3.219   5.610   4.426 -0.9573  0.9166 -1.1365
   42CHL1   C27 3105   3.334   5.832   4.188 -1.1688  0.2647  1.0237
   42CHL1  H27A 3106   3.291   5.895   4.107  0.2830  0.0074  0.0171
   42CHL1  H27B 3107   3.369   5.904   4.265  0.8229  1.4749 -0.9039
   42CHL1  H27C 3108   3.415   5.772   4.140 -1.0540  1.7924 -0.8297
   43CHL1    C3 3109   5.095   6.012   3.062 -0.3656  0.2742 -0.0533
   43CHL1    H3 3110   4.989   6.004   3.092 -1.0170  2.2436 -1.5908
   43CHL1    O3 3111   5.097   6.036   2.925 -0.2420  0.2198 -0.4992
   43CHL1   H3' 3112   5.039   5.970   2.887 -2.8695  1.4366  1.0903
   43CHL1    C4 3113   5.168   6.134   3.129  0.5926 -0.2882 -0.2916
   43CHL1   H4A 3114   5.271   6.132   3.087  0.2955  1.0153 -1.1501
   43CHL1   H4B 3115   5.125   6.232   3.097 -0.1068  0.1174  1.7520
   43CHL1    C5 3116   5.168   6.118   3.273  0.0053  0.3268 -0.4703
   43CHL1    C6 3117   5.104   6.199   3.359 -0.1615  0.0030  0.3469
   43CHL1    H6 3118   5.046   6.285   3.324 -0.9471 -0.5092  0.3522
   43CHL1    C7 3119   5.130   6.188   3.511  0.3793  0.3244 -0.1683
   43CHL1   H7A 3120   5.153   6.295   3.533 -0.8457  0.2612  1.6968
   43CHL1   H7B 3121   5.040   6.153   3.566 -0.5923 -0.1147 -1.9697
   43CHL1    C8 3122   5.244   6.091   3.547  0.8936 -0.0205  0.6304
   43CHL1    H8 3123   5.341   6.143   3.528  0.4555 -0.0701 -2.0149
   43CHL1   C14 3124   5.218   6.057   3.690  0.3743  0.0564  0.3686
   43CHL1   H14 3125   5.118   6.009   3.685 -0.4960  1.9209 -1.7218
   43CHL1   C15 3126   5.201   6.168   3.788  0.1285  0.8703  0.3138
   43CHL1  H15A 3127   5.284   6.240   3.775  0.9902 -0.5016 -2.4809
   43CHL1  H15B 3128   5.101   6.217   3.788 -0.1492  0.3278 -0.3464
   43CHL1   C16 3129   5.220   6.099   3.925 -0.6505  0.2641  0.1362
   43CHL1  H16A 3130   5.295   6.163   3.975  0.5676 -0.0147 -1.2616
   43CHL1  H16B 3131   5.132   6.100   3.993  1.7614 -1.1328  3.5050
   43CHL1   C17 3132   5.252   5.948   3.899  0.4989 -0.4418 -1.0444
   43CHL1   H17 3133   5.153   5.901   3.881  0.9319 -2.3334  1.1009
   43CHL1   C13 3134   5.305   5.948   3.753  0.0814  0.4177  0.5105
   43CHL1   C18 3135   5.454   6.004   3.755 -0.3904 -0.2111 -0.0576
   43CHL1  H18A 3136   5.479   6.044   3.655  0.2212  1.2949  0.6673
   43CHL1  H18B 3137   5.465   6.091   3.823  1.0947  1.0769 -1.8232
   43CHL1  H18C 3138   5.531   5.927   3.781 -0.7097 -0.0787  1.3362
   43CHL1   C12 3139   5.305   5.817   3.672  0.9744  0.0048  0.1879
   43CHL1  H12A 3140   5.371   5.738   3.714  0.1541 -0.8574 -0.1116
   43CHL1  H12B 3141   5.204   5.773   3.686  1.5130 -1.1249  0.5809
   43CHL1   C11 3142   5.330   5.848   3.521  0.0234  0.2281  0.2163
   43CHL1  H11A 3143   5.436   5.863   3.491 -0.4942  4.6588 -0.1174
   43CHL1  H11B 3144   5.299   5.750   3.480 -1.4912 -0.3074  2.4152
   43CHL1    C9 3145   5.238   5.964   3.468  0.0548  0.5557  0.1553
   43CHL1    H9 3146   5.135   5.923   3.476  0.3147 -0.2458 -0.5223
   43CHL1   C10 3147   5.244   5.990   3.314 -0.3845  0.2720  0.1775
   43CHL1   C19 3148   5.392   5.996   3.274 -0.6597 -0.2570 -0.6764
   43CHL1  H19A 3149   5.455   6.063   3.336 -1.1911 -0.9441  0.6291
   43CHL1  H19B 3150   5.430   5.893   3.289 -3.4954 -0.9372  3.7723
   43CHL1  H19C 3151   5.405   6.024   3.167  0.2358  0.7479 -0.3177
   43CHL1    C1 3152   5.188   5.864   3.247  0.3262 -1.0750  0.2864
   43CHL1   H1A 3153   5.234   5.768   3.280 -0.1461 -1.7032 -0.8284
   43CHL1   H1B 3154   5.083   5.854   3.280  0.1313 -2.7202 -0.7256
   43CHL1    C2 3155   5.169   5.881   3.091  0.1973  0.0452 -0.0205
   43CHL1   H2A 3156   5.125   5.795   3.037  2.3383  0.7501 -3.2034
   43CHL1   H2B 3157   5.271   5.890   3.047  0.1824  1.3325  0.1579
   43CHL1   C20 3158   5.323   5.865   4.006 -0.2064 -0.3216 -0.0277
   43CHL1   H20 3159   5.432   5.863   3.982 -0.0586 -0.5142  0.6258
   43CHL1   C21 3160   5.275   5.720   3.984  0.4906  0.0374  0.0040
   43CHL1  H21A 3161   5.309   5.653   4.066 -3.1616 -2.6243 -0.3769
   43CHL1  H21B 3162   5.300   5.674   3.886 -0.0051  0.1066 -0.1612
   43CHL1  H21C 3163   5.164   5.721   3.995  0.6217 -1.7675  2.0908
   43CHL1   C22 3164   5.294   5.912   4.151 -0.2813  0.0257 -0.2387
   43CHL1  H22A 3165   5.293   6.023   4.147 -1.2438  0.0228 -0.5298
   43CHL1  H22B 3166   5.196   5.874   4.187  0.1562 -1.1462 -0.2376
   43CHL1   C23 3167   5.406   5.893   4.252 -0.0086 -0.7372 -0.0920
   43CHL1  H23A 3168   5.426   5.786   4.277 -0.6980 -0.4212  1.9881
   43CHL1  H23B 3169   5.497   5.942   4.212 -1.1263  1.0015 -0.6171
   43CHL1   C24 3170   5.376   5.959   4.387  0.0734 -0.2278  0.4999
   43CHL1  H24A 3171   5.393   6.068   4.382  0.6147 -0.2602  1.3812
   43CHL1  H24B 3172   5.272   5.942   4.420 -0.1710  0.6082  0.1657
   43CHL1   C25 3173   5.476   5.910   4.500 -0.1454  0.0689 -0.1471
   43CHL1   H25 3174   5.576   5.906   4.452 -0.0038  1.9887 -0.0891
   43CHL1   C26 3175   5.480   6.013   4.608  0.0902  0.2115  0.3517
   43CHL1  H26A 3176   5.387   6.017   4.670 -0.5906 -2.0112 -0.4475
   43CHL1  H26B 3177   5.568   6.000   4.674  0.2686 -0.7807 -0.0763
   43CHL1  H26C 3178   5.517   6.106   4.559  0.0428 -0.7043 -1.5019
   43CHL1   C27 3179   5.444   5.771   4.548  0.0474  0.1210 -0.3974
   43CHL1  H27A 3180   5.446   5.696   4.466 -1.6284  0.9717 -1.2649
   43CHL1  H27B 3181   5.519   5.733   4.621 -2.4660 -2.2062  1.1580
   43CHL1  H27C 3182   5.348   5.764   4.604 -1.0142 -1.3961 -2.2703
   44CHL1    C3 3183   3.510   6.692   2.768 -0.3213  0.4852  0.0086
   44CHL1    H3 3184   3.588   6.771   2.764 -0.4095  0.5668 -0.1404
   44CHL1    O3 3185   3.474   6.654   2.639  0.5322  0.1186 -0.0995
   44CHL1   H3' 3186   3.467   6.559   2.651 -1.9916  0.5030  2.6744
   44CHL1    C4 3187   3.569   6.570   2.836 -0.1604 -0.1167  0.4318
   44CHL1   H4A 3188   3.496   6.487   2.848  1.3062 -1.1533  3.2403
   44CHL1   H4B 3189   3.659   6.548   2.776  1.2543  2.2883  1.5119
   44CHL1    C5 3190   3.606   6.611   2.980  0.5553  0.2257 -0.1096
   44CHL1    C6 3191   3.731   6.601   3.020 -0.6556 -0.1592  0.5049
   44CHL1    H6 3192   3.798   6.554   2.947 -0.7686 -0.9472  0.9069
   44CHL1    C7 3193   3.781   6.639   3.155 -0.5546 -0.2422  0.3843
   44CHL1   H7A 3194   3.858   6.566   3.188  0.1306 -0.1216 -0.8821
   44CHL1   H7B 3195   3.844   6.727   3.135  0.8706 -0.9401  1.6263
   44CHL1    C8 3196   3.668   6.665   3.263 -0.4547 -0.0372  0.1735
   44CHL1    H8 3197   3.635   6.566   3.299  0.5152  0.5179  2.7910
   44CHL1   C14 3198   3.724   6.730   3.394 -0.0097  0.3094 -1.0673
   44CHL1   H14 3199   3.762   6.831   3.364  0.1958  0.5107 -0.1582
   44CHL1   C15 3200   3.840   6.670   3.469 -0.4066 -0.2104  0.3917
   44CHL1  H15A 3201   3.833   6.559   3.475  0.0460 -0.2049  1.3738
   44CHL1  H15B 3202   3.939   6.695   3.426  0.7703 -1.9631  1.9213
   44CHL1   C16 3203   3.827   6.721   3.619 -0.1979 -0.7938  0.4686
   44CHL1  H16A 3204   3.815   6.633   3.685  0.1358 -1.0535  0.1828
   44CHL1  H16B 3205   3.914   6.786   3.642 -2.0457  1.8834  0.4156
   44CHL1   C17 3206   3.691   6.799   3.617 -0.3098 -0.5652 -0.2855
   44CHL1   H17 3207   3.715   6.905   3.595 -4.2911  0.3658 -0.9588
   44CHL1   C13 3208   3.613   6.750   3.496  0.4888  0.8232  1.0644
   44CHL1   C18 3209   3.551   6.610   3.531  0.3669  0.2803  0.2078
   44CHL1  H18A 3210   3.507   6.569   3.438  0.7725  0.5930 -0.1282
   44CHL1  H18B 3211   3.615   6.532   3.579  0.6639  1.3327  1.5968
   44CHL1  H18C 3212   3.472   6.637   3.604  0.0421 -0.7975  0.2714
   44CHL1   C12 3213   3.506   6.845   3.431 -0.3752  0.1855  0.0398
   44CHL1  H12A 3214   3.417   6.858   3.496 -0.9512 -0.1620 -0.6664
   44CHL1  H12B 3215   3.560   6.939   3.409  0.9880 -0.8378 -1.2665
   44CHL1   C11 3216   3.446   6.787   3.297  0.3966 -0.2114  0.6718
   44CHL1  H11A 3217   3.394   6.692   3.321  0.7104 -0.6046 -0.1528
   44CHL1  H11B 3218   3.387   6.862   3.240  2.8776  2.4736  1.3733
   44CHL1    C9 3219   3.553   6.748   3.193 -0.8538 -0.1894  0.0033
   44CHL1    H9 3220   3.593   6.842   3.149 -0.5235 -0.3328 -0.0092
   44CHL1   C10 3221   3.498   6.679   3.060 -0.8914  0.0483 -0.2685
   44CHL1   C19 3222   3.403   6.562   3.108  0.5884 -0.6529 -0.7106
   44CHL1  H19A 3223   3.443   6.505   3.195 -1.5965 -2.0162 -0.5342
   44CHL1  H19B 3224   3.305   6.594   3.150 -0.0003 -1.8269 -1.1189
   44CHL1  H19C 3225   3.365   6.497   3.026 -1.7068  0.9932 -1.0279
   44CHL1    C1 3226   3.424   6.786   2.975 -0.3860 -0.4038 -0.0289
   44CHL1   H1A 3227   3.330   6.820   3.024  1.0407  2.0453  1.2110
   44CHL1   H1B 3228   3.501   6.865   2.965  0.4741 -1.3098 -0.6540
   44CHL1    C2 3229   3.385   6.736   2.835 -0.2060 -1.1602 -0.4085
   44CHL1   H2A 3230   3.333   6.815   2.778 -1.4146 -1.8800 -0.3442
   44CHL1   H2B 3231   3.310   6.653   2.842 -1.2363 -0.2751 -0.6656
   44CHL1   C20 3232   3.623   6.803   3.750  0.2238 -0.1678  0.0055
   44CHL1   H20 3233   3.599   6.702   3.792 -2.3831  1.2701  2.3128
   44CHL1   C21 3234   3.502   6.891   3.763  0.3230 -0.3580 -0.0835
   44CHL1  H21A 3235   3.523   6.990   3.717 -1.0701  0.7745  1.5608
   44CHL1  H21B 3236   3.468   6.909   3.867 -1.3576 -3.0064 -0.0757
   44CHL1  H21C 3237   3.419   6.834   3.716  1.1685 -3.2325  1.6749
   44CHL1   C22 3238   3.720   6.845   3.861  0.2988 -0.3669  1.0440
   44CHL1  H22A 3239   3.826   6.813   3.849 -0.0437 -1.4486  0.7906
   44CHL1  H22B 3240   3.712   6.956   3.865  0.5220 -0.3663  1.5687
   44CHL1   C23 3241   3.685   6.796   4.006 -0.5633  0.3536  0.1047
   44CHL1  H23A 3242   3.583   6.836   4.028 -1.9020 -2.7034  0.0171
   44CHL1  H23B 3243   3.686   6.686   4.018  0.7671  0.1292 -1.7257
   44CHL1   C24 3244   3.777   6.864   4.102 -0.3876 -0.1806 -0.4338
   44CHL1  H24A 3245   3.871   6.806   4.119 -0.3833 -0.2048 -0.5349
   44CHL1  H24B 3246   3.814   6.955   4.051 -3.7220  2.4377  1.4290
   44CHL1   C25 3247   3.720   6.905   4.241 -0.9414  0.4741  0.8342
   44CHL1   H25 3248   3.675   6.810   4.277 -1.6910  0.4446 -0.1266
   44CHL1   C26 3249   3.825   6.932   4.350 -0.2080 -0.0129 -0.1554
   44CHL1  H26A 3250   3.753   6.948   4.433 -2.1288  1.4578 -1.9797
   44CHL1  H26B 3251   3.902   6.853   4.359 -0.2759 -0.0222  0.3391
   44CHL1  H26C 3252   3.871   7.032   4.334 -0.8900  0.5619  1.3742
   44CHL1   C27 3253   3.619   7.018   4.241  0.1700  0.0860 -0.1298
   44CHL1  H27A 3254   3.653   7.111   4.189  0.8827  0.2087  0.5316
   44CHL1  H27B 3255   3.524   6.983   4.196  0.0194 -1.4682  1.3234
   44CHL1  H27C 3256   3.588   7.058   4.340  2.5924 -0.2805  0.8437
   45CHL1    C3 3257   4.118   0.785   2.851 -0.5602 -0.5057  0.6666
   45CHL1    H3 3258   4.125   0.896   2.858  0.9240 -0.6721  4.1320
   45CHL1    O3 3259   4.086   0.744   2.722  0.1272  0.3207  0.2854
   45CHL1   H3' 3260   4.170   0.734   2.677  0.0708 -0.1117  0.2713
   45CHL1    C4 3261   4.264   0.738   2.875 -1.0354  0.5950  0.7115
   45CHL1   H4A 3262   4.264   0.633   2.839 -0.5622  1.7635 -3.1767
   45CHL1   H4B 3263   4.339   0.789   2.810 -0.1103 -0.5580  0.8336
   45CHL1    C5 3264   4.323   0.757   3.015  0.2796  0.0354  0.3317
   45CHL1    C6 3265   4.437   0.819   3.041  0.2368  0.0799  0.0829
   45CHL1    H6 3266   4.498   0.863   2.961  1.2764 -1.3292  0.0775
   45CHL1    C7 3267   4.491   0.832   3.179 -0.5623  0.6049 -0.5941
   45CHL1   H7A 3268   4.592   0.786   3.181 -0.6935  0.3454  0.3321
   45CHL1   H7B 3269   4.492   0.935   3.221 -2.2110 -0.6834  3.0760
   45CHL1    C8 3270   4.419   0.747   3.286  0.4406  0.5541  0.1857
   45CHL1    H8 3271   4.456   0.643   3.274 -2.4217 -0.7886  1.7236
   45CHL1   C14 3272   4.440   0.809   3.427  0.1813  0.0955 -0.2370
   45CHL1   H14 3273   4.387   0.906   3.423 -0.2036 -0.1376 -1.2129
   45CHL1   C15 3274   4.582   0.839   3.469  0.2998  0.1410  0.2755
   45CHL1  H15A 3275   4.645   0.748   3.456 -1.6862 -1.0583 -1.6720
   45CHL1  H15B 3276   4.630   0.924   3.416  1.3074 -0.5095  0.1175
   45CHL1   C16 3277   4.566   0.875   3.619  0.5712 -0.1592 -0.2002
   45CHL1  H16A 3278   4.647   0.820   3.672  0.6672  0.4803  0.3229
   45CHL1  H16B 3279   4.563   0.984   3.640  0.9209 -0.0146 -0.8694
   45CHL1   C17 3280   4.430   0.816   3.661 -0.5706  0.2475  0.0087
   45CHL1   H17 3281   4.367   0.908   3.666  1.2109  1.4704  1.3050
   45CHL1   C13 3282   4.383   0.724   3.543 -0.2512 -0.0578 -0.4269
   45CHL1   C18 3283   4.455   0.583   3.562  0.4153  0.2674 -0.3955
   45CHL1  H18A 3284   4.555   0.595   3.608  0.3612  1.9223 -0.6404
   45CHL1  H18B 3285   4.391   0.524   3.631  1.2424 -1.2878 -0.9170
   45CHL1  H18C 3286   4.461   0.519   3.471  0.6216  0.2635 -0.3792
   45CHL1   C12 3287   4.233   0.719   3.517  0.6040  0.2178  0.5734
   45CHL1  H12A 3288   4.201   0.642   3.591  0.5427 -1.3841 -1.0524
   45CHL1  H12B 3289   4.190   0.816   3.551  0.7095 -0.7191  3.7587
   45CHL1   C11 3290   4.199   0.667   3.379 -0.7688 -0.2652  0.5546
   45CHL1  H11A 3291   4.228   0.560   3.370 -0.4757 -0.0827 -0.8228
   45CHL1  H11B 3292   4.089   0.675   3.371 -0.8386 -0.9402  0.7886
   45CHL1    C9 3293   4.267   0.744   3.269 -0.0892  0.5647  0.0766
   45CHL1    H9 3294   4.231   0.849   3.274 -1.2347  0.1709  0.5028
   45CHL1   C10 3295   4.230   0.701   3.120  0.0513  0.1018  0.1337
   45CHL1   C19 3296   4.238   0.539   3.097  0.1143 -0.7832 -0.5404
   45CHL1  H19A 3297   4.217   0.517   2.990 -0.1384 -0.3895 -0.5742
   45CHL1  H19B 3298   4.335   0.495   3.129  0.9463  0.5385 -1.1649
   45CHL1  H19C 3299   4.156   0.491   3.154 -0.8479  0.0192 -1.1925
   45CHL1    C1 3300   4.085   0.752   3.087  0.4405  0.4098  0.6278
   45CHL1   H1A 3301   4.012   0.709   3.158 -3.9856  2.3090 -2.2991
   45CHL1   H1B 3302   4.080   0.863   3.096  0.5112  0.5176 -0.4723
   45CHL1    C2 3303   4.026   0.719   2.942  0.1367 -0.1533  0.7309
   45CHL1   H2A 3304   3.919   0.748   2.941  0.2687  0.3384  0.7362
   45CHL1   H2B 3305   4.033   0.609   2.927  0.1547  0.0270 -0.7672
   45CHL1   C20 3306   4.427   0.765   3.805 -0.2914  0.1597 -0.3132
   45CHL1   H20 3307   4.499   0.682   3.826  1.0992  1.1443 -1.0071
   45CHL1   C21 3308   4.290   0.719   3.853  0.7357  0.5485 -0.3190
   45CHL1  H21A 3309   4.249   0.631   3.798  0.4375 -0.2185  1.0773
   45CHL1  H21B 3310   4.205   0.790   3.850  0.9759  0.8337 -0.3764
   45CHL1  H21C 3311   4.299   0.676   3.955  1.5093  0.3359 -0.4649
   45CHL1   C22 3312   4.480   0.883   3.900 -0.4172  0.1978  0.6467
   45CHL1  H22A 3313   4.577   0.924   3.865  1.1478 -2.7579  1.2496
   45CHL1  H22B 3314   4.402   0.961   3.889 -0.4781  0.1069  0.4427
   45CHL1   C23 3315   4.495   0.845   4.045  0.3357 -0.0371  0.1654
   45CHL1  H23A 3316   4.396   0.828   4.091 -0.5427  1.1804 -1.2158
   45CHL1  H23B 3317   4.557   0.752   4.042 -0.2713 -0.4859  1.0366
   45CHL1   C24 3318   4.576   0.954   4.120  0.0678  0.5465  0.0120
   45CHL1  H24A 3319   4.679   0.942   4.080 -1.1508 -4.6431 -2.3342
   45CHL1  H24B 3320   4.541   1.056   4.092 -0.2514  0.7347  1.0578
   45CHL1   C25 3321   4.602   0.949   4.273 -0.3036 -0.0206 -1.1836
   45CHL1   H25 3322   4.643   0.851   4.306  1.7692  1.2911  0.3348
   45CHL1   C26 3323   4.706   1.052   4.310 -0.1058 -0.6151 -0.2014
   45CHL1  H26A 3324   4.797   1.046   4.246  2.2038 -1.6080  2.9481
   45CHL1  H26B 3325   4.666   1.155   4.301  2.1733  0.3016 -0.6677
   45CHL1  H26C 3326   4.748   1.032   4.411  0.9772  1.1151 -0.2629
   45CHL1   C27 3327   4.478   0.966   4.364 -0.1060  0.0591  0.1531
   45CHL1  H27A 3328   4.516   0.957   4.468  1.6711  1.7714 -0.2818
   45CHL1  H27B 3329   4.439   1.069   4.347 -1.2031  0.4019  3.8321
   45CHL1  H27C 3330   4.394   0.895   4.347 -0.7371  1.2300 -1.9156
   46CHL1    C3 3331   0.791   0.174   2.339 -0.5347 -0.4867  0.2482
   46CHL1    H3 3332   0.724   0.259   2.316  1.6349  1.0964 -0.5391
   46CHL1    O3 3333   0.827   0.096   2.227 -1.1084  0.2619  0.0383
   46CHL1   H3' 3334   0.864   0.157   2.163 -1.3682  0.6849  0.2842
   46CHL1    C4 3335   0.918   0.247   2.393  0.4275  0.4209 -0.4753
   46CHL1   H4A 3336   0.987   0.169   2.432 -2.1516 -0.9309  1.7741
   46CHL1   H4B 3337   0.979   0.293   2.313 -1.2017  1.4858 -1.1497
   46CHL1    C5 3338   0.899   0.340   2.515  0.5235  0.2746  0.6184
   46CHL1    C6 3339   0.943   0.461   2.517 -0.6152 -0.3662  0.1058
   46CHL1    H6 3340   0.997   0.499   2.429 -0.5076 -2.0839 -0.6037
   46CHL1    C7 3341   0.945   0.543   2.645 -0.2750  0.7524 -0.0169
   46CHL1   H7A 3342   1.050   0.575   2.664 -0.1816  0.7145 -0.4479
   46CHL1   H7B 3343   0.890   0.639   2.631 -0.3310  1.1442  2.4162
   46CHL1    C8 3344   0.901   0.459   2.771  0.2750 -0.4352  0.0619
   46CHL1    H8 3345   0.987   0.403   2.814  1.4244 -0.2118 -1.8095
   46CHL1   C14 3346   0.862   0.555   2.884  0.2697  0.2346  0.8217
   46CHL1   H14 3347   0.770   0.607   2.849  0.2171 -0.9739 -1.0135
   46CHL1   C15 3348   0.958   0.673   2.925 -0.6632 -0.0664 -0.4396
   46CHL1  H15A 3349   1.060   0.630   2.922  0.2140  1.6338  1.8939
   46CHL1  H15B 3350   0.961   0.750   2.845  0.4575 -0.6833 -1.0176
   46CHL1   C16 3351   0.906   0.714   3.063  0.1916  0.5032  1.0858
   46CHL1  H16A 3352   0.978   0.694   3.145 -0.7012  2.2869  2.3679
   46CHL1  H16B 3353   0.874   0.820   3.070 -0.3934  0.5131 -1.0931
   46CHL1   C17 3354   0.780   0.620   3.095  0.2541  0.1998 -0.9076
   46CHL1   H17 3355   0.695   0.679   3.053 -1.1432 -0.0307  1.4489
   46CHL1   C13 3356   0.806   0.490   3.014 -1.0832 -0.5941  0.3666
   46CHL1   C18 3357   0.918   0.406   3.082 -0.1462  1.1415 -0.1956
   46CHL1  H18A 3358   0.949   0.324   3.014  1.2585  0.5104  1.1364
   46CHL1  H18B 3359   1.005   0.463   3.120  0.9848 -0.3368 -0.4481
   46CHL1  H18C 3360   0.875   0.367   3.177 -2.2350  0.3267 -1.4070
   46CHL1   C12 3361   0.691   0.401   2.981  0.1573 -0.1052 -0.4026
   46CHL1  H12A 3362   0.684   0.346   3.077  1.4165  1.5260  0.6944
   46CHL1  H12B 3363   0.600   0.461   2.957 -0.7708 -0.7692  1.2725
   46CHL1   C11 3364   0.720   0.307   2.866 -0.2993  0.3723 -0.5980
   46CHL1  H11A 3365   0.785   0.225   2.904  0.4743 -0.4005 -3.3694
   46CHL1  H11B 3366   0.624   0.260   2.836 -0.1685 -0.8538  0.7840
   46CHL1    C9 3367   0.787   0.366   2.738 -0.0045  0.5634 -0.1664
   46CHL1    H9 3368   0.707   0.425   2.690 -0.3454 -1.4785 -2.2772
   46CHL1   C10 3369   0.820   0.271   2.630 -0.5942  0.3537 -0.2067
   46CHL1   C19 3370   0.916   0.161   2.695  0.4864  0.8859 -0.3537
   46CHL1  H19A 3371   1.009   0.203   2.739  1.1689  0.8470 -1.7067
   46CHL1  H19B 3372   0.866   0.095   2.769  1.9141  0.7243  0.4994
   46CHL1  H19C 3373   0.955   0.097   2.613  2.1052  1.2460  0.0985
   46CHL1    C1 3374   0.694   0.192   2.576 -0.1827  0.1759  0.3095
   46CHL1   H1A 3375   0.662   0.125   2.659 -2.5301  2.3391  1.3117
   46CHL1   H1B 3376   0.601   0.253   2.568 -1.0773 -0.9088  1.8378
   46CHL1    C2 3377   0.719   0.102   2.452 -0.0268  0.9065  0.5225
   46CHL1   H2A 3378   0.619   0.062   2.427 -0.2024 -0.6219  3.1710
   46CHL1   H2B 3379   0.779   0.014   2.486 -0.6358  0.5388  0.6581
   46CHL1   C20 3380   0.744   0.605   3.241 -0.1681  0.1444  0.5430
   46CHL1   H20 3381   0.824   0.547   3.292  1.7876 -0.9224 -3.3739
   46CHL1   C21 3382   0.607   0.538   3.265  0.1825 -0.1753  0.3553
   46CHL1  H21A 3383   0.580   0.522   3.372 -2.9746  1.1364 -0.1126
   46CHL1  H21B 3384   0.599   0.438   3.216  0.9968 -0.1278  0.1221
   46CHL1  H21C 3385   0.539   0.608   3.211  0.9888 -2.0199 -3.3697
   46CHL1   C22 3386   0.751   0.744   3.314 -0.4954 -0.3278  0.9253
   46CHL1  H22A 3387   0.854   0.783   3.302 -0.7767  0.0898 -0.2575
   46CHL1  H22B 3388   0.684   0.809   3.254 -0.6358 -1.3386 -0.0463
   46CHL1   C23 3389   0.712   0.764   3.462 -0.7497  0.2021 -0.1293
   46CHL1  H23A 3390   0.607   0.733   3.476 -0.3221 -1.7353 -0.8847
   46CHL1  H23B 3391   0.781   0.693   3.515  0.1513  0.5539 -0.8016
   46CHL1   C24 3392   0.746   0.910   3.502  0.1444 -0.0406  0.4770
   46CHL1  H24A 3393   0.856   0.928   3.503 -0.0105  1.5179 -1.7770
   46CHL1  H24B 3394   0.719   0.977   3.418 -1.1599 -1.6546 -0.4474
   46CHL1   C25 3395   0.691   0.961   3.633 -0.8580 -0.4221  0.9200
   46CHL1   H25 3396   0.581   0.942   3.637 -1.0088  0.0891 -0.5230
   46CHL1   C26 3397   0.755   0.881   3.748  1.0259 -0.5744  0.8959
   46CHL1  H26A 3398   0.861   0.911   3.732  0.5653 -0.0477 -1.7499
   46CHL1  H26B 3399   0.718   0.915   3.847 -0.3484  0.2751  0.1180
   46CHL1  H26C 3400   0.747   0.771   3.743  0.9415 -0.5257 -0.4245
   46CHL1   C27 3401   0.725   1.112   3.658 -0.8965 -0.3864  0.1251
   46CHL1  H27A 3402   0.833   1.118   3.630 -0.6398 -3.2655  0.1426
   46CHL1  H27B 3403   0.667   1.174   3.587 -0.8134  0.2475  0.6053
   46CHL1  H27C 3404   0.718   1.143   3.764 -0.3259 -0.2878  0.1379
   47CHL1    C3 3405   0.152   1.530   3.025 -0.2776 -1.0505 -0.4615
   47CHL1    H3 3406   0.057   1.499   3.073 -1.2389 -1.4623 -2.4818
   47CHL1    O3 3407   0.143   1.471   2.895 -0.4618 -0.2821  0.1508
   47CHL1   H3' 3408   0.090   1.536   2.848 -0.4744 -1.0644 -0.9387
   47CHL1    C4 3409   0.151   1.683   3.024  0.2704  0.0779  0.1485
   47CHL1   H4A 3410   0.242   1.721   2.974  1.4393 -0.4748  1.8010
   47CHL1   H4B 3411   0.058   1.705   2.967  0.5797 -1.0025 -0.8143
   47CHL1    C5 3412   0.161   1.738   3.167 -0.4374  0.7971 -0.3536
   47CHL1    C6 3413   0.057   1.815   3.205  0.2194 -0.6717 -0.0566
   47CHL1    H6 3414  -0.024   1.841   3.135 -1.2854 -1.9296  1.1454
   47CHL1    C7 3415   0.033   1.873   3.343 -0.9637  0.2198  0.4820
   47CHL1   H7A 3416   0.025   1.984   3.331 -0.0905  0.3279  0.8630
   47CHL1   H7B 3417  -0.064   1.854   3.395 -1.5765 -0.2057 -0.7760
   47CHL1    C8 3418   0.158   1.846   3.436 -0.3291 -0.2989  0.2227
   47CHL1    H8 3419   0.231   1.925   3.407 -2.8836  1.4817 -1.7699
   47CHL1   C14 3420   0.132   1.864   3.579  0.4693  0.3652 -0.5246
   47CHL1   H14 3421   0.061   1.779   3.593 -0.3137  0.9604 -0.8433
   47CHL1   C15 3422   0.058   1.989   3.630  0.5154  0.3831  0.0544
   47CHL1  H15A 3423   0.108   2.075   3.581  1.8442  0.5314  1.5995
   47CHL1  H15B 3424  -0.051   1.981   3.609  0.9841 -0.7690 -2.3895
   47CHL1   C16 3425   0.084   1.990   3.783 -0.0676  0.0524 -0.2047
   47CHL1  H16A 3426   0.125   2.087   3.819  1.5702 -0.7572  0.1921
   47CHL1  H16B 3427  -0.005   1.959   3.842 -0.8895  1.0969 -0.8615
   47CHL1   C17 3428   0.189   1.875   3.811 -0.1231 -0.1387 -0.2710
   47CHL1   H17 3429   0.125   1.788   3.840 -1.2349 -0.3109 -3.0071
   47CHL1   C13 3430   0.250   1.843   3.674 -0.4217 -0.5590 -0.0568
   47CHL1   C18 3431   0.362   1.941   3.641  0.1517  0.1027 -0.5519
   47CHL1  H18A 3432   0.326   2.046   3.647  1.8959  0.7631 -1.2684
   47CHL1  H18B 3433   0.437   1.925   3.722 -0.0663 -2.5457 -0.7881
   47CHL1  H18C 3434   0.411   1.926   3.543 -0.7643 -1.4945 -0.7982
   47CHL1   C12 3435   0.301   1.694   3.656  0.5696 -0.5549 -0.4626
   47CHL1  H12A 3436   0.392   1.685   3.719  0.5290  1.7514  0.0110
   47CHL1  H12B 3437   0.224   1.629   3.704  0.8423  0.8782  2.0526
   47CHL1   C11 3438   0.330   1.663   3.511  0.5636 -0.3153 -0.1096
   47CHL1  H11A 3439   0.428   1.705   3.480 -0.4321  1.1499 -1.4528
   47CHL1  H11B 3440   0.335   1.552   3.501 -0.3376 -0.2994 -0.8493
   47CHL1    C9 3441   0.222   1.710   3.408  0.3346  0.2312 -0.0035
   47CHL1    H9 3442   0.140   1.637   3.424  1.3656 -1.0498 -0.3750
   47CHL1   C10 3443   0.271   1.678   3.259  1.1018  0.4468 -0.0196
   47CHL1   C19 3444   0.403   1.753   3.221  0.4902 -0.1293  0.7518
   47CHL1  H19A 3445   0.387   1.861   3.203  0.3943  0.1102  2.1799
   47CHL1  H19B 3446   0.485   1.730   3.292  0.8151 -0.7994  0.1826
   47CHL1  H19C 3447   0.435   1.710   3.123  0.9142  3.1538 -0.6636
   47CHL1    C1 3448   0.280   1.525   3.240 -0.0530 -0.4175  0.0162
   47CHL1   H1A 3449   0.362   1.483   3.302  0.7481 -1.0045 -1.3910
   47CHL1   H1B 3450   0.191   1.479   3.289  0.6695 -0.6498  1.1504
   47CHL1    C2 3451   0.277   1.475   3.095 -0.0786  0.0164 -0.0181
   47CHL1   H2A 3452   0.278   1.364   3.088  2.2916  0.0266 -0.8739
   47CHL1   H2B 3453   0.372   1.497   3.041 -0.5501  0.0501 -0.8555
   47CHL1   C20 3454   0.279   1.924   3.929  0.4227 -0.8931  0.0279
   47CHL1   H20 3455   0.332   2.012   3.885  1.2460 -0.9638  0.8445
   47CHL1   C21 3456   0.375   1.817   3.968 -0.9007  0.4574  0.1652
   47CHL1  H21A 3457   0.451   1.812   3.887 -0.9619  3.1191 -0.1470
   47CHL1  H21B 3458   0.329   1.717   3.977  0.1544 -0.0830 -0.3406
   47CHL1  H21C 3459   0.413   1.831   4.071 -1.6235  0.2371  0.4637
   47CHL1   C22 3460   0.206   1.982   4.056  0.2934 -0.1801  0.0107
   47CHL1  H22A 3461   0.290   2.004   4.125  0.0666 -0.2400  0.3082
   47CHL1  H22B 3462   0.150   2.078   4.057  0.6032  0.0189  2.2404
   47CHL1   C23 3463   0.107   1.880   4.116  0.2446 -0.2279  0.2593
   47CHL1  H23A 3464   0.008   1.885   4.067  2.0662 -0.3400 -3.8370
   47CHL1  H23B 3465   0.137   1.774   4.101 -0.1775 -0.1312 -1.4516
   47CHL1   C24 3466   0.078   1.902   4.267  0.1414  0.1602 -0.4381
   47CHL1  H24A 3467   0.176   1.917   4.318 -0.6899 -1.9609  2.0088
   47CHL1  H24B 3468   0.016   1.991   4.293  1.1778  0.7848  0.0039
   47CHL1   C25 3469   0.014   1.776   4.335 -0.2948  0.2763 -0.8245
   47CHL1   H25 3470  -0.001   1.806   4.441 -2.4521  2.0981 -1.5570
   47CHL1   C26 3471  -0.119   1.741   4.269 -0.6245  0.9549 -0.1518
   47CHL1  H26A 3472  -0.163   1.653   4.321 -1.4329 -0.1223 -2.5427
   47CHL1  H26B 3473  -0.202   1.814   4.286 -1.6665 -0.6011  1.9507
   47CHL1  H26C 3474  -0.107   1.700   4.167  2.0299 -0.1333  0.5069
   47CHL1   C27 3475   0.107   1.653   4.345 -0.9775  0.2985  0.3141
   47CHL1  H27A 3476   0.210   1.683   4.372 -0.0599 -1.2341 -1.3249
   47CHL1  H27B 3477   0.074   1.565   4.405 -0.0043 -0.7755 -0.6746
   47CHL1  H27C 3478   0.125   1.612   4.243  1.6307  2.6163 -0.2636
   48CHL1    C3 3479   2.380   5.773   2.898 -0.0502 -0.1091 -0.8736
   48CHL1    H3 3480   2.465   5.701   2.897  1.3187  1.4175 -2.7623
   48CHL1    O3 3481   2.354   5.784   2.759 -0.5433 -0.3139  0.9010
   48CHL1   H3' 3482   2.299   5.863   2.762  0.6825  0.5554  4.0931
   48CHL1    C4 3483   2.249   5.722   2.966  0.3704 -0.0500  0.2874
   48CHL1   H4A 3484   2.167   5.793   2.944 -0.5009 -0.5169  1.8459
   48CHL1   H4B 3485   2.214   5.628   2.918  0.1251 -1.0899  2.3999
   48CHL1    C5 3486   2.264   5.701   3.117  0.1399  0.1202  0.3370
   48CHL1    C6 3487   2.241   5.583   3.177 -1.2783 -0.0190  0.0419
   48CHL1    H6 3488   2.208   5.496   3.119 -2.9783 -0.0766  1.0422
   48CHL1    C7 3489   2.253   5.568   3.331  0.0151  0.1657  0.0356
   48CHL1   H7A 3490   2.170   5.502   3.366  0.5968 -1.2434 -1.1473
   48CHL1   H7B 3491   2.346   5.518   3.366 -0.0430 -0.2466 -0.3851
   48CHL1    C8 3492   2.256   5.705   3.406 -0.1953  0.4063 -1.2856
   48CHL1    H8 3493   2.154   5.749   3.401  0.1025  1.3435  0.1824
   48CHL1   C14 3494   2.313   5.692   3.551 -0.0217  0.2123  0.8490
   48CHL1   H14 3495   2.417   5.654   3.545 -0.8372 -2.0420  0.0147
   48CHL1   C15 3496   2.239   5.583   3.632 -0.5171 -1.0107 -0.0721
   48CHL1  H15A 3497   2.135   5.582   3.594 -0.7759 -0.2327  0.5912
   48CHL1  H15B 3498   2.288   5.485   3.611  1.6258  0.2233 -1.2507
   48CHL1   C16 3499   2.251   5.626   3.785 -0.3614  0.1303  0.6150
   48CHL1  H16A 3500   2.149   5.647   3.823 -0.8781 -2.1122  0.6075
   48CHL1  H16B 3501   2.306   5.550   3.844 -2.7218 -0.6585  1.9660
   48CHL1   C17 3502   2.338   5.759   3.778  0.6253 -0.3567 -0.1023
   48CHL1   H17 3503   2.440   5.716   3.776  0.7115 -0.2260  0.9511
   48CHL1   C13 3504   2.311   5.818   3.636 -0.0512 -0.5744 -0.4101
   48CHL1   C18 3505   2.164   5.886   3.638  0.4992  0.8089  0.4514
   48CHL1  H18A 3506   2.172   5.980   3.697 -0.3629 -0.4298  2.6385
   48CHL1  H18B 3507   2.134   5.915   3.535 -1.2268  2.0723  1.2570
   48CHL1  H18C 3508   2.095   5.811   3.681  2.0580 -0.6593  0.4999
   48CHL1   C12 3509   2.413   5.910   3.567  0.0987  0.1137 -1.1912
   48CHL1  H12A 3510   2.398   6.008   3.617 -1.0900 -1.1355  1.0892
   48CHL1  H12B 3511   2.518   5.876   3.582  0.5338  1.5259 -0.9624
   48CHL1   C11 3512   2.386   5.933   3.418 -0.2331  1.2472  0.3394
   48CHL1  H11A 3513   2.299   6.001   3.409 -0.7182  0.6610  0.4793
   48CHL1  H11B 3514   2.477   5.988   3.387 -0.7803  1.2970 -1.2734
   48CHL1    C9 3515   2.351   5.805   3.335 -0.1823  0.3288 -0.2856
   48CHL1    H9 3516   2.447   5.750   3.329 -0.1472  0.4551 -0.9740
   48CHL1   C10 3517   2.310   5.823   3.183  0.4311 -0.1181 -0.3951
   48CHL1   C19 3518   2.194   5.925   3.181  0.0861  0.0037 -0.4051
   48CHL1  H19A 3519   2.234   6.018   3.227 -0.0678 -0.0939 -0.0767
   48CHL1  H19B 3520   2.157   5.945   3.078 -2.1825  0.0667  0.3565
   48CHL1  H19C 3521   2.113   5.893   3.250  1.4827 -2.0873  0.3403
   48CHL1    C1 3522   2.437   5.892   3.112 -0.3664 -0.4799  0.0204
   48CHL1   H1A 3523   2.470   5.985   3.163 -1.7685  0.6762 -1.1023
   48CHL1   H1B 3524   2.523   5.822   3.112 -0.8275 -1.0588 -0.1358
   48CHL1    C2 3525   2.416   5.915   2.955  0.3478 -0.7811 -0.1459
   48CHL1   H2A 3526   2.505   5.961   2.907 -0.6501  1.3528 -0.0704
   48CHL1   H2B 3527   2.328   5.983   2.947 -0.0865 -1.0805  1.5924
   48CHL1   C20 3528   2.324   5.850   3.901 -0.1805 -0.0033  0.5107
   48CHL1   H20 3529   2.225   5.900   3.907 -0.0028  0.6201 -1.0747
   48CHL1   C21 3530   2.427   5.965   3.904 -0.7100 -0.0979  0.2844
   48CHL1  H21A 3531   2.528   5.922   3.923 -1.2244 -1.0810  0.9245
   48CHL1  H21B 3532   2.411   6.014   4.003  0.1979 -0.5139  0.6544
   48CHL1  H21C 3533   2.436   6.028   3.813  1.7466 -1.2051 -0.3307
   48CHL1   C22 3534   2.334   5.763   4.038 -0.1036 -0.4681  0.0900
   48CHL1  H22A 3535   2.321   5.841   4.116  1.7757  1.4767 -1.4245
   48CHL1  H22B 3536   2.251   5.690   4.043 -0.5327 -0.1151 -1.3229
   48CHL1   C23 3537   2.464   5.680   4.068  1.2222 -0.5808 -0.2525
   48CHL1  H23A 3538   2.441   5.583   4.019 -1.7043 -0.4925  0.7487
   48CHL1  H23B 3539   2.546   5.734   4.015  1.1837 -2.1906 -2.0663
   48CHL1   C24 3540   2.502   5.656   4.215  0.0107 -0.2766 -0.3723
   48CHL1  H24A 3541   2.487   5.746   4.279  1.4048  0.0148 -0.4257
   48CHL1  H24B 3542   2.425   5.592   4.262 -1.6247  2.1363  0.4216
   48CHL1   C25 3543   2.642   5.598   4.255  0.1883  0.1382 -0.1765
   48CHL1   H25 3544   2.709   5.683   4.226 -0.7571  1.5876  1.6806
   48CHL1   C26 3545   2.662   5.573   4.404 -0.5143  0.1005 -0.8463
   48CHL1  H26A 3546   2.760   5.526   4.426  0.4709  1.7415 -1.5700
   48CHL1  H26B 3547   2.657   5.665   4.467  3.8014 -1.5751  2.4225
   48CHL1  H26C 3548   2.585   5.501   4.438  1.4867 -1.2879  1.0445
   48CHL1   C27 3549   2.675   5.472   4.173  0.0389 -0.0852 -0.2198
   48CHL1  H27A 3550   2.777   5.429   4.185 -0.4233 -0.7477  1.5749
   48CHL1  H27B 3551   2.609   5.385   4.191 -1.2147  0.5840 -1.4296
   48CHL1  H27C 3552   2.660   5.495   4.065  1.5436 -0.2434 -0.4939
   49CHL1    C3 3553   4.231   1.848   2.726  0.2052 -0.0328  0.7015
   49CHL1    H3 3554   4.341   1.846   2.743  0.4167 -2.1712 -0.5255
   49CHL1    O3 3555   4.212   1.866   2.586 -0.1010 -0.4149  0.2164
   49CHL1   H3' 3556   4.117   1.867   2.575 -0.0464  2.0712 -0.6303
   49CHL1    C4 3557   4.161   1.729   2.782  0.0234  0.1265  0.1113
   49CHL1   H4A 3558   4.053   1.732   2.757 -0.2712  0.8711  1.4117
   49CHL1   H4B 3559   4.198   1.644   2.720 -0.5115  0.5058 -0.7434
   49CHL1    C5 3560   4.168   1.717   2.930  0.6378 -0.7105 -0.7200
   49CHL1    C6 3561   4.225   1.611   2.993  0.2030  0.5514  0.2145
   49CHL1    H6 3562   4.255   1.525   2.932 -2.7246  1.2497 -2.4626
   49CHL1    C7 3563   4.245   1.611   3.139  0.3317  0.1855  0.0298
   49CHL1   H7A 3564   4.226   1.504   3.163 -0.3953  0.2740 -0.1343
   49CHL1   H7B 3565   4.348   1.640   3.170 -0.2861  0.6768  1.7833
   49CHL1    C8 3566   4.150   1.706   3.224 -0.1415 -0.4071  0.5611
   49CHL1    H8 3567   4.051   1.655   3.229  0.3644 -1.5147 -0.1462
   49CHL1   C14 3568   4.216   1.731   3.367  0.1009 -0.0620  0.3186
   49CHL1   H14 3569   4.309   1.786   3.342  0.0328 -0.0470  0.1019
   49CHL1   C15 3570   4.258   1.604   3.443 -0.5645  0.1062  0.3717
   49CHL1  H15A 3571   4.175   1.533   3.427 -0.1632  0.0212 -1.4917
   49CHL1  H15B 3572   4.352   1.561   3.404 -1.1864  1.6441 -3.1588
   49CHL1   C16 3573   4.257   1.653   3.591 -0.3571 -0.1016  0.1711
   49CHL1  H16A 3574   4.172   1.606   3.643  0.4185 -1.6189  0.1182
   49CHL1  H16B 3575   4.354   1.626   3.637  1.8007  0.2267 -3.7021
   49CHL1   C17 3576   4.231   1.809   3.581 -0.0828 -0.6588 -0.3564
   49CHL1   H17 3577   4.328   1.858   3.555  0.5025 -0.3555  2.1280
   49CHL1   C13 3578   4.149   1.826   3.457 -0.3049 -0.3836  0.0924
   49CHL1   C18 3579   4.003   1.774   3.483 -0.5442 -0.0457 -0.3285
   49CHL1  H18A 3580   4.007   1.672   3.526  0.5170 -0.0483 -0.3963
   49CHL1  H18B 3581   3.957   1.848   3.551 -1.3364  1.4756 -2.4010
   49CHL1  H18C 3582   3.947   1.782   3.387  1.1200 -0.0699 -1.3472
   49CHL1   C12 3583   4.133   1.961   3.392  0.0429  0.8806  0.1946
   49CHL1  H12A 3584   4.065   2.026   3.452 -0.3220  2.3234 -1.6628
   49CHL1  H12B 3585   4.234   2.004   3.376 -0.7836  2.7838 -0.2069
   49CHL1   C11 3586   4.080   1.952   3.242 -1.2944  0.6664  0.0229
   49CHL1  H11A 3587   3.970   1.942   3.240 -1.4851  2.4900 -0.2607
   49CHL1  H11B 3588   4.104   2.046   3.187 -2.6722  0.5018 -0.8807
   49CHL1    C9 3589   4.158   1.842   3.158  0.2858  0.4036  0.4589
   49CHL1    H9 3590   4.267   1.864   3.157  0.8261 -2.0208 -0.8119
   49CHL1   C10 3591   4.117   1.845   3.002  0.2015 -0.1069  0.3458
   49CHL1   C19 3592   3.967   1.863   2.988  0.6974 -0.4081 -0.5409
   49CHL1  H19A 3593   3.910   1.785   3.045  0.8111 -1.4991 -1.8661
   49CHL1  H19B 3594   3.935   1.964   3.021 -0.3068 -0.2163 -2.0284
   49CHL1  H19C 3595   3.924   1.865   2.886 -1.7965  1.4986  0.4363
   49CHL1    C1 3596   4.193   1.969   2.944  0.4190  0.2265 -0.1463
   49CHL1   H1A 3597   4.149   2.059   2.993 -0.1078  0.8493 -1.7231
   49CHL1   H1B 3598   4.299   1.973   2.977  0.0616 -1.9192  1.4407
   49CHL1    C2 3599   4.180   1.980   2.794  0.8967  0.2164 -0.4527
   49CHL1   H2A 3600   4.217   2.080   2.761 -3.0664  2.2327  0.6255
   49CHL1   H2B 3601   4.070   1.982   2.779  0.7696 -0.2203  0.3683
   49CHL1   C20 3602   4.169   1.872   3.710 -1.1083  0.7641 -0.2834
   49CHL1   H20 3603   4.071   1.824   3.727 -0.5959  0.0561  0.7898
   49CHL1   C21 3604   4.159   2.026   3.716 -0.1537  0.2687 -0.0374
   49CHL1  H21A 3605   4.079   2.066   3.650 -0.9598 -1.4514 -0.1509
   49CHL1  H21B 3606   4.254   2.074   3.683 -1.1484  1.3907 -1.3759
   49CHL1  H21C 3607   4.145   2.060   3.821 -3.4723 -4.2630  1.2977
   49CHL1   C22 3608   4.257   1.823   3.839  0.1313 -0.5639  0.2341
   49CHL1  H22A 3609   4.191   1.847   3.925  0.5728 -3.2802  1.4425
   49CHL1  H22B 3610   4.266   1.712   3.834  0.7302 -0.4933 -0.4141
   49CHL1   C23 3611   4.396   1.880   3.846  0.3040 -0.3957 -0.0411
   49CHL1  H23A 3612   4.454   1.858   3.754 -0.1144 -2.8302  0.2144
   49CHL1  H23B 3613   4.386   1.990   3.840  1.4649 -0.2422  0.4644
   49CHL1   C24 3614   4.468   1.840   3.968 -0.9426 -0.4531  0.0189
   49CHL1  H24A 3615   4.483   1.730   3.962  0.2865 -0.6019  3.4292
   49CHL1  H24B 3616   4.573   1.877   3.969 -1.7558  2.0033  0.4464
   49CHL1   C25 3617   4.417   1.900   4.102  0.0363  0.0685 -0.3871
   49CHL1   H25 3618   4.316   1.853   4.112 -0.3824  0.9522 -0.3870
   49CHL1   C26 3619   4.504   1.845   4.222 -0.3882  0.5912  0.5463
   49CHL1  H26A 3620   4.480   1.736   4.219  0.6419  0.3648 -0.1134
   49CHL1  H26B 3621   4.613   1.864   4.212 -0.4377  1.1175  0.9952
   49CHL1  H26C 3622   4.475   1.882   4.322 -1.5498  0.4994  0.2538
   49CHL1   C27 3623   4.411   2.059   4.106  0.0127 -0.2355  0.2743
   49CHL1  H27A 3624   4.355   2.099   4.193 -0.3291 -1.8476  0.8404
   49CHL1  H27B 3625   4.514   2.101   4.102  0.8225 -2.0324  1.1756
   49CHL1  H27C 3626   4.360   2.102   4.017  1.6292  0.8321 -0.1740
   50CHL1    C3 3627   1.539   1.168   2.602  0.7156  0.1389 -0.0761
   50CHL1    H3 3628   1.490   1.074   2.636 -1.7652  2.0043  1.8633
   50CHL1    O3 3629   1.533   1.184   2.459 -0.0615  0.4352 -0.0038
   50CHL1   H3' 3630   1.568   1.272   2.447 -0.6188  0.5850 -0.6075
   50CHL1    C4 3631   1.463   1.285   2.669  0.3440  0.1066  0.4667
   50CHL1   H4A 3632   1.501   1.372   2.612  0.7799  1.6675  2.9819
   50CHL1   H4B 3633   1.354   1.275   2.653  0.5169 -2.9148  0.6086
   50CHL1    C5 3634   1.500   1.304   2.812  0.3080 -0.0610  0.1234
   50CHL1    C6 3635   1.399   1.334   2.898  0.1894  0.7164  0.0005
   50CHL1    H6 3636   1.298   1.345   2.854  0.5490 -0.3127 -1.1537
   50CHL1    C7 3637   1.414   1.379   3.040 -0.0419 -0.0488  0.5063
   50CHL1   H7A 3638   1.346   1.463   3.065  0.5641  0.1501  1.5433
   50CHL1   H7B 3639   1.376   1.287   3.089 -1.3181 -0.1300 -0.5737
   50CHL1    C8 3640   1.559   1.398   3.084  0.4290 -0.6621 -0.0686
   50CHL1    H8 3641   1.592   1.499   3.050  0.3047 -0.8023 -0.6097
   50CHL1   C14 3642   1.567   1.390   3.233 -0.0372 -0.3306 -0.0166
   50CHL1   H14 3643   1.529   1.290   3.263 -2.3554  0.9045  1.4820
   50CHL1   C15 3644   1.477   1.488   3.315  0.6049 -0.2779  0.6126
   50CHL1  H15A 3645   1.465   1.584   3.260 -0.7085 -1.1001 -0.6038
   50CHL1  H15B 3646   1.381   1.434   3.330 -0.5157  1.8200  1.3649
   50CHL1   C16 3647   1.551   1.507   3.448 -0.1474 -0.1049 -0.2928
   50CHL1  H16A 3648   1.601   1.605   3.456 -0.2514 -0.1247  0.6956
   50CHL1  H16B 3649   1.493   1.476   3.538  0.1680 -0.1815 -0.1147
   50CHL1   C17 3650   1.667   1.399   3.438  1.0801  0.0603  0.0449
   50CHL1   H17 3651   1.619   1.304   3.468  2.0533 -0.7791 -0.9938
   50CHL1   C13 3652   1.706   1.397   3.290  0.3803 -0.0514 -0.0103
   50CHL1   C18 3653   1.770   1.527   3.251 -0.0851 -0.0388  0.0904
   50CHL1  H18A 3654   1.711   1.616   3.281 -0.5640  0.5245 -2.3305
   50CHL1  H18B 3655   1.871   1.532   3.295  0.8185  0.6398 -1.9375
   50CHL1  H18C 3656   1.774   1.544   3.141 -0.9959 -2.9888 -0.4938
   50CHL1   C12 3657   1.788   1.273   3.228 -0.1818  0.1475  0.2285
   50CHL1  H12A 3658   1.894   1.263   3.260 -0.6910 -0.8042  1.7540
   50CHL1  H12B 3659   1.738   1.186   3.276  2.2879 -0.8434  1.1728
   50CHL1   C11 3660   1.791   1.282   3.078 -0.4010  0.0055 -0.1246
   50CHL1  H11A 3661   1.851   1.370   3.046  0.8437 -1.0601 -0.8214
   50CHL1  H11B 3662   1.826   1.186   3.035 -1.9026 -1.5622  1.9233
   50CHL1    C9 3663   1.647   1.287   3.020 -0.6536  0.0630 -0.1681
   50CHL1    H9 3664   1.596   1.192   3.047  1.4958 -1.1711 -0.2913
   50CHL1   C10 3665   1.641   1.295   2.864  0.5017  0.3393  0.2123
   50CHL1   C19 3666   1.719   1.418   2.809 -0.3583  0.0239 -0.7153
   50CHL1  H19A 3667   1.705   1.436   2.700  0.2181 -1.1297 -0.9895
   50CHL1  H19B 3668   1.685   1.511   2.861 -0.6456 -0.9910  1.0006
   50CHL1  H19C 3669   1.825   1.393   2.825 -0.1552  1.9353  1.5682
   50CHL1    C1 3670   1.696   1.166   2.800  0.5987 -0.2792  0.3077
   50CHL1   H1A 3671   1.804   1.174   2.821  0.6453  0.0249 -0.0386
   50CHL1   H1B 3672   1.640   1.079   2.840 -0.6187  1.5035  2.7150
   50CHL1    C2 3673   1.681   1.165   2.644 -0.5677 -0.5498  0.0676
   50CHL1   H2A 3674   1.734   1.072   2.616 -1.3700 -0.9995  0.0130
   50CHL1   H2B 3675   1.734   1.248   2.593 -1.7075 -0.3451 -0.8242
   50CHL1   C20 3676   1.780   1.418   3.540  0.0701  0.2559 -0.5222
   50CHL1   H20 3677   1.860   1.489   3.510 -0.1192 -0.2378 -2.3018
   50CHL1   C21 3678   1.849   1.282   3.563 -0.2954  0.5706  0.1225
   50CHL1  H21A 3679   1.872   1.228   3.469 -3.8859  1.7381 -1.6260
   50CHL1  H21B 3680   1.773   1.215   3.611  0.1584 -0.3402 -0.4090
   50CHL1  H21C 3681   1.934   1.302   3.631 -1.3742  0.8207  1.4637
   50CHL1   C22 3682   1.728   1.474   3.678 -0.3601  0.3147 -0.2239
   50CHL1  H22A 3683   1.687   1.577   3.667 -1.9019 -0.2099  0.3022
   50CHL1  H22B 3684   1.648   1.405   3.714  0.2150 -1.4230 -2.0358
   50CHL1   C23 3685   1.847   1.488   3.778  0.5200  0.2351 -0.3718
   50CHL1  H23A 3686   1.894   1.391   3.803 -0.4278  0.0515  0.7596
   50CHL1  H23B 3687   1.927   1.548   3.729  2.2966 -1.0992  0.7839
   50CHL1   C24 3688   1.811   1.562   3.912 -0.0865  0.0367 -0.6138
   50CHL1  H24A 3689   1.776   1.667   3.899 -1.0757 -0.1068  0.6873
   50CHL1  H24B 3690   1.724   1.505   3.952  1.4430 -0.1672  2.7306
   50CHL1   C25 3691   1.923   1.564   4.020 -0.1919 -0.3584 -0.8390
   50CHL1   H25 3692   1.945   1.458   4.047 -0.0208  0.2535  1.6193
   50CHL1   C26 3693   2.052   1.632   3.987 -0.3824  0.2521  0.3561
   50CHL1  H26A 3694   2.034   1.739   3.963  0.4201 -0.2450 -3.0479
   50CHL1  H26B 3695   2.128   1.635   4.067  1.1879 -1.3161 -0.9924
   50CHL1  H26C 3696   2.108   1.585   3.904  0.1423 -0.9610  1.3657
   50CHL1   C27 3697   1.872   1.625   4.162  0.4430  0.0733  0.1881
   50CHL1  H27A 3698   1.951   1.629   4.241  2.5886  0.4967 -1.8569
   50CHL1  H27B 3699   1.829   1.722   4.128 -1.0414 -1.1889 -1.7329
   50CHL1  H27C 3700   1.798   1.554   4.203 -0.6622  0.1825 -1.5533
   51CHL1    C3 3701   3.964   1.362   2.563  0.3318  0.1869 -0.3358
   51CHL1    H3 3702   4.069   1.357   2.599  0.6573  1.1167 -1.0861
   51CHL1    O3 3703   3.956   1.367   2.418 -0.7989 -0.2939 -0.8751
   51CHL1   H3' 3704   3.869   1.402   2.399 -1.0370 -0.0447  0.5547
   51CHL1    C4 3705   3.879   1.246   2.616 -0.5645 -0.0875 -0.0855
   51CHL1   H4A 3706   3.773   1.267   2.591 -1.4816 -2.4459  1.5042
   51CHL1   H4B 3707   3.901   1.147   2.570  1.6275  0.6838 -0.8413
   51CHL1    C5 3708   3.881   1.232   2.767  0.0727 -0.1657  0.2899
   51CHL1    C6 3709   3.932   1.123   2.834  0.6859 -1.2253  0.7488
   51CHL1    H6 3710   3.953   1.036   2.769  2.2809 -0.8349  0.7028
   51CHL1    C7 3711   3.925   1.109   2.988  0.1097 -0.2932 -0.2854
   51CHL1   H7A 3712   3.876   1.012   3.013 -1.8303  0.4039 -1.1695
   51CHL1   H7B 3713   4.023   1.115   3.039 -0.0110  0.1373 -0.1004
   51CHL1    C8 3714   3.847   1.221   3.058 -0.6509  0.5216  0.2891
   51CHL1    H8 3715   3.739   1.205   3.039 -1.2061  3.5282  0.4952
   51CHL1   C14 3716   3.888   1.218   3.202  0.4750  0.6289 -0.4693
   51CHL1   H14 3717   3.996   1.243   3.204  0.1602  2.0899 -0.8556
   51CHL1   C15 3718   3.875   1.081   3.272  0.6531 -0.0586 -0.2597
   51CHL1  H15A 3719   3.775   1.040   3.248  1.2920 -2.1113  0.4399
   51CHL1  H15B 3720   3.959   1.015   3.243  0.4335 -1.3024  1.7519
   51CHL1   C16 3721   3.884   1.115   3.421 -0.1785  0.1484 -0.2252
   51CHL1  H16A 3722   3.811   1.055   3.479  0.1465 -1.0353 -0.9952
   51CHL1  H16B 3723   3.983   1.074   3.452 -0.0912  1.2971  1.1241
   51CHL1   C17 3724   3.868   1.269   3.423  0.6857 -0.3106 -0.2194
   51CHL1   H17 3725   3.967   1.318   3.426  0.6351 -0.1380 -1.0951
   51CHL1   C13 3726   3.808   1.318   3.291 -0.4107 -0.0062  0.3320
   51CHL1   C18 3727   3.656   1.290   3.285 -0.3721  0.1709  0.0231
   51CHL1  H18A 3728   3.613   1.298   3.183 -1.2359  0.9236  0.4255
   51CHL1  H18B 3729   3.626   1.198   3.340 -0.1120  0.4528  0.6459
   51CHL1  H18C 3730   3.602   1.363   3.349  0.8695 -0.6203  2.0659
   51CHL1   C12 3731   3.846   1.455   3.243  0.4243  0.0226 -0.0577
   51CHL1  H12A 3732   3.806   1.540   3.303  0.5056  0.9857 -1.3218
   51CHL1  H12B 3733   3.954   1.461   3.268  0.3065  0.8178  0.3038
   51CHL1   C11 3734   3.819   1.473   3.093  0.3773 -0.2948  0.0680
   51CHL1  H11A 3735   3.712   1.499   3.080  0.4117  1.4884  2.6369
   51CHL1  H11B 3736   3.868   1.569   3.063 -0.0717  0.9361  2.9569
   51CHL1    C9 3737   3.870   1.358   2.999 -0.6838 -0.0572  0.2024
   51CHL1    H9 3738   3.979   1.377   3.010 -0.6545 -0.7455  1.2003
   51CHL1   C10 3739   3.839   1.360   2.841 -0.8011  0.0274  0.0414
   51CHL1   C19 3740   3.682   1.368   2.827 -0.4716  0.4460 -0.6737
   51CHL1  H19A 3741   3.628   1.290   2.885  1.4878  0.0463  0.7145
   51CHL1  H19B 3742   3.639   1.466   2.856 -2.3286  0.1632 -2.3110
   51CHL1  H19C 3743   3.644   1.353   2.724 -0.0219  0.8011 -0.8947
   51CHL1    C1 3744   3.907   1.486   2.784 -0.0161  0.4952 -0.8207
   51CHL1   H1A 3745   3.870   1.579   2.832 -1.7736 -0.7768  0.4379
   51CHL1   H1B 3746   4.014   1.472   2.810 -0.4503  0.5255  1.1463
   51CHL1    C2 3747   3.911   1.494   2.625 -0.7920  0.6745 -0.1388
   51CHL1   H2A 3748   3.962   1.588   2.595 -1.7388  1.5206  0.8229
   51CHL1   H2B 3749   3.804   1.505   2.596 -1.2537  1.1392  1.6354
   51CHL1   C20 3750   3.785   1.304   3.548 -0.4080  0.1393 -0.0025
   51CHL1   H20 3751   3.684   1.260   3.550  0.2678 -1.4921  2.2332
   51CHL1   C21 3752   3.763   1.460   3.566 -0.4147 -0.2487  0.1903
   51CHL1  H21A 3753   3.859   1.511   3.588 -1.6623  2.3718 -0.1686
   51CHL1  H21B 3754   3.696   1.479   3.653  0.6040  1.6088  0.6021
   51CHL1  H21C 3755   3.719   1.503   3.474 -0.1621  0.9035  0.5952
   51CHL1   C22 3756   3.858   1.246   3.677  0.2140  0.1356 -0.4117
   51CHL1  H22A 3757   3.880   1.139   3.657  1.2068  0.5133 -1.3733
   51CHL1  H22B 3758   3.952   1.299   3.703  0.4863 -1.0232  1.1366
   51CHL1   C23 3759   3.775   1.243   3.811  0.1164 -0.5441  0.4659
   51CHL1  H23A 3760   3.717   1.336   3.828 -0.0693 -0.7270  0.8476
   51CHL1  H23B 3761   3.694   1.167   3.807 -0.4291  0.0557 -1.5299
   51CHL1   C24 3762   3.861   1.223   3.935  0.1305  0.0606 -0.2345
   51CHL1  H24A 3763   3.900   1.119   3.941  1.0089  0.3303 -0.9945
   51CHL1  H24B 3764   3.945   1.295   3.928 -0.4830  1.0503  1.6317
   51CHL1   C25 3765   3.797   1.262   4.069 -0.3562  0.1503 -0.4234
   51CHL1   H25 3766   3.736   1.354   4.068  0.5137  0.7610  0.6690
   51CHL1   C26 3767   3.694   1.157   4.118 -0.6824  0.8106 -0.0495
   51CHL1  H26A 3768   3.639   1.189   4.209  1.3843  0.3877  1.4194
   51CHL1  H26B 3769   3.618   1.138   4.039 -0.4888 -2.3558  0.3863
   51CHL1  H26C 3770   3.740   1.063   4.156 -1.5587  0.9686  1.4436
   51CHL1   C27 3771   3.910   1.266   4.175 -0.0011  0.1612  0.5170
   51CHL1  H27A 3772   3.987   1.346   4.166  1.9450 -1.5883  0.7352
   51CHL1  H27B 3773   3.861   1.263   4.275  1.8869  1.7414  1.5648
   51CHL1  H27C 3774   3.968   1.172   4.159  0.7911  0.9934 -1.8310
   52CHL1    C3 3775   3.654   3.340   3.061  0.4564  0.5788  0.4306
   52CHL1    H3 3776   3.570   3.371   3.126  1.4505  1.5696  1.2804
   52CHL1    O3 3777   3.616   3.355   2.921 -0.5472  0.4294  0.3651
   52CHL1   H3' 3778   3.652   3.439   2.894 -0.7420  0.4650  0.2038
   52CHL1    C4 3779   3.772   3.440   3.087 -0.3979 -0.2636 -0.6781
   52CHL1   H4A 3780   3.841   3.407   3.006 -1.6068  1.2903 -2.4252
   52CHL1   H4B 3781   3.749   3.547   3.065 -1.3846 -0.3020  0.0798
   52CHL1    C5 3782   3.836   3.419   3.221 -1.0187 -0.6348 -0.2296
   52CHL1    C6 3783   3.860   3.533   3.303 -0.1327  0.7014  0.0567
   52CHL1    H6 3784   3.825   3.628   3.259  1.2707  1.7982  1.2181
   52CHL1    C7 3785   3.918   3.530   3.439 -0.0002 -0.6434 -0.5848
   52CHL1   H7A 3786   4.000   3.604   3.454  0.1147 -1.1610  1.6561
   52CHL1   H7B 3787   3.840   3.544   3.517  0.1159 -3.1318  0.0474
   52CHL1    C8 3788   3.977   3.394   3.483 -0.2012  0.2832 -0.1429
   52CHL1    H8 3789   4.086   3.394   3.464  0.1343  0.4744  1.5783
   52CHL1   C14 3790   3.975   3.381   3.641  0.1089 -0.7940 -0.1195
   52CHL1   H14 3791   3.865   3.379   3.656  0.1071 -2.1823 -0.2194
   52CHL1   C15 3792   4.028   3.492   3.738  0.1329 -0.1285  0.0108
   52CHL1  H15A 3793   4.129   3.520   3.701  0.6605 -0.1202  1.3897
   52CHL1  H15B 3794   3.970   3.586   3.735  1.5651  0.7649 -0.7113
   52CHL1   C16 3795   4.034   3.423   3.873  0.2995 -0.2384  0.5619
   52CHL1  H16A 3796   4.136   3.443   3.913  2.0422 -3.6295 -1.6811
   52CHL1  H16B 3797   3.952   3.462   3.938 -0.7927  0.3979 -1.1304
   52CHL1   C17 3798   4.008   3.268   3.844 -0.2926 -0.3461  0.1388
   52CHL1   H17 3799   3.898   3.260   3.859  0.0350 -2.3260  1.8734
   52CHL1   C13 3800   4.028   3.250   3.692  0.4608  0.0406  0.1144
   52CHL1   C18 3801   4.183   3.247   3.677 -0.1376  0.2704 -0.1954
   52CHL1  H18A 3802   4.220   3.259   3.573 -1.5539 -0.5816 -0.8306
   52CHL1  H18B 3803   4.232   3.326   3.738 -0.6695  0.4814 -0.0274
   52CHL1  H18C 3804   4.229   3.152   3.712 -1.1309 -0.0481  0.2950
   52CHL1   C12 3805   3.957   3.135   3.625 -0.0445 -0.7255  0.3667
   52CHL1  H12A 3806   4.006   3.040   3.657  2.3483  0.0555 -0.7077
   52CHL1  H12B 3807   3.857   3.137   3.672  0.4743  1.8213  1.5326
   52CHL1   C11 3808   3.952   3.140   3.470  0.7205 -0.4149  0.3114
   52CHL1  H11A 3809   4.057   3.126   3.437  0.5977  0.4211 -0.4714
   52CHL1  H11B 3810   3.889   3.055   3.436 -0.9516  0.9491 -0.1566
   52CHL1    C9 3811   3.896   3.272   3.424  0.2846  0.8030  0.3201
   52CHL1    H9 3812   3.800   3.283   3.479  0.1591  3.2630 -0.2757
   52CHL1   C10 3813   3.863   3.276   3.267 -0.1774 -0.6023 -0.8248
   52CHL1   C19 3814   3.993   3.235   3.190  0.6767 -0.1565  0.2254
   52CHL1  H19A 3815   4.034   3.131   3.197 -0.5939 -0.8190 -1.5680
   52CHL1  H19B 3816   3.973   3.248   3.082 -0.0616 -0.0290  0.3774
   52CHL1  H19C 3817   4.069   3.310   3.220  3.0693 -1.3551 -2.3999
   52CHL1    C1 3818   3.745   3.183   3.240 -0.0025 -0.8955 -0.3930
   52CHL1   H1A 3819   3.776   3.078   3.254  0.4931 -0.6450  0.4053
   52CHL1   H1B 3820   3.664   3.209   3.311  0.0183 -1.4579 -0.1612
   52CHL1    C2 3821   3.694   3.189   3.094  0.2225 -0.1141  0.0544
   52CHL1   H2A 3822   3.606   3.123   3.083 -0.2106  0.6051 -0.9759
   52CHL1   H2B 3823   3.768   3.168   3.013 -0.2920  2.5787 -1.2467
   52CHL1   C20 3824   4.065   3.172   3.952  0.2745 -0.7312  0.2014
   52CHL1   H20 3825   4.174   3.154   3.943  0.9728  2.4620  1.1682
   52CHL1   C21 3826   3.998   3.030   3.938 -0.2201 -0.6601  0.1390
   52CHL1  H21A 3827   4.028   2.973   4.028  0.5545 -0.8537 -0.2306
   52CHL1  H21B 3828   4.024   2.966   3.850  2.4056  1.4921 -0.7730
   52CHL1  H21C 3829   3.888   3.045   3.941 -0.1843 -0.4292  0.2849
   52CHL1   C22 3830   4.039   3.229   4.093 -0.2203  0.5336 -0.6125
   52CHL1  H22A 3831   4.049   3.339   4.106 -2.6408  0.8024 -0.4850
   52CHL1  H22B 3832   3.931   3.211   4.111  0.0684  0.7363  1.5101
   52CHL1   C23 3833   4.112   3.162   4.212 -0.2157 -0.8244 -0.1351
   52CHL1  H23A 3834   4.077   3.057   4.219 -2.4421 -0.1351 -0.1517
   52CHL1  H23B 3835   4.219   3.166   4.184 -0.4507 -0.7414 -1.0507
   52CHL1   C24 3836   4.092   3.240   4.344  0.0118 -0.2093  0.1808
   52CHL1  H24A 3837   4.135   3.342   4.337 -0.0665 -0.1852  0.0374
   52CHL1  H24B 3838   3.982   3.257   4.347 -0.2170 -1.5986  0.3830
   52CHL1   C25 3839   4.144   3.171   4.470 -0.0033  0.7655 -0.0330
   52CHL1   H25 3840   4.075   3.085   4.479 -1.3456  1.9845  2.3594
   52CHL1   C26 3841   4.292   3.136   4.478 -0.0745 -0.2920  0.4643
   52CHL1  H26A 3842   4.324   3.079   4.388  1.0325 -1.5716  1.6173
   52CHL1  H26B 3843   4.359   3.224   4.487 -2.1135  1.3511  0.4500
   52CHL1  H26C 3844   4.321   3.083   4.572  0.0535 -0.0460  0.5630
   52CHL1   C27 3845   4.105   3.259   4.593 -0.7732  0.4220 -1.0657
   52CHL1  H27A 3846   3.996   3.278   4.589 -1.2608 -1.4695  1.2266
   52CHL1  H27B 3847   4.133   3.211   4.689 -0.4052  1.6721 -0.5217
   52CHL1  H27C 3848   4.166   3.352   4.597  2.5044 -1.5750 -0.7320
   53CHL1    C3 3849   5.937   1.081   2.732  0.2860 -0.6465  0.0919
   53CHL1    H3 3850   5.950   1.191   2.720 -0.3642 -0.5656  0.0752
   53CHL1    O3 3851   5.946   1.019   2.606 -0.7467 -0.0091  0.1393
   53CHL1   H3' 3852   5.926   0.926   2.619 -0.7334 -0.2579 -1.4639
   53CHL1    C4 3853   6.036   1.019   2.826 -0.7621  0.1052 -0.4719
   53CHL1   H4A 3854   6.026   0.908   2.828 -0.2286  0.0452 -0.8791
   53CHL1   H4B 3855   6.141   1.032   2.793 -0.7231  1.4771  0.1336
   53CHL1    C5 3856   6.034   1.083   2.971 -0.0135 -0.3330  1.1492
   53CHL1    C6 3857   6.135   1.138   3.032  0.4404  0.4734  0.2475
   53CHL1    H6 3858   6.234   1.144   2.984  0.3879  0.9425  0.1982
   53CHL1    C7 3859   6.135   1.183   3.176 -0.0735  0.5592  0.4047
   53CHL1   H7A 3860   6.225   1.132   3.215  0.4073  0.5731 -0.6359
   53CHL1   H7B 3861   6.155   1.292   3.183  0.7002  0.4300  0.3565
   53CHL1    C8 3862   6.014   1.142   3.249  0.2880 -0.6135 -0.1144
   53CHL1    H8 3863   6.022   1.032   3.264 -0.3364 -0.5984  0.3388
   53CHL1   C14 3864   6.001   1.231   3.374  0.5793 -0.6489 -0.7499
   53CHL1   H14 3865   6.006   1.332   3.328  2.6301  0.4007  1.5464
   53CHL1   C15 3866   6.123   1.243   3.470 -0.4174 -0.1263 -0.4199
   53CHL1  H15A 3867   6.156   1.138   3.487  1.9137  0.8003  1.0917
   53CHL1  H15B 3868   6.205   1.308   3.434  0.4952 -0.6284  0.6978
   53CHL1   C16 3869   6.058   1.295   3.596 -0.2651 -0.0428  0.6235
   53CHL1  H16A 3870   6.077   1.227   3.681 -2.6201 -0.5058  0.8509
   53CHL1  H16B 3871   6.099   1.395   3.624  0.8560 -0.4687  0.5692
   53CHL1   C17 3872   5.904   1.306   3.568  0.8781 -0.0092 -0.6676
   53CHL1   H17 3873   5.890   1.403   3.516  0.3593  0.7848  0.8742
   53CHL1   C13 3874   5.871   1.209   3.456  0.2435 -0.7156  0.5493
   53CHL1   C18 3875   5.877   1.059   3.507  0.5341 -0.2097 -0.1515
   53CHL1  H18A 3876   5.790   1.035   3.572  1.1693 -0.0956  0.7527
   53CHL1  H18B 3877   5.872   1.000   3.413 -1.7008 -1.0878  0.4618
   53CHL1  H18C 3878   5.976   1.042   3.553  0.2710 -0.8459  0.1878
   53CHL1   C12 3879   5.756   1.247   3.358  0.5762 -0.5859  0.5352
   53CHL1  H12A 3880   5.651   1.242   3.395  0.2260 -1.0514 -0.5058
   53CHL1  H12B 3881   5.777   1.349   3.318 -0.2295 -1.1355 -1.3862
   53CHL1   C11 3882   5.756   1.152   3.236  0.3177 -0.4312  0.3194
   53CHL1  H11A 3883   5.730   1.049   3.266 -0.2029 -0.4168 -0.0571
   53CHL1  H11B 3884   5.675   1.199   3.175 -1.5782 -2.0090  1.4953
   53CHL1    C9 3885   5.887   1.156   3.161 -0.5660 -0.5600  0.0187
   53CHL1    H9 3886   5.895   1.259   3.121 -0.9806 -0.7091 -0.4521
   53CHL1   C10 3887   5.895   1.068   3.035  0.0816  0.5526 -0.1037
   53CHL1   C19 3888   5.879   0.916   3.070  0.7789 -0.3316  0.2143
   53CHL1  H19A 3889   5.776   0.900   3.109  0.2263  0.5417 -0.8158
   53CHL1  H19B 3890   5.889   0.856   2.977 -3.5089  1.5973 -1.7715
   53CHL1  H19C 3891   5.954   0.886   3.146  1.1177  0.2800  0.1284
   53CHL1    C1 3892   5.786   1.119   2.931  0.6485  0.2546  0.2951
   53CHL1   H1A 3893   5.687   1.082   2.966  0.5153 -0.0594 -0.3927
   53CHL1   H1B 3894   5.808   1.228   2.927 -0.8027  0.6554  1.9876
   53CHL1    C2 3895   5.801   1.058   2.791 -0.2916 -0.3696 -0.0293
   53CHL1   H2A 3896   5.730   1.107   2.722  0.8242  0.3165 -0.7138
   53CHL1   H2B 3897   5.778   0.949   2.796 -2.1805 -0.0959 -1.6016
   53CHL1   C20 3898   5.824   1.315   3.698  0.1996 -0.4763 -0.0364
   53CHL1   H20 3899   5.828   1.219   3.755  1.1967 -1.6730 -1.9957
   53CHL1   C21 3900   5.678   1.326   3.659 -0.4153 -0.1751  0.1994
   53CHL1  H21A 3901   5.650   1.231   3.609  0.5991 -0.5946  0.4079
   53CHL1  H21B 3902   5.659   1.405   3.583 -0.4370 -0.8938 -0.5624
   53CHL1  H21C 3903   5.619   1.330   3.753 -0.0865 -0.8342  0.4432
   53CHL1   C22 3904   5.870   1.428   3.792 -0.2039  0.2572 -0.1043
   53CHL1  H22A 3905   5.972   1.400   3.826  0.2306  1.0770 -0.7169
   53CHL1  H22B 3906   5.864   1.534   3.761  1.7457  0.2430 -0.6668
   53CHL1   C23 3907   5.785   1.413   3.927  0.5318 -0.0638 -0.2380
   53CHL1  H23A 3908   5.683   1.454   3.907  0.5140 -0.5177 -1.1207
   53CHL1  H23B 3909   5.780   1.311   3.970  0.4378  0.3733  0.8216
   53CHL1   C24 3910   5.841   1.490   4.043  0.7953 -0.1273 -0.3076
   53CHL1  H24A 3911   5.785   1.460   4.134  0.1360 -0.7406 -0.9041
   53CHL1  H24B 3912   5.948   1.460   4.048  0.6369 -0.9382 -1.3097
   53CHL1   C25 3913   5.830   1.642   4.032  0.4897 -0.1869  0.2334
   53CHL1   H25 3914   5.858   1.678   3.931 -0.0039 -1.0798 -0.2360
   53CHL1   C26 3915   5.683   1.690   4.061 -0.6291  0.3938  0.5621
   53CHL1  H26A 3916   5.676   1.698   4.171  1.5798  1.2020  0.6896
   53CHL1  H26B 3917   5.653   1.788   4.018  0.0448  0.2846 -0.1747
   53CHL1  H26C 3918   5.616   1.608   4.027  1.2629 -1.1784  0.5066
   53CHL1   C27 3919   5.929   1.709   4.130 -0.3678 -0.2018  0.5481
   53CHL1  H27A 3920   5.900   1.696   4.236  0.8426 -0.2517  0.8866
   53CHL1  H27B 3921   6.032   1.673   4.105 -0.5117 -2.0403  2.2976
   53CHL1  H27C 3922   5.922   1.819   4.117  4.1643  0.5626  2.4466
   54CHL1    C3 3923   4.713   1.152   2.876 -0.1364  0.7354 -0.1568
   54CHL1    H3 3924   4.605   1.168   2.894  0.0844  0.0734  2.0718
   54CHL1    O3 3925   4.724   1.114   2.737  0.0353  0.2250  0.3415
   54CHL1   H3' 3926   4.812   1.078   2.723 -0.6582 -0.7458 -2.0909
   54CHL1    C4 3927   4.800   1.281   2.901  0.5415  0.6367  0.2476
   54CHL1   H4A 3928   4.909   1.263   2.886  0.3210  0.4375 -1.2687
   54CHL1   H4B 3929   4.780   1.361   2.826  1.9699  0.7555 -0.0477
   54CHL1    C5 3930   4.758   1.324   3.038  0.3908 -0.2782  0.2052
   54CHL1    C6 3931   4.694   1.435   3.067 -0.1872 -0.0324 -0.0131
   54CHL1    H6 3932   4.671   1.505   2.986 -0.3634 -0.0477  0.0219
   54CHL1    C7 3933   4.662   1.479   3.212 -0.2044  0.2404 -0.0116
   54CHL1   H7A 3934   4.700   1.582   3.228  0.2782  0.0987 -0.2154
   54CHL1   H7B 3935   4.555   1.473   3.242  0.3494 -0.5809  1.9629
   54CHL1    C8 3936   4.741   1.401   3.317  0.1469 -0.0336  0.5780
   54CHL1    H8 3937   4.846   1.435   3.304  0.3936 -0.5519  1.1959
   54CHL1   C14 3938   4.683   1.424   3.457 -0.5187  0.3146 -0.9139
   54CHL1   H14 3939   4.580   1.383   3.455 -0.5421  0.4091 -1.7484
   54CHL1   C15 3940   4.669   1.570   3.507  0.0968 -0.2608  0.3538
   54CHL1  H15A 3941   4.765   1.625   3.502  1.1673 -2.1669 -1.7296
   54CHL1  H15B 3942   4.592   1.637   3.465  0.4505 -0.0568  0.0225
   54CHL1   C16 3943   4.642   1.541   3.656  0.4778 -0.1583  0.6901
   54CHL1  H16A 3944   4.716   1.605   3.708  0.6402 -0.1237  0.4178
   54CHL1  H16B 3945   4.536   1.559   3.682  0.2328 -0.1257 -0.3179
   54CHL1   C17 3946   4.679   1.393   3.682 -0.5098  0.1363 -0.6732
   54CHL1   H17 3947   4.581   1.341   3.680  0.1611 -1.2844  0.9407
   54CHL1   C13 3948   4.762   1.347   3.563  0.1851 -0.0199 -1.0555
   54CHL1   C18 3949   4.906   1.399   3.573 -0.3823 -0.1720  0.1931
   54CHL1  H18A 3950   4.954   1.382   3.475  0.0193 -0.4000  0.4277
   54CHL1  H18B 3951   4.910   1.507   3.597 -1.1842 -0.1878  0.4553
   54CHL1  H18C 3952   4.961   1.330   3.641  1.5136  0.5266 -0.5764
   54CHL1   C12 3953   4.776   1.196   3.539  0.0751 -0.0350  0.0336
   54CHL1  H12A 3954   4.857   1.151   3.600  0.6016 -0.0623 -0.6662
   54CHL1  H12B 3955   4.675   1.155   3.558  0.0488 -0.0136 -0.0557
   54CHL1   C11 3956   4.813   1.158   3.392 -0.2494  0.5277  0.1935
   54CHL1  H11A 3957   4.922   1.180   3.384  0.1150 -1.5439 -1.7934
   54CHL1  H11B 3958   4.800   1.051   3.365 -1.6438  0.3605  1.3990
   54CHL1    C9 3959   4.745   1.250   3.284  0.3893  1.0493 -0.0601
   54CHL1    H9 3960   4.638   1.223   3.293  0.3931  1.2716  0.6883
   54CHL1   C10 3961   4.799   1.217   3.141 -0.0070 -0.3159 -0.5128
   54CHL1   C19 3962   4.957   1.226   3.143 -0.1780 -1.0755  0.1177
   54CHL1  H19A 3963   5.010   1.221   3.045  1.0409  1.4905  0.5574
   54CHL1  H19B 3964   5.000   1.315   3.196  0.5546 -1.8502  0.8680
   54CHL1  H19C 3965   4.995   1.144   3.208 -0.0248 -0.9027  0.2482
   54CHL1    C1 3966   4.753   1.072   3.105 -0.2487 -0.5966 -1.0876
   54CHL1   H1A 3967   4.809   0.993   3.159 -0.9386 -0.5084 -0.2206
   54CHL1   H1B 3968   4.644   1.071   3.129  0.2697 -0.2412  1.5459
   54CHL1    C2 3969   4.776   1.037   2.964  0.5390  0.0073  0.0197
   54CHL1   H2A 3970   4.719   0.943   2.946  1.1411 -0.0485 -1.7349
   54CHL1   H2B 3971   4.883   1.028   2.934  1.2505  3.3849  1.1112
   54CHL1   C20 3972   4.735   1.354   3.824  0.0944 -0.4754 -0.1766
   54CHL1   H20 3973   4.845   1.370   3.827 -0.0998  0.9431 -0.2214
   54CHL1   C21 3974   4.707   1.207   3.855  0.0366 -0.1179 -0.1768
   54CHL1  H21A 3975   4.773   1.147   3.789 -0.8112 -0.1304 -1.0306
   54CHL1  H21B 3976   4.599   1.182   3.857  0.0353 -0.0760  0.5881
   54CHL1  H21C 3977   4.742   1.187   3.959  3.6079  0.0682 -1.2121
   54CHL1   C22 3978   4.689   1.449   3.937 -0.1259 -0.2731  0.1329
   54CHL1  H22A 3979   4.691   1.554   3.901 -0.5602 -0.7354 -1.3161
   54CHL1  H22B 3980   4.585   1.425   3.971  0.0822 -0.5263  0.6022
   54CHL1   C23 3981   4.786   1.449   4.056 -0.6865 -0.2016  0.2014
   54CHL1  H23A 3982   4.798   1.345   4.095  1.7013  0.0394  0.2486
   54CHL1  H23B 3983   4.881   1.487   4.014  0.1575  0.0333  2.2285
   54CHL1   C24 3984   4.743   1.544   4.169  0.0755 -0.7333  0.2543
   54CHL1  H24A 3985   4.756   1.651   4.141  0.0406  0.2209  3.4683
   54CHL1  H24B 3986   4.637   1.536   4.203  0.2293 -0.7612  0.7282
   54CHL1   C25 3987   4.827   1.530   4.299  0.4814  0.3106  0.0713
   54CHL1   H25 3988   4.794   1.435   4.345 -0.0471  0.2010 -0.5206
   54CHL1   C26 3989   4.980   1.532   4.276 -0.1127 -0.0336  0.4908
   54CHL1  H26A 3990   5.007   1.618   4.211  0.6427 -0.0656  0.7519
   54CHL1  H26B 3991   5.040   1.532   4.370 -0.1100  0.9005  0.4986
   54CHL1  H26C 3992   5.012   1.441   4.220 -1.0997  0.8534 -1.6214
   54CHL1   C27 3993   4.791   1.644   4.393  0.4794 -0.0164  0.0575
   54CHL1  H27A 3994   4.851   1.652   4.486  1.5391 -1.2629 -0.4887
   54CHL1  H27B 3995   4.817   1.740   4.344 -1.2376  1.5358  1.9681
   54CHL1  H27C 3996   4.682   1.650   4.412  0.3033  0.3205 -1.0099
   55CHL1    C3 3997   1.522   2.782   2.704 -0.1267 -0.1341 -0.6028
   55CHL1    H3 3998   1.412   2.767   2.698 -0.1700 -0.4909  0.6970
   55CHL1    O3 3999   1.594   2.685   2.625  0.4257 -0.6708  0.5505
   55CHL1   H3' 4000   1.571   2.697   2.532  0.2904 -1.4904  0.4677
   55CHL1    C4 4001   1.558   2.924   2.650 -0.4441  0.6689 -0.1472
   55CHL1   H4A 4002   1.668   2.927   2.632 -0.5523  1.4664 -0.7281
   55CHL1   H4B 4003   1.522   2.931   2.545  0.1988  0.6560 -0.3765
   55CHL1    C5 4004   1.499   3.037   2.734 -0.4899 -0.0274  0.5452
   55CHL1    C6 4005   1.418   3.125   2.680 -0.4730 -0.0895 -0.5043
   55CHL1    H6 4006   1.384   3.116   2.576  0.2758 -2.3337 -0.6079
   55CHL1    C7 4007   1.360   3.241   2.766  0.1385 -0.0141  0.9583
   55CHL1   H7A 4008   1.354   3.335   2.707 -1.0927 -1.8906 -2.1691
   55CHL1   H7B 4009   1.254   3.221   2.793 -0.4351  0.2967 -0.8616
   55CHL1    C8 4010   1.435   3.263   2.905 -0.1289  0.5395  0.2648
   55CHL1    H8 4011   1.539   3.298   2.890  0.0662  0.0987  0.5870
   55CHL1   C14 4012   1.361   3.361   2.994  0.2515  0.4261 -0.3391
   55CHL1   H14 4013   1.255   3.329   3.002  0.0915  1.1189  0.6281
   55CHL1   C15 4014   1.347   3.502   2.943  0.2940  0.3339 -0.0639
   55CHL1  H15A 4015   1.446   3.525   2.898 -0.4830  2.4694 -0.8299
   55CHL1  H15B 4016   1.271   3.501   2.862  1.8763 -1.0760 -1.6031
   55CHL1   C16 4017   1.312   3.592   3.062 -0.4594 -0.4748 -0.6918
   55CHL1  H16A 4018   1.391   3.669   3.073  0.2179 -1.3910  1.5100
   55CHL1  H16B 4019   1.209   3.633   3.052 -1.5530 -2.0111  2.6924
   55CHL1   C17 4020   1.309   3.493   3.186 -0.1711 -0.4505 -0.2028
   55CHL1   H17 4021   1.208   3.445   3.187 -0.2126 -0.3609 -0.0373
   55CHL1   C13 4022   1.397   3.371   3.139 -0.3473  0.0182 -1.0774
   55CHL1   C18 4023   1.546   3.414   3.146  0.4040  0.4367  0.2902
   55CHL1  H18A 4024   1.569   3.495   3.074 -0.7000  1.6843  1.2775
   55CHL1  H18B 4025   1.568   3.440   3.252 -1.0495 -0.0314  0.7432
   55CHL1  H18C 4026   1.621   3.334   3.127  0.9199  0.8696  0.4955
   55CHL1   C12 4027   1.376   3.233   3.206 -0.0977  0.1607 -0.2129
   55CHL1  H12A 4028   1.414   3.237   3.311  3.4393  0.9139 -1.3991
   55CHL1  H12B 4029   1.270   3.200   3.205 -0.0773  0.0112  0.9006
   55CHL1   C11 4030   1.456   3.127   3.125  0.4206 -0.0195 -0.5866
   55CHL1  H11A 4031   1.563   3.144   3.150  0.6938 -0.2555 -1.5526
   55CHL1  H11B 4032   1.423   3.027   3.160 -2.9337  0.7320 -1.2453
   55CHL1    C9 4033   1.436   3.125   2.964  0.8843 -0.0300 -0.2018
   55CHL1    H9 4034   1.333   3.085   2.954  1.4611 -0.9962 -3.4691
   55CHL1   C10 4035   1.530   3.025   2.887  0.1589 -0.2965 -0.0500
   55CHL1   C19 4036   1.679   3.066   2.915 -0.3131  0.5194  0.5797
   55CHL1  H19A 4037   1.713   3.046   3.019  1.5341  0.6520  0.0437
   55CHL1  H19B 4038   1.740   2.993   2.858 -1.4058  0.4807 -0.5674
   55CHL1  H19C 4039   1.699   3.169   2.878 -1.5808 -0.0956 -1.9914
   55CHL1    C1 4040   1.496   2.881   2.930 -0.1329  1.1995 -0.0549
   55CHL1   H1A 4041   1.522   2.864   3.036 -0.9098 -0.6834 -0.1223
   55CHL1   H1B 4042   1.386   2.874   2.918 -0.1159  0.4196  0.1829
   55CHL1    C2 4043   1.561   2.762   2.848  0.6169  0.0116 -0.6431
   55CHL1   H2A 4044   1.523   2.665   2.888 -1.0214  1.1900  0.8156
   55CHL1   H2B 4045   1.670   2.774   2.867  0.1536  0.5058  2.2175
   55CHL1   C20 4046   1.348   3.561   3.320  0.8068  0.4005 -0.1350
   55CHL1   H20 4047   1.457   3.577   3.327  0.5264  2.8899 -0.4604
   55CHL1   C21 4048   1.309   3.475   3.444  0.6521  0.0165 -0.1084
   55CHL1  H21A 4049   1.198   3.471   3.439  0.7183 -0.9941 -1.4696
   55CHL1  H21B 4050   1.347   3.506   3.543 -0.3993  0.9326  0.0246
   55CHL1  H21C 4051   1.347   3.371   3.437 -1.0953 -0.7574  1.0274
   55CHL1   C22 4052   1.288   3.698   3.332  0.1826 -0.9214 -0.7171
   55CHL1  H22A 4053   1.310   3.772   3.252 -1.1520 -0.9489 -1.1490
   55CHL1  H22B 4054   1.179   3.679   3.344  0.4628 -1.2458  1.6516
   55CHL1   C23 4055   1.341   3.781   3.452 -0.1066 -0.4843 -0.6886
   55CHL1  H23A 4056   1.295   3.742   3.546  0.0400 -2.6907 -1.4751
   55CHL1  H23B 4057   1.451   3.776   3.464 -0.0785  0.2852 -0.5775
   55CHL1   C24 4058   1.319   3.930   3.434  0.4684  0.3489  0.3910
   55CHL1  H24A 4059   1.367   3.954   3.336 -2.3581 -1.3703 -1.5844
   55CHL1  H24B 4060   1.209   3.935   3.420  0.3367 -1.9984  0.2484
   55CHL1   C25 4061   1.355   4.031   3.543  0.5275  0.6078 -0.2353
   55CHL1   H25 4062   1.305   4.127   3.516  1.5699  1.3445  0.3866
   55CHL1   C26 4063   1.299   3.995   3.684  0.7938 -0.0422 -0.0386
   55CHL1  H26A 4064   1.344   3.904   3.729 -0.0756  0.3050  1.5890
   55CHL1  H26B 4065   1.326   4.080   3.749  2.0251 -0.0934 -0.4465
   55CHL1  H26C 4066   1.189   3.985   3.668  0.7218 -0.2070  0.5297
   55CHL1   C27 4067   1.502   4.057   3.569 -0.0651  0.2565 -0.3204
   55CHL1  H27A 4068   1.538   4.102   3.474 -0.5550 -0.1284 -0.6929
   55CHL1  H27B 4069   1.516   4.125   3.655  0.0736  0.0760 -0.2004
   55CHL1  H27C 4070   1.569   3.970   3.590 -0.4340 -0.1749 -0.8782
   56CHL1    C3 4071   1.975   1.797   2.619 -0.0727 -0.5952  0.0952
   56CHL1    H3 4072   1.875   1.840   2.641 -0.7503 -0.6363 -2.5715
   56CHL1    O3 4073   1.980   1.766   2.481 -0.0439  0.2563 -0.6453
   56CHL1   H3' 4074   1.965   1.849   2.434 -1.1873  0.8082  0.6158
   56CHL1    C4 4075   2.090   1.899   2.650 -0.3788 -0.5996  0.4973
   56CHL1   H4A 4076   2.186   1.862   2.608 -1.1807 -0.1326 -1.9173
   56CHL1   H4B 4077   2.075   1.986   2.583 -2.0583 -0.8546  0.5064
   56CHL1    C5 4078   2.091   1.929   2.794  0.0061 -0.3090 -0.4162
   56CHL1    C6 4079   2.087   2.053   2.839 -0.5156  0.0095  0.5035
   56CHL1    H6 4080   2.078   2.130   2.761 -1.1358  1.0385  1.5583
   56CHL1    C7 4081   2.093   2.096   2.984  0.1087 -0.9195 -0.1586
   56CHL1   H7A 4082   2.148   2.189   3.010 -1.2698 -0.1108  0.0163
   56CHL1   H7B 4083   1.986   2.115   3.010  0.3398  0.9433 -0.3859
   56CHL1    C8 4084   2.133   1.982   3.080  0.5775  0.7413  0.0080
   56CHL1    H8 4085   2.243   1.983   3.063  0.5267  0.2938 -0.3687
   56CHL1   C14 4086   2.100   2.008   3.227  0.0995  0.3544 -0.1171
   56CHL1   H14 4087   1.992   1.991   3.247  0.9698 -2.5538  2.8956
   56CHL1   C15 4088   2.134   2.150   3.279 -0.1251  0.0977 -0.1262
   56CHL1  H15A 4089   2.242   2.170   3.264  0.1136 -1.3783 -0.5956
   56CHL1  H15B 4090   2.069   2.234   3.246  0.6203 -0.0090 -1.9792
   56CHL1   C16 4091   2.131   2.120   3.430 -0.3291  0.1728  0.6565
   56CHL1  H16A 4092   2.229   2.140   3.478 -0.1279  0.5516  0.0881
   56CHL1  H16B 4093   2.048   2.180   3.474 -0.9008 -0.9924  1.2228
   56CHL1   C17 4094   2.100   1.967   3.449  0.4662 -1.1790 -0.5293
   56CHL1   H17 4095   1.989   1.959   3.453  0.4212 -0.2438  1.0217
   56CHL1   C13 4096   2.150   1.903   3.322  1.0312 -0.2138  0.2332
   56CHL1   C18 4097   2.304   1.902   3.318 -0.8640 -0.2351  0.1993
   56CHL1  H18A 4098   2.337   2.004   3.346 -1.9822  0.3580 -0.5614
   56CHL1  H18B 4099   2.347   1.835   3.396  1.9645  1.3080  0.1026
   56CHL1  H18C 4100   2.347   1.871   3.220 -0.0102  0.5153  0.3267
   56CHL1   C12 4101   2.085   1.767   3.283  0.4460 -0.1628  0.8303
   56CHL1  H12A 4102   2.114   1.679   3.345 -1.2463 -1.0682  0.3931
   56CHL1  H12B 4103   1.975   1.773   3.292  0.4118 -0.3000  0.5108
   56CHL1   C11 4104   2.118   1.735   3.138  0.1019  0.1206  0.5861
   56CHL1  H11A 4105   2.224   1.703   3.130  0.0284  0.1172 -0.4920
   56CHL1  H11B 4106   2.070   1.638   3.111  0.8108 -0.3675  1.0387
   56CHL1    C9 4107   2.078   1.848   3.036 -0.2683 -0.3401  0.2238
   56CHL1    H9 4108   1.968   1.848   3.055 -0.4969 -0.4170 -0.9837
   56CHL1   C10 4109   2.104   1.809   2.885  0.6388 -0.5583 -0.6430
   56CHL1   C19 4110   2.251   1.759   2.861 -0.1057  0.7131 -0.1644
   56CHL1  H19A 4111   2.267   1.655   2.898 -2.1418 -0.2315 -1.7271
   56CHL1  H19B 4112   2.272   1.744   2.753 -1.1159 -1.0974 -0.1412
   56CHL1  H19C 4113   2.318   1.835   2.906 -0.0386  1.6729 -1.8104
   56CHL1    C1 4114   2.000   1.710   2.838  0.0152  0.4009  0.2262
   56CHL1   H1A 4115   2.018   1.620   2.900  1.7095  1.4896  1.4220
   56CHL1   H1B 4116   1.897   1.750   2.853 -1.0679 -2.6524  1.7943
   56CHL1    C2 4117   2.009   1.670   2.689  0.1684  0.8698 -0.5051
   56CHL1   H2A 4118   1.935   1.589   2.667 -0.3563  0.9041  1.0095
   56CHL1   H2B 4119   2.108   1.631   2.658 -0.1405 -2.1270  1.7593
   56CHL1   C20 4120   2.148   1.913   3.589 -0.3467 -0.8124  0.3004
   56CHL1   H20 4121   2.257   1.931   3.594  0.0157 -2.9819  3.2007
   56CHL1   C21 4122   2.111   1.762   3.613  0.6133  0.0699  0.1659
   56CHL1  H21A 4123   2.133   1.743   3.720  0.4241  0.3658  0.2583
   56CHL1  H21B 4124   2.170   1.691   3.550 -1.0343 -0.4512 -0.8689
   56CHL1  H21C 4125   2.003   1.739   3.595  0.3194  1.7641 -0.3725
   56CHL1   C22 4126   2.103   1.996   3.714 -0.7775 -0.1672  0.2901
   56CHL1  H22A 4127   2.128   2.103   3.697  1.6281 -0.8313 -0.8882
   56CHL1  H22B 4128   1.998   1.976   3.742 -0.6070 -1.0337  0.3524
   56CHL1   C23 4129   2.193   1.973   3.837  0.0305  1.6008  0.1582
   56CHL1  H23A 4130   2.177   1.871   3.877 -0.5322  1.0331 -1.4395
   56CHL1  H23B 4131   2.295   1.982   3.796 -0.2381 -0.1164 -0.9885
   56CHL1   C24 4132   2.159   2.077   3.943 -0.1483  0.5406 -0.0487
   56CHL1  H24A 4133   2.190   2.181   3.921  3.2700 -0.1687  0.7700
   56CHL1  H24B 4134   2.049   2.071   3.958  0.0605  1.1255  2.1499
   56CHL1   C25 4135   2.226   2.062   4.086  0.8525 -0.1058  0.2749
   56CHL1   H25 4136   2.192   1.964   4.125 -0.0113  0.0095 -0.1620
   56CHL1   C26 4137   2.381   2.052   4.085 -0.7754 -0.0877 -0.4777
   56CHL1  H26A 4138   2.425   2.139   4.032 -0.0314 -0.2359 -0.1089
   56CHL1  H26B 4139   2.423   2.048   4.188 -1.1673 -0.4187 -0.3301
   56CHL1  H26C 4140   2.403   1.962   4.025  1.1347  1.2168 -1.8302
   56CHL1   C27 4141   2.180   2.181   4.174  0.7746 -0.4943 -0.0484
   56CHL1  H27A 4142   2.204   2.282   4.133 -0.1872  0.4041  1.4611
   56CHL1  H27B 4143   2.071   2.173   4.191  0.4022  1.8360 -0.9564
   56CHL1  H27C 4144   2.227   2.171   4.274  0.5406 -1.9625 -0.0749
   57SAPC     N 4145   3.804   1.456   6.754 -0.4548 -0.0055 -0.0342
   57SAPC   C12 4146   3.928   1.358   6.752 -0.2550 -0.0154  0.7983
   57SAPC  H12A 4147   3.891   1.263   6.715 -0.7259  1.0201 -1.4913
   57SAPC  H12B 4148   3.961   1.328   6.851  0.7663 -1.3926  0.0718
   57SAPC   C13 4149   3.757   1.487   6.617 -0.0324  0.3806 -0.3322
   57SAPC  H13A 4150   3.669   1.548   6.632 -1.6836 -1.5126 -1.7459
   57SAPC  H13B 4151   3.838   1.543   6.572  0.3071 -0.1321 -0.3781
   57SAPC  H13C 4152   3.731   1.398   6.561  0.9341  0.4179 -0.8632
   57SAPC   C14 4153   3.703   1.387   6.833  0.0501 -0.1093 -0.2143
   57SAPC  H14A 4154   3.609   1.437   6.848 -0.3995 -1.1684  0.6231
   57SAPC  H14B 4155   3.685   1.287   6.794  1.6047 -0.7956  0.7558
   57SAPC  H14C 4156   3.747   1.395   6.931  0.4047  0.0870 -0.3883
   57SAPC   C15 4157   3.845   1.575   6.828 -0.6712 -0.3519 -0.7344
   57SAPC  H15A 4158   3.774   1.656   6.815 -3.4779 -2.3813  0.9442
   57SAPC  H15B 4159   3.858   1.551   6.932  1.0637  1.7643 -0.3826
   57SAPC  H15C 4160   3.945   1.604   6.799 -0.5036  0.4169  0.5425
   57SAPC   C11 4161   4.050   1.417   6.671 -0.7728 -0.3625  0.0140
   57SAPC  H11A 4162   4.018   1.441   6.568  0.7586 -0.3191 -0.4709
   57SAPC  H11B 4163   4.124   1.334   6.669 -1.2484 -0.7690 -0.9597
   57SAPC     P 4164   4.239   1.595   6.690  0.5663 -0.0515  0.0992
   57SAPC   O13 4165   4.216   1.743   6.682  0.2853  0.3313 -0.2932
   57SAPC   O14 4166   4.353   1.546   6.765  0.2250 -0.4752 -0.2643
   57SAPC   O12 4167   4.111   1.527   6.742 -0.4035 -0.4817  0.3742
   57SAPC   O11 4168   4.248   1.540   6.537 -0.0719 -0.4390  0.1876
   57SAPC    C1 4169   4.166   1.590   6.429  0.4402  0.2302  1.1256
   57SAPC    HA 4170   4.117   1.501   6.384  1.2032  0.3665 -0.0170
   57SAPC    HB 4171   4.082   1.657   6.460  0.1483  0.9664 -1.0727
   57SAPC    C2 4172   4.242   1.676   6.326  0.1814  0.3400 -1.1669
   57SAPC    HS 4173   4.176   1.697   6.240  0.6285 -0.2460 -1.6663
   57SAPC   O21 4174   4.362   1.609   6.278 -0.1439 -0.1458 -0.1952
   57SAPC   C21 4175   4.341   1.499   6.204 -0.1814  0.3334 -0.3686
   57SAPC   O22 4176   4.234   1.446   6.192  0.4758  0.5477 -0.2699
   57SAPC   C22 4177   4.470   1.457   6.140  0.3737  0.0428  0.5897
   57SAPC   H2R 4178   4.556   1.446   6.210  3.3376  1.6154 -2.4629
   57SAPC   H2S 4179   4.450   1.358   6.093 -0.9030 -0.2276  1.6624
   57SAPC    C3 4180   4.278   1.815   6.376  1.0597 -0.5263  0.7204
   57SAPC    HX 4181   4.348   1.809   6.462 -1.2203  0.9302  2.8126
   57SAPC    HY 4182   4.186   1.858   6.421 -0.7597 -0.4045 -2.7720
   57SAPC   O31 4183   4.328   1.889   6.263  0.1233 -0.0110  0.3448
   57SAPC   C31 4184   4.454   1.892   6.228 -0.8365  0.9004 -0.3388
   57SAPC   O32 4185   4.543   1.838   6.299 -0.4918  0.0223  0.4473
   57SAPC   C32 4186   4.475   1.976   6.103 -0.8001 -0.0046  0.0707
   57SAPC   H2X 4187   4.471   2.082   6.136 -0.9141 -0.1276  0.4575
   57SAPC   H2Y 4188   4.393   1.949   6.033 -0.6089  0.9465 -0.5403
   57SAPC   C23 4189   4.508   1.556   6.029  0.2810  0.6303 -0.0243
   57SAPC   H3R 4190   4.587   1.503   5.972 -1.0526 -1.3444 -0.1576
   57SAPC   H3S 4191   4.541   1.653   6.072  0.4512  0.0892  1.0809
   57SAPC   C24 4192   4.393   1.582   5.924  0.3280 -0.4876 -0.2575
   57SAPC   H4R 4193   4.309   1.649   5.954 -1.0465 -1.1845 -2.3053
   57SAPC   H4S 4194   4.342   1.490   5.887 -2.5856 -0.0968  2.4125
   57SAPC   C25 4195   4.453   1.659   5.807  0.6634 -0.1654 -0.6096
   57SAPC   H5R 4196   4.523   1.739   5.836  0.5935  0.2574 -1.5638
   57SAPC   C26 4197   4.435   1.636   5.676  0.5716  0.1565 -0.7394
   57SAPC   H6R 4198   4.477   1.703   5.599  0.6689 -1.5418 -2.2269
   57SAPC   C27 4199   4.346   1.526   5.615  0.1944 -0.5608 -0.0611
   57SAPC   H7R 4200   4.251   1.567   5.573 -1.4379 -3.1359  0.9206
   57SAPC   H7S 4201   4.319   1.445   5.685 -0.8870  0.8589  1.2502
   57SAPC   C28 4202   4.435   1.462   5.515  0.2394 -0.2776  0.3446
   57SAPC   H8R 4203   4.509   1.402   5.569 -0.5298 -1.7783 -0.2046
   57SAPC   C29 4204   4.444   1.483   5.380 -0.4916 -0.6058 -0.9927
   57SAPC   H9R 4205   4.512   1.428   5.313 -0.0222  0.9063 -1.8035
   57SAPC  C210 4206   4.345   1.576   5.322  0.4645  0.1511  0.1205
   57SAPC  H10R 4207   4.356   1.675   5.370  0.3783 -0.0673  0.5954
   57SAPC  H10S 4208   4.243   1.534   5.336  0.7762 -0.5217  0.3962
   57SAPC  C211 4209   4.371   1.584   5.168  0.3414  0.1283  0.5566
   57SAPC  H11R 4210   4.476   1.596   5.137  0.2206  0.1124  0.1343
   57SAPC  C212 4211   4.291   1.528   5.075  0.6992 -0.1377 -0.1154
   57SAPC  H12R 4212   4.309   1.542   4.968 -1.3098  0.3123 -0.4388
   57SAPC  C213 4213   4.154   1.467   5.108 -0.6330 -0.3893 -0.1731
   57SAPC  H13R 4214   4.102   1.508   5.018  0.8016  0.8621 -0.4628
   57SAPC  H13S 4215   4.106   1.512   5.198 -1.7418  1.1296 -1.4776
   57SAPC  C214 4216   4.145   1.314   5.113 -0.0799  0.0575  0.5609
   57SAPC  H14R 4217   4.237   1.261   5.142  1.2510  1.3088 -1.1271
   57SAPC  C215 4218   4.054   1.244   5.052 -0.3145 -0.0937 -0.3731
   57SAPC  H15R 4219   4.055   1.134   5.054 -1.9245 -0.2012 -2.2089
   57SAPC  C216 4220   3.928   1.299   4.995 -0.1568 -0.6123  0.3047
   57SAPC  H16R 4221   3.897   1.395   5.041  0.5113  0.9454 -2.3005
   57SAPC  H16S 4222   3.851   1.224   5.021  1.2780 -1.4916  2.2840
   57SAPC  C217 4223   3.930   1.319   4.842 -0.0340  0.2382  0.2124
   57SAPC  H17R 4224   3.989   1.236   4.799  0.5248 -0.4515  2.2126
   57SAPC  H17S 4225   3.968   1.420   4.818 -3.8303  2.0964  1.2157
   57SAPC  C218 4226   3.789   1.327   4.780 -0.6034  0.1362  0.4772
   57SAPC  H18R 4227   3.760   1.433   4.797 -0.1900  0.6500 -1.7606
   57SAPC  H18S 4228   3.718   1.260   4.833 -0.7297  0.4645  0.7283
   57SAPC  C219 4229   3.794   1.302   4.629  0.3582 -0.4104 -0.5501
   57SAPC  H19R 4230   3.814   1.194   4.612  1.7436 -0.1711 -0.5522
   57SAPC  H19S 4231   3.881   1.358   4.587  0.4484 -1.8651 -2.4582
   57SAPC  C220 4232   3.672   1.361   4.562 -0.3393 -0.0585 -0.1415
   57SAPC  H20R 4233   3.666   1.466   4.597  2.1969  0.2426 -0.4449
   57SAPC  H20S 4234   3.579   1.309   4.595  0.2003 -0.6371  0.4972
   57SAPC  H20T 4235   3.675   1.355   4.451 -0.0640  0.8957 -0.1850
   57SAPC   C33 4236   4.615   1.960   6.033  0.0004  0.3425 -0.3272
   57SAPC   H3X 4237   4.624   1.860   5.985 -0.7308 -0.9060  1.9946
   57SAPC   H3Y 4238   4.697   1.962   6.107 -0.0323 -1.5056 -0.1924
   57SAPC   C34 4239   4.623   2.071   5.927  0.5865  0.2378  0.2182
   57SAPC   H4X 4240   4.635   2.172   5.973 -1.2545  0.3018  0.6087
   57SAPC   H4Y 4241   4.521   2.084   5.887  0.6429  1.9676  0.5407
   57SAPC   C35 4242   4.719   2.042   5.816  0.1475  0.0375  0.2426
   57SAPC   H5X 4243   4.680   1.945   5.777  0.9686 -0.3349  0.3104
   57SAPC   H5Y 4244   4.819   2.012   5.855  0.9069 -1.2173 -2.3982
   57SAPC   C36 4245   4.732   2.156   5.709 -0.2072  0.5065 -0.0627
   57SAPC   H6X 4246   4.826   2.130   5.655 -0.3180 -0.0519  0.0146
   57SAPC   H6Y 4247   4.750   2.258   5.749  0.8581  0.3770 -0.1897
   57SAPC   C37 4248   4.616   2.162   5.600  0.1323 -0.1092  0.2263
   57SAPC   H7X 4249   4.645   2.237   5.523 -0.8644  1.9881  1.7818
   57SAPC   H7Y 4250   4.521   2.185   5.652 -0.5685  0.5974 -1.3010
   57SAPC   C38 4251   4.594   2.029   5.526  0.0695  0.5099 -0.0843
   57SAPC   H8X 4252   4.543   1.954   5.589 -1.2523  2.5053  1.3642
   57SAPC   H8Y 4253   4.695   1.988   5.505 -0.0671 -1.1613  2.1556
   57SAPC   C39 4254   4.510   2.050   5.398  0.9093 -0.2674  0.1715
   57SAPC   H9X 4255   4.467   2.152   5.389  1.0654 -0.1938  0.2484
   57SAPC   H9Y 4256   4.418   1.989   5.404  0.1635  0.8069  0.0250
   57SAPC  C310 4257   4.581   2.023   5.263 -0.0304  0.0231 -0.2446
   57SAPC  H10X 4258   4.627   1.922   5.262  0.6768  0.2669 -3.6609
   57SAPC  H10Y 4259   4.674   2.084   5.255  0.6822 -0.6877  1.8671
   57SAPC  C311 4260   4.493   2.044   5.140  0.1230  0.5699 -0.4882
   57SAPC  H11X 4261   4.566   2.079   5.064  0.9739 -1.1353 -0.5058
   57SAPC  H11Y 4262   4.412   2.118   5.158 -1.4263 -1.8046  3.7477
   57SAPC  C312 4263   4.421   1.910   5.093 -0.4319 -0.1838  0.8965
   57SAPC  H12X 4264   4.367   1.872   5.183  0.8699  0.8371  2.1720
   57SAPC  H12Y 4265   4.497   1.838   5.054 -2.2348 -1.4671 -0.3826
   57SAPC  C313 4266   4.314   1.930   4.980  0.6693  0.2254 -0.4917
   57SAPC  H13X 4267   4.250   2.016   5.008 -0.1066 -1.0486  1.9429
   57SAPC  H13Y 4268   4.252   1.838   4.971 -0.7640  1.1972 -0.8487
   57SAPC  C314 4269   4.387   1.975   4.855 -0.0109  0.1351 -0.0742
   57SAPC  H14X 4270   4.435   1.888   4.805  0.0291  0.2434 -0.2245
   57SAPC  H14Y 4271   4.472   2.045   4.869 -0.6086  0.8481  0.0322
   57SAPC  C315 4272   4.281   2.026   4.758 -0.2835 -0.2985  0.4186
   57SAPC  H15X 4273   4.254   2.128   4.793  2.3333  1.1912 -1.5589
   57SAPC  H15Y 4274   4.186   1.968   4.759  0.9198 -2.3860 -0.5672
   57SAPC  C316 4275   4.329   2.041   4.611 -0.5673  0.6802  0.2185
   57SAPC  H16X 4276   4.238   2.066   4.552 -0.4967  0.5241  0.0455
   57SAPC  H16Y 4277   4.366   1.940   4.581 -0.9701  0.9597 -1.2989
   57SAPC  C317 4278   4.446   2.144   4.593 -0.1044 -0.2897 -0.4809
   57SAPC  H17X 4279   4.539   2.112   4.644 -0.5520 -0.0092  0.5434
   57SAPC  H17Y 4280   4.400   2.236   4.633 -2.6841 -1.7446  0.1268
   57SAPC  C318 4281   4.476   2.188   4.446  0.5391  1.1121  0.5103
   57SAPC  H18X 4282   4.382   2.215   4.393  0.4667  0.5022  0.3218
   57SAPC  H18Y 4283   4.521   2.106   4.386  0.9907  2.6414 -1.3611
   57SAPC  H18Z 4284   4.547   2.274   4.452  2.6884 -0.2996 -2.3626
   58SAPC     N 4285   2.459   1.724   6.824 -0.1498 -0.7663 -0.9059
   58SAPC   C12 4286   2.314   1.704   6.854 -0.3830  0.0144  0.4546
   58SAPC  H12A 4287   2.295   1.599   6.869  0.5702 -0.2616 -0.1853
   58SAPC  H12B 4288   2.252   1.736   6.772 -2.1329  0.4174  1.8635
   58SAPC   C13 4289   2.527   1.634   6.926  0.6609 -0.6411  0.9862
   58SAPC  H13A 4290   2.631   1.617   6.903  0.7526 -0.8764  1.5698
   58SAPC  H13B 4291   2.527   1.667   7.028  4.7051 -0.0302  0.9341
   58SAPC  H13C 4292   2.481   1.537   6.925  0.0278 -0.3501  0.1218
   58SAPC   C14 4293   2.497   1.676   6.695 -0.0993  0.0456  0.2449
   58SAPC  H14A 4294   2.598   1.704   6.671  0.0247 -1.8353 -1.8460
   58SAPC  H14B 4295   2.484   1.568   6.691 -2.2955  0.2857 -0.5131
   58SAPC  H14C 4296   2.442   1.711   6.608  1.7132 -1.5247 -1.6542
   58SAPC   C15 4297   2.508   1.856   6.844 -0.1815 -0.6304 -0.3453
   58SAPC  H15A 4298   2.615   1.854   6.825  0.1767 -0.5620  1.4619
   58SAPC  H15B 4299   2.464   1.921   6.771 -0.0412  0.1282  0.2329
   58SAPC  H15C 4300   2.491   1.900   6.942 -1.8100  1.1348 -1.3565
   58SAPC   C11 4301   2.265   1.770   6.991 -0.1039  0.3893 -0.5897
   58SAPC  H11A 4302   2.342   1.750   7.068 -0.5846 -0.8102 -0.3964
   58SAPC  H11B 4303   2.179   1.708   7.024  0.6066  0.0251  0.6401
   58SAPC     P 4304   2.092   1.946   6.922  0.0762 -0.0047  0.1568
   58SAPC   O13 4305   1.993   1.874   7.010 -0.5592  0.2787  0.3132
   58SAPC   O14 4306   2.079   2.093   6.899 -0.1612 -0.2475 -0.0882
   58SAPC   O12 4307   2.232   1.912   6.975  0.1810 -0.5397 -0.3358
   58SAPC   O11 4308   2.091   1.867   6.777  0.2707 -0.0716 -0.3877
   58SAPC    C1 4309   2.148   1.920   6.661  0.1686 -0.4124  0.1541
   58SAPC    HA 4310   2.095   2.013   6.631  0.7886 -0.1930 -0.2789
   58SAPC    HB 4311   2.255   1.944   6.675  0.3610 -0.5882 -0.9805
   58SAPC    C2 4312   2.155   1.827   6.539 -0.1471  0.3294  0.3835
   58SAPC    HS 4313   2.230   1.749   6.563  0.4746  1.3080  1.8248
   58SAPC   O21 4314   2.189   1.911   6.421  0.5900  0.1432 -0.4228
   58SAPC   C21 4315   2.315   1.924   6.408 -0.1540  0.0365  0.4606
   58SAPC   O22 4316   2.406   1.870   6.470 -0.5876  0.6093 -0.1624
   58SAPC   C22 4317   2.330   2.002   6.273 -0.1157  0.6068  0.1619
   58SAPC   H2R 4318   2.253   1.976   6.198  1.3796 -0.5809 -1.0290
   58SAPC   H2S 4319   2.331   2.112   6.290 -2.6263  0.7950 -0.5560
   58SAPC    C3 4320   2.020   1.753   6.514  0.1787 -0.2100 -0.1023
   58SAPC    HX 4321   1.950   1.829   6.473  1.3972  1.3573  0.6353
   58SAPC    HY 4322   1.977   1.722   6.612 -1.3746  1.7792 -0.0845
   58SAPC   O31 4323   2.034   1.641   6.432  0.0099 -0.3940  0.7068
   58SAPC   C31 4324   2.021   1.669   6.301 -0.0909  0.1203  0.1524
   58SAPC   O32 4325   1.981   1.776   6.256 -0.7598  0.5510  0.1039
   58SAPC   C32 4326   2.041   1.541   6.210  0.9899 -0.3400 -0.4930
   58SAPC   H2X 4327   1.939   1.514   6.178 -0.2003  4.0609 -1.1270
   58SAPC   H2Y 4328   2.088   1.461   6.271  2.2320 -1.1613 -2.4247
   58SAPC   C23 4329   2.461   1.947   6.203 -0.1089 -0.1756  0.0017
   58SAPC   H3R 4330   2.542   1.937   6.278 -0.8935 -1.9197  0.6741
   58SAPC   H3S 4331   2.496   2.028   6.135  0.1953  0.7101  1.1886
   58SAPC   C24 4332   2.430   1.815   6.127  0.4333 -0.6580 -0.0031
   58SAPC   H4R 4333   2.346   1.819   6.055  1.5639 -1.3707 -1.4141
   58SAPC   H4S 4334   2.411   1.730   6.197  2.1267 -0.4024  0.8360
   58SAPC   C25 4335   2.545   1.772   6.037 -0.1587 -0.0620 -0.6704
   58SAPC   H5R 4336   2.607   1.691   6.078 -0.7421  0.6846  1.9175
   58SAPC   C26 4337   2.577   1.816   5.914  0.0752  0.8534  0.4380
   58SAPC   H6R 4338   2.671   1.781   5.867  1.2665  2.6412  1.3778
   58SAPC   C27 4339   2.503   1.922   5.841  0.3188 -0.3810 -0.4579
   58SAPC   H7R 4340   2.581   1.990   5.801  0.9869 -0.5165  0.5849
   58SAPC   H7S 4341   2.450   1.987   5.913 -0.6754 -0.2119 -1.3119
   58SAPC   C28 4342   2.402   1.878   5.735  0.1943 -0.1359  0.1225
   58SAPC   H8R 4343   2.300   1.857   5.773 -0.5793 -2.0159 -2.6978
   58SAPC   C29 4344   2.422   1.869   5.596  0.1011  0.2100 -0.4470
   58SAPC   H9R 4345   2.334   1.855   5.531  1.3146 -0.3661 -2.0323
   58SAPC  C210 4346   2.552   1.893   5.528  0.7697  0.3508  0.4916
   58SAPC  H10R 4347   2.575   1.802   5.467  2.9657  1.4437 -0.4202
   58SAPC  H10S 4348   2.626   1.905   5.609 -1.1148  0.4118  2.2858
   58SAPC  C211 4349   2.538   2.014   5.435 -0.6882 -0.5033  0.2013
   58SAPC  H11R 4350   2.528   2.109   5.489 -1.6637 -1.6477  2.1365
   58SAPC  C212 4351   2.494   2.011   5.308 -0.4088 -0.1807  0.4002
   58SAPC  H12R 4352   2.505   2.105   5.251 -3.4253 -0.0303 -0.1163
   58SAPC  C213 4353   2.473   1.890   5.219 -0.0018 -0.1482  0.7319
   58SAPC  H13R 4354   2.388   1.910   5.150  1.0713  2.7721  0.1017
   58SAPC  H13S 4355   2.443   1.809   5.289  0.2699 -0.8121  0.0983
   58SAPC  C214 4356   2.600   1.855   5.147  0.7096 -0.3071 -0.7999
   58SAPC  H14R 4357   2.688   1.828   5.206  0.6875 -1.1545 -1.1309
   58SAPC  C215 4358   2.611   1.863   5.014 -0.4484 -0.1923 -0.1015
   58SAPC  H15R 4359   2.710   1.849   4.970 -1.2191  2.9103 -3.3068
   58SAPC  C216 4360   2.512   1.912   4.910  0.5809 -0.7415  0.0568
   58SAPC  H16R 4361   2.430   1.968   4.960  0.7818  1.3565 -1.7906
   58SAPC  H16S 4362   2.465   1.824   4.861 -1.4956 -1.2660  2.7747
   58SAPC  C217 4363   2.582   1.992   4.797  0.4515 -0.3516 -0.2863
   58SAPC  H17R 4364   2.688   1.959   4.785  0.0093 -1.1971 -2.1194
   58SAPC  H17S 4365   2.597   2.094   4.840  1.1064 -0.0949 -1.0936
   58SAPC  C218 4366   2.506   1.993   4.668  0.0029 -0.3046 -0.2309
   58SAPC  H18R 4367   2.398   2.013   4.685  0.6096  2.6141  0.8529
   58SAPC  H18S 4368   2.511   1.896   4.615 -1.7027  0.1150 -1.2449
   58SAPC  C219 4369   2.556   2.105   4.575 -0.0031  0.3285  0.8818
   58SAPC  H19R 4370   2.656   2.072   4.541 -0.9808 -0.9970 -0.8898
   58SAPC  H19S 4371   2.563   2.201   4.632  0.8793  1.1790 -0.5889
   58SAPC  C220 4372   2.465   2.113   4.446 -0.0112 -0.5311 -0.7187
   58SAPC  H20R 4373   2.445   2.013   4.402  0.9908 -0.8845 -0.4016
   58SAPC  H20S 4374   2.505   2.196   4.385  0.4240  1.6600  2.3071
   58SAPC  H20T 4375   2.364   2.147   4.479 -0.1389  0.3506 -1.9528
   58SAPC   C33 4376   2.129   1.563   6.084 -0.1551  0.5002 -0.9097
   58SAPC   H3X 4377   2.227   1.604   6.115 -0.2664  0.5488 -0.6172
   58SAPC   H3Y 4378   2.082   1.643   6.022 -0.2301  0.7734 -0.5009
   58SAPC   C34 4379   2.158   1.432   5.996  0.6103 -1.0130 -0.0102
   58SAPC   H4X 4380   2.062   1.377   5.990  0.5152 -0.8922  0.3390
   58SAPC   H4Y 4381   2.227   1.362   6.048  2.6772 -0.4050 -1.7711
   58SAPC   C35 4382   2.203   1.460   5.849 -0.5548 -0.7291  0.9510
   58SAPC   H5X 4383   2.170   1.371   5.791 -0.7150 -0.1043  0.0514
   58SAPC   H5Y 4384   2.313   1.470   5.842 -0.7420  0.6460 -0.6473
   58SAPC   C36 4385   2.142   1.578   5.768 -0.3715 -0.1558 -0.0750
   58SAPC   H6X 4386   2.152   1.684   5.800 -1.1237  1.4140 -4.2958
   58SAPC   H6Y 4387   2.035   1.550   5.759 -0.2905 -0.8500  0.9923
   58SAPC   C37 4388   2.208   1.570   5.628  0.0742 -0.0423  0.0602
   58SAPC   H7X 4389   2.196   1.466   5.590  2.5997  0.2835 -1.9463
   58SAPC   H7Y 4390   2.316   1.593   5.633  0.1415 -0.3578  0.0477
   58SAPC   C38 4391   2.127   1.662   5.549  0.7203 -0.1577 -0.0895
   58SAPC   H8X 4392   2.141   1.763   5.593 -1.7127  0.0557  0.3438
   58SAPC   H8Y 4393   2.018   1.642   5.558  0.8089 -0.5593  0.1235
   58SAPC   C39 4394   2.168   1.654   5.397 -0.1469 -0.1253  1.1859
   58SAPC   H9X 4395   2.278   1.636   5.394 -0.2047 -0.3736 -0.2155
   58SAPC   H9Y 4396   2.160   1.754   5.348  0.1870 -1.7490 -2.5944
   58SAPC  C310 4397   2.091   1.545   5.320 -0.7558 -0.4580 -0.3174
   58SAPC  H10X 4398   1.980   1.550   5.328 -0.6254  0.6395  1.2112
   58SAPC  H10Y 4399   2.119   1.446   5.364 -3.3972  0.3773  3.7838
   58SAPC  C311 4400   2.129   1.529   5.175 -0.4845  0.6894  0.0864
   58SAPC  H11X 4401   2.065   1.448   5.134 -1.6161  1.2794  0.6380
   58SAPC  H11Y 4402   2.236   1.501   5.183 -0.6277  0.5599  1.8722
   58SAPC  C312 4403   2.110   1.659   5.093 -1.0540 -0.2931 -0.1822
   58SAPC  H12X 4404   2.205   1.713   5.112  0.2668 -1.5283 -2.8009
   58SAPC  H12Y 4405   2.026   1.712   5.145 -0.8288  1.6420 -1.6575
   58SAPC  C313 4406   2.101   1.643   4.941  0.2472  0.8571  0.2057
   58SAPC  H13X 4407   2.006   1.587   4.928  0.1839  1.3594 -1.7154
   58SAPC  H13Y 4408   2.179   1.579   4.895 -1.6727 -0.0856 -1.9378
   58SAPC  C314 4409   2.115   1.773   4.863 -0.6483 -0.7540  0.1616
   58SAPC  H14X 4410   2.225   1.786   4.852 -0.5869 -1.7455 -0.6680
   58SAPC  H14Y 4411   2.065   1.862   4.905 -0.3851 -0.4532 -0.1565
   58SAPC  C315 4412   2.062   1.769   4.719 -0.2509 -0.0129  0.8173
   58SAPC  H15X 4413   1.953   1.787   4.725 -0.5729 -2.1349  2.2241
   58SAPC  H15Y 4414   2.073   1.668   4.674  3.2008  0.0585  1.2399
   58SAPC  C316 4415   2.137   1.872   4.633  0.2904 -0.0269 -0.1885
   58SAPC  H16X 4416   2.246   1.851   4.623 -0.1467 -2.4328 -0.3359
   58SAPC  H16Y 4417   2.135   1.967   4.692  0.4804  0.4201 -0.8830
   58SAPC  C317 4418   2.073   1.907   4.500  0.0269  0.3564 -0.2983
   58SAPC  H17X 4419   2.100   2.009   4.467  1.1205 -0.6301 -2.6821
   58SAPC  H17Y 4420   1.962   1.916   4.510  0.1701 -0.0957  2.2914
   58SAPC  C318 4421   2.112   1.806   4.388 -0.5597 -0.0659  0.0061
   58SAPC  H18X 4422   2.221   1.805   4.365 -0.5022  0.5960  0.2249
   58SAPC  H18Y 4423   2.065   1.849   4.297  0.4537  0.7892 -0.1409
   58SAPC  H18Z 4424   2.086   1.699   4.407  0.9814  0.0640  3.6860
   59SAPC     N 4425   1.220   5.146   6.717 -0.1459  0.5752  0.3825
   59SAPC   C12 4426   1.362   5.194   6.670  0.0168 -0.4793  0.6011
   59SAPC  H12A 4427   1.345   5.260   6.586 -2.8189 -3.2758 -1.2384
   59SAPC  H12B 4428   1.413   5.106   6.634 -0.0747 -0.7004  1.0069
   59SAPC   C13 4429   1.149   5.253   6.795 -0.2978  0.4842 -0.2317
   59SAPC  H13A 4430   1.050   5.218   6.821 -0.0283 -0.7008 -0.7197
   59SAPC  H13B 4431   1.202   5.276   6.886  0.2406  1.7914 -0.8548
   59SAPC  H13C 4432   1.141   5.339   6.730  0.9400  1.3467  0.7170
   59SAPC   C14 4433   1.136   5.093   6.605 -0.4989 -0.0259  0.2649
   59SAPC  H14A 4434   1.111   5.171   6.534 -0.8264 -0.6176 -0.2707
   59SAPC  H14B 4435   1.187   5.018   6.546 -2.6706 -1.9375  0.6858
   59SAPC  H14C 4436   1.053   5.042   6.650 -2.3417  2.2788 -0.2925
   59SAPC   C15 4437   1.236   5.042   6.821  0.4115  0.0223 -0.4409
   59SAPC  H15A 4438   1.281   5.083   6.910 -1.2222  1.6402 -0.3038
   59SAPC  H15B 4439   1.135   5.028   6.856 -0.3259  4.0032 -0.5025
   59SAPC  H15C 4440   1.288   4.951   6.795  1.3914  0.5581 -0.3750
   59SAPC   C11 4441   1.454   5.265   6.771 -1.1041  0.7095  0.5763
   59SAPC  H11A 4442   1.550   5.278   6.717 -0.8798 -0.5439  0.6589
   59SAPC  H11B 4443   1.481   5.196   6.854 -0.4874  1.0244  0.6457
   59SAPC     P 4444   1.386   5.508   6.729 -0.2364 -0.3443 -0.1567
   59SAPC   O13 4445   1.321   5.615   6.807  0.6251 -0.2332  0.1319
   59SAPC   O14 4446   1.513   5.550   6.670 -0.2152  0.2086 -0.4522
   59SAPC   O12 4447   1.403   5.384   6.830  0.7161  0.6534  0.8944
   59SAPC   O11 4448   1.296   5.451   6.611 -0.0117  0.7418 -0.3015
   59SAPC    C1 4449   1.202   5.533   6.539 -0.0192  0.0237  0.7253
   59SAPC    HA 4450   1.098   5.514   6.573 -1.4893 -0.7945 -3.5673
   59SAPC    HB 4451   1.216   5.643   6.542 -0.8469  0.3218 -2.5125
   59SAPC    C2 4452   1.192   5.515   6.380  0.0097  0.2570 -0.3206
   59SAPC    HS 4453   1.150   5.609   6.338 -2.4851  0.4265  2.2191
   59SAPC   O21 4454   1.111   5.392   6.360  0.0244 -0.0866  0.2564
   59SAPC   C21 4455   0.984   5.430   6.345 -0.5084  0.2980 -0.1079
   59SAPC   O22 4456   0.934   5.537   6.376 -0.1257  0.2975  0.0287
   59SAPC   C22 4457   0.916   5.307   6.285 -0.0785 -0.3484 -0.5250
   59SAPC   H2R 4458   0.988   5.231   6.247  0.1921 -0.6468  0.5611
   59SAPC   H2S 4459   0.882   5.254   6.377  0.2522 -0.4663 -0.4690
   59SAPC    C3 4460   1.339   5.488   6.318 -0.2819  1.4064  0.1141
   59SAPC    HX 4461   1.375   5.402   6.379  1.7385  2.9509  1.2175
   59SAPC    HY 4462   1.412   5.563   6.355  0.8784  0.5163 -0.3384
   59SAPC   O31 4463   1.348   5.470   6.177  0.4484  0.0551  0.4460
   59SAPC   C31 4464   1.367   5.578   6.108  0.2594  0.5564  0.1017
   59SAPC   O32 4465   1.354   5.689   6.157  0.4057 -0.0013  0.1582
   59SAPC   C32 4466   1.387   5.547   5.963 -0.8519 -0.3093  0.2457
   59SAPC   H2X 4467   1.294   5.509   5.915 -2.3417  1.9754  1.1122
   59SAPC   H2Y 4468   1.458   5.462   5.959 -2.2338 -1.4905 -0.3430
   59SAPC   C23 4469   0.803   5.338   6.182  0.4050 -0.6186  0.0316
   59SAPC   H3R 4470   0.841   5.401   6.099 -1.0013 -0.7906 -0.7709
   59SAPC   H3S 4471   0.728   5.403   6.232  0.1274 -0.2592 -0.8439
   59SAPC   C24 4472   0.742   5.217   6.111 -0.4364  0.4240  0.2140
   59SAPC   H4R 4473   0.644   5.252   6.071  0.7982  1.8153 -1.7579
   59SAPC   H4S 4474   0.724   5.145   6.194 -1.4022 -1.0416 -1.2045
   59SAPC   C25 4475   0.828   5.138   6.014 -0.1194  0.0764 -0.1202
   59SAPC   H5R 4476   0.889   5.055   6.053  0.8098  0.0631 -1.5160
   59SAPC   C26 4477   0.836   5.158   5.885  0.0183  0.7537  0.1113
   59SAPC   H6R 4478   0.905   5.100   5.823 -0.5466 -1.1622  1.1855
   59SAPC   C27 4479   0.754   5.260   5.815  0.2744 -0.0606  0.0656
   59SAPC   H7R 4480   0.674   5.298   5.881 -0.5790 -1.7159  0.0297
   59SAPC   H7S 4481   0.700   5.201   5.738 -0.8792 -1.2898  1.7402
   59SAPC   C28 4482   0.842   5.366   5.763  0.7409 -0.0597  0.1235
   59SAPC   H8R 4483   0.885   5.438   5.834 -2.5579  0.7935  1.4392
   59SAPC   C29 4484   0.868   5.376   5.633 -0.3021 -0.9314  0.0095
   59SAPC   H9R 4485   0.937   5.454   5.598 -3.3305  1.6431 -0.6917
   59SAPC  C210 4486   0.819   5.288   5.522  0.1439 -0.2094  0.1840
   59SAPC  H10R 4487   0.824   5.181   5.553 -1.0900 -0.1815  0.5430
   59SAPC  H10S 4488   0.895   5.307   5.444 -0.0629  0.6704  0.1872
   59SAPC  C211 4489   0.684   5.340   5.474  0.3876  0.2973 -0.0248
   59SAPC  H11R 4490   0.600   5.295   5.529 -2.0611  2.2232 -1.9410
   59SAPC  C212 4491   0.646   5.421   5.373  0.0851 -0.2372  0.5584
   59SAPC  H12R 4492   0.540   5.451   5.369 -0.1294 -1.1364 -1.6813
   59SAPC  C213 4493   0.730   5.499   5.281  0.5526  0.0681 -0.2366
   59SAPC  H13R 4494   0.827   5.519   5.331  0.3121  1.1355 -0.1739
   59SAPC  H13S 4495   0.685   5.599   5.261  1.7762  0.9821  1.3809
   59SAPC  C214 4496   0.741   5.431   5.152 -0.6405 -0.2768 -0.0939
   59SAPC  H14R 4497   0.832   5.369   5.140  0.0560  0.6159  0.4457
   59SAPC  C215 4498   0.653   5.444   5.048  0.1876 -0.7105 -0.0068
   59SAPC  H15R 4499   0.684   5.409   4.948 -1.6021 -0.9001 -0.5257
   59SAPC  C216 4500   0.524   5.519   5.040  0.7848  0.2808  0.2291
   59SAPC  H16R 4501   0.521   5.580   5.133  0.6228 -0.2440  0.5758
   59SAPC  H16S 4502   0.444   5.442   5.043  1.1015 -0.1153 -0.9455
   59SAPC  C217 4503   0.522   5.607   4.916  0.2651 -0.4415 -0.2735
   59SAPC  H17R 4504   0.612   5.672   4.911 -0.3414  0.2729 -2.9450
   59SAPC  H17S 4505   0.427   5.664   4.921 -0.9186 -2.2860 -0.4203
   59SAPC  C218 4506   0.514   5.528   4.782 -0.1737 -0.6633  0.0696
   59SAPC  H18R 4507   0.416   5.478   4.771 -0.2835  0.0380 -2.9782
   59SAPC  H18S 4508   0.607   5.468   4.770 -0.5586 -0.7552 -3.7037
   59SAPC  C219 4509   0.508   5.620   4.658 -0.1181 -0.2272  0.7432
   59SAPC  H19R 4510   0.607   5.671   4.665  1.6481 -3.3879  0.3173
   59SAPC  H19S 4511   0.421   5.689   4.666  0.4989  0.8653 -1.2640
   59SAPC  C220 4512   0.492   5.563   4.519  0.0616 -0.0864  0.0837
   59SAPC  H20R 4513   0.533   5.639   4.450 -1.8370  1.2128  0.3193
   59SAPC  H20S 4514   0.384   5.545   4.502  0.2256  0.1070 -1.2676
   59SAPC  H20T 4515   0.538   5.463   4.500  0.2862  0.0206  0.0569
   59SAPC   C33 4516   1.448   5.675   5.888 -0.0550  0.7423 -0.4608
   59SAPC   H3X 4517   1.544   5.714   5.928  1.3478 -0.4650 -2.4408
   59SAPC   H3Y 4518   1.373   5.756   5.888  0.6670  1.4175 -0.2524
   59SAPC   C34 4519   1.490   5.642   5.740 -0.0737 -0.2850  0.5058
   59SAPC   H4X 4520   1.404   5.597   5.686  1.4754 -0.8936 -1.5619
   59SAPC   H4Y 4521   1.568   5.565   5.754 -1.0522 -1.4325 -0.1738
   59SAPC   C35 4522   1.548   5.758   5.663 -0.8004  0.0903  1.1555
   59SAPC   H5X 4523   1.654   5.754   5.695 -1.0564 -0.5471  1.9835
   59SAPC   H5Y 4524   1.500   5.853   5.695 -1.2830  0.6294 -1.0020
   59SAPC   C36 4525   1.539   5.723   5.516  0.0788 -0.0184  0.1782
   59SAPC   H6X 4526   1.431   5.715   5.491  0.0326  1.2068 -0.0562
   59SAPC   H6Y 4527   1.589   5.624   5.506  0.4782  0.1063  0.9045
   59SAPC   C37 4528   1.600   5.833   5.421  0.0459  0.3006 -0.5242
   59SAPC   H7X 4529   1.709   5.841   5.441  0.0107  1.5574 -0.7531
   59SAPC   H7Y 4530   1.555   5.932   5.445 -2.0532 -0.9793  1.2049
   59SAPC   C38 4531   1.582   5.793   5.281 -0.4308  0.9915  0.0691
   59SAPC   H8X 4532   1.473   5.796   5.260 -0.2057 -0.1304 -1.4620
   59SAPC   H8Y 4533   1.618   5.688   5.289  0.2160  1.2821  1.2143
   59SAPC   C39 4534   1.657   5.870   5.177  0.1279 -0.3872  0.5301
   59SAPC   H9X 4535   1.681   5.809   5.086 -1.5429  0.0152 -0.2115
   59SAPC   H9Y 4536   1.747   5.915   5.224  0.9535 -1.9079  0.4631
   59SAPC  C310 4537   1.573   5.980   5.120  0.0059  0.7171 -0.3565
   59SAPC  H10X 4538   1.545   6.053   5.198 -1.7480  1.3203 -1.4978
   59SAPC  H10Y 4539   1.485   5.926   5.078  0.5093 -1.6417  1.4303
   59SAPC  C311 4540   1.645   6.065   5.018  0.0068 -0.6423  0.1894
   59SAPC  H11X 4541   1.731   6.103   5.078  1.0108 -0.7009 -1.1509
   59SAPC  H11Y 4542   1.573   6.147   4.998  1.1401  0.4606  0.4535
   59SAPC  C312 4543   1.689   5.994   4.898 -0.2752 -0.9738 -0.4995
   59SAPC  H12X 4544   1.603   5.951   4.842 -0.2372 -1.8312  0.0810
   59SAPC  H12Y 4545   1.762   5.916   4.928 -1.2338 -1.5426  0.4156
   59SAPC  C313 4546   1.770   6.087   4.796  0.3465 -0.4920 -0.1582
   59SAPC  H13X 4547   1.820   6.018   4.724  1.3396 -0.9764  0.9555
   59SAPC  H13Y 4548   1.848   6.136   4.859 -0.4808 -0.7809  1.1372
   59SAPC  C314 4549   1.685   6.189   4.711  0.1210  0.3339 -0.4983
   59SAPC  H14X 4550   1.620   6.241   4.784  3.0684 -1.3470  3.6742
   59SAPC  H14Y 4551   1.622   6.132   4.639 -1.8311  0.8994  0.6924
   59SAPC  C315 4552   1.772   6.278   4.624  0.9040 -0.8711 -0.0844
   59SAPC  H15X 4553   1.854   6.217   4.579  0.4929  0.7546 -3.3347
   59SAPC  H15Y 4554   1.813   6.352   4.696 -2.6606  0.5688  0.6646
   59SAPC  C316 4555   1.691   6.357   4.523  0.1883  0.0393 -0.2921
   59SAPC  H16X 4556   1.623   6.304   4.453 -0.8651  1.0198 -0.0440
   59SAPC  H16Y 4557   1.757   6.421   4.461 -1.0234  2.0337  0.3691
   59SAPC  C317 4558   1.614   6.470   4.590  0.6782  0.5192 -0.6915
   59SAPC  H17X 4559   1.683   6.519   4.663  0.2572 -0.0843  0.1237
   59SAPC  H17Y 4560   1.535   6.431   4.657  3.2365 -2.1320  1.0506
   59SAPC  C318 4561   1.545   6.574   4.492 -0.8079 -0.6508 -0.1279
   59SAPC  H18X 4562   1.626   6.622   4.433  0.4758 -1.5581  0.8243
   59SAPC  H18Y 4563   1.504   6.652   4.560  1.0188  0.9560 -0.7843
   59SAPC  H18Z 4564   1.475   6.524   4.422 -1.8809 -2.0145  1.8227
   60SAPC     N 4565   0.913   6.367   7.072 -0.3734 -0.1197 -0.0907
   60SAPC   C12 4566   0.954   6.250   6.989 -0.2508  0.4991 -0.2515
   60SAPC  H12A 4567   0.906   6.165   7.036  0.2633 -0.6128 -1.6669
   60SAPC  H12B 4568   1.060   6.235   6.997 -0.3223  0.7670  2.0030
   60SAPC   C13 4569   0.984   6.361   7.203 -0.4061  0.2409 -0.2039
   60SAPC  H13A 4570   0.993   6.259   7.238  0.8227  0.2999 -0.2828
   60SAPC  H13B 4571   1.086   6.383   7.174  0.0424 -0.6379  0.6201
   60SAPC  H13C 4572   0.935   6.429   7.271 -0.0295  1.5631 -1.2253
   60SAPC   C14 4573   0.960   6.502   7.003  0.4508  0.7817  0.4540
   60SAPC  H14A 4574   0.947   6.596   7.055 -0.5474  2.6971 -2.9616
   60SAPC  H14B 4575   1.060   6.494   6.962 -0.7969 -3.9341 -2.3961
   60SAPC  H14C 4576   0.898   6.514   6.916 -0.8012 -1.1781  0.9906
   60SAPC   C15 4577   0.767   6.381   7.101  0.0460 -0.1387 -0.4484
   60SAPC  H15A 4578   0.738   6.297   7.163 -1.8732  0.9249  0.1911
   60SAPC  H15B 4579   0.756   6.468   7.165  3.2241 -0.8845  1.3091
   60SAPC  H15C 4580   0.716   6.378   7.006  1.0413  1.3140 -1.0603
   60SAPC   C11 4581   0.932   6.255   6.838 -0.0360 -0.1882 -0.0525
   60SAPC  H11A 4582   0.952   6.160   6.784  1.9391  0.2507 -0.1618
   60SAPC  H11B 4583   1.009   6.328   6.805 -0.3598 -0.0999 -0.6352
   60SAPC     P 4584   0.785   6.384   6.674 -0.2845 -0.4435  0.4420
   60SAPC   O13 4585   0.647   6.379   6.620  1.0917  0.0441 -0.2014
   60SAPC   O14 4586   0.846   6.515   6.702  0.2025 -0.2851  0.0063
   60SAPC   O12 4587   0.798   6.297   6.803  0.4838 -0.0704  0.3202
   60SAPC   O11 4588   0.879   6.302   6.577  0.3181  0.0060  0.1940
   60SAPC    C1 4589   0.851   6.186   6.499 -0.0740  0.1990 -0.1631
   60SAPC    HA 4590   0.938   6.117   6.499  0.2077  0.5483 -0.3879
   60SAPC    HB 4591   0.778   6.124   6.556  2.0800 -0.2162  2.3304
   60SAPC    C2 4592   0.818   6.203   6.349 -0.1158  0.9445  0.3309
   60SAPC    HS 4593   0.762   6.114   6.313  0.4076  0.5969  0.3642
   60SAPC   O21 4594   0.945   6.216   6.271  0.9335 -0.8684 -0.4088
   60SAPC   C21 4595   1.016   6.119   6.254 -0.8286  0.1935  0.2922
   60SAPC   O22 4596   0.993   6.010   6.303 -0.2292 -0.1986 -0.1327
   60SAPC   C22 4597   1.139   6.158   6.178  0.4537  1.2011  0.0430
   60SAPC   H2R 4598   1.177   6.260   6.199  1.1898  1.0168 -0.3587
   60SAPC   H2S 4599   1.213   6.094   6.231  0.4127 -0.3380 -1.6651
   60SAPC    C3 4600   0.717   6.321   6.327 -0.6108 -0.0055 -0.1291
   60SAPC    HX 4601   0.770   6.404   6.378 -1.0538 -0.2244  0.6998
   60SAPC    HY 4602   0.619   6.299   6.375 -0.6409  3.0378  1.3871
   60SAPC   O31 4603   0.690   6.354   6.187  0.0949 -0.1455  0.4587
   60SAPC   C31 4604   0.585   6.299   6.123 -0.0904 -0.1042  0.7630
   60SAPC   O32 4605   0.505   6.219   6.178 -0.3064  0.0350 -0.1666
   60SAPC   C32 4606   0.576   6.345   5.979  1.1849 -0.5386 -1.0115
   60SAPC   H2X 4607   0.666   6.301   5.930  0.1082 -1.3472 -2.3457
   60SAPC   H2Y 4608   0.575   6.455   5.970  0.1690 -0.2613  1.6662
   60SAPC   C23 4609   1.132   6.122   6.029  0.2889  0.3289 -0.8047
   60SAPC   H3R 4610   1.086   6.206   5.974  2.2286  1.4908 -0.7327
   60SAPC   H3S 4611   1.060   6.038   6.017 -1.9344  1.9470  0.5969
   60SAPC   C24 4612   1.268   6.080   5.970 -0.6955 -0.1779 -0.4511
   60SAPC   H4R 4613   1.261   6.015   5.880  1.7040 -1.4579  0.1929
   60SAPC   H4S 4614   1.321   6.021   6.048 -0.4704  0.8193  0.1573
   60SAPC   C25 4615   1.366   6.195   5.934  0.2893  0.7515 -0.1868
   60SAPC   H5R 4616   1.432   6.230   6.016 -0.7742  1.4156  0.4128
   60SAPC   C26 4617   1.377   6.258   5.823 -0.1881 -0.6620 -0.3297
   60SAPC   H6R 4618   1.441   6.347   5.817  1.0278 -1.2394  2.5556
   60SAPC   C27 4619   1.285   6.243   5.708  1.0260  0.6619 -0.6866
   60SAPC   H7R 4620   1.233   6.340   5.691 -1.2291 -0.7002 -2.1665
   60SAPC   H7S 4621   1.196   6.179   5.728  1.4534  0.0767 -0.6598
   60SAPC   C28 4622   1.360   6.190   5.594  0.3402  0.1437 -0.4304
   60SAPC   H8R 4623   1.399   6.090   5.616  1.8425  0.9972  1.0513
   60SAPC   C29 4624   1.356   6.246   5.472  0.5018  0.9843  0.4512
   60SAPC   H9R 4625   1.408   6.183   5.399 -1.8389 -1.5654  0.8055
   60SAPC  C210 4626   1.303   6.381   5.435 -0.5406  0.1736 -0.3557
   60SAPC  H10R 4627   1.349   6.419   5.341 -0.6473  2.2805  0.4112
   60SAPC  H10S 4628   1.329   6.459   5.509 -1.0660 -0.1361  0.1519
   60SAPC  C211 4629   1.152   6.377   5.430  0.5552  0.2034  0.7185
   60SAPC  H11R 4630   1.110   6.280   5.400  2.1905 -0.0537 -0.8924
   60SAPC  C212 4631   1.071   6.491   5.431 -0.6720 -0.3377 -0.2055
   60SAPC  H12R 4632   0.966   6.474   5.403 -0.0592 -1.0289 -2.2960
   60SAPC  C213 4633   1.113   6.630   5.457  0.3455  0.7292  0.0819
   60SAPC  H13R 4634   1.217   6.633   5.495  0.9003  0.2184 -1.3292
   60SAPC  H13S 4635   1.060   6.664   5.549  0.0932 -0.4711  0.3994
   60SAPC  C214 4636   1.070   6.734   5.354 -0.1629 -0.7567 -0.2924
   60SAPC  H14R 4637   1.037   6.690   5.259  1.8021 -1.9379 -0.4942
   60SAPC  C215 4638   1.100   6.863   5.365 -0.4312 -0.6178  0.2248
   60SAPC  H15R 4639   1.064   6.930   5.286 -0.9114  2.3299  2.7365
   60SAPC  C216 4640   1.160   6.940   5.484  0.3144  0.2931  0.8670
   60SAPC  H16R 4641   1.263   6.969   5.455  0.5044 -0.5748  0.6391
   60SAPC  H16S 4642   1.164   6.877   5.576 -2.1192  0.3024  1.0271
   60SAPC  C217 4643   1.086   7.066   5.514  0.0928  0.5243 -0.9299
   60SAPC  H17R 4644   0.987   7.041   5.558  1.4472 -1.9040  1.0634
   60SAPC  H17S 4645   1.050   7.114   5.421  0.5139  1.7846 -0.4556
   60SAPC  C218 4646   1.165   7.155   5.615  0.1740 -0.5210  0.0095
   60SAPC  H18R 4647   1.116   7.252   5.638 -0.9671 -1.4108  1.5646
   60SAPC  H18S 4648   1.256   7.172   5.554  0.5486  2.9520  1.3129
   60SAPC  C219 4649   1.207   7.101   5.760  0.0708  0.0128 -0.0803
   60SAPC  H19R 4650   1.277   7.175   5.804  1.9790 -2.0693  0.5162
   60SAPC  H19S 4651   1.268   7.009   5.760 -2.2367 -1.6076  0.4174
   60SAPC  C220 4652   1.092   7.075   5.862  0.1603  0.6110 -0.3961
   60SAPC  H20R 4653   1.135   7.046   5.960  1.3103  1.9668 -0.4777
   60SAPC  H20S 4654   1.047   6.979   5.826 -1.1637 -0.0458  2.7023
   60SAPC  H20T 4655   1.015   7.155   5.873 -2.5124 -1.8569  0.1988
   60SAPC   C33 4656   0.456   6.292   5.902  0.6037  0.7498 -0.2765
   60SAPC   H3X 4657   0.359   6.319   5.951 -0.3202 -0.3102 -1.4760
   60SAPC   H3Y 4658   0.466   6.183   5.919 -1.1846  0.7429  1.1404
   60SAPC   C34 4659   0.458   6.339   5.757  0.6259 -0.4832  0.7187
   60SAPC   H4X 4660   0.407   6.437   5.754  0.1857 -0.6754 -2.7958
   60SAPC   H4Y 4661   0.389   6.261   5.719  1.0305 -0.9300  0.8816
   60SAPC   C35 4662   0.592   6.341   5.686  0.4727  0.0859 -0.0630
   60SAPC   H5X 4663   0.654   6.253   5.714 -2.3456 -2.5434 -1.3818
   60SAPC   H5Y 4664   0.638   6.435   5.721 -2.1308  1.8554 -1.0334
   60SAPC   C36 4665   0.568   6.342   5.531 -0.3294  0.2309  0.1848
   60SAPC   H6X 4666   0.488   6.415   5.509  0.1887  0.2957 -1.6139
   60SAPC   H6Y 4667   0.545   6.241   5.491  0.4793  0.5434 -1.1151
   60SAPC   C37 4668   0.687   6.398   5.457 -0.3496 -0.4172  0.7652
   60SAPC   H7X 4669   0.773   6.327   5.456  0.6194  0.7172 -0.6482
   60SAPC   H7Y 4670   0.724   6.489   5.509 -0.0150 -0.2969  0.3230
   60SAPC   C38 4671   0.648   6.425   5.316  0.4083 -0.4105  0.5188
   60SAPC   H8X 4672   0.568   6.501   5.320  1.6160  0.9674 -0.5295
   60SAPC   H8Y 4673   0.609   6.330   5.273  2.7164 -1.0720 -0.2697
   60SAPC   C39 4674   0.754   6.478   5.218  0.2344  0.0414 -0.5017
   60SAPC   H9X 4675   0.844   6.412   5.224 -0.1041 -0.3011  1.4928
   60SAPC   H9Y 4676   0.786   6.581   5.244  0.8057  0.0292 -1.1264
   60SAPC  C310 4677   0.712   6.484   5.070  0.5043 -0.4741 -0.7292
   60SAPC  H10X 4678   0.614   6.538   5.070  1.4162  1.2532  0.5446
   60SAPC  H10Y 4679   0.691   6.381   5.034 -3.4842  0.4680 -1.6363
   60SAPC  C311 4680   0.819   6.549   4.975  0.4924  0.5620  1.0750
   60SAPC  H11X 4681   0.904   6.478   4.983  1.0341  1.2705  1.7812
   60SAPC  H11Y 4682   0.857   6.646   5.013  1.8258  1.4233 -2.1262
   60SAPC  C312 4683   0.761   6.559   4.835  0.0835 -0.0944  0.7591
   60SAPC  H12X 4684   0.697   6.644   4.802 -0.1967 -0.4178  0.4562
   60SAPC  H12Y 4685   0.680   6.483   4.833 -2.2674  2.1867  2.5876
   60SAPC  C313 4686   0.867   6.533   4.730  0.4220  0.1761 -0.2184
   60SAPC  H13X 4687   0.823   6.556   4.631 -0.3668  0.7751  0.2664
   60SAPC  H13Y 4688   0.892   6.425   4.741  0.9487  0.4548  1.6655
   60SAPC  C314 4689   0.990   6.625   4.743  0.7998  0.1461 -0.1873
   60SAPC  H14X 4690   1.064   6.588   4.817 -0.4145  1.2793  1.7062
   60SAPC  H14Y 4691   0.962   6.723   4.787 -0.0695  0.4863 -1.4380
   60SAPC  C315 4692   1.063   6.657   4.614  0.2268  0.7970  0.5664
   60SAPC  H15X 4693   1.128   6.568   4.600 -2.4226 -1.3580  1.2346
   60SAPC  H15Y 4694   1.125   6.749   4.616  2.6259 -0.3561 -4.4510
   60SAPC  C316 4695   0.984   6.661   4.480 -0.0986  0.2212  0.8558
   60SAPC  H16X 4696   0.885   6.710   4.497 -0.3978  1.1732 -2.6339
   60SAPC  H16Y 4697   0.975   6.560   4.435 -0.4564  0.1021  1.1863
   60SAPC  C317 4698   1.061   6.722   4.360  0.6677 -0.1345 -1.1474
   60SAPC  H17X 4699   1.161   6.674   4.359  1.2811  0.7534  2.3041
   60SAPC  H17Y 4700   1.076   6.831   4.377  3.0901 -0.6562  0.7138
   60SAPC  C318 4701   0.982   6.706   4.228  0.5651 -0.2015  0.3993
   60SAPC  H18X 4702   0.977   6.603   4.187  0.9610 -0.7895  1.7818
   60SAPC  H18Y 4703   1.033   6.778   4.161 -0.0269 -0.9957 -0.9346
   60SAPC  H18Z 4704   0.882   6.751   4.246  0.8704  1.3192 -1.3948
   61SAPC     N 4705   0.499   5.608   6.924 -0.0800  0.3043 -0.0846
   61SAPC   C12 4706   0.392   5.584   7.028 -0.6289  0.4739  0.4272
   61SAPC  H12A 4707   0.432   5.603   7.126  1.0840 -0.5271 -0.0373
   61SAPC  H12B 4708   0.396   5.476   7.025  1.4824  0.5147 -2.1107
   61SAPC   C13 4709   0.442   5.572   6.789  0.5848  0.3063  0.0728
   61SAPC  H13A 4710   0.518   5.600   6.717  0.8546  0.6099  0.4755
   61SAPC  H13B 4711   0.419   5.467   6.775  2.0199 -0.0909  0.4682
   61SAPC  H13C 4712   0.364   5.639   6.758  1.9694  1.7939 -0.3371
   61SAPC   C14 4713   0.547   5.746   6.924  0.5745  0.3106  0.2388
   61SAPC  H14A 4714   0.623   5.764   6.850 -0.8569  0.2561 -1.2964
   61SAPC  H14B 4715   0.461   5.811   6.917 -0.7141 -1.0127  2.4743
   61SAPC  H14C 4716   0.590   5.767   7.021  1.1390  2.2898 -0.3991
   61SAPC   C15 4717   0.619   5.516   6.956  0.6159 -0.3219  0.6759
   61SAPC  H15A 4718   0.583   5.414   6.947  3.3924 -1.6947  3.2499
   61SAPC  H15B 4719   0.696   5.524   6.880 -0.8053 -0.0849 -0.7953
   61SAPC  H15C 4720   0.658   5.536   7.054  1.0513  0.5182  0.3401
   61SAPC   C11 4721   0.256   5.646   7.014  0.3860 -0.2054 -0.6474
   61SAPC  H11A 4722   0.191   5.597   7.089  0.9387  0.5527  0.3566
   61SAPC  H11B 4723   0.221   5.611   6.915 -0.4103  1.2574 -0.9148
   61SAPC     P 4724   0.130   5.882   7.000 -0.7414 -0.4197 -0.0721
   61SAPC   O13 4725   0.018   5.828   7.073  0.5290 -0.6105  0.0018
   61SAPC   O14 4726   0.166   6.025   7.023 -0.6143 -0.0758  0.1727
   61SAPC   O12 4727   0.263   5.791   7.033  0.0934 -0.2469  0.0009
   61SAPC   O11 4728   0.097   5.858   6.852  0.0849  0.2089  0.3908
   61SAPC    C1 4729   0.202   5.878   6.752  0.5899  0.4874 -0.0656
   61SAPC    HA 4730   0.291   5.937   6.782  2.9820 -2.5317 -0.6546
   61SAPC    HB 4731   0.244   5.777   6.731 -0.5476 -0.1915  0.7977
   61SAPC    C2 4732   0.131   5.941   6.624 -0.6528  0.5384 -0.1399
   61SAPC    HS 4733   0.208   5.948   6.544  1.5347  1.0302  1.9042
   61SAPC   O21 4734   0.052   6.063   6.650 -0.6109  0.1766 -0.6400
   61SAPC   C21 4735   0.135   6.171   6.649 -0.6178 -0.7180 -0.2027
   61SAPC   O22 4736   0.252   6.169   6.623 -0.1889 -0.1456 -0.2008
   61SAPC   C22 4737   0.044   6.295   6.659 -0.8519  0.1035  0.1420
   61SAPC   H2R 4738  -0.037   6.258   6.724 -1.9148  0.4611 -0.9381
   61SAPC   H2S 4739   0.109   6.376   6.699  1.5401 -0.5698 -2.0521
   61SAPC    C3 4740   0.027   5.843   6.560  0.2426 -0.2648  0.5239
   61SAPC    HX 4741  -0.068   5.840   6.618 -1.4999  1.4844 -2.0061
   61SAPC    HY 4742   0.066   5.739   6.565 -1.8837 -1.0955  1.1529
   61SAPC   O31 4743   0.004   5.888   6.420 -0.2297  0.0539 -0.0162
   61SAPC   C31 4744   0.082   5.828   6.328  0.0393 -0.2148 -0.6136
   61SAPC   O32 4745   0.154   5.736   6.348 -0.1862  0.0707  0.0175
   61SAPC   C32 4746   0.081   5.919   6.203 -0.2903 -0.2572  0.0845
   61SAPC   H2X 4747   0.145   6.009   6.218  0.9406 -1.0910  0.0059
   61SAPC   H2Y 4748  -0.025   5.949   6.192 -0.9828 -2.6056 -0.2006
   61SAPC   C23 4749  -0.031   6.333   6.525  0.5824  0.0658 -0.8669
   61SAPC   H3R 4750  -0.111   6.400   6.563  1.5606  1.7860 -1.7317
   61SAPC   H3S 4751  -0.078   6.245   6.474  0.1213  0.5370 -1.2697
   61SAPC   C24 4752   0.045   6.435   6.427 -0.1617 -0.0068  0.0382
   61SAPC   H4R 4753   0.076   6.526   6.483  0.1891  0.1748 -0.4441
   61SAPC   H4S 4754  -0.036   6.469   6.359 -1.2154 -0.7711  0.8957
   61SAPC   C25 4755   0.174   6.396   6.358 -0.5315 -0.7347  0.9045
   61SAPC   H5R 4756   0.249   6.353   6.427  1.6970  0.3507 -0.7284
   61SAPC   C26 4757   0.208   6.389   6.232  0.2518 -0.2458  0.2808
   61SAPC   H6R 4758   0.302   6.333   6.218 -1.1209 -2.6479  0.0791
   61SAPC   C27 4759   0.120   6.421   6.113 -0.1271  0.2233  0.2018
   61SAPC   H7R 4760   0.175   6.495   6.052 -1.2423  0.3589 -0.6689
   61SAPC   H7S 4761   0.030   6.471   6.156 -1.6467 -2.2285  0.0852
   61SAPC   C28 4762   0.086   6.301   6.032 -0.4244  0.5103 -0.0777
   61SAPC   H8R 4763   0.102   6.208   6.089  0.2625  0.9546  0.4609
   61SAPC   C29 4764   0.048   6.302   5.896  0.1363  0.0123  0.4348
   61SAPC   H9R 4765   0.030   6.200   5.858  0.0436  0.0088  0.4863
   61SAPC  C210 4766   0.035   6.421   5.806 -0.2386 -0.1288 -0.8070
   61SAPC  H10R 4767   0.133   6.440   5.757  0.9773  0.4601  1.7252
   61SAPC  H10S 4768   0.020   6.508   5.874  1.9529  0.7128 -1.3165
   61SAPC  C211 4769  -0.090   6.412   5.712  0.6469 -0.0649 -0.7343
   61SAPC  H11R 4770  -0.185   6.383   5.758  1.0081  0.5348  0.4367
   61SAPC  C212 4771  -0.079   6.428   5.584 -0.4763  0.3488  0.6829
   61SAPC  H12R 4772  -0.174   6.415   5.531 -0.9919 -0.7115  1.8297
   61SAPC  C213 4773   0.040   6.457   5.493 -0.2003 -0.2580 -0.0205
   61SAPC  H13R 4774   0.085   6.547   5.540 -0.5475 -0.4683  0.7372
   61SAPC  H13S 4775   0.000   6.490   5.395  0.5377  0.6797 -0.0177
   61SAPC  C214 4776   0.139   6.340   5.484  0.3791 -0.2281  0.5382
   61SAPC  H14R 4777   0.128   6.249   5.545  0.8597 -0.4860  0.2525
   61SAPC  C215 4778   0.231   6.342   5.384  0.0185  0.5009  0.2721
   61SAPC  H15R 4779   0.305   6.263   5.370  0.8782  1.8001 -3.4947
   61SAPC  C216 4780   0.250   6.461   5.284 -0.6611  0.1679  0.0312
   61SAPC  H16R 4781   0.342   6.514   5.315 -0.0473  0.3686 -1.9843
   61SAPC  H16S 4782   0.176   6.543   5.282  1.6720  2.3673 -1.2583
   61SAPC  C217 4783   0.283   6.416   5.145 -0.3988  0.0730  0.6178
   61SAPC  H17R 4784   0.192   6.358   5.117 -0.0707  0.0956 -0.5490
   61SAPC  H17S 4785   0.369   6.346   5.146 -1.6034 -1.5806 -1.4934
   61SAPC  C218 4786   0.291   6.528   5.037 -0.1973  0.9676 -0.0522
   61SAPC  H18R 4787   0.365   6.593   5.089  0.5841  1.6595 -1.9178
   61SAPC  H18S 4788   0.199   6.590   5.027 -0.7003  0.5953  1.8293
   61SAPC  C219 4789   0.334   6.459   4.911 -0.2631 -0.5959 -0.4067
   61SAPC  H19R 4790   0.413   6.381   4.912  0.7911  0.4438  0.2485
   61SAPC  H19S 4791   0.394   6.534   4.855 -2.0175  0.4678 -0.9503
   61SAPC  C220 4792   0.217   6.404   4.828 -0.4835  0.3330 -0.6290
   61SAPC  H20R 4793   0.132   6.475   4.836  0.3268  1.3535 -0.7881
   61SAPC  H20S 4794   0.189   6.310   4.879  1.3648  0.2953  0.4072
   61SAPC  H20T 4795   0.245   6.373   4.725  0.8992  2.6719 -1.0351
   61SAPC   C33 4796   0.131   5.838   6.073  0.3433  0.1056 -0.8380
   61SAPC   H3X 4797   0.061   5.758   6.043  0.8464 -0.4285 -0.5994
   61SAPC   H3Y 4798   0.228   5.791   6.099 -0.2532 -1.4284 -1.2739
   61SAPC   C34 4799   0.169   5.941   5.968  0.0366  0.2287 -0.0511
   61SAPC   H4X 4800   0.251   6.006   6.004 -1.2591  1.2754  1.1151
   61SAPC   H4Y 4801   0.079   6.004   5.950 -1.3454 -1.3394  1.0634
   61SAPC   C35 4802   0.210   5.875   5.842 -0.3571 -0.0310  1.1477
   61SAPC   H5X 4803   0.131   5.815   5.792 -1.8214  1.0204  2.1298
   61SAPC   H5Y 4804   0.289   5.797   5.853  1.2291  1.1620 -1.0350
   61SAPC   C36 4805   0.262   5.982   5.738 -0.4667 -0.5901  0.2906
   61SAPC   H6X 4806   0.345   6.044   5.780 -0.9637  1.2298 -1.2824
   61SAPC   H6Y 4807   0.185   6.056   5.709 -1.8860 -2.2452 -0.2767
   61SAPC   C37 4808   0.314   5.901   5.617  0.2585 -0.7293  0.8002
   61SAPC   H7X 4809   0.226   5.841   5.584 -0.0766 -0.0405  0.4225
   61SAPC   H7Y 4810   0.388   5.823   5.644  1.4898 -0.3376 -1.2212
   61SAPC   C38 4811   0.376   5.990   5.503 -0.7445 -0.6192 -0.3700
   61SAPC   H8X 4812   0.482   6.016   5.524 -1.5614  1.7779  1.2001
   61SAPC   H8Y 4813   0.326   6.089   5.505 -3.6791 -2.0056 -0.1524
   61SAPC   C39 4814   0.382   5.935   5.361 -0.1000  0.7174  0.2578
   61SAPC   H9X 4815   0.279   5.934   5.319  0.0714 -1.3780 -0.1978
   61SAPC   H9Y 4816   0.416   5.830   5.371  0.7370  0.7803 -1.5033
   61SAPC  C310 4817   0.477   6.011   5.267  1.2484  0.0120 -0.2018
   61SAPC  H10X 4818   0.582   6.008   5.306  0.3700  1.0303  2.5131
   61SAPC  H10Y 4819   0.451   6.119   5.275 -2.2864 -0.7063 -0.3123
   61SAPC  C311 4820   0.458   5.963   5.125  0.1750 -0.4279  0.2560
   61SAPC  H11X 4821   0.349   5.949   5.106  0.2515  0.4952 -0.9611
   61SAPC  H11Y 4822   0.509   5.867   5.104  1.1502  0.6474 -2.7913
   61SAPC  C312 4823   0.512   6.063   5.023  0.4075 -0.6986 -0.2099
   61SAPC  H12X 4824   0.623   6.064   5.017  0.3653  1.4277 -1.3475
   61SAPC  H12Y 4825   0.476   6.164   5.053  0.6717 -0.1201 -1.7862
   61SAPC  C313 4826   0.461   6.026   4.887 -0.4489  0.0644 -0.0980
   61SAPC  H13X 4827   0.351   6.035   4.880 -0.4152  0.6153 -0.0238
   61SAPC  H13Y 4828   0.486   5.918   4.878  2.2142  0.2563  3.0463
   61SAPC  C314 4829   0.540   6.104   4.777 -0.0960  0.2127  0.5321
   61SAPC  H14X 4830   0.647   6.080   4.793  0.1324 -0.5377 -1.7632
   61SAPC  H14Y 4831   0.509   6.208   4.798 -1.6454 -0.3933  1.4971
   61SAPC  C315 4832   0.504   6.049   4.640  0.1856  0.0533  0.0146
   61SAPC  H15X 4833   0.511   5.938   4.642 -0.3626 -0.0565 -2.0300
   61SAPC  H15Y 4834   0.574   6.083   4.561 -1.0919  0.9487 -0.7627
   61SAPC  C316 4835   0.359   6.082   4.591  0.0156 -0.2724  0.0983
   61SAPC  H16X 4836   0.292   6.097   4.678 -0.3203  1.9077 -0.4852
   61SAPC  H16Y 4837   0.329   6.005   4.517 -0.7358  0.1845 -0.0809
   61SAPC  C317 4838   0.357   6.217   4.528  0.4307  0.5793 -0.3974
   61SAPC  H17X 4839   0.420   6.222   4.437 -0.6929  2.8849 -1.1015
   61SAPC  H17Y 4840   0.392   6.288   4.606  0.3743  0.9004 -0.6672
   61SAPC  C318 4841   0.221   6.263   4.492  0.1026  0.6914  0.6256
   61SAPC  H18X 4842   0.221   6.368   4.456 -3.5595  0.0944 -1.6710
   61SAPC  H18Y 4843   0.154   6.268   4.581  0.0420  2.5008  0.5107
   61SAPC  H18Z 4844   0.178   6.206   4.407  0.3845  0.3971  0.6782
   62SAPC     N 4845   0.020   2.736   7.141 -0.1845  0.3760 -0.0569
   62SAPC   C12 4846   0.106   2.715   7.025  0.4053 -1.0083  1.2313
   62SAPC  H12A 4847   0.054   2.642   6.965  0.7279 -0.1983 -0.0690
   62SAPC  H12B 4848   0.205   2.685   7.055  0.2938 -2.4101  0.3171
   62SAPC   C13 4849  -0.116   2.789   7.103 -0.4956  0.3776 -0.2264
   62SAPC  H13A 4850  -0.107   2.885   7.055 -0.5617 -0.6516 -2.4402
   62SAPC  H13B 4851  -0.161   2.738   7.019  1.2428  2.1596 -2.3951
   62SAPC  H13C 4852  -0.178   2.809   7.189  1.0416  2.3026  0.5143
   62SAPC   C14 4853   0.000   2.600   7.209 -0.0001 -0.2419 -0.0485
   62SAPC  H14A 4854   0.087   2.536   7.211 -0.3181 -0.7582  3.2743
   62SAPC  H14B 4855  -0.033   2.619   7.310 -0.9340  1.3163 -0.6126
   62SAPC  H14C 4856  -0.084   2.548   7.167  1.2108 -1.0197 -1.6314
   62SAPC   C15 4857   0.087   2.835   7.232 -0.2378 -0.6901 -0.4065
   62SAPC  H15A 4858   0.184   2.801   7.265  0.7420  0.6111 -1.8069
   62SAPC  H15B 4859   0.105   2.923   7.172  0.8760  0.2621  1.2328
   62SAPC  H15C 4860   0.027   2.864   7.317  0.3588  0.9340 -0.4991
   62SAPC   C11 4861   0.119   2.829   6.928 -0.0503 -0.2028  0.0307
   62SAPC  H11A 4862   0.020   2.873   6.901  1.0094  2.0779 -0.3799
   62SAPC  H11B 4863   0.159   2.795   6.831  1.5684 -1.4063  1.0799
   62SAPC     P 4864   0.363   2.916   6.960  0.0375 -0.0385  0.0976
   62SAPC   O13 4865   0.432   3.038   7.011  0.1245 -0.3572 -0.3398
   62SAPC   O14 4866   0.417   2.781   6.995  0.1262 -0.4120 -0.4237
   62SAPC   O12 4867   0.207   2.927   6.985  0.0528  0.4302 -0.1477
   62SAPC   O11 4868   0.373   2.928   6.804  0.3956  0.4383 -0.6300
   62SAPC    C1 4869   0.353   3.048   6.739 -0.5418 -0.2275  0.2283
   62SAPC    HA 4870   0.261   3.099   6.776  0.1845 -0.4540  2.4718
   62SAPC    HB 4871   0.446   3.108   6.740 -0.5065 -0.2621 -0.2930
   62SAPC    C2 4872   0.317   3.026   6.594 -0.5125 -0.7765  0.0816
   62SAPC    HS 4873   0.218   2.976   6.585 -1.4930  0.7828  1.5721
   62SAPC   O21 4874   0.427   2.964   6.523 -0.1964 -0.4248  0.1173
   62SAPC   C21 4875   0.400   2.848   6.473 -0.0622 -0.6782  0.7487
   62SAPC   O22 4876   0.303   2.778   6.500 -0.1220 -0.8743  0.2802
   62SAPC   C22 4877   0.514   2.810   6.373  0.3218 -0.3531  0.3444
   62SAPC   H2R 4878   0.554   2.907   6.336  1.2782 -0.3554  1.3299
   62SAPC   H2S 4879   0.589   2.752   6.430 -1.6043 -3.2970  0.1265
   62SAPC    C3 4880   0.306   3.169   6.527  0.0407  0.0959  0.1462
   62SAPC    HX 4881   0.414   3.196   6.531  0.3745 -1.2697  0.9342
   62SAPC    HY 4882   0.250   3.236   6.594 -0.5259  1.2688 -1.4385
   62SAPC   O31 4883   0.253   3.165   6.392 -0.0437 -0.5753  0.5131
   62SAPC   C31 4884   0.222   3.290   6.349  0.3192 -0.4495 -0.6319
   62SAPC   O32 4885   0.262   3.391   6.402  0.1363 -0.3319 -0.2985
   62SAPC   C32 4886   0.123   3.285   6.227 -0.6769 -0.2060 -0.0526
   62SAPC   H2X 4887   0.051   3.208   6.260 -1.0838  0.9101  1.8012
   62SAPC   H2Y 4888   0.184   3.249   6.141 -1.0994  2.3254 -1.5275
   62SAPC   C23 4889   0.461   2.731   6.248 -0.5790 -0.1481 -0.5837
   62SAPC   H3R 4890   0.416   2.633   6.275 -0.8787 -0.1912 -1.2170
   62SAPC   H3S 4891   0.545   2.717   6.176 -2.0076 -1.0000 -2.1396
   62SAPC   C24 4892   0.344   2.797   6.170 -0.5116  0.4149 -0.0911
   62SAPC   H4R 4893   0.263   2.794   6.245 -1.0554 -0.3211 -0.6987
   62SAPC   H4S 4894   0.339   2.722   6.088  0.9420  0.3093 -0.1219
   62SAPC   C25 4895   0.368   2.939   6.130 -0.1712  0.2007 -0.0311
   62SAPC   H5R 4896   0.359   2.998   6.222 -3.9748  0.2792 -0.2863
   62SAPC   C26 4897   0.399   2.995   6.010 -0.3729  0.7713  0.2065
   62SAPC   H6R 4898   0.416   3.104   6.010 -3.1868  1.3052  1.7640
   62SAPC   C27 4899   0.415   2.914   5.888  1.1313 -0.0306  0.1106
   62SAPC   H7R 4900   0.330   2.933   5.819  1.1017  1.1012  0.4337
   62SAPC   H7S 4901   0.405   2.807   5.917 -2.6191  0.5722  1.7037
   62SAPC   C28 4902   0.539   2.920   5.803  0.0182  0.5452 -0.0121
   62SAPC   H8R 4903   0.635   2.923   5.857  0.8480  0.4283 -1.4036
   62SAPC   C29 4904   0.559   2.894   5.680 -0.2469  0.1895  0.0790
   62SAPC   H9R 4905   0.660   2.896   5.636 -1.1373  1.3158 -2.0790
   62SAPC  C210 4906   0.453   2.858   5.580  0.2359  0.3799  0.9985
   62SAPC  H10R 4907   0.398   2.948   5.543  1.0273  0.6548  0.4548
   62SAPC  H10S 4908   0.382   2.800   5.642  0.4485  2.4134  3.3067
   62SAPC  C211 4909   0.502   2.769   5.470 -0.2409  0.5977 -0.3907
   62SAPC  H11R 4910   0.515   2.665   5.502 -1.6195  0.3098 -0.7015
   62SAPC  C212 4911   0.521   2.804   5.341  0.2110  0.1727 -0.3362
   62SAPC  H12R 4912   0.577   2.736   5.275  1.0230  0.8226 -0.3291
   62SAPC  C213 4913   0.491   2.939   5.273  0.0832  0.8157 -0.4149
   62SAPC  H13R 4914   0.563   2.961   5.192 -0.0098  0.1485 -0.6841
   62SAPC  H13S 4915   0.519   3.017   5.348 -2.4610  1.7972 -0.3839
   62SAPC  C214 4916   0.346   2.963   5.245 -0.2977 -0.0596  0.2609
   62SAPC  H14R 4917   0.287   2.923   5.329 -1.8116  1.3971 -0.0698
   62SAPC  C215 4918   0.287   3.016   5.138 -0.5880 -0.1653  0.1597
   62SAPC  H15R 4919   0.179   3.033   5.145 -0.2518  1.5371  2.5894
   62SAPC  C216 4920   0.364   3.069   5.021 -0.2488  0.6842  0.7480
   62SAPC  H16R 4921   0.470   3.088   5.045  0.1044 -0.0314 -0.1904
   62SAPC  H16S 4922   0.320   3.162   4.980 -1.5985 -0.0013  0.5847
   62SAPC  C217 4923   0.375   2.957   4.905  0.5592 -0.9042  0.0170
   62SAPC  H17R 4924   0.387   3.004   4.805 -1.6065  1.8331  0.9030
   62SAPC  H17S 4925   0.274   2.911   4.900 -0.1577  0.7385 -1.6324
   62SAPC  C218 4926   0.486   2.848   4.932  0.5167  0.3061 -0.2802
   62SAPC  H18R 4927   0.457   2.782   5.017  2.0151  1.0488  0.8484
   62SAPC  H18S 4928   0.590   2.886   4.942  0.3676  0.2524  2.0814
   62SAPC  C219 4929   0.493   2.740   4.821  0.2219  0.0337 -0.3231
   62SAPC  H19R 4930   0.530   2.787   4.727 -1.0082  2.3174  0.2509
   62SAPC  H19S 4931   0.389   2.722   4.787  0.1498 -0.1974  0.0152
   62SAPC  C220 4932   0.559   2.609   4.861 -0.2411 -0.1845  0.6047
   62SAPC  H20R 4933   0.659   2.634   4.903 -0.1518  0.0410  0.2598
   62SAPC  H20S 4934   0.580   2.548   4.771 -4.7747 -0.4513 -0.5030
   62SAPC  H20T 4935   0.504   2.550   4.938 -1.1197  0.6998  0.6714
   62SAPC   C33 4936   0.063   3.421   6.180 -0.6635 -0.1956 -0.5600
   62SAPC   H3X 4937   0.141   3.493   6.148 -3.2572  2.4888 -1.1994
   62SAPC   H3Y 4938   0.001   3.454   6.266 -0.0896 -0.5452 -0.0012
   62SAPC   C34 4939  -0.027   3.407   6.050 -0.2335  0.5218  0.3332
   62SAPC   H4X 4940  -0.081   3.503   6.045  0.5538  1.1328  2.3199
   62SAPC   H4Y 4941  -0.102   3.325   6.052  0.2237 -0.0257 -2.1475
   62SAPC   C35 4942   0.051   3.389   5.921 -0.2274 -0.3204  0.2692
   62SAPC   H5X 4943   0.087   3.284   5.911  0.1740 -0.2506  0.9409
   62SAPC   H5Y 4944   0.144   3.445   5.943  0.6534 -1.4835 -0.3586
   62SAPC   C36 4945  -0.029   3.440   5.803  0.7831  0.4147  0.0748
   62SAPC   H6X 4946  -0.059   3.546   5.820  1.2460  0.2222  2.5140
   62SAPC   H6Y 4947  -0.120   3.378   5.786  1.2021 -0.2326  0.1642
   62SAPC   C37 4948   0.050   3.438   5.671  0.3442 -0.3808 -0.1826
   62SAPC   H7X 4949   0.061   3.332   5.642 -0.6546 -0.4902 -0.1930
   62SAPC   H7Y 4950   0.141   3.503   5.672  0.1497 -0.1015  0.8936
   62SAPC   C38 4951  -0.035   3.488   5.550  0.2375  0.0655 -0.0035
   62SAPC   H8X 4952  -0.052   3.598   5.557  1.4068  0.2860 -0.3934
   62SAPC   H8Y 4953  -0.127   3.427   5.538  1.0651 -1.4441  0.9939
   62SAPC   C39 4954   0.045   3.468   5.418  0.2493 -0.6599 -0.8017
   62SAPC   H9X 4955   0.061   3.358   5.414 -0.1492 -0.9934  2.9954
   62SAPC   H9Y 4956   0.139   3.522   5.441 -0.5278  0.0434  0.9115
   62SAPC  C310 4957  -0.015   3.535   5.294 -1.0767 -1.0622  0.3204
   62SAPC  H10X 4958  -0.043   3.638   5.322  0.4491 -0.4385 -0.3632
   62SAPC  H10Y 4959  -0.099   3.469   5.263 -2.4882  1.8538 -2.6518
   62SAPC  C311 4960   0.095   3.547   5.181 -0.2074  0.1156  0.0582
   62SAPC  H11X 4961   0.139   3.448   5.159 -0.5334 -0.4888  1.9624
   62SAPC  H11Y 4962   0.182   3.606   5.219 -0.8059 -0.0183  1.7279
   62SAPC  C312 4963   0.040   3.593   5.047 -0.0668  0.9011 -0.5725
   62SAPC  H12X 4964  -0.026   3.676   5.078  1.1714  1.4507  0.7371
   62SAPC  H12Y 4965  -0.029   3.511   5.018 -1.3050 -0.0713  4.2045
   62SAPC  C313 4966   0.146   3.643   4.950 -0.4122  0.0595  0.0803
   62SAPC  H13X 4967   0.223   3.692   5.014 -1.3598  0.2592  1.1107
   62SAPC  H13Y 4968   0.101   3.726   4.891  0.7750  0.6503 -0.0136
   62SAPC  C314 4969   0.203   3.526   4.856 -0.6432  0.1377  0.2472
   62SAPC  H14X 4970   0.238   3.438   4.914  3.3856  1.1110 -0.4242
   62SAPC  H14Y 4971   0.296   3.560   4.807 -0.7740  0.5440  0.2800
   62SAPC  C315 4972   0.117   3.493   4.729  0.1708  0.0830 -0.4033
   62SAPC  H15X 4973   0.082   3.585   4.677 -1.1577 -1.0768 -1.6464
   62SAPC  H15Y 4974   0.020   3.447   4.757 -1.0956  0.8609 -3.1031
   62SAPC  C316 4975   0.208   3.413   4.634  0.1306  0.0608  0.1500
   62SAPC  H16X 4976   0.296   3.475   4.606  0.2355  0.7916  1.9977
   62SAPC  H16Y 4977   0.150   3.387   4.543 -0.8518 -0.5569  0.9328
   62SAPC  C317 4978   0.259   3.282   4.694 -0.2391 -0.4032 -0.1631
   62SAPC  H17X 4979   0.313   3.290   4.790 -1.6039  3.0360  0.4744
   62SAPC  H17Y 4980   0.340   3.254   4.623 -1.6248 -2.7972 -0.8988
   62SAPC  C318 4981   0.146   3.177   4.699  0.0978  0.0318  0.3171
   62SAPC  H18X 4982   0.082   3.195   4.788 -2.1486 -0.8998 -1.0138
   62SAPC  H18Y 4983   0.181   3.072   4.708 -1.9699 -0.7857 -0.5660
   62SAPC  H18Z 4984   0.084   3.188   4.608 -0.9475  0.7012  1.0834
   63SAPC     N 4985   1.418   0.412   6.632  0.2097 -0.0587  0.3967
   63SAPC   C12 4986   1.470   0.448   6.488  0.4343  0.6026 -0.1747
   63SAPC  H12A 4987   1.391   0.415   6.422 -0.3185 -1.5857  1.7223
   63SAPC  H12B 4988   1.555   0.386   6.465  0.9966  1.7729 -1.3760
   63SAPC   C13 4989   1.515   0.463   6.737  0.1479 -0.1504 -0.1279
   63SAPC  H13A 4990   1.610   0.413   6.723 -0.8826 -2.1464 -0.2813
   63SAPC  H13B 4991   1.527   0.570   6.728  2.1380 -0.2625  0.6607
   63SAPC  H13C 4992   1.469   0.438   6.831 -1.2799 -1.3813 -1.1118
   63SAPC   C14 4993   1.288   0.482   6.647  0.2428  0.4895 -0.1294
   63SAPC  H14A 4994   1.222   0.441   6.572 -0.3907  0.9726  0.1638
   63SAPC  H14B 4995   1.240   0.470   6.742 -0.7008  0.3061 -0.6210
   63SAPC  H14C 4996   1.296   0.588   6.628 -1.6371  0.7297  0.2985
   63SAPC   C15 4997   1.397   0.268   6.639 -0.2703  0.4088  0.1352
   63SAPC  H15A 4998   1.366   0.228   6.735  0.1302  0.2814  0.2134
   63SAPC  H15B 4999   1.326   0.226   6.569  1.1628 -1.0985 -0.5039
   63SAPC  H15C 5000   1.486   0.208   6.627 -0.6806 -0.0279 -0.8938
   63SAPC   C11 5001   1.509   0.594   6.462  0.2212 -0.4456  0.2517
   63SAPC  H11A 5002   1.551   0.574   6.361 -1.1546 -2.6118  0.0408
   63SAPC  H11B 5003   1.580   0.624   6.542 -0.8424  0.3899  0.9148
   63SAPC     P 5004   1.365   0.778   6.350 -0.0542 -0.0896  0.3644
   63SAPC   O13 5005   1.267   0.880   6.396 -0.0885 -0.1075  0.2558
   63SAPC   O14 5006   1.491   0.825   6.295 -0.0168  0.3296 -0.1213
   63SAPC   O12 5007   1.397   0.680   6.466 -0.1656  0.1298 -0.6779
   63SAPC   O11 5008   1.298   0.689   6.236  0.3527  0.2790 -0.4137
   63SAPC    C1 5009   1.180   0.729   6.157 -0.2163 -0.4082  0.4235
   63SAPC    HA 5010   1.162   0.839   6.153  2.6210  0.1100 -0.7397
   63SAPC    HB 5011   1.193   0.688   6.054  0.5948 -0.1003  0.3936
   63SAPC    C2 5012   1.040   0.671   6.208  0.3517  0.3620  0.0125
   63SAPC    HS 5013   1.030   0.668   6.318 -2.2286 -2.2226 -0.1728
   63SAPC   O21 5014   1.017   0.538   6.161  0.2669  0.6826 -0.6508
   63SAPC   C21 5015   0.907   0.472   6.209  0.2541 -0.7593  0.4999
   63SAPC   O22 5016   0.824   0.517   6.287 -0.1690 -0.5012  0.3574
   63SAPC   C22 5017   0.909   0.324   6.152 -0.4903 -0.3397 -0.1427
   63SAPC   H2R 5018   0.881   0.342   6.046 -1.5276  0.1228  0.1985
   63SAPC   H2S 5019   1.007   0.273   6.159 -0.6996 -0.5461  1.6659
   63SAPC    C3 5020   0.921   0.762   6.158  1.0311  0.3531 -0.1348
   63SAPC    HX 5021   0.938   0.859   6.209 -1.9078  1.1533 -0.4984
   63SAPC    HY 5022   0.823   0.725   6.194  1.6705  0.7407  2.1532
   63SAPC   O31 5023   0.931   0.786   6.012  0.4314 -0.2172  0.1023
   63SAPC   C31 5024   0.860   0.697   5.935 -0.5580 -0.2062  0.0670
   63SAPC   O32 5025   0.786   0.611   5.973 -0.3108 -0.2789 -0.1486
   63SAPC   C32 5026   0.901   0.715   5.795  0.0731  0.5283  0.6252
   63SAPC   H2X 5027   1.008   0.685   5.787  0.1857  1.1718 -0.3725
   63SAPC   H2Y 5028   0.908   0.820   5.761  0.1377  0.6165  0.9051
   63SAPC   C23 5029   0.802   0.241   6.213  0.1699  0.0269 -0.5253
   63SAPC   H3R 5030   0.699   0.274   6.186  0.2012  0.3856 -0.2058
   63SAPC   H3S 5031   0.806   0.259   6.323  2.0772  3.9531 -1.0802
   63SAPC   C24 5032   0.817   0.084   6.183  0.5843 -0.4838 -0.2741
   63SAPC   H4R 5033   0.925   0.060   6.195  0.8421  0.9492  0.4796
   63SAPC   H4S 5034   0.782   0.075   6.078  0.1720  1.4869 -0.3347
   63SAPC   C25 5035   0.740  -0.009   6.274  0.2305 -0.0233 -0.8480
   63SAPC   H5R 5036   0.795  -0.047   6.361 -0.6956 -0.5991 -0.4909
   63SAPC   C26 5037   0.620  -0.058   6.239  0.3322  0.0847  0.0960
   63SAPC   H6R 5038   0.562  -0.114   6.314 -1.8361  2.2499  0.1551
   63SAPC   C27 5039   0.543  -0.047   6.112  0.1186 -0.2151 -0.1189
   63SAPC   H7R 5040   0.466  -0.127   6.118  0.1158 -0.3978 -2.1559
   63SAPC   H7S 5041   0.602  -0.078   6.024 -1.0948 -1.7761 -0.4253
   63SAPC   C28 5042   0.483   0.084   6.074  0.2971  0.0270 -0.4767
   63SAPC   H8R 5043   0.536   0.175   6.107 -1.5800  0.4552  1.5683
   63SAPC   C29 5044   0.361   0.101   6.018  0.0669  0.1620 -0.2502
   63SAPC   H9R 5045   0.326   0.203   5.997 -1.1384 -0.5872 -2.1654
   63SAPC  C210 5046   0.271  -0.007   5.983  0.1155 -0.0648  0.2672
   63SAPC  H10R 5047   0.172   0.038   5.960  1.1597  1.4985 -1.4002
   63SAPC  H10S 5048   0.251  -0.073   6.070 -3.2777  1.0005  0.4410
   63SAPC  C211 5049   0.313  -0.100   5.871 -0.6464  0.0696 -0.3657
   63SAPC  H11R 5050   0.399  -0.163   5.898  0.0464  1.0326 -0.3118
   63SAPC  C212 5051   0.266  -0.101   5.742  0.0547 -0.9869  0.2634
   63SAPC  H12R 5052   0.310  -0.154   5.657  0.4945 -1.5105  0.8070
   63SAPC  C213 5053   0.155  -0.007   5.690 -0.0192  0.2507  1.1725
   63SAPC  H13R 5054   0.156   0.082   5.757 -0.1980 -0.0433  1.5660
   63SAPC  H13S 5055   0.057  -0.058   5.700 -0.1266  0.0799 -0.4678
   63SAPC  C214 5056   0.165   0.026   5.538 -0.8468 -1.3560 -1.4917
   63SAPC  H14R 5057   0.202  -0.058   5.479  0.4124 -1.2308 -0.9261
   63SAPC  C215 5058   0.133   0.144   5.476 -0.1731 -0.2314 -0.7340
   63SAPC  H15R 5059   0.157   0.159   5.369 -0.7384  0.3337 -0.7852
   63SAPC  C216 5060   0.086   0.271   5.545  0.2645  0.2421  0.1388
   63SAPC  H16R 5061   0.082   0.262   5.655 -0.3212  2.9581  0.3870
   63SAPC  H16S 5062  -0.016   0.301   5.513 -0.1163  0.6308  1.6779
   63SAPC  C217 5063   0.185   0.387   5.507  0.0040 -0.1298 -0.4199
   63SAPC  H17R 5064   0.141   0.482   5.543  0.9292 -0.0873  0.6665
   63SAPC  H17S 5065   0.206   0.410   5.401 -0.7408 -0.1937 -0.5818
   63SAPC  C218 5066   0.325   0.369   5.572 -1.0070  0.1245  0.6838
   63SAPC  H18R 5067   0.397   0.433   5.518 -1.0883 -1.6084 -1.6318
   63SAPC  H18S 5068   0.355   0.264   5.553  0.1464  0.5919 -0.2083
   63SAPC  C219 5069   0.336   0.398   5.720 -0.0578  0.5530 -0.6714
   63SAPC  H19R 5070   0.281   0.325   5.783 -2.1171  2.7934  0.2831
   63SAPC  H19S 5071   0.302   0.500   5.750  0.8310  0.8229 -0.5492
   63SAPC  C220 5072   0.484   0.386   5.761 -0.0439  0.2516 -0.0537
   63SAPC  H20R 5073   0.510   0.279   5.750  0.9071  0.4322  0.3612
   63SAPC  H20S 5074   0.494   0.414   5.869 -1.7312  0.3832  0.1052
   63SAPC  H20T 5075   0.550   0.452   5.702  0.3551  0.0689  0.1836
   63SAPC   C33 5076   0.801   0.651   5.695  0.6016 -0.4121  0.1320
   63SAPC   H3X 5077   0.705   0.707   5.698  0.1121 -1.1775 -0.7713
   63SAPC   H3Y 5078   0.774   0.545   5.715  1.1272 -0.8094 -1.1298
   63SAPC   C34 5079   0.846   0.646   5.549 -0.2312 -0.3181 -0.2591
   63SAPC   H4X 5080   0.940   0.588   5.543  0.2275  0.3196  0.6202
   63SAPC   H4Y 5081   0.873   0.744   5.504  0.7373  0.0492  1.0327
   63SAPC   C35 5082   0.746   0.574   5.458  0.0547 -0.3087  0.4160
   63SAPC   H5X 5083   0.665   0.648   5.444  1.3262  1.0751  0.0404
   63SAPC   H5Y 5084   0.716   0.480   5.510  4.2508 -1.7207  0.6850
   63SAPC   C36 5085   0.801   0.539   5.321 -0.1615 -0.2293 -0.5524
   63SAPC   H6X 5086   0.856   0.443   5.327 -0.1892 -0.1684  3.4553
   63SAPC   H6Y 5087   0.862   0.619   5.274 -1.4480  0.7341 -0.6525
   63SAPC   C37 5088   0.683   0.513   5.223  0.4668 -0.0828 -0.5126
   63SAPC   H7X 5089   0.622   0.605   5.228 -0.5044 -0.7723  1.8538
   63SAPC   H7Y 5090   0.614   0.438   5.268 -3.7170  1.9236 -2.9418
   63SAPC   C38 5091   0.717   0.483   5.081 -0.3755 -0.3792 -0.3979
   63SAPC   H8X 5092   0.761   0.573   5.034  1.0791 -0.9377 -0.1660
   63SAPC   H8Y 5093   0.626   0.443   5.032  0.3859 -0.9818 -1.3737
   63SAPC   C39 5094   0.823   0.382   5.060  0.6034 -0.1182 -0.3303
   63SAPC   H9X 5095   0.797   0.290   5.116 -1.1642  1.3690  1.4249
   63SAPC   H9Y 5096   0.919   0.417   5.103  0.8584  0.2331 -1.1633
   63SAPC  C310 5097   0.858   0.348   4.913  0.3630 -0.3353 -0.4638
   63SAPC  H10X 5098   0.904   0.440   4.870  2.6568 -0.3240  1.7751
   63SAPC  H10Y 5099   0.762   0.331   4.860  0.8394 -0.4831 -1.2908
   63SAPC  C311 5100   0.936   0.218   4.886 -0.1544  0.4515 -0.4914
   63SAPC  H11X 5101   0.930   0.193   4.778 -2.2032 -3.3394  0.3138
   63SAPC  H11Y 5102   0.882   0.138   4.940 -0.7774 -1.2701 -3.4453
   63SAPC  C312 5103   1.086   0.218   4.931 -0.0225  0.1188  0.4087
   63SAPC  H12X 5104   1.098   0.127   4.993  1.0061 -0.6859 -0.8993
   63SAPC  H12Y 5105   1.095   0.298   5.007  1.5924  1.4798 -1.1151
   63SAPC  C313 5106   1.177   0.226   4.809  0.2454  0.5826 -0.2810
   63SAPC  H13X 5107   1.139   0.298   4.733  0.2780  1.0336  0.1270
   63SAPC  H13Y 5108   1.177   0.129   4.756 -0.7032  1.1098 -1.2990
   63SAPC  C314 5109   1.331   0.248   4.852  1.1598 -0.0411 -0.3703
   63SAPC  H14X 5110   1.364   0.156   4.904 -0.3459 -1.5313 -1.9297
   63SAPC  H14Y 5111   1.328   0.334   4.922 -0.0987 -0.2417 -0.1504
   63SAPC  C315 5112   1.423   0.292   4.741 -0.1031 -0.4426 -0.1072
   63SAPC  H15X 5113   1.529   0.303   4.771  0.2070  2.1273 -1.8219
   63SAPC  H15Y 5114   1.385   0.389   4.704  0.9559  0.4377  1.0467
   63SAPC  C316 5115   1.428   0.197   4.618  0.5741  0.3922 -0.3613
   63SAPC  H16X 5116   1.322   0.178   4.589  0.7788 -0.8971 -0.3305
   63SAPC  H16Y 5117   1.477   0.102   4.648  0.2918  0.6492  0.9868
   63SAPC  C317 5118   1.500   0.248   4.494  0.3010  0.0391  0.7594
   63SAPC  H17X 5119   1.463   0.349   4.466  2.8621  1.1441  1.0564
   63SAPC  H17Y 5120   1.480   0.176   4.412 -0.0235  1.7595 -0.7314
   63SAPC  C318 5121   1.650   0.257   4.512 -0.3035  0.4658  0.4744
   63SAPC  H18X 5122   1.713   0.249   4.421  4.0698 -1.7017  3.3393
   63SAPC  H18Y 5123   1.683   0.167   4.568  3.2379  2.2018  1.5033
   63SAPC  H18Z 5124   1.669   0.356   4.561  0.3686  0.1778  0.8146
   64SAPC     N 5125   1.730   1.433   6.551  0.4090 -0.8209  0.3755
   64SAPC   C12 5126   1.650   1.487   6.430  0.0244  0.1952  0.3727
   64SAPC  H12A 5127   1.690   1.442   6.341 -1.9379 -2.5686  0.7605
   64SAPC  H12B 5128   1.672   1.593   6.422  1.3960 -0.2381 -2.3361
   64SAPC   C13 5129   1.876   1.411   6.528  0.7041  0.1427 -0.4177
   64SAPC  H13A 5130   1.899   1.347   6.444 -0.0060 -2.0871  1.0119
   64SAPC  H13B 5131   1.936   1.501   6.525  1.6247 -0.4775 -1.2556
   64SAPC  H13C 5132   1.898   1.348   6.613 -2.8756  1.1014  1.4376
   64SAPC   C14 5133   1.724   1.517   6.670  0.8554  0.1984 -0.0020
   64SAPC  H14A 5134   1.772   1.462   6.750 -0.9379  0.8173  1.5763
   64SAPC  H14B 5135   1.769   1.615   6.656  2.1091 -0.1011  1.6389
   64SAPC  H14C 5136   1.625   1.531   6.711  1.2914  0.7634  0.8997
   64SAPC   C15 5137   1.673   1.297   6.579 -0.2388  0.2880  0.2196
   64SAPC  H15A 5138   1.580   1.310   6.633 -0.9743 -0.5942 -0.7967
   64SAPC  H15B 5139   1.655   1.253   6.482 -3.0355 -0.3639  0.9298
   64SAPC  H15C 5140   1.742   1.247   6.645 -1.1311  1.6779  2.3070
   64SAPC   C11 5141   1.495   1.476   6.425  0.2753 -0.5554 -0.5238
   64SAPC  H11A 5142   1.452   1.378   6.456  0.5525 -0.2455  0.9442
   64SAPC  H11B 5143   1.472   1.520   6.326  0.1865  4.2205  1.3563
   64SAPC     P 5144   1.304   1.565   6.589  0.2972  0.2575  0.0163
   64SAPC   O13 5145   1.311   1.441   6.673  0.3532 -0.4052 -0.1514
   64SAPC   O14 5146   1.283   1.701   6.655  0.4499  0.2716  0.4762
   64SAPC   O12 5147   1.440   1.580   6.504 -0.0915 -0.5180 -0.3896
   64SAPC   O11 5148   1.200   1.539   6.469 -0.0555 -0.3496 -0.4141
   64SAPC    C1 5149   1.161   1.651   6.380 -0.7580  0.5159 -0.4026
   64SAPC    HA 5150   1.115   1.729   6.444  0.6140  0.6835  0.4222
   64SAPC    HB 5151   1.259   1.696   6.352 -0.2472  0.4113  1.1238
   64SAPC    C2 5152   1.078   1.615   6.250  0.4638  0.6026 -0.7719
   64SAPC    HS 5153   1.073   1.717   6.207  0.1065  1.1057  0.3989
   64SAPC   O21 5154   0.943   1.574   6.290  0.1776  0.0750 -0.0700
   64SAPC   C21 5155   0.852   1.593   6.201  0.1603  0.4124  0.1655
   64SAPC   O22 5156   0.875   1.652   6.098  0.3487 -0.4284  0.4793
   64SAPC   C22 5157   0.717   1.544   6.248  0.0309  0.2218  0.6323
   64SAPC   H2R 5158   0.727   1.433   6.255  0.7598  0.0076 -2.4392
   64SAPC   H2S 5159   0.702   1.579   6.353  0.8665  0.0897  0.8080
   64SAPC    C3 5160   1.137   1.505   6.163 -0.3515  0.0436  0.0020
   64SAPC    HX 5161   1.125   1.407   6.214 -0.2534  0.0530  0.0445
   64SAPC    HY 5162   1.246   1.527   6.163  0.0295 -1.6885 -0.6992
   64SAPC   O31 5163   1.072   1.485   6.033 -0.0049 -0.6992  0.8659
   64SAPC   C31 5164   1.094   1.574   5.945 -0.3859 -0.1910 -0.0608
   64SAPC   O32 5165   1.150   1.684   5.960 -0.4631  0.3701 -0.7818
   64SAPC   C32 5166   1.032   1.529   5.818  0.3873  0.1688 -0.4140
   64SAPC   H2X 5167   0.934   1.578   5.801  0.0865 -0.4003 -0.3182
   64SAPC   H2Y 5168   1.022   1.419   5.828  2.7372 -0.1030 -0.4184
   64SAPC   C23 5169   0.596   1.573   6.155 -0.4977  0.0806 -0.1845
   64SAPC   H3R 5170   0.600   1.675   6.110 -0.5867  1.5303  2.8921
   64SAPC   H3S 5171   0.504   1.592   6.213  0.6324  0.8008  1.4667
   64SAPC   C24 5172   0.576   1.454   6.054 -0.6439  0.0891 -0.2801
   64SAPC   H4R 5173   0.539   1.370   6.116 -1.2429  0.4757 -0.1035
   64SAPC   H4S 5174   0.677   1.429   6.014 -0.7796  3.4509 -3.2495
   64SAPC   C25 5175   0.485   1.495   5.943  0.5554 -0.5624 -0.1486
   64SAPC   H5R 5176   0.385   1.509   5.987  0.6448 -2.6070  0.7880
   64SAPC   C26 5177   0.511   1.514   5.813  0.0036 -0.4612 -0.2316
   64SAPC   H6R 5178   0.430   1.541   5.744  1.1493 -1.1058 -1.9002
   64SAPC   C27 5179   0.652   1.507   5.745  0.0971 -0.0900  1.0052
   64SAPC   H7R 5180   0.678   1.403   5.714 -0.1599  0.9427 -3.3343
   64SAPC   H7S 5181   0.729   1.525   5.823  1.6085 -0.5110 -0.3357
   64SAPC   C28 5182   0.676   1.608   5.636 -0.3053 -0.2094 -0.7054
   64SAPC   H8R 5183   0.674   1.713   5.667  0.6133 -0.6058  0.8036
   64SAPC   C29 5184   0.681   1.582   5.507  0.3526  0.3431  0.1881
   64SAPC   H9R 5185   0.702   1.674   5.452 -0.4217  1.7977  2.2129
   64SAPC  C210 5186   0.655   1.452   5.434  0.3961  0.2477  0.3170
   64SAPC  H10R 5187   0.617   1.368   5.495 -0.4685  0.8979  0.7030
   64SAPC  H10S 5188   0.745   1.420   5.378 -1.3599 -1.5348 -1.6345
   64SAPC  C211 5189   0.548   1.490   5.333 -0.4612 -0.6178  0.7440
   64SAPC  H11R 5190   0.447   1.515   5.370 -0.1522 -2.4446  3.0709
   64SAPC  C212 5191   0.560   1.518   5.197  0.0990  0.2500 -0.2642
   64SAPC  H12R 5192   0.465   1.530   5.142 -0.2523 -1.0936  0.0023
   64SAPC  C213 5193   0.685   1.502   5.113 -0.0307 -0.4003  0.0431
   64SAPC  H13R 5194   0.778   1.509   5.174  0.1185  1.5843 -0.3495
   64SAPC  H13S 5195   0.681   1.592   5.049 -2.1011 -0.6802 -0.2943
   64SAPC  C214 5196   0.682   1.371   5.044  0.0121  0.9732  0.2219
   64SAPC  H14R 5197   0.727   1.290   5.104 -2.2371 -1.0011 -0.5887
   64SAPC  C215 5198   0.640   1.339   4.922  1.1974  0.4304 -0.0546
   64SAPC  H15R 5199   0.657   1.235   4.890 -0.3654  0.4377 -0.9876
   64SAPC  C216 5200   0.580   1.425   4.819 -0.2696 -0.6534 -0.3462
   64SAPC  H16R 5201   0.534   1.518   4.858  0.7198  0.8669 -2.6230
   64SAPC  H16S 5202   0.495   1.372   4.770 -0.5403 -0.8979  0.3656
   64SAPC  C217 5203   0.679   1.469   4.708  0.2611  0.1682  0.2264
   64SAPC  H17R 5204   0.778   1.501   4.748  1.0867 -1.8617 -0.0883
   64SAPC  H17S 5205   0.631   1.554   4.655 -1.1467  1.3294  3.1434
   64SAPC  C218 5206   0.716   1.350   4.613  0.2351 -0.0565  0.0659
   64SAPC  H18R 5207   0.620   1.309   4.574 -0.6024  1.8614 -0.0459
   64SAPC  H18S 5208   0.770   1.278   4.676 -0.5566  0.7394  1.7178
   64SAPC  C219 5209   0.802   1.408   4.499 -0.1503 -0.9620  0.2890
   64SAPC  H19R 5210   0.906   1.433   4.531  0.6683 -0.7051 -2.2791
   64SAPC  H19S 5211   0.752   1.491   4.445  0.7895 -1.6407 -1.7340
   64SAPC  C220 5212   0.825   1.300   4.388 -0.4632  0.5172 -0.1737
   64SAPC  H20R 5213   0.851   1.202   4.432 -0.6515  0.5909  0.1048
   64SAPC  H20S 5214   0.898   1.324   4.308  2.0235 -0.0238  1.8308
   64SAPC  H20T 5215   0.720   1.284   4.356 -0.4173 -1.5906  0.5668
   64SAPC   C33 5216   1.126   1.564   5.702  0.1876 -0.6061  0.7802
   64SAPC   H3X 5217   1.235   1.542   5.711  0.5457  0.1446 -1.3905
   64SAPC   H3Y 5218   1.131   1.669   5.666  2.1253 -2.0006 -3.5875
   64SAPC   C34 5219   1.062   1.491   5.586  0.4429  0.1742 -0.3115
   64SAPC   H4X 5220   0.952   1.511   5.580  0.0604 -1.5492  0.3340
   64SAPC   H4Y 5221   1.061   1.381   5.604  3.8432  0.1700  0.4499
   64SAPC   C35 5222   1.119   1.530   5.453 -0.1189 -0.0146  0.8602
   64SAPC   H5X 5223   1.228   1.511   5.441  0.0792  0.6434  1.5964
   64SAPC   H5Y 5224   1.105   1.640   5.454 -1.8974 -0.2048  0.5197
   64SAPC   C36 5225   1.049   1.467   5.331 -0.2618  0.3373  0.2609
   64SAPC   H6X 5226   0.951   1.510   5.301 -0.4589 -1.0841 -1.2735
   64SAPC   H6Y 5227   1.027   1.360   5.355  2.5306 -0.3237  0.2153
   64SAPC   C37 5228   1.128   1.467   5.204 -0.0364  0.0183 -0.3337
   64SAPC   H7X 5229   1.214   1.399   5.223  1.1912  1.3570 -0.9130
   64SAPC   H7Y 5230   1.165   1.560   5.156 -0.7552 -0.8880 -2.8119
   64SAPC   C38 5231   1.056   1.389   5.094 -0.3686 -0.4110  0.1466
   64SAPC   H8X 5232   0.965   1.444   5.060 -0.3717  0.4832  1.5059
   64SAPC   H8Y 5233   1.023   1.294   5.141 -0.4763 -0.2297  0.4458
   64SAPC   C39 5234   1.144   1.351   4.975  0.5969 -0.2466 -0.3706
   64SAPC   H9X 5235   1.210   1.268   5.008 -0.2194 -1.3039 -1.2990
   64SAPC   H9Y 5236   1.195   1.446   4.946  0.2734  0.1206  0.2457
   64SAPC  C310 5237   1.070   1.288   4.861 -0.1405  0.0465  0.2277
   64SAPC  H10X 5238   0.978   1.347   4.840 -0.6774 -0.9808 -0.4018
   64SAPC  H10Y 5239   1.035   1.191   4.902  0.2310  1.3362  3.9283
   64SAPC  C311 5240   1.151   1.268   4.733  0.4186 -0.3690  0.2470
   64SAPC  H11X 5241   1.250   1.235   4.772  0.4964  0.2081  0.5359
   64SAPC  H11Y 5242   1.171   1.362   4.679  0.8313  0.4452  1.7642
   64SAPC  C312 5243   1.111   1.159   4.629  0.4720 -0.0308 -0.0794
   64SAPC  H12X 5244   1.011   1.182   4.588  0.5464  0.9748  0.2537
   64SAPC  H12Y 5245   1.101   1.068   4.692 -0.6189  1.6226  2.2783
   64SAPC  C313 5246   1.210   1.142   4.510  0.1456  0.0224 -0.3689
   64SAPC  H13X 5247   1.305   1.118   4.561  0.4537 -2.1714 -1.8074
   64SAPC  H13Y 5248   1.225   1.244   4.470 -0.1725  0.7169  1.2004
   64SAPC  C314 5249   1.168   1.034   4.407  0.1798 -0.0101 -0.3353
   64SAPC  H14X 5250   1.058   1.033   4.393  0.3116 -2.8450 -1.6668
   64SAPC  H14Y 5251   1.192   0.930   4.436 -0.2306 -1.0481 -3.3694
   64SAPC  C315 5252   1.235   1.064   4.272 -0.3144 -0.6573 -0.4894
   64SAPC  H15X 5253   1.345   1.054   4.277 -0.0835  1.0747 -1.4513
   64SAPC  H15Y 5254   1.220   1.172   4.254  0.4297 -0.2281  1.2942
   64SAPC  C316 5255   1.200   0.965   4.163  0.1843 -0.2195  0.6212
   64SAPC  H16X 5256   1.188   0.862   4.203  1.6978 -0.6598  0.0114
   64SAPC  H16Y 5257   1.274   0.966   4.081 -1.5462 -0.6825 -1.0367
   64SAPC  C317 5258   1.075   1.007   4.079  0.2126 -0.0472  0.1792
   64SAPC  H17X 5259   0.992   0.979   4.147  1.3779 -0.4888  1.4808
   64SAPC  H17Y 5260   1.075   0.958   3.980 -0.9056  0.5523 -0.1290
   64SAPC  C318 5261   1.056   1.159   4.045 -0.6358 -0.3071  0.4052
   64SAPC  H18X 5262   1.062   1.217   4.139 -0.3646 -1.4959  1.1334
   64SAPC  H18Y 5263   0.959   1.179   3.995  0.1628 -0.6407 -1.3716
   64SAPC  H18Z 5264   1.139   1.189   3.977 -1.4162 -0.7068 -0.7520
   65SAPC     N 5265   4.960   2.092   2.046  0.1784 -0.5609 -0.1644
   65SAPC   C12 5266   5.082   2.164   1.987 -0.9250 -0.4504 -0.1299
   65SAPC  H12A 5267   5.098   2.260   2.034  0.7389  0.2596 -2.0142
   65SAPC  H12B 5268   5.067   2.187   1.882 -0.1900  0.4610 -0.0531
   65SAPC   C13 5269   4.917   1.979   1.953 -0.1624  0.0932 -0.1855
   65SAPC  H13A 5270   4.993   1.904   1.942  0.4473  0.7522 -0.5952
   65SAPC  H13B 5271   4.826   1.939   1.997 -0.8728  1.6674 -0.1398
   65SAPC  H13C 5272   4.885   2.014   1.856 -0.7259  1.2409  0.3833
   65SAPC   C14 5273   4.996   2.037   2.180  0.0431  0.3853  0.1900
   65SAPC  H14A 5274   4.929   1.956   2.205  0.0041 -0.2501 -1.7934
   65SAPC  H14B 5275   5.097   1.999   2.168 -0.5811 -1.5092  0.5979
   65SAPC  H14C 5276   4.992   2.111   2.258 -1.6884 -0.8770  1.3704
   65SAPC   C15 5277   4.842   2.185   2.064 -0.3554 -0.4544 -0.0013
   65SAPC  H15A 5278   4.768   2.134   2.123  1.2704 -3.5616 -0.4279
   65SAPC  H15B 5279   4.870   2.288   2.080 -0.0081 -0.2937 -1.4984
   65SAPC  H15C 5280   4.789   2.197   1.971 -3.1372 -3.5183  0.9926
   65SAPC   C11 5281   5.209   2.086   1.990  0.2634 -0.1231 -0.2393
   65SAPC  H11A 5282   5.270   2.148   1.921  0.9047  0.2211  0.6041
   65SAPC  H11B 5283   5.195   1.984   1.950 -0.5992 -0.9741  2.0643
   65SAPC     P 5284   5.362   2.177   2.192  0.0379 -0.0952  0.0608
   65SAPC   O13 5285   5.494   2.177   2.123  0.4039 -0.5681 -0.0965
   65SAPC   O14 5286   5.285   2.301   2.207 -0.0278 -0.4857 -0.0852
   65SAPC   O12 5287   5.267   2.075   2.125 -0.2477  0.6770  0.0631
   65SAPC   O11 5288   5.388   2.108   2.329 -0.9659  0.7488 -0.0122
   65SAPC    C1 5289   5.421   1.967   2.348 -0.2011 -0.2149 -0.0133
   65SAPC    HA 5290   5.337   1.914   2.398  0.0585 -2.7162 -2.0417
   65SAPC    HB 5291   5.455   1.921   2.253  2.2239  0.3074  0.5179
   65SAPC    C2 5292   5.544   1.950   2.442 -0.3314 -0.2034 -0.0732
   65SAPC    HS 5293   5.540   1.844   2.475 -1.3219  0.0855  0.8135
   65SAPC   O21 5294   5.554   2.032   2.561 -0.6087 -0.2855  0.5168
   65SAPC   C21 5295   5.455   2.025   2.643  0.0577 -0.1517  0.4022
   65SAPC   O22 5296   5.363   1.950   2.638  0.7084 -0.3711  1.0205
   65SAPC   C22 5297   5.458   2.121   2.762  0.4033 -0.0140  0.2282
   65SAPC   H2R 5298   5.539   2.186   2.720  0.0650 -1.0346 -2.1672
   65SAPC   H2S 5299   5.367   2.184   2.752  0.4903 -0.2541 -4.6678
   65SAPC    C3 5300   5.677   1.956   2.358 -0.5062  0.3327 -0.4444
   65SAPC    HX 5301   5.647   2.012   2.267 -1.3811 -2.3208 -1.9020
   65SAPC    HY 5302   5.688   1.856   2.310 -3.3373  0.3133 -1.2458
   65SAPC   O31 5303   5.798   2.011   2.422  0.5960 -0.3326  0.0461
   65SAPC   C31 5304   5.847   1.943   2.523  0.9132  0.6272  0.5809
   65SAPC   O32 5305   5.804   1.843   2.578  0.2074 -0.1302  0.0979
   65SAPC   C32 5306   5.958   2.030   2.581 -0.1918 -0.4131  0.5555
   65SAPC   H2X 5307   5.946   2.137   2.555  0.3549 -0.4148  0.2904
   65SAPC   H2Y 5308   6.052   2.001   2.529 -1.2764  0.1974 -1.8620
   65SAPC   C23 5309   5.495   2.061   2.901  0.0150 -0.4073 -0.4516
   65SAPC   H3R 5310   5.526   2.149   2.962 -1.1800 -0.7902  0.7695
   65SAPC   H3S 5311   5.579   1.993   2.878 -2.0052 -3.0438 -0.4888
   65SAPC   C24 5312   5.379   1.986   2.965 -0.2284 -0.3722 -0.6657
   65SAPC   H4R 5313   5.387   1.890   2.909  2.8920 -0.3512 -0.4567
   65SAPC   H4S 5314   5.283   2.038   2.949 -1.8235 -3.5871 -2.5600
   65SAPC   C25 5315   5.412   1.972   3.115  0.2900  0.1482 -0.1353
   65SAPC   H5R 5316   5.477   1.888   3.144 -0.6278 -0.5115  0.0554
   65SAPC   C26 5317   5.401   2.078   3.203 -0.2878  0.6205 -0.1371
   65SAPC   H6R 5318   5.444   2.069   3.304 -1.0404  1.7485  0.3039
   65SAPC   C27 5319   5.338   2.213   3.181 -0.0570  0.4200 -0.3655
   65SAPC   H7R 5320   5.239   2.222   3.231 -0.0128  0.5087 -0.2939
   65SAPC   H7S 5321   5.295   2.217   3.078 -0.8155 -2.8116 -0.2954
   65SAPC   C28 5322   5.434   2.321   3.212  0.7443  0.2206  0.1207
   65SAPC   H8R 5323   5.537   2.286   3.228  0.0984 -1.4947  0.8325
   65SAPC   C29 5324   5.398   2.447   3.234 -0.7877 -0.5999 -0.1683
   65SAPC   H9R 5325   5.476   2.521   3.258 -1.9927  1.0751 -1.1332
   65SAPC  C210 5326   5.257   2.506   3.225 -0.2989  0.5653  0.2710
   65SAPC  H10R 5327   5.188   2.447   3.288  0.1056 -0.3521 -0.1198
   65SAPC  H10S 5328   5.222   2.501   3.120 -2.5501  0.1241  0.9882
   65SAPC  C211 5329   5.242   2.654   3.260 -0.2579 -0.1168 -0.7919
   65SAPC  H11R 5330   5.189   2.700   3.176 -1.5641 -1.7267 -0.8991
   65SAPC  C212 5331   5.287   2.720   3.372  1.0846  0.2169 -0.8562
   65SAPC  H12R 5332   5.274   2.829   3.382 -0.6689 -0.1424  1.4970
   65SAPC  C213 5333   5.370   2.657   3.480  0.2768 -0.0792 -0.8931
   65SAPC  H13R 5334   5.473   2.644   3.443  0.2419 -0.4619 -0.8673
   65SAPC  H13S 5335   5.317   2.562   3.506 -1.0883  0.4498 -1.6216
   65SAPC  C214 5336   5.347   2.733   3.612 -0.7220  1.1937  0.4321
   65SAPC  H14R 5337   5.242   2.722   3.644 -0.2361 -2.0822  1.2864
   65SAPC  C215 5338   5.445   2.784   3.692 -0.2575  0.5744 -0.1262
   65SAPC  H15R 5339   5.420   2.851   3.776 -1.2251 -1.0318  0.9082
   65SAPC  C216 5340   5.597   2.786   3.665 -0.5844  0.0743 -0.1841
   65SAPC  H16R 5341   5.623   2.888   3.627 -2.3401  0.7075  0.2351
   65SAPC  H16S 5342   5.627   2.710   3.590  0.4240 -0.1283  0.3969
   65SAPC  C217 5343   5.676   2.759   3.792  0.2219  0.5337  0.3345
   65SAPC  H17R 5344   5.640   2.820   3.877  0.0397  1.0999 -0.1417
   65SAPC  H17S 5345   5.786   2.770   3.782  0.3867 -1.9791 -1.5804
   65SAPC  C218 5346   5.664   2.608   3.825 -0.2495 -0.2185 -0.3277
   65SAPC  H18R 5347   5.683   2.559   3.727  1.0946 -1.1794  0.3927
   65SAPC  H18S 5348   5.567   2.577   3.869 -0.0474  0.7949  0.9087
   65SAPC  C219 5349   5.775   2.567   3.917  0.0996  0.3541 -0.0286
   65SAPC  H19R 5350   5.874   2.595   3.875  0.1840 -2.1205 -1.7053
   65SAPC  H19S 5351   5.776   2.456   3.912  1.7001  0.3914 -1.1564
   65SAPC  C220 5352   5.771   2.602   4.071  0.9291  0.0468  0.5140
   65SAPC  H20R 5353   5.869   2.570   4.112  1.9550  1.6882 -0.5393
   65SAPC  H20S 5354   5.683   2.546   4.110  0.8546 -0.6327 -0.5866
   65SAPC  H20T 5355   5.752   2.711   4.075  0.2237  0.0855 -2.0042
   65SAPC   C33 5356   5.989   1.993   2.727  0.5200 -0.2169 -1.3975
   65SAPC   H3X 5357   6.086   2.035   2.761  0.1655 -0.1484 -0.4249
   65SAPC   H3Y 5358   6.001   1.882   2.736  3.1919  0.1506  0.9851
   65SAPC   C34 5359   5.879   2.024   2.824  0.2944  0.0725 -0.4608
   65SAPC   H4X 5360   5.790   1.957   2.827  0.9746 -0.8172  0.6726
   65SAPC   H4Y 5361   5.840   2.127   2.807 -0.4792 -0.3651 -1.4173
   65SAPC   C35 5362   5.938   2.044   2.967 -0.5249 -0.1396 -0.0156
   65SAPC   H5X 5363   6.026   2.114   2.968 -2.0027  1.8056  0.6255
   65SAPC   H5Y 5364   5.969   1.942   2.999  1.2870 -0.1295 -1.5573
   65SAPC   C36 5365   5.826   2.077   3.067 -0.8661  0.1207 -0.7966
   65SAPC   H6X 5366   5.752   1.995   3.059  1.2442 -1.8168 -1.5239
   65SAPC   H6Y 5367   5.774   2.170   3.035 -0.8727  1.4295  2.5689
   65SAPC   C37 5368   5.880   2.098   3.202 -0.8002 -0.1324 -0.0225
   65SAPC   H7X 5369   5.943   2.190   3.200 -1.0967  0.0578 -1.5925
   65SAPC   H7Y 5370   5.948   2.014   3.231 -1.6370 -0.6167  0.5957
   65SAPC   C38 5371   5.771   2.127   3.301  1.0990 -0.2841 -1.8110
   65SAPC   H8X 5372   5.692   2.050   3.312 -2.2486  3.1901  0.7853
   65SAPC   H8Y 5373   5.714   2.220   3.279 -1.2692 -1.4227 -0.7405
   65SAPC   C39 5374   5.840   2.151   3.443 -0.1013  0.1714  0.1102
   65SAPC   H9X 5375   5.922   2.226   3.432  0.8811 -0.5049  2.2816
   65SAPC   H9Y 5376   5.875   2.053   3.482 -2.2722 -0.0719  1.6065
   65SAPC  C310 5377   5.743   2.195   3.554  0.7376  0.4412  0.6935
   65SAPC  H10X 5378   5.646   2.141   3.561 -0.0424  0.9886 -3.4278
   65SAPC  H10Y 5379   5.719   2.302   3.539  1.6786  0.4661 -0.7317
   65SAPC  C311 5380   5.808   2.201   3.691  0.3905  0.2152  0.1704
   65SAPC  H11X 5381   5.760   2.269   3.765  2.0479  0.1154  1.3826
   65SAPC  H11Y 5382   5.915   2.228   3.681  0.8643 -1.5023  0.2374
   65SAPC  C312 5383   5.816   2.060   3.756  0.2856 -0.2398  0.5916
   65SAPC  H12X 5384   5.884   1.994   3.698 -1.7635 -0.3557 -1.8524
   65SAPC  H12Y 5385   5.711   2.024   3.763 -0.1811  0.9614  0.0610
   65SAPC  C313 5386   5.875   2.065   3.901 -0.2176 -0.0137  0.7092
   65SAPC  H13X 5387   5.982   2.093   3.887 -0.0645 -1.1283 -0.6459
   65SAPC  H13Y 5388   5.868   1.961   3.940 -1.9734  0.3328  1.3850
   65SAPC  C314 5389   5.792   2.158   3.990 -0.2492  0.5985 -0.5386
   65SAPC  H14X 5390   5.689   2.180   3.954 -0.9977  0.1598  1.2174
   65SAPC  H14Y 5391   5.842   2.254   4.015  0.5973  0.0176  0.0600
   65SAPC  C315 5392   5.775   2.083   4.125  0.6748 -0.7607  0.1799
   65SAPC  H15X 5393   5.867   2.083   4.188 -0.0089  1.2954  1.2864
   65SAPC  H15Y 5394   5.748   1.978   4.101  1.6280 -0.6682 -1.4510
   65SAPC  C316 5395   5.666   2.138   4.208  0.4922  0.0471  0.2512
   65SAPC  H16X 5396   5.570   2.166   4.159  0.0661 -1.1861  0.3356
   65SAPC  H16Y 5397   5.713   2.227   4.256  0.9861 -0.4611  0.7134
   65SAPC  C317 5398   5.613   2.045   4.327  0.2255 -0.0714  1.0995
   65SAPC  H17X 5399   5.576   1.952   4.279 -2.5873  2.1318 -1.3650
   65SAPC  H17Y 5400   5.531   2.104   4.373  0.1480  0.3773  0.3961
   65SAPC  C318 5401   5.717   2.000   4.430  0.4246  0.4895 -0.2322
   65SAPC  H18X 5402   5.769   1.906   4.400 -0.2606 -0.1262  0.4748
   65SAPC  H18Y 5403   5.656   1.986   4.522  0.5391  2.5159  0.2091
   65SAPC  H18Z 5404   5.786   2.087   4.442 -0.9450  1.3639  1.8671
   66SAPC     N 5405   3.340   4.096   1.931 -0.8655  0.1844 -0.2314
   66SAPC   C12 5406   3.410   3.966   1.986 -0.5984  0.0173  0.4920
   66SAPC  H12A 5407   3.517   3.967   1.978 -0.7333 -0.7031 -2.9309
   66SAPC  H12B 5408   3.397   3.884   1.916  1.2197  0.5324 -0.5170
   66SAPC   C13 5409   3.190   4.088   1.962  0.3296 -0.2575 -0.3172
   66SAPC  H13A 5410   3.165   4.192   1.976  1.4409 -0.0085 -0.0556
   66SAPC  H13B 5411   3.131   4.040   1.885 -1.0073  2.0136 -0.7973
   66SAPC  H13C 5412   3.178   4.035   2.055 -0.0608 -2.4252 -1.5283
   66SAPC   C14 5413   3.409   4.213   1.998 -0.0772  0.3267 -0.1725
   66SAPC  H14A 5414   3.360   4.222   2.093 -0.5371  0.7671 -0.4455
   66SAPC  H14B 5415   3.516   4.202   2.008 -0.1451 -0.4305 -0.2274
   66SAPC  H14C 5416   3.386   4.306   1.949  1.4310 -0.3029 -2.2095
   66SAPC   C15 5417   3.356   4.112   1.782  0.5858  0.2793 -0.0152
   66SAPC  H15A 5418   3.282   4.183   1.746 -0.0234 -0.0084  0.6335
   66SAPC  H15B 5419   3.455   4.149   1.759  0.0058  1.9910  0.0582
   66SAPC  H15C 5420   3.333   4.019   1.733  1.7640  0.5661 -1.1328
   66SAPC   C11 5421   3.377   3.917   2.123  0.5603 -0.4769  0.2387
   66SAPC  H11A 5422   3.417   3.816   2.146 -0.8521 -0.8763  1.0362
   66SAPC  H11B 5423   3.267   3.901   2.121  0.2557  1.4485 -0.4608
   66SAPC     P 5424   3.578   3.979   2.279  0.5229  0.0542 -0.0530
   66SAPC   O13 5425   3.647   3.892   2.187  0.3892 -0.2507  0.0648
   66SAPC   O14 5426   3.639   4.108   2.309 -0.1550 -0.2017  0.6473
   66SAPC   O12 5427   3.429   4.004   2.227  0.0429 -0.1732 -0.5450
   66SAPC   O11 5428   3.569   3.904   2.411  0.3696 -0.4013  0.0830
   66SAPC    C1 5429   3.459   3.825   2.456  0.5293 -0.4499  0.2965
   66SAPC    HA 5430   3.407   3.772   2.373  2.3534 -1.9084  0.0374
   66SAPC    HB 5431   3.504   3.738   2.510 -0.6789  0.2073  2.4962
   66SAPC    C2 5432   3.362   3.910   2.550 -0.1289 -0.4519  0.5110
   66SAPC    HS 5433   3.290   3.950   2.475 -0.1154 -3.5735 -1.3319
   66SAPC   O21 5434   3.430   4.008   2.637 -0.2048 -0.4320 -0.0037
   66SAPC   C21 5435   3.371   4.117   2.660 -0.1835  0.7514  0.2617
   66SAPC   O22 5436   3.267   4.149   2.601 -0.0528 -0.8423 -0.3604
   66SAPC   C22 5437   3.437   4.189   2.774  0.1477 -0.4544  0.3274
   66SAPC   H2R 5438   3.445   4.131   2.868 -0.8654  0.8941  1.2824
   66SAPC   H2S 5439   3.530   4.232   2.732  0.0997  1.4108  2.0218
   66SAPC    C3 5440   3.276   3.825   2.642  0.3540  0.4614  0.1529
   66SAPC    HX 5441   3.334   3.762   2.713 -2.2920 -1.5731  0.6685
   66SAPC    HY 5442   3.229   3.754   2.571  2.4792 -1.2137  0.3168
   66SAPC   O31 5443   3.175   3.898   2.723 -0.1635  0.1847 -0.2673
   66SAPC   C31 5444   3.081   3.826   2.783  0.1143 -0.8582  0.2727
   66SAPC   O32 5445   3.070   3.706   2.769  0.3471 -0.3045 -0.4540
   66SAPC   C32 5446   2.988   3.917   2.864 -0.2984  0.2582 -0.4112
   66SAPC   H2X 5447   2.891   3.871   2.837 -0.0347 -0.5599  0.0101
   66SAPC   H2Y 5448   2.996   4.025   2.840  1.5700  0.0093 -1.0637
   66SAPC   C23 5449   3.348   4.303   2.815  0.8409  0.2728 -0.3938
   66SAPC   H3R 5450   3.337   4.378   2.734 -0.5217 -0.1485 -0.6206
   66SAPC   H3S 5451   3.404   4.361   2.891 -0.9711  0.9309  0.5148
   66SAPC   C24 5452   3.214   4.272   2.887  0.2724  0.2545  0.7079
   66SAPC   H4R 5453   3.228   4.201   2.971 -2.1277 -0.0852  0.8779
   66SAPC   H4S 5454   3.140   4.228   2.817  0.8919  0.9714 -0.4331
   66SAPC   C25 5455   3.162   4.404   2.936  0.3085  0.0432  0.9581
   66SAPC   H5R 5456   3.108   4.460   2.858 -0.8415 -0.5838  1.2897
   66SAPC   C26 5457   3.179   4.458   3.057 -0.6006 -0.0565 -1.1023
   66SAPC   H6R 5458   3.131   4.555   3.078  0.1833  0.5673 -2.0930
   66SAPC   C27 5459   3.254   4.393   3.177 -0.6407 -0.3445 -0.5310
   66SAPC   H7R 5460   3.332   4.325   3.138 -0.4591 -0.0128 -0.7552
   66SAPC   H7S 5461   3.174   4.340   3.232 -0.8906  1.7235  1.2622
   66SAPC   C28 5462   3.329   4.485   3.270  1.0414 -0.0506  0.0397
   66SAPC   H8R 5463   3.405   4.544   3.215  1.3301 -1.3091 -0.9497
   66SAPC   C29 5464   3.297   4.513   3.398 -0.6231  0.5650  0.1522
   66SAPC   H9R 5465   3.369   4.589   3.432  0.0295  0.1955 -0.3682
   66SAPC  C210 5466   3.203   4.454   3.497 -0.5914  0.8024  0.3612
   66SAPC  H10R 5467   3.265   4.397   3.569 -0.0923  1.1036  0.1734
   66SAPC  H10S 5468   3.140   4.377   3.446 -1.4542  0.3732  2.0225
   66SAPC  C211 5469   3.118   4.551   3.568 -0.1217  0.4709 -0.4800
   66SAPC  H11R 5470   3.152   4.654   3.586  0.5761  0.0749  0.5515
   66SAPC  C212 5471   2.987   4.542   3.589 -0.6284 -0.0781  0.3980
   66SAPC  H12R 5472   2.929   4.619   3.642 -0.9243  1.2670 -1.7495
   66SAPC  C213 5473   2.906   4.418   3.567 -0.4230 -0.1272 -0.6823
   66SAPC  H13R 5474   2.968   4.334   3.530  1.6291  0.3918  1.3420
   66SAPC  H13S 5475   2.823   4.451   3.500 -2.1419 -1.0519  0.8959
   66SAPC  C214 5476   2.844   4.369   3.691  0.4469  0.0619  0.2247
   66SAPC  H14R 5477   2.755   4.424   3.725 -0.2851 -1.4704  0.8880
   66SAPC  C215 5478   2.883   4.274   3.774  1.2722 -0.6163 -0.9325
   66SAPC  H15R 5479   2.809   4.261   3.855  0.2169 -0.9959 -1.9381
   66SAPC  C216 5480   3.008   4.186   3.776  0.0782 -0.2091  0.3789
   66SAPC  H16R 5481   3.067   4.212   3.685 -1.3141  0.8786 -0.2582
   66SAPC  H16S 5482   2.972   4.082   3.762 -0.6110 -0.0115  0.6452
   66SAPC  C217 5483   3.093   4.181   3.904 -0.2368 -0.4140  1.3835
   66SAPC  H17R 5484   3.121   4.285   3.933 -1.4650 -0.0381  1.2829
   66SAPC  H17S 5485   3.184   4.126   3.872 -0.2972  0.4160 -0.3294
   66SAPC  C218 5486   3.026   4.110   4.026 -0.2570  0.1205  0.6189
   66SAPC  H18R 5487   2.940   4.171   4.061 -0.4883  0.1923 -0.0575
   66SAPC  H18S 5488   3.109   4.109   4.099  2.4454  0.3525 -2.2459
   66SAPC  C219 5489   2.992   3.963   3.998 -0.0553  0.7395 -0.3613
   66SAPC  H19R 5490   3.078   3.901   3.966 -0.3277  0.9218 -1.4890
   66SAPC  H19S 5491   2.923   3.950   3.912 -0.0451  0.1153 -0.2764
   66SAPC  C220 5492   2.924   3.896   4.117  0.0633  0.2922  0.7280
   66SAPC  H20R 5493   2.998   3.872   4.197  0.3897 -1.6007 -0.0666
   66SAPC  H20S 5494   2.875   3.799   4.094  0.2060  0.5268 -0.6772
   66SAPC  H20T 5495   2.846   3.964   4.155 -1.2641  1.1857 -3.0812
   66SAPC   C33 5496   3.006   3.893   3.007 -0.9372 -0.4722 -0.8624
   66SAPC   H3X 5497   3.008   3.783   3.024 -0.2618 -0.4197 -0.5731
   66SAPC   H3Y 5498   2.917   3.938   3.055 -2.3526 -1.2827 -2.5934
   66SAPC   C34 5499   3.129   3.961   3.063 -0.5754  0.1068 -0.3118
   66SAPC   H4X 5500   3.125   4.071   3.049  0.9635  0.0254 -1.7061
   66SAPC   H4Y 5501   3.225   3.926   3.019 -1.1191 -0.6041 -0.9493
   66SAPC   C35 5502   3.133   3.923   3.216  0.0619 -0.2584 -0.4892
   66SAPC   H5X 5503   3.120   3.820   3.253 -0.5438 -0.5011 -1.3593
   66SAPC   H5Y 5504   3.054   3.984   3.264  1.3379  1.2252 -0.1756
   66SAPC   C36 5505   3.269   3.964   3.283  0.1052 -0.2269 -0.0977
   66SAPC   H6X 5506   3.304   4.053   3.226  1.3253 -0.0771  0.8401
   66SAPC   H6Y 5507   3.346   3.887   3.262  1.2565  0.9732 -0.4610
   66SAPC   C37 5508   3.250   3.978   3.436  0.1953  0.1178  0.5003
   66SAPC   H7X 5509   3.169   4.049   3.463  0.3225  0.3034  0.4018
   66SAPC   H7Y 5510   3.339   4.036   3.472  1.1246 -0.1866 -1.2384
   66SAPC   C38 5511   3.223   3.850   3.509 -0.1848 -0.2220  0.9157
   66SAPC   H8X 5512   3.312   3.785   3.498  0.4784  0.5548  1.5499
   66SAPC   H8Y 5513   3.122   3.811   3.483 -1.4880  3.5507 -0.4176
   66SAPC   C39 5514   3.222   3.880   3.665  0.3729 -0.6840  1.2701
   66SAPC   H9X 5515   3.139   3.952   3.683  0.7456 -0.4769  2.2170
   66SAPC   H9Y 5516   3.319   3.931   3.686 -0.5359  1.3804  0.7053
   66SAPC  C310 5517   3.213   3.752   3.751 -0.6070 -0.4974 -0.0612
   66SAPC  H10X 5518   3.240   3.776   3.856  1.3606 -3.8476  0.3341
   66SAPC  H10Y 5519   3.295   3.683   3.722 -0.3765 -0.4739  0.5127
   66SAPC  C311 5520   3.084   3.672   3.745 -0.1225 -0.7901  0.1138
   66SAPC  H11X 5521   3.058   3.661   3.638 -2.1605  3.2579  0.0158
   66SAPC  H11Y 5522   3.009   3.741   3.788 -0.3869 -1.4569  0.7507
   66SAPC  C312 5523   3.080   3.537   3.826 -0.2852  0.1815  0.0796
   66SAPC  H12X 5524   3.157   3.470   3.783 -0.4334  1.0861 -1.6898
   66SAPC  H12Y 5525   2.985   3.484   3.805  0.4274 -0.8042 -0.7653
   66SAPC  C313 5526   3.093   3.550   3.982  0.2754  0.1579 -0.6889
   66SAPC  H13X 5527   3.028   3.636   4.008  0.9646  0.1148  1.3479
   66SAPC  H13Y 5528   3.194   3.579   4.017 -0.0581 -1.0970  1.5044
   66SAPC  C314 5529   3.036   3.430   4.061 -0.1359 -1.0953  0.6359
   66SAPC  H14X 5530   3.079   3.332   4.030 -0.6232 -0.3819 -2.5268
   66SAPC  H14Y 5531   2.928   3.438   4.035  0.0400  0.6871  0.3713
   66SAPC  C315 5532   3.046   3.451   4.220  0.1906  0.6466 -0.1159
   66SAPC  H15X 5533   3.056   3.557   4.250  0.5950  0.0424  2.1065
   66SAPC  H15Y 5534   3.142   3.400   4.246 -0.6622 -1.6316 -1.1860
   66SAPC  C316 5535   2.922   3.387   4.293 -0.0147 -0.3857  0.2518
   66SAPC  H16X 5536   2.928   3.282   4.257 -1.2310 -0.0363 -1.0278
   66SAPC  H16Y 5537   2.831   3.432   4.249  0.0831 -1.1586 -0.7709
   66SAPC  C317 5538   2.908   3.411   4.447  0.1266  0.0843  0.2803
   66SAPC  H17X 5539   2.834   3.490   4.470  1.7064  1.8884 -0.5888
   66SAPC  H17Y 5540   3.005   3.439   4.493  0.8522 -2.2537  0.3257
   66SAPC  C318 5541   2.883   3.279   4.512 -0.3247  0.0764  0.3797
   66SAPC  H18X 5542   2.971   3.211   4.501  0.9941  1.5308  1.4776
   66SAPC  H18Y 5543   2.797   3.231   4.461  0.9274 -0.2007 -1.5614
   66SAPC  H18Z 5544   2.861   3.291   4.620 -3.3427 -0.9534 -0.0220
   67SAPC     N 5545   4.452   4.122   2.089  0.3339 -0.5044 -0.0914
   67SAPC   C12 5546   4.540   4.114   2.218 -0.0822 -0.4246  1.1812
   67SAPC  H12A 5547   4.510   4.021   2.264 -2.2294 -0.9777 -1.1290
   67SAPC  H12B 5548   4.506   4.195   2.280 -1.2823  0.2685 -0.3150
   67SAPC   C13 5549   4.313   4.133   2.122 -0.2881  0.3580  0.6727
   67SAPC  H13A 5550   4.280   4.216   2.183 -3.4334  0.3857 -0.8250
   67SAPC  H13B 5551   4.248   4.132   2.035  0.3149 -1.4436  0.2056
   67SAPC  H13C 5552   4.294   4.046   2.182  1.8742 -0.3672  0.3851
   67SAPC   C14 5553   4.474   4.239   2.008 -0.5666 -0.3919  0.2863
   67SAPC  H14A 5554   4.453   4.330   2.063 -0.7872 -0.4444  0.2892
   67SAPC  H14B 5555   4.571   4.244   1.961  0.4869 -2.7129  2.0244
   67SAPC  H14C 5556   4.397   4.243   1.932 -0.1784  1.4339 -0.0612
   67SAPC   C15 5557   4.472   4.003   2.008 -0.1681  0.0295 -0.0430
   67SAPC  H15A 5558   4.421   3.916   2.047 -1.5942  0.4152 -0.9766
   67SAPC  H15B 5559   4.436   4.031   1.910  0.5589  1.0207 -0.0363
   67SAPC  H15C 5560   4.578   3.981   2.017 -0.2854 -0.5367  0.0142
   67SAPC   C11 5561   4.693   4.118   2.207 -0.1725  0.3472  0.0813
   67SAPC  H11A 5562   4.747   4.122   2.304  1.1696 -2.7404 -0.4158
   67SAPC  H11B 5563   4.706   4.213   2.151  1.4949  0.2394  0.2584
   67SAPC     P 5564   4.756   3.874   2.190 -0.2769  0.1975  0.0555
   67SAPC   O13 5565   4.632   3.823   2.254 -0.0163 -0.1820  0.7550
   67SAPC   O14 5566   4.826   3.782   2.096  0.0034  0.2502 -0.2498
   67SAPC   O12 5567   4.747   4.014   2.128 -0.8328  0.2142 -0.0851
   67SAPC   O11 5568   4.856   3.910   2.303 -0.0154 -0.0832 -0.4155
   67SAPC    C1 5569   4.992   3.944   2.277 -0.3187 -0.2463 -0.2868
   67SAPC    HA 5570   5.025   3.896   2.182 -0.7387  0.1117 -0.6212
   67SAPC    HB 5571   5.000   4.054   2.257  2.2127 -0.5510 -1.4006
   67SAPC    C2 5572   5.088   3.918   2.394 -0.1493 -0.1391  0.3736
   67SAPC    HS 5573   5.099   3.808   2.386 -0.1712 -0.2042  1.1105
   67SAPC   O21 5574   5.020   3.957   2.515 -0.2570 -0.6068  0.3206
   67SAPC   C21 5575   5.022   3.880   2.620 -0.3895 -0.7196  0.8097
   67SAPC   O22 5576   5.070   3.766   2.620  0.6531 -0.1219 -0.0437
   67SAPC   C22 5577   4.982   3.956   2.742 -0.1720  0.4883 -0.1675
   67SAPC   H2R 5578   5.068   4.008   2.789  0.1158 -1.4828  1.7014
   67SAPC   H2S 5579   4.903   4.030   2.717 -1.8139 -0.7930  0.9391
   67SAPC    C3 5580   5.224   3.980   2.382  0.4930  0.1529 -0.1743
   67SAPC    HX 5581   5.227   4.090   2.365  0.1314  0.0064 -1.2290
   67SAPC    HY 5582   5.271   3.929   2.295  0.1896  0.4957 -0.5379
   67SAPC   O31 5583   5.311   3.939   2.492  0.4111 -0.0030 -0.0487
   67SAPC   C31 5584   5.333   4.029   2.590 -0.5308 -0.2578  0.0842
   67SAPC   O32 5585   5.279   4.139   2.587  0.4192 -0.1361  0.1054
   67SAPC   C32 5586   5.428   3.981   2.697 -0.1418 -0.8238 -0.4103
   67SAPC   H2X 5587   5.515   3.936   2.645 -0.1655 -1.8676  0.4025
   67SAPC   H2Y 5588   5.390   3.894   2.755 -3.4087  0.6098 -0.1908
   67SAPC   C23 5589   4.932   3.859   2.854  0.8229 -0.3451 -0.4701
   67SAPC   H3R 5590   4.973   3.884   2.954 -0.9408  0.7881  0.0157
   67SAPC   H3S 5591   4.986   3.762   2.849  0.3033 -0.8744  2.5017
   67SAPC   C24 5592   4.781   3.847   2.857 -0.4856 -0.0945  0.4014
   67SAPC   H4R 5593   4.746   3.792   2.767 -0.4811  0.9744 -0.2580
   67SAPC   H4S 5594   4.746   3.951   2.847 -2.0645 -0.7356 -1.2804
   67SAPC   C25 5595   4.731   3.784   2.985  1.1632 -0.4435  0.5704
   67SAPC   H5R 5596   4.711   3.676   2.984  1.0211 -0.4244 -0.9256
   67SAPC   C26 5597   4.687   3.847   3.100  0.2657  0.1565  0.3441
   67SAPC   H6R 5598   4.644   3.785   3.180  0.6400  0.9409  1.1749
   67SAPC   C27 5599   4.694   3.997   3.124 -1.2640 -0.5730 -0.1430
   67SAPC   H7R 5600   4.704   4.051   3.027  1.1111 -1.2655 -0.3425
   67SAPC   H7S 5601   4.785   4.022   3.181 -1.9268 -1.1864  1.2285
   67SAPC   C28 5602   4.577   4.053   3.197  0.6083 -0.0677 -0.8816
   67SAPC   H8R 5603   4.484   3.997   3.181  1.6663 -3.0683  2.1691
   67SAPC   C29 5604   4.583   4.151   3.287  0.1144  0.2653 -0.4191
   67SAPC   H9R 5605   4.493   4.197   3.330  0.8231  2.9254 -1.5780
   67SAPC  C210 5606   4.698   4.244   3.326  0.4506  0.6950  0.1634
   67SAPC  H10R 5607   4.652   4.340   3.359  2.3078  2.2045 -1.3419
   67SAPC  H10S 5608   4.754   4.268   3.233  2.0145  1.0974  1.1583
   67SAPC  C211 5609   4.786   4.179   3.424  0.2851 -0.0289  0.0483
   67SAPC  H11R 5610   4.848   4.096   3.387  0.3326 -0.0694  0.2161
   67SAPC  C212 5611   4.803   4.216   3.557 -0.0404 -0.0512 -0.0025
   67SAPC  H12R 5612   4.880   4.179   3.625  0.0692 -0.9034 -0.5760
   67SAPC  C213 5613   4.740   4.341   3.616  0.3249 -0.3721 -0.0299
   67SAPC  H13R 5614   4.744   4.331   3.727  0.9811  3.3912  0.4392
   67SAPC  H13S 5615   4.632   4.339   3.588  0.4818  1.4650 -0.9191
   67SAPC  C214 5616   4.801   4.475   3.588 -0.6616  0.2421 -0.7753
   67SAPC  H14R 5617   4.887   4.476   3.519  0.7290  0.2378  0.8969
   67SAPC  C215 5618   4.769   4.591   3.644  0.4146  0.6588  0.3012
   67SAPC  H15R 5619   4.808   4.681   3.594 -1.2090  1.3292  0.1910
   67SAPC  C216 5620   4.667   4.617   3.755  0.5650  0.6792  0.0270
   67SAPC  H16R 5621   4.707   4.695   3.823  1.4790  0.7073 -0.5336
   67SAPC  H16S 5622   4.647   4.525   3.813 -0.4706  1.7026  1.3717
   67SAPC  C217 5623   4.540   4.676   3.688 -0.1518  0.2620 -0.6211
   67SAPC  H17R 5624   4.496   4.605   3.615 -0.8770  2.2001 -2.1604
   67SAPC  H17S 5625   4.562   4.770   3.633 -1.9617  0.5618 -0.8867
   67SAPC  C218 5626   4.431   4.720   3.792  0.5326  0.6589 -0.1477
   67SAPC  H18R 5627   4.471   4.790   3.869 -1.7026  0.4779  1.2985
   67SAPC  H18S 5628   4.410   4.624   3.844  1.6850 -0.3481 -1.4885
   67SAPC  C219 5629   4.320   4.774   3.707  0.3891  0.3390 -0.1027
   67SAPC  H19R 5630   4.286   4.703   3.629  0.6565 -0.4455  0.4822
   67SAPC  H19S 5631   4.369   4.863   3.661 -1.1379  1.0155 -0.4795
   67SAPC  C220 5632   4.209   4.828   3.799 -0.3489 -0.6649  0.2990
   67SAPC  H20R 5633   4.150   4.745   3.844 -2.2341  0.1283 -0.5851
   67SAPC  H20S 5634   4.140   4.893   3.741  3.2522  1.6586 -1.7768
   67SAPC  H20T 5635   4.260   4.892   3.874  0.1779 -0.0285 -0.5887
   67SAPC   C33 5636   5.483   4.093   2.787 -0.6803 -0.1586  0.0049
   67SAPC   H3X 5637   5.522   4.178   2.727 -0.3833 -1.0769 -1.1360
   67SAPC   H3Y 5638   5.573   4.065   2.846  0.2598  1.4313 -0.6069
   67SAPC   C34 5639   5.378   4.131   2.891 -0.2082  0.5012  0.5352
   67SAPC   H4X 5640   5.284   4.148   2.834  1.1935  1.0426 -1.7234
   67SAPC   H4Y 5641   5.395   4.230   2.938  3.0187  0.5283 -0.4725
   67SAPC   C35 5642   5.354   4.015   2.994 -0.1714 -0.8030  0.7246
   67SAPC   H5X 5643   5.454   3.985   3.032 -0.9969 -3.9133  0.6900
   67SAPC   H5Y 5644   5.308   3.925   2.949  0.0580 -0.7365  0.3502
   67SAPC   C36 5645   5.274   4.066   3.112  0.1938  0.0462  0.5384
   67SAPC   H6X 5646   5.165   4.045   3.100 -0.3041  2.9263 -0.6608
   67SAPC   H6Y 5647   5.282   4.177   3.110 -2.5569  0.3112  0.1661
   67SAPC   C37 5648   5.323   4.009   3.244  0.0400 -0.6545 -0.4635
   67SAPC   H7X 5649   5.432   4.029   3.255 -0.2338 -0.4016  2.5009
   67SAPC   H7Y 5650   5.298   3.901   3.246  2.5990 -1.3173  1.5791
   67SAPC   C38 5651   5.268   4.086   3.371 -0.0560 -0.4333 -0.5360
   67SAPC   H8X 5652   5.157   4.092   3.373 -0.0412  0.0089  1.6564
   67SAPC   H8Y 5653   5.298   4.193   3.369 -1.0378 -0.1594 -1.2500
   67SAPC   C39 5654   5.313   4.016   3.503  0.2447 -0.2310  0.0058
   67SAPC   H9X 5655   5.424   4.017   3.508  0.2037  1.2028  1.3302
   67SAPC   H9Y 5656   5.282   3.909   3.495 -1.3860 -0.0210  2.4539
   67SAPC  C310 5657   5.255   4.076   3.635 -0.2819 -0.1095  0.6210
   67SAPC  H10X 5658   5.160   4.129   3.612 -1.4101 -2.1995  0.1281
   67SAPC  H10Y 5659   5.322   4.155   3.675 -2.0095  0.5885  2.2946
   67SAPC  C311 5660   5.236   3.974   3.748 -0.5144  0.6493 -0.8556
   67SAPC  H11X 5661   5.331   3.917   3.743 -0.9346 -0.2954  1.0646
   67SAPC  H11Y 5662   5.160   3.895   3.730  0.1900 -0.2015 -0.1631
   67SAPC  C312 5663   5.219   4.034   3.889 -0.0644  0.5288 -0.3347
   67SAPC  H12X 5664   5.295   4.114   3.896  0.3466  0.1448 -0.3919
   67SAPC  H12Y 5665   5.261   3.961   3.961  2.7021  1.5178 -0.8457
   67SAPC  C313 5666   5.082   4.082   3.923 -0.0825 -0.1233  0.3665
   67SAPC  H13X 5667   5.014   3.996   3.936 -1.6386  1.0338  0.1745
   67SAPC  H13Y 5668   5.051   4.151   3.842 -0.0465 -1.2495 -0.6292
   67SAPC  C314 5669   5.077   4.161   4.055 -0.8432  0.7508 -0.8900
   67SAPC  H14X 5670   5.150   4.244   4.061  1.5710 -1.3106 -0.2976
   67SAPC  H14Y 5671   5.105   4.090   4.135 -0.9887  1.0203 -0.5967
   67SAPC  C315 5672   4.938   4.223   4.082  0.4949  0.0481  0.0695
   67SAPC  H15X 5673   4.865   4.142   4.102 -1.1502  1.3083 -0.6132
   67SAPC  H15Y 5674   4.889   4.275   3.997 -0.0617  0.1928  0.4722
   67SAPC  C316 5675   4.935   4.325   4.202 -0.0055  0.4663  0.0684
   67SAPC  H16X 5676   4.952   4.427   4.163  0.0967 -0.3060 -2.0450
   67SAPC  H16Y 5677   5.020   4.309   4.272 -0.9528 -1.7149  0.8059
   67SAPC  C317 5678   4.811   4.316   4.286  0.3775  0.1578 -0.3850
   67SAPC  H17X 5679   4.779   4.214   4.314  2.4820 -0.9355 -1.7078
   67SAPC  H17Y 5680   4.731   4.351   4.216  0.0365  2.4049  1.0121
   67SAPC  C318 5681   4.807   4.389   4.419  0.3330 -0.7593 -0.1624
   67SAPC  H18X 5682   4.710   4.376   4.472 -0.4478  2.0550 -0.7725
   67SAPC  H18Y 5683   4.822   4.498   4.406 -1.0443 -0.7499 -2.1857
   67SAPC  H18Z 5684   4.886   4.347   4.485 -0.0660  0.7928  1.3690
   68SAPC     N 5685   2.459   4.303   2.040 -0.5150  0.0444 -1.0305
   68SAPC   C12 5686   2.412   4.237   1.913  0.3301 -0.3578  0.2283
   68SAPC  H12A 5687   2.473   4.150   1.892  1.8874  0.8448 -0.4548
   68SAPC  H12B 5688   2.438   4.299   1.829  2.0268 -1.0332  0.2113
   68SAPC   C13 5689   2.441   4.223   2.167  0.2114  0.2687 -0.1384
   68SAPC  H13A 5690   2.468   4.282   2.253 -0.2354  0.0971  0.1206
   68SAPC  H13B 5691   2.344   4.178   2.180 -0.6576  2.7053  3.1788
   68SAPC  H13C 5692   2.512   4.143   2.156 -0.6246 -0.6240  0.8155
   68SAPC   C14 5693   2.610   4.321   2.032 -0.2903  0.5267 -0.3678
   68SAPC  H14A 5694   2.648   4.374   2.118 -0.8041  2.2730 -1.1897
   68SAPC  H14B 5695   2.659   4.225   2.022  0.7874  1.0842 -0.5050
   68SAPC  H14C 5696   2.619   4.385   1.946 -0.8076  3.0085  1.3347
   68SAPC   C15 5697   2.402   4.440   2.062  0.4914 -0.5176  0.3681
   68SAPC  H15A 5698   2.297   4.442   2.087  0.1606 -0.1233 -0.9458
   68SAPC  H15B 5699   2.454   4.491   2.141  0.2555  1.1131 -0.4830
   68SAPC  H15C 5700   2.411   4.487   1.965 -1.6649 -3.1760 -1.3107
   68SAPC   C11 5701   2.263   4.175   1.915 -0.3489  0.5081  0.2704
   68SAPC  H11A 5702   2.264   4.089   1.986  0.5784  0.7670  0.5944
   68SAPC  H11B 5703   2.248   4.124   1.818 -2.4629 -0.9433  1.2923
   68SAPC     P 5704   2.069   4.290   2.055  0.4435 -0.2761 -0.1788
   68SAPC   O13 5705   2.094   4.435   2.090 -0.0285 -0.5029  0.1008
   68SAPC   O14 5706   1.924   4.258   2.035 -0.3223 -0.8141 -0.0778
   68SAPC   O12 5707   2.149   4.262   1.922  0.1695 -0.1633 -0.3805
   68SAPC   O11 5708   2.134   4.196   2.159 -0.3267 -0.1144  0.3160
   68SAPC    C1 5709   2.067   4.081   2.209  0.2841 -0.7920  0.0595
   68SAPC    HA 5710   1.969   4.058   2.163  0.3975 -1.0936 -0.0325
   68SAPC    HB 5711   2.123   3.991   2.177  0.5519 -0.4464 -0.4549
   68SAPC    C2 5712   2.058   4.081   2.367  0.3603  0.1441 -0.3450
   68SAPC    HS 5713   2.026   3.983   2.410  2.8534  0.1545  1.7727
   68SAPC   O21 5714   1.972   4.184   2.415  0.1100  0.6212 -0.2092
   68SAPC   C21 5715   1.843   4.157   2.393 -0.8091 -0.1036  0.8052
   68SAPC   O22 5716   1.795   4.061   2.341  0.5353  0.4848  0.7406
   68SAPC   C22 5717   1.769   4.273   2.462 -0.3388 -0.1968  0.5973
   68SAPC   H2R 5718   1.823   4.298   2.555  2.0881  1.3377 -1.0869
   68SAPC   H2S 5719   1.784   4.356   2.389  0.9853 -1.6666 -0.8718
   68SAPC    C3 5720   2.199   4.094   2.426 -0.5414 -0.2006 -0.3721
   68SAPC    HX 5721   2.238   4.195   2.400 -0.1351 -0.2602 -0.0088
   68SAPC    HY 5722   2.255   4.014   2.372 -0.2516 -0.0073 -0.3595
   68SAPC   O31 5723   2.206   4.074   2.572  0.0771  0.0393  0.0175
   68SAPC   C31 5724   2.188   4.181   2.656  0.1679 -0.6901  0.4077
   68SAPC   O32 5725   2.173   4.296   2.614  0.4960  1.0196  0.0972
   68SAPC   C32 5726   2.193   4.145   2.805  0.0543  0.2730 -0.1071
   68SAPC   H2X 5727   2.268   4.214   2.850 -0.9397  1.7495 -0.6269
   68SAPC   H2Y 5728   2.233   4.042   2.816  1.4810  0.8391  0.2494
   68SAPC   C23 5729   1.618   4.251   2.483 -0.3159 -0.4468  0.4006
   68SAPC   H3R 5730   1.565   4.211   2.394  0.9734 -0.4793 -0.3705
   68SAPC   H3S 5731   1.581   4.355   2.487  1.0861  0.2612 -2.4234
   68SAPC   C24 5732   1.570   4.174   2.608  0.8276 -0.1033 -1.1716
   68SAPC   H4R 5733   1.460   4.177   2.597  0.7311  0.7916 -0.1297
   68SAPC   H4S 5734   1.592   4.228   2.702 -1.4547  1.1467 -1.2900
   68SAPC   C25 5735   1.616   4.031   2.615  0.7217 -0.1503  0.0437
   68SAPC   H5R 5736   1.601   3.980   2.519 -0.2203 -1.6515  0.9454
   68SAPC   C26 5737   1.668   3.969   2.719  0.0009 -0.0121 -0.0067
   68SAPC   H6R 5738   1.699   3.864   2.707 -1.6293 -0.4463 -0.7833
   68SAPC   C27 5739   1.710   4.040   2.845  0.4270 -0.3963 -0.1952
   68SAPC   H7R 5740   1.722   4.150   2.836  1.8898 -0.5370 -0.2219
   68SAPC   H7S 5741   1.809   3.999   2.878  0.0854 -1.8244 -0.8576
   68SAPC   C28 5742   1.603   4.029   2.957 -0.4089  0.2616 -0.1550
   68SAPC   H8R 5743   1.501   4.055   2.925 -0.2184  0.4916 -0.5830
   68SAPC   C29 5744   1.610   4.009   3.088 -0.2207 -0.1702 -0.1238
   68SAPC   H9R 5745   1.519   4.000   3.149  1.0274  0.0571  1.8563
   68SAPC  C210 5746   1.733   3.977   3.172 -0.1547  0.2578 -0.1192
   68SAPC  H10R 5747   1.729   4.038   3.265  1.7949 -0.7223  0.6756
   68SAPC  H10S 5748   1.825   4.004   3.115 -0.1554 -0.8580 -0.6737
   68SAPC  C211 5749   1.736   3.826   3.206  0.3720  0.3920  0.0630
   68SAPC  H11R 5750   1.703   3.756   3.128  2.3508 -0.1022 -0.3886
   68SAPC  C212 5751   1.775   3.776   3.326  0.8653 -0.6810 -0.0694
   68SAPC  H12R 5752   1.751   3.671   3.348  0.5708 -0.6093 -0.0378
   68SAPC  C213 5753   1.847   3.838   3.444  0.2770 -0.1089 -0.1121
   68SAPC  H13R 5754   1.785   3.854   3.534 -1.6445  0.7844 -1.5074
   68SAPC  H13S 5755   1.877   3.937   3.402 -1.7364 -0.0688 -1.6403
   68SAPC  C214 5756   1.974   3.760   3.481 -0.7270  0.0918 -0.2248
   68SAPC  H14R 5757   2.009   3.677   3.418 -0.3369 -0.6886  0.9804
   68SAPC  C215 5758   2.059   3.788   3.583  0.0158  0.8334  0.5823
   68SAPC  H15R 5759   2.155   3.735   3.571  0.1696  1.0555  0.8353
   68SAPC  C216 5760   2.035   3.894   3.688  0.1392 -0.6024  0.2407
   68SAPC  H16R 5761   1.928   3.919   3.699  0.5550  0.9826  0.9506
   68SAPC  H16S 5762   2.092   3.983   3.654 -1.4681  0.9476  1.4290
   68SAPC  C217 5763   2.082   3.838   3.822 -0.2193  0.1097  0.4011
   68SAPC  H17R 5764   2.187   3.804   3.811  0.2647  1.2398  1.3201
   68SAPC  H17S 5765   2.023   3.747   3.844 -4.3594  1.7289 -2.6748
   68SAPC  C218 5766   2.076   3.949   3.933 -0.1687  0.0725  0.0659
   68SAPC  H18R 5767   1.980   3.996   3.964 -0.2249  1.4921 -2.0706
   68SAPC  H18S 5768   2.124   4.037   3.887 -0.7371 -0.7240 -2.1838
   68SAPC  C219 5769   2.149   3.908   4.060 -1.2232 -0.0772 -0.2357
   68SAPC  H19R 5770   2.245   3.866   4.023 -0.3082  1.1803  0.6383
   68SAPC  H19S 5771   2.090   3.829   4.112  0.6249 -1.9294 -0.8223
   68SAPC  C220 5772   2.174   4.020   4.156  0.1677  0.0500  0.1117
   68SAPC  H20R 5773   2.073   4.063   4.175 -0.1371 -0.6301  0.0575
   68SAPC  H20S 5774   2.240   4.099   4.113  1.8692 -0.1438  2.1881
   68SAPC  H20T 5775   2.195   3.979   4.257  1.4897 -1.7615 -0.8355
   68SAPC   C33 5776   2.055   4.167   2.874 -0.4504  0.1307 -0.2762
   68SAPC   H3X 5777   1.982   4.091   2.839 -0.5498 -0.8201  1.8752
   68SAPC   H3Y 5778   2.025   4.269   2.843 -4.6599 -0.6487  0.6046
   68SAPC   C34 5779   2.069   4.171   3.030 -0.9538 -0.9403  0.2698
   68SAPC   H4X 5780   1.975   4.198   3.083  0.9671  2.3306  2.3973
   68SAPC   H4Y 5781   2.135   4.258   3.049  1.2791 -2.1835 -1.3458
   68SAPC   C35 5782   2.148   4.047   3.094 -0.3320 -1.1514  0.4720
   68SAPC   H5X 5783   2.255   4.046   3.065  0.0997  0.6319  1.8497
   68SAPC   H5Y 5784   2.096   3.956   3.056  1.4834 -1.5856 -1.1515
   68SAPC   C36 5785   2.134   4.053   3.250  0.0800 -0.5464  0.0378
   68SAPC   H6X 5786   2.166   3.954   3.290  1.7263 -0.1295 -0.2041
   68SAPC   H6Y 5787   2.029   4.085   3.270 -0.0014 -0.7291 -0.0929
   68SAPC   C37 5788   2.227   4.161   3.307 -0.4539 -0.1609 -0.0163
   68SAPC   H7X 5789   2.190   4.259   3.270  0.8801  0.8208  1.1590
   68SAPC   H7Y 5790   2.325   4.146   3.258 -0.9550 -1.6867 -0.6135
   68SAPC   C38 5791   2.221   4.169   3.462 -0.0353 -0.3659 -0.4943
   68SAPC   H8X 5792   2.242   4.065   3.497 -0.9484 -0.6089 -0.6613
   68SAPC   H8Y 5793   2.119   4.193   3.499 -0.0166 -0.5572 -0.3159
   68SAPC   C39 5794   2.332   4.268   3.513 -0.1228 -0.1208 -0.9184
   68SAPC   H9X 5795   2.313   4.372   3.480 -0.1160 -0.0646 -0.7467
   68SAPC   H9Y 5796   2.435   4.238   3.485  0.2890  0.4625 -0.0948
   68SAPC  C310 5797   2.329   4.273   3.669 -0.5904 -0.3654 -0.3386
   68SAPC  H10X 5798   2.347   4.170   3.705 -1.5168  0.1852  1.8695
   68SAPC  H10Y 5799   2.234   4.311   3.712  0.8470  2.1060  0.8620
   68SAPC  C311 5800   2.437   4.371   3.739  0.1965  0.4014 -0.4433
   68SAPC  H11X 5801   2.409   4.472   3.702 -0.0076  0.5713  0.1662
   68SAPC  H11Y 5802   2.543   4.344   3.722  0.4573  0.0656  1.5465
   68SAPC  C312 5803   2.426   4.365   3.894  0.0618 -0.0257 -0.0961
   68SAPC  H12X 5804   2.327   4.395   3.934  0.1779  1.4909 -0.8724
   68SAPC  H12Y 5805   2.491   4.443   3.938 -0.7383  0.7528 -0.2807
   68SAPC  C313 5806   2.453   4.234   3.965  0.4620  0.5452  0.2120
   68SAPC  H13X 5807   2.554   4.192   3.944 -0.4983 -1.8179 -0.0059
   68SAPC  H13Y 5808   2.365   4.173   3.935 -0.2408  1.5864  0.1343
   68SAPC  C314 5809   2.448   4.252   4.123 -0.2559  0.0737 -0.5834
   68SAPC  H14X 5810   2.491   4.154   4.152 -0.0070  0.5112  0.5940
   68SAPC  H14Y 5811   2.347   4.266   4.167 -0.0543 -1.9018  0.6242
   68SAPC  C315 5812   2.536   4.357   4.181 -0.3379 -0.3018 -0.1969
   68SAPC  H15X 5813   2.625   4.375   4.117  1.1303 -2.4831  1.0832
   68SAPC  H15Y 5814   2.595   4.331   4.272 -2.3825 -0.9912  1.0037
   68SAPC  C316 5815   2.464   4.483   4.239  0.4703  0.1998  0.0745
   68SAPC  H16X 5816   2.390   4.456   4.318 -1.3457  1.7831 -0.9944
   68SAPC  H16Y 5817   2.405   4.531   4.158 -3.1670 -2.2801  1.0046
   68SAPC  C317 5818   2.563   4.584   4.290 -1.2634 -0.0996  0.0907
   68SAPC  H17X 5819   2.653   4.576   4.225 -1.1991  1.4928 -0.0438
   68SAPC  H17Y 5820   2.585   4.558   4.396 -2.1849 -1.7710 -0.0933
   68SAPC  C318 5821   2.512   4.729   4.289  0.2254  0.4593 -0.2124
   68SAPC  H18X 5822   2.489   4.767   4.187 -2.4965  1.4888  0.6816
   68SAPC  H18Y 5823   2.580   4.803   4.335 -1.3847  1.8694 -0.0068
   68SAPC  H18Z 5824   2.411   4.735   4.336 -0.3553  1.9316 -1.5540
   69SAPC     N 5825   0.586   5.979   1.997  0.0805 -0.1147 -0.2281
   69SAPC   C12 5826   0.436   6.011   2.001 -0.0059 -0.2831  0.8724
   69SAPC  H12A 5827   0.390   5.994   2.097 -0.8561  2.9245  1.1277
   69SAPC  H12B 5828   0.388   5.946   1.929 -1.8445 -0.0320  1.8073
   69SAPC   C13 5829   0.642   5.999   1.864 -0.7488  0.9966 -0.3085
   69SAPC  H13A 5830   0.620   6.097   1.824  1.2911  1.6091 -0.0410
   69SAPC  H13B 5831   0.749   5.987   1.871 -1.0318 -2.2901 -0.3338
   69SAPC  H13C 5832   0.598   5.933   1.790 -1.5535  1.9361 -0.6913
   69SAPC   C14 5833   0.663   6.061   2.094 -0.4695 -0.0805 -0.9700
   69SAPC  H14A 5834   0.647   6.167   2.078  0.3743  0.2944  0.4387
   69SAPC  H14B 5835   0.642   6.045   2.199  0.4867  2.1937 -0.3519
   69SAPC  H14C 5836   0.768   6.043   2.073  0.3404  3.0659 -0.1754
   69SAPC   C15 5837   0.593   5.833   2.020  0.0882  0.1736 -0.2380
   69SAPC  H15A 5838   0.540   5.783   1.941 -0.5970 -2.1766  1.5780
   69SAPC  H15B 5839   0.699   5.810   2.012 -0.1556 -1.5190  1.0484
   69SAPC  H15C 5840   0.560   5.791   2.114  3.0302 -0.2155  0.7256
   69SAPC   C11 5841   0.392   6.152   1.955  0.4289  0.1728 -0.5952
   69SAPC  H11A 5842   0.287   6.145   1.919  0.4791 -2.9333 -0.4208
   69SAPC  H11B 5843   0.456   6.178   1.868  1.7545  1.2442  0.6386
   69SAPC     P 5844   0.321   6.233   2.190  0.0482 -0.2901  0.3400
   69SAPC   O13 5845   0.185   6.279   2.155 -0.8824 -0.0827  0.0591
   69SAPC   O14 5846   0.326   6.098   2.258  0.1561 -0.2970 -0.2666
   69SAPC   O12 5847   0.411   6.242   2.062 -0.7672  0.7271 -0.0379
   69SAPC   O11 5848   0.392   6.332   2.281 -0.6295 -0.6471  0.5150
   69SAPC    C1 5849   0.518   6.312   2.354  0.1294  0.0908 -0.1615
   69SAPC    HA 5850   0.544   6.204   2.353  0.1756  0.0784  1.1595
   69SAPC    HB 5851   0.600   6.373   2.310  0.9888 -0.7340  0.2548
   69SAPC    C2 5852   0.503   6.372   2.498  0.1828  0.2575 -0.9660
   69SAPC    HS 5853   0.594   6.362   2.562 -0.7774  1.2244  0.5880
   69SAPC   O21 5854   0.390   6.316   2.568 -0.1269  0.6454 -0.2583
   69SAPC   C21 5855   0.411   6.189   2.604  0.1158  0.2677 -0.5228
   69SAPC   O22 5856   0.521   6.133   2.600  0.2555  0.2114  0.2623
   69SAPC   C22 5857   0.281   6.116   2.640 -0.4866 -0.3043  0.1184
   69SAPC   H2R 5858   0.201   6.152   2.571 -0.2714 -0.9114 -0.4609
   69SAPC   H2S 5859   0.297   6.009   2.615  1.7627 -0.4813  1.9664
   69SAPC    C3 5860   0.489   6.523   2.490  0.6159  0.1194  0.0754
   69SAPC    HX 5861   0.388   6.535   2.444  0.8483 -1.4008 -0.8935
   69SAPC    HY 5862   0.567   6.571   2.428 -0.6303  0.9317 -0.9084
   69SAPC   O31 5863   0.481   6.578   2.615 -0.3295  0.1600  0.1079
   69SAPC   C31 5864   0.585   6.604   2.682  0.1168 -0.6896 -0.2905
   69SAPC   O32 5865   0.704   6.585   2.643  0.3637 -0.8516  0.0502
   69SAPC   C32 5866   0.560   6.664   2.812 -0.2121 -0.8352 -0.2249
   69SAPC   H2X 5867   0.489   6.599   2.867  0.0701 -0.7008  0.3034
   69SAPC   H2Y 5868   0.511   6.764   2.806 -0.9536 -1.2295 -0.8198
   69SAPC   C23 5869   0.238   6.136   2.789  0.2048  0.0335  0.1383
   69SAPC   H3R 5870   0.152   6.069   2.814  0.1462  0.3991  0.9725
   69SAPC   H3S 5871   0.194   6.237   2.805  1.2282  0.8605 -1.8985
   69SAPC   C24 5872   0.341   6.112   2.903 -0.2706  0.0812 -0.1824
   69SAPC   H4R 5873   0.408   6.026   2.882  1.0743  0.6842  1.4116
   69SAPC   H4S 5874   0.277   6.084   2.989 -0.4497 -1.0856 -0.6796
   69SAPC   C25 5875   0.429   6.232   2.927  0.4351 -0.2569  0.0454
   69SAPC   H5R 5876   0.517   6.245   2.862  1.8358  1.2527  2.1039
   69SAPC   C26 5877   0.421   6.329   3.016  0.2183 -0.0541 -0.8847
   69SAPC   H6R 5878   0.503   6.402   3.020  1.0537 -1.0042 -0.1444
   69SAPC   C27 5879   0.312   6.340   3.125 -0.5825 -0.1229  0.8499
   69SAPC   H7R 5880   0.343   6.308   3.227 -2.6530 -1.4453  1.1135
   69SAPC   H7S 5881   0.233   6.264   3.107 -1.2684  0.4249  1.4768
   69SAPC   C28 5882   0.256   6.481   3.118 -0.1588 -0.1667 -0.2005
   69SAPC   H8R 5883   0.226   6.516   3.018 -0.3193 -1.0966 -0.4838
   69SAPC   C29 5884   0.236   6.563   3.225  0.4502  0.0587 -0.0927
   69SAPC   H9R 5885   0.193   6.663   3.210  0.3431  0.4046  2.1701
   69SAPC  C210 5886   0.247   6.542   3.370  0.2647  0.2271 -0.1743
   69SAPC  H10R 5887   0.262   6.433   3.384 -1.0233  0.4303  3.8782
   69SAPC  H10S 5888   0.151   6.551   3.424 -0.8896  3.5113 -2.4274
   69SAPC  C211 5889   0.364   6.620   3.427 -0.1884  0.3365 -0.2759
   69SAPC  H11R 5890   0.416   6.686   3.355  1.2752 -2.8068 -2.2925
   69SAPC  C212 5891   0.415   6.600   3.545 -0.0369 -0.0777 -0.1432
   69SAPC  H12R 5892   0.495   6.667   3.581 -0.6358  2.1305 -2.6748
   69SAPC  C213 5893   0.370   6.501   3.652  0.0879 -0.6906  0.0632
   69SAPC  H13R 5894   0.312   6.414   3.615  0.9402 -1.9568  1.5486
   69SAPC  H13S 5895   0.302   6.547   3.728 -1.3704 -1.0002 -1.0186
   69SAPC  C214 5896   0.488   6.439   3.720  0.3215  0.1757  0.4008
   69SAPC  H14R 5897   0.519   6.340   3.683 -0.7797  0.1201 -0.3998
   69SAPC  C215 5898   0.560   6.489   3.818  0.6358  0.0514 -1.2367
   69SAPC  H15R 5899   0.654   6.443   3.853 -0.0284 -0.1716  0.3255
   69SAPC  C216 5900   0.524   6.622   3.880  0.0099 -0.1887  0.1449
   69SAPC  H16R 5901   0.433   6.614   3.942 -0.1895  1.9733  0.2164
   69SAPC  H16S 5902   0.501   6.695   3.799 -2.6762 -0.8856  0.1930
   69SAPC  C217 5903   0.627   6.688   3.981 -0.3724  0.0567 -0.0412
   69SAPC  H17R 5904   0.673   6.606   4.041 -1.6850 -0.7299 -0.0476
   69SAPC  H17S 5905   0.565   6.755   4.045 -1.7977  2.0506 -3.2768
   69SAPC  C218 5906   0.738   6.772   3.915  0.0180 -0.0423  0.0978
   69SAPC  H18R 5907   0.793   6.825   3.997  1.5091  2.6527 -2.4537
   69SAPC  H18S 5908   0.699   6.853   3.849  0.2839  2.1007  2.3720
   69SAPC  C219 5909   0.848   6.685   3.870 -0.4556 -0.1854  0.2023
   69SAPC  H19R 5910   0.817   6.640   3.773 -2.3049  1.0293  0.1859
   69SAPC  H19S 5911   0.857   6.606   3.947  0.6277  0.2024  0.4918
   69SAPC  C220 5912   0.985   6.755   3.852 -0.0914 -0.3306 -0.1765
   69SAPC  H20R 5913   1.072   6.690   3.874  1.1330  0.9098 -1.1456
   69SAPC  H20S 5914   0.995   6.840   3.923 -1.6650 -0.1242 -0.1670
   69SAPC  H20T 5915   0.981   6.798   3.749  0.1064  0.6127  0.1952
   69SAPC   C33 5916   0.690   6.672   2.898  0.4193 -0.2917  0.3845
   69SAPC   H3X 5917   0.741   6.762   2.857 -0.5964  0.6297  1.1135
   69SAPC   H3Y 5918   0.748   6.577   2.886  0.6007 -0.2319  0.7866
   69SAPC   C34 5919   0.646   6.693   3.044 -0.2818 -0.3158  0.2763
   69SAPC   H4X 5920   0.621   6.594   3.087 -3.0105 -0.0873 -0.6296
   69SAPC   H4Y 5921   0.552   6.751   3.050 -0.6034 -0.9727  3.6539
   69SAPC   C35 5922   0.758   6.757   3.116  0.0457 -0.2604 -0.0048
   69SAPC   H5X 5923   0.771   6.858   3.071 -3.9507  1.3367  1.8991
   69SAPC   H5Y 5924   0.857   6.707   3.122 -0.0895 -0.6307 -0.7950
   69SAPC   C36 5925   0.710   6.789   3.268  0.3334  0.3934  0.3677
   69SAPC   H6X 5926   0.684   6.691   3.314 -0.9666 -0.6877 -2.4319
   69SAPC   H6Y 5927   0.614   6.845   3.266  1.0893  1.8327 -2.8029
   69SAPC   C37 5928   0.819   6.865   3.342 -0.4397  0.5081  0.4433
   69SAPC   H7X 5929   0.844   6.953   3.279 -0.6633 -0.9014 -1.6875
   69SAPC   H7Y 5930   0.904   6.793   3.344 -0.4600  0.3736 -1.6489
   69SAPC   C38 5931   0.779   6.917   3.490  0.4650  0.0896  0.0387
   69SAPC   H8X 5932   0.766   6.834   3.563 -1.5330  0.6438  0.3976
   69SAPC   H8Y 5933   0.674   6.952   3.474  0.2146 -0.9416 -0.7006
   69SAPC   C39 5934   0.876   7.025   3.539  0.1693  0.1411  0.4502
   69SAPC   H9X 5935   0.866   7.113   3.471 -0.1632 -0.6744 -0.5751
   69SAPC   H9Y 5936   0.979   6.985   3.546 -0.4748 -2.5385 -2.8215
   69SAPC  C310 5937   0.831   7.082   3.671  0.5946  0.5378  0.0657
   69SAPC  H10X 5938   0.812   7.005   3.749 -2.1037  0.5184 -0.5163
   69SAPC  H10Y 5939   0.734   7.133   3.659 -0.3889 -1.0608  0.8219
   69SAPC  C311 5940   0.935   7.178   3.730 -0.8459  0.0868 -0.1505
   69SAPC  H11X 5941   0.968   7.256   3.658 -0.3825  1.0844  1.0898
   69SAPC  H11Y 5942   1.018   7.114   3.768 -1.7740 -0.9994  0.0836
   69SAPC  C312 5943   0.869   7.250   3.851 -0.7295  0.0292  0.0150
   69SAPC  H12X 5944   0.763   7.275   3.833 -0.3174  3.0610  1.2711
   69SAPC  H12Y 5945   0.916   7.350   3.861  1.0791 -0.8734  1.3536
   69SAPC  C313 5946   0.883   7.178   3.986 -0.5688  0.0344  0.1956
   69SAPC  H13X 5947   0.855   7.071   3.975  0.6651 -0.3219  0.3881
   69SAPC  H13Y 5948   0.806   7.232   4.044 -0.7821  1.0092 -0.9421
   69SAPC  C314 5949   1.016   7.189   4.052 -0.6605 -0.6641 -0.5219
   69SAPC  H14X 5950   1.052   7.294   4.039 -0.6307 -0.5818  0.1722
   69SAPC  H14Y 5951   1.088   7.117   4.007  1.9881  0.3081  1.8196
   69SAPC  C315 5952   1.015   7.160   4.202 -0.0348  0.0518  0.0519
   69SAPC  H15X 5953   1.122   7.169   4.229  0.0284 -0.8218  0.1406
   69SAPC  H15Y 5954   0.972   7.061   4.229 -1.3746 -0.0854 -2.2645
   69SAPC  C316 5955   0.931   7.262   4.289 -0.2787  0.1340  0.5880
   69SAPC  H16X 5956   0.827   7.245   4.254  0.2007 -0.2695 -0.7216
   69SAPC  H16Y 5957   0.958   7.366   4.262  0.8262 -0.3727 -0.3332
   69SAPC  C317 5958   0.933   7.241   4.442 -0.8570  0.0484  0.0092
   69SAPC  H17X 5959   0.887   7.142   4.463 -0.1856 -0.2519  0.0686
   69SAPC  H17Y 5960   0.855   7.306   4.488  1.1774  0.7446  2.6683
   69SAPC  C318 5961   1.062   7.249   4.511 -0.1117 -0.1955 -0.3422
   69SAPC  H18X 5962   1.122   7.156   4.511 -0.4054 -0.5375 -4.1056
   69SAPC  H18Y 5963   1.051   7.284   4.616 -1.8568  0.0408 -0.5686
   69SAPC  H18Z 5964   1.112   7.334   4.460 -1.4043  0.4948 -0.5094
   70SAPC     N 5965   1.112   5.222   1.729 -0.0311 -0.4342 -0.1829
   70SAPC   C12 5966   1.114   5.153   1.864  0.1509 -0.4662  0.0145
   70SAPC  H12A 5967   1.183   5.211   1.923 -0.3369  1.9065 -1.5815
   70SAPC  H12B 5968   1.162   5.057   1.859 -0.6364 -0.8429 -0.7107
   70SAPC   C13 5969   1.255   5.226   1.666  0.6197 -0.7373 -0.2047
   70SAPC  H13A 5970   1.318   5.261   1.746 -1.3106 -1.3216  1.6752
   70SAPC  H13B 5971   1.281   5.123   1.647 -0.1830 -1.0303  0.2671
   70SAPC  H13C 5972   1.261   5.301   1.588 -0.7949 -0.2356  0.1434
   70SAPC   C14 5973   1.015   5.149   1.639  0.2503 -0.8072 -0.1682
   70SAPC  H14A 5974   1.047   5.048   1.621  0.8460 -0.5734 -0.4330
   70SAPC  H14B 5975   0.908   5.154   1.656 -0.3946  2.3304 -3.7717
   70SAPC  H14C 5976   1.023   5.201   1.545 -2.0554 -0.5568 -0.2989
   70SAPC   C15 5977   1.058   5.361   1.737  0.4231  0.2681  0.3007
   70SAPC  H15A 5978   1.095   5.417   1.821  0.1523  1.8650 -0.5964
   70SAPC  H15B 5979   1.083   5.420   1.650 -0.5907  1.6045  0.8777
   70SAPC  H15C 5980   0.950   5.356   1.748  0.2763  1.6149 -0.3082
   70SAPC   C11 5981   0.984   5.144   1.953  0.5660 -0.3096 -0.2489
   70SAPC  H11A 5982   0.998   5.061   2.026  0.0661 -0.6824 -0.5787
   70SAPC  H11B 5983   0.904   5.114   1.883  0.0144 -2.0420  1.0435
   70SAPC     P 5984   1.027   5.304   2.146  0.3579 -0.2883 -0.7275
   70SAPC   O13 5985   1.168   5.268   2.131  0.0443  0.2252  0.0533
   70SAPC   O14 5986   0.999   5.445   2.193 -0.4703 -0.1016 -0.2967
   70SAPC   O12 5987   0.945   5.269   2.016 -0.2916 -0.4304  0.2478
   70SAPC   O11 5988   0.968   5.208   2.257 -0.1051  0.2706 -0.1428
   70SAPC    C1 5989   0.829   5.221   2.297 -0.2930 -0.8024  0.8638
   70SAPC    HA 5990   0.773   5.253   2.206  2.0913  0.5935 -0.2107
   70SAPC    HB 5991   0.781   5.124   2.321 -2.0618  0.0867  1.0877
   70SAPC    C2 5992   0.820   5.312   2.414  0.2102 -0.0045 -0.0087
   70SAPC    HS 5993   0.849   5.412   2.376 -1.7058  1.0978  1.2166
   70SAPC   O21 5994   0.904   5.260   2.523 -0.1640  0.2868 -0.1185
   70SAPC   C21 5995   0.988   5.345   2.584  0.2327 -0.1958  0.4604
   70SAPC   O22 5996   0.979   5.466   2.568 -1.0143  0.2227  0.1659
   70SAPC   C22 5997   1.085   5.273   2.672 -0.0050  0.5708 -0.8459
   70SAPC   H2R 5998   1.025   5.202   2.733  0.3302  0.0471 -1.1228
   70SAPC   H2S 5999   1.159   5.221   2.608  0.8524  2.3108 -1.3206
   70SAPC    C3 6000   0.675   5.325   2.466 -0.6367 -0.0877  0.5959
   70SAPC    HX 6001   0.637   5.238   2.525 -0.7762  0.0897  0.7695
   70SAPC    HY 6002   0.607   5.343   2.380  1.8199 -0.1488 -1.4492
   70SAPC   O31 6003   0.672   5.422   2.574 -0.1798 -0.4851  0.2877
   70SAPC   C31 6004   0.668   5.549   2.529  0.4632  0.0211  0.0035
   70SAPC   O32 6005   0.682   5.581   2.412  0.1208 -0.4977 -0.6287
   70SAPC   C32 6006   0.623   5.638   2.642  0.8867  0.5985  0.3647
   70SAPC   H2X 6007   0.520   5.606   2.666  1.4201 -0.6950  0.9843
   70SAPC   H2Y 6008   0.624   5.745   2.610 -0.2005  0.4083 -0.3668
   70SAPC   C23 6009   1.181   5.365   2.754  0.3998 -0.6120 -0.1871
   70SAPC   H3R 6010   1.108   5.424   2.813  0.9992 -0.0534  0.0037
   70SAPC   H3S 6011   1.227   5.438   2.684  2.7119 -0.2564  1.5775
   70SAPC   C24 6012   1.282   5.298   2.851 -0.3822 -0.5399 -0.1194
   70SAPC   H4R 6013   1.353   5.233   2.796  1.5511  0.8580  0.5636
   70SAPC   H4S 6014   1.232   5.230   2.922  0.7384  0.0071  1.2563
   70SAPC   C25 6015   1.375   5.395   2.921  0.4027  0.3561  0.6833
   70SAPC   H5R 6016   1.419   5.474   2.858  0.8186 -0.4211 -0.0184
   70SAPC   C26 6017   1.389   5.398   3.054 -0.3853  0.4748  0.0833
   70SAPC   H6R 6018   1.464   5.471   3.087  0.6723  0.0534 -1.3001
   70SAPC   C27 6019   1.313   5.318   3.152 -0.6533  0.2982  0.1539
   70SAPC   H7R 6020   1.378   5.236   3.188 -1.5285 -0.4043  0.1680
   70SAPC   H7S 6021   1.211   5.291   3.115  0.0909  1.8614 -3.5214
   70SAPC   C28 6022   1.286   5.412   3.266  0.0238  0.9022  0.7929
   70SAPC   H8R 6023   1.263   5.516   3.237 -0.0302  0.9809  1.1228
   70SAPC   C29 6024   1.297   5.385   3.394  0.5529 -0.3095  0.3906
   70SAPC   H9R 6025   1.271   5.472   3.456 -0.1701 -0.1725 -0.0796
   70SAPC  C210 6026   1.320   5.248   3.453  0.3593  0.0679 -0.7003
   70SAPC  H10R 6027   1.367   5.173   3.385  0.4499 -0.5191 -0.0064
   70SAPC  H10S 6028   1.218   5.221   3.488 -0.7408  0.9095 -3.0321
   70SAPC  C211 6029   1.408   5.240   3.577 -0.6719 -0.7811  1.0562
   70SAPC  H11R 6030   1.512   5.215   3.553 -0.8010 -2.1887  1.8804
   70SAPC  C212 6031   1.384   5.270   3.700 -0.6006  0.9022  0.0232
   70SAPC  H12R 6032   1.455   5.249   3.781 -1.0249  2.2303  0.7729
   70SAPC  C213 6033   1.241   5.297   3.750  0.3878  0.4023  0.5197
   70SAPC  H13R 6034   1.162   5.235   3.702 -1.0507  2.6534 -0.1551
   70SAPC  H13S 6035   1.217   5.398   3.710  1.8590 -0.3573 -2.6353
   70SAPC  C214 6036   1.237   5.293   3.898  0.1574  0.1050 -0.4493
   70SAPC  H14R 6037   1.258   5.384   3.955 -0.5248  0.1841 -0.3134
   70SAPC  C215 6038   1.202   5.185   3.967  1.0306 -0.2217 -0.1870
   70SAPC  H15R 6039   1.178   5.190   4.074 -0.9547  0.5368 -0.6183
   70SAPC  C216 6040   1.168   5.047   3.918  0.1376 -0.2868 -0.8803
   70SAPC  H16R 6041   1.220   4.969   3.978  0.1956  0.6209  0.2874
   70SAPC  H16S 6042   1.195   5.021   3.813  0.6953  0.6457 -0.9815
   70SAPC  C217 6043   1.018   5.031   3.935  0.2806  0.1371  0.1638
   70SAPC  H17R 6044   0.980   4.947   3.873  0.6332 -0.4146  0.6915
   70SAPC  H17S 6045   0.964   5.123   3.901  1.4736  1.1527  0.9322
   70SAPC  C218 6046   0.990   5.003   4.087  0.6214  1.1104 -0.3041
   70SAPC  H18R 6047   1.017   5.094   4.144  0.4779  1.4731 -0.8050
   70SAPC  H18S 6048   1.059   4.928   4.132 -2.4151 -2.1004 -0.5869
   70SAPC  C219 6049   0.842   4.965   4.128 -0.4648  0.1759 -0.0609
   70SAPC  H19R 6050   0.854   4.858   4.156  0.9867  0.5893  1.0108
   70SAPC  H19S 6051   0.777   4.973   4.037  1.4019 -2.1638 -1.7441
   70SAPC  C220 6052   0.771   5.043   4.235  0.0246  0.3716 -0.8349
   70SAPC  H20R 6053   0.783   5.153   4.246  0.4667  0.1610  1.2257
   70SAPC  H20S 6054   0.821   5.011   4.329  0.8295  3.2964 -0.1782
   70SAPC  H20T 6055   0.664   5.015   4.247 -0.0570 -0.2542 -2.7187
   70SAPC   C33 6056   0.703   5.631   2.772 -0.1521  0.1521 -0.5045
   70SAPC   H3X 6057   0.808   5.666   2.763 -0.4853  2.4683  2.7889
   70SAPC   H3Y 6058   0.710   5.528   2.813 -0.1822  1.0773  2.0479
   70SAPC   C34 6059   0.639   5.709   2.895  0.0344 -0.7494  0.5815
   70SAPC   H4X 6060   0.543   5.668   2.931  1.1488 -1.8301  2.4798
   70SAPC   H4Y 6061   0.612   5.808   2.853 -1.6249 -1.0525  0.8588
   70SAPC   C35 6062   0.731   5.728   3.013 -0.1842  0.3924  0.2159
   70SAPC   H5X 6063   0.836   5.752   2.985  0.2678 -1.3771  0.2998
   70SAPC   H5Y 6064   0.739   5.634   3.071 -0.5458  0.5532  0.5299
   70SAPC   C36 6065   0.681   5.845   3.108 -0.5770  0.3150  0.5026
   70SAPC   H6X 6066   0.576   5.822   3.136 -0.3943 -2.5484 -0.8328
   70SAPC   H6Y 6067   0.686   5.931   3.038  1.7895 -0.1338  0.0357
   70SAPC   C37 6068   0.761   5.856   3.240  0.1780 -0.1475 -0.4744
   70SAPC   H7X 6069   0.783   5.756   3.282 -0.9095 -0.1402  0.1506
   70SAPC   H7Y 6070   0.858   5.903   3.214  0.7688 -0.9432  0.2558
   70SAPC   C38 6071   0.685   5.950   3.341  0.2404 -0.2764  0.1830
   70SAPC   H8X 6072   0.582   5.911   3.360 -0.0774  0.7710  0.7102
   70SAPC   H8Y 6073   0.665   6.038   3.275 -0.1573 -1.0266 -0.7145
   70SAPC   C39 6074   0.756   5.966   3.477 -0.1914 -0.5499  0.0202
   70SAPC   H9X 6075   0.862   5.984   3.449 -0.0101  1.1720  1.6114
   70SAPC   H9Y 6076   0.747   5.869   3.530 -0.5661 -1.7536 -2.1071
   70SAPC  C310 6077   0.697   6.079   3.570 -0.0966 -0.4904  0.4125
   70SAPC  H10X 6078   0.588   6.084   3.589 -0.0781  1.1202  0.2915
   70SAPC  H10Y 6079   0.718   6.181   3.531  0.0431 -0.7272 -0.1451
   70SAPC  C311 6080   0.762   6.070   3.705 -1.0688  0.3499 -0.0500
   70SAPC  H11X 6081   0.872   6.062   3.692 -1.1709  1.0786 -1.5781
   70SAPC  H11Y 6082   0.722   5.989   3.770  0.1210  0.6261  1.0781
   70SAPC  C312 6083   0.747   6.192   3.792  0.2119 -0.1233  0.2014
   70SAPC  H12X 6084   0.640   6.207   3.819 -0.1425  0.3834 -1.3714
   70SAPC  H12Y 6085   0.784   6.275   3.727  0.8898 -2.1687 -2.1668
   70SAPC  C313 6086   0.818   6.182   3.927 -0.2545  0.0890 -0.0193
   70SAPC  H13X 6087   0.928   6.178   3.910 -0.0693 -1.1213  1.2721
   70SAPC  H13Y 6088   0.785   6.084   3.967  0.3611 -1.3644 -2.8348
   70SAPC  C314 6089   0.793   6.296   4.023 -0.0519  0.7913 -0.5233
   70SAPC  H14X 6090   0.688   6.294   4.060  0.6921 -0.8161  1.7151
   70SAPC  H14Y 6091   0.820   6.388   3.967 -1.7199  1.5619 -0.1235
   70SAPC  C315 6092   0.885   6.299   4.146 -0.1302  0.4928 -0.5991
   70SAPC  H15X 6093   0.888   6.405   4.176 -2.3149 -0.1644  2.3543
   70SAPC  H15Y 6094   0.985   6.259   4.119 -0.1970 -1.0868  1.2943
   70SAPC  C316 6095   0.823   6.231   4.270 -0.3361 -0.6391  0.2881
   70SAPC  H16X 6096   0.790   6.126   4.253 -1.3621 -0.2938  0.0292
   70SAPC  H16Y 6097   0.729   6.282   4.301 -0.9568 -0.4919 -1.6583
   70SAPC  C317 6098   0.934   6.236   4.381  1.2490  0.8152 -0.5266
   70SAPC  H17X 6099   0.883   6.258   4.477  1.4907  2.7016 -0.7901
   70SAPC  H17Y 6100   0.998   6.326   4.370  1.6723  0.7761  1.3269
   70SAPC  C318 6101   1.022   6.113   4.388  0.4809  0.3146  0.4886
   70SAPC  H18X 6102   1.117   6.130   4.334  0.1483  1.4329  0.2215
   70SAPC  H18Y 6103   0.970   6.025   4.344  0.5628  0.7514 -0.5168
   70SAPC  H18Z 6104   1.049   6.090   4.493  3.1121 -0.3570 -0.2571
   71SAPC     N 6105   2.121   3.393   1.734  0.8378  0.4611  0.9678
   71SAPC   C12 6106   2.043   3.413   1.851  0.3964  0.3828 -0.1111
   71SAPC  H12A 6107   1.941   3.423   1.818 -0.2704 -4.2649 -0.0847
   71SAPC  H12B 6108   2.077   3.508   1.891 -2.0414  0.2929  2.4336
   71SAPC   C13 6109   2.122   3.517   1.654 -0.0648  0.5846 -0.3042
   71SAPC  H13A 6110   2.032   3.519   1.595 -1.1608  2.3390  1.3355
   71SAPC  H13B 6111   2.132   3.603   1.718 -1.1253  0.5294 -0.0521
   71SAPC  H13C 6112   2.199   3.522   1.578  0.8812 -0.9329  0.5098
   71SAPC   C14 6113   2.265   3.377   1.776  0.1500 -1.0721  0.0981
   71SAPC  H14A 6114   2.273   3.292   1.843  0.9013 -0.0629  1.3270
   71SAPC  H14B 6115   2.322   3.344   1.690 -0.2723 -0.2904 -0.4912
   71SAPC  H14C 6116   2.311   3.461   1.826 -1.8624  0.4206 -0.4464
   71SAPC   C15 6117   2.066   3.276   1.660 -0.2666  0.4007 -0.1579
   71SAPC  H15A 6118   1.961   3.288   1.639 -0.7816 -0.5866  1.6572
   71SAPC  H15B 6119   2.124   3.229   1.581 -0.5100  1.6282 -1.0849
   71SAPC  H15C 6120   2.072   3.194   1.730  1.9446 -0.6498 -1.4523
   71SAPC   C11 6121   2.036   3.309   1.969 -0.2112  0.5328  0.4650
   71SAPC  H11A 6122   1.943   3.330   2.026 -0.8568 -0.2964 -0.2583
   71SAPC  H11B 6123   2.123   3.331   2.034 -0.6813  2.7086  0.4345
   71SAPC     P 6124   2.132   3.067   1.972 -0.1453 -0.1994 -0.1558
   71SAPC   O13 6125   2.104   2.938   1.912  0.5054  0.1211  0.0922
   71SAPC   O14 6126   2.273   3.103   1.969 -0.8003 -0.4195 -0.0533
   71SAPC   O12 6127   2.038   3.178   1.922 -0.2800  0.5380 -0.0811
   71SAPC   O11 6128   2.104   3.057   2.122  0.1426  0.0464 -0.2247
   71SAPC    C1 6129   1.965   3.051   2.180 -0.3322  0.2953 -0.0336
   71SAPC    HA 6130   1.909   3.141   2.145  1.9806  1.4663 -0.9547
   71SAPC    HB 6131   1.915   2.959   2.145 -0.1536  0.3727 -0.4980
   71SAPC    C2 6132   1.988   3.044   2.335 -0.3831  0.3552 -0.4247
   71SAPC    HS 6133   1.893   3.081   2.378 -0.7595 -0.6047 -0.4027
   71SAPC   O21 6134   2.094   3.124   2.385  0.3052  0.1793  0.4448
   71SAPC   C21 6135   2.079   3.254   2.392  0.4855 -0.6701  0.8443
   71SAPC   O22 6136   1.981   3.311   2.349 -0.3060  0.3638  0.7980
   71SAPC   C22 6137   2.210   3.330   2.435  0.6535 -0.5791 -0.5211
   71SAPC   H2R 6138   2.294   3.257   2.433  0.6860 -0.7752  2.7385
   71SAPC   H2S 6139   2.234   3.409   2.361  0.1741 -0.1435 -0.2191
   71SAPC    C3 6140   2.007   2.901   2.387  0.1313  0.2652 -0.2561
   71SAPC    HX 6141   2.098   2.854   2.344 -0.4339  0.7461 -2.0732
   71SAPC    HY 6142   1.931   2.830   2.349  0.6123  0.7669 -2.3075
   71SAPC   O31 6143   1.989   2.897   2.527  0.6136  0.0616 -0.0811
   71SAPC   C31 6144   2.105   2.877   2.599 -0.2509 -0.4205  0.3900
   71SAPC   O32 6145   2.217   2.869   2.553 -0.1762  0.0214  0.5315
   71SAPC   C32 6146   2.072   2.898   2.742  0.0460 -0.9843 -0.4815
   71SAPC   H2X 6147   1.978   2.848   2.774 -0.2532  0.8261  1.6972
   71SAPC   H2Y 6148   2.030   3.000   2.752 -1.7862 -1.6039 -1.3706
   71SAPC   C23 6149   2.198   3.405   2.574  0.5542  0.0541 -0.2752
   71SAPC   H3R 6150   2.106   3.466   2.574 -0.9040 -2.0160 -1.4999
   71SAPC   H3S 6151   2.286   3.473   2.572  0.2506  0.4992 -2.8848
   71SAPC   C24 6152   2.201   3.319   2.700  0.4536  0.2919  0.6123
   71SAPC   H4R 6153   2.105   3.267   2.720  0.2197 -0.3683 -1.8435
   71SAPC   H4S 6154   2.208   3.398   2.777  2.6589  1.8772 -1.0837
   71SAPC   C25 6155   2.319   3.235   2.721  0.0767  0.4937 -0.5216
   71SAPC   H5R 6156   2.332   3.163   2.639 -0.4034  0.5308 -0.6312
   71SAPC   C26 6157   2.416   3.242   2.811  0.2066 -0.6636 -0.7794
   71SAPC   H6R 6158   2.503   3.174   2.808  1.3814  0.6112  1.4277
   71SAPC   C27 6159   2.422   3.341   2.924 -0.1624 -0.6173  0.7816
   71SAPC   H7R 6160   2.336   3.316   2.990 -1.1464 -0.8491 -0.5541
   71SAPC   H7S 6161   2.405   3.441   2.878  1.3470 -0.5546  0.3011
   71SAPC   C28 6162   2.557   3.341   2.998 -0.2040  0.1368 -0.6136
   71SAPC   H8R 6163   2.566   3.253   3.064 -1.0862  2.0353  2.2414
   71SAPC   C29 6164   2.651   3.436   3.011  0.0205 -0.0411  0.5261
   71SAPC   H9R 6165   2.743   3.411   3.066  0.2720 -0.5567 -0.1188
   71SAPC  C210 6166   2.645   3.572   2.953  0.0241  0.3487 -0.0597
   71SAPC  H10R 6167   2.540   3.592   2.923 -0.1279 -2.1838 -1.5263
   71SAPC  H10S 6168   2.690   3.588   2.852 -2.0252  0.7791 -0.9494
   71SAPC  C211 6169   2.704   3.672   3.050 -0.5636 -0.3555  0.4177
   71SAPC  H11R 6170   2.786   3.634   3.112 -0.3641  0.5530  0.7285
   71SAPC  C212 6171   2.664   3.800   3.073 -0.0015  0.2715  0.0328
   71SAPC  H12R 6172   2.727   3.864   3.136  1.9678  0.5662 -2.1167
   71SAPC  C213 6173   2.540   3.862   3.015  0.9749 -0.1806  0.5880
   71SAPC  H13R 6174   2.478   3.919   3.087 -1.9329 -1.9472 -0.3718
   71SAPC  H13S 6175   2.468   3.784   2.982  1.2075  0.6532 -2.1014
   71SAPC  C214 6176   2.574   3.945   2.890 -0.3977 -0.7936 -0.1610
   71SAPC  H14R 6177   2.583   3.880   2.802 -0.9473 -0.3598 -0.5462
   71SAPC  C215 6178   2.619   4.076   2.885 -0.2528 -0.0643  0.5102
   71SAPC  H15R 6179   2.636   4.116   2.784 -1.0136 -0.1906  0.3240
   71SAPC  C216 6180   2.642   4.169   3.001 -0.2316 -0.2400 -0.0803
   71SAPC  H16R 6181   2.610   4.114   3.091  0.5772  0.0894  0.4234
   71SAPC  H16S 6182   2.576   4.257   2.985  0.4743 -0.0265 -2.2278
   71SAPC  C217 6183   2.781   4.226   3.024 -0.3246  0.2079 -0.1569
   71SAPC  H17R 6184   2.815   4.278   2.932 -1.1833  0.0035 -0.6056
   71SAPC  H17S 6185   2.862   4.152   3.043  0.5099  0.3120 -2.7996
   71SAPC  C218 6186   2.771   4.316   3.150 -0.3640  0.0547 -0.3610
   71SAPC  H18R 6187   2.693   4.394   3.140  0.5845  1.2016  0.7382
   71SAPC  H18S 6188   2.870   4.361   3.172  0.1942 -0.6073 -1.4465
   71SAPC  C219 6189   2.724   4.240   3.283  1.0133 -0.4755  0.2723
   71SAPC  H19R 6190   2.624   4.201   3.254  0.2219  2.7513 -1.7392
   71SAPC  H19S 6191   2.712   4.310   3.368  1.0449  0.0011 -0.1157
   71SAPC  C220 6192   2.814   4.132   3.329 -0.5702  0.0451  0.0776
   71SAPC  H20R 6193   2.822   4.051   3.253 -0.8891 -1.3832  1.5300
   71SAPC  H20S 6194   2.768   4.091   3.421 -0.5620  0.1255  0.1176
   71SAPC  H20T 6195   2.922   4.151   3.347 -0.3078 -0.3471 -0.9949
   71SAPC   C33 6196   2.195   2.892   2.833 -0.1337 -0.0243  0.0006
   71SAPC   H3X 6197   2.285   2.919   2.774  0.0699 -2.4374 -0.9126
   71SAPC   H3Y 6198   2.216   2.785   2.857  0.3288  0.2327  0.7987
   71SAPC   C34 6199   2.205   2.981   2.964  0.1469 -0.3281  0.6371
   71SAPC   H4X 6200   2.211   3.086   2.928 -1.8633  0.6626  2.9114
   71SAPC   H4Y 6201   2.299   2.963   3.020  0.5260  2.2816  0.9692
   71SAPC   C35 6202   2.084   2.984   3.051  0.0322  0.5642  0.0654
   71SAPC   H5X 6203   2.086   2.911   3.135 -0.1939  1.5096  0.9134
   71SAPC   H5Y 6204   1.991   2.959   2.995  1.4962  0.3753 -2.3952
   71SAPC   C36 6205   2.061   3.124   3.119 -0.6634 -0.1469  0.0602
   71SAPC   H6X 6206   2.009   3.198   3.055 -0.2292  0.2836  0.2027
   71SAPC   H6Y 6207   2.163   3.150   3.154 -0.0162 -1.4060 -0.8088
   71SAPC   C37 6208   1.966   3.114   3.237  0.1168  0.2843  0.5548
   71SAPC   H7X 6209   2.015   3.031   3.291 -0.1161 -0.8723 -0.9154
   71SAPC   H7Y 6210   1.865   3.078   3.207  0.3455 -0.6451  0.8732
   71SAPC   C38 6211   1.945   3.243   3.324 -0.2073 -0.4494 -0.4226
   71SAPC   H8X 6212   1.922   3.335   3.265  0.7774 -0.6129 -1.0938
   71SAPC   H8Y 6213   2.038   3.269   3.380 -1.5077  3.2242  0.3411
   71SAPC   C39 6214   1.843   3.215   3.418 -0.3159 -0.8905 -0.3785
   71SAPC   H9X 6215   1.879   3.126   3.472 -0.8056 -1.2045 -0.5558
   71SAPC   H9Y 6216   1.753   3.182   3.361  0.2706 -2.5985 -0.3612
   71SAPC  C310 6217   1.817   3.324   3.518 -0.1672  0.2564 -0.6985
   71SAPC  H10X 6218   1.830   3.426   3.475 -1.9198  0.3145 -1.1599
   71SAPC  H10Y 6219   1.885   3.330   3.606 -2.9705 -2.5574  1.8916
   71SAPC  C311 6220   1.678   3.320   3.585 -0.8735  0.6714  0.7540
   71SAPC  H11X 6221   1.646   3.215   3.604 -0.4881  0.1833 -1.0684
   71SAPC  H11Y 6222   1.591   3.359   3.528 -0.9615  0.7329  0.9314
   71SAPC  C312 6223   1.681   3.390   3.713  0.3844  0.1899 -0.0036
   71SAPC  H12X 6224   1.762   3.346   3.774  0.6870 -2.2211 -1.9855
   71SAPC  H12Y 6225   1.587   3.356   3.761  0.0680 -0.4507 -1.0406
   71SAPC  C313 6226   1.700   3.537   3.710  0.3989 -0.1624 -0.2263
   71SAPC  H13X 6227   1.634   3.568   3.625 -1.5293  1.1682  1.6566
   71SAPC  H13Y 6228   1.805   3.563   3.684 -0.1129  2.2599 -0.0933
   71SAPC  C314 6229   1.649   3.605   3.837 -0.2092 -0.1678 -0.2402
   71SAPC  H14X 6230   1.683   3.559   3.932 -3.3596  0.2582  1.2398
   71SAPC  H14Y 6231   1.538   3.602   3.842 -0.3434  1.1774 -1.5453
   71SAPC  C315 6232   1.680   3.755   3.834  0.4815 -1.2188  0.0426
   71SAPC  H15X 6233   1.646   3.801   3.739 -1.1424 -0.5706  0.9050
   71SAPC  H15Y 6234   1.788   3.780   3.845  0.2145 -0.0429  0.1040
   71SAPC  C316 6235   1.609   3.836   3.937 -0.1221 -0.2322  0.7254
   71SAPC  H16X 6236   1.610   3.783   4.034  1.7485  1.3627  1.6507
   71SAPC  H16Y 6237   1.502   3.847   3.908 -0.4011  0.5104  1.9713
   71SAPC  C317 6238   1.677   3.968   3.970  0.5285 -0.4563 -0.1712
   71SAPC  H17X 6239   1.674   4.030   3.878  2.4442 -0.5362 -0.3451
   71SAPC  H17Y 6240   1.785   3.944   3.984  1.3187  2.0664 -1.2573
   71SAPC  C318 6241   1.635   4.051   4.093 -0.3465 -0.3680 -0.2918
   71SAPC  H18X 6242   1.544   4.110   4.070  0.0978  0.5085  0.1389
   71SAPC  H18Y 6243   1.710   4.130   4.111 -1.2358  0.2539  0.8460
   71SAPC  H18Z 6244   1.611   3.990   4.183 -1.8023 -0.4142 -0.6790
   72SAPC     N 6245   0.563   2.079   2.017 -0.9756  0.7982 -0.1863
   72SAPC   C12 6246   0.477   2.169   2.108 -0.5721  0.0858 -0.4185
   72SAPC  H12A 6247   0.437   2.256   2.058  0.2135  0.7168  0.0285
   72SAPC  H12B 6248   0.544   2.216   2.179 -0.4841  1.6719 -1.5032
   72SAPC   C13 6249   0.488   2.018   1.907  0.0257  0.0278 -0.2553
   72SAPC  H13A 6250   0.541   1.946   1.847 -0.4217 -1.2698  0.8604
   72SAPC  H13B 6251   0.405   1.967   1.952  1.5676 -2.0117  0.4203
   72SAPC  H13C 6252   0.456   2.099   1.843  0.6634  0.3507 -0.1788
   72SAPC   C14 6253   0.662   2.163   1.937  0.5829  0.1080  0.2266
   72SAPC  H14A 6254   0.716   2.103   1.865 -0.0571 -1.3575  0.9242
   72SAPC  H14B 6255   0.611   2.234   1.873 -1.4376 -0.4814  1.1069
   72SAPC  H14C 6256   0.737   2.211   1.997  0.9951 -0.5687  0.2631
   72SAPC   C15 6257   0.643   1.977   2.091  0.0910  0.3753 -0.3350
   72SAPC  H15A 6258   0.713   2.024   2.158 -0.8109 -0.6454  1.3731
   72SAPC  H15B 6259   0.578   1.911   2.146 -0.8772  0.0117 -1.8303
   72SAPC  H15C 6260   0.696   1.912   2.023  0.0251  0.6488 -0.6518
   72SAPC   C11 6261   0.369   2.095   2.185 -0.0953  0.2094 -0.8378
   72SAPC  H11A 6262   0.318   2.173   2.246 -0.5179  1.4784 -2.7174
   72SAPC  H11B 6263   0.413   2.019   2.252  1.7561  1.0542 -1.0400
   72SAPC     P 6264   0.194   1.914   2.158 -0.2529  0.0035  0.1382
   72SAPC   O13 6265   0.071   1.895   2.075 -0.0116  0.3708  0.1733
   72SAPC   O14 6266   0.287   1.802   2.162 -0.2213 -0.1016  0.3947
   72SAPC   O12 6267   0.272   2.036   2.100  0.6245  0.2431  0.1712
   72SAPC   O11 6268   0.157   1.962   2.306  0.1687  1.0192  0.4011
   72SAPC    C1 6269   0.102   1.870   2.406 -0.6969  0.0738  0.1862
   72SAPC    HA 6270   0.002   1.904   2.439 -2.0378 -1.0519 -2.4405
   72SAPC    HB 6271   0.080   1.772   2.361 -2.6505 -0.2726  1.7410
   72SAPC    C2 6272   0.189   1.856   2.535 -0.3027 -0.1328 -0.1191
   72SAPC    HS 6273   0.142   1.773   2.591 -0.7504  0.8984  1.0861
   72SAPC   O21 6274   0.192   1.979   2.610 -0.2321  0.3378 -0.0225
   72SAPC   C21 6275   0.080   2.023   2.670 -0.4071  0.5741  0.2494
   72SAPC   O22 6276  -0.023   1.960   2.673  0.2758  0.0623 -0.7778
   72SAPC   C22 6277   0.108   2.156   2.739  0.7138  0.3682  0.2465
   72SAPC   H2R 6278   0.219   2.167   2.737  0.6692  1.2792 -3.3623
   72SAPC   H2S 6279   0.069   2.229   2.665  0.6143  0.9035  0.8223
   72SAPC    C3 6280   0.335   1.830   2.498  0.5762  0.0433 -0.2864
   72SAPC    HX 6281   0.380   1.906   2.431  2.8166  1.4387  2.5741
   72SAPC    HY 6282   0.341   1.738   2.436 -0.9632  0.1053 -0.5505
   72SAPC   O31 6283   0.408   1.811   2.625 -0.4420  0.0720  0.1429
   72SAPC   C31 6284   0.485   1.913   2.658  0.3284 -0.0540  0.3855
   72SAPC   O32 6285   0.486   2.031   2.622  0.0241  0.6610 -0.2034
   72SAPC   C32 6286   0.578   1.861   2.768  0.5003  0.8078  0.6072
   72SAPC   H2X 6287   0.633   1.779   2.719  0.1664  0.9059  0.0666
   72SAPC   H2Y 6288   0.515   1.817   2.848 -0.1537 -0.1258 -0.3985
   72SAPC   C23 6289   0.043   2.168   2.871  0.0402 -0.4936  0.3057
   72SAPC   H3R 6290  -0.066   2.172   2.852  0.1787  2.6121 -0.2882
   72SAPC   H3S 6291   0.073   2.270   2.902 -3.9959  1.6503 -2.0915
   72SAPC   C24 6292   0.090   2.068   2.980  0.1485 -0.6316 -0.1203
   72SAPC   H4R 6293   0.041   1.970   2.963 -2.4790  0.7848 -1.4003
   72SAPC   H4S 6294   0.037   2.094   3.074  1.9216 -1.0952  1.0688
   72SAPC   C25 6295   0.244   2.069   3.006  0.5429  0.0395  0.3349
   72SAPC   H5R 6296   0.297   2.013   2.927 -2.3423  1.9151 -3.2486
   72SAPC   C26 6297   0.310   2.128   3.107 -0.5768  0.4136  0.2871
   72SAPC   H6R 6298   0.418   2.113   3.120 -0.0234  2.1179 -1.8262
   72SAPC   C27 6299   0.246   2.207   3.212  0.2496 -0.1091  0.3195
   72SAPC   H7R 6300   0.255   2.147   3.305 -2.0211  1.4713  1.6655
   72SAPC   H7S 6301   0.136   2.215   3.195  0.0595  0.0239  1.5142
   72SAPC   C28 6302   0.281   2.348   3.242  0.5753 -0.6233 -0.4011
   72SAPC   H8R 6303   0.289   2.404   3.148 -1.5388 -2.5191 -1.7998
   72SAPC   C29 6304   0.315   2.403   3.363  0.5571  0.3383 -0.1319
   72SAPC   H9R 6305   0.352   2.507   3.365  0.3949  0.4211 -1.0048
   72SAPC  C210 6306   0.322   2.324   3.494 -0.6608 -0.4640 -0.0238
   72SAPC  H10R 6307   0.296   2.216   3.485  1.1501 -1.2123  2.7667
   72SAPC  H10S 6308   0.246   2.365   3.563 -2.8993  0.0429 -2.6050
   72SAPC  C211 6309   0.462   2.327   3.535  0.2051  0.1279 -0.1489
   72SAPC  H11R 6310   0.529   2.337   3.448  1.2316  0.5717  0.6730
   72SAPC  C212 6311   0.511   2.334   3.661  0.6158 -0.1643 -0.0762
   72SAPC  H12R 6312   0.620   2.342   3.673  0.7383  0.0932 -1.2011
   72SAPC  C213 6313   0.437   2.332   3.799 -0.0436  0.1642  0.2658
   72SAPC  H13R 6314   0.507   2.282   3.869 -0.1104 -1.5754 -0.8524
   72SAPC  H13S 6315   0.346   2.269   3.792  0.9667 -1.1392 -2.1364
   72SAPC  C214 6316   0.407   2.462   3.860  0.1755  0.3191 -0.3121
   72SAPC  H14R 6317   0.320   2.508   3.811  0.4900  1.5434  0.2426
   72SAPC  C215 6318   0.479   2.527   3.956  0.9381 -0.1291 -0.0577
   72SAPC  H15R 6319   0.439   2.625   3.986 -0.0658 -0.2688 -0.8602
   72SAPC  C216 6320   0.611   2.476   4.018 -0.3478 -0.2326 -0.1651
   72SAPC  H16R 6321   0.689   2.555   4.018  0.5457 -1.0943 -0.1195
   72SAPC  H16S 6322   0.653   2.397   3.952 -0.2915 -0.0808 -0.3117
   72SAPC  C217 6323   0.603   2.432   4.169 -0.2402  0.5984 -0.1101
   72SAPC  H17R 6324   0.697   2.397   4.216  0.1390  2.0564  0.2708
   72SAPC  H17S 6325   0.528   2.351   4.176 -0.5869  0.9460  0.2697
   72SAPC  C218 6326   0.551   2.539   4.265  0.1531 -0.2981  0.5536
   72SAPC  H18R 6327   0.448   2.577   4.247 -0.0950 -1.0495  0.3694
   72SAPC  H18S 6328   0.614   2.631   4.267  1.1270 -0.9550  1.3040
   72SAPC  C219 6329   0.556   2.502   4.415  0.0253 -0.5240  0.3113
   72SAPC  H19R 6330   0.471   2.436   4.444 -0.5080  0.4282  0.9723
   72SAPC  H19S 6331   0.548   2.595   4.476  0.8540  0.4536 -1.0249
   72SAPC  C220 6332   0.681   2.435   4.465 -0.0441 -0.8654 -0.0912
   72SAPC  H20R 6333   0.766   2.462   4.399 -1.3599 -0.2159 -1.5897
   72SAPC  H20S 6334   0.668   2.326   4.484  0.8809 -0.8329  0.8025
   72SAPC  H20T 6335   0.718   2.488   4.555  1.1752  2.5011 -2.3858
   72SAPC   C33 6336   0.670   1.968   2.834  0.3098 -0.4731  0.4614
   72SAPC   H3X 6337   0.616   2.065   2.840 -0.4393 -0.6245 -2.4340
   72SAPC   H3Y 6338   0.747   1.996   2.760 -0.6601  2.3471  0.4000
   72SAPC   C34 6339   0.727   1.921   2.968  0.3590 -0.1884  0.3973
   72SAPC   H4X 6340   0.832   1.958   2.978 -0.1824  1.3796  0.5435
   72SAPC   H4Y 6341   0.748   1.812   2.974  0.7846 -0.0560  2.2602
   72SAPC   C35 6342   0.655   1.972   3.092 -0.0423 -0.5479 -0.0160
   72SAPC   H5X 6343   0.551   1.935   3.081 -0.4631  0.3819  0.7108
   72SAPC   H5Y 6344   0.650   2.083   3.088 -0.1530 -0.5560 -0.1081
   72SAPC   C36 6345   0.732   1.937   3.219 -0.7420 -0.1365 -0.5122
   72SAPC   H6X 6346   0.837   1.966   3.197 -1.3932 -0.0278 -4.2178
   72SAPC   H6Y 6347   0.716   1.828   3.234 -2.7028 -0.0076 -1.3614
   72SAPC   C37 6348   0.689   2.028   3.345 -0.1905 -0.5697  0.5839
   72SAPC   H7X 6349   0.584   2.010   3.374 -0.2903 -1.8110 -0.4552
   72SAPC   H7Y 6350   0.701   2.132   3.308  2.3110 -0.9037  0.2381
   72SAPC   C38 6351   0.785   2.010   3.455  0.3795 -0.1749  0.1616
   72SAPC   H8X 6352   0.877   2.069   3.433  0.1931 -0.2621 -0.9442
   72SAPC   H8Y 6353   0.821   1.907   3.474 -0.1601 -0.2279  0.9028
   72SAPC   C39 6354   0.729   2.082   3.573 -0.4615 -0.1284  0.4546
   72SAPC   H9X 6355   0.637   2.032   3.610 -1.0603  0.5561 -0.0908
   72SAPC   H9Y 6356   0.696   2.182   3.538 -0.2663 -0.2455 -0.0716
   72SAPC  C310 6357   0.813   2.100   3.706  0.1431  0.9475 -0.7993
   72SAPC  H10X 6358   0.837   2.206   3.730 -0.9016  0.8709  0.8058
   72SAPC  H10Y 6359   0.910   2.049   3.691  1.1402  2.5369 -0.1090
   72SAPC  C311 6360   0.730   2.049   3.825  0.3301  0.6215  0.1416
   72SAPC  H11X 6361   0.697   1.943   3.817  0.7724  0.4287  0.7747
   72SAPC  H11Y 6362   0.633   2.102   3.814  0.2377  0.0972 -1.9284
   72SAPC  C312 6363   0.798   2.078   3.956  0.0139 -0.3668  0.2902
   72SAPC  H12X 6364   0.834   2.183   3.965 -0.7003 -0.1426  0.5991
   72SAPC  H12Y 6365   0.881   2.005   3.970  1.6148  1.3808  0.4025
   72SAPC  C313 6366   0.689   2.054   4.070 -0.1209 -0.1870 -0.7831
   72SAPC  H13X 6367   0.642   1.953   4.075  0.9852 -0.7492 -1.4197
   72SAPC  H13Y 6368   0.601   2.116   4.044 -0.3862 -0.7146 -1.1597
   72SAPC  C314 6369   0.754   2.076   4.209  0.2179 -0.2779  0.0713
   72SAPC  H14X 6370   0.783   2.184   4.212 -0.7971 -0.0038  0.2520
   72SAPC  H14Y 6371   0.841   2.009   4.226 -0.2309 -1.0322 -0.5466
   72SAPC  C315 6372   0.656   2.052   4.326  0.2799 -0.5017 -0.0497
   72SAPC  H15X 6373   0.567   2.106   4.290  0.2220 -1.4052 -1.3198
   72SAPC  H15Y 6374   0.691   2.104   4.418  0.0614  0.9420 -0.7632
   72SAPC  C316 6375   0.620   1.906   4.352  1.1526  0.5502  0.0632
   72SAPC  H16X 6376   0.704   1.873   4.418  0.5974  0.2698  0.6354
   72SAPC  H16Y 6377   0.629   1.835   4.267 -2.1512 -0.1788  0.2096
   72SAPC  C317 6378   0.486   1.879   4.407 -0.2081 -0.7834 -0.6828
   72SAPC  H17X 6379   0.410   1.893   4.327 -1.8572 -2.9475  0.3770
   72SAPC  H17Y 6380   0.485   1.944   4.497 -1.3204  0.4662 -1.5601
   72SAPC  C318 6381   0.472   1.730   4.450  0.0797  0.3087  0.5860
   72SAPC  H18X 6382   0.367   1.708   4.479 -0.3079 -2.2891 -2.2953
   72SAPC  H18Y 6383   0.530   1.709   4.542 -1.3917  0.9208  1.6904
   72SAPC  H18Z 6384   0.509   1.667   4.367  0.3634 -0.2951  1.1625
   73SLPC     N 6385   3.200   4.063   6.611  0.2110 -0.2938  0.6334
   73SLPC   C13 6386   3.049   4.059   6.581  0.6302 -0.0820 -0.0153
   73SLPC  H13A 6387   2.989   4.085   6.667  0.9087 -1.2407  0.5417
   73SLPC  H13B 6388   3.019   4.122   6.499  2.7970  1.2082  0.1154
   73SLPC  H13C 6389   3.030   3.956   6.557  0.8392 -0.2564  0.5510
   73SLPC   C14 6390   3.238   4.204   6.637  0.1320 -0.1965 -0.2329
   73SLPC  H14A 6391   3.340   4.215   6.669 -0.3945  0.1720  1.4011
   73SLPC  H14B 6392   3.225   4.259   6.544 -1.5639 -0.4466 -0.1780
   73SLPC  H14C 6393   3.180   4.245   6.719  1.7381 -1.2819  1.5173
   73SLPC   C15 6394   3.269   4.023   6.486  0.7692  0.1916  0.8233
   73SLPC  H15A 6395   3.261   4.110   6.423  1.4331  0.2949  0.8709
   73SLPC  H15B 6396   3.377   4.016   6.486  1.0138  2.9666  0.7938
   73SLPC  H15C 6397   3.228   3.933   6.443  0.4887  1.3241 -1.4315
   73SLPC   C12 6398   3.233   3.963   6.720  0.4611 -0.3172  0.2668
   73SLPC  H12A 6399   3.180   3.871   6.699  2.8122 -1.7900  0.3964
   73SLPC  H12B 6400   3.186   3.993   6.813 -0.1759 -0.8179  0.1165
   73SLPC   C11 6401   3.378   3.928   6.748 -0.0603 -0.0504 -0.8070
   73SLPC  H11A 6402   3.434   3.893   6.658  0.9620 -0.0535 -0.1815
   73SLPC  H11B 6403   3.387   3.848   6.825 -0.6590  1.0922  0.4882
   73SLPC     P 6404   3.580   4.095   6.761 -0.5190  0.0765  0.0713
   73SLPC   O13 6405   3.573   4.246   6.750 -0.8143 -0.0549  0.1696
   73SLPC   O14 6406   3.674   4.045   6.866  0.1880  0.4166  0.6506
   73SLPC   O12 6407   3.436   4.042   6.800  0.4231 -0.0110 -0.3202
   73SLPC   O11 6408   3.614   4.034   6.618 -0.1458 -0.0487 -0.0885
   73SLPC    C1 6409   3.727   3.939   6.607 -0.1195  0.5275  0.1169
   73SLPC    HA 6410   3.721   3.867   6.691  1.4588 -0.7963 -0.8429
   73SLPC    HB 6411   3.720   3.867   6.522 -3.3995  1.8775 -0.9249
   73SLPC    C2 6412   3.856   4.010   6.597  0.0506 -0.1633 -0.1851
   73SLPC    HS 6413   3.862   4.077   6.685 -0.2792 -0.9656  0.4679
   73SLPC   O21 6414   3.864   4.087   6.479  0.3294 -0.0681  0.3789
   73SLPC   C21 6415   3.955   4.184   6.481 -0.0589  0.4754 -0.0591
   73SLPC   O22 6416   4.037   4.209   6.565 -0.1543  0.3769 -0.0952
   73SLPC   C22 6417   3.949   4.257   6.351 -0.0822 -0.2048 -0.2502
   73SLPC   H2R 6418   3.846   4.284   6.320  0.1614  3.0186  1.3363
   73SLPC   H2S 6419   4.002   4.354   6.366  0.4251 -0.4769 -0.2374
   73SLPC    C3 6420   3.976   3.909   6.599  0.3076  0.4717  0.5241
   73SLPC    HX 6421   3.979   3.858   6.698  4.9756 -0.7105  0.0074
   73SLPC    HY 6422   4.069   3.969   6.595  0.8801 -0.4452 -2.1502
   73SLPC   O31 6423   3.972   3.817   6.493  0.3260 -0.2376  0.6852
   73SLPC   C31 6424   4.089   3.758   6.465  0.0994 -0.7203 -0.1712
   73SLPC   O32 6425   4.198   3.782   6.514 -0.3957 -0.1446  0.4219
   73SLPC   C32 6426   4.067   3.650   6.362  0.1638 -0.3086 -0.0465
   73SLPC   H2X 6427   3.970   3.605   6.390 -0.4561 -0.1057 -1.7436
   73SLPC   H2Y 6428   4.154   3.581   6.360  2.6809  2.6618 -0.8362
   73SLPC   C23 6429   4.005   4.165   6.239 -0.3308  0.0708 -0.0852
   73SLPC   H3R 6430   3.956   4.065   6.241 -2.0650  0.8906  0.0357
   73SLPC   H3S 6431   4.110   4.146   6.271  0.1596  0.9053 -1.1248
   73SLPC   C24 6432   4.002   4.222   6.092  0.2492 -0.4732  0.2425
   73SLPC   H4R 6433   4.087   4.170   6.042  2.8635  1.5671  2.2176
   73SLPC   H4S 6434   4.028   4.330   6.096  0.4467 -0.4557 -1.1030
   73SLPC   C25 6435   3.872   4.190   6.028  0.1017  0.0469  0.2644
   73SLPC   H5R 6436   3.796   4.248   6.084  0.8453  1.7379 -0.4063
   73SLPC   H5S 6437   3.839   4.084   6.034  1.3279 -0.5541 -2.2819
   73SLPC   C26 6438   3.859   4.232   5.881 -0.1406  0.2148 -0.2906
   73SLPC   H6R 6439   3.912   4.328   5.862 -1.4689  1.1115  0.3409
   73SLPC   H6S 6440   3.753   4.237   5.848 -1.0630  0.3638  2.4765
   73SLPC   C27 6441   3.926   4.120   5.780  0.0529  0.2002  0.6172
   73SLPC   H7R 6442   3.873   4.030   5.817 -0.1541  0.2446  0.4296
   73SLPC   H7S 6443   4.032   4.118   5.812 -0.2296  0.9663  1.6476
   73SLPC   C28 6444   3.897   4.139   5.629 -0.7801  1.0477 -0.1069
   73SLPC   H8R 6445   3.954   4.231   5.604 -1.0493  1.5054  0.8934
   73SLPC   H8S 6446   3.793   4.163   5.601 -0.5715  0.9458 -0.9881
   73SLPC   C29 6447   3.937   4.015   5.542 -0.1479  0.4380 -0.3176
   73SLPC   H9R 6448   3.961   3.923   5.597  1.9067  0.4873 -1.0165
   73SLPC  C210 6449   3.942   4.012   5.408  0.1858 -0.2868 -0.7769
   73SLPC  H10R 6450   3.988   3.924   5.361  1.8908  0.4556 -0.5327
   73SLPC  C211 6451   3.920   4.131   5.327  0.4869  0.5304  0.6525
   73SLPC  H11R 6452   4.008   4.197   5.343  0.9873 -0.1840  0.9248
   73SLPC  H11S 6453   3.828   4.191   5.345 -0.3078  0.0818 -1.6683
   73SLPC  C212 6454   3.912   4.088   5.183 -0.4134 -0.3056 -0.7986
   73SLPC  H12R 6455   3.902   3.979   5.171 -2.6180 -0.2157 -0.1623
   73SLPC  C213 6456   3.943   4.161   5.070 -0.5372 -0.5362 -0.3383
   73SLPC  H13R 6457   3.950   4.116   4.970 -0.2862  0.3478 -0.7314
   73SLPC  C214 6458   3.965   4.312   5.076  0.0170 -0.6356  0.2604
   73SLPC  H14R 6459   4.071   4.344   5.091 -0.8642  3.1960 -0.5681
   73SLPC  H14S 6460   3.907   4.355   5.160  0.2592 -1.0635  0.6510
   73SLPC  C215 6461   3.919   4.390   4.949 -0.0963  0.7308 -0.2680
   73SLPC  H15R 6462   3.951   4.492   4.981  1.9401 -0.2599  1.1102
   73SLPC  H15S 6463   3.810   4.377   4.937 -0.4304 -2.5031  4.0452
   73SLPC  C216 6464   4.009   4.349   4.833  0.3011  0.5821 -0.1792
   73SLPC  H16R 6465   4.025   4.240   4.818 -1.0874  0.2191  0.7944
   73SLPC  H16S 6466   4.104   4.405   4.842  0.4218  0.5618 -1.2296
   73SLPC  C217 6467   3.936   4.379   4.695 -0.2673 -0.3581  0.1625
   73SLPC  H17R 6468   3.909   4.487   4.695  0.2514 -0.1766  2.5508
   73SLPC  H17S 6469   3.844   4.316   4.692  0.7211 -1.8286 -2.2222
   73SLPC  C218 6470   4.022   4.351   4.571  0.0201 -1.0039  0.0165
   73SLPC  H18R 6471   4.035   4.241   4.569 -0.1779 -1.0808  1.8196
   73SLPC  H18S 6472   4.122   4.399   4.574 -0.4371  0.1653 -1.6284
   73SLPC  H18T 6473   3.983   4.379   4.470 -0.6949 -2.2539 -0.0734
   73SLPC   C33 6474   4.067   3.716   6.219  0.1051  0.0097  0.0620
   73SLPC   H3X 6475   4.020   3.817   6.212  0.1875  0.0401 -0.0644
   73SLPC   H3Y 6476   3.999   3.646   6.166 -0.7518 -2.5026  4.0972
   73SLPC   C34 6477   4.197   3.733   6.129 -0.4266  0.7597 -0.3131
   73SLPC   H4X 6478   4.238   3.630   6.116 -0.4673  0.5726  0.9188
   73SLPC   H4Y 6479   4.272   3.789   6.189 -0.6135  1.2275 -0.5111
   73SLPC   C35 6480   4.175   3.785   5.989 -0.4439 -0.0926  0.4099
   73SLPC   H5X 6481   4.276   3.799   5.946 -0.2499  0.6871  1.0965
   73SLPC   H5Y 6482   4.121   3.882   5.990 -0.0820  0.1090  1.7746
   73SLPC   C36 6483   4.114   3.677   5.894  0.5690  0.1996  0.3591
   73SLPC   H6X 6484   4.025   3.637   5.946 -0.1265 -2.9370 -2.8981
   73SLPC   H6Y 6485   4.186   3.593   5.901  4.1189  2.8330 -0.9946
   73SLPC   C37 6486   4.088   3.708   5.749  0.3355 -0.0436  0.5868
   73SLPC   H7X 6487   4.029   3.802   5.740 -0.9222 -0.9105 -0.8504
   73SLPC   H7Y 6488   4.030   3.623   5.706  2.1973 -2.0397  1.7902
   73SLPC   C38 6489   4.225   3.718   5.681 -0.0412 -1.4447 -0.3474
   73SLPC   H8X 6490   4.282   3.630   5.720 -1.2772 -1.9682  0.3316
   73SLPC   H8Y 6491   4.290   3.806   5.697 -1.0695 -0.1884 -2.5938
   73SLPC   C39 6492   4.213   3.722   5.530 -0.9525 -0.4307  0.1308
   73SLPC   H9X 6493   4.142   3.806   5.509 -1.0948 -0.7853 -0.8410
   73SLPC   H9Y 6494   4.156   3.633   5.497 -1.3821  0.5443 -1.9178
   73SLPC  C310 6495   4.357   3.739   5.460  0.5281 -0.1991 -0.0695
   73SLPC  H10X 6496   4.410   3.642   5.473  1.1231  0.2525  1.0265
   73SLPC  H10Y 6497   4.414   3.824   5.504  0.7495 -1.3258  1.9450
   73SLPC  C311 6498   4.338   3.752   5.309 -0.1759 -0.3602 -0.2791
   73SLPC  H11X 6499   4.254   3.824   5.298 -1.5798 -2.0639 -1.1453
   73SLPC  H11Y 6500   4.297   3.656   5.271 -1.4178  0.4103 -0.9676
   73SLPC  C312 6501   4.456   3.789   5.214 -0.9764 -0.4005 -0.2576
   73SLPC  H12X 6502   4.542   3.738   5.262 -0.9143  1.9792  2.4480
   73SLPC  H12Y 6503   4.468   3.900   5.215  0.0324 -0.4921 -0.8376
   73SLPC  C313 6504   4.452   3.749   5.069 -0.5750  0.2166  0.7288
   73SLPC  H13X 6505   4.419   3.645   5.052  0.9286 -0.0532 -0.7623
   73SLPC  H13Y 6506   4.555   3.740   5.030 -0.2971 -0.6808  1.6405
   73SLPC  C314 6507   4.345   3.829   4.989 -0.1810 -0.5793 -0.5861
   73SLPC  H14X 6508   4.375   3.936   4.997  1.2523 -0.8598 -1.7691
   73SLPC  H14Y 6509   4.245   3.815   5.035  0.2472  0.3851  0.6810
   73SLPC  C315 6510   4.325   3.786   4.846 -0.2713 -0.3057  0.0043
   73SLPC  H15X 6511   4.271   3.689   4.839 -2.1563  0.7208 -0.2521
   73SLPC  H15Y 6512   4.426   3.790   4.798  0.2229  2.8378  1.1209
   73SLPC  C316 6513   4.250   3.896   4.774  0.2302  0.3043  0.4286
   73SLPC  H16X 6514   4.309   3.988   4.752  0.3655 -0.0294 -0.7000
   73SLPC  H16Y 6515   4.162   3.912   4.840 -0.1525  0.2424 -0.0634
   73SLPC  C317 6516   4.192   3.853   4.634 -0.1616 -0.0733 -0.2170
   73SLPC  H17X 6517   4.134   3.759   4.625 -0.9670  0.3585  0.3024
   73SLPC  H17Y 6518   4.280   3.828   4.571 -1.7958  1.2679 -3.2472
   73SLPC  C318 6519   4.119   3.971   4.568 -0.1456  0.2848  0.2685
   73SLPC  H18X 6520   4.095   3.947   4.462  0.5439  0.4510  0.0679
   73SLPC  H18Y 6521   4.181   4.063   4.562  0.4960 -0.1670 -0.1835
   73SLPC  H18Z 6522   4.031   4.004   4.627  0.9806  1.5985  1.3126
   74SLPC     N 6523   1.660   2.872   6.585  0.7990  0.0383 -0.2380
   74SLPC   C13 6524   1.672   2.999   6.658 -0.0360  0.1731 -0.3224
   74SLPC  H13A 6525   1.571   3.035   6.672 -1.1987 -2.7237 -0.5888
   74SLPC  H13B 6526   1.732   2.984   6.746  0.5648 -2.5286 -1.1114
   74SLPC  H13C 6527   1.720   3.073   6.595 -0.6142  0.5816 -0.2953
   74SLPC   C14 6528   1.614   2.762   6.680 -0.3907 -0.0053 -0.3633
   74SLPC  H14A 6529   1.626   2.665   6.633  1.2558  0.7711 -1.6595
   74SLPC  H14B 6530   1.674   2.767   6.769 -0.3117 -2.7659 -0.1825
   74SLPC  H14C 6531   1.512   2.782   6.709  0.5702  1.0885  2.5729
   74SLPC   C15 6532   1.787   2.834   6.524 -0.3864 -0.1617 -0.1565
   74SLPC  H15A 6533   1.872   2.807   6.584 -0.6469  1.1675  0.8697
   74SLPC  H15B 6534   1.771   2.745   6.465 -0.3350 -0.8158  0.7918
   74SLPC  H15C 6535   1.817   2.907   6.450 -0.2686 -0.8865 -0.8368
   74SLPC   C12 6536   1.553   2.879   6.474  0.0914  0.0589 -0.2038
   74SLPC  H12A 6537   1.453   2.885   6.513 -1.2172 -2.2047 -2.8531
   74SLPC  H12B 6538   1.555   2.784   6.422  1.5924 -1.0552  1.6918
   74SLPC   C11 6539   1.571   2.992   6.361  0.0508 -0.2208 -0.8367
   74SLPC  H11A 6540   1.488   2.987   6.287 -0.0783 -0.1527 -0.6968
   74SLPC  H11B 6541   1.649   2.965   6.286  0.8021 -0.7690  0.1205
   74SLPC     P 6542   1.453   3.197   6.465  0.1026  0.3885 -0.5735
   74SLPC   O13 6543   1.348   3.178   6.357 -0.3782  0.3508  0.4631
   74SLPC   O14 6544   1.420   3.163   6.604  0.2567  0.1094 -0.2124
   74SLPC   O12 6545   1.587   3.126   6.429  0.6907 -0.3770 -0.2266
   74SLPC   O11 6546   1.499   3.347   6.460  0.4604  0.3140  0.1718
   74SLPC    C1 6547   1.551   3.410   6.344  0.2807  0.5572  0.5134
   74SLPC    HA 6548   1.623   3.490   6.370 -0.0605  1.0028  0.1121
   74SLPC    HB 6549   1.596   3.333   6.278 -1.7654 -1.7592  1.6583
   74SLPC    C2 6550   1.438   3.484   6.263  0.6615  0.0836 -0.5585
   74SLPC    HS 6551   1.365   3.416   6.215 -0.2048  0.5851  0.0265
   74SLPC   O21 6552   1.508   3.557   6.159  0.0447  0.0190  0.3575
   74SLPC   C21 6553   1.561   3.480   6.061 -0.1224  0.6724  0.5820
   74SLPC   O22 6554   1.546   3.359   6.050  0.0107 -0.0571 -0.0695
   74SLPC   C22 6555   1.653   3.557   5.958 -0.3681  0.4147 -0.6782
   74SLPC   H2R 6556   1.652   3.665   5.987 -1.2259  0.3006 -0.2284
   74SLPC   H2S 6557   1.754   3.513   5.966 -0.6598 -0.0871  0.3624
   74SLPC    C3 6558   1.350   3.582   6.347  0.2164 -0.2915 -0.3007
   74SLPC    HX 6559   1.414   3.653   6.404  0.0531  0.0365 -0.5202
   74SLPC    HY 6560   1.316   3.522   6.434 -1.4450  0.8763 -0.0883
   74SLPC   O31 6561   1.231   3.639   6.276  0.2397 -0.1778  0.0312
   74SLPC   C31 6562   1.120   3.625   6.353  0.6390  0.4052  0.0015
   74SLPC   O32 6563   1.115   3.597   6.472 -0.0645  0.2342 -0.0803
   74SLPC   C32 6564   0.998   3.641   6.262 -0.5808  0.5422 -0.1077
   74SLPC   H2X 6565   0.933   3.715   6.314 -1.6095 -0.0636 -0.4966
   74SLPC   H2Y 6566   0.948   3.542   6.263 -1.6950  1.0804  0.3841
   74SLPC   C23 6567   1.611   3.547   5.811  0.1790  0.9318 -0.3169
   74SLPC   H3R 6568   1.513   3.597   5.797  0.4220  1.6414  0.4402
   74SLPC   H3S 6569   1.598   3.443   5.776 -1.5238  1.6050 -1.8551
   74SLPC   C24 6570   1.712   3.606   5.713 -0.6170 -0.0274 -0.7442
   74SLPC   H4R 6571   1.804   3.545   5.726 -1.8038 -1.6274  0.6012
   74SLPC   H4S 6572   1.723   3.715   5.729 -2.4931  0.2571 -1.1516
   74SLPC   C25 6573   1.658   3.586   5.573 -0.1499 -0.6610  0.5732
   74SLPC   H5R 6574   1.557   3.631   5.566  0.5083  0.8217  0.0641
   74SLPC   H5S 6575   1.646   3.481   5.539 -0.6442 -0.1490 -0.9057
   74SLPC   C26 6576   1.737   3.671   5.467 -0.0288  0.1141  0.4298
   74SLPC   H6R 6577   1.751   3.770   5.515 -1.6521 -0.4374  2.1543
   74SLPC   H6S 6578   1.679   3.675   5.372  0.9033  0.1144 -0.1471
   74SLPC   C27 6579   1.877   3.604   5.441 -0.4029 -0.3893 -0.6794
   74SLPC   H7R 6580   1.860   3.498   5.413  2.4520 -0.8110 -1.0430
   74SLPC   H7S 6581   1.931   3.615   5.538 -0.9961 -0.9343 -0.2753
   74SLPC   C28 6582   1.959   3.686   5.344 -0.3636 -0.3100  0.0827
   74SLPC   H8R 6583   2.064   3.677   5.380 -1.3887  0.3770  3.6266
   74SLPC   H8S 6584   1.930   3.793   5.350 -0.3158 -0.3647  1.5249
   74SLPC   C29 6585   1.926   3.617   5.215  1.0480 -0.4412  0.7181
   74SLPC   H9R 6586   1.971   3.519   5.194 -0.3574 -0.5209 -2.3904
   74SLPC  C210 6587   1.836   3.662   5.121  0.1718 -0.3205 -0.1414
   74SLPC  H10R 6588   1.811   3.603   5.031 -2.2039 -0.0560  0.2999
   74SLPC  C211 6589   1.772   3.796   5.124  0.7268  1.1919  0.1544
   74SLPC  H11R 6590   1.802   3.861   5.209 -4.8434  1.8378  2.0044
   74SLPC  H11S 6591   1.664   3.775   5.138  0.3617 -0.3477 -3.5588
   74SLPC  C212 6592   1.799   3.878   5.003  0.9418  0.4980 -0.4629
   74SLPC  H12R 6593   1.868   3.960   5.025 -1.4272  2.0310  1.9006
   74SLPC  C213 6594   1.741   3.876   4.882 -0.5051 -0.1170  0.3115
   74SLPC  H13R 6595   1.781   3.930   4.795  1.0251  0.1254  1.1195
   74SLPC  C214 6596   1.629   3.785   4.838  0.3586  0.0893 -0.0284
   74SLPC  H14R 6597   1.538   3.844   4.813 -0.0965 -1.3273 -1.9328
   74SLPC  H14S 6598   1.602   3.717   4.922  0.1182  1.0997  0.7400
   74SLPC  C215 6599   1.664   3.701   4.705  0.1092 -0.6963 -0.3341
   74SLPC  H15R 6600   1.576   3.648   4.662 -1.7500  2.8519 -1.3597
   74SLPC  H15S 6601   1.725   3.619   4.748  1.8673  2.4047  3.7785
   74SLPC  C216 6602   1.745   3.765   4.593  0.3780  0.5610 -0.1554
   74SLPC  H16R 6603   1.844   3.796   4.633  1.3035 -0.8711 -1.2234
   74SLPC  H16S 6604   1.689   3.858   4.568 -0.7927 -0.2933 -0.8405
   74SLPC  C217 6605   1.745   3.693   4.458  0.3192 -0.6881 -0.2536
   74SLPC  H17R 6606   1.638   3.689   4.427 -0.0184  1.9867  0.3154
   74SLPC  H17S 6607   1.786   3.593   4.481 -0.5260 -1.4448 -1.8919
   74SLPC  C218 6608   1.821   3.780   4.361 -0.1584  0.2214  0.2042
   74SLPC  H18R 6609   1.827   3.728   4.263 -2.2480  0.5850 -0.1651
   74SLPC  H18S 6610   1.920   3.814   4.399  0.6025 -0.6374 -0.9595
   74SLPC  H18T 6611   1.762   3.872   4.342  0.2010  0.2036 -1.0524
   74SLPC   C33 6612   1.018   3.697   6.120  0.4398 -0.7734  0.1212
   74SLPC   H3X 6613   1.076   3.625   6.058  0.4605 -0.6668  0.0160
   74SLPC   H3Y 6614   1.070   3.795   6.129  0.1261 -0.3938 -1.7892
   74SLPC   C34 6615   0.890   3.713   6.047  0.1628  0.5109 -0.1617
   74SLPC   H4X 6616   0.860   3.816   6.077 -3.2187 -0.8972  1.9527
   74SLPC   H4Y 6617   0.812   3.649   6.094  0.5057  1.4109  1.7399
   74SLPC   C35 6618   0.883   3.691   5.892  0.4399 -0.1251 -0.3289
   74SLPC   H5X 6619   0.782   3.716   5.854  0.2449 -0.6675 -0.1644
   74SLPC   H5Y 6620   0.906   3.586   5.864 -0.8478 -0.2767 -0.8975
   74SLPC   C36 6621   0.969   3.783   5.806  0.6480  0.1965  0.7035
   74SLPC   H6X 6622   1.064   3.733   5.777  1.2660  1.6320  0.1192
   74SLPC   H6Y 6623   0.995   3.866   5.875 -0.0166 -0.1323  1.3533
   74SLPC   C37 6624   0.889   3.816   5.681  0.2772 -0.1586  0.5389
   74SLPC   H7X 6625   0.794   3.865   5.709  0.1193 -0.9852  1.4878
   74SLPC   H7Y 6626   0.858   3.720   5.636  1.1760 -0.3065  0.2055
   74SLPC   C38 6627   0.965   3.898   5.574  0.1586 -0.1214  0.4182
   74SLPC   H8X 6628   1.069   3.860   5.569  0.0936 -0.3237  0.6387
   74SLPC   H8Y 6629   0.964   4.005   5.606 -0.9994 -0.5500  1.9045
   74SLPC   C39 6630   0.893   3.884   5.435 -0.7194  0.3568 -0.2516
   74SLPC   H9X 6631   0.785   3.910   5.442 -0.3654  2.1073 -0.8062
   74SLPC   H9Y 6632   0.892   3.777   5.407 -1.6338 -0.5364  2.8166
   74SLPC  C310 6633   0.969   3.957   5.322 -0.1103 -0.8744 -0.5374
   74SLPC  H10X 6634   1.062   3.901   5.302 -0.2920 -0.2512 -3.7716
   74SLPC  H10Y 6635   0.990   4.056   5.367 -1.1474 -1.0273  0.3382
   74SLPC  C311 6636   0.883   3.976   5.200  0.5544 -1.2421  0.2773
   74SLPC  H11X 6637   0.805   4.048   5.234  2.1530 -0.2279  1.9696
   74SLPC  H11Y 6638   0.843   3.879   5.163  1.4901 -2.5304  2.3905
   74SLPC  C312 6639   0.965   4.048   5.088 -0.5795  0.0084  0.1433
   74SLPC  H12X 6640   1.052   3.980   5.070 -0.3198 -0.1027  1.6951
   74SLPC  H12Y 6641   0.999   4.147   5.124 -1.2051  0.2728  0.0100
   74SLPC  C313 6642   0.889   4.060   4.958 -0.7498  1.3648  0.0460
   74SLPC  H13X 6643   0.799   4.123   4.979 -1.5434  0.1607  0.3818
   74SLPC  H13Y 6644   0.854   3.957   4.937  1.2400  0.3462  1.4478
   74SLPC  C314 6645   0.973   4.121   4.848  0.6055  0.6088  0.0836
   74SLPC  H14X 6646   1.053   4.045   4.839  1.9082  1.5592  2.6698
   74SLPC  H14Y 6647   1.031   4.214   4.868  1.3528  1.0610 -3.4986
   74SLPC  C315 6648   0.898   4.147   4.720  0.3900 -0.1310  0.4857
   74SLPC  H15X 6649   0.821   4.226   4.733 -0.8961 -1.3489  0.4895
   74SLPC  H15Y 6650   0.844   4.054   4.692  1.7525 -0.2933 -1.8622
   74SLPC  C316 6651   0.992   4.178   4.600 -0.3684  0.1186 -0.1024
   74SLPC  H16X 6652   0.951   4.166   4.498  0.8455  0.3475 -0.6314
   74SLPC  H16Y 6653   1.075   4.105   4.601 -1.9385 -1.8137 -1.4834
   74SLPC  C317 6654   1.050   4.319   4.605  0.0860 -0.3487  0.8943
   74SLPC  H17X 6655   1.117   4.304   4.693  0.9985 -2.2047 -0.0630
   74SLPC  H17Y 6656   0.978   4.402   4.623 -0.9402 -1.6804  3.3734
   74SLPC  C318 6657   1.144   4.357   4.491  0.5296 -0.5655 -0.0632
   74SLPC  H18X 6658   1.202   4.446   4.525 -0.7533 -0.2253  1.3646
   74SLPC  H18Y 6659   1.098   4.393   4.396 -1.9450 -1.0472  0.8819
   74SLPC  H18Z 6660   1.214   4.274   4.471 -0.7166 -1.5561 -0.4479
   75SLPC     N 6661   5.265   4.074   6.725 -0.2806 -0.5439 -0.5850
   75SLPC   C13 6662   5.189   4.170   6.641 -0.3671  0.1256  0.0530
   75SLPC  H13A 6663   5.089   4.135   6.619 -0.3024 -0.0831  0.0837
   75SLPC  H13B 6664   5.159   4.259   6.693 -0.4277  1.1565 -1.6589
   75SLPC  H13C 6665   5.250   4.207   6.559 -1.5239  3.1285  0.4474
   75SLPC   C14 6666   5.186   4.010   6.832 -0.1120  0.3000 -0.1655
   75SLPC  H14A 6667   5.241   3.951   6.903 -0.0736  0.0148 -0.4314
   75SLPC  H14B 6668   5.130   4.082   6.890 -0.6905 -0.6073  0.4386
   75SLPC  H14C 6669   5.108   3.952   6.785 -0.8253  1.3458 -0.2995
   75SLPC   C15 6670   5.370   4.161   6.794  0.1609  0.7933 -0.4624
   75SLPC  H15A 6671   5.441   4.206   6.726  0.2639  2.1406  0.4929
   75SLPC  H15B 6672   5.323   4.241   6.850 -0.3340 -0.1366  0.4842
   75SLPC  H15C 6673   5.429   4.109   6.868 -0.2765 -1.0843 -1.3892
   75SLPC   C12 6674   5.326   3.976   6.639  0.0793  0.0955  0.7975
   75SLPC  H12A 6675   5.386   3.905   6.695 -0.8175  0.2252  1.9482
   75SLPC  H12B 6676   5.392   4.022   6.566 -2.2247  1.3332 -0.6117
   75SLPC   C11 6677   5.234   3.893   6.547 -0.0293  0.2730 -0.5667
   75SLPC  H11A 6678   5.285   3.827   6.474 -0.2946 -0.1322 -0.3836
   75SLPC  H11B 6679   5.169   3.964   6.492 -3.3283 -0.8635  1.5646
   75SLPC     P 6680   5.181   3.697   6.702 -0.1779 -0.0539  0.2487
   75SLPC   O13 6681   5.327   3.687   6.715 -0.3754 -0.0526 -0.5244
   75SLPC   O14 6682   5.115   3.701   6.829 -0.0257 -0.4122 -0.5556
   75SLPC   O12 6683   5.136   3.817   6.616 -0.2208  0.5203  0.3072
   75SLPC   O11 6684   5.132   3.564   6.625 -0.0018 -0.0711 -0.2760
   75SLPC    C1 6685   4.998   3.544   6.571  0.2856  0.3546 -0.6023
   75SLPC    HA 6686   4.950   3.470   6.639 -2.1218  1.7607 -0.6798
   75SLPC    HB 6687   4.926   3.628   6.582  1.1781  1.2757 -1.5884
   75SLPC    C2 6688   5.007   3.493   6.426  0.0697  0.3900  0.1115
   75SLPC    HS 6689   4.903   3.489   6.387  0.6941 -0.4781 -1.5541
   75SLPC   O21 6690   5.080   3.364   6.419 -0.2960  0.4327 -0.3357
   75SLPC   C21 6691   5.026   3.281   6.329 -1.1215 -0.2307 -0.7610
   75SLPC   O22 6692   4.918   3.304   6.275  0.6252  0.7359  0.2981
   75SLPC   C22 6693   5.116   3.157   6.330 -0.0460 -0.5811 -0.0225
   75SLPC   H2R 6694   5.201   3.179   6.397  2.5332  1.7790 -3.6933
   75SLPC   H2S 6695   5.054   3.072   6.368  0.0983 -1.1899 -1.0971
   75SLPC    C3 6696   5.076   3.592   6.330  0.3581 -0.0482  0.3669
   75SLPC    HX 6697   5.184   3.600   6.351  0.1075  2.8750  1.0542
   75SLPC    HY 6698   5.039   3.694   6.357  1.4442  0.4776 -0.0706
   75SLPC   O31 6699   5.034   3.565   6.194 -0.0075 -0.3518  0.2618
   75SLPC   C31 6700   5.113   3.634   6.106  0.0692  0.2605 -0.5618
   75SLPC   O32 6701   5.203   3.710   6.138  0.2234  0.7632 -0.3393
   75SLPC   C32 6702   5.079   3.594   5.970  0.1176 -0.4890  0.2026
   75SLPC   H2X 6703   4.999   3.669   5.950  0.0470 -0.3844  0.8741
   75SLPC   H2Y 6704   5.038   3.492   5.957  1.5923 -1.1462  0.6067
   75SLPC   C23 6705   5.170   3.123   6.189  0.4497  0.5236 -0.5292
   75SLPC   H3R 6706   5.094   3.121   6.108  1.2255 -0.8388 -1.2651
   75SLPC   H3S 6707   5.198   3.015   6.196 -0.4917  0.3899  1.9722
   75SLPC   C24 6708   5.289   3.207   6.164 -0.0673  0.7185 -0.8061
   75SLPC   H4R 6709   5.353   3.196   6.255 -0.4417 -0.1920 -0.6421
   75SLPC   H4S 6710   5.262   3.314   6.153 -1.6381  0.3523 -0.6892
   75SLPC   C25 6711   5.382   3.165   6.060 -0.1639  0.0671  0.6836
   75SLPC   H5R 6712   5.429   3.069   6.090 -0.1186  0.0087  0.4248
   75SLPC   H5S 6713   5.462   3.242   6.054  3.5100 -3.5057 -0.9484
   75SLPC   C26 6714   5.325   3.148   5.916 -0.5135 -0.1685 -0.4484
   75SLPC   H6R 6715   5.280   3.243   5.879  0.0639  0.9402  1.5300
   75SLPC   H6S 6716   5.237   3.079   5.916  1.5204 -2.9435 -1.5507
   75SLPC   C27 6717   5.420   3.095   5.812 -0.1672  0.0641 -0.2194
   75SLPC   H7R 6718   5.435   2.986   5.825 -0.1978 -0.0253 -0.9447
   75SLPC   H7S 6719   5.519   3.142   5.830  0.6134 -0.2710 -3.1748
   75SLPC   C28 6720   5.399   3.138   5.659 -0.0648 -0.1672 -0.0177
   75SLPC   H8R 6721   5.492   3.121   5.602  0.6982  2.4030  0.3275
   75SLPC   H8S 6722   5.387   3.249   5.666 -3.0710 -0.3433 -0.9363
   75SLPC   C29 6723   5.282   3.077   5.588 -0.1811 -0.5485 -0.2509
   75SLPC   H9R 6724   5.213   3.028   5.658 -0.6388 -1.3431 -1.2396
   75SLPC  C210 6725   5.230   3.102   5.467  0.0216  0.6310  0.4871
   75SLPC  H10R 6726   5.134   3.055   5.441 -0.4341  0.2021  2.7092
   75SLPC  C211 6727   5.303   3.178   5.362  0.0291 -0.4416 -0.5748
   75SLPC  H11R 6728   5.365   3.098   5.317  0.2313  0.0296 -1.1487
   75SLPC  H11S 6729   5.358   3.260   5.414 -1.8016  1.7451 -1.8889
   75SLPC  C212 6730   5.211   3.244   5.259 -0.1252 -0.7196 -0.1778
   75SLPC  H12R 6731   5.137   3.318   5.294  0.5336 -0.7144  1.2882
   75SLPC  C213 6732   5.184   3.208   5.135  0.0726 -0.4054 -0.4524
   75SLPC  H13R 6733   5.110   3.265   5.077  1.7347  1.5568 -0.7459
   75SLPC  C214 6734   5.247   3.099   5.054 -0.3393  0.0238 -0.3501
   75SLPC  H14R 6735   5.169   3.020   5.046 -0.5571  0.3974 -2.3162
   75SLPC  H14S 6736   5.330   3.041   5.101 -0.6647 -0.1195  0.0559
   75SLPC  C215 6737   5.266   3.151   4.910  0.1250  0.1602  0.4007
   75SLPC  H15R 6738   5.354   3.220   4.909 -0.1154  0.4668 -1.0033
   75SLPC  H15S 6739   5.181   3.213   4.875  0.5893 -0.8985 -2.9432
   75SLPC  C216 6740   5.287   3.042   4.801 -0.3514  0.0551 -0.2211
   75SLPC  H16R 6741   5.199   2.974   4.797  0.2179 -0.6546 -2.3769
   75SLPC  H16S 6742   5.367   2.972   4.833  0.3990  0.9475 -0.0913
   75SLPC  C217 6743   5.311   3.103   4.659  0.2518 -0.4732 -0.6192
   75SLPC  H17R 6744   5.411   3.151   4.650 -0.3066  1.3769  1.8745
   75SLPC  H17S 6745   5.246   3.193   4.655 -1.9272 -1.9192  0.2328
   75SLPC  C218 6746   5.283   3.009   4.548  0.4195  0.3826  0.3944
   75SLPC  H18R 6747   5.196   2.944   4.574 -0.1307 -0.5934 -3.3387
   75SLPC  H18S 6748   5.366   2.939   4.525 -1.1888 -0.0970 -5.2759
   75SLPC  H18T 6749   5.243   3.063   4.460  1.1151 -1.6078 -1.2428
   75SLPC   C33 6750   5.190   3.613   5.865  0.0309 -0.4373  0.3971
   75SLPC   H3X 6751   5.277   3.553   5.899  0.2967  0.3205  1.0904
   75SLPC   H3Y 6752   5.225   3.719   5.860 -0.5780 -0.2861 -1.5440
   75SLPC   C34 6753   5.145   3.570   5.721 -0.0793 -0.0544 -0.1611
   75SLPC   H4X 6754   5.077   3.646   5.678  0.2927 -0.4545 -1.5283
   75SLPC   H4Y 6755   5.089   3.475   5.732  0.9916 -0.4988  2.2872
   75SLPC   C35 6756   5.258   3.572   5.621 -0.8313 -0.2383 -0.0580
   75SLPC   H5X 6757   5.307   3.472   5.624  1.3063  0.7281 -0.9576
   75SLPC   H5Y 6758   5.344   3.636   5.648  0.4449 -2.5616  1.7127
   75SLPC   C36 6759   5.218   3.593   5.470  0.0868  0.0790 -0.8722
   75SLPC   H6X 6760   5.164   3.689   5.459 -0.8615 -0.3686 -0.2816
   75SLPC   H6Y 6761   5.136   3.525   5.440 -1.0566  1.7304 -1.6078
   75SLPC   C37 6762   5.328   3.582   5.371  0.0244  1.1609 -0.0375
   75SLPC   H7X 6763   5.369   3.478   5.367 -0.9538  0.8024 -1.6963
   75SLPC   H7Y 6764   5.411   3.650   5.399  0.2810  0.6046  0.5821
   75SLPC   C38 6765   5.280   3.625   5.232 -0.1118  0.0629  0.1503
   75SLPC   H8X 6766   5.218   3.717   5.232  0.9595  1.1688 -5.2714
   75SLPC   H8Y 6767   5.202   3.555   5.196 -1.2561  2.1205 -1.6134
   75SLPC   C39 6768   5.402   3.617   5.133 -0.5188 -1.0927 -0.6218
   75SLPC   H9X 6769   5.453   3.520   5.153  2.5465  0.6545  0.5982
   75SLPC   H9Y 6770   5.467   3.701   5.164 -1.2296 -0.4295 -0.9018
   75SLPC  C310 6771   5.362   3.619   4.984 -0.3038 -0.6889  0.9168
   75SLPC  H10X 6772   5.281   3.695   4.969  1.6325  1.1490 -0.9429
   75SLPC  H10Y 6773   5.319   3.519   4.960 -0.7208 -0.2380 -0.2849
   75SLPC  C311 6774   5.485   3.643   4.888 -0.2398  0.1108  0.4099
   75SLPC  H11X 6775   5.564   3.569   4.915 -1.1282 -0.6284  1.0629
   75SLPC  H11Y 6776   5.522   3.746   4.869  0.6316 -0.3049 -0.2308
   75SLPC  C312 6777   5.448   3.586   4.749  0.4058 -0.9109  0.2579
   75SLPC  H12X 6778   5.356   3.635   4.712 -0.3185 -1.4094  1.3584
   75SLPC  H12Y 6779   5.423   3.477   4.751 -1.3759 -0.5221  1.0690
   75SLPC  C313 6780   5.549   3.618   4.637  0.5816  0.4685 -0.4352
   75SLPC  H13X 6781   5.651   3.586   4.670  0.3894  2.1033  1.9545
   75SLPC  H13Y 6782   5.557   3.728   4.627  1.4601  0.5837  1.2240
   75SLPC  C314 6783   5.501   3.552   4.510  0.9250 -0.0290 -0.3054
   75SLPC  H14X 6784   5.542   3.604   4.420  1.6142  1.5390  0.8579
   75SLPC  H14Y 6785   5.391   3.563   4.504  1.1506  1.7640 -2.8450
   75SLPC  C315 6786   5.550   3.410   4.501  0.5712  0.0597  0.1619
   75SLPC  H15X 6787   5.486   3.362   4.579 -2.0406  2.3971 -0.3542
   75SLPC  H15Y 6788   5.655   3.405   4.536  0.8927 -0.1532 -0.8127
   75SLPC  C316 6789   5.546   3.335   4.359 -0.1057  0.3306 -0.5736
   75SLPC  H16X 6790   5.608   3.243   4.369  0.2396  0.5135 -1.0322
   75SLPC  H16Y 6791   5.598   3.393   4.281 -1.8551 -2.0550 -3.7555
   75SLPC  C317 6792   5.405   3.279   4.325 -0.0239 -0.5561  0.0901
   75SLPC  H17X 6793   5.325   3.349   4.357  0.0629 -0.1849 -0.4933
   75SLPC  H17Y 6794   5.399   3.196   4.399 -0.5447  0.0795  0.7762
   75SLPC  C318 6795   5.383   3.232   4.184  0.5897  0.0305  1.2821
   75SLPC  H18X 6796   5.471   3.175   4.148  0.5357  0.6389  0.1411
   75SLPC  H18Y 6797   5.386   3.325   4.124  2.5449 -1.2202 -0.7007
   75SLPC  H18Z 6798   5.292   3.178   4.150  0.5048  1.7956 -1.5776
   76SLPC     N 6799   6.445   3.779   6.870  0.4962  0.0321  0.1945
   76SLPC   C13 6800   6.452   3.726   7.012  0.4756 -0.3969  0.0358
   76SLPC  H13A 6801   6.549   3.741   7.057  0.3960  2.0888 -0.4953
   76SLPC  H13B 6802   6.371   3.772   7.067 -0.2769 -0.6403 -0.8347
   76SLPC  H13C 6803   6.420   3.622   7.015  0.7590 -0.4691  0.6431
   76SLPC   C14 6804   6.562   3.722   6.797  0.4141 -0.0886  0.6569
   76SLPC  H14A 6805   6.575   3.617   6.822 -0.9842 -0.2176  0.9087
   76SLPC  H14B 6806   6.558   3.735   6.690 -1.5193  0.5707  0.7645
   76SLPC  H14C 6807   6.653   3.769   6.831  0.9336 -0.4171 -0.2502
   76SLPC   C15 6808   6.459   3.926   6.866  0.3975  0.0661  0.2385
   76SLPC  H15A 6809   6.374   3.979   6.906  0.4177 -0.5381  1.1029
   76SLPC  H15B 6810   6.552   3.957   6.910  1.2200  0.9177 -1.9563
   76SLPC  H15C 6811   6.473   3.958   6.764  0.4064 -0.5447  0.0416
   76SLPC   C12 6812   6.308   3.739   6.821 -0.3063  0.2034 -0.1856
   76SLPC  H12A 6813   6.303   3.632   6.815  1.0107  0.0877  0.3425
   76SLPC  H12B 6814   6.300   3.771   6.718 -1.5099 -0.5864 -0.3487
   76SLPC   C11 6815   6.186   3.793   6.904  0.2277 -0.2079 -0.1500
   76SLPC  H11A 6816   6.190   3.755   7.008  0.3036 -0.3068 -0.1893
   76SLPC  H11B 6817   6.099   3.749   6.851 -1.3817  1.6241  0.8249
   76SLPC     P 6818   6.089   4.005   6.787  0.0030  0.4825 -0.2672
   76SLPC   O13 6819   5.945   3.980   6.819 -0.0083  0.1728  0.0347
   76SLPC   O14 6820   6.134   4.143   6.777 -0.1451 -0.3363 -0.7754
   76SLPC   O12 6821   6.179   3.935   6.897 -0.4260 -0.4973 -0.4309
   76SLPC   O11 6822   6.137   3.932   6.656  0.6680 -0.3371 -0.2371
   76SLPC    C1 6823   6.251   3.984   6.585  0.5420  0.5070  0.7811
   76SLPC    HA 6824   6.332   4.032   6.645  0.7239  1.4683 -0.1957
   76SLPC    HB 6825   6.292   3.896   6.532 -0.3511 -1.8354  3.7108
   76SLPC    C2 6826   6.202   4.067   6.469  0.4466  0.1127 -0.0461
   76SLPC    HS 6827   6.146   4.157   6.504 -0.7344 -0.0916 -1.3003
   76SLPC   O21 6828   6.121   3.974   6.388 -0.3414  0.1921 -0.1242
   76SLPC   C21 6829   5.997   4.002   6.380 -0.0280 -0.1262  0.2803
   76SLPC   O22 6830   5.933   4.090   6.433 -0.6041  0.2796 -0.4040
   76SLPC   C22 6831   5.937   3.900   6.274  0.4343 -0.0923  0.1431
   76SLPC   H2R 6832   6.015   3.827   6.245  0.4131 -0.5698  1.2606
   76SLPC   H2S 6833   5.867   3.852   6.345  1.6391  0.3515  1.6834
   76SLPC    C3 6834   6.325   4.120   6.389 -0.7095  0.2915 -0.1165
   76SLPC    HX 6835   6.371   4.028   6.348  0.4551 -0.1647  2.1028
   76SLPC    HY 6836   6.394   4.165   6.464  0.0088 -1.2497  0.1794
   76SLPC   O31 6837   6.284   4.210   6.286 -0.0068 -0.2699 -0.3880
   76SLPC   C31 6838   6.368   4.283   6.225 -0.4514  0.1887 -0.2765
   76SLPC   O32 6839   6.487   4.287   6.228 -0.2235 -0.2979 -0.0648
   76SLPC   C32 6840   6.293   4.361   6.119  0.5161 -0.4187  0.1768
   76SLPC   H2X 6841   6.239   4.441   6.173 -2.5722 -1.9637 -0.4058
   76SLPC   H2Y 6842   6.214   4.297   6.075 -0.2369 -1.1502  2.4270
   76SLPC   C23 6843   5.862   3.967   6.156  0.8987  0.6915  0.6257
   76SLPC   H3R 6844   5.799   4.050   6.197 -1.6893 -0.8276 -0.0517
   76SLPC   H3S 6845   5.791   3.898   6.106  0.5602  2.1699 -1.0327
   76SLPC   C24 6846   5.946   4.020   6.046 -0.0475  0.7451  0.0401
   76SLPC   H4R 6847   6.002   3.933   6.006 -0.5036  0.2338  0.5030
   76SLPC   H4S 6848   6.015   4.096   6.091  1.9548 -1.3857  0.7720
   76SLPC   C25 6849   5.871   4.079   5.924  0.0460 -0.2780  0.2188
   76SLPC   H5R 6850   5.817   4.166   5.967  0.0220 -0.1684 -0.0318
   76SLPC   H5S 6851   5.794   4.012   5.881  0.3547 -1.7658  1.8697
   76SLPC   C26 6852   5.960   4.136   5.806  0.3106 -0.1017  0.2659
   76SLPC   H6R 6853   6.000   4.048   5.751 -0.1180  1.4289 -2.7091
   76SLPC   H6S 6854   6.049   4.189   5.845 -0.0272  1.9637 -1.5615
   76SLPC   C27 6855   5.887   4.223   5.699  0.6237 -0.3041 -0.2431
   76SLPC   H7R 6856   5.820   4.297   5.748  0.2918 -0.4541 -0.4719
   76SLPC   H7S 6857   5.830   4.158   5.630  1.6254 -1.5064  0.0287
   76SLPC   C28 6858   5.994   4.306   5.629  0.0494  0.2931  0.0069
   76SLPC   H8R 6859   6.059   4.234   5.576 -2.3639 -2.9374  1.1303
   76SLPC   H8S 6860   6.053   4.357   5.708 -1.9373  1.2609  0.9169
   76SLPC   C29 6861   5.938   4.414   5.540 -0.0666  0.3764 -0.2516
   76SLPC   H9R 6862   5.907   4.506   5.590  0.1076  1.4516 -2.0270
   76SLPC  C210 6863   5.923   4.417   5.405  0.0249  0.0250  0.0438
   76SLPC  H10R 6864   5.891   4.511   5.358  0.4764  0.3495  0.3716
   76SLPC  C211 6865   5.964   4.300   5.309  0.3577  0.0257  0.2103
   76SLPC  H11R 6866   5.880   4.252   5.255  0.2536  0.5371 -0.0933
   76SLPC  H11S 6867   6.014   4.212   5.354  0.7061 -0.5889 -1.3131
   76SLPC  C212 6868   6.056   4.350   5.202  0.0163 -0.2375 -0.1292
   76SLPC  H12R 6869   6.162   4.322   5.198 -0.4255 -1.9731 -1.3756
   76SLPC  C213 6870   6.018   4.418   5.093  0.5397  0.3376 -0.2057
   76SLPC  H13R 6871   6.095   4.458   5.026  2.0526  1.0218  1.8205
   76SLPC  C214 6872   5.873   4.447   5.052  0.0071 -0.3004  0.0752
   76SLPC  H14R 6873   5.803   4.386   5.112  1.8478 -1.4889  1.1049
   76SLPC  H14S 6874   5.853   4.425   4.945  2.5349 -0.1975 -0.4902
   76SLPC  C215 6875   5.865   4.603   5.070  0.3622 -0.5319 -0.1023
   76SLPC  H15R 6876   5.939   4.643   4.997  2.3852  0.0841  2.1745
   76SLPC  H15S 6877   5.895   4.623   5.175  0.2543  0.2593 -0.2193
   76SLPC  C216 6878   5.726   4.655   5.040  0.5989 -0.2419  0.6738
   76SLPC  H16R 6879   5.656   4.624   5.120  0.9687  1.4432  1.7119
   76SLPC  H16S 6880   5.689   4.621   4.941 -1.9705  1.4439  0.9584
   76SLPC  C217 6881   5.712   4.804   5.062 -0.2826  0.4222  0.0390
   76SLPC  H17R 6882   5.806   4.830   5.009 -0.5041 -3.6842 -2.9289
   76SLPC  H17S 6883   5.728   4.821   5.171  1.1357  0.7318 -0.2052
   76SLPC  C218 6884   5.592   4.874   5.003 -0.6444  0.8876 -0.5866
   76SLPC  H18R 6885   5.598   4.984   5.020  1.5265  0.6303  0.6124
   76SLPC  H18S 6886   5.496   4.831   5.038 -0.8307  0.3029 -1.7961
   76SLPC  H18T 6887   5.592   4.857   4.893 -0.7675 -1.7479 -0.2381
   76SLPC   C33 6888   6.381   4.420   6.011  0.8219  0.1943  0.1465
   76SLPC   H3X 6889   6.460   4.344   5.989  1.4559 -0.0199  2.8642
   76SLPC   H3Y 6890   6.435   4.510   6.047  1.4394 -0.5023  0.9951
   76SLPC   C34 6891   6.294   4.446   5.884 -0.3058 -0.5871 -0.2004
   76SLPC   H4X 6892   6.219   4.528   5.893  1.9345  1.4903  0.4793
   76SLPC   H4Y 6893   6.242   4.351   5.855 -1.3949 -0.6368  1.7538
   76SLPC   C35 6894   6.379   4.483   5.750 -0.7325  0.0869 -0.4069
   76SLPC   H5X 6895   6.485   4.455   5.766 -0.7379  1.0469  1.6422
   76SLPC   H5Y 6896   6.365   4.594   5.747 -0.5156  0.1581  0.8549
   76SLPC   C36 6897   6.327   4.437   5.618 -1.0526 -0.6063 -0.1944
   76SLPC   H6X 6898   6.236   4.495   5.593  0.8000  1.6473 -2.1860
   76SLPC   H6Y 6899   6.295   4.331   5.607  1.5641 -1.2551 -2.7027
   76SLPC   C37 6900   6.438   4.462   5.511  0.4497 -0.2539  0.8274
   76SLPC   H7X 6901   6.522   4.392   5.531  1.6085  0.5895 -0.8504
   76SLPC   H7Y 6902   6.469   4.569   5.511 -1.2593  0.3589 -2.5175
   76SLPC   C38 6903   6.374   4.430   5.377  0.3281 -0.2605  0.0577
   76SLPC   H8X 6904   6.292   4.503   5.363  1.9136  1.7268  0.5345
   76SLPC   H8Y 6905   6.333   4.328   5.368  1.4462 -0.8124  0.9296
   76SLPC   C39 6906   6.477   4.444   5.265  0.8406  0.3750 -0.3471
   76SLPC   H9X 6907   6.554   4.364   5.265 -0.0634 -0.5668 -2.4158
   76SLPC   H9Y 6908   6.526   4.541   5.287  0.5419  0.0870  1.8702
   76SLPC  C310 6909   6.421   4.454   5.126 -0.4099 -0.5169  0.5094
   76SLPC  H10X 6910   6.369   4.552   5.135  0.7630  0.2753 -0.7542
   76SLPC  H10Y 6911   6.341   4.381   5.103 -1.0720 -0.2812  1.9535
   76SLPC  C311 6912   6.528   4.471   5.016  0.2224  0.5507 -0.2710
   76SLPC  H11X 6913   6.605   4.396   5.045  0.2471  0.5522 -0.3333
   76SLPC  H11Y 6914   6.577   4.571   5.018  1.3924 -0.0121 -0.0886
   76SLPC  C312 6915   6.476   4.424   4.879  0.2126 -0.0391 -0.1350
   76SLPC  H12X 6916   6.423   4.326   4.877 -0.9677  0.5813 -0.6300
   76SLPC  H12Y 6917   6.570   4.414   4.821 -0.1808  0.3956 -0.8698
   76SLPC  C313 6918   6.393   4.524   4.797 -0.7865  0.6635 -0.4907
   76SLPC  H13X 6919   6.449   4.620   4.802  1.5579 -0.4125 -3.1775
   76SLPC  H13Y 6920   6.289   4.537   4.833 -1.4203  0.0770 -2.0099
   76SLPC  C314 6921   6.379   4.488   4.652  0.0772  0.5716 -0.0699
   76SLPC  H14X 6922   6.444   4.404   4.619  0.8834 -0.1008  2.9171
   76SLPC  H14Y 6923   6.414   4.576   4.595  1.5537 -0.1222 -0.3004
   76SLPC  C315 6924   6.230   4.466   4.608  0.4054  0.4200 -0.0482
   76SLPC  H15X 6925   6.173   4.560   4.623  1.3377  0.8744  0.7489
   76SLPC  H15Y 6926   6.172   4.403   4.679  0.8897 -1.2422 -1.0688
   76SLPC  C316 6927   6.204   4.418   4.470  0.1632  0.5428 -0.1612
   76SLPC  H16X 6928   6.276   4.336   4.447  1.1956  1.5156 -0.5095
   76SLPC  H16Y 6929   6.236   4.498   4.400 -1.7811  2.7243  1.2974
   76SLPC  C317 6930   6.059   4.365   4.451 -0.3753 -0.1526  1.0055
   76SLPC  H17X 6931   5.990   4.444   4.488  0.3791 -0.0291  2.1927
   76SLPC  H17Y 6932   6.030   4.281   4.517 -2.4168  0.5799  1.0967
   76SLPC  C318 6933   6.031   4.339   4.303 -0.0653 -0.2091  0.6205
   76SLPC  H18X 6934   5.923   4.319   4.288 -0.0172 -0.4762  0.6118
   76SLPC  H18Y 6935   6.083   4.249   4.262 -1.1498 -0.2118 -0.8249
   76SLPC  H18Z 6936   6.052   4.428   4.239 -4.1732  1.6504  1.5463
   77SLPC     N 6937   4.927   4.678   7.104  1.1819 -0.1622 -0.4071
   77SLPC   C13 6938   4.965   4.800   7.184  0.9313 -0.5482 -0.1393
   77SLPC  H13A 6939   5.061   4.842   7.157  0.7389  0.1919  0.3128
   77SLPC  H13B 6940   4.884   4.871   7.172  0.2372 -1.4393 -0.9565
   77SLPC  H13C 6941   4.982   4.778   7.288  1.3092 -1.6609 -0.4212
   77SLPC   C14 6942   4.800   4.614   7.164  0.2676  0.5680 -0.4335
   77SLPC  H14A 6943   4.818   4.591   7.268  0.0119 -0.2904 -0.5719
   77SLPC  H14B 6944   4.721   4.687   7.150 -1.2227 -1.0135 -0.5952
   77SLPC  H14C 6945   4.760   4.528   7.112 -3.7200  1.4536  0.8265
   77SLPC   C15 6946   5.029   4.575   7.137  0.0183  0.2106 -0.7019
   77SLPC  H15A 6947   5.123   4.591   7.086 -0.6364  0.3276 -1.9038
   77SLPC  H15B 6948   5.053   4.587   7.241 -2.7280 -1.5022  0.2451
   77SLPC  H15C 6949   4.994   4.474   7.118 -2.1362  1.0525 -1.5688
   77SLPC   C12 6950   4.919   4.699   6.956  0.3327 -0.9253  0.4119
   77SLPC  H12A 6951   4.836   4.752   6.912  0.6099 -1.1590 -0.4195
   77SLPC  H12B 6952   4.895   4.606   6.907 -3.1073  1.0527 -2.1612
   77SLPC   C11 6953   5.043   4.747   6.878  1.0644 -0.1121  0.1930
   77SLPC  H11A 6954   5.078   4.846   6.915 -0.9803  1.0389 -0.7995
   77SLPC  H11B 6955   5.002   4.772   6.778  0.2307 -2.9087 -0.2505
   77SLPC     P 6956   5.113   4.523   6.783 -0.0753 -0.2868  0.1387
   77SLPC   O13 6957   5.136   4.402   6.863  0.1640 -0.8556 -0.3442
   77SLPC   O14 6958   4.985   4.528   6.713  0.0964 -0.2374  0.5250
   77SLPC   O12 6959   5.148   4.659   6.864 -0.6319 -0.1494 -0.0693
   77SLPC   O11 6960   5.231   4.523   6.674  0.2077 -0.3013 -0.1217
   77SLPC    C1 6961   5.272   4.642   6.611 -0.1535  0.2544 -0.5926
   77SLPC    HA 6962   5.197   4.724   6.618 -0.9882 -0.2306 -2.9152
   77SLPC    HB 6963   5.367   4.672   6.659 -0.5678  1.0619 -0.2629
   77SLPC    C2 6964   5.297   4.627   6.461 -0.0348 -0.4460 -0.7996
   77SLPC    HS 6965   5.201   4.588   6.421 -1.1561 -2.2656  3.2226
   77SLPC   O21 6966   5.413   4.545   6.436 -0.0788 -0.8285  0.0696
   77SLPC   C21 6967   5.379   4.424   6.416 -0.1305  0.0395  0.5519
   77SLPC   O22 6968   5.265   4.382   6.407  0.7926 -0.0711 -0.2162
   77SLPC   C22 6969   5.506   4.334   6.408  0.3328  0.6071  0.6597
   77SLPC   H2R 6970   5.580   4.395   6.350  2.4851 -0.8033  1.8069
   77SLPC   H2S 6971   5.543   4.333   6.512 -2.0071  0.9638  1.5512
   77SLPC    C3 6972   5.322   4.772   6.405 -0.3009 -0.2814 -0.2605
   77SLPC    HX 6973   5.403   4.817   6.467  2.0868 -4.1318 -0.2706
   77SLPC    HY 6974   5.230   4.826   6.437 -0.2070 -0.2538 -0.0359
   77SLPC   O31 6975   5.330   4.784   6.262 -0.0696 -0.4390 -0.8237
   77SLPC   C31 6976   5.456   4.791   6.213 -0.4306 -0.1019 -0.8364
   77SLPC   O32 6977   5.558   4.785   6.282  0.0636 -0.4124 -0.0142
   77SLPC   C32 6978   5.446   4.818   6.066 -0.5114 -0.1992 -0.7104
   77SLPC   H2X 6979   5.512   4.903   6.037 -0.0900 -1.2591 -3.1072
   77SLPC   H2Y 6980   5.338   4.831   6.045 -0.6834 -0.8081 -0.2356
   77SLPC   C23 6981   5.494   4.193   6.337 -0.1067 -0.2437 -0.1371
   77SLPC   H3R 6982   5.420   4.122   6.380  0.4094 -0.4179  0.4806
   77SLPC   H3S 6983   5.592   4.141   6.347  0.7293  0.9698 -1.7273
   77SLPC   C24 6984   5.468   4.207   6.188  0.4569 -0.4266 -0.4663
   77SLPC   H4R 6985   5.547   4.269   6.141 -0.7800  0.2527 -1.6934
   77SLPC   H4S 6986   5.370   4.257   6.172  0.6465  0.5209  1.1085
   77SLPC   C25 6987   5.475   4.066   6.122  0.5187 -0.1743  0.1576
   77SLPC   H5R 6988   5.390   4.010   6.166  0.8236 -0.1725  0.7695
   77SLPC   H5S 6989   5.568   4.019   6.160 -1.1543 -2.5116  1.5796
   77SLPC   C26 6990   5.451   4.064   5.975 -0.0665  0.0837 -0.7045
   77SLPC   H6R 6991   5.515   4.145   5.933 -0.0734 -0.2511 -1.3664
   77SLPC   H6S 6992   5.348   4.103   5.959 -0.2547  0.8677  1.8696
   77SLPC   C27 6993   5.469   3.930   5.906 -0.3269 -0.0708  0.4537
   77SLPC   H7R 6994   5.412   3.844   5.947 -0.1779 -1.6219 -2.3011
   77SLPC   H7S 6995   5.579   3.910   5.903 -0.7115 -2.4877  0.0975
   77SLPC   C28 6996   5.432   3.928   5.757  0.2997 -0.1458  0.1845
   77SLPC   H8R 6997   5.321   3.927   5.755  0.2690 -2.2571 -1.7888
   77SLPC   H8S 6998   5.469   3.829   5.722  1.3628 -0.3705  1.8509
   77SLPC   C29 6999   5.476   4.046   5.672  0.0430  0.1007  0.2038
   77SLPC   H9R 7000   5.456   4.147   5.709 -1.4441  0.0577 -0.4200
   77SLPC  C210 7001   5.537   4.040   5.554 -0.0016  0.1841 -0.3873
   77SLPC  H10R 7002   5.566   4.136   5.508 -0.6256  0.2026 -0.7582
   77SLPC  C211 7003   5.571   3.919   5.474  0.0243 -0.3311 -0.2348
   77SLPC  H11R 7004   5.502   3.918   5.387 -1.4202  0.4054  0.8363
   77SLPC  H11S 7005   5.542   3.828   5.531  1.2325 -0.3905  0.2958
   77SLPC  C212 7006   5.713   3.916   5.423 -0.6370  0.3998 -0.1486
   77SLPC  H12R 7007   5.795   3.895   5.494  0.2644 -1.2836 -1.6079
   77SLPC  C213 7008   5.752   3.951   5.296  0.0326  0.0970  0.1437
   77SLPC  H13R 7009   5.858   3.967   5.272 -0.6215  1.8720 -1.8489
   77SLPC  C214 7010   5.658   3.985   5.182  0.1552  0.1206 -0.1051
   77SLPC  H14R 7011   5.630   4.093   5.188  2.2959  0.6479  1.6196
   77SLPC  H14S 7012   5.569   3.918   5.184  2.6989 -3.4856  0.8635
   77SLPC  C215 7013   5.730   3.984   5.048  0.1003 -0.2864 -0.5304
   77SLPC  H15R 7014   5.770   3.883   5.024  0.5854 -1.5019  4.4207
   77SLPC  H15S 7015   5.823   4.045   5.057  0.7142 -1.3126  0.2165
   77SLPC  C216 7016   5.624   4.027   4.934  0.0907 -0.1209 -0.7826
   77SLPC  H16R 7017   5.587   4.130   4.954 -0.6831 -0.9702  2.7690
   77SLPC  H16S 7018   5.539   3.957   4.931 -0.7728  0.9151 -3.4459
   77SLPC  C217 7019   5.689   4.011   4.798 -0.3011 -0.3671  0.0167
   77SLPC  H17R 7020   5.715   3.906   4.776  0.2387 -0.0560 -0.8772
   77SLPC  H17S 7021   5.793   4.051   4.795 -0.3479 -0.1741  0.6728
   77SLPC  C218 7022   5.601   4.069   4.683  0.6629 -0.3720  0.0627
   77SLPC  H18R 7023   5.585   4.177   4.704  0.6682 -0.7151  2.0109
   77SLPC  H18S 7024   5.504   4.015   4.691  1.3347 -1.5739  0.3987
   77SLPC  H18T 7025   5.636   4.066   4.577  1.4108  2.7441  0.1406
   77SLPC   C33 7026   5.501   4.694   5.980 -0.2193 -0.1644 -0.0971
   77SLPC   H3X 7027   5.429   4.619   6.019 -1.2621  0.7528 -0.1846
   77SLPC   H3Y 7028   5.605   4.676   6.013 -0.1927  3.4688  2.4491
   77SLPC   C34 7029   5.491   4.720   5.832  0.2333 -0.0507 -0.5511
   77SLPC   H4X 7030   5.574   4.785   5.796 -0.4810  0.1282 -1.9211
   77SLPC   H4Y 7031   5.391   4.762   5.808 -0.3685 -1.9400 -1.5472
   77SLPC   C35 7032   5.503   4.584   5.759  0.1272  0.1766 -0.0713
   77SLPC   H5X 7033   5.421   4.512   5.783  1.6628 -1.8243 -0.5050
   77SLPC   H5Y 7034   5.601   4.537   5.783  0.4474  0.7240 -0.3108
   77SLPC   C36 7035   5.514   4.608   5.610  0.0658 -0.1741  0.2419
   77SLPC   H6X 7036   5.593   4.684   5.593 -2.2013  1.9504 -1.5033
   77SLPC   H6Y 7037   5.428   4.666   5.569  2.5916  4.5671  1.0470
   77SLPC   C37 7038   5.525   4.483   5.542 -0.2905  0.7403  0.1392
   77SLPC   H7X 7039   5.441   4.411   5.557  2.3322 -2.7513 -0.7446
   77SLPC   H7Y 7040   5.621   4.440   5.576 -0.1600  1.1520  0.2920
   77SLPC   C38 7041   5.524   4.490   5.382 -0.5589 -0.1760 -0.1215
   77SLPC   H8X 7042   5.567   4.395   5.343 -0.7637  0.4434 -1.9902
   77SLPC   H8Y 7043   5.583   4.579   5.352 -1.1647  0.0763 -0.5766
   77SLPC   C39 7044   5.383   4.493   5.327  0.1371 -0.1251  0.4113
   77SLPC   H9X 7045   5.345   4.596   5.314 -1.2586 -0.7766 -1.0197
   77SLPC   H9Y 7046   5.309   4.452   5.399 -3.6818  0.8199 -2.6612
   77SLPC  C310 7047   5.354   4.411   5.199  0.0028  0.1256 -0.6246
   77SLPC  H10X 7048   5.385   4.310   5.230  2.7909  1.3968  1.0813
   77SLPC  H10Y 7049   5.416   4.430   5.109  1.1752 -3.1702 -0.6260
   77SLPC  C311 7050   5.201   4.416   5.166 -0.5542 -0.2015 -0.8612
   77SLPC  H11X 7051   5.174   4.520   5.140  0.6445  0.1445 -0.7709
   77SLPC  H11Y 7052   5.149   4.380   5.258 -2.2005  2.5658 -0.6118
   77SLPC  C312 7053   5.173   4.319   5.050  0.5764  0.2896 -0.5574
   77SLPC  H12X 7054   5.066   4.292   5.056 -0.0188  1.9757 -2.4066
   77SLPC  H12Y 7055   5.216   4.219   5.071 -2.3429 -1.0329 -0.4174
   77SLPC  C313 7056   5.213   4.360   4.906 -0.2750 -0.2194 -0.1222
   77SLPC  H13X 7057   5.317   4.323   4.892 -0.4438 -0.6289 -0.3145
   77SLPC  H13Y 7058   5.214   4.470   4.888 -0.5387 -0.4902 -2.0185
   77SLPC  C314 7059   5.121   4.296   4.811 -0.6969 -0.0351  0.2494
   77SLPC  H14X 7060   5.029   4.357   4.799 -1.8361 -1.4579  1.3523
   77SLPC  H14Y 7061   5.095   4.201   4.863  0.2720  0.6023  2.0060
   77SLPC  C315 7062   5.179   4.258   4.672 -0.3657  0.6196  0.0571
   77SLPC  H15X 7063   5.287   4.234   4.684 -0.4686  0.6815  1.2197
   77SLPC  H15Y 7064   5.168   4.350   4.610  2.5893  1.6945  0.9276
   77SLPC  C316 7065   5.110   4.135   4.611  0.1506  0.4934 -0.0415
   77SLPC  H16X 7066   4.999   4.148   4.613  0.0811 -0.0079 -0.4115
   77SLPC  H16Y 7067   5.138   4.047   4.674 -0.1819 -0.1656 -0.7961
   77SLPC  C317 7068   5.158   4.113   4.463  0.7825  0.5426  0.2403
   77SLPC  H17X 7069   5.128   4.196   4.395  0.3596 -0.6538 -1.0842
   77SLPC  H17Y 7070   5.108   4.029   4.411 -0.6448  0.2996  1.9382
   77SLPC  C318 7071   5.310   4.094   4.463  0.0381 -0.2484 -0.8114
   77SLPC  H18X 7072   5.342   4.026   4.545 -3.0480  3.1687  3.7274
   77SLPC  H18Y 7073   5.368   4.186   4.486  0.0999 -0.4054 -0.3305
   77SLPC  H18Z 7074   5.345   4.059   4.363  0.7284 -0.5670 -0.4661
   78SLPC     N 7075   1.573   2.135   6.248  0.1579 -0.3803  0.1337
   78SLPC   C13 7076   1.707   2.129   6.310 -0.1666 -0.0800  0.7698
   78SLPC  H13A 7077   1.700   2.198   6.393 -0.9374  1.5863 -0.6228
   78SLPC  H13B 7078   1.728   2.029   6.346  0.6208  0.1362  0.9127
   78SLPC  H13C 7079   1.783   2.152   6.237  0.2787  1.9241  1.8084
   78SLPC   C14 7080   1.476   2.135   6.362 -0.6691 -0.9162 -0.0950
   78SLPC  H14A 7081   1.374   2.150   6.330 -0.2653  4.3681  0.2399
   78SLPC  H14B 7082   1.488   2.049   6.426 -1.8075 -0.6058  0.5677
   78SLPC  H14C 7083   1.501   2.217   6.428  0.7497 -1.6248  0.2894
   78SLPC   C15 7084   1.534   2.012   6.184  0.1919  0.0540  0.3464
   78SLPC  H15A 7085   1.510   1.936   6.257  0.1286 -0.3330 -0.0709
   78SLPC  H15B 7086   1.444   2.020   6.125  0.9868 -2.0588 -1.2931
   78SLPC  H15C 7087   1.608   1.977   6.114  0.2174  1.0647 -0.1554
   78SLPC   C12 7088   1.547   2.263   6.164  0.5940  0.2863  0.0988
   78SLPC  H12A 7089   1.443   2.292   6.158  1.3386  3.6208  1.0802
   78SLPC  H12B 7090   1.581   2.248   6.063  3.5804  1.0914  0.8819
   78SLPC   C11 7091   1.627   2.381   6.200 -0.5719 -0.5539  0.0971
   78SLPC  H11A 7092   1.610   2.444   6.111 -0.2819  1.2553  1.2752
   78SLPC  H11B 7093   1.736   2.358   6.207 -0.6691 -1.2218 -0.4461
   78SLPC     P 7094   1.460   2.566   6.285  0.0589  0.0208  0.5245
   78SLPC   O13 7095   1.405   2.601   6.417 -0.8160 -0.8809  0.5581
   78SLPC   O14 7096   1.531   2.667   6.204 -0.2023  0.5635  0.0860
   78SLPC   O12 7097   1.563   2.446   6.318 -0.2269 -0.2996  0.3597
   78SLPC   O11 7098   1.363   2.490   6.200 -0.2102 -0.3701 -0.0683
   78SLPC    C1 7099   1.234   2.452   6.251 -0.2280 -0.2452  0.5959
   78SLPC    HA 7100   1.240   2.380   6.335 -1.0333 -0.7778  0.2124
   78SLPC    HB 7101   1.178   2.545   6.278 -0.3873 -0.7303  2.0165
   78SLPC    C2 7102   1.156   2.361   6.144  0.1975 -0.5559  0.3894
   78SLPC    HS 7103   1.221   2.271   6.132  1.3183  0.4527 -1.5231
   78SLPC   O21 7104   1.159   2.429   6.015  0.0156  0.1040  0.2888
   78SLPC   C21 7105   1.245   2.388   5.928  0.4722  0.4820 -0.2904
   78SLPC   O22 7106   1.296   2.277   5.920  0.5467 -0.2570  1.0930
   78SLPC   C22 7107   1.293   2.509   5.857 -0.3132  0.4993  0.3032
   78SLPC   H2R 7108   1.207   2.566   5.817  1.3039  0.5706 -3.4469
   78SLPC   H2S 7109   1.359   2.571   5.921 -0.0857  0.5433  0.0288
   78SLPC    C3 7110   1.012   2.316   6.188  0.0780 -0.2541 -0.2403
   78SLPC    HX 7111   0.955   2.406   6.217  0.6710 -0.3719  1.3941
   78SLPC    HY 7112   1.002   2.249   6.276  0.9014  0.6498  0.5653
   78SLPC   O31 7113   0.940   2.264   6.076  0.4186  0.2637  0.5063
   78SLPC   C31 7114   0.968   2.135   6.054  0.1931  0.3013 -0.3155
   78SLPC   O32 7115   1.054   2.075   6.117  0.3430  0.5017  0.4939
   78SLPC   C32 7116   0.875   2.081   5.939  0.3271 -0.1357 -0.8478
   78SLPC   H2X 7117   0.871   2.148   5.851 -2.7162 -1.8035 -2.1270
   78SLPC   H2Y 7118   0.773   2.074   5.982 -0.9362 -0.9995 -3.7252
   78SLPC   C23 7119   1.368   2.473   5.734 -0.2797  0.1414  0.4666
   78SLPC   H3R 7120   1.448   2.399   5.760 -2.2476 -2.1467  0.3446
   78SLPC   H3S 7121   1.410   2.564   5.686  2.9928 -0.2915  2.1701
   78SLPC   C24 7122   1.281   2.401   5.628  0.4821  0.2718  0.0993
   78SLPC   H4R 7123   1.234   2.479   5.565 -0.6997 -1.1512 -0.8433
   78SLPC   H4S 7124   1.200   2.337   5.669  1.5320 -2.0368 -1.2068
   78SLPC   C25 7125   1.369   2.311   5.545  0.1766  0.8071  0.8398
   78SLPC   H5R 7126   1.427   2.232   5.597  6.0946  3.0535 -1.4589
   78SLPC   H5S 7127   1.449   2.379   5.506  0.7385  0.3498  1.1809
   78SLPC   C26 7128   1.295   2.241   5.423 -0.3722 -0.2185 -0.0789
   78SLPC   H6R 7129   1.238   2.163   5.479 -0.7262  1.6262  2.2973
   78SLPC   H6S 7130   1.367   2.195   5.353  0.0343  2.5657 -1.6293
   78SLPC   C27 7131   1.212   2.325   5.319  0.8661  0.3731  0.2056
   78SLPC   H7R 7132   1.116   2.349   5.370 -0.2540 -1.3292 -0.9853
   78SLPC   H7S 7133   1.178   2.265   5.233 -2.3410 -0.7405  2.0839
   78SLPC   C28 7134   1.287   2.451   5.267  0.1121  0.4728  0.2597
   78SLPC   H8R 7135   1.275   2.522   5.352 -0.7881 -0.7842  1.2085
   78SLPC   H8S 7136   1.219   2.504   5.197 -0.0962 -0.4492 -0.2521
   78SLPC   C29 7137   1.426   2.437   5.205 -0.4456  0.8105  0.7714
   78SLPC   H9R 7138   1.507   2.416   5.275 -0.3876  2.0283  1.0901
   78SLPC  C210 7139   1.466   2.453   5.075  0.3455  0.1148  0.2262
   78SLPC  H10R 7140   1.571   2.433   5.049 -0.0805  0.5607 -2.0863
   78SLPC  C211 7141   1.373   2.499   4.968 -0.0164 -0.9850 -0.8238
   78SLPC  H11R 7142   1.363   2.608   4.950  0.6080 -1.2568 -3.2551
   78SLPC  H11S 7143   1.269   2.473   4.998  0.1929  1.3781  2.4161
   78SLPC  C212 7144   1.403   2.420   4.845  0.6639 -0.1241  0.3767
   78SLPC  H12R 7145   1.455   2.473   4.764  0.4055  1.0035  0.9273
   78SLPC  C213 7146   1.374   2.295   4.810  0.4672 -0.1174  0.3239
   78SLPC  H13R 7147   1.393   2.267   4.706  0.2999  0.2197  0.2024
   78SLPC  C214 7148   1.309   2.197   4.903  0.3360 -0.6762  0.2568
   78SLPC  H14R 7149   1.271   2.248   4.994 -0.1391  0.1672 -0.4071
   78SLPC  H14S 7150   1.391   2.136   4.947 -0.0145 -0.9567  0.5332
   78SLPC  C215 7151   1.203   2.089   4.853  0.2267  0.5719  0.0234
   78SLPC  H15R 7152   1.154   2.024   4.929  1.1569 -1.0664 -0.7351
   78SLPC  H15S 7153   1.256   2.017   4.787  0.3616  1.0790 -0.4248
   78SLPC  C216 7154   1.092   2.153   4.767  0.1762 -0.3388  0.4524
   78SLPC  H16R 7155   1.029   2.071   4.726 -1.1584  0.6922  0.3649
   78SLPC  H16S 7156   1.142   2.215   4.689  2.3489 -2.2513  0.2202
   78SLPC  C217 7157   0.990   2.240   4.844  0.0222 -0.1227 -0.0698
   78SLPC  H17R 7158   1.047   2.323   4.892 -1.7023  0.0104  1.8891
   78SLPC  H17S 7159   0.957   2.169   4.923  2.8519 -0.8206  0.6177
   78SLPC  C218 7160   0.876   2.283   4.746  0.3917  0.5430 -0.7078
   78SLPC  H18R 7161   0.782   2.310   4.797 -0.3586 -0.8636 -1.2841
   78SLPC  H18S 7162   0.837   2.192   4.695 -0.4507 -0.5265  1.6601
   78SLPC  H18T 7163   0.900   2.361   4.671  0.4823  1.5617  0.3595
   78SLPC   C33 7164   0.920   1.943   5.896 -0.0599 -0.2210  0.1917
   78SLPC   H3X 7165   0.847   1.892   5.830  0.0652 -1.4590  0.9658
   78SLPC   H3Y 7166   0.919   1.874   5.984  0.5126  0.7901  1.0188
   78SLPC   C34 7167   1.051   1.949   5.811  0.6128  0.7475 -0.0592
   78SLPC   H4X 7168   1.092   1.846   5.814  1.3684  1.0532  0.5037
   78SLPC   H4Y 7169   1.118   2.014   5.873  0.2698 -1.5613  2.9635
   78SLPC   C35 7170   1.047   2.000   5.670  0.2871 -0.1402 -0.9540
   78SLPC   H5X 7171   1.149   2.009   5.628  0.9399 -1.8849  0.1185
   78SLPC   H5Y 7172   1.009   2.104   5.664  0.1951 -0.1588 -0.7018
   78SLPC   C36 7173   0.961   1.923   5.569  0.4429  0.0980  0.4811
   78SLPC   H6X 7174   0.853   1.932   5.590  0.4438 -0.0862  0.5658
   78SLPC   H6Y 7175   0.980   1.815   5.588  0.7256 -0.0470 -0.5587
   78SLPC   C37 7176   0.997   1.964   5.417  0.7353  0.1556 -0.2217
   78SLPC   H7X 7177   1.108   1.962   5.415  0.7365 -2.0686 -0.2256
   78SLPC   H7Y 7178   0.971   2.071   5.400  2.6735  0.4615 -1.5731
   78SLPC   C38 7179   0.918   1.879   5.323 -0.5355  0.2696  0.1696
   78SLPC   H8X 7180   0.809   1.883   5.346 -0.4793  1.6790  0.3013
   78SLPC   H8Y 7181   0.944   1.771   5.331 -0.4740  0.3524  1.2317
   78SLPC   C39 7182   0.934   1.936   5.177  0.3967  0.5049 -0.4520
   78SLPC   H9X 7183   1.041   1.950   5.153  0.0466  1.5768 -1.5027
   78SLPC   H9Y 7184   0.872   2.027   5.165  0.1639  0.7200  1.8722
   78SLPC  C310 7185   0.887   1.817   5.080  0.1919  0.1362 -0.3856
   78SLPC  H10X 7186   0.776   1.811   5.072  0.2919  0.0864 -2.2665
   78SLPC  H10Y 7187   0.924   1.718   5.113 -0.4955 -1.2016 -3.3387
   78SLPC  C311 7188   0.956   1.826   4.941 -0.3674 -0.0451 -0.1571
   78SLPC  H11X 7189   1.065   1.841   4.954 -0.7216  0.9074  2.1849
   78SLPC  H11Y 7190   0.906   1.910   4.886 -1.6904  0.3143  1.5069
   78SLPC  C312 7191   0.929   1.696   4.864 -0.7651  0.1785  0.5539
   78SLPC  H12X 7192   0.819   1.685   4.854 -0.8091 -0.4434  1.5743
   78SLPC  H12Y 7193   0.962   1.604   4.917 -0.2440 -0.7244 -1.2377
   78SLPC  C313 7194   0.999   1.694   4.729  0.0200 -0.4437 -0.5415
   78SLPC  H13X 7195   0.977   1.588   4.706 -1.7084 -0.4000  0.6981
   78SLPC  H13Y 7196   1.109   1.708   4.729 -0.0371  0.2533  1.1073
   78SLPC  C314 7197   0.938   1.780   4.627 -0.6983  0.5663  0.4395
   78SLPC  H14X 7198   0.968   1.885   4.651 -0.1044  0.7602 -1.0677
   78SLPC  H14Y 7199   0.827   1.774   4.627 -0.6278 -1.2628 -0.1534
   78SLPC  C315 7200   0.990   1.742   4.485  0.0438  0.5462 -0.4066
   78SLPC  H15X 7201   0.965   1.823   4.413  1.8767  2.4523  1.0219
   78SLPC  H15Y 7202   0.938   1.647   4.460  1.2382 -0.6748  1.5318
   78SLPC  C316 7203   1.141   1.718   4.453  0.2608  0.3159  0.5069
   78SLPC  H16X 7204   1.195   1.748   4.545  1.2911  2.2715 -0.6792
   78SLPC  H16Y 7205   1.172   1.779   4.365  2.8539 -1.3156  0.1642
   78SLPC  C317 7206   1.180   1.572   4.419  0.2220  0.1933  0.6447
   78SLPC  H17X 7207   1.165   1.509   4.509 -1.0029  0.7605  0.8530
   78SLPC  H17Y 7208   1.289   1.576   4.398  0.2060  0.7270  0.6519
   78SLPC  C318 7209   1.113   1.532   4.290 -0.6195  0.2073  0.1552
   78SLPC  H18X 7210   1.163   1.444   4.244 -2.4458 -1.1634  0.7181
   78SLPC  H18Y 7211   1.104   1.618   4.219  0.6140  1.0081  0.9284
   78SLPC  H18Z 7212   1.013   1.488   4.305 -0.7569  0.6879  0.6782
   79SLPC     N 7213   0.916   3.465   7.091  0.7301 -0.4017  0.3944
   79SLPC   C13 7214   0.989   3.564   7.166 -0.4349 -0.0379 -0.2672
   79SLPC  H13A 7215   1.067   3.514   7.222 -1.4014  0.4175  1.5836
   79SLPC  H13B 7216   1.027   3.638   7.097 -0.1320 -0.1639 -0.2357
   79SLPC  H13C 7217   0.923   3.617   7.234 -1.9259 -2.0698 -0.0449
   79SLPC   C14 7218   0.860   3.367   7.193  0.0654  1.0984 -0.1246
   79SLPC  H14A 7219   0.943   3.325   7.248  1.1565  2.0525 -0.9915
   79SLPC  H14B 7220   0.803   3.409   7.274 -0.3445 -0.6825  0.5370
   79SLPC  H14C 7221   0.820   3.275   7.153  1.8100  1.3291 -2.6568
   79SLPC   C15 7222   1.006   3.391   7.000  0.4264  0.2687  0.4922
   79SLPC  H15A 7223   0.950   3.319   6.942  0.1677  0.1809  0.8495
   79SLPC  H15B 7224   1.049   3.464   6.933 -4.7021  3.2151 -0.0879
   79SLPC  H15C 7225   1.077   3.330   7.054 -1.0163 -1.7127  0.2651
   79SLPC   C12 7226   0.800   3.525   7.016 -0.1054  0.0134  0.1047
   79SLPC  H12A 7227   0.736   3.582   7.082 -0.8304  0.2159 -0.7354
   79SLPC  H12B 7228   0.743   3.444   6.973 -0.6433  1.4315 -2.0303
   79SLPC   C11 7229   0.835   3.610   6.887  0.2821 -0.0640 -0.2404
   79SLPC  H11A 7230   0.740   3.648   6.845 -0.0315 -2.1356 -1.5157
   79SLPC  H11B 7231   0.886   3.551   6.808 -1.2120 -0.3604 -1.0110
   79SLPC     P 7232   0.871   3.867   6.933 -0.3234  0.2709 -0.0929
   79SLPC   O13 7233   0.753   3.871   7.014  0.9001  0.5680  0.0260
   79SLPC   O14 7234   0.980   3.951   6.981 -0.6048 -0.0137 -0.1261
   79SLPC   O12 7235   0.935   3.717   6.914  0.8823  0.4676  0.2239
   79SLPC   O11 7236   0.835   3.906   6.783  0.4770 -0.4737 -0.5076
   79SLPC    C1 7237   0.938   3.915   6.691 -0.3964  0.2555 -0.0521
   79SLPC    HA 7238   1.012   3.993   6.721 -1.0860 -0.1481  3.1381
   79SLPC    HB 7239   0.992   3.818   6.697  1.6086  1.1535 -2.1803
   79SLPC    C2 7240   0.875   3.945   6.549 -0.2842  0.5045  0.0459
   79SLPC    HS 7241   0.803   4.029   6.557  0.0118  0.7280  0.3778
   79SLPC   O21 7242   0.808   3.827   6.507 -0.0012  0.1152 -0.6421
   79SLPC   C21 7243   0.683   3.816   6.523  0.0226 -0.0566 -0.2394
   79SLPC   O22 7244   0.611   3.892   6.593 -0.3061 -0.4600 -0.0097
   79SLPC   C22 7245   0.624   3.699   6.443  1.1024 -0.0034 -0.2082
   79SLPC   H2R 7246   0.707   3.645   6.393  1.2851  0.4667 -0.4166
   79SLPC   H2S 7247   0.561   3.641   6.514 -0.2935  1.6028 -0.0615
   79SLPC    C3 7248   0.979   3.991   6.445  0.5095 -0.2434  0.9323
   79SLPC    HX 7249   1.057   3.912   6.442  0.2950 -0.4333 -0.3420
   79SLPC    HY 7250   1.023   4.086   6.484 -0.0513 -0.4867  2.1996
   79SLPC   O31 7251   0.937   4.007   6.301 -0.4021 -0.0126 -0.6222
   79SLPC   C31 7252   0.860   4.110   6.281 -0.3833  0.3149 -0.4866
   79SLPC   O32 7253   0.816   4.186   6.367  0.3599 -0.0630 -0.2568
   79SLPC   C32 7254   0.828   4.123   6.132 -0.2631 -0.3705  0.4768
   79SLPC   H2X 7255   0.772   4.218   6.118  1.5040  0.4939 -1.1137
   79SLPC   H2Y 7256   0.758   4.049   6.086  0.2825  1.2092 -3.2036
   79SLPC   C23 7257   0.528   3.751   6.329 -0.1644 -0.1536 -0.2827
   79SLPC   H3R 7258   0.432   3.789   6.370  0.1398 -0.6691  0.9462
   79SLPC   H3S 7259   0.508   3.660   6.268 -0.0687 -0.4221  0.0827
   79SLPC   C24 7260   0.592   3.849   6.237  0.5179 -0.0049 -0.2887
   79SLPC   H4R 7261   0.689   3.808   6.201  1.4383  1.8489 -0.0385
   79SLPC   H4S 7262   0.629   3.940   6.289  1.4618  0.2388 -1.3469
   79SLPC   C25 7263   0.506   3.891   6.118 -0.2469 -0.2275  0.0547
   79SLPC   H5R 7264   0.559   3.954   6.043  0.1476  0.7604  1.1324
   79SLPC   H5S 7265   0.424   3.952   6.162 -0.8331  0.9860 -2.5597
   79SLPC   C26 7266   0.458   3.769   6.036 -0.6247  0.8149  0.0203
   79SLPC   H6R 7267   0.391   3.704   6.095 -0.4630  1.0003  0.4101
   79SLPC   H6S 7268   0.550   3.714   6.006 -0.5609  0.3573  1.0251
   79SLPC   C27 7269   0.378   3.803   5.908 -0.0695 -0.3433 -0.3318
   79SLPC   H7R 7270   0.422   3.882   5.844  0.6439 -1.6028 -1.4439
   79SLPC   H7S 7271   0.275   3.828   5.942  0.8570  0.0515  2.4623
   79SLPC   C28 7272   0.362   3.689   5.801 -0.7040 -0.4598 -0.6135
   79SLPC   H8R 7273   0.260   3.702   5.758 -0.8680 -1.5535 -0.5863
   79SLPC   H8S 7274   0.346   3.589   5.846  1.3081 -1.0045 -1.0242
   79SLPC   C29 7275   0.475   3.677   5.703  0.6651 -0.7325 -0.1739
   79SLPC   H9R 7276   0.577   3.656   5.740  0.1135 -0.0880  1.8653
   79SLPC  C210 7277   0.450   3.686   5.570 -0.6278 -0.1476 -0.3394
   79SLPC  H10R 7278   0.529   3.666   5.495  0.1559  1.4182  0.0367
   79SLPC  C211 7279   0.318   3.719   5.505 -0.2901  0.0596 -0.1317
   79SLPC  H11R 7280   0.236   3.668   5.560 -0.1680  0.9545  0.9249
   79SLPC  H11S 7281   0.318   3.662   5.409  3.7322  1.2414 -1.0119
   79SLPC  C212 7282   0.289   3.867   5.480  0.4412  0.2266 -0.4998
   79SLPC  H12R 7283   0.213   3.907   5.549  1.4505 -0.2387  0.9428
   79SLPC  C213 7284   0.327   3.943   5.374  0.3823  0.4802 -0.1750
   79SLPC  H13R 7285   0.292   4.047   5.379 -1.7958 -0.1605 -0.9832
   79SLPC  C214 7286   0.416   3.903   5.264  0.2981 -0.6761  0.0106
   79SLPC  H14R 7287   0.379   3.802   5.236 -1.3344 -0.4208  1.0556
   79SLPC  H14S 7288   0.522   3.894   5.297  0.7082  0.3426 -0.9690
   79SLPC  C215 7289   0.405   4.001   5.150 -0.7366  0.1014  0.1682
   79SLPC  H15R 7290   0.430   4.107   5.175  0.7631  0.1049 -1.1886
   79SLPC  H15S 7291   0.298   4.002   5.120 -0.9029 -2.0959  0.5711
   79SLPC  C216 7292   0.485   3.943   5.032 -0.4639  0.3794  0.0505
   79SLPC  H16R 7293   0.452   3.839   5.011  0.0326 -0.0373  1.2505
   79SLPC  H16S 7294   0.585   3.941   5.080 -0.4254 -0.1582 -0.0487
   79SLPC  C217 7295   0.477   4.015   4.901 -0.1777  0.2683 -0.5037
   79SLPC  H17R 7296   0.558   3.968   4.841 -0.3729 -1.7348  0.7062
   79SLPC  H17S 7297   0.491   4.124   4.910  0.3617  0.1533  0.0973
   79SLPC  C218 7298   0.334   3.993   4.845  0.2626 -0.6264 -0.4224
   79SLPC  H18R 7299   0.270   4.054   4.912  0.0574 -0.6447 -0.6032
   79SLPC  H18S 7300   0.295   3.890   4.830 -1.2132 -0.0742 -0.5372
   79SLPC  H18T 7301   0.320   4.037   4.744 -0.7825  1.7898  0.7133
   79SLPC   C33 7302   0.955   4.134   6.045  0.8435 -0.3036 -0.2407
   79SLPC   H3X 7303   1.013   4.040   6.036 -1.1128 -1.4665 -1.2136
   79SLPC   H3Y 7304   1.016   4.216   6.089 -0.7359  0.1279  1.2277
   79SLPC   C34 7305   0.918   4.189   5.909  0.3589  0.3711  0.0079
   79SLPC   H4X 7306   0.833   4.260   5.921 -1.0892 -1.0274 -1.4376
   79SLPC   H4Y 7307   0.870   4.106   5.853  1.6555  0.1231 -0.7738
   79SLPC   C35 7308   1.032   4.255   5.833 -0.4863 -0.2352 -0.2466
   79SLPC   H5X 7309   1.128   4.200   5.821  0.6958  1.4066  1.0701
   79SLPC   H5Y 7310   1.067   4.343   5.893 -1.5883 -0.8705  1.4196
   79SLPC   C36 7311   0.992   4.301   5.686 -0.1473  0.2580 -0.1624
   79SLPC   H6X 7312   0.898   4.358   5.695 -0.3186  0.2085 -1.4640
   79SLPC   H6Y 7313   0.963   4.205   5.640 -2.0235 -0.3641  2.1388
   79SLPC   C37 7314   1.097   4.377   5.609 -0.4848  0.5948 -0.4374
   79SLPC   H7X 7315   1.195   4.329   5.587 -1.7187 -0.4497 -4.6149
   79SLPC   H7Y 7316   1.119   4.474   5.657 -0.7710 -0.7036  2.5638
   79SLPC   C38 7317   1.035   4.402   5.472 -0.1564  0.1731 -0.6428
   79SLPC   H8X 7318   0.939   4.452   5.496 -0.1122 -0.2908  0.6124
   79SLPC   H8Y 7319   0.997   4.304   5.435 -1.9701  0.2008  0.9376
   79SLPC   C39 7320   1.131   4.472   5.380  0.1207  0.5610 -0.5240
   79SLPC   H9X 7321   1.224   4.414   5.392 -1.0596 -1.0627  1.3648
   79SLPC   H9Y 7322   1.147   4.577   5.415 -0.3593  0.2596  0.6284
   79SLPC  C310 7323   1.079   4.473   5.232 -0.1158  0.2650 -0.1259
   79SLPC  H10X 7324   0.982   4.527   5.235  0.5262  1.4339  0.2430
   79SLPC  H10Y 7325   1.076   4.364   5.212 -0.5756 -0.3956  3.0013
   79SLPC  C311 7326   1.180   4.551   5.142  0.6705 -0.1454  0.8722
   79SLPC  H11X 7327   1.282   4.508   5.158  1.0175 -0.1270 -1.0813
   79SLPC  H11Y 7328   1.196   4.650   5.189  1.3932  0.0316  0.2826
   79SLPC  C312 7329   1.127   4.574   5.003 -0.1664  0.3372 -1.2847
   79SLPC  H12X 7330   1.043   4.647   5.015  0.6962  1.3135 -1.0164
   79SLPC  H12Y 7331   1.095   4.475   4.965  1.1645 -0.5315 -0.2061
   79SLPC  C313 7332   1.224   4.635   4.903  0.6667 -0.0286 -0.9594
   79SLPC  H13X 7333   1.307   4.562   4.887  0.3272 -0.7739  0.4969
   79SLPC  H13Y 7334   1.254   4.737   4.935 -2.4311  0.5616  0.3691
   79SLPC  C314 7335   1.158   4.658   4.770  0.5006  0.1495  0.7143
   79SLPC  H14X 7336   1.051   4.690   4.780  0.6285  0.5780  0.7470
   79SLPC  H14Y 7337   1.155   4.562   4.715 -0.5380 -0.2518  1.4261
   79SLPC  C315 7338   1.239   4.748   4.671  0.9071 -0.6345  0.0143
   79SLPC  H15X 7339   1.340   4.707   4.650  1.7741  0.7200  1.3712
   79SLPC  H15Y 7340   1.230   4.846   4.722 -3.3134 -2.3083  3.0430
   79SLPC  C316 7341   1.175   4.768   4.531 -0.1441  0.2090 -0.3292
   79SLPC  H16X 7342   1.067   4.783   4.550 -0.1880  2.3782 -1.9434
   79SLPC  H16Y 7343   1.187   4.679   4.465 -0.9995  0.8300 -1.3500
   79SLPC  C317 7344   1.216   4.896   4.460  0.0603 -0.6996 -0.0500
   79SLPC  H17X 7345   1.179   4.982   4.519  1.1943 -0.7533  0.7739
   79SLPC  H17Y 7346   1.167   4.912   4.362  0.7195 -0.8941 -0.4161
   79SLPC  C318 7347   1.371   4.908   4.433 -0.4980 -0.9251  0.4784
   79SLPC  H18X 7348   1.423   4.826   4.380  0.8005 -0.1245  0.4770
   79SLPC  H18Y 7349   1.431   4.929   4.524 -0.4952 -0.7215  0.4304
   79SLPC  H18Z 7350   1.393   4.996   4.368 -0.2819 -2.8921 -2.2941
   80SLPC     N 7351   5.777   5.929   6.872 -0.2961  0.7121 -0.4151
   80SLPC   C13 7352   5.910   5.870   6.851 -0.6761  0.3221  0.8743
   80SLPC  H13A 7353   5.904   5.768   6.815 -0.8183  0.2571  1.0851
   80SLPC  H13B 7354   5.958   5.925   6.772 -2.0558 -0.8281 -0.8586
   80SLPC  H13C 7355   5.970   5.869   6.940 -2.4536  3.5789  2.2855
   80SLPC   C14 7356   5.700   5.875   6.986  0.1105  0.1681  0.2822
   80SLPC  H14A 7357   5.649   5.782   6.967  1.4636 -0.9418  1.7782
   80SLPC  H14B 7358   5.765   5.859   7.071 -0.3516 -0.1355  0.5868
   80SLPC  H14C 7359   5.624   5.948   7.012  0.3099  0.4312  0.1350
   80SLPC   C15 7360   5.688   5.905   6.752  0.0352  0.0926 -0.1484
   80SLPC  H15A 7361   5.678   5.800   6.728 -0.8662  0.3339 -0.8511
   80SLPC  H15B 7362   5.589   5.935   6.781  0.0840  0.3180 -0.2185
   80SLPC  H15C 7363   5.730   5.958   6.668  0.5176 -1.4752 -0.9415
   80SLPC   C12 7364   5.791   6.076   6.887 -0.0011 -0.0537 -0.1289
   80SLPC  H12A 7365   5.696   6.125   6.903  0.8934  0.9440  2.8201
   80SLPC  H12B 7366   5.828   6.114   6.793  1.0182  0.7274  0.5752
   80SLPC   C11 7367   5.870   6.120   7.004 -0.6172 -0.3384 -0.1690
   80SLPC  H11A 7368   5.967   6.066   7.010 -0.5013 -0.1309 -0.1649
   80SLPC  H11B 7369   5.822   6.119   7.104  2.4361 -0.2880  1.3996
   80SLPC     P 7370   5.999   6.315   6.877  0.0920 -0.0391  0.5770
   80SLPC   O13 7371   6.129   6.311   6.940  0.0489 -0.7270 -0.2643
   80SLPC   O14 7372   5.990   6.250   6.743  0.7557 -0.0510 -0.2764
   80SLPC   O12 7373   5.889   6.261   6.971  0.3731  0.0132  0.5100
   80SLPC   O11 7374   5.949   6.462   6.859  0.8409  0.4559  0.0023
   80SLPC    C1 7375   6.004   6.590   6.882  0.1681 -0.7185  0.2583
   80SLPC    HA 7376   5.932   6.651   6.941  0.3988  0.3838 -0.5628
   80SLPC    HB 7377   6.106   6.587   6.926  0.7470  1.0438 -0.8484
   80SLPC    C2 7378   6.028   6.665   6.750  0.5736 -0.8736  0.0515
   80SLPC    HS 7379   5.926   6.669   6.705  0.3166  2.5061  0.6795
   80SLPC   O21 7380   6.127   6.594   6.680 -0.5902  0.1800  0.2127
   80SLPC   C21 7381   6.104   6.580   6.545 -1.0186 -0.7730  0.4853
   80SLPC   O22 7382   6.015   6.628   6.484 -0.4113 -0.0085 -0.7723
   80SLPC   C22 7383   6.199   6.490   6.485  0.0385 -0.0364 -0.9308
   80SLPC   H2R 7384   6.252   6.547   6.404  1.4946  1.5896  1.0596
   80SLPC   H2S 7385   6.285   6.456   6.547 -0.8000 -0.0633  0.2443
   80SLPC    C3 7386   6.070   6.813   6.776  0.1183  0.3192  0.0458
   80SLPC    HX 7387   6.167   6.816   6.829 -0.5964  1.0289  1.3574
   80SLPC    HY 7388   5.994   6.863   6.839 -2.4314 -2.1744 -0.8550
   80SLPC   O31 7389   6.092   6.874   6.640 -0.4695  0.0408 -0.5288
   80SLPC   C31 7390   6.003   6.961   6.599  0.2907 -0.0327 -0.4971
   80SLPC   O32 7391   5.904   6.992   6.661  0.1203  0.1324 -0.3435
   80SLPC   C32 7392   6.039   7.008   6.462 -0.5135  0.3430  1.1738
   80SLPC   H2X 7393   6.148   7.030   6.467 -0.4731  0.3912  0.2165
   80SLPC   H2Y 7394   5.987   7.104   6.439 -1.4067 -0.1736  0.9682
   80SLPC   C23 7395   6.130   6.371   6.415 -0.6828 -0.0413  0.1378
   80SLPC   H3R 7396   6.106   6.403   6.312  2.0341 -0.9903 -0.8895
   80SLPC   H3S 7397   6.035   6.340   6.463  0.6653 -2.3622  1.5175
   80SLPC   C24 7398   6.217   6.242   6.414  0.5006 -0.6119 -0.2485
   80SLPC   H4R 7399   6.153   6.163   6.367  0.8825 -0.9288 -0.2426
   80SLPC   H4S 7400   6.230   6.201   6.516  0.5795 -2.4327 -0.9456
   80SLPC   C25 7401   6.351   6.255   6.338 -0.0537  0.2743  0.1888
   80SLPC   H5R 7402   6.387   6.151   6.322 -2.6486 -0.7654  0.6328
   80SLPC   H5S 7403   6.414   6.323   6.398  0.5439  0.3192 -0.4792
   80SLPC   C26 7404   6.330   6.323   6.205  0.3974 -0.7255 -0.0318
   80SLPC   H6R 7405   6.300   6.431   6.208  0.3750 -0.6975 -0.9723
   80SLPC   H6S 7406   6.257   6.271   6.139 -0.0959  2.9666 -2.7338
   80SLPC   C27 7407   6.462   6.315   6.124 -0.3004  0.0429  0.2719
   80SLPC   H7R 7408   6.538   6.369   6.184 -0.2794  0.7146 -0.3523
   80SLPC   H7S 7409   6.454   6.364   6.025  3.3893 -1.5789 -1.0139
   80SLPC   C28 7410   6.517   6.177   6.085 -0.5024 -0.3823 -0.1502
   80SLPC   H8R 7411   6.543   6.130   6.182  0.0420 -1.7778 -0.9370
   80SLPC   H8S 7412   6.619   6.163   6.043  1.0435 -0.9272  3.4124
   80SLPC   C29 7413   6.416   6.086   6.027  0.6590  0.0520 -0.2276
   80SLPC   H9R 7414   6.344   6.045   6.099  0.1432  0.3090 -0.5906
   80SLPC  C210 7415   6.421   6.028   5.904  0.6436 -0.2000 -0.8350
   80SLPC  H10R 7416   6.331   5.971   5.879 -0.8392  0.2561  2.8812
   80SLPC  C211 7417   6.505   6.074   5.789  0.3535 -0.1052  0.0559
   80SLPC  H11R 7418   6.546   6.174   5.815 -1.5261  0.3888  1.3522
   80SLPC  H11S 7419   6.441   6.081   5.698 -1.6352  0.2370  1.4102
   80SLPC  C212 7420   6.625   5.995   5.754 -0.4007  0.0185  0.5569
   80SLPC  H12R 7421   6.681   5.964   5.843  2.4508 -0.8573 -1.4271
   80SLPC  C213 7422   6.679   5.961   5.631 -0.2862 -0.7362  0.2736
   80SLPC  H13R 7423   6.780   5.919   5.626 -0.1924 -0.5181  0.3279
   80SLPC  C214 7424   6.619   5.992   5.494  0.7623  0.2903 -0.1798
   80SLPC  H14R 7425   6.555   6.082   5.500 -1.0925 -0.7430 -2.5816
   80SLPC  H14S 7426   6.546   5.910   5.473  1.3752  0.0132 -1.2972
   80SLPC  C215 7427   6.723   6.000   5.386  0.3942 -0.1467 -0.3451
   80SLPC  H15R 7428   6.786   5.909   5.381 -2.6885 -2.4513 -0.0594
   80SLPC  H15S 7429   6.786   6.090   5.403 -2.3065  1.6792  0.5030
   80SLPC  C216 7430   6.658   6.008   5.248  1.0121  0.2878 -0.4194
   80SLPC  H16R 7431   6.597   6.098   5.226 -2.1562 -1.8074 -0.7146
   80SLPC  H16S 7432   6.579   5.932   5.236 -1.7017  2.6079  1.4644
   80SLPC  C217 7433   6.756   5.983   5.129  0.1834 -0.5990  0.3473
   80SLPC  H17R 7434   6.691   5.950   5.045  0.0075  1.7802 -0.5382
   80SLPC  H17S 7435   6.829   5.901   5.145 -1.5277 -2.2176  0.0888
   80SLPC  C218 7436   6.835   6.104   5.075 -0.4994  0.9529 -0.2248
   80SLPC  H18R 7437   6.899   6.157   5.149 -0.3922 -0.5671  0.8238
   80SLPC  H18S 7438   6.764   6.174   5.027  0.6261  2.8409  0.7537
   80SLPC  H18T 7439   6.898   6.062   4.993 -0.7848 -0.3579  0.2097
   80SLPC   C33 7440   6.015   6.909   6.346  0.5047  0.5213 -0.1381
   80SLPC   H3X 7441   5.909   6.876   6.344  0.1158  1.6843  0.1613
   80SLPC   H3Y 7442   6.072   6.815   6.360  1.4596  1.1295  0.1535
   80SLPC   C34 7443   6.036   6.967   6.205  0.6054  0.3018  0.5401
   80SLPC   H4X 7444   6.144   6.995   6.200  1.2467 -1.7322  1.8314
   80SLPC   H4Y 7445   5.969   7.056   6.205  0.7766  0.4330 -0.1947
   80SLPC   C35 7446   6.001   6.847   6.116 -0.6070  0.6394 -0.6566
   80SLPC   H5X 7447   5.902   6.809   6.149  0.5887 -1.4082  0.7682
   80SLPC   H5Y 7448   6.080   6.772   6.139  0.1425  1.7577  0.5002
   80SLPC   C36 7449   6.000   6.888   5.975  0.2259  0.0754  0.9167
   80SLPC   H6X 7450   6.095   6.936   5.945 -0.2906  1.9112  2.0834
   80SLPC   H6Y 7451   5.923   6.966   5.954 -0.8538 -1.2590 -0.3141
   80SLPC   C37 7452   5.982   6.767   5.883 -0.2401 -0.2356  0.2064
   80SLPC   H7X 7453   5.881   6.725   5.906 -0.1137  0.1797  1.6037
   80SLPC   H7Y 7454   6.062   6.693   5.907 -0.9555 -1.7589 -1.8210
   80SLPC   C38 7455   5.993   6.791   5.733  0.7132  0.5529 -0.0712
   80SLPC   H8X 7456   6.090   6.845   5.725  0.1047  2.2963  2.8193
   80SLPC   H8Y 7457   5.902   6.852   5.710 -1.0270 -1.0375  2.1163
   80SLPC   C39 7458   5.986   6.668   5.638 -0.3191 -0.3077 -0.6648
   80SLPC   H9X 7459   5.887   6.627   5.669  0.5209 -0.9481  1.3569
   80SLPC   H9Y 7460   6.075   6.608   5.666  0.2050  0.6379 -0.2273
   80SLPC  C310 7461   5.990   6.705   5.492 -0.1728  0.2947  0.0460
   80SLPC  H10X 7462   6.084   6.763   5.476  2.2044 -3.3239 -0.3175
   80SLPC  H10Y 7463   5.902   6.773   5.490 -0.6365 -0.3112 -0.5316
   80SLPC  C311 7464   5.979   6.583   5.404  0.2492 -0.1675  0.3883
   80SLPC  H11X 7465   5.879   6.541   5.427  0.0440  0.6426  1.0319
   80SLPC  H11Y 7466   6.051   6.508   5.444  0.8554  0.2256  0.0541
   80SLPC  C312 7467   5.999   6.606   5.256  0.0386  0.4315 -0.1779
   80SLPC  H12X 7468   5.981   6.510   5.202 -0.2974  1.0176 -1.1324
   80SLPC  H12Y 7469   6.100   6.644   5.228 -0.7754 -0.4090 -5.2585
   80SLPC  C313 7470   5.889   6.700   5.211  0.0786 -0.3117 -0.2265
   80SLPC  H13X 7471   5.897   6.804   5.249  1.4561 -1.2106  2.1196
   80SLPC  H13Y 7472   5.791   6.667   5.253 -0.4080 -1.4885 -2.1287
   80SLPC  C314 7473   5.893   6.717   5.060  0.1139  0.4940  0.1609
   80SLPC  H14X 7474   5.903   6.612   5.025 -0.1813  0.5384 -0.0598
   80SLPC  H14Y 7475   5.982   6.773   5.024  0.1623 -0.4530 -1.2792
   80SLPC  C315 7476   5.763   6.783   5.014 -0.0201  0.1894  0.3620
   80SLPC  H15X 7477   5.739   6.873   5.075  2.2113  0.2890  1.1584
   80SLPC  H15Y 7478   5.681   6.717   5.050  1.2505 -0.9464  1.2658
   80SLPC  C316 7479   5.755   6.816   4.863 -0.2161  0.9559 -0.2934
   80SLPC  H16X 7480   5.828   6.892   4.828  0.6910 -0.8318 -2.4808
   80SLPC  H16Y 7481   5.659   6.865   4.833  0.6337  0.7978 -3.5947
   80SLPC  C317 7482   5.775   6.698   4.773 -0.1889 -0.6899 -0.1784
   80SLPC  H17X 7483   5.686   6.632   4.772 -0.8037  0.0951 -2.3331
   80SLPC  H17Y 7484   5.874   6.650   4.792  1.0954  1.3052 -1.4393
   80SLPC  C318 7485   5.797   6.759   4.631  0.2933 -0.7995 -0.2151
   80SLPC  H18X 7486   5.706   6.812   4.597 -0.3580 -2.6356 -1.5133
   80SLPC  H18Y 7487   5.822   6.675   4.562  3.0066  0.4317 -0.8524
   80SLPC  H18Z 7488   5.881   6.831   4.637 -1.9007  1.7922  1.8634
   81SLPC     N 7489   1.966   5.281   1.942  0.3799  0.0015  0.3736
   81SLPC   C13 7490   1.940   5.396   1.847  0.0048  0.4082 -0.4614
   81SLPC  H13A 7491   1.853   5.389   1.783 -2.5551  1.4439  2.6658
   81SLPC  H13B 7492   1.935   5.492   1.896  1.1318 -0.2170  0.9510
   81SLPC  H13C 7493   2.026   5.407   1.782  0.3684 -1.0475 -0.2565
   81SLPC   C14 7494   2.115   5.253   1.949  0.8367 -0.0719  0.0911
   81SLPC  H14A 7495   2.140   5.159   1.997  0.7312 -0.9653 -1.5446
   81SLPC  H14B 7496   2.156   5.247   1.849  5.5671  3.0459  1.4989
   81SLPC  H14C 7497   2.171   5.333   1.994  0.8671 -0.0281 -0.0236
   81SLPC   C15 7498   1.898   5.154   1.895  0.6769 -0.5281 -0.7151
   81SLPC  H15A 7499   1.799   5.181   1.862  0.6295 -1.2254 -1.1728
   81SLPC  H15B 7500   1.946   5.117   1.805  0.0082 -1.4739 -0.7072
   81SLPC  H15C 7501   1.916   5.078   1.969 -1.1143  1.2476  1.6892
   81SLPC   C12 7502   1.905   5.312   2.077 -0.5764  0.5291 -0.1912
   81SLPC  H12A 7503   1.798   5.319   2.084 -0.6202 -0.6358  0.6708
   81SLPC  H12B 7504   1.934   5.412   2.106  1.6590  0.0044 -0.4245
   81SLPC   C11 7505   1.935   5.223   2.196  0.3239 -0.2716  0.2418
   81SLPC  H11A 7506   1.926   5.298   2.277  1.3069 -0.7381  0.8051
   81SLPC  H11B 7507   2.041   5.191   2.185  0.7557  1.9605 -4.2841
   81SLPC     P 7508   1.688   5.129   2.219  0.1998 -0.3381  0.0424
   81SLPC   O13 7509   1.649   5.263   2.263 -0.0863  0.0144 -0.3240
   81SLPC   O14 7510   1.617   5.078   2.104 -0.0666  0.1381  0.6705
   81SLPC   O12 7511   1.848   5.114   2.208 -0.1775 -0.0158  0.3902
   81SLPC   O11 7512   1.663   5.033   2.337 -0.2514 -0.6063  0.8490
   81SLPC    C1 7513   1.761   4.937   2.374 -0.5331  0.1769 -0.0644
   81SLPC    HA 7514   1.800   4.872   2.293  1.4451 -1.6745  2.2015
   81SLPC    HB 7515   1.846   4.991   2.423  0.3704 -0.7328 -0.5967
   81SLPC    C2 7516   1.697   4.844   2.481  0.0318  0.0921  0.0628
   81SLPC    HS 7517   1.616   4.794   2.424 -0.0912 -0.4767  0.7200
   81SLPC   O21 7518   1.654   4.932   2.591 -0.0339 -0.3291 -0.0207
   81SLPC   C21 7519   1.556   4.879   2.661 -0.4074  0.1795  0.0149
   81SLPC   O22 7520   1.492   4.782   2.630 -0.0803 -0.5760 -0.1072
   81SLPC   C22 7521   1.548   4.963   2.789  0.6378 -0.3673 -0.5507
   81SLPC   H2R 7522   1.645   4.949   2.841  0.6656  1.9731  0.1369
   81SLPC   H2S 7523   1.554   5.071   2.766  0.7436  0.1943  1.8402
   81SLPC    C3 7524   1.803   4.737   2.529  0.1188  0.2817 -0.3002
   81SLPC    HX 7525   1.884   4.792   2.581 -0.3058 -0.7819  1.5721
   81SLPC    HY 7526   1.859   4.686   2.448  2.7327 -1.9752  2.6938
   81SLPC   O31 7527   1.746   4.645   2.628  0.2706 -0.8888  0.1702
   81SLPC   C31 7528   1.821   4.553   2.690 -0.3066  0.5040  0.2635
   81SLPC   O32 7529   1.938   4.536   2.665 -0.7313  0.2792  0.3968
   81SLPC   C32 7530   1.738   4.482   2.793  0.1408 -0.2856 -0.3952
   81SLPC   H2X 7531   1.725   4.379   2.751 -0.4059 -0.6932  0.7558
   81SLPC   H2Y 7532   1.645   4.539   2.810  0.6238  0.3259  0.2358
   81SLPC   C23 7533   1.419   4.922   2.866 -0.2464  0.3136  0.0858
   81SLPC   H3R 7534   1.417   4.811   2.864 -0.8173  0.3284 -1.5035
   81SLPC   H3S 7535   1.332   4.968   2.815 -1.1056 -0.6977  0.5951
   81SLPC   C24 7536   1.424   4.971   3.015  0.4431  0.3514  0.0260
   81SLPC   H4R 7537   1.329   4.944   3.067 -0.8134  3.1584 -0.6723
   81SLPC   H4S 7538   1.439   5.081   3.019  0.9326  0.2586  1.8209
   81SLPC   C25 7539   1.527   4.901   3.099 -0.4632  0.1717 -0.2495
   81SLPC   H5R 7540   1.628   4.946   3.086 -1.5418  2.6233 -0.5044
   81SLPC   H5S 7541   1.532   4.797   3.060  1.4023 -0.8581  2.4173
   81SLPC   C26 7542   1.494   4.886   3.246  0.2571 -0.5557  0.1142
   81SLPC   H6R 7543   1.409   4.819   3.268 -1.4981  1.9224  1.4360
   81SLPC   H6S 7544   1.457   4.986   3.277 -1.1965 -1.3788  1.1713
   81SLPC   C27 7545   1.605   4.864   3.344  0.6580  0.4832 -0.2599
   81SLPC   H7R 7546   1.691   4.933   3.329  1.1617  0.0476  0.5654
   81SLPC   H7S 7547   1.656   4.766   3.325  0.6271  0.9453 -3.2031
   81SLPC   C28 7548   1.556   4.869   3.494 -0.5640  0.7096 -0.6449
   81SLPC   H8R 7549   1.469   4.802   3.509 -1.9628  2.3542 -1.1402
   81SLPC   H8S 7550   1.510   4.968   3.516 -0.4196  0.7137 -0.3553
   81SLPC   C29 7551   1.652   4.811   3.590 -0.1364  0.3376 -0.4157
   81SLPC   H9R 7552   1.693   4.717   3.550  1.3563 -0.5417  2.8714
   81SLPC  C210 7553   1.687   4.861   3.713  0.3810 -0.3622  0.2319
   81SLPC  H10R 7554   1.749   4.809   3.787  1.6987  1.7517  0.6573
   81SLPC  C211 7555   1.631   4.988   3.772  0.6080  0.4463 -0.5602
   81SLPC  H11R 7556   1.587   5.051   3.692 -0.7414 -1.2807 -1.2341
   81SLPC  H11S 7557   1.724   5.042   3.802 -0.6432  1.0438  2.5327
   81SLPC  C212 7558   1.530   4.973   3.877  0.0165  0.0892 -0.5756
   81SLPC  H12R 7559   1.426   4.957   3.846 -0.5563 -1.7255  1.9755
   81SLPC  C213 7560   1.556   4.998   4.007 -0.1965 -0.1579  0.5900
   81SLPC  H13R 7561   1.482   4.991   4.088 -1.4343 -1.1366 -0.5972
   81SLPC  C214 7562   1.694   5.014   4.067  0.8820 -0.2064 -0.1481
   81SLPC  H14R 7563   1.691   5.042   4.174  1.5294  1.5341 -0.5507
   81SLPC  H14S 7564   1.750   5.090   4.009  1.5969 -0.0138  0.7623
   81SLPC  C215 7565   1.803   4.893   4.068 -0.4399  0.5231 -0.8758
   81SLPC  H15R 7566   1.824   4.855   3.966  0.7878  0.8753 -0.7696
   81SLPC  H15S 7567   1.758   4.821   4.140  0.1795  3.0220  2.2867
   81SLPC  C216 7568   1.936   4.935   4.134  0.1199 -0.0172 -0.2261
   81SLPC  H16R 7569   1.911   4.977   4.234  0.6540 -0.9966  0.3287
   81SLPC  H16S 7570   1.977   5.022   4.079 -1.8788  2.0147  1.2654
   81SLPC  C217 7571   2.033   4.819   4.146 -0.5624  0.3460 -0.7780
   81SLPC  H17R 7572   2.061   4.772   4.049  0.5692 -0.7089  0.0268
   81SLPC  H17S 7573   1.988   4.746   4.216  1.2634 -0.7206 -0.6387
   81SLPC  C218 7574   2.163   4.866   4.208  0.2492 -0.3656 -1.0587
   81SLPC  H18R 7575   2.210   4.938   4.138 -0.4794  0.0907 -1.0963
   81SLPC  H18S 7576   2.230   4.780   4.227 -0.1778 -0.2320  1.4958
   81SLPC  H18T 7577   2.158   4.917   4.307  4.2491 -0.8868 -0.4069
   81SLPC   C33 7578   1.816   4.478   2.922  0.1558  1.0955  0.3529
   81SLPC   H3X 7579   1.904   4.410   2.916 -0.0242  0.9764 -1.2759
   81SLPC   H3Y 7580   1.741   4.432   2.991 -0.5855 -0.3735 -1.3445
   81SLPC   C34 7581   1.859   4.607   2.987  0.0992 -0.1401 -0.6200
   81SLPC   H4X 7582   1.772   4.676   2.978 -0.2756 -0.5583 -0.2603
   81SLPC   H4Y 7583   1.946   4.659   2.943 -0.5115  2.6026  1.1479
   81SLPC   C35 7584   1.882   4.616   3.140  0.1356 -0.2630 -0.6713
   81SLPC   H5X 7585   1.788   4.589   3.192 -0.1852 -0.3590 -1.2803
   81SLPC   H5Y 7586   1.903   4.721   3.168 -0.2516 -0.4006  0.1489
   81SLPC   C36 7587   1.999   4.538   3.183 -0.2726  0.5031 -1.2191
   81SLPC   H6X 7588   2.093   4.592   3.161 -0.8278  1.8093 -0.5234
   81SLPC   H6Y 7589   2.006   4.444   3.125  0.2082 -0.3358  0.1311
   81SLPC   C37 7590   2.001   4.506   3.333 -0.5004  0.0944 -0.2223
   81SLPC   H7X 7591   2.075   4.424   3.346 -0.6942 -0.3036 -1.5358
   81SLPC   H7Y 7592   1.901   4.464   3.358 -0.1484  0.2910  1.6546
   81SLPC   C38 7593   2.046   4.618   3.429 -0.0997 -0.8450  0.3444
   81SLPC   H8X 7594   1.959   4.685   3.446  0.1830  0.2319 -1.9763
   81SLPC   H8Y 7595   2.120   4.681   3.374  0.3746 -1.0281  0.7626
   81SLPC   C39 7596   2.091   4.576   3.566  0.7108 -0.1116 -0.2645
   81SLPC   H9X 7597   2.135   4.668   3.609 -0.2414 -0.6915  2.1090
   81SLPC   H9Y 7598   2.165   4.494   3.550  1.2480  0.2635  0.2707
   81SLPC  C310 7599   1.981   4.542   3.670 -0.2510  0.2254 -0.1129
   81SLPC  H10X 7600   1.935   4.449   3.630  0.9432 -0.6875  0.5573
   81SLPC  H10Y 7601   1.909   4.625   3.657  1.1737  1.3964 -0.9114
   81SLPC  C311 7602   2.020   4.522   3.817 -1.1263  0.5421  0.0979
   81SLPC  H11X 7603   2.017   4.621   3.866 -1.2967  0.6040 -0.0343
   81SLPC  H11Y 7604   2.125   4.490   3.833 -0.6812  2.9269  2.5642
   81SLPC  C312 7605   1.930   4.423   3.889 -0.4910 -0.3033  0.3562
   81SLPC  H12X 7606   1.948   4.326   3.837 -2.5983  1.1825 -3.5558
   81SLPC  H12Y 7607   1.823   4.446   3.870 -0.8899 -0.4802  2.2002
   81SLPC  C313 7608   1.965   4.434   4.041  0.0920 -0.5033 -0.2876
   81SLPC  H13X 7609   1.914   4.524   4.080 -1.3735 -0.2097 -2.6813
   81SLPC  H13Y 7610   2.074   4.441   4.060 -0.5358  1.8350  3.5038
   81SLPC  C314 7611   1.903   4.326   4.121  0.2954  0.2014  0.1394
   81SLPC  H14X 7612   1.942   4.238   4.066  0.8783  1.1500 -1.0130
   81SLPC  H14Y 7613   1.793   4.333   4.106  0.2880  3.5265  1.1250
   81SLPC  C315 7614   1.937   4.324   4.272 -0.3072  0.5172  0.2454
   81SLPC  H15X 7615   1.915   4.421   4.320 -1.0338  1.2699 -1.5043
   81SLPC  H15Y 7616   2.044   4.298   4.288 -0.6546 -0.3051  1.3606
   81SLPC  C316 7617   1.853   4.228   4.361 -0.2128  0.1367  0.6911
   81SLPC  H16X 7618   1.888   4.127   4.332  1.5476  0.5535  1.2735
   81SLPC  H16Y 7619   1.744   4.236   4.339  0.2415 -0.3346 -2.2092
   81SLPC  C317 7620   1.883   4.256   4.505  0.1082 -0.1555 -0.7030
   81SLPC  H17X 7621   1.856   4.363   4.518 -3.4219 -0.8797 -0.9701
   81SLPC  H17Y 7622   1.991   4.240   4.524 -0.3185 -0.8857  1.4965
   81SLPC  C318 7623   1.806   4.183   4.614 -0.2571 -0.4091  0.0283
   81SLPC  H18X 7624   1.843   4.208   4.716  1.3622 -2.3992  0.0145
   81SLPC  H18Y 7625   1.814   4.073   4.599 -0.6524 -0.2187 -1.8415
   81SLPC  H18Z 7626   1.698   4.206   4.607 -0.0503  0.7988  0.6052
   82SLPC     N 7627   4.361   5.575   2.000 -0.6879  0.3686  0.4189
   82SLPC   C13 7628   4.384   5.696   1.910  0.0398  0.0006 -0.1050
   82SLPC  H13A 7629   4.431   5.775   1.968 -2.3145  1.1806  0.2952
   82SLPC  H13B 7630   4.452   5.662   1.834 -1.1667 -2.7805 -0.0346
   82SLPC  H13C 7631   4.288   5.720   1.869 -0.1931  2.1804  1.4950
   82SLPC   C14 7632   4.498   5.525   2.049  0.1942  0.3017 -0.2851
   82SLPC  H14A 7633   4.560   5.486   1.970 -0.3330 -1.2892  0.0452
   82SLPC  H14B 7634   4.549   5.611   2.089 -1.2016  1.0190  0.0120
   82SLPC  H14C 7635   4.482   5.454   2.128 -1.9011  1.3599  0.3260
   82SLPC   C15 7636   4.296   5.468   1.918  0.6880  0.5316 -0.5307
   82SLPC  H15A 7637   4.351   5.429   1.834  1.6745  0.5398  0.0907
   82SLPC  H15B 7638   4.289   5.373   1.969  2.1804  1.0155  0.6719
   82SLPC  H15C 7639   4.191   5.490   1.906  0.6173 -0.7280 -2.5778
   82SLPC   C12 7640   4.271   5.623   2.116 -0.0244  0.1719  0.4957
   82SLPC  H12A 7641   4.182   5.659   2.067  1.4153  2.5414 -0.5977
   82SLPC  H12B 7642   4.317   5.703   2.173  0.4140  0.0023  0.3836
   82SLPC   C11 7643   4.229   5.510   2.222  0.6002 -0.2692 -0.1860
   82SLPC  H11A 7644   4.203   5.551   2.322  2.5093 -0.4444  0.4240
   82SLPC  H11B 7645   4.312   5.439   2.237 -0.0689 -1.2570 -1.0180
   82SLPC     P 7646   4.091   5.290   2.249 -0.0678 -0.4173  0.1604
   82SLPC   O13 7647   3.950   5.239   2.226 -0.1811  0.5100 -0.5917
   82SLPC   O14 7648   4.194   5.196   2.205 -0.7033 -0.3853  0.6220
   82SLPC   O12 7649   4.112   5.428   2.173 -0.8071 -0.0474 -0.3076
   82SLPC   O11 7650   4.122   5.319   2.402  0.0898  0.2491 -0.0320
   82SLPC    C1 7651   4.045   5.419   2.473 -0.5694  0.1686  0.5074
   82SLPC    HA 7652   4.113   5.466   2.547 -1.0717  0.1635  0.9779
   82SLPC    HB 7653   3.992   5.496   2.412  0.4437  0.1755 -0.3941
   82SLPC    C2 7654   3.925   5.364   2.564 -0.4882 -0.5017 -0.0713
   82SLPC    HS 7655   3.842   5.327   2.500 -1.6670  0.9789  0.5217
   82SLPC   O21 7656   3.884   5.472   2.644 -0.0783  0.0286 -0.0772
   82SLPC   C21 7657   3.797   5.554   2.590 -0.4256  0.0114 -0.6177
   82SLPC   O22 7658   3.772   5.563   2.472 -0.2438  0.2098 -0.1788
   82SLPC   C22 7659   3.727   5.627   2.706 -0.1076  0.0739  0.5888
   82SLPC   H2R 7660   3.805   5.687   2.757 -0.0789  0.7181 -0.1844
   82SLPC   H2S 7661   3.647   5.694   2.667  1.0292  0.2581 -1.5833
   82SLPC    C3 7662   3.961   5.234   2.648  0.2597 -0.0776 -0.2420
   82SLPC    HX 7663   4.061   5.240   2.696 -0.2423 -1.6647  1.0878
   82SLPC    HY 7664   3.981   5.148   2.580  2.1271 -0.5197  0.8080
   82SLPC   O31 7665   3.854   5.198   2.736 -0.3258 -0.1596 -0.5572
   82SLPC   C31 7666   3.872   5.224   2.868 -0.3731  0.5782 -0.3269
   82SLPC   O32 7667   3.973   5.277   2.914  0.1536  0.3082  0.1836
   82SLPC   C32 7668   3.748   5.187   2.952  0.0507 -0.2925  1.0853
   82SLPC   H2X 7669   3.733   5.078   2.937  0.7845 -0.2478 -0.1704
   82SLPC   H2Y 7670   3.663   5.238   2.903 -1.4292 -2.0988  1.6685
   82SLPC   C23 7671   3.676   5.528   2.824  0.2516 -0.4329  0.7112
   82SLPC   H3R 7672   3.749   5.504   2.904 -0.9705 -0.9097  1.7196
   82SLPC   H3S 7673   3.642   5.436   2.771  1.8835  0.2935 -1.7766
   82SLPC   C24 7674   3.547   5.581   2.893 -0.3789 -0.3202 -0.5895
   82SLPC   H4R 7675   3.502   5.501   2.955  0.0500  0.1023  0.2944
   82SLPC   H4S 7676   3.471   5.621   2.823 -0.6651 -0.4470 -0.3524
   82SLPC   C25 7677   3.591   5.704   2.977 -0.3921  0.0382  0.2448
   82SLPC   H5R 7678   3.644   5.775   2.910 -0.3921 -1.5238 -1.4842
   82SLPC   H5S 7679   3.662   5.693   3.062  0.0898  0.2272 -0.1269
   82SLPC   C26 7680   3.472   5.759   3.055  0.5621 -0.0188 -0.4266
   82SLPC   H6R 7681   3.429   5.668   3.102  0.9893  0.2620  0.5387
   82SLPC   H6S 7682   3.390   5.808   2.997 -2.0612 -4.2896 -0.7356
   82SLPC   C27 7683   3.506   5.860   3.168 -0.2346 -0.0432  0.5598
   82SLPC   H7R 7684   3.511   5.959   3.118  1.9753  0.8780  2.4160
   82SLPC   H7S 7685   3.612   5.846   3.200 -0.4480  1.1174  1.8924
   82SLPC   C28 7686   3.404   5.854   3.285 -0.0650 -0.4659 -1.0963
   82SLPC   H8R 7687   3.416   5.756   3.336 -1.6482  1.5593  3.7809
   82SLPC   H8S 7688   3.304   5.861   3.237  0.6732  2.5836 -2.4570
   82SLPC   C29 7689   3.433   5.971   3.382 -0.3718 -0.4532 -0.3492
   82SLPC   H9R 7690   3.427   6.078   3.356  1.7754  0.8757  3.7048
   82SLPC  C210 7691   3.467   5.956   3.515 -0.0623 -0.4387  0.1498
   82SLPC  H10R 7692   3.497   6.047   3.569 -2.9457  0.2098  0.8517
   82SLPC  C211 7693   3.477   5.834   3.599  0.1464  0.7463 -0.4102
   82SLPC  H11R 7694   3.389   5.768   3.581  0.1842 -0.1085  2.1418
   82SLPC  H11S 7695   3.464   5.858   3.706 -0.6962 -2.8034  0.4335
   82SLPC  C212 7696   3.606   5.761   3.574  0.1386 -0.4637 -0.2980
   82SLPC  H12R 7697   3.617   5.718   3.473  1.0694  0.4631 -0.6091
   82SLPC  C213 7698   3.713   5.746   3.659 -0.6028 -0.2096 -0.6423
   82SLPC  H13R 7699   3.797   5.686   3.622 -1.5952 -1.0522 -1.6135
   82SLPC  C214 7700   3.725   5.785   3.808 -0.0090 -0.7115 -0.2973
   82SLPC  H14R 7701   3.702   5.700   3.876 -2.4766  0.3234  0.2354
   82SLPC  H14S 7702   3.648   5.862   3.828  0.8122  0.3874 -1.1943
   82SLPC  C215 7703   3.860   5.833   3.833 -0.4666  0.0123 -0.7226
   82SLPC  H15R 7704   3.881   5.927   3.776  1.4842 -0.3245 -0.6313
   82SLPC  H15S 7705   3.935   5.754   3.811  0.1870  0.6586 -0.8909
   82SLPC  C216 7706   3.896   5.852   3.984  0.3268  0.4535 -0.5194
   82SLPC  H16R 7707   4.005   5.869   3.996 -0.0983  1.7894  2.3390
   82SLPC  H16S 7708   3.876   5.762   4.047  1.1882  1.6282  1.5498
   82SLPC  C217 7709   3.817   5.966   4.056 -0.7320  1.1927 -0.3558
   82SLPC  H17R 7710   3.710   5.940   4.043  0.2259 -3.8728 -0.0317
   82SLPC  H17S 7711   3.845   6.067   4.019 -0.8528  1.0352 -0.8850
   82SLPC  C218 7712   3.844   5.971   4.202  0.2413  0.1410 -0.5046
   82SLPC  H18R 7713   3.954   5.978   4.217  0.1464  1.2034 -0.2223
   82SLPC  H18S 7714   3.813   5.877   4.252 -0.8883  0.3760 -0.7272
   82SLPC  H18T 7715   3.792   6.061   4.243 -2.8656 -1.8875  0.4075
   82SLPC   C33 7716   3.768   5.216   3.100 -0.2707 -0.5115  0.0668
   82SLPC   H3X 7717   3.858   5.173   3.148 -0.6247  0.5314  1.7121
   82SLPC   H3Y 7718   3.681   5.168   3.149 -0.2381  1.2243  1.9396
   82SLPC   C34 7719   3.748   5.365   3.140  0.3152 -1.0833 -0.0880
   82SLPC   H4X 7720   3.670   5.412   3.076  1.2237 -1.2892 -1.3980
   82SLPC   H4Y 7721   3.841   5.418   3.109 -0.4486  1.6970  1.9791
   82SLPC   C35 7722   3.715   5.381   3.294 -0.6261 -0.3021  0.1808
   82SLPC   H5X 7723   3.618   5.330   3.317  1.2846 -3.5854  1.7239
   82SLPC   H5Y 7724   3.707   5.490   3.310 -0.2890 -0.4310  1.3236
   82SLPC   C36 7725   3.816   5.325   3.389 -0.2562  0.1230 -0.5340
   82SLPC   H6X 7726   3.912   5.345   3.337  0.2437 -1.6217 -0.3488
   82SLPC   H6Y 7727   3.803   5.215   3.392  2.3670 -0.2794 -1.1978
   82SLPC   C37 7728   3.815   5.388   3.536 -0.0048 -0.1603  0.3589
   82SLPC   H7X 7729   3.715   5.389   3.584  0.4258  0.1533  1.2725
   82SLPC   H7Y 7730   3.831   5.498   3.526 -2.1838  0.3118  1.3961
   82SLPC   C38 7731   3.927   5.342   3.639  0.8711  0.7262  0.5801
   82SLPC   H8X 7732   4.030   5.375   3.613 -0.1439  2.4019 -1.7868
   82SLPC   H8Y 7733   3.932   5.232   3.648  0.4339  0.6362 -0.1343
   82SLPC   C39 7734   3.904   5.395   3.777  0.5120 -0.2265 -0.1760
   82SLPC   H9X 7735   3.813   5.348   3.820  1.8618 -1.5260  1.4097
   82SLPC   H9Y 7736   3.883   5.504   3.779  0.3751 -0.2579  0.9804
   82SLPC  C310 7737   4.004   5.357   3.886 -0.4141  0.2309  0.2425
   82SLPC  H10X 7738   3.975   5.400   3.984  1.6203 -0.7683  1.3327
   82SLPC  H10Y 7739   4.111   5.375   3.862 -0.1822 -0.4506  0.7450
   82SLPC  C311 7740   4.005   5.201   3.910  0.4293 -0.5729 -0.1179
   82SLPC  H11X 7741   4.055   5.160   3.819  1.1235  1.7491 -0.8502
   82SLPC  H11Y 7742   3.903   5.158   3.917  0.7087 -0.9820  2.1885
   82SLPC  C312 7743   4.078   5.145   4.034  0.0929  0.2355 -0.0575
   82SLPC  H12X 7744   4.183   5.174   4.017  0.9262 -1.6042  1.5742
   82SLPC  H12Y 7745   4.084   5.035   4.049  0.9180  0.2629 -0.1479
   82SLPC  C313 7746   4.026   5.206   4.167 -0.1277 -0.2042  0.0833
   82SLPC  H13X 7747   3.920   5.177   4.183 -0.2902  0.2694 -0.1018
   82SLPC  H13Y 7748   4.042   5.316   4.159  2.4406 -0.5052  0.3607
   82SLPC  C314 7749   4.092   5.150   4.290 -0.6982  0.7782 -0.5945
   82SLPC  H14X 7750   4.198   5.184   4.291 -0.7938  1.1170 -1.3621
   82SLPC  H14Y 7751   4.088   5.039   4.289  0.6370  0.7179 -1.4598
   82SLPC  C315 7752   4.031   5.204   4.418 -0.1851 -0.3208  0.1373
   82SLPC  H15X 7753   3.928   5.173   4.444  0.3417 -3.2581 -0.8943
   82SLPC  H15Y 7754   4.026   5.315   4.411  1.2076 -0.2243  0.3285
   82SLPC  C316 7755   4.120   5.178   4.540  0.1883  0.6300 -0.3547
   82SLPC  H16X 7756   4.225   5.208   4.519  0.4679  0.5832  0.8715
   82SLPC  H16Y 7757   4.123   5.068   4.556 -0.8938  0.1501 -2.9281
   82SLPC  C317 7758   4.072   5.254   4.663 -0.3638 -0.1826 -0.0110
   82SLPC  H17X 7759   3.961   5.247   4.675 -0.4355 -1.1941 -1.0824
   82SLPC  H17Y 7760   4.096   5.362   4.658  1.7031 -0.5259  1.5879
   82SLPC  C318 7761   4.133   5.206   4.798 -0.1645  0.2728 -0.0808
   82SLPC  H18X 7762   4.099   5.266   4.885  1.2364  2.0869 -0.7308
   82SLPC  H18Y 7763   4.242   5.228   4.803 -0.2925  1.3236 -1.2534
   82SLPC  H18Z 7764   4.104   5.101   4.818  1.2099 -0.0616  0.2631
   83SLPC     N 7765   5.536   2.898   2.389  0.0204  0.3246  0.2551
   83SLPC   C13 7766   5.512   2.874   2.250  0.5650 -1.1251  0.0657
   83SLPC  H13A 7767   5.437   2.941   2.210  1.9872 -1.2188 -3.1073
   83SLPC  H13B 7768   5.603   2.877   2.191  0.6604 -0.9195  0.2251
   83SLPC  H13C 7769   5.484   2.771   2.231 -2.0269 -0.6800  1.0774
   83SLPC   C14 7770   5.642   2.799   2.429 -0.1085  0.1239 -0.3690
   83SLPC  H14A 7771   5.728   2.818   2.367 -0.7423  2.5330 -0.6005
   83SLPC  H14B 7772   5.670   2.822   2.531 -2.5830  1.6997  0.0522
   83SLPC  H14C 7773   5.616   2.695   2.419  0.9578 -0.7206  3.7183
   83SLPC   C15 7774   5.417   2.877   2.472 -0.0321 -0.1645 -0.1729
   83SLPC  H15A 7775   5.389   2.772   2.475 -2.0013  0.3362  0.0727
   83SLPC  H15B 7776   5.426   2.908   2.574 -0.0855 -1.9009  0.3980
   83SLPC  H15C 7777   5.328   2.928   2.436 -1.9659 -1.2166  2.7525
   83SLPC   C12 7778   5.598   3.038   2.410  0.1899  0.0175  0.2627
   83SLPC  H12A 7779   5.673   3.047   2.332 -0.3526 -0.5864 -0.3466
   83SLPC  H12B 7780   5.641   3.032   2.509 -1.8435 -5.0588  1.1351
   83SLPC   C11 7781   5.501   3.160   2.400 -0.4156  0.4197 -0.1310
   83SLPC  H11A 7782   5.558   3.250   2.430  0.9333 -0.9371  1.5934
   83SLPC  H11B 7783   5.432   3.145   2.486  0.1361 -2.5874 -0.0678
   83SLPC     P 7784   5.285   3.168   2.260  0.1929 -0.3127  0.2802
   83SLPC   O13 7785   5.253   3.237   2.132 -0.0605 -0.1395 -0.4613
   83SLPC   O14 7786   5.221   3.034   2.285  0.1006  0.4352  0.1279
   83SLPC   O12 7787   5.441   3.167   2.273 -0.0451 -0.4224  0.2946
   83SLPC   O11 7788   5.251   3.266   2.379 -0.3274 -0.1312  0.2732
   83SLPC    C1 7789   5.291   3.403   2.380  0.6584  0.9148  0.2676
   83SLPC    HA 7790   5.388   3.413   2.326 -0.6996 -2.5257 -3.2512
   83SLPC    HB 7791   5.212   3.467   2.336  0.1880  1.3372  1.6621
   83SLPC    C2 7792   5.302   3.444   2.528  0.2177  0.0008  1.0600
   83SLPC    HS 7793   5.378   3.382   2.581  0.4396 -1.1054 -0.4716
   83SLPC   O21 7794   5.168   3.451   2.585  0.0320  0.0310 -0.1548
   83SLPC   C21 7795   5.160   3.407   2.708  0.0790 -0.6242  0.9372
   83SLPC   O22 7796   5.259   3.380   2.774 -0.3813 -0.2668  0.0362
   83SLPC   C22 7797   5.013   3.399   2.757 -0.0518 -0.5321 -0.0047
   83SLPC   H2R 7798   4.959   3.494   2.736  2.5807  1.0926  0.0421
   83SLPC   H2S 7799   4.956   3.326   2.696 -2.1746 -0.4754  1.7738
   83SLPC    C3 7800   5.378   3.584   2.539  0.6380 -0.2016 -0.1036
   83SLPC    HX 7801   5.314   3.656   2.484  2.0732  0.8736 -0.4114
   83SLPC    HY 7802   5.476   3.574   2.488  1.5068 -0.4230  1.5457
   83SLPC   O31 7803   5.397   3.618   2.683 -0.1157  0.4912 -0.6171
   83SLPC   C31 7804   5.503   3.587   2.732 -0.5229 -0.4674 -0.4273
   83SLPC   O32 7805   5.581   3.505   2.687 -0.3852  0.4949 -0.0978
   83SLPC   C32 7806   5.521   3.653   2.863  0.9575  0.3156  0.0322
   83SLPC   H2X 7807   5.422   3.698   2.886 -0.4069 -2.1372 -0.7004
   83SLPC   H2Y 7808   5.592   3.738   2.852  1.4455 -0.0013  0.6330
   83SLPC   C23 7809   5.002   3.356   2.902 -0.1119 -1.2752  0.6393
   83SLPC   H3R 7810   5.070   3.273   2.931  2.6339  1.4306  2.6172
   83SLPC   H3S 7811   4.898   3.317   2.896 -0.7701  0.5586 -0.6326
   83SLPC   C24 7812   4.985   3.462   3.016  0.4386 -0.2794  0.2378
   83SLPC   H4R 7813   4.927   3.409   3.094  0.4406  0.1194  0.5153
   83SLPC   H4S 7814   4.918   3.536   2.968 -0.1693 -1.2441 -0.4454
   83SLPC   C25 7815   5.106   3.530   3.075 -0.6046 -1.1728  0.9604
   83SLPC   H5R 7816   5.150   3.577   2.984  0.9870 -1.4601  1.5503
   83SLPC   H5S 7817   5.180   3.454   3.109  1.7606  0.2870 -0.5972
   83SLPC   C26 7818   5.072   3.642   3.180  0.1638 -0.4593  0.1621
   83SLPC   H6R 7819   4.980   3.701   3.157  0.6855  0.9135  1.4297
   83SLPC   H6S 7820   5.163   3.706   3.189 -0.5757  0.5182  0.9476
   83SLPC   C27 7821   5.051   3.585   3.320  0.4718  0.6071 -0.3288
   83SLPC   H7R 7822   5.133   3.521   3.358 -1.6245 -1.9721  0.1318
   83SLPC   H7S 7823   4.957   3.526   3.328  0.4502  0.8816  2.6185
   83SLPC   C28 7824   5.040   3.706   3.420  0.8245 -0.7130 -0.1408
   83SLPC   H8R 7825   5.117   3.782   3.395 -0.1252 -0.1441 -1.5033
   83SLPC   H8S 7826   5.063   3.668   3.522 -2.2359  1.3261  1.4907
   83SLPC   C29 7827   4.908   3.778   3.415 -0.2442 -0.3096 -0.0897
   83SLPC   H9R 7828   4.903   3.863   3.344 -0.1677  0.6203  0.9830
   83SLPC  C210 7829   4.792   3.745   3.486 -0.4731  0.3554  0.4473
   83SLPC  H10R 7830   4.712   3.819   3.471 -0.7003  0.5054  2.2002
   83SLPC  C211 7831   4.770   3.659   3.605  0.2671 -0.0139  0.6706
   83SLPC  H11R 7832   4.797   3.558   3.568  1.2830  0.0853  1.1277
   83SLPC  H11S 7833   4.660   3.663   3.623  0.1748  4.0593  0.0725
   83SLPC  C212 7834   4.848   3.696   3.722 -0.0831 -0.4380  0.0947
   83SLPC  H12R 7835   4.957   3.697   3.714  0.0561 -1.6707  1.4113
   83SLPC  C213 7836   4.796   3.706   3.843 -0.0453  0.4088 -0.7892
   83SLPC  H13R 7837   4.863   3.737   3.926  0.0082  2.2955 -1.4936
   83SLPC  C214 7838   4.646   3.709   3.884 -0.8497  0.6542 -0.6271
   83SLPC  H14R 7839   4.596   3.728   3.786  1.5413 -0.2678 -2.1234
   83SLPC  H14S 7840   4.652   3.791   3.958  2.4037 -0.0146  0.0234
   83SLPC  C215 7841   4.605   3.583   3.957 -0.2254  0.3730  0.5484
   83SLPC  H15R 7842   4.665   3.549   4.044 -0.0065 -1.6042 -0.3127
   83SLPC  H15S 7843   4.612   3.497   3.887 -4.9298 -0.3121  0.6363
   83SLPC  C216 7844   4.458   3.599   4.014 -0.4248  0.6881  0.2656
   83SLPC  H16R 7845   4.387   3.569   3.934  1.4763 -1.1218 -0.8438
   83SLPC  H16S 7846   4.452   3.705   4.047  1.1574  0.3703  1.7001
   83SLPC  C217 7847   4.444   3.512   4.145 -0.4276 -0.2661  0.4138
   83SLPC  H17R 7848   4.351   3.562   4.179 -0.8563  0.4376 -1.6343
   83SLPC  H17S 7849   4.524   3.540   4.216  0.3302  2.7145 -1.4364
   83SLPC  C218 7850   4.440   3.360   4.134  0.0798 -0.2373 -0.2108
   83SLPC  H18R 7851   4.428   3.320   4.236 -0.7674  2.1232  0.6786
   83SLPC  H18S 7852   4.528   3.304   4.094  0.8657  0.1684  0.9190
   83SLPC  H18T 7853   4.356   3.325   4.070  1.3467 -5.9843  0.7289
   83SLPC   C33 7854   5.564   3.564   2.983  0.2353  0.4203 -0.0592
   83SLPC   H3X 7855   5.667   3.525   2.968  0.3286  0.4609  0.4542
   83SLPC   H3Y 7856   5.511   3.467   2.996  2.5954 -0.8815  0.4990
   83SLPC   C34 7857   5.589   3.634   3.116 -0.0899 -0.2755  0.2605
   83SLPC   H4X 7858   5.633   3.735   3.098  1.0495 -0.4056  2.0447
   83SLPC   H4Y 7859   5.675   3.587   3.169  1.8224  2.3933 -0.2533
   83SLPC   C35 7860   5.469   3.625   3.204  0.8804  0.5517 -0.8746
   83SLPC   H5X 7861   5.440   3.518   3.208  1.5121  0.3141 -2.2192
   83SLPC   H5Y 7862   5.386   3.686   3.163 -1.6484 -1.5663  0.7914
   83SLPC   C36 7863   5.500   3.682   3.350 -0.6120 -0.0301  0.4251
   83SLPC   H6X 7864   5.499   3.793   3.348  0.6557 -0.0159 -0.1513
   83SLPC   H6Y 7865   5.609   3.665   3.366 -0.6137 -0.2226  0.2319
   83SLPC   C37 7866   5.408   3.624   3.457 -0.4964 -0.4344  0.3050
   83SLPC   H7X 7867   5.418   3.513   3.453 -0.9450 -0.6376  2.8862
   83SLPC   H7Y 7868   5.307   3.662   3.435  0.2896  1.2897 -0.5015
   83SLPC   C38 7869   5.462   3.647   3.598  0.0807 -0.1463 -0.4221
   83SLPC   H8X 7870   5.505   3.748   3.615  2.3152 -1.0616 -0.2891
   83SLPC   H8Y 7871   5.554   3.590   3.623 -0.1906 -0.8239 -0.9370
   83SLPC   C39 7872   5.358   3.607   3.702  0.0320  0.3405  0.2817
   83SLPC   H9X 7873   5.324   3.503   3.682 -1.5908  1.4350 -3.6625
   83SLPC   H9Y 7874   5.273   3.679   3.699 -1.2093 -1.0423  0.8287
   83SLPC  C310 7875   5.397   3.625   3.849  0.2433  0.4249 -0.2379
   83SLPC  H10X 7876   5.439   3.726   3.871  3.2568 -0.9704  1.0921
   83SLPC  H10Y 7877   5.489   3.564   3.862  0.4311  0.3982 -1.5804
   83SLPC  C311 7878   5.289   3.584   3.947 -0.0736 -0.0645 -0.4751
   83SLPC  H11X 7879   5.280   3.474   3.952 -1.6941 -0.0542 -2.2609
   83SLPC  H11Y 7880   5.191   3.624   3.913 -1.1880 -1.3977  1.0380
   83SLPC  C312 7881   5.300   3.651   4.090 -0.9089 -0.8466 -0.4133
   83SLPC  H12X 7882   5.305   3.760   4.068 -0.1660 -0.5499  1.0942
   83SLPC  H12Y 7883   5.390   3.619   4.146 -1.3108 -0.3703  0.5242
   83SLPC  C313 7884   5.178   3.617   4.175  0.6240  0.0716  0.6403
   83SLPC  H13X 7885   5.189   3.513   4.212 -0.9430  0.4567  2.3816
   83SLPC  H13Y 7886   5.090   3.633   4.110  0.9293 -0.3801  0.1126
   83SLPC  C314 7887   5.162   3.713   4.296 -0.2812 -0.4047  0.2143
   83SLPC  H14X 7888   5.152   3.819   4.265 -2.9112 -0.4605  0.6077
   83SLPC  H14Y 7889   5.259   3.714   4.350 -0.5537 -0.0350  0.7095
   83SLPC  C315 7890   5.056   3.682   4.395  0.2236  0.1871 -0.5842
   83SLPC  H15X 7891   5.072   3.752   4.479 -1.1130  0.6705 -0.6978
   83SLPC  H15Y 7892   5.067   3.582   4.443  1.9665  1.0520  0.9275
   83SLPC  C316 7893   4.910   3.699   4.336  0.4731 -0.0467  0.2191
   83SLPC  H16X 7894   4.838   3.667   4.415  0.6099  3.3405  1.8964
   83SLPC  H16Y 7895   4.908   3.627   4.252  2.5121  1.6773 -1.3984
   83SLPC  C317 7896   4.871   3.839   4.286  0.5817  0.3599  0.1633
   83SLPC  H17X 7897   4.932   3.853   4.194  1.4749  0.4733  0.7642
   83SLPC  H17Y 7898   4.914   3.911   4.358  1.2433 -0.3976  0.5436
   83SLPC  C318 7899   4.718   3.854   4.255 -0.2176 -0.4681 -0.5888
   83SLPC  H18X 7900   4.661   3.840   4.349  0.1008  0.3522 -0.2694
   83SLPC  H18Y 7901   4.683   3.771   4.190 -1.1181 -1.2337  0.8363
   83SLPC  H18Z 7902   4.700   3.956   4.214 -1.4904 -1.7667 -3.4996
   84SLPC     N 7903   6.072   2.364   1.808 -0.5479 -0.1037 -0.2380
   84SLPC   C13 7904   5.977   2.465   1.778 -0.0229 -0.0664  0.9557
   84SLPC  H13A 7905   5.911   2.478   1.862 -2.1255 -0.9207 -0.4777
   84SLPC  H13B 7906   6.021   2.560   1.754 -0.8413  0.3849  1.2208
   84SLPC  H13C 7907   5.908   2.438   1.699  2.1032 -1.1463 -0.6350
   84SLPC   C14 7908   6.136   2.330   1.673 -0.7871 -0.5886 -0.1901
   84SLPC  H14A 7909   6.221   2.268   1.697  1.7006  2.4944 -0.3793
   84SLPC  H14B 7910   6.068   2.278   1.606 -1.4760 -0.2807  0.2604
   84SLPC  H14C 7911   6.166   2.424   1.629 -0.6082 -1.2698 -1.5779
   84SLPC   C15 7912   6.008   2.246   1.860 -0.1774 -0.2436 -0.3964
   84SLPC  H15A 7913   5.939   2.197   1.793 -3.6561  1.0080  2.0098
   84SLPC  H15B 7914   6.094   2.185   1.882  1.3649  2.0015  0.1086
   84SLPC  H15C 7915   5.958   2.262   1.954  2.6469 -0.3231  1.2371
   84SLPC   C12 7916   6.185   2.426   1.897 -0.4633  0.3551  0.3592
   84SLPC  H12A 7917   6.215   2.520   1.854 -0.5817  0.3922  0.3562
   84SLPC  H12B 7918   6.258   2.347   1.895 -0.2654  0.5515 -1.2140
   84SLPC   C11 7919   6.162   2.447   2.047 -0.3698 -0.3203 -0.2352
   84SLPC  H11A 7920   6.253   2.488   2.097  0.3961 -0.7162 -1.2735
   84SLPC  H11B 7921   6.146   2.355   2.106  0.1125  0.4140  1.1094
   84SLPC     P 7922   5.922   2.512   2.138  0.4514 -0.1069  0.3171
   84SLPC   O13 7923   5.878   2.642   2.194 -0.2496  0.4735  0.6297
   84SLPC   O14 7924   5.824   2.438   2.054 -0.1640  0.5978  0.3786
   84SLPC   O12 7925   6.056   2.541   2.063  0.5241 -0.1373 -0.4689
   84SLPC   O11 7926   5.967   2.416   2.248  0.1225 -0.2220  0.0338
   84SLPC    C1 7927   5.862   2.340   2.321 -0.4358 -0.1325  0.7810
   84SLPC    HA 7928   5.782   2.288   2.264  0.6669 -0.0629 -0.8861
   84SLPC    HB 7929   5.917   2.254   2.366  0.1061  0.4783  1.3038
   84SLPC    C2 7930   5.795   2.413   2.438  0.8083 -0.9239 -0.3089
   84SLPC    HS 7931   5.760   2.512   2.403 -1.0057 -0.3770  2.6128
   84SLPC   O21 7932   5.884   2.431   2.548  0.2025 -0.3287 -0.5322
   84SLPC   C21 7933   5.884   2.540   2.615 -0.3977 -0.0702 -0.2055
   84SLPC   O22 7934   5.812   2.635   2.600  0.8273  0.3091 -0.1942
   84SLPC   C22 7935   5.987   2.531   2.730 -0.1931  0.3518  0.3706
   84SLPC   H2R 7936   6.016   2.424   2.739 -4.2629 -0.7828  2.5685
   84SLPC   H2S 7937   6.065   2.606   2.705  1.4859 -1.3643  0.2593
   84SLPC    C3 7938   5.661   2.339   2.482 -0.0928 -0.1856  0.0920
   84SLPC    HX 7939   5.692   2.232   2.491  3.1677  0.7654  2.0773
   84SLPC    HY 7940   5.585   2.345   2.402  0.5940 -0.0561 -0.5603
   84SLPC   O31 7941   5.622   2.386   2.617  0.1891 -0.1680  0.3242
   84SLPC   C31 7942   5.533   2.483   2.610  0.6006 -0.4968 -0.0207
   84SLPC   O32 7943   5.499   2.546   2.513 -1.2620 -0.5901  0.2351
   84SLPC   C32 7944   5.470   2.514   2.744 -0.2629 -0.3929  0.5693
   84SLPC   H2X 7945   5.510   2.436   2.812  1.4582 -0.2457 -0.2328
   84SLPC   H2Y 7946   5.360   2.495   2.738 -0.3648 -0.1333  1.4924
   84SLPC   C23 7947   5.904   2.564   2.856 -0.5496  0.3457 -0.2146
   84SLPC   H3R 7948   5.834   2.648   2.837 -0.7863  0.3584  0.6634
   84SLPC   H3S 7949   5.956   2.602   2.946 -3.2915 -0.5694  1.8986
   84SLPC   C24 7950   5.823   2.447   2.907  0.1091 -0.1899  0.8099
   84SLPC   H4R 7951   5.900   2.370   2.933  0.6433  0.1611  0.2968
   84SLPC   H4S 7952   5.755   2.409   2.828 -2.0012  1.2388  1.8575
   84SLPC   C25 7953   5.737   2.476   3.030  0.0052  0.4367 -0.2246
   84SLPC   H5R 7954   5.714   2.387   3.092  0.6916 -0.1738 -0.8224
   84SLPC   H5S 7955   5.638   2.511   2.993 -0.0025  1.8196  1.0072
   84SLPC   C26 7956   5.799   2.568   3.140 -0.2061  0.1534  0.2891
   84SLPC   H6R 7957   5.715   2.581   3.211 -0.8819 -1.5129 -0.1440
   84SLPC   H6S 7958   5.815   2.670   3.099  0.1164 -0.3661 -0.9127
   84SLPC   C27 7959   5.927   2.524   3.198  0.1698  0.0430 -0.3873
   84SLPC   H7R 7960   6.018   2.523   3.134  0.0969 -0.2890 -0.4876
   84SLPC   H7S 7961   5.926   2.417   3.227  0.3318  0.3832  0.9619
   84SLPC   C28 7962   5.984   2.618   3.307  0.0296  0.3917  0.5209
   84SLPC   H8R 7963   5.969   2.726   3.287 -0.4506  0.6444  2.1266
   84SLPC   H8S 7964   6.094   2.601   3.304  0.0712  0.7330 -1.8783
   84SLPC   C29 7965   5.922   2.596   3.441  0.1068  0.2270  0.6249
   84SLPC   H9R 7966   5.817   2.630   3.445 -0.4807 -1.3489 -0.3305
   84SLPC  C210 7967   5.973   2.540   3.553  0.1534 -0.6110  0.0680
   84SLPC  H10R 7968   5.914   2.536   3.646  0.0962  1.4153  0.1739
   84SLPC  C211 7969   6.115   2.481   3.572 -0.6950 -0.1614 -0.4478
   84SLPC  H11R 7970   6.180   2.490   3.482  0.5885  0.3832  0.5062
   84SLPC  H11S 7971   6.111   2.371   3.589  2.2586  0.0755  2.9896
   84SLPC  C212 7972   6.186   2.555   3.685 -0.4128  0.9360  0.0814
   84SLPC  H12R 7973   6.205   2.661   3.658  2.6240 -0.0200 -2.1348
   84SLPC  C213 7974   6.209   2.511   3.811  0.1366  0.2507  0.0519
   84SLPC  H13R 7975   6.255   2.584   3.879  0.7476  0.3853 -0.4990
   84SLPC  C214 7976   6.191   2.371   3.862  0.5734 -0.5032  0.5203
   84SLPC  H14R 7977   6.286   2.322   3.891 -0.0627 -0.6269  2.5430
   84SLPC  H14S 7978   6.152   2.309   3.778 -1.9014  1.8564 -0.2348
   84SLPC  C215 7979   6.093   2.354   3.980  0.0651  0.1843  0.1773
   84SLPC  H15R 7980   6.082   2.247   4.008 -0.4209  0.9067  2.9651
   84SLPC  H15S 7981   5.986   2.379   3.967 -0.1592  0.5151  2.3411
   84SLPC  C216 7982   6.157   2.422   4.100 -0.1768  0.2429  0.0998
   84SLPC  H16R 7983   6.147   2.532   4.095  1.4677  0.5109  1.5574
   84SLPC  H16S 7984   6.264   2.391   4.106 -0.5864 -0.9349  3.1901
   84SLPC  C217 7985   6.101   2.378   4.237  0.0633 -0.0981  0.3560
   84SLPC  H17R 7986   5.992   2.398   4.240 -0.2243 -1.4174 -0.6258
   84SLPC  H17S 7987   6.144   2.443   4.317  0.0397 -0.4726  0.6749
   84SLPC  C218 7988   6.145   2.233   4.284 -0.3345  0.0010  0.5458
   84SLPC  H18R 7989   6.109   2.192   4.380 -2.6659 -0.9011 -0.6478
   84SLPC  H18S 7990   6.255   2.217   4.281 -0.7529 -3.8104 -1.9194
   84SLPC  H18T 7991   6.091   2.162   4.218  1.5405  0.6257 -1.8347
   84SLPC   C33 7992   5.506   2.655   2.786 -0.7038 -0.0192 -0.0512
   84SLPC   H3X 7993   5.506   2.727   2.702  0.3848  1.1136  0.8623
   84SLPC   H3Y 7994   5.613   2.660   2.816 -0.4588  1.5203 -1.0548
   84SLPC   C34 7995   5.408   2.714   2.890  0.1916  0.0440  1.0540
   84SLPC   H4X 7996   5.398   2.651   2.981  2.2216 -0.9362  0.6623
   84SLPC   H4Y 7997   5.307   2.725   2.845  0.5319 -2.9543 -0.7252
   84SLPC   C35 7998   5.456   2.854   2.938 -0.5059  0.8785  0.1070
   84SLPC   H5X 7999   5.374   2.895   3.000 -1.3906  0.2699 -0.6350
   84SLPC   H5Y 8000   5.471   2.912   2.844 -0.7621 -1.4204 -1.4607
   84SLPC   C36 8001   5.590   2.858   3.013  0.5640  0.4106  0.6417
   84SLPC   H6X 8002   5.679   2.841   2.948  2.3692  1.6180  2.6582
   84SLPC   H6Y 8003   5.589   2.783   3.096 -2.8945 -0.1102  0.2666
   84SLPC   C37 8004   5.624   2.998   3.065  0.2625  0.0573 -0.3776
   84SLPC   H7X 8005   5.634   3.071   2.982  0.7120 -1.6951 -1.9440
   84SLPC   H7Y 8006   5.723   2.980   3.112 -0.4664  0.9560  1.5860
   84SLPC   C38 8007   5.535   3.045   3.175 -0.4688  0.0454  0.2268
   84SLPC   H8X 8008   5.511   2.960   3.241  1.6538 -1.0352 -0.2843
   84SLPC   H8Y 8009   5.444   3.068   3.116 -0.2420  0.3298 -0.0204
   84SLPC   C39 8010   5.592   3.173   3.249 -0.5033 -0.5896  0.0815
   84SLPC   H9X 8011   5.616   3.257   3.180  0.1825  0.6730  1.7969
   84SLPC   H9Y 8012   5.688   3.148   3.298 -0.8411 -2.0196  0.0489
   84SLPC  C310 8013   5.494   3.226   3.358  0.4712  0.2359  0.0179
   84SLPC  H10X 8014   5.411   3.269   3.299  1.7367  0.7386 -1.4782
   84SLPC  H10Y 8015   5.543   3.312   3.407  1.3545  0.2627 -0.8703
   84SLPC  C311 8016   5.468   3.133   3.475  0.3971 -0.4292  0.2407
   84SLPC  H11X 8017   5.563   3.082   3.503  1.7045  1.1705 -1.0935
   84SLPC  H11Y 8018   5.396   3.053   3.451 -1.5623  1.0777  0.8724
   84SLPC  C312 8019   5.416   3.211   3.599 -0.7110 -0.6643  0.2298
   84SLPC  H12X 8020   5.345   3.155   3.664 -0.4604 -0.4136  0.7252
   84SLPC  H12Y 8021   5.351   3.291   3.557 -1.6274 -1.2501  0.4921
   84SLPC  C313 8022   5.515   3.281   3.696 -0.7577 -0.2710 -0.0125
   84SLPC  H13X 8023   5.450   3.338   3.765  0.1221  0.7467 -0.0048
   84SLPC  H13Y 8024   5.572   3.362   3.646  1.2137 -1.6231 -0.0845
   84SLPC  C314 8025   5.613   3.193   3.776 -0.5422  0.1798 -0.2475
   84SLPC  H14X 8026   5.688   3.149   3.708 -1.2208 -1.5138  0.0403
   84SLPC  H14Y 8027   5.562   3.101   3.813 -0.0907  0.3349  0.7907
   84SLPC  C315 8028   5.688   3.274   3.885  0.1504  0.2747 -0.3052
   84SLPC  H15X 8029   5.622   3.296   3.971 -1.3206 -0.1821 -1.2856
   84SLPC  H15Y 8030   5.719   3.374   3.848  1.0065  0.8388  1.7905
   84SLPC  C316 8031   5.805   3.193   3.936  0.0784 -0.0078  0.2360
   84SLPC  H16X 8032   5.880   3.256   3.988  1.6427 -2.3900  1.0360
   84SLPC  H16Y 8033   5.854   3.148   3.848 -1.5459  1.8190 -1.7277
   84SLPC  C317 8034   5.758   3.089   4.034 -0.4293 -0.1124 -0.3898
   84SLPC  H17X 8035   5.709   3.008   3.976 -1.0184  1.5437 -2.3246
   84SLPC  H17Y 8036   5.682   3.147   4.091  0.3854  2.0532 -1.3849
   84SLPC  C318 8037   5.863   3.041   4.124 -0.1048 -1.0866  0.9000
   84SLPC  H18X 8038   5.943   2.998   4.061  1.6210 -0.3610  2.4975
   84SLPC  H18Y 8039   5.825   2.966   4.198 -1.5313  0.4033  1.7301
   84SLPC  H18Z 8040   5.905   3.127   4.181  0.4781 -0.9482  0.2731
   85SLPC     N 8041   3.369   0.706   1.744 -0.2743  0.1226 -0.7092
   85SLPC   C13 8042   3.431   0.597   1.661 -0.0072 -0.4937  0.2016
   85SLPC  H13A 8043   3.531   0.628   1.632  0.5690 -0.1648  2.3406
   85SLPC  H13B 8044   3.447   0.513   1.727 -0.4879 -0.0759  0.8668
   85SLPC  H13C 8045   3.365   0.562   1.584  1.7767  0.2803 -1.7903
   85SLPC   C14 8046   3.317   0.814   1.660  0.5736 -0.3469 -0.1674
   85SLPC  H14A 8047   3.241   0.769   1.597  0.2737 -0.9633  0.6181
   85SLPC  H14B 8048   3.259   0.882   1.721 -1.5895 -1.9131 -0.3609
   85SLPC  H14C 8049   3.393   0.867   1.605 -1.2837  1.6840 -0.9519
   85SLPC   C15 8050   3.471   0.774   1.837 -0.0991 -0.2854  0.5393
   85SLPC  H15A 8051   3.417   0.839   1.904  2.3978  1.2475  1.1789
   85SLPC  H15B 8052   3.512   0.697   1.900  0.2172  0.3982  1.1881
   85SLPC  H15C 8053   3.546   0.826   1.778  0.8364 -2.4664 -0.2924
   85SLPC   C12 8054   3.259   0.665   1.842  0.6835  0.1225  0.0841
   85SLPC  H12A 8055   3.175   0.627   1.786 -0.5887 -0.2452  2.1343
   85SLPC  H12B 8056   3.219   0.758   1.880  0.4360 -0.4815  1.3183
   85SLPC   C11 8057   3.296   0.573   1.963  0.3388  0.5338  0.7426
   85SLPC  H11A 8058   3.196   0.557   2.011 -0.4122  1.8583 -0.3017
   85SLPC  H11B 8059   3.374   0.629   2.019  0.6716  0.2445  0.5664
   85SLPC     P 8060   3.476   0.376   1.979 -0.3547  0.4861  0.1150
   85SLPC   O13 8061   3.444   0.230   1.998  0.1872  0.2261  0.3952
   85SLPC   O14 8062   3.591   0.409   1.892 -0.3574  0.0785 -0.2687
   85SLPC   O12 8063   3.356   0.452   1.917  0.4952 -0.1796  0.0382
   85SLPC   O11 8064   3.495   0.445   2.119 -0.0022 -0.3803  0.0298
   85SLPC    C1 8065   3.414   0.404   2.229  0.1086  0.1771 -0.0845
   85SLPC    HA 8066   3.326   0.344   2.200  0.2625 -0.8160  1.4213
   85SLPC    HB 8067   3.476   0.326   2.278  0.7119  0.2935 -0.6430
   85SLPC    C2 8068   3.385   0.522   2.308  0.7099  0.0307 -0.2428
   85SLPC    HS 8069   3.345   0.603   2.243  0.5108 -0.5374 -0.8286
   85SLPC   O21 8070   3.504   0.566   2.373 -0.1611 -0.0889 -0.2404
   85SLPC   C21 8071   3.504   0.679   2.434 -0.3397 -0.0115 -0.1005
   85SLPC   O22 8072   3.426   0.772   2.414 -0.5102 -0.4720  0.4004
   85SLPC   C22 8073   3.630   0.686   2.531  0.5086  0.1099  0.1710
   85SLPC   H2R 8074   3.619   0.605   2.606 -1.7758 -0.8895 -1.1484
   85SLPC   H2S 8075   3.716   0.647   2.473 -0.3001 -2.3537  0.5076
   85SLPC    C3 8076   3.277   0.475   2.410  0.9643  0.6388 -0.4041
   85SLPC    HX 8077   3.203   0.423   2.346  2.6647 -1.3109 -0.8823
   85SLPC    HY 8078   3.238   0.571   2.450  0.4646  0.1817  0.2290
   85SLPC   O31 8079   3.312   0.382   2.515 -0.4579  0.0636  0.2278
   85SLPC   C31 8080   3.337   0.423   2.635 -0.1267 -1.1852 -0.2074
   85SLPC   O32 8081   3.346   0.543   2.670 -0.2683  0.5670  0.3873
   85SLPC   C32 8082   3.349   0.308   2.727 -0.3100 -0.0120  0.2986
   85SLPC   H2X 8083   3.452   0.269   2.741 -1.8867 -3.7974  3.4217
   85SLPC   H2Y 8084   3.283   0.227   2.688  0.0845 -1.3929  2.3102
   85SLPC   C23 8085   3.656   0.825   2.595 -0.1361 -0.1702  0.0115
   85SLPC   H3R 8086   3.659   0.902   2.515  0.0295  0.3893  0.5491
   85SLPC   H3S 8087   3.761   0.819   2.631  0.4668  1.6354 -1.2505
   85SLPC   C24 8088   3.556   0.865   2.705  0.1831  0.0692  0.3060
   85SLPC   H4R 8089   3.529   0.772   2.762 -0.8133  0.4996  0.5638
   85SLPC   H4S 8090   3.464   0.900   2.653 -2.2701 -3.3716  1.8955
   85SLPC   C25 8091   3.605   0.955   2.812 -0.2006  0.1978 -0.7063
   85SLPC   H5R 8092   3.692   0.902   2.857 -0.5202  0.1091 -0.1812
   85SLPC   H5S 8093   3.637   1.044   2.754 -0.4912  1.7626  1.4382
   85SLPC   C26 8094   3.510   0.995   2.922 -0.4815 -0.0628 -1.0379
   85SLPC   H6R 8095   3.406   0.978   2.887 -0.6888  0.8865 -0.8995
   85SLPC   H6S 8096   3.516   1.103   2.949  1.9477 -0.5228  0.5727
   85SLPC   C27 8097   3.549   0.925   3.056  0.1485 -0.6326 -0.6016
   85SLPC   H7R 8098   3.655   0.954   3.074  0.8087 -1.0990 -3.3471
   85SLPC   H7S 8099   3.550   0.815   3.046 -1.9687 -0.8623  0.9789
   85SLPC   C28 8100   3.474   0.968   3.185 -0.0329  0.9105 -0.1794
   85SLPC   H8R 8101   3.477   1.080   3.184  2.2434  0.9930  2.6838
   85SLPC   H8S 8102   3.525   0.939   3.279  0.2989  2.7716  0.2672
   85SLPC   C29 8103   3.328   0.909   3.187 -0.3502 -0.2085  0.0134
   85SLPC   H9R 8104   3.281   0.903   3.088  0.4939  1.8157 -0.5658
   85SLPC  C210 8105   3.256   0.882   3.298  0.1563 -0.1181 -0.1740
   85SLPC  H10R 8106   3.157   0.835   3.286  1.0626 -2.2857  0.3630
   85SLPC  C211 8107   3.292   0.886   3.444 -0.3279  0.2172  0.1258
   85SLPC  H11R 8108   3.371   0.813   3.472  1.8822  3.9426  5.1455
   85SLPC  H11S 8109   3.212   0.841   3.506 -0.1711 -1.4567 -0.8029
   85SLPC  C212 8110   3.315   1.032   3.487 -0.1008 -0.3397  0.0641
   85SLPC  H12R 8111   3.272   1.100   3.412 -0.8394 -3.8605 -2.9850
   85SLPC  C213 8112   3.391   1.077   3.591 -0.5460 -0.1663 -0.2550
   85SLPC  H13R 8113   3.380   1.184   3.613 -1.7341  0.3758 -3.0044
   85SLPC  C214 8114   3.476   0.993   3.686 -0.2117 -0.2898  0.5084
   85SLPC  H14R 8115   3.582   1.012   3.659 -0.9119  4.2896  0.2403
   85SLPC  H14S 8116   3.457   0.885   3.670 -1.0546 -0.2012  0.8590
   85SLPC  C215 8117   3.458   1.012   3.841  0.5165  0.3674  0.0206
   85SLPC  H15R 8118   3.490   1.119   3.842  0.7348  0.3503 -1.8015
   85SLPC  H15S 8119   3.535   0.953   3.896 -1.2420 -0.7231  1.4433
   85SLPC  C216 8120   3.323   0.989   3.909  0.4197 -0.7239 -0.1901
   85SLPC  H16R 8121   3.336   0.892   3.963  0.6357 -0.4834  0.1903
   85SLPC  H16S 8122   3.243   0.967   3.835 -0.9058 -0.2639  1.0753
   85SLPC  C217 8123   3.277   1.094   4.009 -0.9280  0.5524 -0.1710
   85SLPC  H17R 8124   3.266   1.184   3.945  1.7361 -0.0640 -1.6033
   85SLPC  H17S 8125   3.356   1.112   4.085 -0.5934  0.3823 -0.4815
   85SLPC  C218 8126   3.143   1.057   4.085  0.2057 -0.7138  0.5586
   85SLPC  H18R 8127   3.082   0.991   4.020  0.0569 -2.5068  2.3915
   85SLPC  H18S 8128   3.095   1.155   4.106 -0.2686 -0.7512 -0.3121
   85SLPC  H18T 8129   3.161   1.001   4.180 -0.4119 -0.4206  0.8569
   85SLPC   C33 8130   3.314   0.347   2.876 -0.5505  0.3976  0.5519
   85SLPC   H3X 8131   3.291   0.248   2.922  1.8919  0.5160  2.1679
   85SLPC   H3Y 8132   3.226   0.413   2.890  0.8686  2.0011  2.3880
   85SLPC   C34 8133   3.430   0.403   2.955  0.4156 -0.3847  0.0368
   85SLPC   H4X 8134   3.464   0.489   2.894 -4.4710  2.2246  0.4241
   85SLPC   H4Y 8135   3.510   0.334   2.989  0.5277 -0.9822 -1.3780
   85SLPC   C35 8136   3.401   0.482   3.090 -0.4122  0.1483 -0.1308
   85SLPC   H5X 8137   3.345   0.576   3.066 -1.8333 -0.1664  1.6927
   85SLPC   H5Y 8138   3.492   0.537   3.121 -1.0886  0.2950  1.7172
   85SLPC   C36 8139   3.346   0.407   3.210 -0.1196 -0.1089 -1.5024
   85SLPC   H6X 8140   3.414   0.322   3.232 -1.1457 -0.4407  0.6792
   85SLPC   H6Y 8141   3.246   0.369   3.182 -2.0875  3.3621  0.1085
   85SLPC   C37 8142   3.337   0.489   3.334  0.8019 -0.3081 -0.0571
   85SLPC   H7X 8143   3.291   0.587   3.310  0.9352 -0.2974 -0.2743
   85SLPC   H7Y 8144   3.435   0.520   3.375  0.4629  1.5085 -0.5316
   85SLPC   C38 8145   3.273   0.418   3.453  0.4834 -0.0369 -0.0347
   85SLPC   H8X 8146   3.322   0.321   3.476  2.3771  0.8748 -0.0787
   85SLPC   H8Y 8147   3.169   0.399   3.416  0.5379 -3.2295  1.0971
   85SLPC   C39 8148   3.292   0.499   3.584 -0.2630 -0.1321  0.3729
   85SLPC   H9X 8149   3.252   0.603   3.580 -0.5892 -0.2748 -0.2446
   85SLPC   H9Y 8150   3.402   0.503   3.596 -0.3802  0.9062  1.2587
   85SLPC  C310 8151   3.249   0.427   3.711  0.0029 -0.0743  0.5745
   85SLPC  H10X 8152   3.323   0.345   3.717 -0.8094 -1.1463 -2.2295
   85SLPC  H10Y 8153   3.144   0.393   3.695 -0.8085  2.8405 -1.0689
   85SLPC  C311 8154   3.258   0.518   3.839  0.2684  0.3443 -0.2276
   85SLPC  H11X 8155   3.186   0.602   3.835 -1.2540 -0.9104  0.0072
   85SLPC  H11Y 8156   3.365   0.549   3.847  0.2251  0.4014  0.1691
   85SLPC  C312 8157   3.238   0.436   3.971 -0.6595  0.3247  0.1463
   85SLPC  H12X 8158   3.305   0.347   3.976 -0.5034  0.4531  0.3722
   85SLPC  H12Y 8159   3.132   0.405   3.982 -0.7479 -0.3249 -2.1349
   85SLPC  C313 8160   3.277   0.511   4.102  0.0414 -0.1452  0.2341
   85SLPC  H13X 8161   3.220   0.606   4.105  0.2000  0.0327 -1.4554
   85SLPC  H13Y 8162   3.385   0.537   4.103 -0.1064  0.8806 -2.4307
   85SLPC  C314 8163   3.259   0.426   4.234 -0.1429 -0.2298 -0.3069
   85SLPC  H14X 8164   3.325   0.337   4.243 -1.5281 -1.1178  1.8749
   85SLPC  H14Y 8165   3.163   0.372   4.224 -0.5002  0.6126 -1.7986
   85SLPC  C315 8166   3.274   0.518   4.361 -0.4371 -0.5352  0.1261
   85SLPC  H15X 8167   3.194   0.592   4.343  0.4802 -0.0143 -2.1431
   85SLPC  H15Y 8168   3.372   0.570   4.353 -0.8988  0.1441 -1.3594
   85SLPC  C316 8169   3.256   0.451   4.498 -0.2392 -0.3363 -0.8038
   85SLPC  H16X 8170   3.166   0.386   4.507  3.0111 -5.3666 -0.8723
   85SLPC  H16Y 8171   3.253   0.541   4.563  2.3431  1.0578 -2.4530
   85SLPC  C317 8172   3.377   0.369   4.545  0.4519  0.5871 -0.1677
   85SLPC  H17X 8173   3.459   0.442   4.551 -0.2278  1.3096  0.5232
   85SLPC  H17Y 8174   3.397   0.287   4.472 -1.3949 -1.0518  1.0733
   85SLPC  C318 8175   3.372   0.318   4.691  0.4298 -0.0844 -0.6729
   85SLPC  H18X 8176   3.387   0.406   4.757  2.1654  0.8145 -2.1821
   85SLPC  H18Y 8177   3.461   0.254   4.713 -0.7098 -1.4883  0.0208
   85SLPC  H18Z 8178   3.272   0.271   4.703 -0.3610  1.9055  1.0806
   86SLPC     N 8179   3.424   4.781   2.091  0.5478 -0.2703 -0.1327
   86SLPC   C13 8180   3.458   4.657   2.160 -0.7504 -0.1751  0.6333
   86SLPC  H13A 8181   3.475   4.575   2.091 -1.6080 -0.5992  0.9122
   86SLPC  H13B 8182   3.544   4.667   2.224  1.4965 -0.4036 -2.1444
   86SLPC  H13C 8183   3.377   4.624   2.223 -0.9245  0.3911  0.7075
   86SLPC   C14 8184   3.304   4.757   2.002 -0.4267 -0.2202  0.2247
   86SLPC  H14A 8185   3.324   4.668   1.945 -1.1574  0.0497 -0.4641
   86SLPC  H14B 8186   3.214   4.761   2.061 -1.3382  1.6583 -1.1773
   86SLPC  H14C 8187   3.291   4.838   1.932 -0.3543  0.7281  1.2703
   86SLPC   C15 8188   3.541   4.825   2.007 -0.4083  0.3583 -0.2341
   86SLPC  H15A 8189   3.582   4.739   1.956  2.3193  1.8549 -0.7551
   86SLPC  H15B 8190   3.510   4.906   1.943 -0.2161  1.1446  0.6432
   86SLPC  H15C 8191   3.622   4.855   2.072  0.8151 -0.1211 -1.4937
   86SLPC   C12 8192   3.382   4.898   2.180 -0.4129 -0.0721 -0.0806
   86SLPC  H12A 8193   3.343   4.981   2.123 -1.2449 -1.3859 -1.5100
   86SLPC  H12B 8194   3.471   4.946   2.217 -0.4632 -0.7402  0.9379
   86SLPC   C11 8195   3.292   4.865   2.298  0.4402 -0.0992  0.3375
   86SLPC  H11A 8196   3.270   4.966   2.338  0.5821 -0.4122  1.2334
   86SLPC  H11B 8197   3.350   4.813   2.378  0.0445 -0.0982  0.6283
   86SLPC     P 8198   3.119   4.668   2.327  0.0453  0.1456 -0.1434
   86SLPC   O13 8199   2.981   4.649   2.281  1.0105  0.5327  0.1294
   86SLPC   O14 8200   3.209   4.546   2.311  0.6409  0.0614 -0.0045
   86SLPC   O12 8201   3.175   4.795   2.251  1.0438  0.5960  0.5185
   86SLPC   O11 8202   3.125   4.715   2.478 -0.8246 -0.0249  0.4336
   86SLPC    C1 8203   3.018   4.705   2.573  0.4687 -0.2815  0.3779
   86SLPC    HA 8204   2.918   4.728   2.530  0.5199 -0.8124 -0.0349
   86SLPC    HB 8205   3.022   4.600   2.608 -0.8232 -1.9312 -3.7873
   86SLPC    C2 8206   3.033   4.784   2.706 -0.6838 -0.5860  0.1951
   86SLPC    HS 8207   3.042   4.889   2.669 -2.0588  0.2084  1.9576
   86SLPC   O21 8208   3.151   4.730   2.770 -0.1650 -0.5135 -0.0847
   86SLPC   C21 8209   3.253   4.806   2.785 -0.2188 -0.6674 -0.0748
   86SLPC   O22 8210   3.266   4.929   2.760  0.6529 -0.6260  0.7119
   86SLPC   C22 8211   3.376   4.726   2.829 -0.1646 -0.4609  0.2850
   86SLPC   H2R 8212   3.327   4.647   2.891  0.1681 -1.2497 -0.4381
   86SLPC   H2S 8213   3.427   4.690   2.737 -1.1750  0.4344 -0.6441
   86SLPC    C3 8214   2.914   4.787   2.804 -0.3003  0.3486  0.7446
   86SLPC    HX 8215   2.913   4.688   2.854 -1.4755 -0.4342 -0.7456
   86SLPC    HY 8216   2.819   4.809   2.751  0.8810  0.0446 -1.6255
   86SLPC   O31 8217   2.924   4.888   2.906  0.6141 -0.3059  0.0665
   86SLPC   C31 8218   2.921   5.018   2.876  0.3022  0.7980  0.7145
   86SLPC   O32 8219   2.895   5.069   2.770 -0.4309 -0.1558 -0.1254
   86SLPC   C32 8220   2.971   5.094   3.004  0.7509 -0.0880  0.1202
   86SLPC   H2X 8221   3.053   5.037   3.053  0.9147  1.1845  1.4090
   86SLPC   H2Y 8222   2.895   5.092   3.086  1.6083  1.0066  0.9751
   86SLPC   C23 8223   3.471   4.822   2.905  0.2911  0.2516 -0.5926
   86SLPC   H3R 8224   3.475   4.921   2.856  2.7117 -0.5162 -2.1148
   86SLPC   H3S 8225   3.570   4.774   2.888  0.3842  0.5878 -1.0192
   86SLPC   C24 8226   3.471   4.836   3.061 -0.0090  0.7705 -0.2626
   86SLPC   H4R 8227   3.548   4.911   3.089 -0.2197  1.0929 -0.5364
   86SLPC   H4S 8228   3.501   4.736   3.099 -0.4705  1.4717  2.1259
   86SLPC   C25 8229   3.340   4.873   3.129  0.4851  0.0071 -0.0425
   86SLPC   H5R 8230   3.270   4.790   3.103  1.6111 -1.4161  1.2944
   86SLPC   H5S 8231   3.294   4.967   3.091  0.3234 -0.9051 -2.2853
   86SLPC   C26 8232   3.346   4.867   3.284  0.2287 -0.3543  0.1681
   86SLPC   H6R 8233   3.396   4.770   3.307 -0.4415 -0.7046  0.1657
   86SLPC   H6S 8234   3.242   4.867   3.322  0.6332 -0.7831  1.3369
   86SLPC   C27 8235   3.418   4.981   3.351 -0.1211 -0.3018 -0.5315
   86SLPC   H7R 8236   3.387   5.074   3.299 -2.1052 -0.9047 -0.5107
   86SLPC   H7S 8237   3.529   4.972   3.345 -0.1066  0.3279 -1.3795
   86SLPC   C28 8238   3.363   5.019   3.491 -0.2480 -0.4141 -0.8236
   86SLPC   H8R 8239   3.256   5.047   3.507  0.1420  0.0906  1.1280
   86SLPC   H8S 8240   3.413   5.112   3.524  0.6170 -0.5996 -1.5735
   86SLPC   C29 8241   3.395   4.910   3.588 -0.0568 -0.5767 -0.0201
   86SLPC   H9R 8242   3.476   4.844   3.554  0.8857  2.3734 -4.2670
   86SLPC  C210 8243   3.347   4.887   3.708  0.6397  0.2365  0.7035
   86SLPC  H10R 8244   3.393   4.795   3.746 -1.3949 -1.5820 -0.9672
   86SLPC  C211 8245   3.249   4.979   3.780 -0.0034  0.2731 -0.9469
   86SLPC  H11R 8246   3.149   4.932   3.791 -0.3030  1.4305  2.1415
   86SLPC  H11S 8247   3.226   5.070   3.720  0.1086  1.8365  1.2815
   86SLPC  C212 8248   3.284   5.037   3.920 -0.2428  0.1222  0.1319
   86SLPC  H12R 8249   3.388   5.026   3.956 -0.4184 -0.3001  0.5156
   86SLPC  C213 8250   3.196   5.097   3.998 -0.0533  0.0991 -0.0534
   86SLPC  H13R 8251   3.225   5.141   4.094 -0.9182  1.8523 -0.5655
   86SLPC  C214 8252   3.054   5.127   3.955 -0.6764  0.5099  0.5376
   86SLPC  H14R 8253   2.980   5.085   4.027 -1.7587 -0.1310 -0.9055
   86SLPC  H14S 8254   3.024   5.079   3.859  2.3569 -1.6549  0.5016
   86SLPC  C215 8255   3.031   5.279   3.951 -0.2454  0.4950  0.1271
   86SLPC  H15R 8256   3.080   5.334   3.868  2.1174 -1.8547 -0.1674
   86SLPC  H15S 8257   3.073   5.331   4.040 -0.0561  1.4249 -0.5016
   86SLPC  C216 8258   2.880   5.321   3.942 -0.3969  0.6031  0.8125
   86SLPC  H16R 8259   2.867   5.431   3.954 -1.7788  0.3633  1.7531
   86SLPC  H16S 8260   2.825   5.268   4.022  0.5212 -0.3288  0.8499
   86SLPC  C217 8261   2.809   5.270   3.808 -0.4353 -0.2540 -0.0980
   86SLPC  H17R 8262   2.797   5.159   3.811  0.9655 -0.4033  1.3021
   86SLPC  H17S 8263   2.880   5.297   3.727 -2.5407  4.0083 -0.7552
   86SLPC  C218 8264   2.671   5.335   3.787 -0.2590 -0.1257 -0.0170
   86SLPC  H18R 8265   2.621   5.327   3.688  0.1949 -1.2638 -0.1680
   86SLPC  H18S 8266   2.687   5.444   3.805  3.6394 -0.1619 -2.0217
   86SLPC  H18T 8267   2.614   5.287   3.868  1.8576 -0.8942  1.0958
   86SLPC   C33 8268   3.015   5.237   2.975 -0.1002  0.3888  0.1180
   86SLPC   H3X 8269   2.999   5.303   3.064  1.5849  2.6874 -1.1645
   86SLPC   H3Y 8270   2.952   5.287   2.898  1.2369  1.5833 -0.2504
   86SLPC   C34 8271   3.167   5.234   2.945 -0.7281  0.0160 -0.6541
   86SLPC   H4X 8272   3.175   5.325   2.882  0.9591  0.0722 -0.3881
   86SLPC   H4Y 8273   3.203   5.152   2.879 -2.0762  0.7568 -2.3860
   86SLPC   C35 8274   3.263   5.260   3.067  0.0620  0.5167  0.2637
   86SLPC   H5X 8275   3.371   5.262   3.041  0.2865 -2.1695  0.7133
   86SLPC   H5Y 8276   3.251   5.171   3.133  0.4475 -0.5009 -1.0127
   86SLPC   C36 8277   3.233   5.400   3.132  0.0010  0.4435 -0.7828
   86SLPC   H6X 8278   3.138   5.377   3.186  0.2624  1.4794  0.1573
   86SLPC   H6Y 8279   3.224   5.484   3.060  1.5284  2.4153  1.1586
   86SLPC   C37 8280   3.349   5.418   3.234 -0.7798  0.5731 -0.2382
   86SLPC   H7X 8281   3.438   5.453   3.177 -0.9180 -1.7636 -2.0277
   86SLPC   H7Y 8282   3.376   5.314   3.262 -0.0528  1.0017  0.6984
   86SLPC   C38 8283   3.308   5.497   3.361  0.0665 -0.1059  0.3944
   86SLPC   H8X 8284   3.268   5.595   3.328  1.0069 -0.1645 -1.0387
   86SLPC   H8Y 8285   3.406   5.510   3.411  0.0266  0.6786  0.2767
   86SLPC   C39 8286   3.212   5.429   3.465  0.0544  0.4187  0.6128
   86SLPC   H9X 8287   3.232   5.320   3.456 -0.0819  0.5572 -2.1897
   86SLPC   H9Y 8288   3.108   5.456   3.437  0.8366  2.7746 -0.2426
   86SLPC  C310 8289   3.219   5.469   3.609 -0.8322 -0.4728 -0.0623
   86SLPC  H10X 8290   3.131   5.427   3.662 -1.4181  0.2893 -0.4036
   86SLPC  H10Y 8291   3.202   5.579   3.615  0.4101 -0.2749  0.0814
   86SLPC  C311 8292   3.361   5.443   3.663  0.0367 -0.4578  0.9012
   86SLPC  H11X 8293   3.420   5.513   3.601 -0.0911 -2.5170 -1.7370
   86SLPC  H11Y 8294   3.403   5.346   3.631  0.4729 -0.9457  2.7923
   86SLPC  C312 8295   3.382   5.477   3.810  0.5350  0.4713  0.1118
   86SLPC  H12X 8296   3.315   5.430   3.886  1.8525  1.5324  2.0192
   86SLPC  H12Y 8297   3.375   5.588   3.818 -0.1146  0.4162  0.3424
   86SLPC  C313 8298   3.506   5.426   3.863  0.2551 -0.1387  0.0062
   86SLPC  H13X 8299   3.596   5.471   3.816  0.5459  0.3176  0.9686
   86SLPC  H13Y 8300   3.509   5.315   3.863  1.5178 -0.1340  0.9246
   86SLPC  C314 8301   3.525   5.475   4.011  0.2826 -0.0923 -0.0017
   86SLPC  H14X 8302   3.442   5.436   4.074 -1.6905  1.9748 -1.1793
   86SLPC  H14Y 8303   3.510   5.585   4.010 -1.6193 -0.3163  0.0329
   86SLPC  C315 8304   3.668   5.454   4.064  0.2287 -0.0132  0.5995
   86SLPC  H15X 8305   3.735   5.485   3.981 -0.4492  0.3883  0.1841
   86SLPC  H15Y 8306   3.691   5.348   4.087 -0.1566 -0.3983 -0.7255
   86SLPC  C316 8307   3.701   5.532   4.188 -0.8029 -0.3124 -0.2735
   86SLPC  H16X 8308   3.623   5.519   4.266 -0.9090 -0.8503 -0.4651
   86SLPC  H16Y 8309   3.713   5.642   4.172 -2.8655 -0.0190 -0.1388
   86SLPC  C317 8310   3.835   5.488   4.252  0.5595  0.8700 -0.2970
   86SLPC  H17X 8311   3.922   5.533   4.199  2.7250 -0.7067  1.7481
   86SLPC  H17Y 8312   3.849   5.378   4.246  0.0914  0.7459  0.6924
   86SLPC  C318 8313   3.842   5.541   4.396 -0.0984 -0.0541 -0.6762
   86SLPC  H18X 8314   3.865   5.650   4.400 -1.4154  0.2064  0.9894
   86SLPC  H18Y 8315   3.922   5.487   4.450 -0.2442  0.4775  0.0755
   86SLPC  H18Z 8316   3.751   5.528   4.459  0.5815  0.0313  0.3364
   87SLPC     N 8317   2.444   2.799   2.123 -0.1959  0.3294  0.0022
   87SLPC   C13 8318   2.415   2.915   2.212 -0.2784 -0.3237  0.0132
   87SLPC  H13A 8319   2.494   2.988   2.215  0.6133 -1.2781  0.1402
   87SLPC  H13B 8320   2.339   2.982   2.173 -0.6363 -0.9416 -0.3683
   87SLPC  H13C 8321   2.377   2.897   2.311 -1.2100  0.8493 -0.0978
   87SLPC   C14 8322   2.325   2.719   2.085 -0.1714 -0.3591  0.0243
   87SLPC  H14A 8323   2.253   2.775   2.026 -0.8726  0.9199  1.9827
   87SLPC  H14B 8324   2.334   2.622   2.039 -0.7497 -1.7776  2.7543
   87SLPC  H14C 8325   2.265   2.698   2.172 -1.0196  2.8785  0.3521
   87SLPC   C15 8326   2.533   2.695   2.201 -0.0788 -0.2679  0.4334
   87SLPC  H15A 8327   2.620   2.744   2.243 -0.7466  1.7135 -0.3609
   87SLPC  H15B 8328   2.478   2.649   2.282 -1.0575 -2.5094 -1.3816
   87SLPC  H15C 8329   2.574   2.615   2.142  0.5711 -1.3326  2.2396
   87SLPC   C12 8330   2.523   2.833   1.996  0.4180  0.1010  0.8705
   87SLPC  H12A 8331   2.494   2.931   1.963  1.2464  0.0419 -0.0523
   87SLPC  H12B 8332   2.493   2.759   1.924 -1.5711  0.0137  1.7157
   87SLPC   C11 8333   2.679   2.835   2.006  0.1023  0.1077 -0.0924
   87SLPC  H11A 8334   2.737   2.862   1.915  0.6531 -2.5500 -0.6225
   87SLPC  H11B 8335   2.715   2.730   2.013 -0.4617 -0.1333 -0.7829
   87SLPC     P 8336   2.764   3.052   2.107  0.1328  0.1095  0.1029
   87SLPC   O13 8337   2.893   3.074   2.164 -0.3798  0.3652  0.1890
   87SLPC   O14 8338   2.743   3.107   1.972  0.0159 -0.0044  0.8377
   87SLPC   O12 8339   2.729   2.904   2.113 -0.0437  0.4622  1.3131
   87SLPC   O11 8340   2.640   3.119   2.194 -0.5563  0.3619  0.3467
   87SLPC    C1 8341   2.674   3.231   2.278  0.0798 -0.0590  0.2339
   87SLPC    HA 8342   2.750   3.300   2.234  2.5880 -1.3552  2.2276
   87SLPC    HB 8343   2.587   3.294   2.305 -1.1129 -1.4695 -0.2103
   87SLPC    C2 8344   2.736   3.182   2.411  0.2957 -0.2206  0.6638
   87SLPC    HS 8345   2.840   3.149   2.388 -0.3984 -2.1964  0.2386
   87SLPC   O21 8346   2.650   3.077   2.465 -0.3028 -0.4445 -0.2854
   87SLPC   C21 8347   2.710   2.972   2.516  0.5339  0.1179  0.7462
   87SLPC   O22 8348   2.831   2.945   2.511  0.7569 -0.3447 -0.4237
   87SLPC   C22 8349   2.615   2.895   2.601 -0.0268 -0.1435  0.7311
   87SLPC   H2R 8350   2.520   2.953   2.600  1.2663  2.0816  0.6304
   87SLPC   H2S 8351   2.582   2.806   2.544 -1.7484  0.9206 -0.0230
   87SLPC    C3 8352   2.746   3.297   2.522 -0.3400  0.6428 -0.3608
   87SLPC    HX 8353   2.642   3.336   2.535  0.4592  2.1969  1.8364
   87SLPC    HY 8354   2.805   3.376   2.470 -0.1472  1.4660  1.0460
   87SLPC   O31 8355   2.787   3.244   2.646 -0.1174  0.1304 -0.0046
   87SLPC   C31 8356   2.894   3.305   2.686  0.1891 -0.1282  0.3502
   87SLPC   O32 8357   2.955   3.391   2.630  0.0345  0.1540  0.0579
   87SLPC   C32 8358   2.916   3.273   2.837  0.2862  0.0536 -0.9641
   87SLPC   H2X 8359   2.953   3.169   2.850 -0.0434  0.1753  1.3431
   87SLPC   H2Y 8360   2.817   3.283   2.886 -0.6964  3.1098 -3.2974
   87SLPC   C23 8361   2.670   2.856   2.734  0.5545 -0.1115  0.1991
   87SLPC   H3R 8362   2.779   2.833   2.728  0.5457 -0.2487  0.5136
   87SLPC   H3S 8363   2.625   2.757   2.756  0.4174 -0.1642 -0.2972
   87SLPC   C24 8364   2.643   2.941   2.858  0.3761  0.1727 -0.7889
   87SLPC   H4R 8365   2.535   2.950   2.880  0.8046 -0.3376  1.9071
   87SLPC   H4S 8366   2.694   3.039   2.845  1.3352 -0.3476 -1.0375
   87SLPC   C25 8367   2.706   2.886   2.994 -0.4329 -0.4069  1.0832
   87SLPC   H5R 8368   2.815   2.904   2.992 -0.8356  2.6220 -0.1433
   87SLPC   H5S 8369   2.690   2.778   3.013  3.6343 -1.0003  1.8680
   87SLPC   C26 8370   2.642   2.940   3.126 -0.8792 -0.2578 -0.2438
   87SLPC   H6R 8371   2.540   2.895   3.124 -1.6840  1.3846  1.1778
   87SLPC   H6S 8372   2.630   3.049   3.108  0.7716 -0.3013 -1.8492
   87SLPC   C27 8373   2.723   2.900   3.246 -0.2391  0.1336  0.5557
   87SLPC   H7R 8374   2.827   2.922   3.215 -0.5431 -0.4365 -0.9576
   87SLPC   H7S 8375   2.731   2.790   3.259  0.2451  0.0980 -0.0129
   87SLPC   C28 8376   2.688   2.984   3.367  0.4911 -0.6539 -0.1604
   87SLPC   H8R 8377   2.676   3.090   3.335  0.8879 -0.3087  0.7957
   87SLPC   H8S 8378   2.765   2.995   3.447 -0.2911  2.2302  0.3162
   87SLPC   C29 8379   2.557   2.946   3.424 -0.6404  0.3646 -0.6142
   87SLPC   H9R 8380   2.503   2.869   3.367 -1.8568  0.3526  0.5065
   87SLPC  C210 8381   2.489   3.002   3.525 -0.2203  0.7762  0.3638
   87SLPC  H10R 8382   2.387   2.967   3.547  0.5720  0.3054  3.8964
   87SLPC  C211 8383   2.535   3.125   3.598 -0.1371 -0.0977 -0.1265
   87SLPC  H11R 8384   2.455   3.203   3.596  0.8247  0.9251  0.0293
   87SLPC  H11S 8385   2.616   3.170   3.538  1.2417 -1.1215  0.8952
   87SLPC  C212 8386   2.590   3.085   3.730 -0.7029 -0.0580 -0.3927
   87SLPC  H12R 8387   2.525   3.017   3.787 -2.2654  1.1789 -0.6314
   87SLPC  C213 8388   2.693   3.152   3.796  0.2655  0.5175 -0.4196
   87SLPC  H13R 8389   2.728   3.116   3.894  1.9890 -0.3908 -1.3120
   87SLPC  C214 8390   2.789   3.256   3.743 -0.5265  0.0272 -0.1789
   87SLPC  H14R 8391   2.819   3.322   3.827 -1.2385  1.4541 -1.0127
   87SLPC  H14S 8392   2.735   3.320   3.670 -0.8660  0.4721  0.4506
   87SLPC  C215 8393   2.917   3.203   3.676  0.2935 -0.9602 -0.5336
   87SLPC  H15R 8394   2.973   3.290   3.636  2.7266 -1.6294  1.1617
   87SLPC  H15S 8395   2.888   3.142   3.588 -1.3657 -2.9716  1.2981
   87SLPC  C216 8396   3.007   3.136   3.782 -0.2859  0.0212 -0.7721
   87SLPC  H16R 8397   2.955   3.045   3.818  0.8743 -0.6262 -0.7131
   87SLPC  H16S 8398   3.027   3.206   3.866  2.1099 -0.7639 -0.6321
   87SLPC  C217 8399   3.145   3.087   3.717  0.3174 -0.6407  0.2097
   87SLPC  H17R 8400   3.152   3.128   3.615  0.1929 -1.4745 -0.1395
   87SLPC  H17S 8401   3.135   2.977   3.706 -0.6362 -0.7475  1.7422
   87SLPC  C218 8402   3.261   3.117   3.808  0.2362  0.7439  0.1151
   87SLPC  H18R 8403   3.357   3.085   3.763 -0.3487  1.4941 -1.7949
   87SLPC  H18S 8404   3.244   3.059   3.901 -1.7137 -2.1002 -1.8869
   87SLPC  H18T 8405   3.266   3.226   3.833 -1.2026  0.8038  0.2327
   87SLPC   C33 8406   3.010   3.360   2.913 -0.1598 -0.6906  0.2038
   87SLPC   H3X 8407   3.004   3.338   3.021 -0.0890  1.7591  0.7609
   87SLPC   H3Y 8408   2.979   3.467   2.906 -2.4384 -1.2485  0.8677
   87SLPC   C34 8409   3.161   3.332   2.880 -0.0653  0.0616  0.1106
   87SLPC   H4X 8410   3.170   3.338   2.770  3.1019 -0.8292  0.2259
   87SLPC   H4Y 8411   3.195   3.227   2.896 -0.5814 -0.2132 -0.5476
   87SLPC   C35 8412   3.248   3.437   2.948  0.0419  0.6632 -0.3591
   87SLPC   H5X 8413   3.205   3.535   2.917  2.1658  1.4278 -1.1273
   87SLPC   H5Y 8414   3.343   3.415   2.895  0.0203  0.5212 -0.3376
   87SLPC   C36 8415   3.264   3.437   3.094 -1.0027  0.1023 -0.3391
   87SLPC   H6X 8416   3.313   3.343   3.126 -2.6995 -0.2509  1.4078
   87SLPC   H6Y 8417   3.167   3.445   3.147 -0.5649  0.1410  0.4719
   87SLPC   C37 8418   3.341   3.561   3.155  0.7044 -0.3727  0.2336
   87SLPC   H7X 8419   3.290   3.654   3.121  0.1940  0.5324  3.1567
   87SLPC   H7Y 8420   3.443   3.563   3.112  0.3402  0.2767 -0.6510
   87SLPC   C38 8421   3.351   3.560   3.310  0.1310 -0.1058 -0.2551
   87SLPC   H8X 8422   3.253   3.576   3.360 -0.7663 -1.8327 -1.3783
   87SLPC   H8Y 8423   3.409   3.653   3.330  0.8567 -0.5664 -0.2025
   87SLPC   C39 8424   3.426   3.447   3.385  0.2629 -0.3404  0.4990
   87SLPC   H9X 8425   3.531   3.439   3.348 -0.7286 -0.8252 -2.4512
   87SLPC   H9Y 8426   3.379   3.349   3.360 -1.7594  1.2893 -2.8173
   87SLPC  C310 8427   3.436   3.472   3.531  0.1967 -0.0844  0.6910
   87SLPC  H10X 8428   3.338   3.465   3.583  0.4540 -1.0357  1.0625
   87SLPC  H10Y 8429   3.465   3.578   3.545 -1.2759  0.1026  2.6670
   87SLPC  C311 8430   3.544   3.378   3.600  0.0325 -0.5035 -0.2370
   87SLPC  H11X 8431   3.647   3.411   3.573 -0.5096  1.5714  0.1058
   87SLPC  H11Y 8432   3.537   3.275   3.559  0.6146 -0.8827  0.5868
   87SLPC  C312 8433   3.534   3.380   3.755  0.2678 -0.5095  0.3246
   87SLPC  H12X 8434   3.607   3.300   3.779 -0.9610 -1.9983 -0.6816
   87SLPC  H12Y 8435   3.430   3.349   3.780 -1.3750  3.5651 -0.6234
   87SLPC  C313 8436   3.560   3.520   3.808 -0.4466 -0.0521 -0.5676
   87SLPC  H13X 8437   3.464   3.568   3.835  0.4443  1.6427 -0.2813
   87SLPC  H13Y 8438   3.602   3.575   3.722 -0.4700  2.8200  1.1344
   87SLPC  C314 8439   3.660   3.513   3.915 -0.0492 -0.0079 -0.1870
   87SLPC  H14X 8440   3.695   3.616   3.939  0.4705 -0.5612  1.6343
   87SLPC  H14Y 8441   3.750   3.454   3.886 -0.4486 -0.2832 -0.8851
   87SLPC  C315 8442   3.601   3.455   4.049  0.1909  1.1651  1.2217
   87SLPC  H15X 8443   3.563   3.354   4.021  1.4370  0.2054  2.7611
   87SLPC  H15Y 8444   3.514   3.521   4.070 -0.5376  1.0490 -1.1858
   87SLPC  C316 8445   3.694   3.445   4.174 -0.2275 -0.3380 -0.5601
   87SLPC  H16X 8446   3.759   3.356   4.157  0.9051  0.6244 -1.4907
   87SLPC  H16Y 8447   3.626   3.425   4.259  1.9965 -1.8489  0.9513
   87SLPC  C317 8448   3.790   3.567   4.201  0.2400 -0.1529 -0.7691
   87SLPC  H17X 8449   3.729   3.657   4.179  1.7654  0.5005 -2.5610
   87SLPC  H17Y 8450   3.873   3.564   4.127 -0.4889  1.2608 -1.6902
   87SLPC  C318 8451   3.829   3.597   4.346  0.2193  0.2493  0.6157
   87SLPC  H18X 8452   3.864   3.702   4.352 -0.0334  0.4862 -1.2536
   87SLPC  H18Y 8453   3.915   3.536   4.378  2.6075  1.5869 -2.6373
   87SLPC  H18Z 8454   3.743   3.568   4.410 -1.8975  0.2425 -2.0006
   88SLPC     N 8455   5.107   1.378   2.087  0.0423  0.0532 -0.2499
   88SLPC   C13 8456   5.165   1.269   2.169  0.0736  0.6081  0.2836
   88SLPC  H13A 8457   5.085   1.238   2.235  0.7837 -3.5748 -0.5118
   88SLPC  H13B 8458   5.219   1.190   2.117  0.2943  1.0884 -0.2219
   88SLPC  H13C 8459   5.241   1.301   2.239  1.6983 -4.0005  1.0156
   88SLPC   C14 8460   4.963   1.342   2.043 -0.9494  0.5437 -0.4361
   88SLPC  H14A 8461   4.964   1.286   1.951 -0.4558  0.9626 -0.6958
   88SLPC  H14B 8462   4.921   1.284   2.123 -2.7740  2.2155 -0.0908
   88SLPC  H14C 8463   4.902   1.430   2.027 -0.0808  0.8663 -2.3386
   88SLPC   C15 8464   5.192   1.415   1.958 -0.3797  0.9110 -0.2223
   88SLPC  H15A 8465   5.191   1.327   1.895 -0.0215 -0.7546  1.9867
   88SLPC  H15B 8466   5.149   1.492   1.896  1.8985  1.2813 -1.4730
   88SLPC  H15C 8467   5.290   1.438   1.997 -0.3518 -1.6371  1.4955
   88SLPC   C12 8468   5.108   1.510   2.171  0.2871  0.7836  0.2687
   88SLPC  H12A 8469   5.208   1.513   2.213  0.9613 -2.5903 -0.7788
   88SLPC  H12B 8470   5.035   1.496   2.249  1.2613  1.3539  1.3132
   88SLPC   C11 8471   5.077   1.645   2.103 -0.0759  0.0660  0.5793
   88SLPC  H11A 8472   5.141   1.654   2.013 -0.7340 -2.0223 -0.1401
   88SLPC  H11B 8473   5.107   1.731   2.166  1.0812 -0.3407  0.5980
   88SLPC     P 8474   4.820   1.659   2.196  0.2800  0.1134  0.1129
   88SLPC   O13 8475   4.785   1.800   2.209  0.5101  0.2338 -0.4338
   88SLPC   O14 8476   4.713   1.565   2.156 -0.1005 -0.1363  0.1646
   88SLPC   O12 8477   4.931   1.649   2.077  0.6271 -0.1767 -0.2415
   88SLPC   O11 8478   4.890   1.612   2.328  0.0524 -0.7659 -0.4096
   88SLPC    C1 8479   4.848   1.491   2.386  0.2315  0.5408 -0.1467
   88SLPC    HA 8480   4.812   1.417   2.311 -0.6107  2.1855 -1.4527
   88SLPC    HB 8481   4.930   1.445   2.444 -0.2232  2.3264  2.0408
   88SLPC    C2 8482   4.734   1.518   2.490  0.4342 -0.5233  0.1246
   88SLPC    HS 8483   4.650   1.571   2.440  0.9755 -1.2627 -1.6247
   88SLPC   O21 8484   4.796   1.602   2.591 -0.0078 -0.3188 -0.2667
   88SLPC   C21 8485   4.754   1.729   2.596 -0.1787  0.3391  0.1632
   88SLPC   O22 8486   4.654   1.778   2.547 -0.5877  0.5853  0.3552
   88SLPC   C22 8487   4.843   1.809   2.693  0.0273  0.1383 -0.2054
   88SLPC   H2R 8488   4.908   1.728   2.733 -0.5713  1.0102  2.7985
   88SLPC   H2S 8489   4.904   1.878   2.630  0.5542  1.9011  2.0790
   88SLPC    C3 8490   4.693   1.389   2.553  0.4791  0.1003 -1.1248
   88SLPC    HX 8491   4.780   1.358   2.615 -0.0686  0.6508 -0.0534
   88SLPC    HY 8492   4.678   1.314   2.472  1.4101 -1.2079 -0.1303
   88SLPC   O31 8493   4.571   1.405   2.641  0.0610  0.4880  0.4454
   88SLPC   C31 8494   4.479   1.311   2.644  0.6352 -0.2183 -0.3846
   88SLPC   O32 8495   4.477   1.211   2.567 -0.1056 -0.2574 -0.1332
   88SLPC   C32 8496   4.368   1.352   2.740 -0.3137 -0.2450 -0.1877
   88SLPC   H2X 8497   4.312   1.428   2.681  0.9278  0.0721 -0.9967
   88SLPC   H2Y 8498   4.418   1.408   2.821 -0.2804  0.7755 -0.8928
   88SLPC   C23 8499   4.770   1.869   2.816  0.2154 -0.0705  0.3854
   88SLPC   H3R 8500   4.686   1.932   2.779  0.9213  2.1988  2.3465
   88SLPC   H3S 8501   4.823   1.948   2.875 -1.0501  0.4499  0.8597
   88SLPC   C24 8502   4.719   1.769   2.920 -0.1589 -0.0458  0.3226
   88SLPC   H4R 8503   4.809   1.716   2.959 -0.0260 -1.2335 -1.4732
   88SLPC   H4S 8504   4.657   1.695   2.865 -0.4290  0.5934 -0.2552
   88SLPC   C25 8505   4.619   1.824   3.036 -0.0386 -0.0408  0.2340
   88SLPC   H5R 8506   4.565   1.742   3.089  1.6172 -0.4131  1.4290
   88SLPC   H5S 8507   4.540   1.882   2.984 -0.0565 -1.1134 -0.9810
   88SLPC   C26 8508   4.695   1.898   3.143  0.0036  0.3470  0.3496
   88SLPC   H6R 8509   4.724   1.996   3.100  0.4189  0.9775  2.0074
   88SLPC   H6S 8510   4.783   1.842   3.180  1.3765  1.5417 -0.9481
   88SLPC   C27 8511   4.599   1.920   3.262 -0.5882 -0.3092  0.3807
   88SLPC   H7R 8512   4.565   1.819   3.294 -1.9727  0.2026  0.5954
   88SLPC   H7S 8513   4.519   1.990   3.229 -0.6882 -0.6135 -0.0329
   88SLPC   C28 8514   4.672   1.985   3.387  0.1964  0.0623  0.3828
   88SLPC   H8R 8515   4.724   2.080   3.361  1.9322 -1.1224 -0.6847
   88SLPC   H8S 8516   4.751   1.908   3.401 -0.2971 -0.7813 -1.2065
   88SLPC   C29 8517   4.580   1.998   3.498  0.2204  0.1949  0.0346
   88SLPC   H9R 8518   4.564   1.903   3.552  0.6542 -0.0145 -0.2038
   88SLPC  C210 8519   4.524   2.107   3.542 -0.7088  0.2289 -0.5903
   88SLPC  H10R 8520   4.471   2.099   3.639  0.7328 -1.5014  0.1079
   88SLPC  C211 8521   4.536   2.244   3.480  0.0519 -0.3295  0.0782
   88SLPC  H11R 8522   4.565   2.235   3.373  3.8368  0.3653  0.9212
   88SLPC  H11S 8523   4.627   2.293   3.520  1.3814 -1.7784 -1.0441
   88SLPC  C212 8524   4.413   2.335   3.499  0.3610  0.0235 -0.7168
   88SLPC  H12R 8525   4.354   2.320   3.590  1.2266 -0.8165 -0.2717
   88SLPC  C213 8526   4.363   2.420   3.407 -0.5770 -0.2321 -0.3137
   88SLPC  H13R 8527   4.272   2.473   3.439  0.3895  1.5302 -0.3821
   88SLPC  C214 8528   4.424   2.463   3.279  0.4339  0.0779  0.1025
   88SLPC  H14R 8529   4.517   2.404   3.264 -0.0271 -0.6041 -0.1426
   88SLPC  H14S 8530   4.448   2.571   3.286 -0.3161  0.4194 -1.8123
   88SLPC  C215 8531   4.329   2.426   3.161 -0.0194 -0.0113  0.3697
   88SLPC  H15R 8532   4.241   2.494   3.166  1.9376  2.6263  1.2473
   88SLPC  H15S 8533   4.314   2.316   3.168  0.6065 -0.1634 -0.5306
   88SLPC  C216 8534   4.397   2.449   3.025  0.4110  0.0997  0.8200
   88SLPC  H16R 8535   4.423   2.556   3.023  0.3153  0.1741 -2.2006
   88SLPC  H16S 8536   4.323   2.448   2.941  1.3030 -1.9999 -0.0252
   88SLPC  C217 8537   4.500   2.355   2.980 -0.8551  0.2504 -0.2333
   88SLPC  H17R 8538   4.572   2.320   3.057  0.8349  0.9747 -1.4180
   88SLPC  H17S 8539   4.551   2.408   2.897 -1.7788  1.9260  0.2134
   88SLPC  C218 8540   4.441   2.239   2.907  0.8540  0.3488 -0.4232
   88SLPC  H18R 8541   4.513   2.171   2.857  0.4060  0.0147 -0.6267
   88SLPC  H18S 8542   4.379   2.275   2.822  0.8847  2.1176  0.2725
   88SLPC  H18T 8543   4.362   2.183   2.962  1.5411  0.2863  0.5217
   88SLPC   C33 8544   4.258   1.247   2.792  0.3907 -0.7481 -0.4086
   88SLPC   H3X 8545   4.226   1.175   2.713 -3.7545  0.8116 -0.3970
   88SLPC   H3Y 8546   4.165   1.300   2.821  0.6178  0.3131 -1.5352
   88SLPC   C34 8547   4.295   1.173   2.922 -0.4433  0.6052  0.0352
   88SLPC   H4X 8548   4.400   1.136   2.929 -0.5057  0.7078  2.5834
   88SLPC   H4Y 8549   4.225   1.087   2.930  0.9870 -0.5041  1.5789
   88SLPC   C35 8550   4.275   1.260   3.053  0.5490 -0.5517  0.0880
   88SLPC   H5X 8551   4.165   1.277   3.056  0.8646  2.0840  3.8916
   88SLPC   H5Y 8552   4.332   1.355   3.042  0.7656 -0.8029 -1.1027
   88SLPC   C36 8553   4.328   1.186   3.173  0.0395  0.0770 -0.0642
   88SLPC   H6X 8554   4.436   1.166   3.156  0.9801  4.3012 -0.2873
   88SLPC   H6Y 8555   4.274   1.090   3.180 -0.3962  0.3779  0.9398
   88SLPC   C37 8556   4.305   1.266   3.300  0.3254 -0.1663 -0.2096
   88SLPC   H7X 8557   4.200   1.300   3.312  0.7800  1.7542 -1.2713
   88SLPC   H7Y 8558   4.374   1.353   3.308 -1.1176  0.8881  1.6368
   88SLPC   C38 8559   4.329   1.181   3.433  0.3961 -0.1480 -0.0262
   88SLPC   H8X 8560   4.431   1.137   3.444 -0.8010 -2.9177  1.2139
   88SLPC   H8Y 8561   4.251   1.102   3.443 -1.3009  1.0611 -2.6344
   88SLPC   C39 8562   4.295   1.274   3.551 -0.1039  0.5017  0.2865
   88SLPC   H9X 8563   4.188   1.295   3.535 -0.0655 -0.5137 -1.4738
   88SLPC   H9Y 8564   4.349   1.371   3.547 -1.9132  1.5774  1.0351
   88SLPC  C310 8565   4.309   1.205   3.689 -0.4796  0.5081  0.2519
   88SLPC  H10X 8566   4.417   1.179   3.692 -0.8303 -1.1608 -0.2826
   88SLPC  H10Y 8567   4.247   1.113   3.695 -2.0564  1.6090  1.6284
   88SLPC  C311 8568   4.281   1.285   3.816 -0.1338  0.3896  0.1882
   88SLPC  H11X 8569   4.172   1.306   3.816 -0.2121  0.2876  2.5833
   88SLPC  H11Y 8570   4.344   1.377   3.818  1.0495 -0.4150  1.4711
   88SLPC  C312 8571   4.309   1.211   3.947  0.2791 -0.4150 -0.6221
   88SLPC  H12X 8572   4.412   1.175   3.927  0.5636  0.8000 -1.5083
   88SLPC  H12Y 8573   4.244   1.122   3.963 -0.0242  0.0253  0.7514
   88SLPC  C313 8574   4.303   1.312   4.064 -0.5056  0.6660  0.2791
   88SLPC  H13X 8575   4.201   1.352   4.080 -1.8086 -1.0764 -2.8848
   88SLPC  H13Y 8576   4.370   1.396   4.033  0.3934 -1.0674 -2.8442
   88SLPC  C314 8577   4.361   1.268   4.201  0.3620  1.2251  0.1065
   88SLPC  H14X 8578   4.466   1.235   4.184  0.9247  2.8191  0.3097
   88SLPC  H14Y 8579   4.289   1.188   4.227  1.9415 -0.3889 -0.2407
   88SLPC  C315 8580   4.360   1.380   4.304  0.0205  0.5491  0.6995
   88SLPC  H15X 8581   4.260   1.426   4.289 -0.4309 -0.5921  0.1121
   88SLPC  H15Y 8582   4.427   1.464   4.274 -1.6775  2.0487  0.9015
   88SLPC  C316 8583   4.364   1.334   4.454  0.3926 -0.2818 -0.1236
   88SLPC  H16X 8584   4.465   1.334   4.499  1.5650 -1.7319 -2.5487
   88SLPC  H16Y 8585   4.333   1.227   4.456  2.4510 -0.9030  0.2653
   88SLPC  C317 8586   4.263   1.420   4.541 -0.2208  0.0832 -0.3347
   88SLPC  H17X 8587   4.160   1.395   4.508 -0.7891  0.1471  1.2842
   88SLPC  H17Y 8588   4.290   1.527   4.526  0.7858 -0.1572 -0.3287
   88SLPC  C318 8589   4.270   1.404   4.692  0.7627 -0.3925 -0.2265
   88SLPC  H18X 8590   4.230   1.305   4.725 -0.8059  0.1346 -0.4330
   88SLPC  H18Y 8591   4.199   1.479   4.734 -1.1712 -1.7583 -0.8711
   88SLPC  H18Z 8592   4.374   1.419   4.729 -0.2106 -0.7939  3.0209
   89SAPE     N 8593   1.992   3.712   6.730 -0.1365 -0.3034  0.6643
   89SAPE   HN1 8594   2.057   3.786   6.766 -0.9143 -0.2322  2.0005
   89SAPE   HN2 8595   1.964   3.732   6.632 -0.6204  0.7073  0.9823
   89SAPE   HN3 8596   1.905   3.703   6.787 -0.7700 -1.5056 -0.4584
   89SAPE   C12 8597   2.057   3.580   6.732  0.2186 -0.8301 -0.1334
   89SAPE  H12A 8598   1.981   3.510   6.770  1.0780 -2.2515 -0.9533
   89SAPE  H12B 8599   2.131   3.588   6.815 -0.4447 -0.9986  0.4793
   89SAPE   C11 8600   2.120   3.538   6.597 -0.8680  0.1155  0.5527
   89SAPE  H11A 8601   2.047   3.515   6.517  0.4041 -2.5504  0.0365
   89SAPE  H11B 8602   2.174   3.441   6.605  1.4913  1.0481 -2.4541
   89SAPE     P 8603   2.191   3.730   6.437 -0.4007 -0.1639  0.1935
   89SAPE   O13 8604   2.065   3.805   6.463  0.2644 -0.4061 -0.1276
   89SAPE   O14 8605   2.312   3.816   6.421 -0.9818 -0.6624 -0.0839
   89SAPE   O12 8606   2.218   3.627   6.552 -0.7496  0.1815  0.2032
   89SAPE   O11 8607   2.158   3.639   6.307 -0.6665 -0.1468  0.0269
   89SAPE    C1 8608   2.224   3.514   6.285  0.2864  0.5821 -0.0602
   89SAPE    HA 8609   2.333   3.532   6.298  0.5227 -1.1021  0.4937
   89SAPE    HB 8610   2.193   3.438   6.360  1.4805 -0.4216 -0.5501
   89SAPE    C2 8611   2.190   3.443   6.152  0.0842  0.0549 -0.1422
   89SAPE    HS 8612   2.283   3.404   6.105 -0.4055 -1.3181 -0.0341
   89SAPE   O21 8613   2.112   3.532   6.069 -0.1156  0.2065  0.8966
   89SAPE   C21 8614   2.190   3.625   6.012  0.2095  0.1276  0.7699
   89SAPE   O22 8615   2.313   3.623   6.002  0.2760 -0.4800  0.0499
   89SAPE   C22 8616   2.092   3.723   5.951  0.5411  0.3132 -0.1519
   89SAPE   H2R 8617   1.993   3.693   5.993 -0.4765  0.3306 -2.4262
   89SAPE   H2S 8618   2.108   3.822   5.998 -1.0172  0.5966 -0.1771
   89SAPE    C3 8619   2.107   3.316   6.184  0.4471  0.6002 -0.4510
   89SAPE    HX 8620   2.044   3.333   6.273  1.7863  1.0195  0.4438
   89SAPE    HY 8621   2.183   3.242   6.218 -0.5713 -0.2182  0.0935
   89SAPE   O31 8622   2.053   3.254   6.070  0.0174  0.0845 -0.0377
   89SAPE   C31 8623   1.923   3.275   6.056  0.6740 -0.1703 -0.4809
   89SAPE   O32 8624   1.849   3.340   6.124 -0.3102  0.1129 -0.6385
   89SAPE   C32 8625   1.887   3.209   5.924  0.2425  0.5496 -0.0027
   89SAPE   H2X 8626   1.777   3.204   5.916  0.2592 -1.6182  0.4594
   89SAPE   H2Y 8627   1.921   3.104   5.938 -0.5133  0.1340 -1.1979
   89SAPE   C23 8628   2.103   3.721   5.798  0.1349  0.2937  0.1959
   89SAPE   H3R 8629   2.062   3.623   5.767  4.0285 -2.1098  1.8112
   89SAPE   H3S 8630   2.208   3.715   5.761 -0.7279  0.9355 -2.6466
   89SAPE   C24 8631   2.030   3.837   5.730  0.3574  0.2272 -0.0637
   89SAPE   H4R 8632   1.925   3.847   5.766 -1.1061  0.1418 -3.8523
   89SAPE   H4S 8633   2.032   3.816   5.621  0.8929 -0.0103 -0.0130
   89SAPE   C25 8634   2.096   3.963   5.762 -1.1464  0.7420  0.1787
   89SAPE   H5R 8635   2.049   4.017   5.846 -0.4111 -1.0725  1.8510
   89SAPE   C26 8636   2.203   4.024   5.711  0.2005  0.4336  0.2766
   89SAPE   H6R 8637   2.245   4.120   5.743  2.8075 -0.4432 -0.2187
   89SAPE   C27 8638   2.280   3.957   5.599 -0.3562 -0.2580  0.3714
   89SAPE   H7R 8639   2.211   3.911   5.524  0.5110  2.0162 -1.9687
   89SAPE   H7S 8640   2.328   3.868   5.644  0.1417 -0.1627  0.0303
   89SAPE   C28 8641   2.380   4.039   5.521 -0.7334  0.3074  0.0595
   89SAPE   H8R 8642   2.454   4.096   5.580 -0.0791  1.9032 -2.1762
   89SAPE   C29 8643   2.392   4.052   5.389 -0.2297  0.9153  0.5468
   89SAPE   H9R 8644   2.467   4.120   5.346 -0.5342  1.1534  0.3780
   89SAPE  C210 8645   2.310   3.984   5.278  0.4929 -0.1593 -0.6093
   89SAPE  H10R 8646   2.209   3.964   5.318  0.4446 -0.7308 -1.0164
   89SAPE  H10S 8647   2.366   3.889   5.264  1.3660  0.2794 -0.1901
   89SAPE  C211 8648   2.292   4.072   5.154 -0.2519 -0.3916  0.8020
   89SAPE  H11R 8649   2.303   4.182   5.157  1.3606 -0.4443 -1.1225
   89SAPE  C212 8650   2.264   4.021   5.032 -0.6093 -0.0099 -0.0447
   89SAPE  H12R 8651   2.262   4.087   4.944 -2.0146 -0.0437 -0.0576
   89SAPE  C213 8652   2.265   3.872   4.998 -0.1860 -0.3559 -0.5982
   89SAPE  H13R 8653   2.244   3.809   5.087  1.0345  0.1953  0.1043
   89SAPE  H13S 8654   2.367   3.840   4.969  0.2000 -1.8924  2.1299
   89SAPE  C214 8655   2.171   3.826   4.891 -0.5319 -0.2579  0.0614
   89SAPE  H14R 8656   2.070   3.860   4.922  0.8988  3.1190  1.4811
   89SAPE  C215 8657   2.200   3.747   4.785 -0.1601  0.9242  0.8990
   89SAPE  H15R 8658   2.112   3.699   4.739 -0.7570  2.3337  0.5308
   89SAPE  C216 8659   2.336   3.700   4.731  0.3297  0.2321  0.0504
   89SAPE  H16R 8660   2.333   3.596   4.692  0.5464  0.8030 -1.5913
   89SAPE  H16S 8661   2.399   3.695   4.822 -0.4987  0.0292  0.6224
   89SAPE  C217 8662   2.378   3.795   4.611  0.0004  0.4699 -0.4431
   89SAPE  H17R 8663   2.398   3.903   4.629 -1.0661  0.8533 -1.4017
   89SAPE  H17S 8664   2.287   3.796   4.548 -1.0557  1.2500  1.0459
   89SAPE  C218 8665   2.493   3.738   4.530 -0.1597 -0.7444 -0.4652
   89SAPE  H18R 8666   2.460   3.636   4.499 -1.7714  0.0180 -1.3984
   89SAPE  H18S 8667   2.583   3.735   4.596  0.7880  1.3713 -1.5789
   89SAPE  C219 8668   2.527   3.817   4.407 -0.3458 -0.9343  0.1801
   89SAPE  H19R 8669   2.429   3.817   4.355 -0.0336 -0.9026 -0.4146
   89SAPE  H19S 8670   2.593   3.755   4.343  0.4388  0.0002  0.0599
   89SAPE  C220 8671   2.578   3.962   4.431 -0.0723  0.1952  0.0240
   89SAPE  H20R 8672   2.684   3.959   4.464  0.3525  1.3169 -1.1397
   89SAPE  H20S 8673   2.509   4.001   4.509  0.3525  0.7292  0.1341
   89SAPE  H20T 8674   2.565   4.025   4.340  0.2357 -1.5991 -1.3252
   89SAPE   C33 8675   1.950   3.276   5.800  0.2064  0.4069 -0.1397
   89SAPE   H3X 8676   2.056   3.247   5.783  0.4653  0.6582  0.9734
   89SAPE   H3Y 8677   1.950   3.387   5.808 -1.8306  0.5133 -0.9710
   89SAPE   C34 8678   1.865   3.242   5.672  0.0645  0.1631 -0.3255
   89SAPE   H4X 8679   1.790   3.324   5.663  0.6207  0.5653 -1.5058
   89SAPE   H4Y 8680   1.807   3.148   5.683  0.5293 -0.1225 -0.3295
   89SAPE   C35 8681   1.948   3.246   5.544  0.1372 -0.5167  0.2193
   89SAPE   H5X 8682   2.024   3.165   5.545  0.5049 -0.1882 -0.3817
   89SAPE   H5Y 8683   1.992   3.348   5.541 -0.8071 -0.1135 -2.4211
   89SAPE   C36 8684   1.865   3.216   5.421  0.6706  0.1072 -0.1192
   89SAPE   H6X 8685   1.778   3.285   5.417  0.5902  0.0247  0.1754
   89SAPE   H6Y 8686   1.823   3.114   5.415 -3.0747  1.4725  0.0107
   89SAPE   C37 8687   1.950   3.228   5.295  0.4278 -0.5745  0.0821
   89SAPE   H7X 8688   2.010   3.136   5.276 -0.4042 -0.8851 -1.1805
   89SAPE   H7Y 8689   2.009   3.320   5.313 -1.5317  1.0536 -1.3352
   89SAPE   C38 8690   1.870   3.237   5.160  0.8791  0.2581 -0.3618
   89SAPE   H8X 8691   1.813   3.331   5.178  0.0147 -0.7283  2.7669
   89SAPE   H8Y 8692   1.804   3.149   5.176 -1.3411  1.8323 -0.3795
   89SAPE   C39 8693   1.954   3.225   5.030  0.2271  0.5656 -0.1392
   89SAPE   H9X 8694   2.039   3.157   5.049  0.2466  0.8825  0.9771
   89SAPE   H9Y 8695   1.998   3.322   4.996  0.9479  0.5113  0.6163
   89SAPE  C310 8696   1.870   3.176   4.917 -0.1596 -0.1420 -0.3823
   89SAPE  H10X 8697   1.785   3.248   4.927 -1.2321 -1.5200  0.8265
   89SAPE  H10Y 8698   1.832   3.073   4.931 -0.7678  0.2622  1.2195
   89SAPE  C311 8699   1.938   3.201   4.783  0.0999 -0.2061  0.2116
   89SAPE  H11X 8700   1.890   3.153   4.695 -0.2357 -2.3553  1.5041
   89SAPE  H11Y 8701   2.038   3.157   4.798 -0.4131 -1.1545  0.9574
   89SAPE  C312 8702   1.948   3.354   4.743 -0.4628  0.2931  0.3442
   89SAPE  H12X 8703   2.009   3.412   4.815  0.1456  0.7409 -0.5082
   89SAPE  H12Y 8704   1.846   3.397   4.754  0.1583  1.6229  1.0534
   89SAPE  C313 8705   2.019   3.387   4.606  0.1311  0.2304 -0.0401
   89SAPE  H13X 8706   2.112   3.328   4.615 -1.0593 -1.5612  0.9501
   89SAPE  H13Y 8707   2.043   3.496   4.605  0.1012  0.2409 -1.2022
   89SAPE  C314 8708   1.943   3.336   4.484 -0.0729 -0.0355 -0.2410
   89SAPE  H14X 8709   1.838   3.353   4.516  0.4354  0.5600  1.2175
   89SAPE  H14Y 8710   1.947   3.226   4.467  0.3855  0.2056 -1.9068
   89SAPE  C315 8711   1.979   3.399   4.346 -0.3751  0.5364 -0.0647
   89SAPE  H15X 8712   2.082   3.369   4.317 -0.2506  0.6558  0.2504
   89SAPE  H15Y 8713   1.972   3.509   4.356  0.8952  0.4207  3.7933
   89SAPE  C316 8714   1.899   3.347   4.229  0.1365  0.5023  0.1003
   89SAPE  H16X 8715   1.796   3.389   4.227 -0.4420 -0.8912 -0.3716
   89SAPE  H16Y 8716   1.893   3.237   4.217  0.0830  0.6493 -1.3671
   89SAPE  C317 8717   1.973   3.383   4.098 -0.2410  0.4392  0.0548
   89SAPE  H17X 8718   1.994   3.492   4.094 -1.0059  0.5649 -0.9852
   89SAPE  H17Y 8719   1.892   3.368   4.023  0.9314 -2.2654 -0.7574
   89SAPE  C318 8720   2.083   3.283   4.061 -0.5434 -0.6795 -0.5801
   89SAPE  H18X 8721   2.179   3.314   4.109 -0.9732  0.4361 -0.4257
   89SAPE  H18Y 8722   2.100   3.279   3.951 -0.6719  1.1002 -0.6981
   89SAPE  H18Z 8723   2.046   3.185   4.100 -0.9582  0.0648  0.9899
   90SAPE     N 8724   4.740   2.859   6.515  0.3381 -0.3004  0.5398
   90SAPE   HN1 8725   4.802   2.942   6.523  0.2525 -0.1785 -0.0329
   90SAPE   HN2 8726   4.793   2.782   6.561 -0.7014 -2.2925 -1.4177
   90SAPE   HN3 8727   4.731   2.814   6.422 -2.1356 -0.1815  0.6578
   90SAPE   C12 8728   4.602   2.873   6.575  0.1671 -0.2269 -0.3806
   90SAPE  H12A 8729   4.542   2.945   6.515 -2.2428 -2.3546 -0.7327
   90SAPE  H12B 8730   4.617   2.897   6.682  0.9410 -3.0106  0.2075
   90SAPE   C11 8731   4.540   2.738   6.580  0.6166  0.3164  0.1726
   90SAPE  H11A 8732   4.525   2.710   6.473  1.6406 -1.5570  0.4800
   90SAPE  H11B 8733   4.437   2.745   6.619  0.8464  2.1440  0.5676
   90SAPE     P 8734   4.599   2.494   6.658  0.2219  0.3750  0.0459
   90SAPE   O13 8735   4.690   2.428   6.752 -0.5064  0.0573 -0.1467
   90SAPE   O14 8736   4.453   2.482   6.687 -0.2568 -0.2832 -0.3203
   90SAPE   O12 8737   4.629   2.646   6.643  0.2774 -0.0516  0.1047
   90SAPE   O11 8738   4.623   2.438   6.513 -0.0333  0.3051 -0.2821
   90SAPE    C1 8739   4.550   2.335   6.451 -0.4795 -0.7443 -0.0881
   90SAPE    HA 8740   4.595   2.248   6.503  1.0562  0.0212 -0.0661
   90SAPE    HB 8741   4.444   2.324   6.479 -0.7591  0.4604 -0.5785
   90SAPE    C2 8742   4.562   2.333   6.300 -0.1849 -0.5734 -0.1597
   90SAPE    HS 8743   4.539   2.227   6.273 -0.9311 -0.1280 -1.3880
   90SAPE   O21 8744   4.694   2.376   6.252 -0.1723 -0.5583 -0.8124
   90SAPE   C21 8745   4.794   2.297   6.287  0.0554  0.2587 -0.3622
   90SAPE   O22 8746   4.785   2.191   6.344  0.2122 -0.4666 -0.3635
   90SAPE   C22 8747   4.927   2.362   6.255  0.0003  0.3798 -0.3458
   90SAPE   H2R 8748   4.912   2.440   6.179  2.2533  1.5860  0.3496
   90SAPE   H2S 8749   4.967   2.417   6.343  1.1448  1.2459 -1.3707
   90SAPE    C3 8750   4.447   2.416   6.220 -0.2274  0.0381 -0.7871
   90SAPE    HX 8751   4.429   2.516   6.266  0.4818 -0.7513  1.3092
   90SAPE    HY 8752   4.352   2.362   6.236  0.7024 -1.4563 -0.0523
   90SAPE   O31 8753   4.471   2.423   6.075 -0.2061 -0.6528 -0.9957
   90SAPE   C31 8754   4.536   2.535   6.037 -0.5573 -0.1237  0.4024
   90SAPE   O32 8755   4.548   2.639   6.101  0.2572 -0.2382 -0.0353
   90SAPE   C32 8756   4.609   2.500   5.910  0.1528 -0.4616  0.3290
   90SAPE   H2X 8757   4.544   2.426   5.857 -0.4004 -0.6620  1.2557
   90SAPE   H2Y 8758   4.706   2.456   5.939  1.2119  0.3852 -1.7532
   90SAPE   C23 8759   5.019   2.242   6.210  0.4697 -0.0256  0.5850
   90SAPE   H3R 8760   5.030   2.183   6.304 -0.6001 -0.6831  0.3113
   90SAPE   H3S 8761   5.120   2.284   6.194  0.5915  0.0676  1.5209
   90SAPE   C24 8762   4.977   2.167   6.083  0.0407  0.8124  0.5306
   90SAPE   H4R 8763   4.974   2.244   6.003  0.2438 -0.5153 -0.7926
   90SAPE   H4S 8764   4.877   2.121   6.096 -0.0761  0.6292 -0.8402
   90SAPE   C25 8765   5.084   2.068   6.059  0.3621 -0.0441  0.3660
   90SAPE   H5R 8766   5.120   2.016   6.149  2.5576  0.7007 -0.0160
   90SAPE   C26 8767   5.164   2.062   5.948 -0.1072 -0.0850 -0.0319
   90SAPE   H6R 8768   5.250   1.994   5.945  0.3120  0.4281  0.1487
   90SAPE   C27 8769   5.129   2.133   5.814 -0.5119 -0.0623  0.7665
   90SAPE   H7R 8770   5.210   2.209   5.807  0.8706 -1.5317  0.0629
   90SAPE   H7S 8771   5.031   2.184   5.821 -1.0083 -0.7836 -0.5290
   90SAPE   C28 8772   5.141   2.045   5.689 -0.4969  0.2585  0.4832
   90SAPE   H8R 8773   5.097   1.946   5.705 -1.7406  0.9265  1.3433
   90SAPE   C29 8774   5.209   2.071   5.569  0.1907  0.6147  0.1690
   90SAPE   H9R 8775   5.205   1.993   5.491 -0.1607 -0.2127  0.9984
   90SAPE  C210 8776   5.280   2.199   5.525 -0.1912 -0.5602 -0.7436
   90SAPE  H10R 8777   5.383   2.193   5.566 -1.7217 -0.2039  3.7346
   90SAPE  H10S 8778   5.243   2.290   5.577 -0.5540 -1.0020 -0.2115
   90SAPE  C211 8779   5.270   2.220   5.377  0.6366 -0.3955 -1.0589
   90SAPE  H11R 8780   5.370   2.237   5.333  1.0262 -1.8524 -0.7679
   90SAPE  C212 8781   5.157   2.252   5.307  0.1839 -0.3832 -0.0332
   90SAPE  H12R 8782   5.161   2.272   5.199 -0.0518  1.9127  0.3321
   90SAPE  C213 8783   5.019   2.247   5.362  0.2744 -0.1894 -0.0253
   90SAPE  H13R 8784   5.018   2.254   5.472 -0.1295  2.2738 -0.1222
   90SAPE  H13S 8785   4.977   2.146   5.344  0.1858 -0.5912  2.2371
   90SAPE  C214 8786   4.943   2.355   5.304  0.8665  0.0265 -0.2682
   90SAPE  H14R 8787   4.892   2.418   5.378 -0.0806  0.9096 -1.6140
   90SAPE  C215 8788   4.910   2.364   5.172 -0.7344 -0.5647  0.1635
   90SAPE  H15R 8789   4.852   2.456   5.156  0.2665 -0.0056 -0.3285
   90SAPE  C216 8790   4.945   2.269   5.054  0.3497  0.4379  0.8213
   90SAPE  H16R 8791   4.942   2.165   5.092  1.6854  1.0837  2.8093
   90SAPE  H16S 8792   5.044   2.298   5.013 -0.2386  1.7677  0.2662
   90SAPE  C217 8793   4.848   2.295   4.931 -0.2890  0.8009 -0.3972
   90SAPE  H17R 8794   4.837   2.402   4.904  1.1075  1.4030  1.2073
   90SAPE  H17S 8795   4.753   2.255   4.973 -0.4169  3.3779  2.1159
   90SAPE  C218 8796   4.893   2.228   4.802  0.3457  0.7893 -0.2797
   90SAPE  H18R 8797   4.810   2.257   4.734  0.7198  0.5586 -0.8405
   90SAPE  H18S 8798   4.912   2.118   4.805 -2.6513  0.1545 -1.0427
   90SAPE  C219 8799   5.029   2.281   4.744  0.0329 -0.0262  0.1753
   90SAPE  H19R 8800   5.109   2.267   4.820  0.7745  0.9532 -0.4082
   90SAPE  H19S 8801   5.029   2.392   4.739 -1.2199  0.0198  0.8098
   90SAPE  C220 8802   5.065   2.220   4.605  0.3637 -0.3273 -1.2434
   90SAPE  H20R 8803   5.168   2.250   4.576  1.3943 -0.8997  1.5762
   90SAPE  H20S 8804   4.987   2.256   4.534 -1.4564 -1.1042  0.3056
   90SAPE  H20T 8805   5.071   2.110   4.618 -0.5440 -0.2489 -0.0606
   90SAPE   C33 8806   4.629   2.616   5.822  0.0960  0.1097 -0.8273
   90SAPE   H3X 8807   4.715   2.669   5.868 -1.1956  1.4746  0.1205
   90SAPE   H3Y 8808   4.540   2.683   5.828 -1.1595 -1.5554 -0.0910
   90SAPE   C34 8809   4.656   2.570   5.684 -0.3522  0.4471 -0.3407
   90SAPE   H4X 8810   4.706   2.471   5.694 -0.3815  0.6333  1.9552
   90SAPE   H4Y 8811   4.724   2.639   5.631 -2.3975  0.8821 -2.5861
   90SAPE   C35 8812   4.526   2.555   5.602  0.2317  0.0049  0.1072
   90SAPE   H5X 8813   4.458   2.640   5.625 -0.9144 -0.7612 -0.3450
   90SAPE   H5Y 8814   4.470   2.465   5.635 -2.1957  0.3931 -2.5287
   90SAPE   C36 8815   4.559   2.545   5.451 -0.7079  0.3107 -0.4165
   90SAPE   H6X 8816   4.653   2.487   5.453 -0.5943  0.4896 -0.4950
   90SAPE   H6Y 8817   4.580   2.651   5.424  1.7450  0.0602  0.2968
   90SAPE   C37 8818   4.443   2.487   5.371 -0.0143  0.5075  0.3518
   90SAPE   H7X 8819   4.363   2.564   5.371 -0.4901  0.2547 -3.8340
   90SAPE   H7Y 8820   4.414   2.391   5.419 -0.2919  0.7165  0.6066
   90SAPE   C38 8821   4.486   2.455   5.231 -0.3604 -0.7875  0.7749
   90SAPE   H8X 8822   4.559   2.371   5.233  0.9637  0.3089  0.2963
   90SAPE   H8Y 8823   4.536   2.544   5.186 -0.2148 -1.5381 -0.6284
   90SAPE   C39 8824   4.371   2.424   5.124 -0.2230  0.3020 -0.6082
   90SAPE   H9X 8825   4.304   2.511   5.110 -2.0318 -1.0933 -1.0712
   90SAPE   H9Y 8826   4.303   2.345   5.161  0.2696 -0.4995 -1.3606
   90SAPE  C310 8827   4.431   2.384   4.984  0.1541 -0.1701  0.4135
   90SAPE  H10X 8828   4.344   2.358   4.920  0.2980 -3.2401  1.3299
   90SAPE  H10Y 8829   4.499   2.299   5.005  1.6242  1.0831  0.9243
   90SAPE  C311 8830   4.512   2.502   4.927  0.3451 -0.2635 -0.5704
   90SAPE  H11X 8831   4.620   2.501   4.954  0.8567  0.1117 -2.4632
   90SAPE  H11Y 8832   4.472   2.602   4.954  1.6627  0.0852  0.1942
   90SAPE  C312 8833   4.529   2.498   4.771  0.3006  0.2444 -0.1638
   90SAPE  H12X 8834   4.545   2.397   4.726  0.3888  1.2516 -2.5463
   90SAPE  H12Y 8835   4.622   2.551   4.741 -0.4667  1.4287 -0.5215
   90SAPE  C313 8836   4.406   2.570   4.710  0.4447 -0.1128  0.4292
   90SAPE  H13X 8837   4.405   2.673   4.752  0.7620  0.9988 -2.0540
   90SAPE  H13Y 8838   4.309   2.531   4.749  1.0388 -1.6399  0.4386
   90SAPE  C314 8839   4.402   2.563   4.561  0.1801 -0.3080  0.4221
   90SAPE  H14X 8840   4.379   2.461   4.523 -1.6719  0.3661 -0.4219
   90SAPE  H14Y 8841   4.502   2.585   4.518  0.6000 -0.6740  1.1966
   90SAPE  C315 8842   4.303   2.658   4.507  0.4862  0.5928  0.0363
   90SAPE  H15X 8843   4.334   2.764   4.523 -0.7205  1.0381 -0.5029
   90SAPE  H15Y 8844   4.208   2.651   4.563  0.4958  3.3971  0.5266
   90SAPE  C316 8845   4.271   2.645   4.358  0.3136  1.0099  0.4386
   90SAPE  H16X 8846   4.228   2.544   4.339 -0.3899  1.2091  0.9209
   90SAPE  H16Y 8847   4.366   2.649   4.301 -0.6649 -0.8218 -1.4584
   90SAPE  C317 8848   4.177   2.756   4.294  0.1823  0.0150  0.2437
   90SAPE  H17X 8849   4.216   2.798   4.199 -0.4164  0.2420  0.0915
   90SAPE  H17Y 8850   4.186   2.846   4.357 -1.1725  1.3629 -1.3657
   90SAPE  C318 8851   4.033   2.713   4.263 -0.1406 -0.2901 -0.5548
   90SAPE  H18X 8852   4.023   2.643   4.178 -0.8296  1.6674 -2.1642
   90SAPE  H18Y 8853   3.982   2.809   4.242 -0.4018 -0.0811  0.9214
   90SAPE  H18Z 8854   3.998   2.680   4.363 -0.2927  0.2368 -0.4275
   91SAPE     N 8855   2.758   4.093   6.955 -0.1492  0.0066 -0.1038
   91SAPE   HN1 8856   2.846   4.045   6.929 -1.2904 -0.8450 -2.8457
   91SAPE   HN2 8857   2.765   4.193   6.929 -0.0477  1.2681  4.0681
   91SAPE   HN3 8858   2.734   4.086   7.056  0.2245 -0.7311 -0.0578
   91SAPE   C12 8859   2.645   4.020   6.891  0.6867  0.4450 -0.2095
   91SAPE  H12A 8860   2.548   4.070   6.908  1.1003  0.6716  1.6370
   91SAPE  H12B 8861   2.642   3.917   6.933  0.9833 -0.0003 -1.2398
   91SAPE   C11 8862   2.664   3.994   6.745 -0.2013 -0.3278  0.7111
   91SAPE  H11A 8863   2.572   3.960   6.693 -2.1296  3.2361  1.4788
   91SAPE  H11B 8864   2.733   3.912   6.718 -2.5222 -2.5190  1.0256
   91SAPE     P 8865   2.596   4.205   6.622  0.7229  0.0262 -0.0837
   91SAPE   O13 8866   2.487   4.236   6.715  0.4721 -0.0919 -0.3687
   91SAPE   O14 8867   2.657   4.325   6.570 -0.8539 -0.3126 -0.3838
   91SAPE   O12 8868   2.707   4.112   6.681  0.8431 -0.0499 -0.9203
   91SAPE   O11 8869   2.531   4.126   6.503 -0.5979 -0.1576  0.0014
   91SAPE    C1 8870   2.611   4.061   6.403  0.0768  0.1265 -0.5112
   91SAPE    HA 8871   2.703   4.023   6.452 -0.2729  0.6033  0.5664
   91SAPE    HB 8872   2.555   3.977   6.355 -2.4072  1.1091  0.4674
   91SAPE    C2 8873   2.665   4.156   6.295 -0.2615 -0.1635  0.6687
   91SAPE    HS 8874   2.694   4.249   6.349 -0.4724  0.0253  0.4585
   91SAPE   O21 8875   2.572   4.186   6.190  0.5175  0.2112 -0.2311
   91SAPE   C21 8876   2.577   4.301   6.133 -0.3124 -0.1358 -0.3990
   91SAPE   O22 8877   2.638   4.401   6.169 -0.1304  0.0594  0.3612
   91SAPE   C22 8878   2.489   4.294   6.009  0.4247 -0.0363  0.1479
   91SAPE   H2R 8879   2.416   4.211   6.021 -1.3516  1.5427  0.6199
   91SAPE   H2S 8880   2.430   4.388   6.012 -2.0127 -1.4949  0.0359
   91SAPE    C3 8881   2.793   4.101   6.230  0.1315 -0.7586 -0.7061
   91SAPE    HX 8882   2.761   4.011   6.173 -1.0481 -0.4255 -0.5863
   91SAPE    HY 8883   2.859   4.072   6.315 -1.6518 -1.3073  0.5518
   91SAPE   O31 8884   2.853   4.195   6.141  0.4314  0.1508  0.0266
   91SAPE   C31 8885   2.924   4.289   6.206  0.2082  0.0709  0.5963
   91SAPE   O32 8886   2.945   4.300   6.319  0.0834  0.0329  0.0902
   91SAPE   C32 8887   2.974   4.379   6.100 -0.4722  0.3224 -0.0878
   91SAPE   H2X 8888   3.019   4.474   6.136  1.0451  0.5112 -2.2926
   91SAPE   H2Y 8889   2.889   4.397   6.032 -0.6828 -1.0973 -0.2319
   91SAPE   C23 8890   2.572   4.276   5.878 -0.5174 -0.1367 -0.0348
   91SAPE   H3R 8891   2.525   4.193   5.823  1.6443 -1.6280  0.2206
   91SAPE   H3S 8892   2.680   4.254   5.893  0.0986  1.3336 -1.8639
   91SAPE   C24 8893   2.571   4.400   5.789  0.6250 -0.2913 -0.4904
   91SAPE   H4R 8894   2.611   4.483   5.852 -0.4127 -0.1367 -0.0033
   91SAPE   H4S 8895   2.463   4.424   5.775  0.9026  1.1222 -0.4080
   91SAPE   C25 8896   2.664   4.382   5.676  0.9068  0.5326 -0.1299
   91SAPE   H5R 8897   2.753   4.324   5.705  1.6534  0.6749 -1.9978
   91SAPE   C26 8898   2.648   4.417   5.546  0.6134 -0.0351 -0.7135
   91SAPE   H6R 8899   2.719   4.394   5.465  0.0044 -1.1879 -0.9498
   91SAPE   C27 8900   2.527   4.494   5.504  0.3117 -0.1872  0.4080
   91SAPE   H7R 8901   2.555   4.582   5.441 -0.5622  0.3188  0.7056
   91SAPE   H7S 8902   2.470   4.539   5.588 -2.0916  1.4900 -1.9500
   91SAPE   C28 8903   2.430   4.402   5.437 -0.0133  0.4932  0.6343
   91SAPE   H8R 8904   2.406   4.319   5.506  1.1888 -1.4589 -1.1840
   91SAPE   C29 8905   2.398   4.394   5.306 -0.1655  0.6846  0.2526
   91SAPE   H9R 8906   2.317   4.325   5.278  0.6113 -0.4492  0.7022
   91SAPE  C210 8907   2.465   4.483   5.203  0.2868  0.2841 -0.7635
   91SAPE  H10R 8908   2.573   4.497   5.221  0.2143  0.4583 -0.4664
   91SAPE  H10S 8909   2.423   4.584   5.221 -1.1834  0.0830 -2.6695
   91SAPE  C211 8910   2.435   4.441   5.060 -0.1852 -0.4472  0.4676
   91SAPE  H11R 8911   2.519   4.402   5.002  0.2796  2.2741 -0.8292
   91SAPE  C212 8912   2.319   4.463   4.989  0.0332 -0.4422 -0.1021
   91SAPE  H12R 8913   2.308   4.416   4.890  1.0386  0.5792 -0.7236
   91SAPE  C213 8914   2.194   4.537   5.031 -0.2978 -0.2407 -0.0985
   91SAPE  H13R 8915   2.227   4.643   5.023 -1.6524  0.2252  0.0572
   91SAPE  H13S 8916   2.180   4.533   5.142  2.6251  1.6595  0.4530
   91SAPE  C214 8917   2.080   4.503   4.936 -0.6190 -0.4050  0.5846
   91SAPE  H14R 8918   2.103   4.519   4.830 -0.6642  1.2539  0.7987
   91SAPE  C215 8919   1.963   4.456   4.973 -0.2695  0.0370 -0.9795
   91SAPE  H15R 8920   1.887   4.438   4.896 -1.1813  0.0083 -0.0981
   91SAPE  C216 8921   1.935   4.430   5.124  0.0019 -0.2779 -0.1870
   91SAPE  H16R 8922   1.826   4.418   5.138 -0.2035 -0.2821 -1.6441
   91SAPE  H16S 8923   1.958   4.512   5.195  0.4196 -1.1198  0.6788
   91SAPE  C217 8924   1.992   4.299   5.197 -0.1183  0.3426 -0.0393
   91SAPE  H17R 8925   2.101   4.303   5.215  0.0839 -1.9411 -0.3903
   91SAPE  H17S 8926   1.974   4.219   5.121  0.3363  0.0103  0.2030
   91SAPE  C218 8927   1.908   4.289   5.328  0.3268 -0.0559 -0.7313
   91SAPE  H18R 8928   1.801   4.306   5.301  0.0213 -0.1872  0.3623
   91SAPE  H18S 8929   1.935   4.371   5.397  0.5615 -1.2004  0.5706
   91SAPE  C219 8930   1.914   4.157   5.395 -0.0329  0.2126 -0.0425
   91SAPE  H19R 8931   2.019   4.125   5.411 -0.2379 -0.2773  0.3320
   91SAPE  H19S 8932   1.885   4.076   5.325  1.3669  0.6582 -1.1970
   91SAPE  C220 8933   1.829   4.132   5.519  0.1338  0.5940 -0.0220
   91SAPE  H20R 8934   1.733   4.187   5.512  0.4882  1.2832  0.4364
   91SAPE  H20S 8935   1.878   4.168   5.612 -1.1835  1.2721  0.4292
   91SAPE  H20T 8936   1.805   4.025   5.535 -0.4003  0.4920 -1.4295
   91SAPE   C33 8937   3.085   4.312   6.005  1.0611 -0.0713 -0.2548
   91SAPE   H3X 8938   3.070   4.203   5.988 -1.9848  0.4264 -1.4062
   91SAPE   H3Y 8939   3.180   4.330   6.060  0.3698 -1.3071  1.4178
   91SAPE   C34 8940   3.069   4.370   5.868 -0.2893  0.9087  0.6043
   91SAPE   H4X 8941   3.091   4.479   5.875  1.7465  0.5776  0.0003
   91SAPE   H4Y 8942   2.972   4.337   5.825  0.8196  0.6370 -1.8449
   91SAPE   C35 8943   3.172   4.312   5.767 -0.2983  0.3835  0.0387
   91SAPE   H5X 8944   3.174   4.202   5.781 -3.0508  0.4324  1.7455
   91SAPE   H5Y 8945   3.268   4.346   5.810 -0.3555 -0.5605  0.9672
   91SAPE   C36 8946   3.158   4.363   5.620  0.1501 -0.2760  0.7112
   91SAPE   H6X 8947   3.253   4.348   5.565  1.1185 -0.0610  2.2578
   91SAPE   H6Y 8948   3.152   4.473   5.621  0.0954 -0.1689 -2.3786
   91SAPE   C37 8949   3.041   4.302   5.541 -0.0947 -0.8750  0.6298
   91SAPE   H7X 8950   2.941   4.337   5.574 -1.4595 -1.9445 -2.0429
   91SAPE   H7Y 8951   3.036   4.192   5.546 -0.1308 -0.8342  1.8606
   91SAPE   C38 8952   3.070   4.349   5.395  0.0569  0.1865  0.0063
   91SAPE   H8X 8953   3.163   4.301   5.356 -1.3515 -3.3444  0.5679
   91SAPE   H8Y 8954   3.093   4.457   5.385  3.0584 -0.3601  0.0915
   91SAPE   C39 8955   2.962   4.313   5.286  0.0438  0.0444 -0.1768
   91SAPE   H9X 8956   2.855   4.319   5.313 -0.6226 -0.3832 -2.4840
   91SAPE   H9Y 8957   2.967   4.203   5.270 -1.4542 -0.0778  0.0467
   91SAPE  C310 8958   2.991   4.380   5.147 -0.0770 -0.0765 -0.5533
   91SAPE  H10X 8959   3.086   4.335   5.112 -0.0651 -0.2427 -0.3113
   91SAPE  H10Y 8960   3.013   4.488   5.153  1.1951 -0.3598  0.4196
   91SAPE  C311 8961   2.886   4.340   5.047 -0.0802 -0.8580  0.5620
   91SAPE  H11X 8962   2.781   4.337   5.085 -0.3407  0.2698 -0.0247
   91SAPE  H11Y 8963   2.892   4.231   5.024 -2.3976 -0.5514 -1.9910
   91SAPE  C312 8964   2.888   4.412   4.905  0.4809 -0.1375 -0.1794
   91SAPE  H12X 8965   2.979   4.382   4.849  0.9758  1.4052 -0.2236
   91SAPE  H12Y 8966   2.900   4.521   4.918  0.7017 -0.2610  0.7987
   91SAPE  C313 8967   2.758   4.388   4.830  1.2022  1.1135 -0.4018
   91SAPE  H13X 8968   2.752   4.442   4.733  0.0765 -0.2078 -1.1047
   91SAPE  H13Y 8969   2.672   4.414   4.896 -0.3844 -1.0984 -1.4747
   91SAPE  C314 8970   2.740   4.243   4.797  1.0599 -0.0242  0.7717
   91SAPE  H14X 8971   2.725   4.183   4.890 -0.4525  1.9979  1.9179
   91SAPE  H14Y 8972   2.829   4.192   4.753  0.0195 -1.5580  0.3964
   91SAPE  C315 8973   2.630   4.203   4.697  0.2435  0.7103 -0.4459
   91SAPE  H15X 8974   2.616   4.093   4.693  0.1281  0.7517 -1.8548
   91SAPE  H15Y 8975   2.686   4.219   4.603  1.0441 -0.3503 -0.1638
   91SAPE  C316 8976   2.499   4.276   4.702  0.5009  0.3490 -0.4885
   91SAPE  H16X 8977   2.524   4.385   4.700  2.4248 -0.0585 -0.1721
   91SAPE  H16Y 8978   2.444   4.262   4.798 -2.2164  0.7544 -1.8893
   91SAPE  C317 8979   2.405   4.258   4.577 -0.6410  0.3047  0.3199
   91SAPE  H17X 8980   2.368   4.155   4.600 -0.6398 -0.1113 -1.4443
   91SAPE  H17Y 8981   2.461   4.256   4.482  0.6778  3.1978  0.9329
   91SAPE  C318 8982   2.284   4.354   4.560 -0.6443  0.0986  0.1958
   91SAPE  H18X 8983   2.231   4.319   4.469 -0.7003 -0.4756  0.4426
   91SAPE  H18Y 8984   2.321   4.459   4.554 -1.1933  0.2840  0.0633
   91SAPE  H18Z 8985   2.221   4.347   4.652 -0.6230  0.6130  0.2530
   92SAPE     N 8986   2.507   5.234   6.524 -0.4218 -0.3347  0.7784
   92SAPE   HN1 8987   2.598   5.279   6.502  1.0514 -2.5137  2.1428
   92SAPE   HN2 8988   2.477   5.190   6.435 -0.0723 -0.0123  0.4972
   92SAPE   HN3 8989   2.436   5.303   6.555  2.2434  1.7005  2.8392
   92SAPE   C12 8990   2.527   5.131   6.635  0.5259 -0.7442 -0.5621
   92SAPE  H12A 8991   2.429   5.123   6.686  0.1262 -0.9603 -1.3536
   92SAPE  H12B 8992   2.604   5.171   6.705 -0.7849 -1.0903  1.1391
   92SAPE   C11 8993   2.566   5.001   6.581  0.1054 -0.3142 -0.5214
   92SAPE  H11A 8994   2.489   4.961   6.512 -1.3395 -1.3076  1.5449
   92SAPE  H11B 8995   2.564   4.938   6.673 -0.5207  0.0591 -0.2760
   92SAPE     P 8996   2.799   4.892   6.516  0.0498 -0.3433 -0.1982
   92SAPE   O13 8997   2.907   4.926   6.609 -0.9393 -0.4457  0.2711
   92SAPE   O14 8998   2.729   4.769   6.550 -0.0318  0.4277  0.3263
   92SAPE   O12 8999   2.694   5.017   6.520 -0.0760  0.4937  0.3952
   92SAPE   O11 9000   2.841   4.889   6.368 -0.1166 -0.4081  0.0065
   92SAPE    C1 9001   2.818   5.001   6.280 -0.1346  0.0030 -0.3950
   92SAPE    HA 9002   2.727   5.064   6.291  0.4775  1.3315 -2.3828
   92SAPE    HB 9003   2.894   5.083   6.285 -0.1670 -0.0218  0.8269
   92SAPE    C2 9004   2.829   4.958   6.131  0.3629 -0.6749 -0.1285
   92SAPE    HS 9005   2.747   4.886   6.111  2.2941 -2.6102 -1.6288
   92SAPE   O21 9006   2.957   4.908   6.106 -0.3514 -0.3262  0.7263
   92SAPE   C21 9007   2.964   4.797   6.041  0.1459  0.9239 -0.2100
   92SAPE   O22 9008   2.867   4.726   6.021 -0.0552  0.4527 -0.3412
   92SAPE   C22 9009   3.100   4.783   5.984  0.0348  0.4278  0.2114
   92SAPE   H2R 9010   3.179   4.803   6.060  0.3346 -2.0621  0.6217
   92SAPE   H2S 9011   3.108   4.674   5.964 -0.7444 -0.0113  2.1124
   92SAPE    C3 9012   2.795   5.066   6.028  0.2947  0.3404  0.1618
   92SAPE    HX 9013   2.861   5.152   6.052  0.2358  1.7127 -3.7737
   92SAPE    HY 9014   2.690   5.100   6.039  0.6365  1.3171  0.5403
   92SAPE   O31 9015   2.825   5.031   5.890  0.0082  0.1114  0.6290
   92SAPE   C31 9016   2.726   4.972   5.823 -0.2373 -0.2780 -0.4943
   92SAPE   O32 9017   2.615   4.943   5.872 -0.1134  0.0787  0.3058
   92SAPE   C32 9018   2.786   4.910   5.701 -0.1246 -0.0273  0.3722
   92SAPE   H2X 9019   2.823   4.809   5.727 -0.8784 -0.4478 -0.1284
   92SAPE   H2Y 9020   2.870   4.971   5.662 -0.1903 -0.1317  0.0612
   92SAPE   C23 9021   3.120   4.872   5.865 -1.1161  0.3312 -0.4219
   92SAPE   H3R 9022   3.153   4.974   5.894 -0.8916  0.4427 -1.0524
   92SAPE   H3S 9023   3.018   4.896   5.828 -2.7271 -3.8996  0.6693
   92SAPE   C24 9024   3.226   4.820   5.754 -0.0370  0.2426 -0.2388
   92SAPE   H4R 9025   3.294   4.748   5.805  0.7157  1.6778  0.8448
   92SAPE   H4S 9026   3.295   4.899   5.717  0.0084 -0.0221 -0.7292
   92SAPE   C25 9027   3.158   4.743   5.648 -0.4081 -0.1936 -0.0009
   92SAPE   H5R 9028   3.100   4.657   5.683  0.7656 -2.2660 -2.7711
   92SAPE   C26 9029   3.163   4.752   5.510 -0.5107  1.2237  0.2940
   92SAPE   H6R 9030   3.107   4.682   5.446 -2.4138  1.8793  1.1587
   92SAPE   C27 9031   3.240   4.846   5.433 -0.3980  0.2544 -0.5615
   92SAPE   H7R 9032   3.274   4.927   5.500 -1.2841  0.1026  0.0813
   92SAPE   H7S 9033   3.173   4.902   5.364 -1.3434  0.2170  0.3093
   92SAPE   C28 9034   3.352   4.782   5.350 -0.3355 -0.3380  0.2293
   92SAPE   H8R 9035   3.417   4.718   5.410  0.2403  0.9172  0.9722
   92SAPE   C29 9036   3.358   4.772   5.217 -0.2149  0.7262 -0.4150
   92SAPE   H9R 9037   3.439   4.711   5.174 -0.1334  0.9296 -0.5501
   92SAPE  C210 9038   3.271   4.841   5.120 -0.8080  0.4689  0.7591
   92SAPE  H10R 9039   3.345   4.872   5.044 -0.2216  0.4957  1.3246
   92SAPE  H10S 9040   3.235   4.942   5.148 -0.8881  0.5315  0.4295
   92SAPE  C211 9041   3.150   4.756   5.073 -0.3612  0.4176 -0.1396
   92SAPE  H11R 9042   3.110   4.692   5.154  1.1530 -0.1355  0.2122
   92SAPE  C212 9043   3.101   4.745   4.947 -0.0573 -0.4919  0.3242
   92SAPE  H12R 9044   3.006   4.691   4.931 -1.0100  0.7782  1.4441
   92SAPE  C213 9045   3.163   4.812   4.827 -0.8579 -0.0818 -0.2142
   92SAPE  H13R 9046   3.239   4.741   4.788  1.2153  1.0808  1.4663
   92SAPE  H13S 9047   3.221   4.900   4.863 -2.0412 -0.2489  2.3112
   92SAPE  C214 9048   3.059   4.849   4.725 -0.1372  0.3575  0.1313
   92SAPE  H14R 9049   3.041   4.957   4.727  0.3349  0.4831 -1.2801
   92SAPE  C215 9050   2.983   4.780   4.639 -0.0139 -0.8953  1.5332
   92SAPE  H15R 9051   2.918   4.824   4.562  1.3871  0.2712  0.9730
   92SAPE  C216 9052   3.003   4.629   4.611 -0.2304  1.0682 -0.7237
   92SAPE  H16R 9053   2.945   4.568   4.683  0.6092  2.0005  0.7843
   92SAPE  H16S 9054   3.107   4.608   4.643  0.6914  2.9597 -2.2541
   92SAPE  C217 9055   2.997   4.589   4.463 -0.0742  0.0183 -0.0520
   92SAPE  H17R 9056   3.058   4.667   4.412 -2.0243  0.8722 -1.2212
   92SAPE  H17S 9057   2.892   4.606   4.430  0.0584  0.3034 -0.3299
   92SAPE  C218 9058   3.050   4.451   4.434  0.1317  0.0301  0.2054
   92SAPE  H18R 9059   3.144   4.431   4.490  2.1610 -0.3653 -3.0665
   92SAPE  H18S 9060   3.063   4.451   4.324 -0.6936 -2.0710  0.0709
   92SAPE  C219 9061   2.936   4.349   4.470 -0.6836 -0.1991  0.5193
   92SAPE  H19R 9062   2.847   4.401   4.428  0.4882  0.3298 -1.4710
   92SAPE  H19S 9063   2.917   4.340   4.579 -1.1731 -0.0801  0.4470
   92SAPE  C220 9064   2.929   4.227   4.384 -0.7903  0.2471 -0.1588
   92SAPE  H20R 9065   2.938   4.250   4.276  0.1046  2.5412  0.3457
   92SAPE  H20S 9066   2.841   4.162   4.405  0.1030 -0.9258  0.0940
   92SAPE  H20T 9067   3.011   4.158   4.413 -1.3385 -0.7040 -0.8215
   92SAPE   C33 9068   2.674   4.897   5.589  0.2300 -0.1579  0.1056
   92SAPE   H3X 9069   2.608   4.986   5.576 -3.1649 -2.0136  3.0014
   92SAPE   H3Y 9070   2.602   4.817   5.614 -1.0513  1.0248  0.3550
   92SAPE   C34 9071   2.736   4.849   5.459 -0.5524 -0.2958  0.4849
   92SAPE   H4X 9072   2.778   4.747   5.461  1.6331  0.5654  0.7059
   92SAPE   H4Y 9073   2.827   4.913   5.457 -0.0518 -0.9338  1.9620
   92SAPE   C35 9074   2.651   4.877   5.335  0.5229  0.3262  0.3347
   92SAPE   H5X 9075   2.634   4.986   5.331 -3.3149 -0.1005  1.4660
   92SAPE   H5Y 9076   2.556   4.820   5.337  0.8013 -0.1826 -0.3553
   92SAPE   C36 9077   2.719   4.839   5.204 -0.2728  0.5704 -1.1204
   92SAPE   H6X 9078   2.739   4.730   5.211  1.6436  0.9794  0.6013
   92SAPE   H6Y 9079   2.814   4.893   5.187 -0.5229  1.0503 -1.0319
   92SAPE   C37 9080   2.634   4.863   5.084  0.2674 -0.7161 -0.5908
   92SAPE   H7X 9081   2.596   4.968   5.087  1.4229 -0.2911  2.5270
   92SAPE   H7Y 9082   2.542   4.802   5.097 -0.4663  0.2887 -0.8833
   92SAPE   C38 9083   2.706   4.847   4.948  0.4995  0.7029  0.1834
   92SAPE   H8X 9084   2.750   4.745   4.938  0.2193  0.4671  1.2511
   92SAPE   H8Y 9085   2.795   4.913   4.946  0.4402  0.8811  2.0926
   92SAPE   C39 9086   2.619   4.886   4.825  0.5737 -0.0983  0.3831
   92SAPE   H9X 9087   2.691   4.888   4.740  1.5896  0.2538  1.2302
   92SAPE   H9Y 9088   2.571   4.987   4.825  0.9265  0.0811 -0.4914
   92SAPE  C310 9089   2.508   4.791   4.807 -0.1102  0.5640  0.0564
   92SAPE  H10X 9090   2.436   4.808   4.889 -0.7475 -1.7725  0.0480
   92SAPE  H10Y 9091   2.549   4.687   4.808 -1.0745  0.1599 -0.6778
   92SAPE  C311 9092   2.414   4.811   4.693 -0.0592 -0.7589 -0.0030
   92SAPE  H11X 9093   2.455   4.784   4.594 -0.2731  0.9963 -0.6170
   92SAPE  H11Y 9094   2.398   4.921   4.684 -0.8424 -0.4568  3.3765
   92SAPE  C312 9095   2.276   4.745   4.708 -0.0140 -0.1025  0.2297
   92SAPE  H12X 9096   2.225   4.784   4.798  0.6065  1.6475 -0.1272
   92SAPE  H12Y 9097   2.283   4.635   4.722 -2.8572 -0.9783 -3.4712
   92SAPE  C313 9098   2.183   4.759   4.583 -1.0089  0.0828 -0.8431
   92SAPE  H13X 9099   2.246   4.737   4.495 -1.7958 -0.3633 -1.3068
   92SAPE  H13Y 9100   2.137   4.858   4.566 -0.6052  0.1883 -1.3190
   92SAPE  C314 9101   2.069   4.659   4.576  0.2720 -0.2320 -0.4618
   92SAPE  H14X 9102   2.106   4.564   4.618 -0.8978 -1.5381 -2.2416
   92SAPE  H14Y 9103   2.040   4.641   4.470 -0.1848 -0.1870 -0.3504
   92SAPE  C315 9104   1.951   4.709   4.656  0.1316  0.0539 -0.7060
   92SAPE  H15X 9105   1.901   4.796   4.608 -1.9504 -0.9983 -0.5723
   92SAPE  H15Y 9106   1.985   4.750   4.753  2.0617  1.8244 -2.0410
   92SAPE  C316 9107   1.839   4.603   4.687 -0.6787 -0.2144  0.0697
   92SAPE  H16X 9108   1.815   4.640   4.789  3.0760 -1.8752  1.7219
   92SAPE  H16Y 9109   1.868   4.496   4.694 -2.2815 -0.7176 -0.5126
   92SAPE  C317 9110   1.726   4.621   4.587 -0.0140 -0.1016  0.1766
   92SAPE  H17X 9111   1.756   4.607   4.481 -0.0070  0.1629  0.1424
   92SAPE  H17Y 9112   1.690   4.726   4.593  0.9055  0.3705 -1.7856
   92SAPE  C318 9113   1.604   4.535   4.619  0.2208  0.1532  0.2332
   92SAPE  H18X 9114   1.514   4.565   4.561  1.1547 -0.1827 -1.4704
   92SAPE  H18Y 9115   1.583   4.544   4.728  0.8831 -0.2347  0.4002
   92SAPE  H18Z 9116   1.635   4.429   4.615  0.2026  0.1021  1.2048
   93SAPE     N 9117   5.129   2.803   6.833 -0.0865 -0.1849  0.2390
   93SAPE   HN1 9118   5.144   2.779   6.733  1.0069  0.0658  0.3346
   93SAPE   HN2 9119   5.196   2.744   6.886  0.6113  2.2768  2.2472
   93SAPE   HN3 9120   5.031   2.773   6.851  0.0319 -1.3730 -0.9305
   93SAPE   C12 9121   5.158   2.946   6.872  0.1833  1.0162  0.4666
   93SAPE  H12A 9122   5.168   2.943   6.983  0.1233 -0.0805  0.4588
   93SAPE  H12B 9123   5.071   2.997   6.827 -1.9441 -2.9014 -0.3174
   93SAPE   C11 9124   5.291   2.997   6.798  0.2090  0.6806 -1.0334
   93SAPE  H11A 9125   5.306   3.104   6.823 -0.6346  0.5920 -0.0950
   93SAPE  H11B 9126   5.265   2.989   6.690  0.4935  0.4163 -1.0847
   93SAPE     P 9127   5.552   2.964   6.800  0.2621  0.2595  0.0481
   93SAPE   O13 9128   5.572   3.093   6.868  0.4983  0.1502  0.1809
   93SAPE   O14 9129   5.647   2.863   6.850  0.1111  0.0198 -0.1623
   93SAPE   O12 9130   5.404   2.917   6.826  0.2970 -0.0373 -0.1741
   93SAPE   O11 9131   5.556   2.978   6.641 -0.4353 -0.1199 -0.6179
   93SAPE    C1 9132   5.500   2.890   6.553  0.3984  0.1779  0.8874
   93SAPE    HA 9133   5.571   2.806   6.542  1.4214  1.2788 -1.4744
   93SAPE    HB 9134   5.396   2.860   6.580 -0.2683  3.4692  2.4909
   93SAPE    C2 9135   5.500   2.950   6.408  0.3724 -0.2866 -0.6353
   93SAPE    HS 9136   5.406   3.008   6.393  1.2970  1.1419 -1.1439
   93SAPE   O21 9137   5.511   2.849   6.309 -0.0327  0.1370  1.4686
   93SAPE   C21 9138   5.400   2.792   6.291  0.1685  0.3701  0.4319
   93SAPE   O22 9139   5.293   2.823   6.346  0.3465  0.1855  0.1528
   93SAPE   C22 9140   5.419   2.677   6.179 -0.3029 -0.2587 -0.6886
   93SAPE   H2R 9141   5.512   2.698   6.121  0.1097  0.6087  0.2462
   93SAPE   H2S 9142   5.444   2.588   6.241  0.3481 -0.2356 -0.9099
   93SAPE    C3 9143   5.620   3.050   6.385 -0.0898 -0.2440 -0.6134
   93SAPE    HX 9144   5.708   3.005   6.435  1.0738 -0.5793 -2.8549
   93SAPE    HY 9145   5.584   3.143   6.434 -0.7352 -0.2164 -1.1208
   93SAPE   O31 9146   5.647   3.083   6.246  0.8317  0.0552 -0.0368
   93SAPE   C31 9147   5.766   3.063   6.186  0.2414  0.0447  0.4438
   93SAPE   O32 9148   5.865   3.021   6.237 -0.5449 -0.1170 -0.4075
   93SAPE   C32 9149   5.757   3.103   6.037  0.2226 -0.0782  0.1368
   93SAPE   H2X 9150   5.744   3.213   6.040  1.5005  0.1123 -0.6483
   93SAPE   H2Y 9151   5.656   3.063   6.015  1.2930 -1.7054 -2.2543
   93SAPE   C23 9152   5.296   2.658   6.094  0.0292 -0.5596 -0.7152
   93SAPE   H3R 9153   5.277   2.752   6.039 -0.8899  0.0674  0.6311
   93SAPE   H3S 9154   5.211   2.641   6.164 -0.2366 -1.7804 -1.3137
   93SAPE   C24 9155   5.300   2.531   5.998 -0.0907  0.3317 -0.2229
   93SAPE   H4R 9156   5.209   2.500   5.943 -1.0246  0.6647  1.0786
   93SAPE   H4S 9157   5.330   2.443   6.059  1.0213  0.7686 -0.1214
   93SAPE   C25 9158   5.408   2.540   5.899  1.0191  0.1831 -0.2389
   93SAPE   H5R 9159   5.494   2.479   5.928 -0.9179 -1.6212  2.1124
   93SAPE   C26 9160   5.404   2.608   5.783 -0.0795 -0.6675  0.5266
   93SAPE   H6R 9161   5.486   2.597   5.710 -1.2262 -1.0216 -0.7619
   93SAPE   C27 9162   5.289   2.686   5.735 -0.7847  0.3884 -0.2063
   93SAPE   H7R 9163   5.325   2.788   5.710 -0.3789  0.0982 -0.8309
   93SAPE   H7S 9164   5.208   2.694   5.810  0.4161  1.8131  0.9860
   93SAPE   C28 9165   5.228   2.615   5.616 -0.3772  0.1265  0.6688
   93SAPE   H8R 9166   5.147   2.551   5.654 -1.5973  1.4806  0.4505
   93SAPE   C29 9167   5.251   2.604   5.479 -0.0213 -0.0877 -0.9851
   93SAPE   H9R 9168   5.190   2.538   5.416 -1.4310  1.1219 -0.9319
   93SAPE  C210 9169   5.365   2.674   5.411  0.9829 -0.6470  0.8768
   93SAPE  H10R 9170   5.433   2.600   5.364  0.7272  0.1513 -0.7965
   93SAPE  H10S 9171   5.432   2.733   5.477 -0.4964  0.5869  1.3272
   93SAPE  C211 9172   5.314   2.760   5.296 -0.0371 -0.1703 -0.4183
   93SAPE  H11R 9173   5.277   2.855   5.338 -1.1707 -1.2190  1.0644
   93SAPE  C212 9174   5.323   2.755   5.161  0.0171  0.6704 -0.5537
   93SAPE  H12R 9175   5.273   2.837   5.107 -0.1862  0.3166 -0.9080
   93SAPE  C213 9176   5.374   2.638   5.073  0.0069  0.2519  0.1686
   93SAPE  H13R 9177   5.428   2.561   5.131  0.7419 -1.5303 -2.7099
   93SAPE  H13S 9178   5.450   2.666   4.997  1.2315 -1.9842  0.5041
   93SAPE  C214 9179   5.261   2.563   5.006 -0.2678 -0.4061  0.4031
   93SAPE  H14R 9180   5.214   2.493   5.076  0.8197 -1.1448  0.4126
   93SAPE  C215 9181   5.224   2.573   4.882 -0.2111 -0.1351 -0.3954
   93SAPE  H15R 9182   5.141   2.506   4.854 -0.3961 -0.7876  1.5741
   93SAPE  C216 9183   5.285   2.667   4.783 -0.2252  0.1708  0.6554
   93SAPE  H16R 9184   5.308   2.762   4.836  0.3459 -0.4816  1.6131
   93SAPE  H16S 9185   5.209   2.687   4.704 -1.5044 -1.4580  1.4022
   93SAPE  C217 9186   5.404   2.607   4.711  0.3140  0.6257  0.6465
   93SAPE  H17R 9187   5.471   2.561   4.786  1.3617 -0.1218 -0.6918
   93SAPE  H17S 9188   5.464   2.676   4.649  0.6260 -1.1546 -1.1540
   93SAPE  C218 9189   5.365   2.487   4.608 -0.2241 -0.6153 -0.0926
   93SAPE  H18R 9190   5.313   2.537   4.523 -3.0202  0.2956  2.0028
   93SAPE  H18S 9191   5.297   2.410   4.650 -0.6377 -0.7227 -0.9428
   93SAPE  C219 9192   5.484   2.407   4.550  0.0547  0.1134  0.7866
   93SAPE  H19R 9193   5.435   2.308   4.536 -1.3174  0.5270  2.3427
   93SAPE  H19S 9194   5.561   2.379   4.626 -0.3636  0.6122  1.4038
   93SAPE  C220 9195   5.561   2.457   4.428 -0.3287 -0.6346  0.0550
   93SAPE  H20R 9196   5.499   2.518   4.358  2.7651  3.0663  0.1936
   93SAPE  H20S 9197   5.622   2.383   4.373  1.1814 -0.1845  1.0775
   93SAPE  H20T 9198   5.635   2.532   4.463 -0.1600  0.9349 -3.2116
   93SAPE   C33 9199   5.861   3.052   5.930 -0.2594  0.4677  0.3186
   93SAPE   H3X 9200   5.880   2.947   5.962  0.8565  1.2147  2.3266
   93SAPE   H3Y 9201   5.958   3.106   5.941  0.0498  0.1625 -0.7999
   93SAPE   C34 9202   5.795   3.063   5.796 -0.5626  0.8962 -0.8718
   93SAPE   H4X 9203   5.771   3.170   5.781 -2.0582  1.1421  2.3444
   93SAPE   H4Y 9204   5.704   3.000   5.804  2.1722 -3.5949 -0.9782
   93SAPE   C35 9205   5.882   3.006   5.683  0.0707  0.2715 -0.1702
   93SAPE   H5X 9206   5.895   2.897   5.701 -1.0233  0.2749  0.8154
   93SAPE   H5Y 9207   5.987   3.042   5.691 -0.2908  1.4733 -0.5474
   93SAPE   C36 9208   5.819   3.047   5.555  0.2291  0.0903  0.3097
   93SAPE   H6X 9209   5.888   3.089   5.479 -0.0586 -0.0789 -0.0512
   93SAPE   H6Y 9210   5.760   3.140   5.565 -0.3791 -0.0213 -1.7588
   93SAPE   C37 9211   5.719   2.938   5.495  0.2218  0.4186  0.8742
   93SAPE   H7X 9212   5.639   2.910   5.567  0.9351 -1.2780  1.0656
   93SAPE   H7Y 9213   5.780   2.846   5.486 -0.8370 -0.1476 -0.8125
   93SAPE   C38 9214   5.652   2.988   5.365 -0.2284  0.0270 -0.1611
   93SAPE   H8X 9215   5.594   3.076   5.402 -0.2916  0.5934 -1.5469
   93SAPE   H8Y 9216   5.580   2.917   5.318 -1.9201 -0.4907  2.9323
   93SAPE   C39 9217   5.752   3.030   5.256 -0.6245  0.1023  0.3381
   93SAPE   H9X 9218   5.824   2.949   5.234  1.9072  2.6189 -1.2155
   93SAPE   H9Y 9219   5.808   3.124   5.276 -1.9128  1.2105 -1.0736
   93SAPE  C310 9220   5.670   3.044   5.124 -0.0102 -0.1170 -0.4417
   93SAPE  H10X 9221   5.605   3.134   5.133 -1.7842 -1.3329 -0.6423
   93SAPE  H10Y 9222   5.608   2.953   5.114 -1.9070  1.1110 -0.3736
   93SAPE  C311 9223   5.754   3.063   5.007 -0.1678  0.2644 -0.0426
   93SAPE  H11X 9224   5.803   2.963   5.006 -0.6993 -0.0396  1.5536
   93SAPE  H11Y 9225   5.835   3.137   5.019  0.4372 -0.1969 -1.0926
   93SAPE  C312 9226   5.661   3.084   4.889 -0.0991 -0.7744 -0.2873
   93SAPE  H12X 9227   5.601   3.175   4.907 -0.9187 -1.2138 -0.7046
   93SAPE  H12Y 9228   5.607   2.989   4.866  0.9413 -0.9289 -2.3799
   93SAPE  C313 9229   5.739   3.124   4.764  0.4605 -0.2778  0.6597
   93SAPE  H13X 9230   5.791   3.219   4.787 -0.4183  0.1410  0.9774
   93SAPE  H13Y 9231   5.666   3.145   4.683 -0.3861 -3.0389  0.6063
   93SAPE  C314 9232   5.839   3.029   4.697  0.1307  0.0423  0.4514
   93SAPE  H14X 9233   5.798   2.929   4.669  0.1547  0.4335 -1.0664
   93SAPE  H14Y 9234   5.923   3.014   4.768  0.7030  1.1111  0.0141
   93SAPE  C315 9235   5.876   3.080   4.556 -0.4332 -0.6078  0.6726
   93SAPE  H15X 9236   5.896   3.188   4.572  2.9861 -1.1676  1.0203
   93SAPE  H15Y 9237   5.797   3.074   4.478 -0.2529 -3.1979  0.5837
   93SAPE  C316 9238   5.997   3.004   4.498 -0.2037 -0.6930 -0.9381
   93SAPE  H16X 9239   6.087   3.035   4.554 -0.4273 -0.0571 -0.9246
   93SAPE  H16Y 9240   6.027   3.041   4.398 -0.3445  0.3375 -0.6064
   93SAPE  C317 9241   5.978   2.850   4.492 -0.0771  0.6635  0.2906
   93SAPE  H17X 9242   5.884   2.824   4.439  0.0154 -1.1098  0.9331
   93SAPE  H17Y 9243   5.963   2.814   4.596  1.1425 -1.0810 -0.0837
   93SAPE  C318 9244   6.082   2.759   4.430  0.4475 -0.5394 -0.3142
   93SAPE  H18X 9245   6.185   2.767   4.471  0.6354  0.2185 -0.9128
   93SAPE  H18Y 9246   6.096   2.785   4.323  2.5279  0.1759  0.0759
   93SAPE  H18Z 9247   6.043   2.655   4.435 -0.6943 -0.1646 -1.0473
   94SAPE     N 9248   3.405   4.891   6.762 -0.0002 -0.7139  0.4756
   94SAPE   HN1 9249   3.401   4.817   6.689 -3.4656  0.1058 -0.3524
   94SAPE   HN2 9250   3.320   4.872   6.820 -1.4735 -0.4222 -1.4832
   94SAPE   HN3 9251   3.388   4.983   6.715  0.1837 -1.0449 -0.2559
   94SAPE   C12 9252   3.536   4.901   6.833 -0.2698 -0.0765 -0.1124
   94SAPE  H12A 9253   3.612   4.928   6.757 -0.3423  0.3105 -0.0494
   94SAPE  H12B 9254   3.551   4.798   6.871  0.9771  0.1704  0.1203
   94SAPE   C11 9255   3.527   4.983   6.963 -0.9271 -0.3459 -0.0787
   94SAPE  H11A 9256   3.447   4.951   7.033  0.3273  0.1147  1.6322
   94SAPE  H11B 9257   3.489   5.086   6.947 -2.2955 -0.8522 -0.2512
   94SAPE     P 9258   3.761   5.090   7.028 -0.3751  0.1936  0.5401
   94SAPE   O13 9259   3.690   5.217   7.037  0.5581 -0.0838 -0.5924
   94SAPE   O14 9260   3.854   5.059   7.133 -0.7960 -0.3805 -0.6074
   94SAPE   O12 9261   3.654   4.974   7.015 -0.0789 -0.4121 -0.0076
   94SAPE   O11 9262   3.835   5.075   6.884  0.0968 -0.6909  0.2182
   94SAPE    C1 9263   3.889   4.949   6.849  0.1250  0.0022  0.0462
   94SAPE    HA 9264   3.857   4.866   6.915  0.4517 -0.7957 -0.7881
   94SAPE    HB 9265   3.869   4.923   6.743  0.3125 -0.5036  0.1334
   94SAPE    C2 9266   4.048   4.942   6.856  0.3310  0.1740  0.7791
   94SAPE    HS 9267   4.077   4.973   6.959  0.4196  1.0175  0.5071
   94SAPE   O21 9268   4.100   5.027   6.753  0.3701 -0.5234 -0.1967
   94SAPE   C21 9269   4.233   5.036   6.774  0.4861 -0.0129  0.2926
   94SAPE   O22 9270   4.291   5.003   6.873 -0.3632  0.1379  0.0661
   94SAPE   C22 9271   4.284   5.100   6.643 -0.1666  0.4986  0.1945
   94SAPE   H2R 9272   4.231   5.196   6.622 -0.9265 -0.1654 -1.0202
   94SAPE   H2S 9273   4.385   5.141   6.663 -0.4496  2.3534 -1.7953
   94SAPE    C3 9274   4.106   4.791   6.844  0.0751  0.3552  0.6726
   94SAPE    HX 9275   4.052   4.722   6.911 -2.0266 -1.0936 -2.2784
   94SAPE    HY 9276   4.214   4.789   6.872  0.6435  3.0204 -0.9425
   94SAPE   O31 9277   4.108   4.740   6.707  0.4729  0.6763 -0.0821
   94SAPE   C31 9278   4.139   4.612   6.707 -0.2329 -0.8168 -0.6662
   94SAPE   O32 9279   4.166   4.552   6.811  0.6060  0.1464 -0.4194
   94SAPE   C32 9280   4.142   4.546   6.564  0.0123  0.2020  0.0409
   94SAPE   H2X 9281   4.047   4.577   6.516  0.8248 -0.5350 -2.1463
   94SAPE   H2Y 9282   4.151   4.436   6.569  2.9929  0.3794  0.6649
   94SAPE   C23 9283   4.283   5.013   6.520 -0.2393 -0.4722 -0.4237
   94SAPE   H3R 9284   4.181   4.970   6.517 -1.3644  2.0059 -0.5594
   94SAPE   H3S 9285   4.364   4.938   6.529 -2.3526 -2.7230  0.9196
   94SAPE   C24 9286   4.297   5.101   6.395 -0.5008 -0.1533 -0.3130
   94SAPE   H4R 9287   4.402   5.138   6.387  0.5411 -2.5454  1.0633
   94SAPE   H4S 9288   4.220   5.180   6.406 -0.4130 -0.0284 -0.5633
   94SAPE   C25 9289   4.264   5.004   6.286  0.2258 -0.2237  0.2945
   94SAPE   H5R 9290   4.172   4.943   6.288 -0.0500  0.1994  0.9811
   94SAPE   C26 9291   4.348   4.975   6.187 -0.2548 -0.1122  0.3075
   94SAPE   H6R 9292   4.307   4.924   6.098  0.0340  0.1309  0.0353
   94SAPE   C27 9293   4.485   5.027   6.166 -0.1387 -1.0234 -1.0732
   94SAPE   H7R 9294   4.548   4.951   6.115  1.5346 -0.0130 -0.5820
   94SAPE   H7S 9295   4.531   5.029   6.267  0.6787 -0.8407 -1.4416
   94SAPE   C28 9296   4.472   5.153   6.084 -0.2323 -0.5382 -0.3850
   94SAPE   H8R 9297   4.421   5.236   6.135 -0.5244 -1.7701  1.4690
   94SAPE   C29 9298   4.551   5.178   5.975 -0.2433  0.0601  0.3758
   94SAPE   H9R 9299   4.523   5.265   5.915 -1.7397 -1.4172 -1.1893
   94SAPE  C210 9300   4.636   5.077   5.900 -0.2829 -0.1136  0.5310
   94SAPE  H10R 9301   4.567   5.023   5.831  1.8187 -2.3094  0.0241
   94SAPE  H10S 9302   4.672   5.002   5.973 -1.1391 -0.8598  0.2069
   94SAPE  C211 9303   4.744   5.152   5.825  0.0510 -0.1260  0.4878
   94SAPE  H11R 9304   4.813   5.207   5.891  0.4129 -1.7860  1.5494
   94SAPE  C212 9305   4.766   5.150   5.693 -0.5974 -0.8215 -0.5463
   94SAPE  H12R 9306   4.858   5.200   5.658 -0.8571  0.2311  0.2130
   94SAPE  C213 9307   4.697   5.081   5.575  0.3869 -1.0548 -0.3560
   94SAPE  H13R 9308   4.635   5.164   5.533  0.3799  0.7648  2.9328
   94SAPE  H13S 9309   4.627   4.999   5.601  1.1139 -1.6019 -0.0993
   94SAPE  C214 9310   4.781   5.028   5.464  0.5912 -0.0970 -0.1750
   94SAPE  H14R 9311   4.780   4.918   5.465 -1.5087 -0.1143  0.2838
   94SAPE  C215 9312   4.860   5.095   5.375  1.0282 -0.5121  0.3142
   94SAPE  H15R 9313   4.895   5.030   5.293  0.0191 -0.9479  0.2076
   94SAPE  C216 9314   4.882   5.244   5.372 -0.1993 -0.0981 -0.4317
   94SAPE  H16R 9315   4.969   5.279   5.432 -1.3226 -0.2268  1.3181
   94SAPE  H16S 9316   4.799   5.294   5.426 -0.1157 -0.7631  0.3349
   94SAPE  C217 9317   4.874   5.305   5.229 -0.5896 -1.5913 -0.7059
   94SAPE  H17R 9318   4.769   5.301   5.193 -0.9337  0.2783 -0.0435
   94SAPE  H17S 9319   4.933   5.237   5.165  0.9149 -1.3052  0.3283
   94SAPE  C218 9320   4.927   5.449   5.219 -0.2404 -0.3804  0.3705
   94SAPE  H18R 9321   4.935   5.485   5.114 -0.4547  0.6649  0.7011
   94SAPE  H18S 9322   5.030   5.448   5.259  0.1230 -1.1609 -0.5323
   94SAPE  C219 9323   4.853   5.562   5.289  0.7632 -0.3314  0.0055
   94SAPE  H19R 9324   4.903   5.660   5.272  2.4467 -0.9112  1.3306
   94SAPE  H19S 9325   4.863   5.539   5.397 -0.8744 -3.0063 -0.3111
   94SAPE  C220 9326   4.709   5.588   5.244  0.5754  0.7155  0.3858
   94SAPE  H20R 9327   4.693   5.604   5.135 -0.7382 -2.0949  0.0752
   94SAPE  H20S 9328   4.661   5.665   5.308  1.6514  1.6019  0.1657
   94SAPE  H20T 9329   4.648   5.495   5.247 -0.0156  1.0844  0.0900
   94SAPE   C33 9330   4.245   4.607   6.470 -0.0440  0.0239  0.1630
   94SAPE   H3X 9331   4.260   4.715   6.493  1.1806 -0.3362  1.1748
   94SAPE   H3Y 9332   4.209   4.604   6.365  0.9875  2.4960 -0.3544
   94SAPE   C34 9333   4.385   4.537   6.478  0.2271  0.0801 -0.5065
   94SAPE   H4X 9334   4.378   4.428   6.456 -2.3591  0.0866  0.0294
   94SAPE   H4Y 9335   4.422   4.552   6.582  0.6404  1.1774 -0.8002
   94SAPE   C35 9336   4.489   4.602   6.376  0.3745 -0.0830 -0.2327
   94SAPE   H5X 9337   4.587   4.565   6.411 -0.4169 -0.8132  1.3305
   94SAPE   H5Y 9338   4.490   4.712   6.392 -1.2106 -0.1965  0.9701
   94SAPE   C36 9339   4.444   4.573   6.236 -0.7302  0.2755  0.5970
   94SAPE   H6X 9340   4.356   4.635   6.209 -3.5448 -2.0244  3.6900
   94SAPE   H6Y 9341   4.409   4.468   6.232 -1.5850  0.5742 -0.1376
   94SAPE   C37 9342   4.567   4.571   6.145  0.1286 -0.2076  0.0489
   94SAPE   H7X 9343   4.632   4.488   6.180 -1.0658 -1.2952 -0.2046
   94SAPE   H7Y 9344   4.611   4.672   6.157 -0.6495  0.0802  0.6151
   94SAPE   C38 9345   4.532   4.557   5.992 -0.2866  0.1135 -0.4023
   94SAPE   H8X 9346   4.463   4.470   5.985  0.0467 -0.2435  0.5218
   94SAPE   H8Y 9347   4.630   4.541   5.943 -0.5612  3.2809 -2.2235
   94SAPE   C39 9348   4.497   4.697   5.940 -0.5995  0.1313 -0.0968
   94SAPE   H9X 9349   4.582   4.765   5.963  1.4618 -1.9146 -1.2366
   94SAPE   H9Y 9350   4.404   4.730   5.992 -0.6894  0.6161 -0.5668
   94SAPE  C310 9351   4.462   4.718   5.783  0.0674  0.5460  0.4075
   94SAPE  H10X 9352   4.445   4.825   5.757 -0.0768  0.3040 -0.5332
   94SAPE  H10Y 9353   4.363   4.667   5.776  1.6393 -2.9810  1.8138
   94SAPE  C311 9354   4.568   4.660   5.684  0.2320  0.0790  0.8096
   94SAPE  H11X 9355   4.578   4.550   5.697  0.9113  0.2514  1.8450
   94SAPE  H11Y 9356   4.668   4.708   5.690 -0.9759  3.1219 -0.9897
   94SAPE  C312 9357   4.521   4.684   5.538 -0.1807  0.1926  0.2017
   94SAPE  H12X 9358   4.540   4.789   5.507  3.5775 -1.0021 -2.2873
   94SAPE  H12Y 9359   4.411   4.681   5.524 -0.1657  0.0444  0.1072
   94SAPE  C313 9360   4.589   4.597   5.429 -0.1434 -0.5406 -1.0383
   94SAPE  H13X 9361   4.549   4.495   5.411  0.8787 -1.1036 -0.2465
   94SAPE  H13Y 9362   4.687   4.588   5.480 -0.1245 -0.0975 -0.9901
   94SAPE  C314 9363   4.610   4.683   5.305  0.0630 -0.8216 -0.7088
   94SAPE  H14X 9364   4.676   4.767   5.333 -1.2504 -0.1562  0.5580
   94SAPE  H14Y 9365   4.516   4.727   5.267 -1.1024  0.1947  2.9042
   94SAPE  C315 9366   4.690   4.614   5.194 -0.4997  0.1120  0.0542
   94SAPE  H15X 9367   4.647   4.518   5.157 -0.8928  0.0662  0.6218
   94SAPE  H15Y 9368   4.798   4.601   5.219 -0.4599 -0.3207 -0.3182
   94SAPE  C316 9369   4.691   4.702   5.067  0.5387 -0.0104  0.2427
   94SAPE  H16X 9370   4.704   4.805   5.106  3.0353 -0.0254 -0.4149
   94SAPE  H16Y 9371   4.599   4.688   5.005  0.1950 -1.3217  1.0048
   94SAPE  C317 9372   4.826   4.691   5.000  0.2226  0.3808 -0.3412
   94SAPE  H17X 9373   4.904   4.747   5.056  0.6594  0.6345 -1.1859
   94SAPE  H17Y 9374   4.835   4.753   4.909  0.7488  0.0872 -0.4916
   94SAPE  C318 9375   4.890   4.566   4.951  0.3009 -0.0048 -0.1114
   94SAPE  H18X 9376   4.873   4.558   4.841  2.3739 -0.4783 -0.4304
   94SAPE  H18Y 9377   4.846   4.472   4.990  0.4061  0.1569  0.3986
   94SAPE  H18Z 9378   4.999   4.567   4.973  0.4996  2.1303 -1.0192
   95SAPE     N 9379   0.504   4.456   7.134 -0.0914  0.1297  0.7503
   95SAPE   HN1 9380   0.424   4.406   7.178 -1.8415  2.9214  0.9815
   95SAPE   HN2 9381   0.590   4.421   7.180  1.4362 -1.4421 -2.9002
   95SAPE   HN3 9382   0.479   4.555   7.153 -1.0515 -0.2378  1.4824
   95SAPE   C12 9383   0.482   4.413   6.982 -0.7455 -0.7863 -0.1275
   95SAPE  H12A 9384   0.413   4.488   6.938  1.8598  1.5717 -0.4845
   95SAPE  H12B 9385   0.434   4.313   6.985  0.7417 -1.5065  0.3629
   95SAPE   C11 9386   0.613   4.411   6.902 -1.1836 -0.0233 -0.5568
   95SAPE  H11A 9387   0.598   4.385   6.795 -0.1586 -1.7284 -0.3058
   95SAPE  H11B 9388   0.677   4.342   6.960  0.5727  1.2115 -0.9507
   95SAPE     P 9389   0.652   4.669   6.835  0.3779 -0.1286  0.1598
   95SAPE   O13 9390   0.509   4.708   6.864 -0.4495 -0.2936 -0.2501
   95SAPE   O14 9391   0.760   4.758   6.877  0.4189 -0.0098  0.5596
   95SAPE   O12 9392   0.689   4.533   6.903  0.4741 -0.3654  0.8709
   95SAPE   O11 9393   0.674   4.631   6.684 -0.4670  0.1981  0.0803
   95SAPE    C1 9394   0.808   4.584   6.648  0.1114  0.0374 -0.3846
   95SAPE    HA 9395   0.897   4.638   6.685  1.1219 -1.1916 -0.9504
   95SAPE    HB 9396   0.826   4.480   6.683 -0.1614 -0.0362 -0.4569
   95SAPE    C2 9397   0.825   4.579   6.493  0.2409  0.3820 -0.7796
   95SAPE    HS 9398   0.839   4.687   6.473 -2.3657  1.1826  1.1504
   95SAPE   O21 9399   0.712   4.524   6.427  0.0243  0.7435  0.1124
   95SAPE   C21 9400   0.704   4.560   6.305  0.4984 -0.4515 -0.0181
   95SAPE   O22 9401   0.760   4.660   6.255 -0.3085 -0.2327  0.1496
   95SAPE   C22 9402   0.608   4.472   6.226 -0.5225  0.2610  0.6060
   95SAPE   H2R 9403   0.617   4.367   6.263  2.7308  0.6540  1.2354
   95SAPE   H2S 9404   0.506   4.515   6.237 -0.7676  0.3080 -1.4681
   95SAPE    C3 9405   0.961   4.509   6.453 -0.1570 -0.1807 -0.9279
   95SAPE    HX 9406   0.951   4.406   6.494 -0.6923  0.3377  0.3027
   95SAPE    HY 9407   1.042   4.549   6.518 -1.6063  0.9358  0.2796
   95SAPE   O31 9408   0.987   4.516   6.312 -0.0631 -0.3596  0.9831
   95SAPE   C31 9409   1.053   4.620   6.259  0.5426  0.5175 -0.0949
   95SAPE   O32 9410   1.078   4.719   6.326  0.0785  0.8583  0.1691
   95SAPE   C32 9411   1.074   4.595   6.114  0.6691  0.2401  0.2357
   95SAPE   H2X 9412   1.039   4.497   6.075 -2.2657  0.9087  0.9217
   95SAPE   H2Y 9413   1.183   4.592   6.094  0.7947 -0.9780  1.0047
   95SAPE   C23 9414   0.655   4.467   6.079  0.7415  0.6728  0.3540
   95SAPE   H3R 9415   0.741   4.398   6.064  1.6291  1.7960  0.1149
   95SAPE   H3S 9416   0.690   4.566   6.042  1.8865  0.1972  0.1035
   95SAPE   C24 9417   0.545   4.419   5.981 -0.4419  0.1991  0.5997
   95SAPE   H4R 9418   0.579   4.424   5.875 -1.5021 -0.0475  0.2356
   95SAPE   H4S 9419   0.453   4.482   5.974 -0.3544  0.1607 -2.7040
   95SAPE   C25 9420   0.481   4.283   6.014  0.9105  0.4087  0.2089
   95SAPE   H5R 9421   0.452   4.261   6.118  0.5727  1.0095  0.2473
   95SAPE   C26 9422   0.444   4.189   5.927  0.4515 -0.0957 -0.4954
   95SAPE   H6R 9423   0.407   4.097   5.974  3.6431 -1.4405 -0.3322
   95SAPE   C27 9424   0.469   4.186   5.779 -0.2166 -0.5546 -0.2474
   95SAPE   H7R 9425   0.468   4.293   5.749  1.6735 -0.1843  0.8052
   95SAPE   H7S 9426   0.378   4.145   5.732  0.2155  0.6501 -2.2326
   95SAPE   C28 9427   0.602   4.127   5.733  0.4503 -0.3262  1.1361
   95SAPE   H8R 9428   0.683   4.108   5.805  1.2785 -2.3474 -0.2421
   95SAPE   C29 9429   0.645   4.146   5.607  0.2542  0.2305  0.2584
   95SAPE   H9R 9430   0.745   4.109   5.579  0.1715  0.5828 -0.5201
   95SAPE  C210 9431   0.562   4.200   5.489  0.1302  0.5147 -0.2785
   95SAPE  H10R 9432   0.455   4.177   5.506 -0.2948  2.6566  0.2014
   95SAPE  H10S 9433   0.583   4.156   5.389 -2.0373  2.4876 -1.7073
   95SAPE  C211 9434   0.572   4.352   5.481 -0.1212  0.0885 -0.2465
   95SAPE  H11R 9435   0.539   4.399   5.575  0.6829  0.5192 -0.1677
   95SAPE  C212 9436   0.636   4.423   5.393  0.6779 -0.8538 -0.0627
   95SAPE  H12R 9437   0.624   4.532   5.400  2.1982 -0.5730 -1.3767
   95SAPE  C213 9438   0.706   4.381   5.266 -0.3499 -0.4626 -0.3296
   95SAPE  H13R 9439   0.767   4.289   5.280  0.0839 -0.0570  0.5702
   95SAPE  H13S 9440   0.796   4.443   5.249  0.2961 -0.9781  1.0802
   95SAPE  C214 9441   0.614   4.371   5.153 -0.7599 -0.2223  0.0456
   95SAPE  H14R 9442   0.519   4.317   5.165 -0.7602 -0.5308 -1.2183
   95SAPE  C215 9443   0.642   4.431   5.033 -0.0584  0.4198  0.0971
   95SAPE  H15R 9444   0.561   4.432   4.958 -1.6049  2.9765  1.6620
   95SAPE  C216 9445   0.761   4.502   4.988 -0.1266 -0.9175  0.3038
   95SAPE  H16R 9446   0.809   4.452   4.902  0.5218 -0.0017  0.1143
   95SAPE  H16S 9447   0.838   4.518   5.067  0.9135  1.1937 -1.0507
   95SAPE  C217 9448   0.733   4.645   4.946 -0.1896  0.2506 -0.1403
   95SAPE  H17R 9449   0.826   4.702   4.922 -0.2323 -0.2412 -1.5525
   95SAPE  H17S 9450   0.686   4.701   5.030  2.2793  2.2948  0.0202
   95SAPE  C218 9451   0.637   4.653   4.824 -0.2100 -0.1655 -0.1306
   95SAPE  H18R 9452   0.536   4.616   4.852 -0.2043  0.7338  1.1875
   95SAPE  H18S 9453   0.678   4.597   4.738  1.4899  0.1497  0.4429
   95SAPE  C219 9454   0.630   4.801   4.766 -0.5308 -0.1281  0.3828
   95SAPE  H19R 9455   0.646   4.871   4.850  1.9114 -1.0194  0.7734
   95SAPE  H19S 9456   0.530   4.820   4.723  0.0363 -1.0155 -1.4484
   95SAPE  C220 9457   0.733   4.832   4.656 -0.2073  0.0568  0.5183
   95SAPE  H20R 9458   0.719   4.938   4.627  0.1109 -0.0494 -0.0252
   95SAPE  H20S 9459   0.714   4.771   4.566 -2.6226  0.9427  0.3527
   95SAPE  H20T 9460   0.838   4.812   4.687 -0.2461 -0.0604  0.5760
   95SAPE   C33 9461   1.007   4.697   6.021  0.0553 -0.6044 -0.0816
   95SAPE   H3X 9462   1.052   4.795   6.047 -0.8768  0.0366 -0.8182
   95SAPE   H3Y 9463   0.897   4.704   6.032  0.1284  0.1077  0.2714
   95SAPE   C34 9464   1.035   4.678   5.872  0.1602 -0.5398 -0.0652
   95SAPE   H4X 9465   0.995   4.579   5.841 -1.8269  0.4953 -0.9778
   95SAPE   H4Y 9466   1.144   4.667   5.853  0.1686  0.9983 -1.0265
   95SAPE   C35 9467   0.979   4.792   5.783 -0.3089 -0.3725  0.8618
   95SAPE   H5X 9468   1.029   4.886   5.817 -3.4190  2.2956 -1.2519
   95SAPE   H5Y 9469   0.872   4.822   5.788  0.2253  2.0144 -0.2695
   95SAPE   C36 9470   1.008   4.765   5.634 -0.2595 -0.8332 -0.5414
   95SAPE   H6X 9471   0.956   4.674   5.596 -0.6051 -0.8583 -0.0227
   95SAPE   H6Y 9472   1.118   4.749   5.626 -0.0777 -0.1444  0.3610
   95SAPE   C37 9473   0.973   4.882   5.535  1.3578 -0.1388  0.8109
   95SAPE   H7X 9474   1.029   4.978   5.545 -2.7508  2.6646 -0.3078
   95SAPE   H7Y 9475   0.869   4.915   5.558  2.2653  1.8670  2.3899
   95SAPE   C38 9476   0.988   4.839   5.383  0.1981 -0.0200  1.3782
   95SAPE   H8X 9477   0.916   4.756   5.369  0.3926 -0.0836  0.7427
   95SAPE   H8Y 9478   1.092   4.805   5.365  0.2518  0.0306  1.5883
   95SAPE   C39 9479   0.956   4.956   5.290  0.2234 -0.1166 -0.2439
   95SAPE   H9X 9480   1.030   5.038   5.303  1.4907 -1.3644  0.5602
   95SAPE   H9Y 9481   0.854   4.996   5.310 -0.0690 -0.5316 -0.8758
   95SAPE  C310 9482   0.969   4.915   5.145  0.1790 -0.1509 -0.8218
   95SAPE  H10X 9483   0.903   4.827   5.127  2.2369 -2.4710  1.9909
   95SAPE  H10Y 9484   1.074   4.878   5.137  1.0329  1.0230  2.8702
   95SAPE  C311 9485   0.941   5.021   5.043  0.3799  0.2348  0.5606
   95SAPE  H11X 9486   0.985   5.117   5.079  0.9731  0.2317 -0.1207
   95SAPE  H11Y 9487   0.832   5.025   5.022  0.0511  0.1724  2.1378
   95SAPE  C312 9488   1.006   4.991   4.908  0.1137  1.0060 -0.5082
   95SAPE  H12X 9489   0.974   4.895   4.862  1.6097 -0.2468  0.9252
   95SAPE  H12Y 9490   1.113   4.986   4.936 -0.5320  1.1372  2.3154
   95SAPE  C313 9491   0.974   5.100   4.799  0.3465 -0.2005 -0.2076
   95SAPE  H13X 9492   0.864   5.099   4.781  0.7362 -0.5161 -3.1219
   95SAPE  H13Y 9493   1.032   5.072   4.708  2.5355 -0.0866  1.0938
   95SAPE  C314 9494   1.011   5.245   4.836 -0.5307 -0.2555 -0.3685
   95SAPE  H14X 9495   1.114   5.258   4.876  0.1602 -0.1607 -2.0684
   95SAPE  H14Y 9496   0.946   5.276   4.920 -0.2111  0.0173 -0.2208
   95SAPE  C315 9497   0.996   5.333   4.713 -0.1477 -0.2422  0.5312
   95SAPE  H15X 9498   0.893   5.326   4.673 -0.5757  0.0748  1.5470
   95SAPE  H15Y 9499   1.069   5.320   4.630 -0.0752  0.3240  0.4955
   95SAPE  C316 9500   1.004   5.479   4.764 -0.4485  0.1449 -0.0834
   95SAPE  H16X 9501   1.100   5.478   4.820 -1.1147 -0.8325  1.0930
   95SAPE  H16Y 9502   0.918   5.500   4.831 -1.1592 -1.0803 -0.5757
   95SAPE  C317 9503   0.992   5.593   4.657 -0.2461 -0.8048  0.2625
   95SAPE  H17X 9504   0.936   5.565   4.566  2.0571  1.0380 -1.8802
   95SAPE  H17Y 9505   1.091   5.600   4.606 -1.5228 -0.2079 -2.2946
   95SAPE  C318 9506   0.946   5.729   4.709  0.4196 -0.8655 -0.0770
   95SAPE  H18X 9507   0.836   5.742   4.722  0.3778 -1.3035  0.0244
   95SAPE  H18Y 9508   0.955   5.810   4.633 -1.2211  0.1583  0.7424
   95SAPE  H18Z 9509   0.997   5.763   4.802 -1.9474 -0.1826  1.0652
   96SAPE     N 9510   3.001   6.500   6.870 -0.3330  0.3227 -0.0294
   96SAPE   HN1 9511   2.909   6.488   6.916  0.6862 -2.2083  1.5662
   96SAPE   HN2 9512   3.074   6.442   6.915 -0.8872 -0.4337 -0.0807
   96SAPE   HN3 9513   3.025   6.599   6.887  1.1333 -0.2852  1.7595
   96SAPE   C12 9514   2.994   6.482   6.727  0.2803 -0.5275  0.6828
   96SAPE  H12A 9515   2.973   6.377   6.696  1.0851 -0.0491 -1.7434
   96SAPE  H12B 9516   3.089   6.516   6.680 -0.0058 -0.3336  0.2406
   96SAPE   C11 9517   2.876   6.566   6.669  0.4502 -0.0115  0.5623
   96SAPE  H11A 9518   2.800   6.486   6.663  0.2717  0.2145 -0.3548
   96SAPE  H11B 9519   2.900   6.571   6.561 -1.5665 -0.5398  0.0561
   96SAPE     P 9520   2.931   6.821   6.717  0.0470 -0.0511 -0.0965
   96SAPE   O13 9521   2.863   6.938   6.766  0.0889  0.1843  0.1653
   96SAPE   O14 9522   3.061   6.792   6.783 -0.2996  0.0186  0.0817
   96SAPE   O12 9523   2.840   6.693   6.736  0.1189 -0.2818  0.2251
   96SAPE   O11 9524   2.964   6.824   6.560  0.3615  0.0371  0.3826
   96SAPE    C1 9525   2.853   6.856   6.474 -0.0927 -0.6195 -0.5856
   96SAPE    HA 9526   2.751   6.818   6.498 -1.6763  1.6119 -3.1511
   96SAPE    HB 9527   2.832   6.964   6.489  1.1306 -0.3281 -0.8797
   96SAPE    C2 9528   2.879   6.824   6.334  0.1615 -0.4914  0.7828
   96SAPE    HS 9529   2.777   6.816   6.290 -0.2159 -1.7144  1.8115
   96SAPE   O21 9530   2.945   6.698   6.328  0.8597  0.3620  0.4188
   96SAPE   C21 9531   2.938   6.636   6.213 -0.1593 -0.7383 -0.3101
   96SAPE   O22 9532   2.865   6.674   6.117 -0.2256 -0.3198 -0.8714
   96SAPE   C22 9533   3.041   6.522   6.220 -0.1332 -0.3241 -0.1236
   96SAPE   H2R 9534   3.141   6.571   6.219  0.1840 -0.8421  1.8188
   96SAPE   H2S 9535   3.034   6.477   6.321  1.3209  2.2982  1.2610
   96SAPE    C3 9536   2.955   6.938   6.265 -0.4100 -0.8880 -0.6395
   96SAPE    HX 9537   3.053   6.927   6.315 -0.6929 -1.4873 -0.1959
   96SAPE    HY 9538   2.923   7.042   6.289  0.3131 -0.8960  0.4204
   96SAPE   O31 9539   2.960   6.932   6.122 -0.5026  0.7746  0.7158
   96SAPE   C31 9540   2.852   6.970   6.059  0.7346  0.2004  0.0393
   96SAPE   O32 9541   2.753   7.021   6.111 -0.3552 -0.4853 -0.0612
   96SAPE   C32 9542   2.865   6.935   5.913  0.0933 -0.4845  0.0150
   96SAPE   H2X 9543   2.853   6.824   5.916  0.8226 -0.6323 -1.8170
   96SAPE   H2Y 9544   2.967   6.952   5.874 -1.1039  1.2359 -2.6463
   96SAPE   C23 9545   3.049   6.413   6.107  0.7456  0.2273  0.5209
   96SAPE   H3R 9546   3.130   6.343   6.138  3.3097  2.5791 -0.4732
   96SAPE   H3S 9547   3.068   6.454   6.005 -0.7163 -1.1907 -0.3645
   96SAPE   C24 9548   2.915   6.338   6.102 -0.4781 -0.7421 -0.3824
   96SAPE   H4R 9549   2.841   6.413   6.065  1.3485 -0.1697 -3.1050
   96SAPE   H4S 9550   2.878   6.318   6.205  0.8510 -0.3791  0.1820
   96SAPE   C25 9551   2.917   6.205   6.041  0.3142  1.0902  0.1918
   96SAPE   H5R 9552   2.930   6.123   6.114 -0.3880 -0.9570 -1.8468
   96SAPE   C26 9553   2.902   6.182   5.910 -0.4757 -0.4269  0.4930
   96SAPE   H6R 9554   2.906   6.078   5.874  3.9473  0.9037 -3.9107
   96SAPE   C27 9555   2.907   6.282   5.791 -0.0876 -0.3320 -0.4382
   96SAPE   H7R 9556   2.909   6.389   5.822 -0.8915 -0.3277 -0.3934
   96SAPE   H7S 9557   2.808   6.271   5.742 -0.4305  0.8954 -0.0775
   96SAPE   C28 9558   3.030   6.256   5.709  0.0098 -0.8598 -0.4150
   96SAPE   H8R 9559   3.128   6.249   5.759  0.2429 -2.0167 -1.0068
   96SAPE   C29 9560   3.037   6.248   5.575 -0.0129  0.7144  0.4198
   96SAPE   H9R 9561   3.132   6.222   5.527 -0.9629  0.7215 -1.5659
   96SAPE  C210 9562   2.924   6.274   5.480 -0.1797 -0.4221  0.5724
   96SAPE  H10R 9563   2.952   6.364   5.421  1.2796 -0.6667  0.8596
   96SAPE  H10S 9564   2.836   6.303   5.542 -0.0955  2.5555 -0.5338
   96SAPE  C211 9565   2.886   6.158   5.393 -0.2703  0.2446 -0.0941
   96SAPE  H11R 9566   2.894   6.057   5.436  1.1500  0.7507  0.8935
   96SAPE  C212 9567   2.860   6.173   5.261  0.4731  0.2140  0.6912
   96SAPE  H12R 9568   2.834   6.079   5.211  1.0778 -2.4252  4.8325
   96SAPE  C213 9569   2.859   6.294   5.172  0.2046  0.3453 -0.5666
   96SAPE  H13R 9570   2.871   6.262   5.066 -3.5159 -0.0066 -1.0060
   96SAPE  H13S 9571   2.941   6.361   5.205 -1.2346  2.0096 -0.2714
   96SAPE  C214 9572   2.732   6.378   5.192  0.3639 -0.6374 -0.1800
   96SAPE  H14R 9573   2.700   6.401   5.294 -1.7588 -2.3371 -0.3933
   96SAPE  C215 9574   2.657   6.449   5.103 -0.4906  0.3915 -0.3283
   96SAPE  H15R 9575   2.571   6.505   5.143 -2.4732 -3.3405  1.1047
   96SAPE  C216 9576   2.674   6.450   4.950  0.1718 -0.3448  0.8181
   96SAPE  H16R 9577   2.598   6.379   4.912  0.1184  0.5657 -0.8927
   96SAPE  H16S 9578   2.774   6.405   4.933  0.4433  0.4037  0.3854
   96SAPE  C217 9579   2.670   6.587   4.889 -0.3052 -0.2903 -0.3960
   96SAPE  H17R 9580   2.755   6.648   4.927 -0.1327  0.0468 -1.2800
   96SAPE  H17S 9581   2.576   6.638   4.922 -2.0235 -3.2870 -0.2733
   96SAPE  C218 9582   2.682   6.589   4.736 -1.0001 -0.1093 -0.9229
   96SAPE  H18R 9583   2.773   6.531   4.711  0.4959  0.0069  3.2935
   96SAPE  H18S 9584   2.698   6.697   4.713  1.7659 -0.0239  0.9454
   96SAPE  C219 9585   2.557   6.552   4.655 -0.4008  1.0412 -0.1706
   96SAPE  H19R 9586   2.470   6.606   4.697 -0.4722  0.6431  0.2030
   96SAPE  H19S 9587   2.545   6.445   4.684 -1.0185  0.4002 -2.5790
   96SAPE  C220 9588   2.588   6.556   4.508 -0.3974 -0.2332 -0.0359
   96SAPE  H20R 9589   2.656   6.476   4.473 -0.5793 -0.6326  0.5149
   96SAPE  H20S 9590   2.642   6.652   4.495 -0.4655  0.0106  1.3984
   96SAPE  H20T 9591   2.491   6.566   4.454 -0.5728 -1.7017 -0.0234
   96SAPE   C33 9592   2.755   6.993   5.810 -0.2814  0.2349  0.3071
   96SAPE   H3X 9593   2.660   6.992   5.867 -0.7231 -2.1459 -0.3428
   96SAPE   H3Y 9594   2.740   6.921   5.727 -0.0993  1.8321 -1.1711
   96SAPE   C34 9595   2.789   7.131   5.757 -0.1006  0.3405  0.1028
   96SAPE   H4X 9596   2.829   7.199   5.835  2.5509  0.1245 -0.9590
   96SAPE   H4Y 9597   2.696   7.178   5.718  1.1351  1.0557 -2.2143
   96SAPE   C35 9598   2.882   7.128   5.631 -0.8752  1.4711  0.4946
   96SAPE   H5X 9599   2.827   7.067   5.556  0.1933 -2.5161  2.6561
   96SAPE   H5Y 9600   2.971   7.068   5.657 -1.4875  0.6724  0.8131
   96SAPE   C36 9601   2.920   7.262   5.575 -0.4296 -0.1252  0.0876
   96SAPE   H6X 9602   2.965   7.305   5.667 -1.4142 -3.0835  2.0909
   96SAPE   H6Y 9603   2.834   7.326   5.545  0.7388  1.4261 -0.1020
   96SAPE   C37 9604   3.022   7.256   5.463  0.1054  0.7502  0.7223
   96SAPE   H7X 9605   3.119   7.212   5.495 -0.7941 -2.8666 -1.0406
   96SAPE   H7Y 9606   3.044   7.361   5.433  0.2107  1.2160  2.3009
   96SAPE   C38 9607   2.983   7.172   5.347  0.3408 -0.6307 -0.1424
   96SAPE   H8X 9608   2.872   7.177   5.337  0.5050  1.6797 -1.5896
   96SAPE   H8Y 9609   3.007   7.065   5.364  0.9288 -0.4697  0.0507
   96SAPE   C39 9610   3.048   7.206   5.209 -0.0753  0.0963  0.2595
   96SAPE   H9X 9611   3.022   7.299   5.154 -2.7072 -0.1522  0.9311
   96SAPE   H9Y 9612   3.018   7.129   5.135 -0.1637  0.9703 -0.6380
   96SAPE  C310 9613   3.207   7.206   5.220  0.4051 -0.5347 -0.1105
   96SAPE  H10X 9614   3.244   7.113   5.267  2.9927  0.8682  0.8616
   96SAPE  H10Y 9615   3.226   7.282   5.299 -1.8086 -1.0356  1.0026
   96SAPE  C311 9616   3.291   7.218   5.097 -0.6149 -0.4635  0.5663
   96SAPE  H11X 9617   3.260   7.301   5.030 -1.6102 -0.7877  0.6061
   96SAPE  H11Y 9618   3.282   7.123   5.042  0.5817 -2.1297  3.0574
   96SAPE  C312 9619   3.441   7.248   5.144  0.3456  0.2078  0.2380
   96SAPE  H12X 9620   3.463   7.177   5.226  0.8084 -1.8011 -1.5516
   96SAPE  H12Y 9621   3.436   7.355   5.175  0.1446  0.0794  0.6566
   96SAPE  C313 9622   3.548   7.210   5.040 -0.2270  0.4101 -0.2232
   96SAPE  H13X 9623   3.651   7.238   5.071  1.1354 -3.2519 -0.8977
   96SAPE  H13Y 9624   3.526   7.274   4.952 -1.4865  0.4362  0.0903
   96SAPE  C314 9625   3.558   7.064   5.003 -0.5696 -0.3118  0.0371
   96SAPE  H14X 9626   3.463   7.028   4.958  1.0521 -4.3241 -0.5985
   96SAPE  H14Y 9627   3.572   6.997   5.090 -0.8627 -0.0456  0.2919
   96SAPE  C315 9628   3.669   7.032   4.899  0.1288  1.1640 -0.0340
   96SAPE  H15X 9629   3.764   7.056   4.951  1.0796 -2.5482  0.1966
   96SAPE  H15Y 9630   3.643   7.101   4.816 -1.1342  2.2922  1.2394
   96SAPE  C316 9631   3.658   6.887   4.870 -0.1554  0.1960 -0.0496
   96SAPE  H16X 9632   3.555   6.846   4.874 -0.1261  0.1495  0.2090
   96SAPE  H16Y 9633   3.711   6.821   4.941 -1.3691  0.9034  1.5719
   96SAPE  C317 9634   3.722   6.848   4.735  0.5876  0.5318  0.4195
   96SAPE  H17X 9635   3.829   6.877   4.740  0.1434  2.0965  2.9171
   96SAPE  H17Y 9636   3.678   6.904   4.649 -0.3028  1.9557  1.7485
   96SAPE  C318 9637   3.716   6.696   4.710  0.8104  0.1165  0.1465
   96SAPE  H18X 9638   3.611   6.659   4.705  0.5212  1.0278 -0.8510
   96SAPE  H18Y 9639   3.762   6.648   4.799  1.8049  1.4435  0.3793
   96SAPE  H18Z 9640   3.766   6.665   4.616 -0.3894 -1.0113 -0.1608
   97SAPE     N 9641   4.120   6.761   6.750  0.0079  0.4529  0.9615
   97SAPE   HN1 9642   4.179   6.846   6.750 -0.7771  1.1146 -1.9886
   97SAPE   HN2 9643   4.173   6.671   6.743 -3.1620 -1.5952  1.0925
   97SAPE   HN3 9644   4.075   6.769   6.657  0.6849 -0.9800  0.4796
   97SAPE   C12 9645   4.022   6.760   6.864  0.6915  0.2861  0.3786
   97SAPE  H12A 9646   4.084   6.744   6.954  0.9897 -0.4694  0.0468
   97SAPE  H12B 9647   3.953   6.674   6.853  1.5168 -0.2699 -0.6736
   97SAPE   C11 9648   3.953   6.894   6.862 -0.1644  0.4091  1.0950
   97SAPE  H11A 9649   4.026   6.975   6.885 -0.2348  0.8992 -0.3294
   97SAPE  H11B 9650   3.878   6.874   6.942 -0.4770 -1.6805  0.3531
   97SAPE     P 9651   3.756   7.001   6.726 -0.6064  0.1575 -0.5559
   97SAPE   O13 9652   3.643   6.906   6.756  0.1721  0.3741 -0.1233
   97SAPE   O14 9653   3.787   7.120   6.817  0.9556  0.2609 -0.4239
   97SAPE   O12 9654   3.900   6.924   6.726 -0.2647 -0.2139  0.0230
   97SAPE   O11 9655   3.738   7.059   6.576 -0.4232  0.3144 -0.5233
   97SAPE    C1 9656   3.858   7.093   6.503  0.3970 -0.3250  0.0531
   97SAPE    HA 9657   3.914   7.178   6.549 -2.1590  1.4695  0.0534
   97SAPE    HB 9658   3.933   7.011   6.503  1.4187  0.5328 -2.0660
   97SAPE    C2 9659   3.814   7.132   6.357  0.1130 -0.0588  0.2143
   97SAPE    HS 9660   3.765   7.232   6.363  1.4765  0.5596  1.9877
   97SAPE   O21 9661   3.733   7.029   6.305  0.5028 -0.0506  0.5078
   97SAPE   C21 9662   3.657   7.071   6.209 -0.3691  0.3235  0.6359
   97SAPE   O22 9663   3.663   7.180   6.158  0.1724 -0.0853  0.6857
   97SAPE   C22 9664   3.553   6.968   6.172 -0.3788 -0.0648 -0.8711
   97SAPE   H2R 9665   3.593   6.875   6.219 -0.5566  1.0319  1.6457
   97SAPE   H2S 9666   3.459   6.998   6.223  0.7691  0.1255  1.2511
   97SAPE    C3 9667   3.937   7.154   6.268 -0.0888  0.4020  0.2488
   97SAPE    HX 9668   3.970   7.258   6.288 -0.0185  0.5143 -0.4197
   97SAPE    HY 9669   3.912   7.153   6.160  3.6127  1.8526 -0.7828
   97SAPE   O31 9670   4.049   7.059   6.287  0.4682 -0.2330 -0.7383
   97SAPE   C31 9671   4.031   6.943   6.211 -0.1768 -0.3138 -0.0213
   97SAPE   O32 9672   3.929   6.921   6.151 -0.2985  0.7362  0.2436
   97SAPE   C32 9673   4.168   6.874   6.198  0.3862 -0.7526 -0.0171
   97SAPE   H2X 9674   4.181   6.803   6.282  0.1238 -1.8760 -0.9055
   97SAPE   H2Y 9675   4.242   6.954   6.219  1.5526 -2.1263  1.3989
   97SAPE   C23 9676   3.518   6.960   6.023 -0.1078  0.2720  0.2884
   97SAPE   H3R 9677   3.605   6.968   5.955  0.3461 -0.5829  0.7506
   97SAPE   H3S 9678   3.453   7.042   5.986  0.4510  0.1757 -0.9685
   97SAPE   C24 9679   3.461   6.823   5.991  0.4021  0.3033 -0.5283
   97SAPE   H4R 9680   3.528   6.755   6.048  0.8127  0.9165 -0.2699
   97SAPE   H4S 9681   3.471   6.802   5.882 -3.6111  0.0170 -0.9849
   97SAPE   C25 9682   3.320   6.807   6.049 -0.1645 -0.3589  0.4262
   97SAPE   H5R 9683   3.319   6.854   6.148  0.8338  1.1920 -0.2605
   97SAPE   C26 9684   3.209   6.755   5.995  0.4024 -0.2273 -0.0675
   97SAPE   H6R 9685   3.113   6.764   6.049  0.3877 -4.5108  0.9868
   97SAPE   C27 9686   3.197   6.675   5.871  0.1304  0.1521  0.2234
   97SAPE   H7R 9687   3.221   6.567   5.888  1.7422  0.2629 -1.0388
   97SAPE   H7S 9688   3.273   6.703   5.794  0.6431 -0.3865  0.5233
   97SAPE   C28 9689   3.058   6.677   5.816  0.4911 -0.9393 -0.4363
   97SAPE   H8R 9690   2.981   6.646   5.888  0.9227 -3.9372 -1.1538
   97SAPE   C29 9691   3.033   6.726   5.691 -0.0226  0.0964  0.7401
   97SAPE   H9R 9692   2.928   6.728   5.660  0.6701 -2.3295 -2.1991
   97SAPE  C210 9693   3.127   6.786   5.589  0.2083 -0.0408 -0.0396
   97SAPE  H10R 9694   3.218   6.826   5.638  0.3849 -0.1768 -0.2532
   97SAPE  H10S 9695   3.082   6.867   5.527  1.0322  0.0814 -0.4996
   97SAPE  C211 9696   3.175   6.678   5.495  0.4345  0.1873 -0.1023
   97SAPE  H11R 9697   3.173   6.578   5.541 -0.0344  1.0134  1.7380
   97SAPE  C212 9698   3.191   6.697   5.359 -0.1282  0.4352  0.1261
   97SAPE  H12R 9699   3.217   6.613   5.294 -0.6706  1.6278 -1.6938
   97SAPE  C213 9700   3.165   6.830   5.294  0.0112  0.0939  0.1066
   97SAPE  H13R 9701   3.160   6.918   5.361 -0.5247  0.0377  0.1428
   97SAPE  H13S 9702   3.066   6.827   5.243 -0.3486  2.2183  0.6061
   97SAPE  C214 9703   3.274   6.860   5.188 -0.2420  0.6690  0.1502
   97SAPE  H14R 9704   3.355   6.926   5.221  0.2245 -0.6550  1.7690
   97SAPE  C215 9705   3.277   6.811   5.059  0.9261 -0.1537  0.0254
   97SAPE  H15R 9706   3.352   6.847   4.987  1.1184 -0.1013  0.2510
   97SAPE  C216 9707   3.169   6.725   4.983 -0.2970  0.2592 -0.2632
   97SAPE  H16R 9708   3.077   6.715   5.044  0.4889 -0.6847  0.7925
   97SAPE  H16S 9709   3.203   6.620   4.972 -1.8261 -0.2728 -0.1040
   97SAPE  C217 9710   3.120   6.784   4.852  0.6815 -0.0277 -0.8364
   97SAPE  H17R 9711   3.206   6.821   4.793  0.9449 -0.3857 -0.6783
   97SAPE  H17S 9712   3.055   6.872   4.874 -2.5378 -2.2768 -0.5358
   97SAPE  C218 9713   3.033   6.691   4.770 -0.1849  0.0687  0.5075
   97SAPE  H18R 9714   2.933   6.680   4.817 -0.5378  0.0203 -0.2464
   97SAPE  H18S 9715   3.085   6.593   4.764  0.2957  0.2764  1.1307
   97SAPE  C219 9716   3.015   6.737   4.626  0.1862 -0.0707 -0.7366
   97SAPE  H19R 9717   2.958   6.658   4.573 -2.1328  2.0746 -1.6041
   97SAPE  H19S 9718   3.110   6.751   4.571 -0.1475 -2.0720 -1.9317
   97SAPE  C220 9719   2.930   6.866   4.613 -0.3756 -0.1252  0.1409
   97SAPE  H20R 9720   2.847   6.853   4.686 -0.6211 -0.9276 -0.2772
   97SAPE  H20S 9721   2.883   6.871   4.513 -1.3783  1.0799  0.6429
   97SAPE  H20T 9722   2.995   6.954   4.635  0.9511 -1.2833  1.0512
   97SAPE   C33 9723   4.191   6.809   6.060 -0.2709  0.1906 -0.2962
   97SAPE   H3X 9724   4.113   6.732   6.046  0.4846 -0.8502  0.9224
   97SAPE   H3Y 9725   4.278   6.740   6.056 -0.7274 -0.4112 -0.0084
   97SAPE   C34 9726   4.192   6.903   5.946 -0.0227 -0.0815  0.0579
   97SAPE   H4X 9727   4.253   6.992   5.968 -1.6850  0.6237  2.1170
   97SAPE   H4Y 9728   4.087   6.928   5.921 -0.7344 -1.1106  1.7956
   97SAPE   C35 9729   4.241   6.833   5.817 -0.4976  0.1995  0.1464
   97SAPE   H5X 9730   4.192   6.734   5.805 -0.9577  0.1306  2.2292
   97SAPE   H5Y 9731   4.346   6.809   5.842 -0.7788 -1.9914 -0.5700
   97SAPE   C36 9732   4.245   6.916   5.686 -0.1799  0.4732  0.1153
   97SAPE   H6X 9733   4.292   6.854   5.607 -1.7309 -1.2665  0.5014
   97SAPE   H6Y 9734   4.298   7.013   5.701 -1.4103  1.2687 -0.4496
   97SAPE   C37 9735   4.108   6.932   5.621 -0.1828 -0.3207 -0.1603
   97SAPE   H7X 9736   4.046   6.985   5.696 -1.0088 -1.8470  0.2750
   97SAPE   H7Y 9737   4.055   6.836   5.606 -2.0895  0.5898  0.4147
   97SAPE   C38 9738   4.097   7.009   5.492 -0.3363 -0.4813 -0.7355
   97SAPE   H8X 9739   4.160   7.099   5.504  1.2666 -1.4925 -1.2040
   97SAPE   H8Y 9740   3.990   7.038   5.486 -0.1773 -0.1347 -2.6444
   97SAPE   C39 9741   4.133   6.932   5.364  0.4103  0.6063 -0.6363
   97SAPE   H9X 9742   4.077   6.836   5.373  5.1288 -2.2976  1.4957
   97SAPE   H9Y 9743   4.239   6.899   5.370  0.0993 -0.5527 -1.1487
   97SAPE  C310 9744   4.119   7.012   5.239  0.8585 -0.2571  0.3237
   97SAPE  H10X 9745   4.180   7.105   5.247  0.2151  0.1017  1.2308
   97SAPE  H10Y 9746   4.011   7.036   5.228  0.2625 -1.9713  1.9531
   97SAPE  C311 9747   4.172   6.934   5.123 -0.6508 -0.2518  0.1917
   97SAPE  H11X 9748   4.149   6.827   5.138  1.2036 -1.0923 -2.2385
   97SAPE  H11Y 9749   4.282   6.949   5.110 -0.8068  0.4716 -0.3649
   97SAPE  C312 9750   4.102   6.961   4.987 -0.2768 -0.8156 -0.2083
   97SAPE  H12X 9751   3.991   6.947   4.983 -0.4546  0.6515 -1.3477
   97SAPE  H12Y 9752   4.151   6.900   4.909 -0.7503 -1.0782 -0.3039
   97SAPE  C313 9753   4.129   7.108   4.943 -0.3448 -0.0714 -0.0129
   97SAPE  H13X 9754   4.236   7.125   4.966 -0.6567  0.1450  1.3640
   97SAPE  H13Y 9755   4.064   7.176   5.001  0.4670 -0.1547  1.0183
   97SAPE  C314 9756   4.105   7.142   4.794  0.1867  0.5672  0.0149
   97SAPE  H14X 9757   4.124   7.054   4.729  0.0764 -0.3238  1.1441
   97SAPE  H14Y 9758   4.166   7.227   4.757 -0.2111  0.6151 -0.5322
   97SAPE  C315 9759   3.965   7.198   4.769 -0.4581 -0.4869 -0.5053
   97SAPE  H15X 9760   3.943   7.284   4.837 -1.8056 -1.4253  0.2951
   97SAPE  H15Y 9761   3.886   7.130   4.807 -2.5802  2.5073  0.9121
   97SAPE  C316 9762   3.930   7.226   4.629 -0.1642 -0.0273  0.5323
   97SAPE  H16X 9763   3.975   7.148   4.564 -0.4010  0.5417 -0.3353
   97SAPE  H16Y 9764   3.990   7.316   4.607 -1.0887  0.4383 -0.1833
   97SAPE  C317 9765   3.780   7.241   4.595  0.6416 -0.4112  0.3962
   97SAPE  H17X 9766   3.730   7.303   4.672  0.3629 -0.6058  0.3741
   97SAPE  H17Y 9767   3.730   7.142   4.591  0.3866 -0.2621 -0.2009
   97SAPE  C318 9768   3.749   7.304   4.454  0.4558  0.1383 -0.0398
   97SAPE  H18X 9769   3.643   7.280   4.429  0.9128 -1.3979 -0.6237
   97SAPE  H18Y 9770   3.811   7.253   4.377  1.0322 -0.6132  0.9001
   97SAPE  H18Z 9771   3.760   7.414   4.454 -2.4735  0.6368  3.7711
   98SAPE     N 9772   3.022   1.605   6.598 -0.5324  0.0610  0.7986
   98SAPE   HN1 9773   3.100   1.646   6.542 -0.6286  2.3905  2.2703
   98SAPE   HN2 9774   2.944   1.669   6.621 -2.8189 -1.8391 -1.1124
   98SAPE   HN3 9775   3.066   1.569   6.684 -0.1729 -0.3705  0.4408
   98SAPE   C12 9776   2.964   1.486   6.528 -0.4556  0.2575  0.3087
   98SAPE  H12A 9777   3.040   1.407   6.510 -0.1703  0.6672 -0.3093
   98SAPE  H12B 9778   2.939   1.517   6.424 -0.6378 -0.2414  0.2010
   98SAPE   C11 9779   2.851   1.417   6.609 -0.2823 -0.1454 -0.2181
   98SAPE  H11A 9780   2.819   1.331   6.546 -0.5870 -0.8112  0.8272
   98SAPE  H11B 9781   2.771   1.493   6.623 -0.3252 -0.1833 -0.2588
   98SAPE     P 9782   2.920   1.224   6.767 -0.1194 -0.2091  0.3064
   98SAPE   O13 9783   3.012   1.222   6.887  0.2350 -0.0131 -1.0434
   98SAPE   O14 9784   2.788   1.163   6.771  0.2469 -0.0149  0.4601
   98SAPE   O12 9785   2.895   1.376   6.739  0.3985  0.5678 -0.0661
   98SAPE   O11 9786   2.999   1.183   6.636  0.4046 -0.3200  0.2140
   98SAPE    C1 9787   2.984   1.042   6.587  0.4629 -0.1068 -0.4308
   98SAPE    HA 9788   3.082   0.997   6.612  1.7397  2.3489 -0.7587
   98SAPE    HB 9789   2.905   0.976   6.629  1.6302 -2.1611 -1.3137
   98SAPE    C2 9790   2.976   1.032   6.434 -0.6717  0.0910  0.3233
   98SAPE    HS 9791   3.036   1.119   6.399 -0.6597 -0.8361 -2.1498
   98SAPE   O21 9792   2.845   1.037   6.389  0.3050 -0.3836 -0.3378
   98SAPE   C21 9793   2.823   1.083   6.266  0.3243  0.3564 -0.6484
   98SAPE   O22 9794   2.909   1.130   6.192  0.4754 -0.1100  0.6099
   98SAPE   C22 9795   2.678   1.082   6.232  0.6134  0.4945  0.3126
   98SAPE   H2R 9796   2.634   0.981   6.221  1.0419  0.5014 -1.7730
   98SAPE   H2S 9797   2.624   1.137   6.312  0.5195  0.4771  0.2606
   98SAPE    C3 9798   3.042   0.899   6.390 -0.6696  0.8958 -0.1518
   98SAPE    HX 9799   2.964   0.820   6.390 -1.7039  1.8800 -1.6869
   98SAPE    HY 9800   3.129   0.868   6.452 -0.6115 -0.6995 -0.9891
   98SAPE   O31 9801   3.076   0.886   6.249  0.8372  0.4768  0.2258
   98SAPE   C31 9802   3.187   0.956   6.213  0.4845  0.5900  0.3841
   98SAPE   O32 9803   3.268   0.995   6.295 -0.1053  0.2919 -0.0488
   98SAPE   C32 9804   3.219   0.968   6.069  0.0623  0.0826 -0.1926
   98SAPE   H2X 9805   3.323   1.000   6.051  0.2449  0.3181  1.1359
   98SAPE   H2Y 9806   3.153   1.045   6.023  1.1455  1.9025  1.1685
   98SAPE   C23 9807   2.651   1.160   6.099 -0.1214  0.2926  0.9854
   98SAPE   H3R 9808   2.722   1.122   6.024 -1.4201 -1.8673  0.7600
   98SAPE   H3S 9809   2.668   1.269   6.112 -1.3629  0.8531 -1.4899
   98SAPE   C24 9810   2.501   1.140   6.040  0.0998  0.7733 -0.3240
   98SAPE   H4R 9811   2.431   1.158   6.124 -0.0113  1.7262 -0.6098
   98SAPE   H4S 9812   2.502   1.031   6.016  0.6073  0.3927  1.2761
   98SAPE   C25 9813   2.475   1.220   5.917  0.0323  0.1207  0.0124
   98SAPE   H5R 9814   2.466   1.325   5.948  1.3795 -0.3736  2.3659
   98SAPE   C26 9815   2.476   1.180   5.786 -0.0303  0.0475 -0.6370
   98SAPE   H6R 9816   2.437   1.250   5.711  0.9648  2.8510  1.3256
   98SAPE   C27 9817   2.485   1.036   5.733  0.1330  0.6504  0.0775
   98SAPE   H7R 9818   2.545   0.973   5.802  0.0429 -1.0589 -1.3304
   98SAPE   H7S 9819   2.548   1.038   5.641  0.1461  1.1021  0.0897
   98SAPE   C28 9820   2.351   0.980   5.716  0.7343 -0.5389 -0.0299
   98SAPE   H8R 9821   2.312   0.940   5.811  2.5997 -2.3042  0.0412
   98SAPE   C29 9822   2.268   0.990   5.616  0.2281 -0.0959 -0.0278
   98SAPE   H9R 9823   2.164   0.952   5.622  0.2470 -0.1944 -0.3073
   98SAPE  C210 9824   2.292   1.061   5.486 -0.5781 -0.5340  0.0693
   98SAPE  H10R 9825   2.339   0.994   5.411  0.2480 -2.2923  2.0946
   98SAPE  H10S 9826   2.369   1.140   5.496  0.2604 -1.4841  1.3805
   98SAPE  C211 9827   2.169   1.131   5.438  0.5859  0.3381 -0.6429
   98SAPE  H11R 9828   2.116   1.199   5.506 -0.7029  0.4362 -1.7175
   98SAPE  C212 9829   2.141   1.147   5.309 -0.5080  0.2155 -0.6186
   98SAPE  H12R 9830   2.053   1.208   5.285  0.6117  1.8646 -0.7002
   98SAPE  C213 9831   2.209   1.083   5.189 -0.7338 -0.0887 -0.1313
   98SAPE  H13R 9832   2.126   1.047   5.125  0.9662 -3.7115 -0.5484
   98SAPE  H13S 9833   2.262   0.988   5.210 -0.0009  0.3550  0.0525
   98SAPE  C214 9834   2.315   1.168   5.118  0.8005  0.5279 -0.1174
   98SAPE  H14R 9835   2.407   1.183   5.177  1.2113  1.8603 -1.0596
   98SAPE  C215 9836   2.292   1.239   5.007 -0.8378 -0.3201 -0.0286
   98SAPE  H15R 9837   2.377   1.297   4.968  0.4793 -1.5876  0.8828
   98SAPE  C216 9838   2.155   1.260   4.936 -0.4290  0.7221 -0.1651
   98SAPE  H16R 9839   2.132   1.368   4.931 -0.8512  0.6217 -0.4448
   98SAPE  H16S 9840   2.070   1.217   4.994 -1.5675 -0.1283 -2.3433
   98SAPE  C217 9841   2.156   1.191   4.793 -0.3737 -0.0661 -0.1965
   98SAPE  H17R 9842   2.242   1.230   4.735 -0.4302  0.4582  0.0595
   98SAPE  H17S 9843   2.067   1.228   4.738 -1.4160 -1.4035  0.5359
   98SAPE  C218 9844   2.165   1.040   4.791 -0.3895 -0.0875 -0.2342
   98SAPE  H18R 9845   2.076   0.991   4.837  1.4067 -2.2674  1.1094
   98SAPE  H18S 9846   2.258   1.002   4.838 -0.8312  1.0316  1.6763
   98SAPE  C219 9847   2.158   0.993   4.647 -0.3768 -0.0794  0.5354
   98SAPE  H19R 9848   2.231   1.053   4.588  0.2562 -0.1797  1.2051
   98SAPE  H19S 9849   2.062   1.033   4.607  0.8491  1.9221 -0.5878
   98SAPE  C220 9850   2.161   0.851   4.610 -0.5996 -0.5229  0.2996
   98SAPE  H20R 9851   2.146   0.829   4.502 -0.4744 -2.2205  0.6008
   98SAPE  H20S 9852   2.096   0.784   4.670 -1.9872  1.1202  0.7002
   98SAPE  H20T 9853   2.262   0.807   4.628 -1.2390 -1.9645  0.4923
   98SAPE   C33 9854   3.211   0.832   5.991  0.1700  0.2690 -0.8711
   98SAPE   H3X 9855   3.106   0.798   6.008  1.1160 -1.6130  1.9405
   98SAPE   H3Y 9856   3.275   0.755   6.038  1.1427  1.3861 -0.3343
   98SAPE   C34 9857   3.246   0.845   5.843 -0.5947  0.3181 -0.4338
   98SAPE   H4X 9858   3.170   0.910   5.794  0.0513 -1.5392 -4.2769
   98SAPE   H4Y 9859   3.232   0.752   5.785 -0.5750  0.8511 -1.3099
   98SAPE   C35 9860   3.390   0.874   5.796 -0.3444  0.3552 -0.1508
   98SAPE   H5X 9861   3.460   0.794   5.831 -0.6088  0.6730  1.1306
   98SAPE   H5Y 9862   3.426   0.966   5.846  0.6653 -1.1614  2.0959
   98SAPE   C36 9863   3.403   0.888   5.642  0.1558  0.0142 -0.0775
   98SAPE   H6X 9864   3.355   0.987   5.624  1.7126  0.6715 -0.7537
   98SAPE   H6Y 9865   3.347   0.805   5.594 -1.3848  1.4019 -0.8145
   98SAPE   C37 9866   3.549   0.880   5.603  0.3498  0.0758  0.3739
   98SAPE   H7X 9867   3.591   0.795   5.660  0.3030 -0.4249 -0.3150
   98SAPE   H7Y 9868   3.597   0.976   5.628 -1.0680  1.1130 -0.6796
   98SAPE   C38 9869   3.557   0.851   5.452  0.4059  0.3720  0.4913
   98SAPE   H8X 9870   3.456   0.870   5.408 -0.7252 -2.7287  1.5237
   98SAPE   H8Y 9871   3.586   0.744   5.446  0.3093  0.1426  3.1399
   98SAPE   C39 9872   3.660   0.943   5.382  0.1078  0.5539  0.9321
   98SAPE   H9X 9873   3.758   0.928   5.433  1.1061 -2.4979 -1.5468
   98SAPE   H9Y 9874   3.622   1.047   5.389  0.3099  1.0967 -3.5788
   98SAPE  C310 9875   3.698   0.907   5.237 -0.4896 -0.7834 -0.0077
   98SAPE  H10X 9876   3.730   0.801   5.237  0.8948 -0.5254 -3.7287
   98SAPE  H10Y 9877   3.784   0.969   5.202  1.9751 -3.4865  0.8233
   98SAPE  C311 9878   3.576   0.917   5.148 -0.0222  0.3760  0.4407
   98SAPE  H11X 9879   3.525   1.014   5.166  0.0818  0.5545 -0.2028
   98SAPE  H11Y 9880   3.497   0.845   5.178  0.3018 -0.3352 -0.3573
   98SAPE  C312 9881   3.603   0.899   4.995  0.1077  0.2923 -0.5566
   98SAPE  H12X 9882   3.626   0.792   4.975  1.2340  0.7741 -1.9836
   98SAPE  H12Y 9883   3.693   0.957   4.965 -0.5362  0.6550 -1.8445
   98SAPE  C313 9884   3.483   0.933   4.911  0.1226  0.1095  0.7014
   98SAPE  H13X 9885   3.449   1.032   4.947 -0.3687 -0.3381  1.5040
   98SAPE  H13Y 9886   3.404   0.864   4.948 -2.9545  1.9735 -1.9116
   98SAPE  C314 9887   3.505   0.912   4.756  0.1234  0.4390  0.5695
   98SAPE  H14X 9888   3.534   0.812   4.718 -1.7054 -0.6200  1.7885
   98SAPE  H14Y 9889   3.582   0.988   4.732  0.8579  0.1021  1.7744
   98SAPE  C315 9890   3.376   0.934   4.672  0.6551 -0.3267 -0.0515
   98SAPE  H15X 9891   3.329   1.029   4.706  0.1828 -0.2244 -0.9796
   98SAPE  H15Y 9892   3.302   0.852   4.681  0.2298  0.1992  1.8350
   98SAPE  C316 9893   3.389   0.967   4.521 -0.3161  0.1380 -0.2507
   98SAPE  H16X 9894   3.468   1.044   4.507  0.8354 -1.2357 -1.8360
   98SAPE  H16Y 9895   3.292   0.996   4.474 -0.2554 -2.0706 -1.9343
   98SAPE  C317 9896   3.450   0.852   4.445 -0.0466  0.6147 -0.0671
   98SAPE  H17X 9897   3.402   0.757   4.478  0.9517  0.7350  1.8724
   98SAPE  H17Y 9898   3.554   0.820   4.469 -0.2674  0.8701  1.3309
   98SAPE  C318 9899   3.440   0.862   4.290 -0.0374 -0.5306 -0.5693
   98SAPE  H18X 9900   3.498   0.783   4.238 -0.5278 -1.7539  0.6793
   98SAPE  H18Y 9901   3.482   0.961   4.263 -1.2979 -0.3391 -1.9827
   98SAPE  H18Z 9902   3.333   0.860   4.260  0.2311 -1.9089 -1.5556
   99SAPE     N 9903   3.564   6.645   6.777 -0.0929 -0.3214 -0.9111
   99SAPE   HN1 9904   3.526   6.559   6.821  3.1269 -1.1344  0.5696
   99SAPE   HN2 9905   3.624   6.704   6.838 -1.4107  0.1581 -0.0348
   99SAPE   HN3 9906   3.487   6.709   6.746 -1.6546 -1.0585  1.1783
   99SAPE   C12 9907   3.642   6.595   6.662  0.0856  0.3932 -0.1965
   99SAPE  H12A 9908   3.731   6.660   6.647  0.2364 -0.0259 -1.1584
   99SAPE  H12B 9909   3.584   6.599   6.568 -0.1849 -0.5897 -0.0846
   99SAPE   C11 9910   3.697   6.450   6.689 -0.4408 -0.2579 -0.3191
   99SAPE  H11A 9911   3.731   6.416   6.589 -0.5082  0.0954 -0.4646
   99SAPE  H11B 9912   3.621   6.382   6.733 -0.8163  0.6792  0.5473
   99SAPE     P 9913   3.891   6.341   6.822  0.1487 -0.1860 -0.0624
   99SAPE   O13 9914   4.025   6.384   6.865 -0.5321  0.4105 -0.1935
   99SAPE   O14 9915   3.806   6.286   6.923  0.1634  0.0855 -0.4422
   99SAPE   O12 9916   3.818   6.461   6.763 -0.6846  0.4356 -0.0560
   99SAPE   O11 9917   3.890   6.248   6.699 -0.1424  0.2309 -0.1901
   99SAPE    C1 9918   4.011   6.223   6.628 -0.2215 -0.3588  0.6291
   99SAPE    HA 9919   4.091   6.185   6.695  0.1769  0.1267  0.4300
   99SAPE    HB 9920   3.987   6.135   6.565  2.1222 -0.3891 -0.3168
   99SAPE    C2 9921   4.057   6.337   6.531 -0.1075  0.1665 -0.0133
   99SAPE    HS 9922   4.078   6.428   6.592  1.6573 -0.5577  0.5222
   99SAPE   O21 9923   3.954   6.364   6.430 -0.4533  0.1842 -0.4667
   99SAPE   C21 9924   3.989   6.459   6.350  0.0951 -0.3138  0.3075
   99SAPE   O22 9925   4.084   6.536   6.363 -0.4700 -0.7183 -0.7990
   99SAPE   C22 9926   3.894   6.461   6.227  0.4958  0.1341  0.7188
   99SAPE   H2R 9927   3.889   6.358   6.185 -0.1045 -0.3317  1.8731
   99SAPE   H2S 9928   3.790   6.473   6.265 -1.0503  0.1398 -3.1072
   99SAPE    C3 9929   4.184   6.300   6.463 -0.7274 -0.4360  0.0017
   99SAPE    HX 9930   4.247   6.251   6.540 -0.1305  1.7211  0.9363
   99SAPE    HY 9931   4.232   6.399   6.456 -0.7031 -0.4492 -0.0141
   99SAPE   O31 9932   4.168   6.230   6.340 -0.0139 -0.3385  0.8609
   99SAPE   C31 9933   4.159   6.098   6.349 -0.6978 -0.6427 -0.3216
   99SAPE   O32 9934   4.158   6.029   6.448 -0.2164  0.4532  0.0972
   99SAPE   C32 9935   4.136   6.035   6.205  0.0857  0.2238 -0.4586
   99SAPE   H2X 9936   4.226   6.056   6.144  0.1907 -0.9369 -0.7305
   99SAPE   H2Y 9937   4.048   6.084   6.159 -1.2931 -1.8002 -0.0890
   99SAPE   C23 9938   3.935   6.566   6.124  0.1652 -0.1988 -0.1678
   99SAPE   H3R 9939   4.033   6.533   6.084  0.6996  0.7378  0.3200
   99SAPE   H3S 9940   3.941   6.666   6.172 -0.3198 -0.3587  0.2412
   99SAPE   C24 9941   3.830   6.570   6.010 -0.3051  0.1384  0.0881
   99SAPE   H4R 9942   3.727   6.575   6.052 -0.4230  1.0683 -0.2938
   99SAPE   H4S 9943   3.847   6.481   5.946  1.0004 -1.0988  2.0487
   99SAPE   C25 9944   3.860   6.686   5.916  0.1911  0.2645  0.6946
   99SAPE   H5R 9945   3.845   6.781   5.969  1.0202 -0.0780  1.5639
   99SAPE   C26 9946   3.897   6.688   5.791  0.8427  0.1161 -0.0046
   99SAPE   H6R 9947   3.910   6.785   5.741  0.1587 -1.5038 -3.6333
   99SAPE   C27 9948   3.907   6.568   5.696 -0.8355 -1.0279 -0.5300
   99SAPE   H7R 9949   3.861   6.586   5.597 -0.8790 -0.1697 -0.3663
   99SAPE   H7S 9950   3.862   6.479   5.743 -1.6260  0.0532  0.8319
   99SAPE   C28 9951   4.053   6.522   5.680  0.4197  0.4531 -0.2009
   99SAPE   H8R 9952   4.101   6.521   5.779 -0.1350  2.4040  0.1257
   99SAPE   C29 9953   4.120   6.510   5.562 -0.4475 -0.0302 -1.2240
   99SAPE   H9R 9954   4.224   6.474   5.570 -0.9590 -1.3547 -0.0848
   99SAPE  C210 9955   4.073   6.527   5.426  0.0228  0.0494  1.1032
   99SAPE  H10R 9956   4.131   6.616   5.393  1.6415 -1.6086 -0.7627
   99SAPE  H10S 9957   3.965   6.552   5.432  0.6312  2.6542  3.8515
   99SAPE  C211 9958   4.093   6.414   5.330  0.4577  0.3973 -0.6191
   99SAPE  H11R 9959   4.021   6.336   5.361  1.8000 -0.0403  1.5786
   99SAPE  C212 9960   4.185   6.398   5.238  0.5779  0.1130 -0.3913
   99SAPE  H12R 9961   4.192   6.306   5.177  0.4642  0.6949 -1.3036
   99SAPE  C213 9962   4.288   6.502   5.207  0.5561  0.1575 -0.0342
   99SAPE  H13R 9963   4.297   6.572   5.293 -0.7461  0.0028  0.2522
   99SAPE  H13S 9964   4.244   6.557   5.121  0.0206 -0.9196 -0.4788
   99SAPE  C214 9965   4.420   6.454   5.163  0.2508 -0.4487 -0.5796
   99SAPE  H14R 9966   4.431   6.379   5.082 -0.2263  0.3451 -1.4019
   99SAPE  C215 9967   4.532   6.496   5.222 -0.0902  0.1424 -0.2250
   99SAPE  H15R 9968   4.630   6.463   5.186  0.1425  0.8402 -0.2422
   99SAPE  C216 9969   4.552   6.605   5.328  0.1081  0.2875  0.1747
   99SAPE  H16R 9970   4.487   6.690   5.296  1.1129  1.0109 -0.0304
   99SAPE  H16S 9971   4.653   6.651   5.333 -1.1246  3.1078  2.0047
   99SAPE  C217 9972   4.512   6.550   5.464 -0.2944 -0.3411  0.0193
   99SAPE  H17R 9973   4.570   6.459   5.489  1.3154  0.3264 -1.1313
   99SAPE  H17S 9974   4.403   6.530   5.457 -0.3381  0.0949 -0.6795
   99SAPE  C218 9975   4.532   6.647   5.587 -0.0219  0.4075  0.9982
   99SAPE  H18R 9976   4.465   6.736   5.580  1.3101  1.3772 -0.1392
   99SAPE  H18S 9977   4.637   6.683   5.594 -0.1817  1.1009  0.0740
   99SAPE  C219 9978   4.491   6.576   5.712 -0.6146  0.1478 -0.2211
   99SAPE  H19R 9979   4.404   6.509   5.692  0.0440 -0.9953  0.6241
   99SAPE  H19S 9980   4.469   6.652   5.790 -0.5881  0.1588 -0.2241
   99SAPE  C220 9981   4.588   6.474   5.769  0.6710  1.0594  0.5432
   99SAPE  H20R 9982   4.579   6.376   5.719 -2.1398  0.7955  1.3601
   99SAPE  H20S 9983   4.564   6.458   5.877  1.4798 -0.2562  0.5493
   99SAPE  H20T 9984   4.689   6.519   5.769  1.3129 -0.3400  1.1072
   99SAPE   C33 9985   4.109   5.877   6.215 -0.2729 -0.6468  0.1635
   99SAPE   H3X 9986   4.055   5.849   6.122 -1.9096 -2.9891  1.6902
   99SAPE   H3Y 9987   4.039   5.861   6.300 -0.6944  0.8407  0.1210
   99SAPE   C34 9988   4.235   5.794   6.232  0.5840  0.5649 -0.1577
   99SAPE   H4X 9989   4.307   5.843   6.301  0.1262  1.3709 -0.2374
   99SAPE   H4Y 9990   4.281   5.788   6.132 -0.0090  0.5007 -0.4329
   99SAPE   C35 9991   4.226   5.642   6.283  0.7044 -0.2375 -0.0059
   99SAPE   H5X 9992   4.205   5.640   6.392 -1.8617 -1.0080 -0.4447
   99SAPE   H5Y 9993   4.331   5.609   6.267  0.8202 -0.9612  2.0334
   99SAPE   C36 9994   4.126   5.540   6.222 -0.2183 -0.1423  0.3549
   99SAPE   H6X 9995   4.137   5.555   6.113 -3.5646 -1.3810 -0.2899
   99SAPE   H6Y 9996   4.024   5.580   6.240 -0.1871 -0.9180  2.6570
   99SAPE   C37 9997   4.142   5.390   6.265 -0.3557 -0.3209 -0.1760
   99SAPE   H7X 9998   4.126   5.379   6.374  0.3925 -0.7910 -0.1021
   99SAPE   H7Y 9999   4.249   5.366   6.248  0.0129  2.1580 -1.8972
   99SAPE   C3810000   4.046   5.296   6.196 -0.2685 -0.2520  0.4337
   99SAPE   H8X10001   3.939   5.327   6.204  0.3071  2.1050 -0.1803
   99SAPE   H8Y10002   4.061   5.198   6.246 -2.0553 -1.3718 -1.0576
   99SAPE   C3910003   4.088   5.292   6.042  0.1721  0.5919 -0.1479
   99SAPE   H9X10004   4.198   5.293   6.032  0.2105 -0.3685  0.0388
   99SAPE   H9Y10005   4.053   5.386   5.995 -0.9470  0.1787 -0.1957
   99SAPE  C31010006   4.022   5.168   5.984  0.2952 -0.3795  0.5369
   99SAPE  H10X10007   3.913   5.187   5.992  0.1351 -0.3234 -1.2480
   99SAPE  H10Y10008   4.054   5.085   6.049  0.6657  0.4134  1.3886
   99SAPE  C31110009   4.056   5.132   5.842  0.4547 -0.0512  0.5253
   99SAPE  H11X10010   4.066   5.231   5.793 -0.6737 -0.6662 -1.0111
   99SAPE  H11Y10011   3.979   5.072   5.790  1.0044 -0.5333  0.2626
   99SAPE  C31210012   4.190   5.060   5.821  0.0109 -0.0646  0.2158
   99SAPE  H12X10013   4.183   4.950   5.834  0.8505 -0.1119  0.3351
   99SAPE  H12Y10014   4.270   5.093   5.891  1.2850 -0.0154 -1.2051
   99SAPE  C31310015   4.246   5.097   5.683 -0.3817  0.0040  1.1533
   99SAPE  H13X10016   4.347   5.050   5.677 -0.8053 -0.7860 -0.2544
   99SAPE  H13Y10017   4.250   5.207   5.672  0.6038 -0.0393  0.9405
   99SAPE  C31410018   4.164   5.042   5.558  0.0171  0.3477  0.7374
   99SAPE  H14X10019   4.074   5.107   5.556  0.9335  1.6485  0.4658
   99SAPE  H14Y10020   4.115   4.946   5.585 -1.1325  0.8333  0.4681
   99SAPE  C31510021   4.251   5.044   5.433  0.5674  0.2475  0.3274
   99SAPE  H15X10022   4.203   4.993   5.347 -0.4355 -0.1068  1.0871
   99SAPE  H15Y10023   4.337   4.977   5.453 -1.0459 -2.9430 -2.3858
   99SAPE  C31610024   4.300   5.187   5.396 -0.2343  0.3056 -0.4961
   99SAPE  H16X10025   4.379   5.222   5.466 -0.3233  1.6003 -1.0251
   99SAPE  H16Y10026   4.215   5.259   5.399  0.5702  1.2467  0.3359
   99SAPE  C31710027   4.359   5.190   5.246 -0.0187 -0.1042 -0.4910
   99SAPE  H17X10028   4.293   5.123   5.187 -1.1234  0.0400  0.5381
   99SAPE  H17Y10029   4.457   5.139   5.250 -0.2297 -0.6927 -2.0679
   99SAPE  C31810030   4.365   5.330   5.192  0.0631 -0.2458 -0.9259
   99SAPE  H18X10031   4.262   5.365   5.171  0.6131  2.8953  0.8529
   99SAPE  H18Y10032   4.428   5.329   5.101 -0.4411 -0.9014 -1.2742
   99SAPE  H18Z10033   4.412   5.406   5.259  0.5399  1.4732 -3.1094
  100SAPE     N10034   6.678   5.593   7.059 -0.2029 -0.0964 -0.1706
  100SAPE   HN110035   6.700   5.524   7.133 -1.4456 -0.2864  0.0546
  100SAPE   HN210036   6.730   5.682   7.066  1.3198 -0.9141 -0.7353
  100SAPE   HN310037   6.574   5.604   7.058 -0.1343  0.5640 -0.3748
  100SAPE   C1210038   6.694   5.513   6.929 -0.3702  0.0848  0.2880
  100SAPE  H12A10039   6.797   5.470   6.928 -0.6463 -0.5899 -0.9144
  100SAPE  H12B10040   6.686   5.588   6.848 -0.9248 -0.9008 -0.5930
  100SAPE   C1110041   6.581   5.417   6.921 -0.0783 -0.7296  0.6076
  100SAPE  H11A10042   6.597   5.362   6.826 -3.3879 -1.7364  0.5181
  100SAPE  H11B10043   6.483   5.468   6.910 -0.4214 -1.1007  1.7748
  100SAPE     P10044   6.626   5.188   7.039 -0.3264  0.0200  0.4603
  100SAPE   O1310045   6.773   5.195   7.025 -0.2421  0.1591 -0.4560
  100SAPE   O1410046   6.575   5.109   7.160  0.0946 -0.4494  0.0643
  100SAPE   O1210047   6.569   5.336   7.036  0.3141  0.7119  0.0297
  100SAPE   O1110048   6.570   5.120   6.905  0.1318 -0.0940  0.2282
  100SAPE    C110049   6.436   5.106   6.863 -1.0284 -0.5104  0.9579
  100SAPE    HA10050   6.395   5.006   6.889 -0.3991 -0.6367  1.5046
  100SAPE    HB10051   6.366   5.178   6.909  0.7475  2.1255 -0.2273
  100SAPE    C210052   6.414   5.137   6.708 -0.2090  0.0967 -0.7737
  100SAPE    HS10053   6.413   5.248   6.705 -2.4492  0.1255 -0.7253
  100SAPE   O2110054   6.286   5.085   6.682  0.7385 -0.0920  0.3391
  100SAPE   C2110055   6.214   5.140   6.592 -0.2704 -0.2250  0.3751
  100SAPE   O2210056   6.230   5.252   6.538  0.0329  0.1747  0.0688
  100SAPE   C2210057   6.109   5.040   6.548 -0.7606 -0.3725 -0.1320
  100SAPE   H2R10058   6.094   4.970   6.633  1.0130 -1.2562 -0.5007
  100SAPE   H2S10059   6.018   5.099   6.522  0.2389  0.0642 -2.9755
  100SAPE    C310060   6.532   5.066   6.621 -0.1133 -0.8311  0.4477
  100SAPE    HX10061   6.537   4.955   6.632 -2.7395 -1.2645 -1.7193
  100SAPE    HY10062   6.625   5.107   6.664 -1.5045  0.8246  2.0590
  100SAPE   O3110063   6.519   5.092   6.480 -0.4353  0.1133 -0.1401
  100SAPE   C3110064   6.559   5.215   6.437  0.5930  0.3162 -0.4018
  100SAPE   O3210065   6.600   5.301   6.512 -0.1143 -0.1057 -0.4085
  100SAPE   C3210066   6.564   5.213   6.289 -0.6643 -0.2683 -0.6125
  100SAPE   H2X10067   6.621   5.130   6.241 -1.6566 -0.0429 -2.2642
  100SAPE   H2Y10068   6.604   5.313   6.265 -2.2125  0.4457 -0.3601
  100SAPE   C2310069   6.156   4.963   6.425  0.5392 -0.1070 -0.3884
  100SAPE   H3R10070   6.110   4.863   6.441 -1.1481  0.8063  0.7614
  100SAPE   H3S10071   6.266   4.955   6.438  0.6257  1.8355  0.3497
  100SAPE   C2410072   6.103   5.029   6.291 -0.4419  0.9591 -0.7963
  100SAPE   H4R10073   6.172   4.986   6.215  0.7669  0.2790  0.6426
  100SAPE   H4S10074   6.122   5.137   6.313  1.7279  0.3457  0.7301
  100SAPE   C2510075   5.963   4.991   6.253 -0.6609  0.4597 -0.8713
  100SAPE   H5R10076   5.939   4.890   6.289  1.0359 -0.0030 -0.9308
  100SAPE   C2610077   5.864   5.064   6.209  0.2712 -0.8921 -0.5684
  100SAPE   H6R10078   5.766   5.016   6.196 -0.6906  0.8793 -0.2143
  100SAPE   C2710079   5.873   5.209   6.176 -0.2203 -0.5794  0.5426
  100SAPE   H7R10080   5.941   5.227   6.090  0.5938 -0.6786  1.1535
  100SAPE   H7S10081   5.917   5.267   6.260  0.4623  0.3861 -0.4505
  100SAPE   C2810082   5.738   5.273   6.150 -0.5342  0.6856 -0.1784
  100SAPE   H8R10083   5.701   5.347   6.222  0.2885 -0.8999  1.9920
  100SAPE   C2910084   5.672   5.269   6.029 -0.4131 -0.1901  0.2997
  100SAPE   H9R10085   5.576   5.323   6.023 -0.2464  0.1115  0.3453
  100SAPE  C21010086   5.717   5.202   5.898 -0.3102  0.2123  0.3400
  100SAPE  H10R10087   5.653   5.113   5.884 -0.6500  0.2602  1.4613
  100SAPE  H10S10088   5.824   5.169   5.895  0.1304  1.2375  2.6214
  100SAPE  C21110089   5.683   5.286   5.780 -0.7079  0.2866 -0.0984
  100SAPE  H11R10090   5.639   5.385   5.800  1.0813  1.5979 -2.1623
  100SAPE  C21210091   5.704   5.246   5.652  0.3248 -0.6165 -0.8910
  100SAPE  H12R10092   5.671   5.308   5.567  0.7861 -0.3425 -0.8724
  100SAPE  C21310093   5.766   5.113   5.603  0.2961 -0.3415 -0.8298
  100SAPE  H13R10094   5.752   5.032   5.677  0.1248  0.3183 -0.1163
  100SAPE  H13S10095   5.874   5.135   5.587  0.2960  1.3154  0.9875
  100SAPE  C21410096   5.676   5.084   5.480 -0.5893 -0.1682 -0.2952
  100SAPE  H14R10097   5.584   5.034   5.512 -1.2076  1.0366 -0.1235
  100SAPE  C21510098   5.702   5.108   5.351  0.2626  0.6677 -0.0321
  100SAPE  H15R10099   5.621   5.092   5.279 -0.9333  1.4359  1.0957
  100SAPE  C21610100   5.825   5.170   5.294  0.4538 -0.1264 -0.1847
  100SAPE  H16R10101   5.907   5.112   5.340  0.0599 -0.8270 -0.3535
  100SAPE  H16S10102   5.835   5.277   5.322  1.4354 -0.8069  2.3097
  100SAPE  C21710103   5.851   5.150   5.141 -0.1802 -0.0560  0.7595
  100SAPE  H17R10104   5.757   5.108   5.099  0.1822  0.0215 -0.1610
  100SAPE  H17S10105   5.925   5.068   5.128 -0.1996 -0.3916  2.5284
  100SAPE  C21810106   5.857   5.280   5.059  0.1938  0.5870  1.0002
  100SAPE  H18R10107   5.943   5.332   5.104  1.3180 -1.3236  1.1734
  100SAPE  H18S10108   5.764   5.340   5.069 -0.5262  0.1102 -1.8698
  100SAPE  C21910109   5.887   5.253   4.906  0.0755  0.4310 -0.1330
  100SAPE  H19R10110   5.995   5.227   4.901 -0.0461 -0.4624  1.3989
  100SAPE  H19S10111   5.878   5.347   4.847  1.7299  0.1370 -0.9143
  100SAPE  C22010112   5.809   5.148   4.834 -0.5651 -0.5551 -0.4257
  100SAPE  H20R10113   5.804   5.049   4.885  0.9088  0.0590  1.0125
  100SAPE  H20S10114   5.860   5.127   4.738  0.2660 -0.3706 -0.0375
  100SAPE  H20T10115   5.704   5.176   4.813 -0.5962 -0.5874 -0.3133
  100SAPE   C3310116   6.415   5.198   6.230 -0.8474  0.8084  0.2811
  100SAPE   H3X10117   6.348   5.269   6.284 -1.1896 -0.0688  1.0439
  100SAPE   H3Y10118   6.372   5.100   6.260 -1.1747  0.5079 -1.1361
  100SAPE   C3410119   6.418   5.197   6.076  0.0014  0.1681  0.3605
  100SAPE   H4X10120   6.473   5.106   6.045 -1.3348 -0.6701  0.3920
  100SAPE   H4Y10121   6.468   5.291   6.044 -0.5211  1.1309  2.1899
  100SAPE   C3510122   6.275   5.193   6.015  0.3179 -0.5680 -0.3888
  100SAPE   H5X10123   6.212   5.260   6.077  0.5083 -0.9351  0.2203
  100SAPE   H5Y10124   6.230   5.092   6.024  0.8894 -0.8350 -0.4450
  100SAPE   C3610125   6.280   5.255   5.878  0.4588  0.3366 -0.2596
  100SAPE   H6X10126   6.353   5.338   5.864  1.6156 -0.3757  1.1267
  100SAPE   H6Y10127   6.177   5.294   5.866  0.8838  1.5024 -0.2015
  100SAPE   C3710128   6.297   5.156   5.760 -0.0286 -0.2361 -0.3876
  100SAPE   H7X10129   6.223   5.073   5.771  1.1466 -1.2488  0.0885
  100SAPE   H7Y10130   6.396   5.107   5.748 -0.0328 -0.6651  1.1072
  100SAPE   C3810131   6.266   5.248   5.645  0.1633  0.2315 -0.7065
  100SAPE   H8X10132   6.333   5.336   5.652  2.2966 -1.3875  1.0374
  100SAPE   H8Y10133   6.162   5.286   5.656  0.2712  0.4663 -0.5143
  100SAPE   C3910134   6.260   5.186   5.499 -0.0218  0.1980  1.2273
  100SAPE   H9X10135   6.175   5.120   5.471  1.8894 -0.8099 -3.0676
  100SAPE   H9Y10136   6.350   5.122   5.489 -1.0851 -1.2017  0.1204
  100SAPE  C31010137   6.287   5.296   5.386 -0.2784 -0.0781 -0.4319
  100SAPE  H10X10138   6.393   5.325   5.402  0.1538 -2.1169  0.7300
  100SAPE  H10Y10139   6.216   5.381   5.382  0.4383  0.6586  1.5244
  100SAPE  C31110140   6.294   5.229   5.256 -0.3527 -0.4271  0.4343
  100SAPE  H11X10141   6.201   5.168   5.249 -0.4153 -0.2157 -0.9159
  100SAPE  H11Y10142   6.386   5.167   5.251 -1.0272 -1.5205  1.0946
  100SAPE  C31210143   6.310   5.322   5.137  0.1308  0.3405 -0.3646
  100SAPE  H12X10144   6.419   5.346   5.145  0.6327 -1.5421 -1.2194
  100SAPE  H12Y10145   6.253   5.417   5.138 -0.0094  0.4053 -3.7526
  100SAPE  C31310146   6.293   5.252   4.994  0.5250  0.1650 -0.8705
  100SAPE  H13X10147   6.186   5.223   4.994  0.1813  1.2490  1.0416
  100SAPE  H13Y10148   6.356   5.161   4.988  1.6178  0.6999  1.3176
  100SAPE  C31410149   6.312   5.352   4.879  0.1878 -0.3323  0.8233
  100SAPE  H14X10150   6.418   5.381   4.898 -0.5177  1.3695  2.5702
  100SAPE  H14Y10151   6.245   5.438   4.902 -2.2200 -1.0520 -2.7129
  100SAPE  C31510152   6.299   5.307   4.739  0.6652  0.0794 -0.7381
  100SAPE  H15X10153   6.205   5.251   4.723  0.1492  1.2653 -2.0243
  100SAPE  H15Y10154   6.389   5.241   4.731  1.3072  0.9368 -0.7747
  100SAPE  C31610155   6.301   5.416   4.639 -0.1681 -0.0195 -0.5599
  100SAPE  H16X10156   6.249   5.511   4.661  0.3148  0.0373  0.3887
  100SAPE  H16Y10157   6.237   5.378   4.556  0.1734 -0.6773 -0.5307
  100SAPE  C31710158   6.444   5.448   4.592 -0.0071  0.4934 -0.6049
  100SAPE  H17X10159   6.507   5.358   4.575  0.4601  0.2328  2.0622
  100SAPE  H17Y10160   6.500   5.502   4.671 -0.0520  1.7854 -1.4271
  100SAPE  C31810161   6.444   5.542   4.475  0.0056  0.4542  0.0632
  100SAPE  H18X10162   6.533   5.608   4.486  0.5011 -0.4066  1.5152
  100SAPE  H18Y10163   6.349   5.598   4.467 -2.0526 -2.6439  0.9844
  100SAPE  H18Z10164   6.456   5.475   4.387  1.2863  0.3976  0.2608
  101SAPE     N10165   4.892   0.154   7.033 -0.1416  0.9364  0.1765
  101SAPE   HN110166   4.862   0.216   6.955 -2.7912 -0.9100 -0.4162
  101SAPE   HN210167   4.899   0.063   6.983  1.3522  0.2047  1.6294
  101SAPE   HN310168   4.821   0.151   7.109  2.4700  1.6089  2.8504
  101SAPE   C1210169   5.029   0.191   7.094  0.1522 -0.3310 -0.3965
  101SAPE  H12A10170   5.053   0.115   7.171 -1.5509 -0.0804  0.4268
  101SAPE  H12B10171   5.030   0.285   7.154 -0.3400 -1.5344  1.5779
  101SAPE   C1110172   5.140   0.199   6.981 -0.2595 -0.5895 -0.1895
  101SAPE  H11A10173   5.152   0.093   6.949 -2.9094 -1.1732  0.5347
  101SAPE  H11B10174   5.237   0.220   7.030 -1.1816 -0.1620  1.5265
  101SAPE     P10175   5.168   0.429   6.865  0.6272  0.2850  0.7790
  101SAPE   O1310176   5.066   0.520   6.804 -0.7495 -0.3477 -0.2288
  101SAPE   O1410177   5.223   0.474   6.995 -0.3503 -0.3023  0.1135
  101SAPE   O1210178   5.105   0.289   6.877  0.5344  0.6790  0.2708
  101SAPE   O1110179   5.293   0.419   6.769  0.3041  1.0551 -0.1231
  101SAPE    C110180   5.287   0.364   6.637 -0.0549  0.4017 -0.0158
  101SAPE    HA10181   5.388   0.321   6.624  0.4269  1.0349  1.3973
  101SAPE    HB10182   5.206   0.290   6.621  0.5978 -0.6700  1.4551
  101SAPE    C210183   5.259   0.460   6.523 -0.0164 -0.8134  0.5354
  101SAPE    HS10184   5.155   0.497   6.537 -0.3359 -1.2441 -0.5396
  101SAPE   O2110185   5.270   0.389   6.398 -0.2088  0.5658 -0.1077
  101SAPE   C2110186   5.187   0.419   6.295  0.6723  0.2823 -0.1247
  101SAPE   O2210187   5.111   0.510   6.294 -0.2310 -0.0794  0.3613
  101SAPE   C2210188   5.221   0.329   6.174 -0.2336  0.3137 -0.4713
  101SAPE   H2R10189   5.330   0.344   6.160 -0.5590  1.0897 -2.6008
  101SAPE   H2S10190   5.209   0.225   6.213  1.4195  1.2807  2.9517
  101SAPE    C310191   5.360   0.575   6.531 -0.3535  0.1594  0.1679
  101SAPE    HX10192   5.338   0.630   6.625  0.2359  0.7069 -0.0085
  101SAPE    HY10193   5.350   0.645   6.445  0.4629 -0.4088 -0.4039
  101SAPE   O3110194   5.491   0.516   6.526 -0.1200  0.6235 -0.2136
  101SAPE   C3110195   5.588   0.602   6.533 -0.0985  0.2167  0.3529
  101SAPE   O3210196   5.578   0.723   6.530 -0.3639  0.3290  0.1454
  101SAPE   C3210197   5.723   0.525   6.547 -0.6459  0.2234 -0.1772
  101SAPE   H2X10198   5.703   0.417   6.529  0.2382 -0.1557  0.9805
  101SAPE   H2Y10199   5.752   0.531   6.654  0.0820  0.7860 -0.4037
  101SAPE   C2310200   5.135   0.347   6.048 -0.1240  0.4885 -0.6710
  101SAPE   H3R10201   5.167   0.448   6.012  0.2734 -0.2625 -2.5087
  101SAPE   H3S10202   5.028   0.342   6.075  0.2930  0.7443  1.2005
  101SAPE   C2410203   5.164   0.234   5.948 -0.9158  0.8790 -0.2513
  101SAPE   H4R10204   5.148   0.131   5.987  0.3742  0.7821  0.0667
  101SAPE   H4S10205   5.275   0.230   5.950 -0.9027 -0.0713 -1.7102
  101SAPE   C2510206   5.121   0.276   5.806 -0.0851  0.1490 -0.2631
  101SAPE   H5R10207   5.138   0.381   5.779 -1.0105  0.7358  1.2853
  101SAPE   C2610208   5.093   0.189   5.714  0.5095  1.0229  0.0220
  101SAPE   H6R10209   5.079   0.219   5.609  3.9934 -0.4294 -1.0090
  101SAPE   C2710210   5.089   0.037   5.728  0.6949  0.6279 -0.4751
  101SAPE   H7R10211   4.989  -0.007   5.744  1.4080 -0.7760  0.3274
  101SAPE   H7S10212   5.141   0.013   5.824 -0.1378 -0.9044 -0.3877
  101SAPE   C2810213   5.165  -0.055   5.637  0.0373 -0.1031  0.1162
  101SAPE   H8R10214   5.272  -0.032   5.633 -0.0473  0.5196  1.2552
  101SAPE   C2910215   5.117  -0.161   5.565  0.1074  0.0493 -0.6677
  101SAPE   H9R10216   5.177  -0.214   5.490 -3.2041 -3.4542 -1.1455
  101SAPE  C21010217   4.971  -0.197   5.552  0.1354  0.5349  0.8251
  101SAPE  H10R10218   4.926  -0.150   5.462  1.5838 -1.9666 -1.3403
  101SAPE  H10S10219   4.904  -0.156   5.631 -2.9661  1.7233 -2.2124
  101SAPE  C21110220   4.946  -0.349   5.536 -0.2348 -0.5408  0.0995
  101SAPE  H11R10221   4.918  -0.388   5.635 -1.5274  1.0309  0.3876
  101SAPE  C21210222   4.947  -0.420   5.423 -0.0270 -0.5722 -0.1383
  101SAPE  H12R10223   4.921  -0.527   5.425  0.0896 -0.5903  0.6260
  101SAPE  C21310224   4.973  -0.369   5.280  0.0568  0.0427  0.3884
  101SAPE  H13R10225   4.970  -0.258   5.273 -0.2468 -0.0484 -1.6134
  101SAPE  H13S10226   4.905  -0.414   5.205  1.8190 -0.3514 -1.0742
  101SAPE  C21410227   5.109  -0.423   5.250  0.4677  0.2838 -0.3405
  101SAPE  H14R10228   5.111  -0.531   5.273 -0.4709  0.6551  1.7804
  101SAPE  C21510229   5.224  -0.377   5.206  0.1120  0.5121 -0.1432
  101SAPE  H15R10230   5.309  -0.444   5.187 -0.8864 -0.5156 -1.1654
  101SAPE  C21610231   5.236  -0.235   5.161 -0.0081 -0.2873  0.2877
  101SAPE  H16R10232   5.284  -0.169   5.236 -1.5014 -0.8348  1.7688
  101SAPE  H16S10233   5.135  -0.192   5.151 -1.3988 -2.7797  2.3935
  101SAPE  C21710234   5.315  -0.236   5.022  0.0291  0.5812 -0.7404
  101SAPE  H17R10235   5.306  -0.334   4.969 -0.3893 -0.6376  1.4562
  101SAPE  H17S10236   5.423  -0.233   5.046  0.4532  1.4274 -2.6187
  101SAPE  C21810237   5.276  -0.122   4.923 -0.1085  0.1668  0.8381
  101SAPE  H18R10238   5.345  -0.041   4.955  0.6052  0.3407 -1.0048
  101SAPE  H18S10239   5.171  -0.087   4.924 -0.0859  0.5500 -2.0602
  101SAPE  C21910240   5.326  -0.159   4.783 -0.3130 -0.3476  0.6149
  101SAPE  H19R10241   5.271  -0.251   4.754  2.2317 -2.1289  1.1585
  101SAPE  H19S10242   5.432  -0.190   4.796 -0.9090 -3.3532 -0.7352
  101SAPE  C22010243   5.319  -0.044   4.671  0.2771  0.1950 -0.8256
  101SAPE  H20R10244   5.333   0.058   4.713 -2.0286  0.8804 -1.5759
  101SAPE  H20S10245   5.223  -0.050   4.616 -0.8872  2.3906  0.7880
  101SAPE  H20T10246   5.400  -0.061   4.597  0.4499  0.7040 -0.7577
  101SAPE   C3310247   5.836   0.580   6.455  0.2076  0.1661 -0.2297
  101SAPE   H3X10248   5.936   0.551   6.493 -0.2930 -0.2685  0.8146
  101SAPE   H3Y10249   5.852   0.690   6.461  0.4394  0.0745  2.9771
  101SAPE   C3410250   5.815   0.561   6.303  0.3848  0.3074 -0.8172
  101SAPE   H4X10251   5.916   0.549   6.259  0.0765  1.6023 -1.9098
  101SAPE   H4Y10252   5.772   0.651   6.255  0.4032  0.2473 -0.9456
  101SAPE   C3510253   5.736   0.431   6.257  0.2755 -0.4492 -0.4989
  101SAPE   H5X10254   5.630   0.450   6.284  0.3647 -0.4509 -0.1390
  101SAPE   H5Y10255   5.771   0.349   6.324  0.7525  0.9028  0.9778
  101SAPE   C3610256   5.751   0.410   6.108 -0.5959  0.7345  0.1736
  101SAPE   H6X10257   5.742   0.301   6.093  1.1213  0.2660  2.1432
  101SAPE   H6Y10258   5.853   0.433   6.070 -0.1466 -1.6540 -0.2151
  101SAPE   C3710259   5.640   0.491   6.031 -0.0172  0.7537  0.2856
  101SAPE   H7X10260   5.653   0.600   6.046  0.2998  0.5196  1.8890
  101SAPE   H7Y10261   5.539   0.463   6.067 -0.5006 -0.7032 -1.9622
  101SAPE   C3810262   5.653   0.458   5.886 -0.2309 -0.1472 -0.1667
  101SAPE   H8X10263   5.614   0.355   5.870  3.2759 -1.6988  0.4077
  101SAPE   H8Y10264   5.763   0.448   5.871 -0.2840  0.1559 -0.7912
  101SAPE   C3910265   5.597   0.560   5.786 -0.5343 -0.0685  0.9370
  101SAPE   H9X10266   5.654   0.653   5.809  3.2677 -1.8890 -0.2393
  101SAPE   H9Y10267   5.487   0.574   5.789 -0.7280 -0.5037 -1.6427
  101SAPE  C31010268   5.635   0.515   5.644 -0.1854  0.4558 -0.2612
  101SAPE  H10X10269   5.562   0.440   5.607  0.1194  0.5607 -1.1121
  101SAPE  H10Y10270   5.732   0.463   5.662 -0.3025  1.1167  2.8007
  101SAPE  C31110271   5.641   0.624   5.542  0.1752 -0.3598 -0.4354
  101SAPE  H11X10272   5.699   0.712   5.576  0.0260  0.4653 -2.2175
  101SAPE  H11Y10273   5.544   0.670   5.513  0.9080 -0.1201 -2.6770
  101SAPE  C31210274   5.695   0.575   5.399  0.6265 -0.1202 -0.1101
  101SAPE  H12X10275   5.643   0.479   5.375 -1.8498  1.4197 -1.3450
  101SAPE  H12Y10276   5.804   0.556   5.407  0.9215  0.1409 -2.7122
  101SAPE  C31310277   5.652   0.671   5.292 -0.5148  0.0683  0.6257
  101SAPE  H13X10278   5.700   0.771   5.304  0.4606 -0.3776  0.5739
  101SAPE  H13Y10279   5.543   0.687   5.283 -0.3989 -0.0152 -1.4713
  101SAPE  C31410280   5.706   0.620   5.152  0.2448 -0.0906  0.2399
  101SAPE  H14X10281   5.809   0.587   5.177  0.8115  1.1837 -0.2928
  101SAPE  H14Y10282   5.720   0.706   5.083  1.6535  0.6155  1.3645
  101SAPE  C31510283   5.633   0.511   5.072 -0.7725  0.0647  0.3820
  101SAPE  H15X10284   5.528   0.541   5.051 -0.9370 -0.1357  0.8750
  101SAPE  H15Y10285   5.627   0.415   5.128 -0.1821  0.2789  0.8232
  101SAPE  C31610286   5.709   0.475   4.936  0.4819  0.5728 -0.1322
  101SAPE  H16X10287   5.792   0.403   4.955  1.3603  0.9539 -2.1966
  101SAPE  H16Y10288   5.751   0.572   4.902 -0.3584  0.6238 -1.0648
  101SAPE  C31710289   5.613   0.396   4.841  0.7284 -0.2898  0.8514
  101SAPE  H17X10290   5.513   0.443   4.833  0.7458 -0.1185  1.5371
  101SAPE  H17Y10291   5.594   0.298   4.890 -0.9889 -0.4785 -0.1386
  101SAPE  C31810292   5.685   0.372   4.702  0.0819 -0.0515  0.4818
  101SAPE  H18X10293   5.728   0.464   4.657 -0.1867 -0.4912 -0.6892
  101SAPE  H18Y10294   5.613   0.333   4.628  1.1633 -1.8762  0.3296
  101SAPE  H18Z10295   5.771   0.302   4.713  1.2584  1.0007 -1.4443
  102SAPE     N10296   5.745   1.020   7.062 -0.4851 -0.2866  0.2297
  102SAPE   HN110297   5.748   1.038   6.960 -2.3242 -1.5657 -0.0986
  102SAPE   HN210298   5.659   0.964   7.079 -0.4976 -0.9489 -1.7533
  102SAPE   HN310299   5.742   1.112   7.110  0.8867 -0.3157  0.4043
  102SAPE   C1210300   5.875   0.952   7.096  0.1153 -1.1641  0.4246
  102SAPE  H12A10301   5.896   0.866   7.028  1.5495  0.7789 -1.7358
  102SAPE  H12B10302   5.854   0.925   7.202  2.1526  0.0144  1.1958
  102SAPE   C1110303   5.985   1.056   7.078 -0.1524 -0.3810 -0.5494
  102SAPE  H11A10304   5.985   1.088   6.971 -0.4539  0.0709 -0.4153
  102SAPE  H11B10305   6.080   1.013   7.115  0.3921 -0.0610 -1.5167
  102SAPE     P10306   6.023   1.302   7.137 -0.5839 -0.0006 -0.4298
  102SAPE   O1310307   5.935   1.416   7.147  0.2740 -0.2597 -0.1381
  102SAPE   O1410308   6.140   1.292   7.230  0.5558  0.2194 -0.2283
  102SAPE   O1210309   5.948   1.167   7.162  0.4603  0.4231  0.5244
  102SAPE   O1110310   6.070   1.288   6.995 -0.1776 -0.1246  0.7521
  102SAPE    C110311   6.205   1.271   6.961 -0.4117  0.9452  0.2264
  102SAPE    HA10312   6.263   1.355   7.004  0.6954 -0.8096  2.4096
  102SAPE    HB10313   6.241   1.170   6.990  1.9647  1.1391 -1.6908
  102SAPE    C210314   6.243   1.280   6.811 -0.0944  1.1666 -0.5666
  102SAPE    HS10315   6.173   1.349   6.758 -1.1876  0.9282  0.5113
  102SAPE   O2110316   6.239   1.140   6.754 -0.2337 -0.3563  0.6059
  102SAPE   C2110317   6.127   1.110   6.689 -0.8676  0.4810  0.6726
  102SAPE   O2210318   6.036   1.188   6.673  0.4495 -0.6344  0.7394
  102SAPE   C2210319   6.146   0.964   6.634  0.4635 -0.0086 -0.0150
  102SAPE   H2R10320   6.238   0.962   6.572  0.3344  0.1869 -0.2168
  102SAPE   H2S10321   6.159   0.892   6.717  1.2027 -0.2747 -0.3556
  102SAPE    C310322   6.386   1.329   6.782 -0.3866 -0.5249 -0.0798
  102SAPE    HX10323   6.452   1.257   6.834 -0.3973  0.9796  2.1659
  102SAPE    HY10324   6.384   1.434   6.817 -5.0214 -0.0906 -0.9345
  102SAPE   O3110325   6.400   1.325   6.637  0.3800  0.5411  0.4356
  102SAPE   C3110326   6.498   1.247   6.585 -0.0943 -0.7793  0.3078
  102SAPE   O3210327   6.577   1.176   6.646  0.2857  0.1101  0.2283
  102SAPE   C3210328   6.502   1.262   6.431 -0.3063  0.1474  0.8743
  102SAPE   H2X10329   6.534   1.162   6.394 -1.2962 -0.0964  0.6395
  102SAPE   H2Y10330   6.573   1.343   6.405  1.1664 -1.6039 -0.8646
  102SAPE   C2310331   6.030   0.916   6.549  0.1401  0.2877  0.3933
  102SAPE   H3R10332   5.934   0.936   6.601 -0.3378  1.5392 -0.9034
  102SAPE   H3S10333   6.050   0.807   6.541  2.0887  0.7058 -1.1412
  102SAPE   C2410334   6.036   0.977   6.405  0.2515 -0.4128 -0.4456
  102SAPE   H4R10335   6.140   0.963   6.370 -0.1320 -2.9609 -0.7977
  102SAPE   H4S10336   6.028   1.085   6.428 -1.1521 -0.7073  0.5683
  102SAPE   C2510337   5.937   0.942   6.302 -0.5394 -0.1161 -0.0128
  102SAPE   H5R10338   5.836   0.979   6.326  0.0160  0.6687  1.2007
  102SAPE   C2610339   5.965   0.886   6.180 -0.1038  0.0458 -0.2763
  102SAPE   H6R10340   5.880   0.851   6.118 -1.1410  1.4126  0.3358
  102SAPE   C2710341   6.100   0.828   6.143  0.1097  0.0531  0.2375
  102SAPE   H7R10342   6.077   0.747   6.070  1.7102  0.4823 -0.8203
  102SAPE   H7S10343   6.149   0.785   6.233  1.1461 -0.9850 -0.7838
  102SAPE   C2810344   6.201   0.923   6.079  0.4661 -0.1728 -0.7002
  102SAPE   H8R10345   6.266   0.969   6.155  0.6152  0.3342 -1.1272
  102SAPE   C2910346   6.226   0.954   5.953  0.5191 -0.5739 -0.4453
  102SAPE   H9R10347   6.298   1.034   5.933 -0.0840  0.0042 -0.3384
  102SAPE  C21010348   6.157   0.892   5.831  0.1148 -0.5842  0.0214
  102SAPE  H10R10349   6.068   0.829   5.853  0.0497 -0.4483  0.1487
  102SAPE  H10S10350   6.226   0.816   5.788  0.3623 -2.2671  3.0768
  102SAPE  C21110351   6.123   0.996   5.728 -0.4755 -0.2446  0.4799
  102SAPE  H11R10352   6.201   1.071   5.708  0.3893 -0.8636  1.4288
  102SAPE  C21210353   6.016   0.993   5.649  0.1293 -0.1652 -0.0659
  102SAPE  H12R10354   5.999   1.075   5.578 -1.5308  0.7950  1.3547
  102SAPE  C21310355   5.898   0.898   5.660  0.6518  0.2150 -0.2380
  102SAPE  H13R10356   5.885   0.829   5.746 -1.2503 -2.7308 -2.6764
  102SAPE  H13S10357   5.912   0.829   5.575  0.8102  0.1259 -0.1400
  102SAPE  C21410358   5.772   0.973   5.623  0.6379  0.2912  0.4521
  102SAPE  H14R10359   5.746   0.961   5.516 -0.8139 -0.6258  0.8848
  102SAPE  C21510360   5.689   1.046   5.700 -0.2706  0.4360  0.4104
  102SAPE  H15R10361   5.606   1.092   5.645 -1.3665 -1.1257  0.6997
  102SAPE  C21610362   5.701   1.058   5.844  0.1868 -0.7082 -0.5223
  102SAPE  H16R10363   5.691   1.161   5.885 -2.8239 -1.3682  0.6811
  102SAPE  H16S10364   5.795   1.014   5.882 -0.7668 -1.3135  1.2766
  102SAPE  C21710365   5.592   0.980   5.925  0.2154 -0.3170  1.1025
  102SAPE  H17R10366   5.617   0.877   5.892 -0.3004 -0.2743  0.5764
  102SAPE  H17S10367   5.496   1.013   5.881  0.3136  0.8486  1.7190
  102SAPE  C21810368   5.604   0.997   6.072  0.1239 -0.2029  0.2698
  102SAPE  H18R10369   5.571   1.101   6.093 -1.6222 -0.2495 -1.9159
  102SAPE  H18S10370   5.713   0.992   6.096  0.3938  2.3661 -0.1368
  102SAPE  C21910371   5.521   0.893   6.147  0.0541 -0.1716 -0.0225
  102SAPE  H19R10372   5.559   0.788   6.148 -1.8309 -0.9050  1.1251
  102SAPE  H19S10373   5.416   0.888   6.110 -0.2771 -0.4153  0.9209
  102SAPE  C22010374   5.522   0.920   6.298 -0.1174 -0.3844 -0.8601
  102SAPE  H20R10375   5.520   1.031   6.307 -0.4397 -0.4900  0.6302
  102SAPE  H20S10376   5.617   0.877   6.337  0.4539  0.5058 -1.2451
  102SAPE  H20T10377   5.432   0.877   6.347  0.4124  1.0984  1.5498
  102SAPE   C3310378   6.369   1.297   6.363 -0.5013  0.3114 -0.4186
  102SAPE   H3X10379   6.342   1.402   6.385 -0.7178  0.4353 -1.2436
  102SAPE   H3Y10380   6.306   1.223   6.417 -0.4707 -1.3467 -2.5324
  102SAPE   C3410381   6.371   1.272   6.218 -0.5572  0.2618  0.7129
  102SAPE   H4X10382   6.271   1.245   6.178  0.0598 -1.0432 -0.0306
  102SAPE   H4Y10383   6.434   1.183   6.196 -0.5085  0.3198  0.6147
  102SAPE   C3510384   6.417   1.391   6.133 -0.1491  0.7315 -0.7633
  102SAPE   H5X10385   6.517   1.405   6.179 -0.2512 -2.1172  0.5630
  102SAPE   H5Y10386   6.357   1.483   6.151 -0.3478  0.7796 -1.6604
  102SAPE   C3610387   6.431   1.368   5.978 -0.0848  0.7913  0.4156
  102SAPE   H6X10388   6.344   1.313   5.937  1.2724 -1.0837 -0.0726
  102SAPE   H6Y10389   6.516   1.302   5.950 -1.3165 -0.5869 -0.1450
  102SAPE   C3710390   6.438   1.501   5.889 -0.1300 -0.7504  0.1395
  102SAPE   H7X10391   6.520   1.565   5.929 -0.1708 -0.8515  0.3881
  102SAPE   H7Y10392   6.345   1.561   5.903 -0.8110 -2.0095  1.3352
  102SAPE   C3810393   6.471   1.468   5.741  0.3353 -0.0412  0.0298
  102SAPE   H8X10394   6.386   1.412   5.696 -0.3228  0.4680  0.6196
  102SAPE   H8Y10395   6.561   1.407   5.721  0.7837  0.4849  0.4228
  102SAPE   C3910396   6.458   1.592   5.649 -0.3593 -0.7141  0.1319
  102SAPE   H9X10397   6.531   1.667   5.686 -1.8017 -0.0766  1.7802
  102SAPE   H9Y10398   6.358   1.638   5.661 -0.5005 -1.4804  2.3013
  102SAPE  C31010399   6.469   1.558   5.502  0.0673 -0.2065  0.8566
  102SAPE  H10X10400   6.558   1.493   5.483  0.4631  0.7222 -0.5509
  102SAPE  H10Y10401   6.489   1.649   5.442 -1.9378 -1.1092 -1.3441
  102SAPE  C31110402   6.354   1.491   5.445  0.6948 -0.8078 -0.4489
  102SAPE  H11X10403   6.267   1.557   5.469  1.1565 -0.7131  1.1264
  102SAPE  H11Y10404   6.335   1.389   5.485  0.6747 -0.6318  0.0038
  102SAPE  C31210405   6.379   1.465   5.293 -0.0287  0.3035 -0.1805
  102SAPE  H12X10406   6.470   1.403   5.285 -0.4225 -1.0383  3.7774
  102SAPE  H12Y10407   6.396   1.565   5.247  0.7790 -0.2477 -1.1199
  102SAPE  C31310408   6.261   1.393   5.223  0.0089 -0.0573  0.4221
  102SAPE  H13X10409   6.166   1.448   5.239 -0.3668 -0.3877 -0.6380
  102SAPE  H13Y10410   6.257   1.304   5.289  0.0651  0.4222  1.0843
  102SAPE  C31410411   6.283   1.360   5.077  0.3113 -0.9922  0.2655
  102SAPE  H14X10412   6.381   1.310   5.060  1.6643  1.5890 -0.1984
  102SAPE  H14Y10413   6.289   1.457   5.023  2.1609  0.2863  2.5588
  102SAPE  C31510414   6.175   1.268   5.021 -0.4006  0.1585 -0.3276
  102SAPE  H15X10415   6.088   1.334   5.002 -0.1049  0.3848 -0.9263
  102SAPE  H15Y10416   6.146   1.194   5.098 -0.8994 -1.1795 -1.7438
  102SAPE  C31610417   6.220   1.186   4.899  0.8380 -0.3293 -0.5138
  102SAPE  H16X10418   6.131   1.134   4.857 -0.7948  0.6816  1.5310
  102SAPE  H16Y10419   6.283   1.103   4.937 -0.2807 -0.3873  1.3690
  102SAPE  C31710420   6.299   1.266   4.790 -0.4403  0.1761  0.5020
  102SAPE  H17X10421   6.396   1.293   4.837 -0.8442  2.1032  0.2734
  102SAPE  H17Y10422   6.250   1.360   4.758  1.1310  0.6369 -0.7077
  102SAPE  C31810423   6.349   1.180   4.664  0.2228 -0.2211  0.0311
  102SAPE  H18X10424   6.265   1.135   4.606 -1.0962  1.4451  0.5397
  102SAPE  H18Y10425   6.412   1.100   4.707  0.9551  0.1404 -0.3638
  102SAPE  H18Z10426   6.412   1.238   4.593 -2.0360  0.7144 -1.3230
  103SAPE     N10427   4.143   0.744   2.314  0.1402 -0.2778 -0.2719
  103SAPE   HN110428   4.246   0.740   2.328  0.1311 -0.2298 -0.1917
  103SAPE   HN210429   4.107   0.768   2.219  0.5261  0.7584 -0.1761
  103SAPE   HN310430   4.115   0.823   2.376  0.0943  0.2720 -0.9790
  103SAPE   C1210431   4.070   0.611   2.353  0.4963 -0.4922  0.2976
  103SAPE  H12A10432   3.961   0.627   2.335  0.9477  2.3900 -0.3842
  103SAPE  H12B10433   4.085   0.614   2.463 -0.0184 -0.1306  0.3646
  103SAPE   C1110434   4.136   0.491   2.288  0.1506 -0.3389 -0.4424
  103SAPE  H11A10435   4.090   0.400   2.334  0.0152  1.0336  2.3336
  103SAPE  H11B10436   4.235   0.501   2.336 -0.2605  1.8445  0.0677
  103SAPE     P10437   4.016   0.436   2.051  0.1376 -0.0010 -0.1753
  103SAPE   O1310438   4.000   0.533   1.943  0.3488 -0.6612  0.0842
  103SAPE   O1410439   4.053   0.295   2.021  0.8323  0.2410 -0.3702
  103SAPE   O1210440   4.136   0.487   2.148 -0.1699 -0.0167  0.4080
  103SAPE   O1110441   3.894   0.435   2.141  0.0957  0.1505  0.3024
  103SAPE    C110442   3.806   0.322   2.159 -0.3089 -0.5560  0.1091
  103SAPE    HA10443   3.703   0.363   2.166 -0.0616 -0.1165  1.7161
  103SAPE    HB10444   3.816   0.241   2.084 -0.5533 -0.2975 -0.2014
  103SAPE    C210445   3.829   0.254   2.300 -0.2005 -0.4198 -0.1709
  103SAPE    HS10446   3.736   0.197   2.319 -0.8883 -0.1550 -2.4260
  103SAPE   O2110447   3.853   0.361   2.397 -0.3015  0.2431 -0.2625
  103SAPE   C2110448   3.799   0.337   2.518  0.0149  0.5533  0.6079
  103SAPE   O2210449   3.713   0.250   2.534  0.0161  0.2329  0.0320
  103SAPE   C2210450   3.864   0.420   2.625 -0.0353 -0.0089 -0.0541
  103SAPE   H2R10451   3.974   0.410   2.631  0.2241  2.0628 -0.6091
  103SAPE   H2S10452   3.834   0.523   2.597  0.0725 -0.1531 -0.7152
  103SAPE    C310453   3.951   0.154   2.295 -0.6878 -0.0883 -0.0500
  103SAPE    HX10454   4.045   0.203   2.265 -1.0491  0.8309  0.2947
  103SAPE    HY10455   3.931   0.078   2.216 -1.3399 -1.8619  1.7301
  103SAPE   O3110456   3.965   0.097   2.421  0.7900  0.1842 -0.0759
  103SAPE   C3110457   3.926  -0.032   2.439 -0.6590 -0.4868  0.0210
  103SAPE   O3210458   3.857  -0.091   2.356  0.5295  0.1085 -0.0328
  103SAPE   C3210459   3.959  -0.081   2.579 -0.1229 -0.2100  0.1638
  103SAPE   H2X10460   3.882  -0.045   2.651  0.3830 -0.8669  1.0576
  103SAPE   H2Y10461   4.043  -0.020   2.619  0.5353 -0.7246 -0.4169
  103SAPE   C2310462   3.785   0.394   2.756 -0.2464 -0.1382 -0.4554
  103SAPE   H3R10463   3.675   0.377   2.753 -0.3872  0.5991 -4.1633
  103SAPE   H3S10464   3.810   0.476   2.827  1.5874 -0.5336 -0.6000
  103SAPE   C2410465   3.852   0.262   2.819 -0.3999  0.2605  0.3128
  103SAPE   H4R10466   3.958   0.290   2.842  0.0833 -1.6535  0.6103
  103SAPE   H4S10467   3.842   0.180   2.746 -0.1943 -0.3569  0.9682
  103SAPE   C2510468   3.791   0.223   2.951 -0.5713 -0.2591 -0.6344
  103SAPE   H5R10469   3.712   0.148   2.938 -1.1387  0.1885  0.1066
  103SAPE   C2610470   3.820   0.267   3.080  0.2659 -0.7200 -0.0079
  103SAPE   H6R10471   3.756   0.215   3.153  0.5431 -1.1126 -0.0422
  103SAPE   C2710472   3.909   0.362   3.151 -0.0424  0.1782 -0.3869
  103SAPE   H7R10473   3.989   0.394   3.081 -0.5020 -0.3143 -1.1496
  103SAPE   H7S10474   3.962   0.308   3.233 -1.7747 -0.6552  0.2568
  103SAPE   C2810475   3.833   0.479   3.202  0.8408  0.7728  0.2805
  103SAPE   H8R10476   3.776   0.534   3.126 -1.2751 -2.6338 -0.7710
  103SAPE   C2910477   3.793   0.510   3.327 -0.4607  0.6696  0.6929
  103SAPE   H9R10478   3.737   0.605   3.331 -1.3502  0.2492 -0.8632
  103SAPE  C21010479   3.828   0.434   3.450  0.3186  0.0168  0.5620
  103SAPE  H10R10480   3.872   0.332   3.442  1.6506  0.4066  2.2743
  103SAPE  H10S10481   3.729   0.415   3.497 -0.6882 -1.4258 -1.9691
  103SAPE  C21110482   3.925   0.508   3.541  0.5304  0.1853 -0.0150
  103SAPE  H11R10483   4.033   0.494   3.527  0.6059  0.6068  0.1145
  103SAPE  C21210484   3.893   0.586   3.648 -0.8532 -0.4693 -0.3242
  103SAPE  H12R10485   3.980   0.615   3.709 -1.7908 -0.7075  1.1777
  103SAPE  C21310486   3.759   0.626   3.693 -0.9742  0.3274  0.1305
  103SAPE  H13R10487   3.686   0.625   3.608  0.8182 -1.4254 -1.5033
  103SAPE  H13S10488   3.780   0.729   3.726 -1.3746  0.6076 -0.4640
  103SAPE  C21410489   3.706   0.544   3.812  0.2436 -0.4279 -0.2620
  103SAPE  H14R10490   3.715   0.435   3.803  2.7696 -0.4351  1.4669
  103SAPE  C21510491   3.675   0.586   3.937  0.0264  1.1350 -0.2379
  103SAPE  H15R10492   3.640   0.507   4.005 -1.6757  2.0869  0.0595
  103SAPE  C21610493   3.662   0.725   3.979 -0.3122  0.4100  0.2058
  103SAPE  H16R10494   3.556   0.747   4.003 -0.1407  1.0459  0.4059
  103SAPE  H16S10495   3.696   0.805   3.911 -3.2160  3.7047  2.2798
  103SAPE  C21710496   3.742   0.756   4.109 -0.1482 -0.3821  0.6887
  103SAPE  H17R10497   3.718   0.676   4.183  0.2903 -0.1212  1.1203
  103SAPE  H17S10498   3.712   0.862   4.127 -2.2464 -0.8670  0.2464
  103SAPE  C21810499   3.890   0.779   4.082 -0.4299  0.2846  0.3592
  103SAPE  H18R10500   3.900   0.857   4.004  1.1422  1.1318  1.3447
  103SAPE  H18S10501   3.939   0.688   4.043  1.8996  1.2369  0.9150
  103SAPE  C21910502   3.957   0.853   4.207 -0.3149  0.1380 -0.0329
  103SAPE  H19R10503   3.967   0.782   4.291  0.3627  2.7232  2.2192
  103SAPE  H19S10504   3.881   0.926   4.240 -0.6886 -2.0119  4.5617
  103SAPE  C22010505   4.088   0.913   4.177 -0.4318  0.6703 -0.5189
  103SAPE  H20R10506   4.125   0.962   4.270  1.0602  0.0122 -0.7357
  103SAPE  H20S10507   4.081   0.984   4.092 -1.4646  0.6008 -0.5031
  103SAPE  H20T10508   4.169   0.839   4.159 -0.0617  0.6035  1.2431
  103SAPE   C3310509   3.986  -0.238   2.579 -0.0476 -0.3480 -0.7506
  103SAPE   H3X10510   4.014  -0.279   2.479  4.3997  2.1303 -0.7912
  103SAPE   H3Y10511   3.894  -0.298   2.595  0.1645  0.1043  3.3022
  103SAPE   C3410512   4.096  -0.266   2.672 -0.1705 -0.6660 -0.8506
  103SAPE   H4X10513   4.176  -0.190   2.661 -2.3493  1.9236  0.2363
  103SAPE   H4Y10514   4.150  -0.360   2.646  2.2635  0.9113 -1.8573
  103SAPE   C3510515   4.054  -0.255   2.821 -0.5472  0.2001 -0.2813
  103SAPE   H5X10516   3.959  -0.311   2.839 -0.7981  0.7912  0.2579
  103SAPE   H5Y10517   4.026  -0.150   2.844  0.5955  0.6551 -0.9338
  103SAPE   C3610518   4.177  -0.295   2.907  0.0359  0.0245 -0.0308
  103SAPE   H6X10519   4.259  -0.220   2.900  2.0076 -2.0343 -0.4957
  103SAPE   H6Y10520   4.223  -0.387   2.863 -0.0709  0.8250 -1.9135
  103SAPE   C3710521   4.134  -0.309   3.056 -0.0470  0.3855  0.9191
  103SAPE   H7X10522   4.053  -0.385   3.060  0.8189 -0.6848 -0.9392
  103SAPE   H7Y10523   4.099  -0.208   3.088 -0.4693  1.4829 -2.6108
  103SAPE   C3810524   4.246  -0.354   3.147  0.8584  0.0473  0.0978
  103SAPE   H8X10525   4.338  -0.293   3.137  1.1037 -0.3121  0.1223
  103SAPE   H8Y10526   4.262  -0.455   3.104  0.4293 -0.0596  0.1872
  103SAPE   C3910527   4.209  -0.361   3.300 -0.1038  0.1294 -0.6106
  103SAPE   H9X10528   4.218  -0.465   3.338 -2.0359  0.2882  0.4391
  103SAPE   H9Y10529   4.103  -0.328   3.293 -0.9680 -2.4596 -0.9507
  103SAPE  C31010530   4.288  -0.258   3.391 -0.3714 -0.0817 -0.3405
  103SAPE  H10X10531   4.268  -0.158   3.347 -2.4866  0.5784  1.8773
  103SAPE  H10Y10532   4.396  -0.283   3.384 -0.8243 -1.8026 -1.5261
  103SAPE  C31110533   4.230  -0.257   3.535 -0.5428 -0.4786  0.1639
  103SAPE  H11X10534   4.236  -0.358   3.580  0.5893  0.5828  2.5635
  103SAPE  H11Y10535   4.127  -0.216   3.542 -0.2748  0.7613 -2.0852
  103SAPE  C31210536   4.288  -0.163   3.641  0.1625  0.1064 -0.4514
  103SAPE  H12X10537   4.305  -0.064   3.592 -1.9841  0.2746 -0.9806
  103SAPE  H12Y10538   4.389  -0.197   3.669 -0.4332  0.0112  1.7819
  103SAPE  C31310539   4.194  -0.148   3.768 -0.4861 -0.1151  0.1510
  103SAPE  H13X10540   4.157  -0.245   3.807 -0.5277  0.5172  1.7645
  103SAPE  H13Y10541   4.108  -0.092   3.726 -1.0832 -0.0715  1.3956
  103SAPE  C31410542   4.245  -0.062   3.882  0.1973  0.2572  0.3205
  103SAPE  H14X10543   4.257   0.044   3.852  0.9524 -0.8054 -3.7837
  103SAPE  H14Y10544   4.340  -0.110   3.914 -0.5882 -1.6793 -0.1041
  103SAPE  C31510545   4.149  -0.066   4.010 -0.2867  0.4224  0.2499
  103SAPE  H15X10546   4.099  -0.165   4.022 -0.9816  0.9129  1.6542
  103SAPE  H15Y10547   4.069   0.009   3.993  0.5777  0.7199 -3.2483
  103SAPE  C31610548   4.228  -0.039   4.139  0.1351 -0.3549  0.7466
  103SAPE  H16X10549   4.283   0.056   4.132 -1.3147  0.5666  1.3689
  103SAPE  H16Y10550   4.300  -0.122   4.157  0.3842 -1.0578 -2.8605
  103SAPE  C31710551   4.143  -0.011   4.258 -0.9363 -0.2530 -0.2563
  103SAPE  H17X10552   4.064  -0.087   4.277 -1.4024  0.1785 -0.4173
  103SAPE  H17Y10553   4.092   0.087   4.241 -1.3765 -0.2252  1.0912
  103SAPE  C31810554   4.238   0.013   4.383  0.0271  0.6725  0.1796
  103SAPE  H18X10555   4.302   0.102   4.363  0.8801 -0.3265 -1.7228
  103SAPE  H18Y10556   4.304  -0.075   4.394  0.2227  0.3386 -2.9191
  103SAPE  H18Z10557   4.180   0.022   4.477 -0.7329 -0.3101 -0.1726
  104SAPE     N10558   4.722   5.201   2.203 -0.5964  0.4238  0.7379
  104SAPE   HN110559   4.754   5.163   2.112 -0.2964  1.6174  0.3206
  104SAPE   HN210560   4.618   5.196   2.211 -0.9563  0.7534 -2.4368
  104SAPE   HN310561   4.761   5.296   2.218  4.6929 -1.2558 -0.2799
  104SAPE   C1210562   4.792   5.116   2.307  0.3264  0.6526 -0.6809
  104SAPE  H12A10563   4.775   5.006   2.306  0.7535  0.4781  2.3621
  104SAPE  H12B10564   4.759   5.150   2.407  0.8479 -0.4325 -0.1313
  104SAPE   C1110565   4.948   5.139   2.299 -0.0890  0.4495  0.8139
  104SAPE  H11A10566   4.986   5.094   2.205 -1.0605 -1.7806  1.4300
  104SAPE  H11B10567   5.000   5.082   2.379 -0.9012 -0.4652  0.7046
  104SAPE     P10568   5.010   5.351   2.443 -0.7304  0.1992 -0.3876
  104SAPE   O1310569   5.100   5.277   2.535  0.2597  0.0607  0.0577
  104SAPE   O1410570   5.044   5.492   2.416  0.4655 -0.0874  0.1513
  104SAPE   O1210571   4.997   5.275   2.302 -0.2111 -0.0064 -0.3239
  104SAPE   O1110572   4.862   5.347   2.495 -0.5602  0.6171 -0.1863
  104SAPE    C110573   4.804   5.437   2.595  0.6167 -0.0082  0.5274
  104SAPE    HA10574   4.858   5.532   2.612  0.5073 -0.3623  3.2394
  104SAPE    HB10575   4.708   5.475   2.553  0.8843 -1.0230 -1.0861
  104SAPE    C210576   4.785   5.360   2.731 -0.1304  0.1258 -0.1782
  104SAPE    HS10577   4.709   5.427   2.778 -2.4455 -1.2776 -1.6873
  104SAPE   O2110578   4.908   5.345   2.809  0.2436 -0.1539  0.1942
  104SAPE   C2110579   4.947   5.457   2.866  0.3233 -0.4357 -0.8232
  104SAPE   O2210580   4.875   5.556   2.871 -0.1135 -0.1144 -0.1213
  104SAPE   C2210581   5.075   5.430   2.942 -0.5998  0.3579 -1.1203
  104SAPE   H2R10582   5.144   5.374   2.876 -0.1363 -1.1901  0.5861
  104SAPE   H2S10583   5.112   5.531   2.970 -1.4149  1.0016 -2.2653
  104SAPE    C310584   4.710   5.223   2.733  0.7728 -0.8359  0.9233
  104SAPE    HX10585   4.765   5.146   2.675  0.2444  1.6129 -3.1681
  104SAPE    HY10586   4.619   5.253   2.677  0.2683 -2.3490  0.8883
  104SAPE   O3110587   4.667   5.189   2.867 -0.7483  0.0434 -0.1197
  104SAPE   C3110588   4.745   5.096   2.921  0.7692 -0.0929 -0.6421
  104SAPE   O3210589   4.818   5.022   2.865 -0.8365 -0.1221 -0.0562
  104SAPE   C3210590   4.729   5.100   3.073 -0.1078  0.4077 -0.9396
  104SAPE   H2X10591   4.631   5.053   3.095  0.8243 -1.6625 -0.9181
  104SAPE   H2Y10592   4.717   5.204   3.108  0.6349  0.1633  0.1024
  104SAPE   C2310593   5.063   5.338   3.069  0.4839 -0.5113  0.5325
  104SAPE   H3R10594   5.163   5.324   3.117  1.1122  3.2194  0.6416
  104SAPE   H3S10595   5.017   5.247   3.025  0.8072  0.3285 -1.6716
  104SAPE   C2410596   4.951   5.394   3.165 -0.1038 -0.0491  0.7207
  104SAPE   H4R10597   4.941   5.312   3.240  1.9756 -0.4235  0.6439
  104SAPE   H4S10598   4.852   5.395   3.115  0.8174 -0.8697 -1.2314
  104SAPE   C2510599   4.986   5.531   3.225  0.3440 -0.3510  0.0539
  104SAPE   H5R10600   4.946   5.625   3.182  1.4140  0.0149 -0.1897
  104SAPE   C2610601   5.050   5.536   3.347  0.8674  0.4859  0.3942
  104SAPE   H6R10602   5.082   5.637   3.375 -2.6433  1.7960  0.2187
  104SAPE   C2710603   5.107   5.418   3.423  0.1052 -0.1525  0.4295
  104SAPE   H7R10604   5.196   5.460   3.475 -1.4126 -0.2380  3.2893
  104SAPE   H7S10605   5.135   5.337   3.353  2.3594  0.4386  0.5687
  104SAPE   C2810606   5.010   5.370   3.532  0.3590  0.1448  0.3711
  104SAPE   H8R10607   4.909   5.361   3.488 -2.3749  3.5157  5.0662
  104SAPE   C2910608   5.034   5.348   3.659 -0.9148  0.0308  0.2716
  104SAPE   H9R10609   4.955   5.304   3.721 -0.7988  1.4691  1.4957
  104SAPE  C21010610   5.163   5.370   3.736 -0.0208 -0.1372  0.4646
  104SAPE  H10R10611   5.148   5.467   3.788  2.4001  1.9080 -2.2829
  104SAPE  H10S10612   5.244   5.390   3.663 -0.8590 -0.3481 -0.5495
  104SAPE  C21110613   5.195   5.255   3.823 -0.2078  0.6514  0.6905
  104SAPE  H11R10614   5.272   5.197   3.770 -0.9490  2.3039 -2.4257
  104SAPE  C21210615   5.168   5.234   3.957 -0.0136  0.4651 -1.0287
  104SAPE  H12R10616   5.212   5.148   4.009 -0.2415  0.5433 -0.6961
  104SAPE  C21310617   5.081   5.328   4.042  0.2562 -0.0828  1.3932
  104SAPE  H13R10618   5.023   5.399   3.979  0.5649 -0.6761  0.4128
  104SAPE  H13S10619   5.155   5.385   4.102  1.7452 -0.9187  0.4108
  104SAPE  C21410620   4.975   5.262   4.119 -0.2799  0.0774  0.0816
  104SAPE  H14R10621   4.915   5.190   4.059  1.1195 -0.1448 -1.1149
  104SAPE  C21510622   4.948   5.272   4.251  0.6007 -0.4849  0.3720
  104SAPE  H15R10623   4.863   5.214   4.291 -1.7407  2.1766 -0.4662
  104SAPE  C21610624   5.009   5.366   4.357  0.0763 -0.1866  0.7679
  104SAPE  H16R10625   4.926   5.439   4.368 -1.2568 -1.2820 -1.2779
  104SAPE  H16S10626   5.107   5.405   4.322  0.0294  2.3812  3.1632
  104SAPE  C21710627   5.022   5.310   4.497 -0.4501  0.2264  0.7236
  104SAPE  H17R10628   5.085   5.219   4.497  0.2849  0.6010 -2.8291
  104SAPE  H17S10629   4.922   5.286   4.538 -1.0116 -1.6197 -1.4922
  104SAPE  C21810630   5.097   5.409   4.587 -0.3301 -0.1788  0.1826
  104SAPE  H18R10631   5.028   5.493   4.613 -0.3001 -0.2104  0.3638
  104SAPE  H18S10632   5.186   5.456   4.540 -0.5353 -0.6316 -0.6937
  104SAPE  C21910633   5.157   5.345   4.710 -0.3323  0.1436 -0.0833
  104SAPE  H19R10634   5.219   5.416   4.769 -1.4418 -0.2319  1.6050
  104SAPE  H19S10635   5.220   5.258   4.684 -0.6347 -0.7599  2.0085
  104SAPE  C22010636   5.057   5.285   4.812 -0.4009 -0.5813  0.2759
  104SAPE  H20R10637   4.987   5.207   4.774 -1.3219  1.1046 -1.6311
  104SAPE  H20S10638   4.981   5.357   4.846 -0.1719  0.5475 -1.4706
  104SAPE  H20T10639   5.115   5.247   4.899 -0.1321  0.0076  0.3574
  104SAPE   C3310640   4.831   5.020   3.160 -0.5931 -0.2832 -0.3456
  104SAPE   H3X10641   4.937   5.041   3.135 -0.4682 -0.2213  0.2410
  104SAPE   H3Y10642   4.827   4.911   3.137  0.5229 -0.4502  0.2191
  104SAPE   C3410643   4.797   5.024   3.309 -0.0150 -0.6458 -0.6392
  104SAPE   H4X10644   4.724   4.944   3.336  2.0235 -2.0237  1.1675
  104SAPE   H4Y10645   4.747   5.121   3.327  3.0562  0.5137  2.7798
  104SAPE   C3510646   4.911   5.015   3.412  0.3669  0.1787 -0.1563
  104SAPE   H5X10647   4.996   5.086   3.411  0.6366 -0.1390 -0.1238
  104SAPE   H5Y10648   4.965   4.926   3.373  0.6660  0.3894 -0.2249
  104SAPE   C3610649   4.855   4.984   3.555 -0.0696 -0.3311  0.2101
  104SAPE   H6X10650   4.767   4.917   3.553 -0.2467 -0.1542  1.1493
  104SAPE   H6Y10651   4.825   5.079   3.604 -0.7074  0.0107 -0.8323
  104SAPE   C3710652   4.960   4.937   3.654  0.2290 -0.2059  0.2316
  104SAPE   H7X10653   5.030   5.022   3.652  0.8386 -0.7109 -0.3245
  104SAPE   H7Y10654   5.015   4.845   3.627  1.8784 -0.2317  3.2790
  104SAPE   C3810655   4.896   4.926   3.798 -0.2865  0.3790  0.0789
  104SAPE   H8X10656   4.790   4.896   3.782 -0.0173 -0.0892 -0.9079
  104SAPE   H8Y10657   4.892   5.029   3.839  1.0456 -0.4636  2.5051
  104SAPE   C3910658   4.967   4.828   3.896  0.6699 -0.5991  0.1480
  104SAPE   H9X10659   5.077   4.840   3.900  0.6688  0.0335 -1.1250
  104SAPE   H9Y10660   4.950   4.723   3.862 -2.1887  0.0316 -0.6126
  104SAPE  C31010661   4.891   4.842   4.031  0.7683 -0.1617 -0.3042
  104SAPE  H10X10662   4.784   4.811   4.032  0.8403 -0.4236  0.7643
  104SAPE  H10Y10663   4.909   4.947   4.064  2.9377 -0.9814  1.3840
  104SAPE  C31110664   4.965   4.758   4.136  0.0121  0.2332 -0.4896
  104SAPE  H11X10665   5.070   4.794   4.138 -0.7520  2.6671  1.6666
  104SAPE  H11Y10666   4.956   4.653   4.102  1.2389 -0.1821  0.4048
  104SAPE  C31210667   4.911   4.770   4.274 -0.2118 -0.4021  0.6348
  104SAPE  H12X10668   4.922   4.680   4.338 -0.5681 -1.8033 -1.1615
  104SAPE  H12Y10669   4.802   4.782   4.254  0.1375 -0.3654 -1.5609
  104SAPE  C31310670   4.984   4.885   4.340  0.2167 -0.6242  0.8679
  104SAPE  H13X10671   4.953   4.970   4.275 -1.8740 -0.5392  1.9017
  104SAPE  H13Y10672   5.095   4.877   4.338  0.3305  0.8110 -0.5687
  104SAPE  C31410673   4.936   4.900   4.486  1.0957  0.0109  0.2413
  104SAPE  H14X10674   4.831   4.936   4.482  1.3752  0.9348  0.9518
  104SAPE  H14Y10675   4.993   4.988   4.521 -0.0074  0.8507 -0.0315
  104SAPE  C31510676   4.961   4.782   4.578 -0.6913  0.4579  0.3647
  104SAPE  H15X10677   4.924   4.682   4.547 -0.3040  0.2302  0.6215
  104SAPE  H15Y10678   4.903   4.797   4.672  0.1539  0.3519  0.9139
  104SAPE  C31610679   5.114   4.770   4.622  0.2483 -0.1996  0.3393
  104SAPE  H16X10680   5.167   4.798   4.528 -1.2416  1.8512  0.0479
  104SAPE  H16Y10681   5.144   4.669   4.659  1.6565 -0.2477 -0.8529
  104SAPE  C31710682   5.146   4.861   4.737  0.5672  0.4921 -0.3687
  104SAPE  H17X10683   5.076   4.860   4.824  0.7738 -0.3236 -0.1983
  104SAPE  H17Y10684   5.152   4.965   4.700  1.2292  0.5800 -0.0388
  104SAPE  C31810685   5.281   4.833   4.805  0.1761  0.1498 -0.3111
  104SAPE  H18X10686   5.366   4.839   4.735  1.5844 -0.8893  1.2512
  104SAPE  H18Y10687   5.274   4.729   4.842 -0.8406 -0.4685 -2.1234
  104SAPE  H18Z10688   5.301   4.896   4.895 -2.0778 -0.6716  0.8536
  105SAPE     N10689   3.958   4.625   2.057  0.2610  0.0818 -0.0249
  105SAPE   HN110690   4.010   4.710   2.028 -2.3354  0.6636 -3.7075
  105SAPE   HN210691   4.016   4.539   2.054  0.1322 -0.1194  1.9514
  105SAPE   HN310692   3.877   4.608   1.993  0.1189 -1.2989  0.4982
  105SAPE   C1210693   3.894   4.623   2.188 -0.3538 -0.5811 -0.5812
  105SAPE  H12A10694   3.811   4.696   2.191  0.0645 -0.1235  0.5352
  105SAPE  H12B10695   3.976   4.654   2.257  0.0372  0.4662 -1.4920
  105SAPE   C1110696   3.847   4.484   2.225 -0.2870  0.0964 -0.2310
  105SAPE  H11A10697   3.765   4.453   2.158 -2.9480  2.1621  1.8338
  105SAPE  H11B10698   3.789   4.486   2.320 -0.2985  1.0842 -0.2487
  105SAPE     P10699   4.067   4.372   2.324 -0.2928  0.1008  0.1070
  105SAPE   O1310700   4.125   4.232   2.317 -0.3489  0.0179 -0.0530
  105SAPE   O1410701   4.159   4.481   2.278  0.8178  0.1449  0.0437
  105SAPE   O1210702   3.952   4.382   2.225  0.5121  0.1655 -0.3101
  105SAPE   O1110703   4.014   4.393   2.471 -0.5454  0.0136 -0.0509
  105SAPE    C110704   3.913   4.304   2.519 -0.0635 -0.0112  0.7572
  105SAPE    HA10705   3.832   4.363   2.567  0.6315  1.3778  0.2810
  105SAPE    HB10706   3.866   4.254   2.431 -1.0014  2.8823 -0.4992
  105SAPE    C210707   3.968   4.206   2.623 -0.3482 -0.3076 -0.5695
  105SAPE    HS10708   4.031   4.124   2.582 -0.2097 -1.4139  1.7119
  105SAPE   O2110709   3.856   4.154   2.700  0.2342  0.5919  0.2041
  105SAPE   C2110710   3.885   4.039   2.765  0.3843 -0.0363 -0.6600
  105SAPE   O2210711   3.989   3.978   2.745 -0.3623 -0.1274  0.1972
  105SAPE   C2210712   3.764   4.008   2.851  0.7251  0.3985  0.3898
  105SAPE   H2R10713   3.755   4.087   2.929  2.3682  1.1709 -0.1469
  105SAPE   H2S10714   3.676   4.009   2.784  0.9382  0.4526  0.1058
  105SAPE    C310715   4.054   4.287   2.722 -0.8883 -0.8839  0.2643
  105SAPE    HX10716   3.993   4.374   2.753  0.1743 -0.3402  0.9086
  105SAPE    HY10717   4.136   4.337   2.666 -0.4958 -0.3868  1.2599
  105SAPE   O3110718   4.107   4.220   2.838  0.1185 -0.2385 -0.5647
  105SAPE   C3110719   4.224   4.162   2.819  0.3146 -0.0664  0.7255
  105SAPE   O3210720   4.271   4.156   2.707  0.0137 -0.5180 -0.0266
  105SAPE   C3210721   4.284   4.100   2.940  0.0129  0.2367  0.2404
  105SAPE   H2X10722   4.354   4.177   2.979 -0.2191  0.8351 -0.5064
  105SAPE   H2Y10723   4.334   4.008   2.904 -1.7402  0.2716 -2.5657
  105SAPE   C2310724   3.774   3.869   2.925 -1.0378  0.8493 -0.2277
  105SAPE   H3R10725   3.870   3.861   2.980 -0.8380  0.0082 -0.6755
  105SAPE   H3S10726   3.781   3.785   2.853  0.4310  0.9869 -0.2624
  105SAPE   C2410727   3.654   3.842   3.017  0.2281  0.4446 -0.0983
  105SAPE   H4R10728   3.685   3.772   3.097 -1.4631 -0.6049 -0.3182
  105SAPE   H4S10729   3.577   3.792   2.955 -0.5993  1.7606 -0.1607
  105SAPE   C2510730   3.591   3.970   3.072  0.1403  0.8302  0.0347
  105SAPE   H5R10731   3.510   4.010   3.010  0.5979  2.2267  0.2921
  105SAPE   C2610732   3.609   4.021   3.197  0.4079 -0.0349 -0.2321
  105SAPE   H6R10733   3.553   4.109   3.231  0.8623 -0.3592  1.4915
  105SAPE   C2710734   3.696   3.959   3.301 -0.0867  0.2983  0.2268
  105SAPE   H7R10735   3.761   4.036   3.347  0.0627  1.0325 -1.1601
  105SAPE   H7S10736   3.772   3.889   3.260 -0.2817  0.3306 -0.2024
  105SAPE   C2810737   3.621   3.874   3.402 -0.6428 -0.0465 -0.4225
  105SAPE   H8R10738   3.589   3.776   3.363 -1.1050  0.5834 -1.6779
  105SAPE   C2910739   3.597   3.912   3.534  0.0962  0.1970  0.2911
  105SAPE   H9R10740   3.530   3.845   3.590 -0.9195  0.2077 -0.8603
  105SAPE  C21010741   3.637   4.043   3.608 -0.6276  1.1259  0.4005
  105SAPE  H10R10742   3.564   4.102   3.666  0.3159  0.2311  2.6041
  105SAPE  H10S10743   3.666   4.110   3.524  1.5389  0.5752  0.6336
  105SAPE  C21110744   3.752   4.023   3.703  0.0449 -0.4528 -0.2458
  105SAPE  H11R10745   3.848   4.068   3.674  0.2678  0.0857  1.2351
  105SAPE  C21210746   3.757   3.954   3.821  0.3292  1.4971 -0.2363
  105SAPE  H12R10747   3.855   3.934   3.866 -0.5923 -3.8725  0.1158
  105SAPE  C21310748   3.639   3.892   3.898 -0.2028  0.0604 -0.2414
  105SAPE  H13R10749   3.681   3.837   3.984 -1.3132 -1.0904 -0.4009
  105SAPE  H13S10750   3.604   3.810   3.831 -1.1728 -0.9535  1.4513
  105SAPE  C21410751   3.531   3.973   3.958  0.0392  0.4153 -0.5496
  105SAPE  H14R10752   3.493   4.061   3.905  1.4146  0.8051 -0.9327
  105SAPE  C21510753   3.444   3.928   4.053  0.3403  0.1349 -0.8468
  105SAPE  H15R10754   3.348   3.980   4.068 -0.3022 -1.3510  0.4995
  105SAPE  C21610755   3.457   3.796   4.127 -0.1443 -0.3142 -0.2280
  105SAPE  H16R10756   3.561   3.756   4.134  0.6336  1.8537  2.8121
  105SAPE  H16S10757   3.404   3.725   4.060  1.3469 -2.4814  0.7873
  105SAPE  C21710758   3.386   3.791   4.260  0.0527  0.2694  0.3777
  105SAPE  H17R10759   3.281   3.825   4.272  0.0935 -0.1492  2.2651
  105SAPE  H17S10760   3.445   3.858   4.326  0.3274  0.7627 -0.3677
  105SAPE  C21810761   3.396   3.651   4.334  0.2638  0.3597  0.5813
  105SAPE  H18R10762   3.505   3.627   4.342  0.2687  0.1197 -0.1818
  105SAPE  H18S10763   3.348   3.572   4.272  1.4695 -0.0271  0.1030
  105SAPE  C21910764   3.323   3.650   4.470 -0.6785  0.5174 -0.2857
  105SAPE  H19R10765   3.217   3.683   4.473 -0.2901  1.7701  1.4130
  105SAPE  H19S10766   3.373   3.727   4.533 -1.8071  0.4132  0.7963
  105SAPE  C22010767   3.332   3.516   4.548  0.4617 -0.0645  0.1835
  105SAPE  H20R10768   3.268   3.444   4.494  1.1143  0.2381 -1.0256
  105SAPE  H20S10769   3.289   3.525   4.650 -0.7975 -3.5558  0.0973
  105SAPE  H20T10770   3.436   3.475   4.553  1.2456  1.9547  2.1672
  105SAPE   C3310771   4.185   4.082   3.049 -0.1485  0.4511  0.0801
  105SAPE   H3X10772   4.223   4.004   3.119  1.1249  1.3205  0.4027
  105SAPE   H3Y10773   4.086   4.043   3.015 -0.3680 -0.5144  1.6906
  105SAPE   C3410774   4.146   4.197   3.145  0.3551  1.1472  0.3657
  105SAPE   H4X10775   4.086   4.264   3.081 -2.0795  0.1570  1.4875
  105SAPE   H4Y10776   4.243   4.247   3.169  0.6239  0.1621  1.4043
  105SAPE   C3510777   4.070   4.160   3.275  0.1762 -0.3650  0.2852
  105SAPE   H5X10778   4.120   4.074   3.323 -1.8849 -2.6209 -1.3658
  105SAPE   H5Y10779   3.966   4.130   3.252 -0.5579  1.5014  0.9235
  105SAPE   C3610780   4.066   4.278   3.378 -0.1041  0.0170  0.1853
  105SAPE   H6X10781   3.992   4.252   3.458  0.8375 -1.2993  0.6788
  105SAPE   H6Y10782   4.029   4.368   3.325 -0.4023 -0.2579 -0.0778
  105SAPE   C3710783   4.198   4.308   3.450 -0.0232  1.2127 -0.3184
  105SAPE   H7X10784   4.260   4.365   3.378  0.3639 -0.2875 -1.2243
  105SAPE   H7Y10785   4.243   4.211   3.479 -0.4373  1.6962  2.1988
  105SAPE   C3810786   4.179   4.404   3.566 -0.2473  0.0712  1.1578
  105SAPE   H8X10787   4.129   4.497   3.533 -0.6363 -0.9690 -1.3452
  105SAPE   H8Y10788   4.280   4.438   3.598 -0.2969  2.3306 -0.8095
  105SAPE   C3910789   4.100   4.342   3.690  0.1686  0.2618 -0.2431
  105SAPE   H9X10790   4.134   4.238   3.711 -2.5493 -1.2173 -2.5887
  105SAPE   H9Y10791   3.994   4.349   3.659 -0.3820  1.0631  1.6401
  105SAPE  C31010792   4.118   4.439   3.803 -0.2488 -0.0976 -0.4264
  105SAPE  H10X10793   4.095   4.544   3.778 -0.6633  0.3785  1.7253
  105SAPE  H10Y10794   4.222   4.445   3.844 -0.8422  1.0720  0.9589
  105SAPE  C31110795   4.031   4.415   3.928 -0.4409 -0.3442 -0.1928
  105SAPE  H11X10796   3.924   4.416   3.898 -1.4760  2.5377  2.9415
  105SAPE  H11Y10797   4.032   4.509   3.987 -1.8012  0.2124 -0.9993
  105SAPE  C31210798   4.066   4.292   4.008 -0.4663 -0.2489  0.0283
  105SAPE  H12X10799   4.173   4.302   4.035 -0.6757 -1.9979  1.7219
  105SAPE  H12Y10800   4.050   4.208   3.937 -1.1135  1.0222 -1.3842
  105SAPE  C31310801   3.981   4.284   4.134 -0.4917  0.6038  0.3839
  105SAPE  H13X10802   4.007   4.359   4.212  0.3569 -0.6585  1.3738
  105SAPE  H13Y10803   4.001   4.187   4.184 -1.7173 -0.3603 -0.9172
  105SAPE  C31410804   3.833   4.289   4.115  0.4153 -0.0722 -0.0398
  105SAPE  H14X10805   3.810   4.202   4.050 -0.8953 -0.6551  1.1447
  105SAPE  H14Y10806   3.793   4.386   4.076 -0.6863 -1.0142 -1.3610
  105SAPE  C31510807   3.748   4.255   4.245  0.0684 -0.0237 -0.8167
  105SAPE  H15X10808   3.639   4.267   4.233 -0.4461  0.1360  2.9232
  105SAPE  H15Y10809   3.780   4.327   4.323 -2.3717 -0.6662  0.8653
  105SAPE  C31610810   3.775   4.111   4.290  0.6086 -1.0331  0.6272
  105SAPE  H16X10811   3.880   4.089   4.316 -0.1047 -4.1427  1.3376
  105SAPE  H16Y10812   3.757   4.038   4.208  1.7838  1.4753 -2.0302
  105SAPE  C31710813   3.689   4.071   4.412 -0.1358  0.2902  0.4531
  105SAPE  H17X10814   3.580   4.067   4.389 -0.5651 -1.0867  2.4399
  105SAPE  H17Y10815   3.708   4.146   4.492 -1.1907  1.9274 -0.7651
  105SAPE  C31810816   3.733   3.929   4.457  0.1315 -0.2398 -0.1471
  105SAPE  H18X10817   3.713   3.852   4.380 -0.5299 -0.1827 -0.0467
  105SAPE  H18Y10818   3.677   3.901   4.549 -0.3017  0.4900 -0.1730
  105SAPE  H18Z10819   3.840   3.913   4.479  0.3104 -1.1283 -1.5572
  106SAPE     N10820   1.268   5.818   2.062  0.2899 -0.0588  0.4014
  106SAPE   HN110821   1.203   5.784   2.136 -1.1798  0.7804 -0.4612
  106SAPE   HN210822   1.226   5.891   2.002 -0.0813 -1.7862 -1.5338
  106SAPE   HN310823   1.300   5.739   2.003 -2.1432  0.3414 -1.6132
  106SAPE   C1210824   1.379   5.895   2.125 -0.1152 -0.5755 -0.1792
  106SAPE  H12A10825   1.449   5.939   2.051  0.4822 -0.0237  0.6942
  106SAPE  H12B10826   1.431   5.827   2.196  2.5814  0.3811 -1.1131
  106SAPE   C1110827   1.313   6.000   2.204 -0.6019 -0.4474 -0.4591
  106SAPE  H11A10828   1.386   6.048   2.273 -0.9163 -2.1152  1.1181
  106SAPE  H11B10829   1.250   5.947   2.279 -2.2938 -0.1200 -1.6150
  106SAPE     P10830   1.240   6.236   2.121 -0.1354  0.1120  0.2837
  106SAPE   O1310831   1.379   6.279   2.108 -0.4299 -0.3579 -0.0127
  106SAPE   O1410832   1.140   6.289   2.026  0.2500  0.2776  0.1385
  106SAPE   O1210833   1.226   6.083   2.127 -0.5063  0.3112 -0.8683
  106SAPE   O1110834   1.184   6.279   2.265  0.5249  0.1524 -0.3997
  106SAPE    C110835   1.051   6.241   2.299 -0.6658 -0.0370 -0.3645
  106SAPE    HA10836   0.981   6.323   2.273  0.9744  1.8524  0.8642
  106SAPE    HB10837   1.021   6.145   2.250  1.3993 -0.7183 -0.3975
  106SAPE    C210838   1.053   6.210   2.454  0.7870  0.2823 -0.1738
  106SAPE    HS10839   1.088   6.307   2.496  3.2636 -0.6150  0.0160
  106SAPE   O2110840   1.141   6.107   2.479 -0.3482 -0.3888  0.1143
  106SAPE   C2110841   1.197   6.104   2.594 -0.1715 -0.1824 -0.9657
  106SAPE   O2210842   1.180   6.187   2.687  0.6446 -0.2080 -0.2197
  106SAPE   C2210843   1.320   6.008   2.602  1.3568 -0.6450 -0.0331
  106SAPE   H2R10844   1.391   6.045   2.525 -0.8517  0.5859 -1.5762
  106SAPE   H2S10845   1.367   6.029   2.700  0.9810  0.5541 -0.0995
  106SAPE    C310846   0.906   6.171   2.487  0.2416  0.2023  0.1140
  106SAPE    HX10847   0.871   6.086   2.426 -1.5748  0.7023  0.3872
  106SAPE    HY10848   0.833   6.242   2.443 -0.4403 -1.4082 -1.4749
  106SAPE   O3110849   0.876   6.175   2.631 -0.0862 -0.4736 -0.5205
  106SAPE   C3110850   0.818   6.059   2.680 -0.1276  0.5739 -0.6309
  106SAPE   O3210851   0.801   5.963   2.610 -0.3465 -0.0279  0.1561
  106SAPE   C3210852   0.783   6.069   2.828 -0.2791 -0.5393  0.1111
  106SAPE   H2X10853   0.847   5.997   2.884 -0.7386 -0.9504  0.1139
  106SAPE   H2Y10854   0.680   6.029   2.840 -0.2180 -1.1284 -1.2471
  106SAPE   C2310855   1.289   5.848   2.592 -0.3918  0.2540 -0.3767
  106SAPE   H3R10856   1.382   5.793   2.564 -0.0134  0.6325  0.1250
  106SAPE   H3S10857   1.231   5.835   2.499 -1.2364  0.1369  0.1571
  106SAPE   C2410858   1.232   5.785   2.724 -0.6096 -0.4194 -0.2856
  106SAPE   H4R10859   1.218   5.676   2.704 -1.7513 -0.0581 -1.6463
  106SAPE   H4S10860   1.131   5.823   2.752 -0.0635  1.1660 -0.3915
  106SAPE   C2510861   1.320   5.800   2.847 -0.9297 -0.4108 -0.4524
  106SAPE   H5R10862   1.426   5.773   2.843 -0.7624  0.0315  0.5897
  106SAPE   C2610863   1.287   5.853   2.967  0.2406 -0.1300 -0.1087
  106SAPE   H6R10864   1.372   5.849   3.037 -0.3312  1.5956  0.7170
  106SAPE   C2710865   1.153   5.923   2.997 -0.2412 -0.0441  0.4395
  106SAPE   H7R10866   1.077   5.846   3.023  0.5423 -0.6993  0.7929
  106SAPE   H7S10867   1.117   5.982   2.909  0.1876 -0.4449 -0.0126
  106SAPE   C2810868   1.141   6.016   3.119 -0.0671  0.2023  0.0311
  106SAPE   H8R10869   1.076   6.104   3.108  0.3078  0.3563 -1.0516
  106SAPE   C2910870   1.158   5.984   3.246 -0.3948  0.2358 -0.4236
  106SAPE   H9R10871   1.152   6.064   3.321 -2.1657  0.3774 -0.6808
  106SAPE  C21010872   1.216   5.853   3.308 -0.3749  0.2963 -0.5980
  106SAPE  H10R10873   1.288   5.889   3.385  0.6317  2.1943 -2.2999
  106SAPE  H10S10874   1.283   5.792   3.244 -0.9248 -4.1829  2.6503
  106SAPE  C21110875   1.111   5.753   3.351  0.1888  0.0734 -0.4764
  106SAPE  H11R10876   1.020   5.725   3.296  0.4798 -2.1587  0.0896
  106SAPE  C21210877   1.116   5.694   3.470  0.3085 -0.2370 -0.7780
  106SAPE  H12R10878   1.044   5.625   3.517  0.2018  0.9931  0.9558
  106SAPE  C21310879   1.223   5.723   3.571  0.7789  0.0028 -0.0707
  106SAPE  H13R10880   1.318   5.751   3.521 -0.9045  0.2514 -3.4305
  106SAPE  H13S10881   1.250   5.628   3.622  2.4025  0.3965 -0.1314
  106SAPE  C21410882   1.176   5.822   3.672  0.9255  0.1684 -0.4090
  106SAPE  H14R10883   1.096   5.888   3.635 -0.5854 -0.2052  1.9683
  106SAPE  C21510884   1.219   5.847   3.796  0.0075  0.5530 -0.0210
  106SAPE  H15R10885   1.165   5.926   3.849 -1.0681  0.8564 -1.5362
  106SAPE  C21610886   1.337   5.784   3.868  0.5222  0.3030  0.2593
  106SAPE  H16R10887   1.430   5.837   3.837  0.3548 -0.7507 -2.2450
  106SAPE  H16S10888   1.347   5.679   3.833  1.7779  0.7290 -0.7034
  106SAPE  C21710889   1.340   5.793   4.016 -0.1608 -0.3759 -0.0155
  106SAPE  H17R10890   1.438   5.751   4.045  1.4552  1.9389 -1.7546
  106SAPE  H17S10891   1.258   5.740   4.068  2.5672 -0.8245  4.3350
  106SAPE  C21810892   1.344   5.931   4.083 -0.6787  0.0742 -0.0892
  106SAPE  H18R10893   1.258   5.998   4.063  0.1496  0.5845 -2.2832
  106SAPE  H18S10894   1.439   5.978   4.048 -0.5010 -0.5879 -0.5199
  106SAPE  C21910895   1.361   5.918   4.237 -0.4212  0.4755 -0.0857
  106SAPE  H19R10896   1.434   5.836   4.251 -1.9666 -0.6491  1.9471
  106SAPE  H19S10897   1.267   5.882   4.283 -1.5803  2.0739 -1.0846
  106SAPE  C22010898   1.397   6.045   4.311 -0.2829 -1.2172 -0.5094
  106SAPE  H20R10899   1.402   6.022   4.420  0.5267  0.2593 -0.2153
  106SAPE  H20S10900   1.323   6.128   4.302 -0.4535 -1.0999  1.6091
  106SAPE  H20T10901   1.495   6.084   4.278 -0.1900 -0.2865  0.7971
  106SAPE   C3310902   0.792   6.213   2.886  0.2378  0.1076 -0.0556
  106SAPE   H3X10903   0.724   6.284   2.835  1.0472  0.4962 -0.6189
  106SAPE   H3Y10904   0.891   6.241   2.844 -0.2300 -0.0260 -1.3081
  106SAPE   C3410905   0.771   6.211   3.034 -0.1479 -0.0020  0.1426
  106SAPE   H4X10906   0.799   6.108   3.063 -0.0597 -0.0431 -0.0854
  106SAPE   H4Y10907   0.665   6.222   3.065 -0.8673 -3.2389 -0.8066
  106SAPE   C3510908   0.861   6.311   3.112 -0.1318 -0.0028 -0.5393
  106SAPE   H5X10909   0.836   6.415   3.083  0.6869 -0.4010 -2.8897
  106SAPE   H5Y10910   0.969   6.302   3.091  0.0986 -1.5750  1.0796
  106SAPE   C3610911   0.853   6.299   3.261  0.2787 -0.7888  0.0704
  106SAPE   H6X10912   0.871   6.194   3.293  1.0180 -1.0599 -1.1506
  106SAPE   H6Y10913   0.763   6.343   3.309  1.1671  1.7959 -0.4596
  106SAPE   C3710914   0.977   6.370   3.329  0.2328  0.4267 -0.7115
  106SAPE   H7X10915   0.993   6.476   3.298 -0.0542  0.9754  0.8836
  106SAPE   H7Y10916   1.068   6.317   3.293 -0.4416 -1.3974  0.1764
  106SAPE   C3810917   0.962   6.366   3.484 -0.3854  0.0153  0.7109
  106SAPE   H8X10918   0.922   6.267   3.513 -3.2915  1.2769  1.3017
  106SAPE   H8Y10919   0.888   6.437   3.527  0.8864  0.4195  2.3864
  106SAPE   C3910920   1.093   6.385   3.555 -0.7418  0.3408 -0.0629
  106SAPE   H9X10921   1.135   6.487   3.548 -0.8930  0.3814 -0.3795
  106SAPE   H9Y10922   1.156   6.320   3.490 -1.1909  0.3862 -0.5514
  106SAPE  C31010923   1.096   6.331   3.695  0.0718  0.5429  0.4512
  106SAPE  H10X10924   1.073   6.222   3.697  1.6171  0.1816  3.1599
  106SAPE  H10Y10925   1.021   6.394   3.747  0.7327 -0.3052  2.4950
  106SAPE  C31110926   1.228   6.340   3.769 -0.3269  0.5142 -0.1904
  106SAPE  H11X10927   1.251   6.446   3.791  2.2491 -0.0164  0.0343
  106SAPE  H11Y10928   1.316   6.312   3.707 -1.6246  0.2006 -1.9613
  106SAPE  C31210929   1.233   6.269   3.908  0.5880  0.0407  0.4321
  106SAPE  H12X10930   1.209   6.161   3.895  2.3707 -0.2858 -0.4297
  106SAPE  H12Y10931   1.150   6.298   3.975 -2.3191  0.0110 -2.8625
  106SAPE  C31310932   1.355   6.291   3.990 -0.6188 -0.4776 -0.2617
  106SAPE  H13X10933   1.441   6.258   3.928 -0.3972 -1.5084  0.5704
  106SAPE  H13Y10934   1.346   6.222   4.076 -1.7068  1.0395  0.8945
  106SAPE  C31410935   1.382   6.433   4.045 -0.0219  0.0670  0.7214
  106SAPE  H14X10936   1.326   6.447   4.140  1.5434 -2.1328  2.0981
  106SAPE  H14Y10937   1.344   6.509   3.974 -0.2565 -1.6507 -1.1082
  106SAPE  C31510938   1.531   6.463   4.056  0.4816 -0.6632 -0.8960
  106SAPE  H15X10939   1.532   6.543   4.133 -1.1715 -0.6102 -0.9104
  106SAPE  H15Y10940   1.568   6.497   3.957 -1.4583 -1.7286 -2.0468
  106SAPE  C31610941   1.607   6.355   4.135 -0.6565 -0.6606  0.4236
  106SAPE  H16X10942   1.614   6.266   4.069  2.2233 -2.4087  2.8096
  106SAPE  H16Y10943   1.552   6.322   4.226  0.3677  0.1990  1.3817
  106SAPE  C31710944   1.756   6.391   4.162  0.1938  0.8279 -1.5924
  106SAPE  H17X10945   1.804   6.304   4.211  0.7429 -0.1518 -3.7486
  106SAPE  H17Y10946   1.774   6.478   4.229  2.1608 -1.5065  1.1761
  106SAPE  C31810947   1.818   6.412   4.026 -0.0548  0.4361  0.5306
  106SAPE  H18X10948   1.781   6.512   3.993 -0.0092  0.1669 -0.3547
  106SAPE  H18Y10949   1.791   6.327   3.960  1.7878  0.7701 -0.7207
  106SAPE  H18Z10950   1.929   6.413   4.023 -0.0114 -1.3588  0.5956
  107SAPE     N10951   4.906   4.798   2.575 -0.3930  0.2529 -0.0153
  107SAPE   HN110952   4.899   4.781   2.472 -0.0449 -1.8952  0.2825
  107SAPE   HN210953   4.893   4.901   2.580 -0.2691  0.2675 -0.0078
  107SAPE   HN310954   5.004   4.778   2.603 -0.4888 -3.0039 -1.5171
  107SAPE   C1210955   4.793   4.736   2.657 -0.0533 -0.2973 -0.2216
  107SAPE  H12A10956   4.792   4.789   2.754  1.5547 -2.6228  1.1702
  107SAPE  H12B10957   4.805   4.627   2.676 -3.5708 -0.4840  1.8825
  107SAPE   C1110958   4.661   4.755   2.585 -0.1696  0.3691 -0.0173
  107SAPE  H11A10959   4.583   4.698   2.640  0.1713 -0.5603 -0.4744
  107SAPE  H11B10960   4.668   4.712   2.483 -0.2885  1.2977 -0.4170
  107SAPE     P10961   4.494   4.935   2.530  0.1847  0.0593 -0.1851
  107SAPE   O1310962   4.492   5.084   2.501  0.0723  0.3576 -0.5286
  107SAPE   O1410963   4.449   4.852   2.419 -0.0785  0.3553  0.0888
  107SAPE   O1210964   4.636   4.888   2.573  0.0834 -0.6508 -0.8692
  107SAPE   O1110965   4.396   4.903   2.645 -0.0509 -0.2511 -0.3058
  107SAPE    C110966   4.400   4.966   2.778 -0.3312 -0.1172 -0.5194
  107SAPE    HA10967   4.500   4.948   2.823 -0.2684  1.8133  0.2065
  107SAPE    HB10968   4.399   5.077   2.768 -0.8712 -0.0292  0.4834
  107SAPE    C210969   4.285   4.939   2.877 -0.0112  0.6421  0.1167
  107SAPE    HS10970   4.295   5.009   2.963  0.8029  1.3254 -0.5166
  107SAPE   O2110971   4.280   4.803   2.926 -0.3365  0.0237  0.2040
  107SAPE   C2110972   4.379   4.779   3.004 -0.4694 -0.4495  0.8089
  107SAPE   O2210973   4.452   4.869   3.046 -0.4500 -0.0808  0.6847
  107SAPE   C2210974   4.380   4.624   3.038  0.3988  0.1985 -0.0750
  107SAPE   H2R10975   4.275   4.591   3.021  0.7527 -1.6526  1.0964
  107SAPE   H2S10976   4.452   4.570   2.973  0.2815 -0.3199  0.2204
  107SAPE    C310977   4.144   4.983   2.819 -0.7644  0.2377 -0.2364
  107SAPE    HX10978   4.130   4.956   2.712 -1.9048  0.4862 -0.1594
  107SAPE    HY10979   4.147   5.094   2.813 -1.3415  0.3087  0.6440
  107SAPE   O3110980   4.027   4.944   2.903  0.1512 -0.2784  0.1864
  107SAPE   C3110981   3.978   4.822   2.864 -0.1945  0.5240  0.2023
  107SAPE   O3210982   4.014   4.768   2.760  0.0699 -0.1422  0.3026
  107SAPE   C3210983   3.881   4.774   2.975  0.2973  0.5114  0.9737
  107SAPE   H2X10984   3.783   4.803   2.932  1.6134  0.3887 -2.3989
  107SAPE   H2Y10985   3.932   4.823   3.061  0.3318  1.1838  0.5776
  107SAPE   C2310986   4.424   4.612   3.185  0.1066 -0.0508  0.4478
  107SAPE   H3R10987   4.531   4.635   3.199  0.5133 -0.4437 -1.6740
  107SAPE   H3S10988   4.419   4.503   3.206 -1.1647 -0.4173 -1.4754
  107SAPE   C2410989   4.337   4.674   3.293 -0.5741  0.1029  0.1974
  107SAPE   H4R10990   4.360   4.782   3.281  1.1052 -0.0858  1.3658
  107SAPE   H4S10991   4.380   4.655   3.393 -0.0961 -1.3144 -0.2558
  107SAPE   C2510992   4.189   4.647   3.309 -0.2052  0.6287 -0.6498
  107SAPE   H5R10993   4.177   4.538   3.315  1.3107  0.4148 -1.1572
  107SAPE   C2610994   4.088   4.726   3.338  0.3311  0.3339  0.8890
  107SAPE   H6R10995   3.993   4.672   3.355  0.7997 -0.7142  0.2641
  107SAPE   C2710996   4.085   4.872   3.345  0.5277 -0.7893  0.0089
  107SAPE   H7R10997   4.173   4.907   3.288 -0.0723 -1.4634 -1.3922
  107SAPE   H7S10998   4.101   4.911   3.448 -0.8603 -1.7041  0.6051
  107SAPE   C2810999   3.956   4.939   3.297 -0.3981 -0.2578  0.2424
  107SAPE   H8R11000   3.972   5.014   3.218 -0.0453  0.1494  0.6901
  107SAPE   C2911001   3.838   4.943   3.356  0.0776  0.2301 -0.2881
  107SAPE   H9R11002   3.755   4.999   3.311  1.6102  2.2195 -0.7644
  107SAPE  C21011003   3.815   4.884   3.494  0.0360 -0.7803 -0.9001
  107SAPE  H10R11004   3.911   4.867   3.547 -0.7947  1.0265  1.3863
  107SAPE  H10S11005   3.760   4.788   3.488 -3.1398  0.8708 -0.4962
  107SAPE  C21111006   3.751   4.992   3.585 -0.5639  0.4154 -0.0342
  107SAPE  H11R11007   3.723   5.088   3.541 -1.5348  0.4074  0.5321
  107SAPE  C21211008   3.703   4.986   3.712  0.5472  0.7000 -0.0016
  107SAPE  H12R11009   3.664   5.068   3.773 -0.7886 -0.4750  0.7719
  107SAPE  C21311010   3.702   4.857   3.788 -1.1496 -0.1904  0.4852
  107SAPE  H13R11011   3.693   4.771   3.718  0.1740  1.5317 -1.9541
  107SAPE  H13S11012   3.613   4.850   3.854 -0.7736 -0.2838  0.9886
  107SAPE  C21411013   3.835   4.832   3.857 -0.6664  0.6325 -0.7222
  107SAPE  H14R11014   3.909   4.780   3.794 -1.2784 -0.0575 -0.8751
  107SAPE  C21511015   3.864   4.855   3.985 -0.3029  0.4880 -0.3409
  107SAPE  H15R11016   3.963   4.829   4.025 -1.2924 -1.3737  1.0317
  107SAPE  C21611017   3.764   4.910   4.091  0.9883  0.1807  0.3483
  107SAPE  H16R11018   3.670   4.952   4.049  1.4495  0.3492 -0.5507
  107SAPE  H16S11019   3.809   4.996   4.144 -0.2150  2.0903 -1.5816
  107SAPE  C21711020   3.719   4.802   4.189 -0.1041 -0.8855  0.0229
  107SAPE  H17R11021   3.799   4.779   4.262 -0.6359  0.0779  0.9405
  107SAPE  H17S11022   3.698   4.700   4.152  0.6372 -0.6712 -1.0159
  107SAPE  C21811023   3.586   4.842   4.262 -0.2130 -0.7472  0.1534
  107SAPE  H18R11024   3.512   4.844   4.179  4.1726 -0.9279 -4.2063
  107SAPE  H18S11025   3.607   4.946   4.297 -3.4538  0.1172 -0.1716
  107SAPE  C21911026   3.533   4.754   4.380 -0.4699 -0.3476  0.4860
  107SAPE  H19R11027   3.606   4.743   4.463  0.1363  0.2628  0.0467
  107SAPE  H19S11028   3.531   4.653   4.333 -1.4501  0.9199 -2.4107
  107SAPE  C22011029   3.394   4.788   4.427  0.2379  0.4998  0.7235
  107SAPE  H20R11030   3.367   4.719   4.510 -1.8367 -0.9131 -1.0342
  107SAPE  H20S11031   3.318   4.778   4.347  1.6061 -0.3992 -0.4954
  107SAPE  H20T11032   3.389   4.891   4.469 -0.5053  1.0953 -0.7709
  107SAPE   C3311033   3.876   4.619   2.987 -0.3310  0.0239 -0.5278
  107SAPE   H3X11034   3.975   4.593   3.030  0.2762  0.2864 -1.6984
  107SAPE   H3Y11035   3.856   4.572   2.888 -0.3926 -0.7565 -0.1520
  107SAPE   C3411036   3.778   4.573   3.099  0.3081 -0.3921 -0.5138
  107SAPE   H4X11037   3.674   4.585   3.063  0.7855 -0.0146 -1.8521
  107SAPE   H4Y11038   3.797   4.640   3.185 -0.4154  0.3825 -0.9406
  107SAPE   C3511039   3.806   4.435   3.145  0.5612  0.3977  0.0856
  107SAPE   H5X11040   3.913   4.417   3.171  0.5360 -0.1530 -0.1700
  107SAPE   H5Y11041   3.794   4.370   3.055 -0.2301  0.9350 -0.2036
  107SAPE   C3611042   3.721   4.383   3.257 -0.5065  0.9598 -0.5951
  107SAPE   H6X11043   3.758   4.279   3.253  0.3950  1.2122  0.7706
  107SAPE   H6Y11044   3.617   4.391   3.219  0.7097  2.8811 -3.9667
  107SAPE   C3711045   3.736   4.466   3.386 -0.3337 -0.2498  1.0155
  107SAPE   H7X11046   3.678   4.560   3.375 -0.7434 -0.4647  1.2927
  107SAPE   H7Y11047   3.840   4.488   3.415 -0.1297 -1.2984  1.1145
  107SAPE   C3811048   3.683   4.394   3.510 -0.7659  0.4526 -0.5495
  107SAPE   H8X11049   3.774   4.346   3.552 -1.4864 -0.9116 -0.4985
  107SAPE   H8Y11050   3.608   4.320   3.475  0.0933  0.0309 -1.5787
  107SAPE   C3911051   3.619   4.489   3.610 -0.0518 -0.3948  0.0420
  107SAPE   H9X11052   3.519   4.527   3.578 -0.2913 -0.4952  0.6544
  107SAPE   H9Y11053   3.683   4.580   3.603  0.5859 -0.8986 -0.7550
  107SAPE  C31011054   3.610   4.434   3.754  0.6091  0.2855  0.2513
  107SAPE  H10X11055   3.707   4.441   3.809  0.4650 -1.8055  0.8736
  107SAPE  H10Y11056   3.597   4.324   3.752 -3.1437  0.6146 -0.1969
  107SAPE  C31111057   3.488   4.501   3.820  0.4187  0.0407 -0.6065
  107SAPE  H11X11058   3.400   4.465   3.764 -2.3136  1.1951  2.6014
  107SAPE  H11Y11059   3.496   4.607   3.789 -2.2952 -0.1545 -2.2895
  107SAPE  C31211060   3.480   4.469   3.967 -0.1958  0.3101  0.5725
  107SAPE  H12X11061   3.552   4.539   4.015 -0.1854 -0.4953  1.7763
  107SAPE  H12Y11062   3.528   4.372   3.992 -1.4606 -0.1445  1.3267
  107SAPE  C31311063   3.344   4.494   4.022  0.3741  0.3878  0.1089
  107SAPE  H13X11064   3.350   4.478   4.132 -3.9436 -1.6469  0.2730
  107SAPE  H13Y11065   3.273   4.416   3.987  2.3193 -1.0890 -0.7046
  107SAPE  C31411066   3.304   4.633   3.982  0.3762 -0.5356  0.2022
  107SAPE  H14X11067   3.267   4.626   3.878  0.6820  0.1939  0.0360
  107SAPE  H14Y11068   3.383   4.709   3.997 -0.4590  0.3981 -0.0303
  107SAPE  C31511069   3.189   4.693   4.075  0.0715 -0.3257  0.0465
  107SAPE  H15X11070   3.172   4.800   4.050 -2.7109 -0.7465 -0.1218
  107SAPE  H15Y11071   3.231   4.692   4.178 -2.3046 -0.1636  1.0970
  107SAPE  C31611072   3.049   4.627   4.082  0.5006  0.1721  0.0989
  107SAPE  H16X11073   2.995   4.660   4.173  2.4235  0.6023  1.1196
  107SAPE  H16Y11074   3.059   4.518   4.103 -0.3657  0.0727  0.0666
  107SAPE  C31711075   2.964   4.637   3.954 -0.3560 -0.1308  0.1984
  107SAPE  H17X11076   3.029   4.584   3.882 -0.7537  0.5111 -0.6483
  107SAPE  H17Y11077   2.946   4.743   3.928 -0.1305  0.5202  2.4328
  107SAPE  C31811078   2.832   4.563   3.982  0.0142  0.9623 -1.0226
  107SAPE  H18X11079   2.853   4.454   3.987 -0.1958  0.9654  0.1925
  107SAPE  H18Y11080   2.753   4.595   3.910 -0.0606  1.0293 -0.9117
  107SAPE  H18Z11081   2.796   4.599   4.081  0.3329 -0.2062 -0.4588
  108SAPE     N11082   2.444   5.699   2.481  0.3436  0.5076  0.6027
  108SAPE   HN111083   2.389   5.630   2.536 -1.2430  0.4592 -0.9721
  108SAPE   HN211084   2.513   5.648   2.422 -2.0849  0.0900 -2.0792
  108SAPE   HN311085   2.495   5.769   2.539 -0.1929 -0.1320  1.8771
  108SAPE   C1211086   2.349   5.775   2.394  0.1812  0.5061  0.2059
  108SAPE  H12A11087   2.412   5.851   2.343 -0.8786  1.3915  0.1724
  108SAPE  H12B11088   2.267   5.825   2.449 -1.3599 -2.2726  0.6441
  108SAPE   C1111089   2.289   5.689   2.285 -0.1662  1.1379 -0.4462
  108SAPE  H11A11090   2.363   5.629   2.227 -3.7694  0.1870 -4.6934
  108SAPE  H11B11091   2.244   5.740   2.197  2.5661  1.5001 -1.7304
  108SAPE     P11092   2.035   5.592   2.344  0.0343 -0.0143  0.3285
  108SAPE   O1311093   1.989   5.716   2.412  0.0137  0.6443 -0.2970
  108SAPE   O1411094   1.995   5.572   2.201 -0.0158 -0.4148  0.1734
  108SAPE   O1211095   2.199   5.583   2.340 -0.7582  0.2059  0.6909
  108SAPE   O1111096   1.988   5.467   2.426  0.6273  0.1243 -0.4023
  108SAPE    C111097   2.064   5.401   2.526  0.3472  0.3902 -0.2945
  108SAPE    HA11098   2.004   5.310   2.549  2.1621 -0.7088  0.2662
  108SAPE    HB11099   2.155   5.366   2.474 -0.6944  0.9252 -2.5714
  108SAPE    C211100   2.084   5.509   2.638  0.9488  0.1304  0.2741
  108SAPE    HS11101   2.144   5.593   2.597 -0.2455  0.2992 -1.2078
  108SAPE   O2111102   2.150   5.446   2.745  0.1823 -0.1422 -0.5926
  108SAPE   C2111103   2.283   5.439   2.723 -0.4742  0.0190 -0.1680
  108SAPE   O2211104   2.344   5.493   2.630  0.2180 -0.2599  0.1707
  108SAPE   C2211105   2.346   5.353   2.831 -0.1471 -0.0153  0.0631
  108SAPE   H2R11106   2.295   5.381   2.926  0.3500  0.4190  0.2096
  108SAPE   H2S11107   2.328   5.245   2.813 -2.3682  0.4384 -0.6653
  108SAPE    C311108   1.948   5.568   2.688  0.6924  0.7194 -0.1187
  108SAPE    HX11109   1.882   5.481   2.709  2.0695 -0.9076 -2.1224
  108SAPE    HY11110   1.897   5.630   2.612  0.1513 -2.2660 -2.4121
  108SAPE   O3111111   1.955   5.651   2.811 -0.3856 -0.7098  0.4264
  108SAPE   C3111112   1.836   5.682   2.875  0.0249  0.8085  0.0343
  108SAPE   O3211113   1.727   5.646   2.839  0.0736 -0.0083  0.3928
  108SAPE   C3211114   1.865   5.785   2.988 -0.0400 -0.7838  0.0190
  108SAPE   H2X11115   1.873   5.878   2.927  2.1552 -1.0138 -0.1148
  108SAPE   H2Y11116   1.959   5.766   3.044 -0.0425  0.7601  0.6130
  108SAPE   C2311117   2.498   5.371   2.841  0.3540 -0.0348 -0.3732
  108SAPE   H3R11118   2.511   5.474   2.881 -0.5741 -0.6932  1.7930
  108SAPE   H3S11119   2.554   5.361   2.746  1.3239 -2.4023  0.3878
  108SAPE   C2411120   2.580   5.286   2.945 -0.1365  0.3064 -0.0878
  108SAPE   H4R11121   2.535   5.272   3.045  0.3218  0.4937  0.1492
  108SAPE   H4S11122   2.669   5.349   2.966 -1.8144  3.2245 -1.1139
  108SAPE   C2511123   2.611   5.153   2.881  0.0336  0.3962 -0.9698
  108SAPE   H5R11124   2.639   5.169   2.776  2.2349  0.0614 -0.4835
  108SAPE   C2611125   2.570   5.039   2.936  0.7374  0.2996  0.6283
  108SAPE   H6R11126   2.574   4.941   2.885 -1.0417 -0.6245  2.1247
  108SAPE   C2711127   2.507   5.013   3.073 -0.2469 -0.2168  0.0034
  108SAPE   H7R11128   2.559   5.073   3.151 -1.1519 -0.3786  0.7416
  108SAPE   H7S11129   2.518   4.906   3.101 -3.5478  0.2315  3.8642
  108SAPE   C2811130   2.361   5.047   3.070 -0.0044 -0.7063  0.2773
  108SAPE   H8R11131   2.311   5.055   2.973 -2.7510 -0.2102  1.6321
  108SAPE   C2911132   2.284   5.057   3.179  0.1308 -0.2455 -0.6595
  108SAPE   H9R11133   2.177   5.077   3.165 -0.0178 -1.1952 -0.9619
  108SAPE  C21011134   2.332   5.046   3.318 -0.5946  0.3297 -0.5177
  108SAPE  H10R11135   2.423   4.983   3.312  0.3433  1.7436 -1.8690
  108SAPE  H10S11136   2.266   4.984   3.383  0.1127  1.0615  0.9227
  108SAPE  C21111137   2.366   5.176   3.388 -0.5009  0.4085  0.2420
  108SAPE  H11R11138   2.276   5.240   3.381 -0.6520  0.1770  0.0547
  108SAPE  C21211139   2.484   5.226   3.434 -0.5012  0.1538  0.3037
  108SAPE  H12R11140   2.475   5.317   3.494 -1.9515  0.3606 -0.1810
  108SAPE  C21311141   2.620   5.168   3.430  0.5654 -0.4997  0.1956
  108SAPE  H13R11142   2.617   5.059   3.411 -0.2903 -0.4761  0.1446
  108SAPE  H13S11143   2.661   5.179   3.533  2.8248  4.0594 -0.9528
  108SAPE  C21411144   2.728   5.237   3.349 -0.0936 -0.8330 -0.4282
  108SAPE  H14R11145   2.679   5.292   3.268 -0.8694  0.8657  1.1076
  108SAPE  C21511146   2.867   5.222   3.352  0.0200  0.3215  0.1570
  108SAPE  H15R11147   2.925   5.283   3.280 -1.0610 -0.9002 -1.8506
  108SAPE  C21611148   2.934   5.127   3.445  0.0860 -0.3947 -0.4279
  108SAPE  H16R11149   2.862   5.079   3.514  0.2886  1.1172  0.8927
  108SAPE  H16S11150   3.010   5.185   3.502  0.0119 -0.7266  0.0102
  108SAPE  C21711151   3.006   5.008   3.368 -0.5627  0.9566  0.0233
  108SAPE  H17R11152   3.059   4.944   3.442  2.1647  0.7961 -1.9135
  108SAPE  H17S11153   3.090   5.041   3.304 -0.0333 -0.7249 -0.1975
  108SAPE  C21811154   2.915   4.905   3.310 -0.5352  1.0869  0.7416
  108SAPE  H18R11155   2.848   4.951   3.234 -0.5839  1.5787  1.0755
  108SAPE  H18S11156   2.847   4.866   3.388  0.9173 -0.9039  1.1107
  108SAPE  C21911157   2.990   4.784   3.252 -0.3439 -0.4408 -0.0130
  108SAPE  H19R11158   3.066   4.753   3.328 -0.6512 -1.6786 -0.1937
  108SAPE  H19S11159   3.054   4.812   3.166  1.2801  0.3414  1.3671
  108SAPE  C22011160   2.898   4.675   3.208 -0.7751  0.4918 -0.1821
  108SAPE  H20R11161   2.844   4.699   3.114 -0.7257 -2.0350 -0.9151
  108SAPE  H20S11162   2.835   4.633   3.289  0.9148  0.3509  1.0931
  108SAPE  H20T11163   2.955   4.582   3.188 -0.4860  0.1929  1.8477
  108SAPE   C3311164   1.741   5.828   3.078 -0.8293  0.4165  0.8709
  108SAPE   H3X11165   1.663   5.881   3.018 -0.7510  0.4271  0.7785
  108SAPE   H3Y11166   1.771   5.901   3.155 -0.7489  1.0729  0.2314
  108SAPE   C3411167   1.683   5.704   3.140 -0.0611  0.2597  0.4970
  108SAPE   H4X11168   1.761   5.626   3.151  0.3315  0.3230 -1.4412
  108SAPE   H4Y11169   1.614   5.662   3.064 -0.9547 -1.3448  2.1071
  108SAPE   C3511170   1.621   5.726   3.274 -0.2635  0.5740  0.4153
  108SAPE   H5X11171   1.566   5.822   3.269  2.7487  2.5787  2.2544
  108SAPE   H5Y11172   1.536   5.657   3.288  1.7752 -2.2816 -0.4485
  108SAPE   C3611173   1.718   5.714   3.389  0.6052  0.2860 -0.7894
  108SAPE   H6X11174   1.790   5.799   3.390  1.1110 -0.1384 -0.6216
  108SAPE   H6Y11175   1.768   5.615   3.382 -2.8209 -1.5550 -1.5718
  108SAPE   C3711176   1.650   5.715   3.525  0.0538 -0.2020 -0.6408
  108SAPE   H7X11177   1.557   5.654   3.530 -1.9699  2.5878 -2.0036
  108SAPE   H7Y11178   1.605   5.816   3.531 -1.2673 -0.5349 -3.3834
  108SAPE   C3811179   1.744   5.672   3.645 -0.2882  0.3563 -0.0429
  108SAPE   H8X11180   1.798   5.767   3.664 -1.3922  1.1390 -0.7304
  108SAPE   H8Y11181   1.820   5.601   3.605 -0.2358  0.5642 -0.3134
  108SAPE   C3911182   1.678   5.609   3.766 -0.0176  0.0473  0.5060
  108SAPE   H9X11183   1.605   5.528   3.744  1.6472 -1.5207  0.4562
  108SAPE   H9Y11184   1.627   5.685   3.828  1.8633  1.0123  0.9323
  108SAPE  C31011185   1.780   5.548   3.857  0.0477 -0.8491  0.1118
  108SAPE  H10X11186   1.842   5.620   3.914 -0.2152 -1.4367  1.1603
  108SAPE  H10Y11187   1.847   5.474   3.807  1.4448  1.0727 -1.0073
  108SAPE  C31111188   1.720   5.447   3.955  0.5425 -0.1834 -0.1590
  108SAPE  H11X11189   1.804   5.420   4.022 -1.2781 -1.6829  1.6363
  108SAPE  H11Y11190   1.674   5.365   3.897 -0.9819  0.0581  0.6405
  108SAPE  C31211191   1.614   5.517   4.040 -0.1718  0.3455  0.4325
  108SAPE  H12X11192   1.520   5.526   3.981 -1.0835  0.0872  1.8110
  108SAPE  H12Y11193   1.644   5.620   4.066  0.8309 -0.1739  1.4050
  108SAPE  C31311194   1.581   5.434   4.166  0.6584  0.2618 -0.1361
  108SAPE  H13X11195   1.665   5.449   4.237  1.2762  1.5474 -1.1021
  108SAPE  H13Y11196   1.590   5.329   4.131  0.1540  0.1223  0.1345
  108SAPE  C31411197   1.449   5.459   4.243  0.1892  0.2790 -0.0486
  108SAPE  H14X11198   1.366   5.424   4.177 -2.4691  2.2053  2.0385
  108SAPE  H14Y11199   1.441   5.569   4.260  2.6997  0.3344  1.1881
  108SAPE  C31511200   1.424   5.371   4.358 -0.2496  0.7753  0.6703
  108SAPE  H15X11201   1.496   5.399   4.437  0.8831 -0.5075  0.1307
  108SAPE  H15Y11202   1.446   5.268   4.321 -2.2691  1.0450 -1.4948
  108SAPE  C31611203   1.278   5.363   4.411  0.7319  0.0475 -0.2047
  108SAPE  H16X11204   1.258   5.469   4.441  1.0620 -0.1137  0.6181
  108SAPE  H16Y11205   1.272   5.298   4.501 -0.5304 -0.2885 -0.5067
  108SAPE  C31711206   1.170   5.322   4.311 -0.1979 -0.2790  0.2101
  108SAPE  H17X11207   1.202   5.229   4.258 -0.5950 -0.1238 -0.3163
  108SAPE  H17Y11208   1.171   5.398   4.230 -0.9621 -0.6069 -0.1113
  108SAPE  C31811209   1.024   5.308   4.352  0.1216 -0.2884 -0.7770
  108SAPE  H18X11210   1.009   5.232   4.431  0.7582  1.2701  0.9257
  108SAPE  H18Y11211   0.967   5.284   4.261  0.1719  0.4479 -1.0092
  108SAPE  H18Z11212   0.980   5.399   4.398 -1.3449 -0.3376 -2.0315
  109SAPE     N11213   0.568   2.969   2.078 -0.4246 -0.2505  0.2427
  109SAPE   HN111214   0.481   2.946   2.129 -0.4713 -0.8784 -0.1046
  109SAPE   HN211215   0.641   2.899   2.101 -1.6151 -1.4167  0.5698
  109SAPE   HN311216   0.613   3.058   2.107  1.7317  0.1042 -3.5264
  109SAPE   C1211217   0.555   2.961   1.928  0.1679 -0.2181  0.1255
  109SAPE  H12A11218   0.556   3.061   1.879 -0.3717 -0.1667  0.2128
  109SAPE  H12B11219   0.452   2.931   1.899 -0.8775 -0.6154  3.8089
  109SAPE   C1111220   0.667   2.862   1.862 -0.1603 -0.7359  0.0334
  109SAPE  H11A11221   0.655   2.869   1.752 -0.5619  0.0606  0.1188
  109SAPE  H11B11222   0.650   2.758   1.896  0.2795 -0.5832  0.7294
  109SAPE     P11223   0.887   2.835   2.008  0.2899 -0.0233  0.1549
  109SAPE   O1311224   0.908   2.695   1.954  0.2817 -0.2448 -0.3392
  109SAPE   O1411225   1.003   2.916   2.043  0.1124 -0.5275 -0.1372
  109SAPE   O1211226   0.797   2.908   1.899 -0.1896  0.4193 -0.0163
  109SAPE   O1111227   0.786   2.828   2.124  0.5882 -0.2212 -0.5115
  109SAPE    C111228   0.744   2.702   2.175  0.9978 -0.2704 -0.1753
  109SAPE    HA11229   0.684   2.646   2.100  2.3804 -0.6927 -0.9919
  109SAPE    HB11230   0.839   2.647   2.195  2.0130  2.0165  1.7783
  109SAPE    C211231   0.668   2.711   2.308  0.2838 -0.0340 -0.3654
  109SAPE    HS11232   0.581   2.776   2.285  0.0730 -0.7148 -1.6002
  109SAPE   O2111233   0.757   2.770   2.403  0.3011 -0.6126 -0.0902
  109SAPE   C2111234   0.770   2.896   2.396  0.4627 -0.9434 -0.2312
  109SAPE   O2211235   0.686   2.979   2.349  0.1728 -0.1935 -0.5339
  109SAPE   C2211236   0.898   2.938   2.479 -0.0579 -0.3787  0.4491
  109SAPE   H2R11237   0.907   2.865   2.562 -1.1432 -0.3048  0.6452
  109SAPE   H2S11238   0.980   2.934   2.403 -0.5684 -0.6845 -0.0976
  109SAPE    C311239   0.604   2.573   2.361  0.9809  0.1742  0.8336
  109SAPE    HX11240   0.674   2.487   2.349  0.0520 -0.3518 -1.1957
  109SAPE    HY11241   0.519   2.559   2.291  0.4664 -0.5642  1.5880
  109SAPE   O3111242   0.552   2.582   2.502 -0.5014  0.6018  0.1033
  109SAPE   C3111243   0.645   2.548   2.589 -0.5380 -0.9009 -0.4324
  109SAPE   O3211244   0.757   2.513   2.560 -0.0433 -0.0927  0.1654
  109SAPE   C3211245   0.600   2.572   2.739 -0.5878  0.1261 -0.3533
  109SAPE   H2X11246   0.498   2.614   2.730 -0.6544 -0.2923 -1.6542
  109SAPE   H2Y11247   0.671   2.640   2.792 -0.2515 -0.0866 -0.5235
  109SAPE   C2311248   0.875   3.080   2.540 -0.1041 -0.2121 -0.8031
  109SAPE   H3R11249   0.795   3.080   2.617  1.5236  1.0963  0.9967
  109SAPE   H3S11250   0.860   3.153   2.457 -0.9005  1.0909  0.4359
  109SAPE   C2411251   1.001   3.132   2.610 -0.3866 -0.7344 -0.5833
  109SAPE   H4R11252   0.977   3.240   2.624  1.0596 -0.5981  1.2563
  109SAPE   H4S11253   1.084   3.126   2.537 -0.5104  1.6081 -1.0079
  109SAPE   C2511254   1.032   3.063   2.741  0.1326 -0.3458 -0.5840
  109SAPE   H5R11255   1.095   2.973   2.739  0.9864  0.1415  1.3629
  109SAPE   C2611256   1.004   3.111   2.863  0.5664  0.0507 -0.6224
  109SAPE   H6R11257   1.039   3.055   2.950 -1.3597 -0.5246 -0.1748
  109SAPE   C2711258   0.920   3.228   2.890  0.2530  0.3580 -0.4555
  109SAPE   H7R11259   0.879   3.221   2.993 -0.6264 -1.3084 -0.8808
  109SAPE   H7S11260   0.831   3.230   2.823  0.1300  0.1278 -0.2972
  109SAPE   C2811261   0.997   3.354   2.885 -0.2275 -1.2415 -0.2742
  109SAPE   H8R11262   1.079   3.361   2.813 -0.2713  1.6403 -0.1624
  109SAPE   C2911263   0.961   3.478   2.921 -0.0724  0.3121  0.0133
  109SAPE   H9R11264   1.030   3.561   2.901  0.3184 -0.1449 -0.5649
  109SAPE  C21011265   0.831   3.509   2.990  0.5326  0.0874  0.4713
  109SAPE  H10R11266   0.818   3.460   3.088  2.7478  0.7233  1.1372
  109SAPE  H10S11267   0.755   3.452   2.932  0.9959 -1.2198  1.1150
  109SAPE  C21111268   0.801   3.651   3.002  0.9735  0.3881 -0.7403
  109SAPE  H11R11269   0.761   3.692   2.908 -1.1962 -0.1988 -0.1474
  109SAPE  C21211270   0.774   3.722   3.114 -0.6172 -0.6595 -0.0357
  109SAPE  H12R11271   0.756   3.829   3.097  0.9237 -0.4735 -0.5895
  109SAPE  C21311272   0.790   3.676   3.254 -0.2467 -0.2083 -0.9378
  109SAPE  H13R11273   0.837   3.756   3.316 -0.3352 -0.4791 -0.5254
  109SAPE  H13S11274   0.863   3.592   3.259 -1.8732 -1.6142  0.0911
  109SAPE  C21411275   0.653   3.634   3.313 -0.7791 -1.1948  0.3956
  109SAPE  H14R11276   0.594   3.577   3.239  0.0578 -0.9239 -0.4961
  109SAPE  C21511277   0.599   3.670   3.432 -0.1309  0.3471  0.5493
  109SAPE  H15R11278   0.503   3.623   3.457  0.0492  0.8633  2.3637
  109SAPE  C21611279   0.649   3.766   3.538 -0.3828  0.0639 -0.5312
  109SAPE  H16R11280   0.587   3.858   3.531  0.2431  0.5467  0.2046
  109SAPE  H16S11281   0.751   3.804   3.519 -0.1905 -0.3031 -0.2446
  109SAPE  C21711282   0.630   3.719   3.684 -0.2076 -0.0286 -0.5623
  109SAPE  H17R11283   0.684   3.622   3.694  2.7012  1.0252 -3.9705
  109SAPE  H17S11284   0.522   3.693   3.694 -0.5527  0.2890 -2.9676
  109SAPE  C21811285   0.663   3.827   3.781  0.6266 -0.3294  0.4628
  109SAPE  H18R11286   0.611   3.912   3.732  0.1511 -2.2267 -2.5953
  109SAPE  H18S11287   0.770   3.854   3.775  0.3899  0.6070  0.3572
  109SAPE  C21911288   0.615   3.801   3.925 -0.2396 -0.3778 -0.2521
  109SAPE  H19R11289   0.510   3.766   3.936 -0.3887  0.6685  2.2206
  109SAPE  H19S11290   0.625   3.898   3.978  1.7074 -0.8632  0.3554
  109SAPE  C22011291   0.701   3.689   3.989 -0.2395 -0.5128  0.4220
  109SAPE  H20R11292   0.661   3.677   4.091 -1.0186 -0.0503  0.1751
  109SAPE  H20S11293   0.807   3.723   3.997 -1.4331  3.4188  1.7735
  109SAPE  H20T11294   0.686   3.590   3.940 -3.2422 -1.0006  2.1400
  109SAPE   C3311295   0.568   2.436   2.807 -0.0102  0.5231  0.0770
  109SAPE   H3X11296   0.647   2.360   2.790 -0.3620  0.1973 -0.1376
  109SAPE   H3Y11297   0.478   2.403   2.750  0.9854  1.9894 -2.5194
  109SAPE   C3411298   0.528   2.441   2.952 -0.2806 -0.2910  0.3716
  109SAPE   H4X11299   0.518   2.338   2.991 -1.1085 -0.0800  0.7425
  109SAPE   H4Y11300   0.434   2.498   2.970  0.0531  0.8204 -1.1643
  109SAPE   C3511301   0.647   2.504   3.037 -0.0821  0.3593 -0.3094
  109SAPE   H5X11302   0.647   2.612   3.011 -2.0708  0.5388  0.3322
  109SAPE   H5Y11303   0.749   2.462   3.021  0.3965  0.8004  1.3787
  109SAPE   C3611304   0.620   2.502   3.189 -0.0851 -0.3392  0.5996
  109SAPE   H6X11305   0.566   2.406   3.205 -0.1962 -0.4757 -0.5136
  109SAPE   H6Y11306   0.556   2.589   3.214 -0.0786  0.2371 -1.2074
  109SAPE   C3711307   0.750   2.482   3.273 -0.2845  0.3663 -0.3086
  109SAPE   H7X11308   0.830   2.533   3.216  2.7606 -2.5771  0.9695
  109SAPE   H7Y11309   0.768   2.373   3.287  0.9728  0.7751  1.7285
  109SAPE   C3811310   0.747   2.537   3.420 -0.5509  0.7625  0.5192
  109SAPE   H8X11311   0.844   2.511   3.469  1.0268  1.5861 -2.0012
  109SAPE   H8Y11312   0.655   2.501   3.471 -1.3372  1.3529 -0.4364
  109SAPE   C3911313   0.738   2.689   3.404 -0.9111 -0.0933 -0.5535
  109SAPE   H9X11314   0.640   2.705   3.353  0.6473 -0.7335 -4.0284
  109SAPE   H9Y11315   0.813   2.736   3.338  1.6668  1.3277  3.0905
  109SAPE  C31011316   0.746   2.761   3.543 -0.0588  0.1310 -0.4166
  109SAPE  H10X11317   0.777   2.864   3.518 -0.6233  0.0159 -1.6670
  109SAPE  H10Y11318   0.831   2.714   3.598 -0.6911 -1.1969 -0.5269
  109SAPE  C31111319   0.613   2.754   3.621  0.5940  0.3073 -0.5751
  109SAPE  H11X11320   0.599   2.654   3.666  0.1251  0.5343 -0.2049
  109SAPE  H11Y11321   0.527   2.784   3.557 -1.4000 -3.2057  0.2069
  109SAPE  C31211322   0.604   2.866   3.728  0.2629  0.2573 -0.0386
  109SAPE  H12X11323   0.509   2.881   3.785  1.0682  0.3912  1.3045
  109SAPE  H12Y11324   0.650   2.964   3.703 -0.8060  0.7753 -0.0372
  109SAPE  C31311325   0.703   2.825   3.846 -0.0993  0.0359  0.5789
  109SAPE  H13X11326   0.807   2.833   3.806 -0.9339  4.7058 -1.2262
  109SAPE  H13Y11327   0.672   2.722   3.873  0.3137 -0.0401  0.7841
  109SAPE  C31411328   0.709   2.913   3.973  0.2814  0.0618  0.2645
  109SAPE  H14X11329   0.735   2.854   4.063 -3.3634 -2.0382  0.1276
  109SAPE  H14Y11330   0.600   2.932   3.984  0.0769  0.5169 -1.9341
  109SAPE  C31511331   0.774   3.047   3.953  0.1017 -0.0604 -0.0530
  109SAPE  H15X11332   0.717   3.086   3.865 -0.3251 -0.6540 -0.0487
  109SAPE  H15Y11333   0.882   3.033   3.932 -0.2038 -1.3231 -0.8391
  109SAPE  C31611334   0.765   3.144   4.075  0.2797  0.4666 -0.4633
  109SAPE  H16X11335   0.666   3.119   4.121 -0.1023  1.1827 -0.8689
  109SAPE  H16Y11336   0.764   3.246   4.031  2.7702  1.4610  1.5342
  109SAPE  C31711337   0.876   3.126   4.178  0.1964  0.4452 -0.0024
  109SAPE  H17X11338   0.973   3.124   4.123 -0.4345 -1.0704 -1.1240
  109SAPE  H17Y11339   0.873   3.026   4.228  0.2001  0.4494  0.0061
  109SAPE  C31811340   0.879   3.216   4.301 -0.4658  0.0904 -0.8267
  109SAPE  H18X11341   0.978   3.204   4.351 -0.3943 -0.9037 -1.1918
  109SAPE  H18Y11342   0.803   3.188   4.377  0.8309  1.1163  0.9369
  109SAPE  H18Z11343   0.874   3.322   4.267 -2.6488  1.1992  2.4925
  110SAPE     N11344   5.998   5.248   2.009  0.3713  0.8393  1.3718
  110SAPE   HN111345   5.956   5.313   1.939  0.3755  1.4311  1.9194
  110SAPE   HN211346   6.097   5.267   1.983  0.0526  0.0862 -0.6605
  110SAPE   HN311347   5.971   5.150   1.986  0.2545  0.7628  1.8380
  110SAPE   C1211348   5.962   5.281   2.143 -0.4158 -0.7246 -0.6614
  110SAPE  H12A11349   5.852   5.291   2.160 -0.0284 -0.6022  2.4430
  110SAPE  H12B11350   6.001   5.383   2.160  1.1069 -1.5863  1.3885
  110SAPE   C1111351   6.014   5.179   2.242  0.4213 -0.8436  0.1771
  110SAPE  H11A11352   6.003   5.205   2.349  2.4213  1.8795 -0.1628
  110SAPE  H11B11353   6.124   5.182   2.232  0.4116  1.8271  0.1515
  110SAPE     P11354   5.848   4.965   2.252 -0.1421  0.2547  0.0705
  110SAPE   O1311355   5.731   5.060   2.260 -0.4706  1.0165  0.1547
  110SAPE   O1411356   5.839   4.846   2.162 -0.0584 -0.9142  0.4957
  110SAPE   O1211357   5.979   5.042   2.212 -0.0003  0.0186 -0.0021
  110SAPE   O1111358   5.878   4.906   2.398 -0.0633 -0.9240  0.0253
  110SAPE    C111359   5.777   4.819   2.462  0.1414 -0.2251 -0.4001
  110SAPE    HA11360   5.721   4.758   2.387 -0.6041  2.1250 -1.8372
  110SAPE    HB11361   5.825   4.744   2.529  0.7276 -0.0323 -0.5909
  110SAPE    C211362   5.661   4.887   2.553  0.4370 -0.4357  0.2968
  110SAPE    HS11363   5.592   4.942   2.485  1.0566  1.0965  0.8600
  110SAPE   O2111364   5.718   4.993   2.639 -0.1289 -0.1918  0.3883
  110SAPE   C2111365   5.675   5.116   2.619  0.6827 -0.0867 -0.1344
  110SAPE   O2211366   5.568   5.147   2.566 -0.2415  0.4035  0.1941
  110SAPE   C2211367   5.771   5.209   2.686  0.0164 -0.3779  0.1265
  110SAPE   H2R11368   5.874   5.170   2.674 -0.1153 -0.9838  0.8882
  110SAPE   H2S11369   5.764   5.303   2.628  1.0711 -0.3107  0.0923
  110SAPE    C311370   5.586   4.788   2.647 -0.4816  0.1148 -0.0932
  110SAPE    HX11371   5.510   4.845   2.703 -3.3716 -2.6887 -0.8560
  110SAPE    HY11372   5.515   4.736   2.579 -0.3932  0.7537 -0.6878
  110SAPE   O3111373   5.677   4.704   2.728  0.3923 -0.1693  0.1444
  110SAPE   C3111374   5.704   4.765   2.847 -0.4429  0.3572  0.4671
  110SAPE   O3211375   5.643   4.855   2.897 -0.0805 -0.2765  0.3388
  110SAPE   C3211376   5.829   4.697   2.907  0.2486 -0.1089  0.4484
  110SAPE   H2X11377   5.897   4.704   2.820 -1.3763  0.6518 -0.8236
  110SAPE   H2Y11378   5.811   4.588   2.920 -1.5587 -0.1447 -1.6703
  110SAPE   C2311379   5.752   5.238   2.837 -0.0133 -0.0439 -0.3460
  110SAPE   H3R11380   5.776   5.148   2.898  0.1961 -0.6901 -1.3566
  110SAPE   H3S11381   5.646   5.273   2.839  0.5208  1.6159  0.4642
  110SAPE   C2411382   5.819   5.359   2.899  0.1500  0.0156 -0.4105
  110SAPE   H4R11383   5.784   5.386   3.001 -1.6532 -1.6062 -0.5460
  110SAPE   H4S11384   5.782   5.438   2.830  1.7415 -0.6146 -2.0645
  110SAPE   C2511385   5.966   5.356   2.919  0.0152 -0.0013  0.1278
  110SAPE   H5R11386   6.032   5.394   2.840  0.8762 -0.3258  0.6759
  110SAPE   C2611387   6.024   5.335   3.042  0.2727 -0.4895 -0.1133
  110SAPE   H6R11388   6.134   5.335   3.049  0.2992 -0.7552 -0.5119
  110SAPE   C2711389   5.956   5.285   3.167  0.5560 -0.2369 -0.4178
  110SAPE   H7R11390   5.849   5.258   3.155  0.6696 -1.4514  1.0021
  110SAPE   H7S11391   5.941   5.364   3.243 -1.6657 -0.6707 -0.3314
  110SAPE   C2811392   6.029   5.169   3.223 -0.0088  0.4186 -0.0128
  110SAPE   H8R11393   6.044   5.099   3.139 -1.2890  0.4898 -0.3196
  110SAPE   C2911394   6.089   5.150   3.344  0.0303  0.4578  0.0651
  110SAPE   H9R11395   6.139   5.057   3.374  1.8709  1.6320  0.8577
  110SAPE  C21011396   6.087   5.254   3.444 -0.7727  0.0019 -0.4093
  110SAPE  H10R11397   5.989   5.255   3.496 -1.0607 -0.3525 -0.9231
  110SAPE  H10S11398   6.086   5.356   3.399 -2.6761  0.5824  0.8542
  110SAPE  C21111399   6.202   5.235   3.543  0.2374 -0.5156 -0.3886
  110SAPE  H11R11400   6.303   5.253   3.502  1.6334 -1.3793  2.4017
  110SAPE  C21211401   6.193   5.221   3.675  0.2031 -0.3601 -0.0001
  110SAPE  H12R11402   6.285   5.221   3.736  0.6389 -1.5488 -0.6300
  110SAPE  C21311403   6.071   5.205   3.760  0.1540 -0.2712  0.7479
  110SAPE  H13R11404   5.983   5.178   3.697 -0.4480  0.0074  1.4595
  110SAPE  H13S11405   6.043   5.295   3.818  0.2713 -1.2053  2.3454
  110SAPE  C21411406   6.094   5.087   3.854 -0.3914 -0.3008 -0.5830
  110SAPE  H14R11407   6.130   4.991   3.814  1.2396 -0.3539  0.9241
  110SAPE  C21511408   6.074   5.092   3.985  0.7726  0.2394 -0.1851
  110SAPE  H15R11409   6.088   5.001   4.045 -1.5347 -1.1381 -1.5766
  110SAPE  C21611410   6.034   5.215   4.057  0.5336 -0.1896 -0.6738
  110SAPE  H16R11411   5.964   5.276   3.996 -0.3822  0.1057  0.6437
  110SAPE  H16S11412   6.126   5.277   4.069 -0.8724  2.4536 -2.4627
  110SAPE  C21711413   5.957   5.205   4.194 -0.3101 -0.1330  0.0432
  110SAPE  H17R11414   5.874   5.131   4.194 -0.6218  0.1830  1.1944
  110SAPE  H17S11415   5.920   5.306   4.226  0.2449  0.4467 -1.0965
  110SAPE  C21811416   6.053   5.167   4.304  0.1965 -0.0629 -0.2931
  110SAPE  H18R11417   6.132   5.244   4.309  1.0297 -0.9622  0.8365
  110SAPE  H18S11418   6.101   5.068   4.286 -0.7361 -0.2182 -2.1796
  110SAPE  C21911419   5.981   5.170   4.441  0.5748 -0.0293  0.1437
  110SAPE  H19R11420   5.917   5.261   4.444  1.2091  0.3923  1.6167
  110SAPE  H19S11421   6.063   5.182   4.515  2.0329 -2.3836 -0.9589
  110SAPE  C22011422   5.903   5.038   4.469 -0.4349  0.4410 -0.4374
  110SAPE  H20R11423   5.840   5.010   4.382 -0.0159  0.3566 -0.7190
  110SAPE  H20S11424   5.843   5.039   4.563 -0.7706  0.2870 -0.6507
  110SAPE  H20T11425   5.969   4.950   4.486 -1.1416  0.1225  0.7591
  110SAPE   C3311426   5.868   4.758   3.038 -0.6120  0.6640 -0.8145
  110SAPE   H3X11427   5.792   4.729   3.114  2.3974 -1.4868  1.6316
  110SAPE   H3Y11428   5.865   4.869   3.039  0.4618  0.7946 -3.5106
  110SAPE   C3411429   6.000   4.712   3.083  0.3150 -0.2056 -0.4145
  110SAPE   H4X11430   6.075   4.737   3.005 -0.3118  1.1200 -0.6300
  110SAPE   H4Y11431   5.990   4.603   3.103 -1.0419  0.0867  0.6276
  110SAPE   C3511432   6.038   4.759   3.226 -0.2734 -0.3022  0.1448
  110SAPE   H5X11433   6.020   4.868   3.226  1.5674  0.0717  2.1468
  110SAPE   H5Y11434   6.148   4.746   3.236 -0.2251 -0.0261 -0.0172
  110SAPE   C3611435   5.958   4.681   3.333 -0.0086 -0.2162 -0.0216
  110SAPE   H6X11436   6.002   4.583   3.361  0.4145  0.3830  1.5325
  110SAPE   H6Y11437   5.852   4.672   3.305  0.7562 -0.4245 -3.1988
  110SAPE   C3711438   5.967   4.763   3.470  0.2954  0.7161 -0.1590
  110SAPE   H7X11439   5.876   4.826   3.476  0.9682  1.7708 -0.8217
  110SAPE   H7Y11440   6.059   4.818   3.498 -0.2643  1.1660  0.8433
  110SAPE   C3811441   5.955   4.660   3.595 -0.1857 -0.3219  0.1718
  110SAPE   H8X11442   6.033   4.582   3.586 -0.6119 -0.6430 -0.8532
  110SAPE   H8Y11443   5.860   4.603   3.589 -0.2556 -0.1229 -0.7606
  110SAPE   C3911444   5.954   4.737   3.731 -0.4451  0.5943  0.9393
  110SAPE   H9X11445   5.879   4.819   3.727 -0.5086  0.4953 -1.4905
  110SAPE   H9Y11446   6.053   4.787   3.730 -1.4809  2.7911  0.5813
  110SAPE  C31011447   5.953   4.644   3.847 -0.0426  0.7053  0.7009
  110SAPE  H10X11448   6.042   4.577   3.846  0.1044  0.8951  1.2183
  110SAPE  H10Y11449   5.861   4.582   3.841  0.1509  0.4841 -0.1458
  110SAPE  C31111450   5.941   4.719   3.980 -0.1115  0.5319 -0.3974
  110SAPE  H11X11451   5.891   4.818   3.982 -0.9392  0.1199  1.1037
  110SAPE  H11Y11452   6.045   4.726   4.019 -0.6740  0.9409  1.1081
  110SAPE  C31211453   5.866   4.635   4.089 -0.0156 -0.0770 -0.5410
  110SAPE  H12X11454   5.910   4.534   4.106  0.7951  0.6662  2.1712
  110SAPE  H12Y11455   5.759   4.617   4.066 -0.1977  0.9620 -0.5694
  110SAPE  C31311456   5.861   4.706   4.226  0.3247 -1.0889  0.0075
  110SAPE  H13X11457   5.802   4.793   4.190  1.5990 -0.4283 -0.5648
  110SAPE  H13Y11458   5.963   4.734   4.262  0.2248 -1.6519  0.7406
  110SAPE  C31411459   5.784   4.637   4.337  0.3393  0.8461  1.1871
  110SAPE  H14X11460   5.822   4.533   4.345  0.0206  0.5998 -0.2660
  110SAPE  H14Y11461   5.674   4.643   4.331  0.2322 -0.4445  1.7371
  110SAPE  C31511462   5.808   4.687   4.477  0.0548 -0.4307  0.7492
  110SAPE  H15X11463   5.784   4.796   4.480  2.1223  0.1311 -0.6857
  110SAPE  H15Y11464   5.915   4.673   4.503  0.2371  0.7802  0.7194
  110SAPE  C31611465   5.739   4.614   4.594  0.3035 -0.3426 -0.6969
  110SAPE  H16X11466   5.783   4.636   4.693  0.5535 -0.9012 -0.6777
  110SAPE  H16Y11467   5.754   4.506   4.572  0.0771 -0.9886  1.9664
  110SAPE  C31711468   5.589   4.643   4.609 -0.0526  0.1066  0.1452
  110SAPE  H17X11469   5.534   4.657   4.514 -2.3458 -2.2954  0.9877
  110SAPE  H17Y11470   5.582   4.744   4.656  0.9606 -0.1441  0.8610
  110SAPE  C31811471   5.506   4.541   4.688 -0.0961 -0.3195  0.7170
  110SAPE  H18X11472   5.496   4.441   4.640  2.2647 -0.0478 -0.4897
  110SAPE  H18Y11473   5.405   4.586   4.699  0.1608  0.9610 -1.5128
  110SAPE  H18Z11474   5.540   4.518   4.791  1.4401 -1.0980  0.0698
  111SAPE     N11475   0.736   0.706   2.232 -0.2348  0.2095  0.2132
  111SAPE   HN111476   0.692   0.791   2.192  2.9470  2.6159  1.3709
  111SAPE   HN211477   0.836   0.725   2.252  0.2596 -1.6224 -0.3186
  111SAPE   HN311478   0.748   0.645   2.149  2.0772  4.1507 -2.7201
  111SAPE   C1211479   0.653   0.635   2.336 -0.0900 -0.5160  0.6963
  111SAPE  H12A11480   0.635   0.715   2.411 -0.5892  1.5254 -1.4943
  111SAPE  H12B11481   0.726   0.561   2.376  0.0400 -0.3034  0.8572
  111SAPE   C1111482   0.535   0.555   2.289 -0.0011  0.0469  0.6416
  111SAPE  H11A11483   0.506   0.486   2.371  0.1177 -0.8734 -0.0754
  111SAPE  H11B11484   0.560   0.489   2.203 -1.1629 -0.3668  0.6021
  111SAPE     P11485   0.301   0.655   2.358 -0.3049  0.0518  0.1320
  111SAPE   O1311486   0.223   0.771   2.314  0.0928  0.1063 -0.1007
  111SAPE   O1411487   0.231   0.522   2.358 -0.5794  0.8868  0.3996
  111SAPE   O1211488   0.426   0.640   2.260 -0.6155 -0.5395  0.3752
  111SAPE   O1111489   0.363   0.686   2.499 -0.4065  0.4096 -1.1083
  111SAPE    C111490   0.285   0.719   2.609  0.1789  1.2763  0.2883
  111SAPE    HA11491   0.344   0.793   2.667 -1.8810  3.3435 -0.1111
  111SAPE    HB11492   0.192   0.771   2.579  0.2991  1.2318 -0.1621
  111SAPE    C211493   0.250   0.588   2.692  0.1282 -0.3010  0.1280
  111SAPE    HS11494   0.188   0.519   2.631  0.0978  0.0726 -0.2672
  111SAPE   O2111495   0.186   0.633   2.810 -0.4124  0.2848  0.0082
  111SAPE   C2111496   0.081   0.567   2.855 -0.3171 -1.0617  0.7378
  111SAPE   O2211497   0.024   0.482   2.795  0.1935 -0.1930 -0.0210
  111SAPE   C2211498   0.048   0.617   3.002  0.8015  0.2730 -0.1696
  111SAPE   H2R11499   0.137   0.616   3.068  0.7426  0.7419 -0.0820
  111SAPE   H2S11500   0.009   0.721   2.990  0.1055 -0.1062 -1.3899
  111SAPE    C311501   0.382   0.512   2.736  0.2724 -0.5619  0.2163
  111SAPE    HX11502   0.441   0.582   2.799 -1.1932 -0.4227  1.4895
  111SAPE    HY11503   0.432   0.486   2.640  1.3962  0.9328  0.3585
  111SAPE   O3111504   0.341   0.395   2.820  0.0954 -0.0066 -0.0344
  111SAPE   C3111505   0.288   0.296   2.751 -0.1414 -0.4868 -0.0913
  111SAPE   O3211506   0.284   0.287   2.629 -0.7380  0.9552  0.3788
  111SAPE   C3211507   0.222   0.194   2.847 -0.0937  0.4338  0.0361
  111SAPE   H2X11508   0.180   0.115   2.782  1.0417 -1.7424  1.8361
  111SAPE   H2Y11509   0.135   0.243   2.896 -1.3712  0.0005 -1.7259
  111SAPE   C2311510  -0.069   0.529   3.063 -0.0995 -0.0340 -0.1212
  111SAPE   H3R11511  -0.033   0.425   3.084  2.9821  1.2647  1.7242
  111SAPE   H3S11512  -0.149   0.523   2.986  0.1634 -2.3389 -0.2906
  111SAPE   C2411513  -0.121   0.595   3.191  0.0500 -0.0647  0.5209
  111SAPE   H4R11514  -0.163   0.693   3.160 -1.3495 -1.1158 -1.0739
  111SAPE   H4S11515  -0.035   0.607   3.261  0.3901  0.5957  0.0026
  111SAPE   C2511516  -0.240   0.515   3.251 -0.0090 -0.2421 -0.0027
  111SAPE   H5R11517  -0.325   0.497   3.184 -2.6665  2.5384  2.2937
  111SAPE   C2611518  -0.252   0.466   3.378  0.0128  0.5970  0.9979
  111SAPE   H6R11519  -0.328   0.389   3.399 -1.3639  2.1876  2.1316
  111SAPE   C2711520  -0.142   0.479   3.480 -0.1390 -0.1488 -0.2404
  111SAPE   H7R11521  -0.064   0.558   3.467 -0.9909  0.6619 -0.5387
  111SAPE   H7S11522  -0.080   0.387   3.481  1.5932  0.9651 -0.7021
  111SAPE   C2811523  -0.202   0.509   3.617  0.6154 -0.4361 -0.2889
  111SAPE   H8R11524  -0.304   0.551   3.615  1.3799  1.5200 -1.2035
  111SAPE   C2911525  -0.140   0.490   3.732 -0.1141 -0.1711  0.0536
  111SAPE   H9R11526  -0.192   0.508   3.827 -1.5613 -0.5559 -0.6435
  111SAPE  C21011527   0.002   0.446   3.746  0.6288  0.3186  0.2545
  111SAPE  H10R11528   0.064   0.495   3.668 -0.5506 -1.0887 -1.6632
  111SAPE  H10S11529   0.001   0.338   3.718 -0.6451  0.6330 -1.0266
  111SAPE  C21111530   0.069   0.467   3.882  0.5316  0.1537 -0.6154
  111SAPE  H11R11531   0.043   0.383   3.948 -0.7774  0.0821 -1.1827
  111SAPE  C21211532   0.137   0.569   3.938  0.0881  0.1343 -0.2667
  111SAPE  H12R11533   0.163   0.576   4.045 -1.3700  0.1725  0.1006
  111SAPE  C21311534   0.170   0.694   3.859 -0.3880  0.8043 -0.1605
  111SAPE  H13R11535   0.151   0.776   3.932 -1.4980  1.2333 -0.9171
  111SAPE  H13S11536   0.100   0.707   3.774 -0.2832  0.3245 -0.3262
  111SAPE  C21411537   0.312   0.690   3.794  0.3338  0.2497 -1.1947
  111SAPE  H14R11538   0.311   0.634   3.699 -1.1503 -1.0532 -0.4695
  111SAPE  C21511539   0.420   0.752   3.827 -0.5725 -0.1884 -0.2193
  111SAPE  H15R11540   0.510   0.716   3.775  0.8533 -0.2041  2.0819
  111SAPE  C21611541   0.453   0.833   3.950  0.4784  0.5750 -0.6505
  111SAPE  H16R11542   0.355   0.867   3.990  1.1400  0.9111  0.7422
  111SAPE  H16S11543   0.509   0.928   3.934  1.7511  0.0997  0.7000
  111SAPE  C21711544   0.508   0.765   4.078 -0.1943  0.3905  0.2342
  111SAPE  H17R11545   0.604   0.718   4.046  1.7221  3.5499  0.8834
  111SAPE  H17S11546   0.434   0.685   4.098  1.1757 -0.6797  1.2647
  111SAPE  C21811547   0.520   0.861   4.195  0.0933 -0.2980  0.2249
  111SAPE  H18R11548   0.420   0.894   4.231  1.1592  0.9516  2.2692
  111SAPE  H18S11549   0.574   0.950   4.155 -0.8035  0.6222  1.0164
  111SAPE  C21911550   0.584   0.807   4.322 -0.2553  0.4404  0.1749
  111SAPE  H19R11551   0.546   0.703   4.333 -1.4925  0.8159 -0.3690
  111SAPE  H19S11552   0.554   0.873   4.407 -0.7784 -1.3528  1.4387
  111SAPE  C22011553   0.736   0.794   4.317  0.5552 -0.6486 -0.1343
  111SAPE  H20R11554   0.774   0.735   4.403 -0.2530 -3.3792 -1.5638
  111SAPE  H20S11555   0.780   0.896   4.330  2.2651 -1.0949 -1.9075
  111SAPE  H20T11556   0.770   0.744   4.224 -1.8431 -0.0077 -1.4263
  111SAPE   C3311557   0.311   0.129   2.948  0.1242 -0.0910  0.2496
  111SAPE   H3X11558   0.415   0.166   2.937  1.1202 -2.8705 -0.7402
  111SAPE   H3Y11559   0.328   0.023   2.918  0.6790  0.1808 -0.4079
  111SAPE   C3411560   0.266   0.132   3.091 -0.4591  0.4295 -0.1208
  111SAPE   H4X11561   0.331   0.077   3.163 -1.2054  0.4946  0.6190
  111SAPE   H4Y11562   0.163   0.092   3.087 -0.3148  0.1984 -2.5177
  111SAPE   C3511563   0.245   0.276   3.142 -0.1498 -0.0130  0.7994
  111SAPE   H5X11564   0.186   0.338   3.072  1.0432 -1.9498 -2.1376
  111SAPE   H5Y11565   0.343   0.322   3.166  0.7400 -1.7739  0.7319
  111SAPE   C3611566   0.166   0.286   3.274 -0.6374 -0.0708  0.1257
  111SAPE   H6X11567   0.068   0.236   3.257 -0.7336  0.2920 -0.4174
  111SAPE   H6Y11568   0.140   0.392   3.295 -2.6123 -0.4097 -0.3443
  111SAPE   C3711569   0.244   0.215   3.391  0.3818  0.3840 -0.5279
  111SAPE   H7X11570   0.301   0.125   3.360 -0.6293 -0.7796  0.8436
  111SAPE   H7Y11571   0.174   0.156   3.454  0.2176  1.8177  0.6815
  111SAPE   C3811572   0.324   0.306   3.478  0.1587 -0.3508 -0.0044
  111SAPE   H8X11573   0.258   0.390   3.509 -1.6149 -1.2887 -1.0439
  111SAPE   H8Y11574   0.405   0.357   3.421  1.4472 -2.8933 -0.6113
  111SAPE   C3911575   0.388   0.240   3.599  0.5439 -0.0336  0.1703
  111SAPE   H9X11576   0.481   0.191   3.564 -1.1968 -1.9684 -2.1719
  111SAPE   H9Y11577   0.332   0.151   3.635  1.2508 -0.2649  0.7006
  111SAPE  C31011578   0.406   0.338   3.709  0.2953 -0.1774  0.4424
  111SAPE  H10X11579   0.324   0.407   3.738  0.3716  2.0250 -3.8005
  111SAPE  H10Y11580   0.485   0.409   3.677 -1.1931  1.7284  0.7637
  111SAPE  C31111581   0.467   0.277   3.842  0.2739  0.8270  0.5392
  111SAPE  H11X11582   0.568   0.236   3.821 -0.9864 -1.8060 -1.0004
  111SAPE  H11Y11583   0.400   0.190   3.862  0.6611  0.5999  0.8490
  111SAPE  C31211584   0.467   0.363   3.970 -0.3905 -0.2181 -0.6588
  111SAPE  H12X11585   0.368   0.404   3.999  0.6069  1.1551  0.9587
  111SAPE  H12Y11586   0.533   0.446   3.940  0.3988 -1.0980 -1.4336
  111SAPE  C31311587   0.521   0.293   4.085 -0.2094  0.6273 -0.0995
  111SAPE  H13X11588   0.625   0.256   4.082 -0.1055  0.9746 -1.8997
  111SAPE  H13Y11589   0.465   0.201   4.113  1.9666 -0.7263  0.0300
  111SAPE  C31411590   0.510   0.391   4.207 -0.4297 -0.0760 -0.5621
  111SAPE  H14X11591   0.414   0.446   4.213 -1.1741 -1.1853 -1.6562
  111SAPE  H14Y11592   0.596   0.461   4.199 -0.6201  0.6064  2.4340
  111SAPE  C31511593   0.525   0.319   4.344  0.1050  0.1167 -0.6168
  111SAPE  H15X11594   0.621   0.264   4.345 -0.3731 -1.0951  4.3437
  111SAPE  H15Y11595   0.441   0.251   4.371  0.3331 -0.2744 -0.8982
  111SAPE  C31611596   0.520   0.418   4.460  0.0795  0.0810 -0.0244
  111SAPE  H16X11597   0.425   0.473   4.443 -0.3403 -1.0219 -1.4919
  111SAPE  H16Y11598   0.599   0.495   4.447  0.8380 -0.5283  0.8981
  111SAPE  C31711599   0.544   0.376   4.608 -0.7386  0.0798 -0.8064
  111SAPE  H17X11600   0.638   0.318   4.616 -0.2750  0.8017 -0.9896
  111SAPE  H17Y11601   0.457   0.309   4.623 -2.9678  2.6544 -1.4422
  111SAPE  C31811602   0.539   0.492   4.705 -0.5277 -0.1700 -0.8856
  111SAPE  H18X11603   0.623   0.561   4.683 -0.2256  0.8312  2.8644
  111SAPE  H18Y11604   0.553   0.476   4.814  4.2977  0.8942 -1.1249
  111SAPE  H18Z11605   0.446   0.553   4.694 -0.6744 -0.6046 -2.2430
  112SAPE     N11606   3.636   1.070   2.043 -0.3454  0.1505 -0.3931
  112SAPE   HN111607   3.576   1.083   1.959  0.8973  1.5977 -1.1143
  112SAPE   HN211608   3.677   1.163   2.066 -0.6071  0.3490 -0.7183
  112SAPE   HN311609   3.712   1.003   2.018  0.1679 -0.3121  2.1460
  112SAPE   C1211610   3.551   1.013   2.158 -0.2453 -0.4399  0.3174
  112SAPE  H12A11611   3.612   1.013   2.251  0.5413 -0.6110 -0.1928
  112SAPE  H12B11612   3.517   0.912   2.129 -1.3194 -0.7340  2.4191
  112SAPE   C1111613   3.426   1.108   2.179  0.0831 -0.7915  0.5922
  112SAPE  H11A11614   3.451   1.214   2.200 -0.1077 -0.3316 -1.3280
  112SAPE  H11B11615   3.363   1.078   2.265  0.2054  0.4361  1.1256
  112SAPE     P11616   3.226   1.013   2.023  0.0178 -0.3286 -0.4726
  112SAPE   O1311617   3.222   1.018   1.877  0.5399 -0.2263  0.0256
  112SAPE   O1411618   3.255   0.879   2.078  0.4218 -0.2091  0.0681
  112SAPE   O1211619   3.342   1.110   2.066  0.2205  0.1769 -0.1133
  112SAPE   O1111620   3.097   1.072   2.084 -0.5135 -0.3330  0.3599
  112SAPE    C111621   3.095   1.214   2.101  0.0363 -0.0910 -0.4775
  112SAPE    HA11622   3.167   1.248   2.178 -0.5485 -0.2350  0.1359
  112SAPE    HB11623   3.121   1.275   2.011  1.4695  0.1671  0.0975
  112SAPE    C211624   2.948   1.251   2.140  0.0214  0.4218 -0.2863
  112SAPE    HS11625   2.960   1.351   2.186 -2.2809  0.3425  0.6292
  112SAPE   O2111626   2.888   1.166   2.248 -1.1786 -0.2039 -0.0840
  112SAPE   C2111627   2.947   1.170   2.365  0.0393  0.2053 -0.8325
  112SAPE   O2211628   3.039   1.244   2.400  0.0225  0.6966 -0.0248
  112SAPE   C2211629   2.871   1.067   2.450 -0.3602  0.3943  0.7815
  112SAPE   H2R11630   2.768   1.092   2.483  0.2486  1.2670  2.0938
  112SAPE   H2S11631   2.859   0.974   2.391 -1.4789 -0.5466  2.4244
  112SAPE    C311632   2.847   1.277   2.024 -0.2770  0.4703  0.0437
  112SAPE    HX11633   2.810   1.185   1.975  0.3261  1.4777 -2.4631
  112SAPE    HY11634   2.894   1.331   1.939 -0.8687  1.5999  0.4108
  112SAPE   O3111635   2.732   1.356   2.067  0.1071  0.1421  0.2155
  112SAPE   C3111636   2.630   1.289   2.119 -0.0999 -0.3530  0.0637
  112SAPE   O3211637   2.609   1.169   2.110 -0.5945  0.1183  0.3987
  112SAPE   C3211638   2.534   1.391   2.184  0.0949 -0.2733  0.6468
  112SAPE   H2X11639   2.477   1.439   2.102  1.0133  1.0581  0.7614
  112SAPE   H2Y11640   2.588   1.471   2.238  0.3345  0.5567 -0.7820
  112SAPE   C2311641   2.954   1.039   2.578  0.1517  0.3191 -0.0744
  112SAPE   H3R11642   2.988   1.129   2.633  1.9633 -0.1647 -0.3088
  112SAPE   H3S11643   3.045   0.985   2.545 -0.6302 -0.0639 -1.6737
  112SAPE   C2411644   2.876   0.960   2.680  0.6545 -0.3060 -0.3944
  112SAPE   H4R11645   2.848   0.860   2.639 -1.7813  0.0904  0.1451
  112SAPE   H4S11646   2.784   1.022   2.690  0.4580 -0.6238 -0.1863
  112SAPE   C2511647   2.961   0.932   2.805  0.3375 -0.1314 -1.3939
  112SAPE   H5R11648   3.041   0.864   2.775  0.7479  0.2193 -1.1038
  112SAPE   C2611649   2.941   0.996   2.922  0.4487  0.5399 -0.7190
  112SAPE   H6R11650   3.018   0.979   2.999  0.7990  0.3877 -1.1011
  112SAPE   C2711651   2.833   1.095   2.951 -0.2428 -0.0093 -0.3530
  112SAPE   H7R11652   2.758   1.034   3.006 -0.0501  2.9947  3.7710
  112SAPE   H7S11653   2.789   1.142   2.860  0.2713  2.2269  0.4960
  112SAPE   C2811654   2.886   1.205   3.041 -0.0231  0.0730  0.2527
  112SAPE   H8R11655   2.942   1.289   2.998  0.4866  0.4257  1.5550
  112SAPE   C2911656   2.860   1.221   3.173 -0.2211  0.4286  0.5733
  112SAPE   H9R11657   2.911   1.300   3.230  2.0728 -0.1317 -0.5595
  112SAPE  C21011658   2.777   1.132   3.266  0.0120  0.2893  0.6915
  112SAPE  H10R11659   2.704   1.076   3.205  0.3264 -0.3683  0.9043
  112SAPE  H10S11660   2.720   1.198   3.336 -0.0457  1.9601 -0.8518
  112SAPE  C21111661   2.876   1.046   3.337 -0.0331 -0.1362 -0.4300
  112SAPE  H11R11662   2.920   0.981   3.260  0.6644  3.2781 -3.1557
  112SAPE  C21211663   2.925   1.070   3.461 -0.8025  0.3988 -0.4621
  112SAPE  H12R11664   2.993   0.993   3.499 -1.4928 -0.5033 -1.0121
  112SAPE  C21311665   2.870   1.161   3.568 -0.8034  0.5048  1.0975
  112SAPE  H13R11666   2.801   1.088   3.616  0.0645 -0.8093  0.4110
  112SAPE  H13S11667   2.810   1.245   3.527  1.9503  3.0846  2.0464
  112SAPE  C21411668   2.984   1.203   3.665  0.7762  0.6867 -0.1196
  112SAPE  H14R11669   3.073   1.139   3.662  1.2809  1.3353  0.7871
  112SAPE  C21511670   2.985   1.308   3.741  0.4848  0.3023 -0.3646
  112SAPE  H15R11671   3.075   1.313   3.804  0.8166 -2.1415 -0.5598
  112SAPE  C21611672   2.875   1.412   3.762  0.1032  0.2532 -0.4131
  112SAPE  H16R11673   2.798   1.415   3.682 -0.1724  2.1823 -0.1071
  112SAPE  H16S11674   2.916   1.514   3.777  1.0766 -0.2164  0.2774
  112SAPE  C21711675   2.807   1.384   3.897  0.1975  0.1158  0.4161
  112SAPE  H17R11676   2.755   1.286   3.897  0.8552 -0.2471 -1.0908
  112SAPE  H17S11677   2.720   1.452   3.913  0.3006  0.1633  0.7740
  112SAPE  C21811678   2.901   1.394   4.016  0.4648 -0.0201  0.6720
  112SAPE  H18R11679   2.984   1.468   4.005  0.8818 -0.4454  0.9482
  112SAPE  H18S11680   2.947   1.294   4.021  0.7860  0.1329  0.7888
  112SAPE  C21911681   2.823   1.411   4.145 -0.2187  1.0231  0.1097
  112SAPE  H19R11682   2.770   1.509   4.148 -4.0657 -0.8085 -1.0209
  112SAPE  H19S11683   2.899   1.409   4.226  3.0685 -2.4502 -2.6998
  112SAPE  C22011684   2.709   1.307   4.175  0.5342 -0.0767 -0.1962
  112SAPE  H20R11685   2.733   1.201   4.152 -0.7061 -0.6191  0.8694
  112SAPE  H20S11686   2.630   1.325   4.099  0.5317  2.0247  0.2531
  112SAPE  H20T11687   2.655   1.323   4.271  0.4606 -1.3862 -0.0013
  112SAPE   C3311688   2.436   1.321   2.281 -0.1409  0.2627  0.1976
  112SAPE   H3X11689   2.382   1.243   2.223  1.3852 -0.3291 -0.4645
  112SAPE   H3Y11690   2.358   1.395   2.308 -0.2645 -0.0289  0.6516
  112SAPE   C3411691   2.498   1.257   2.404  0.9326  0.1538  0.1209
  112SAPE   H4X11692   2.576   1.183   2.374  1.7394  0.5829  1.0651
  112SAPE   H4Y11693   2.413   1.213   2.461  0.8317  1.3021  0.9000
  112SAPE   C3511694   2.562   1.361   2.501  0.5024  0.1714 -0.3475
  112SAPE   H5X11695   2.472   1.421   2.526 -0.0069  0.2912 -2.3164
  112SAPE   H5Y11696   2.636   1.427   2.451  1.4753 -0.1726  0.6072
  112SAPE   C3611697   2.608   1.319   2.642  0.3635  0.1975  0.5177
  112SAPE   H6X11698   2.719   1.315   2.641  0.4493  1.9212 -0.3249
  112SAPE   H6Y11699   2.579   1.213   2.658 -0.5210  0.2745 -0.4317
  112SAPE   C3711700   2.554   1.407   2.758 -0.2709 -0.0685  0.6731
  112SAPE   H7X11701   2.444   1.399   2.752 -0.1266 -2.0862 -0.1423
  112SAPE   H7Y11702   2.581   1.513   2.739 -1.5717  0.1417 -0.1387
  112SAPE   C3811703   2.593   1.363   2.904  0.0904 -0.3627  0.6060
  112SAPE   H8X11704   2.704   1.363   2.908  0.0739  0.5478  1.4532
  112SAPE   H8Y11705   2.553   1.262   2.926 -0.9740  0.3261  1.9255
  112SAPE   C3911706   2.544   1.470   3.005  0.0673  0.4277 -0.0788
  112SAPE   H9X11707   2.433   1.463   3.011 -0.0819  0.5109 -2.1200
  112SAPE   H9Y11708   2.563   1.570   2.961 -0.3997  0.7981  0.5467
  112SAPE  C31011709   2.608   1.468   3.143 -0.0547  0.7132  0.5924
  112SAPE  H10X11710   2.715   1.488   3.120  0.0634 -0.0266  0.4713
  112SAPE  H10Y11711   2.609   1.365   3.185  1.3308  0.3022 -0.3623
  112SAPE  C31111712   2.556   1.571   3.251  0.0785 -0.3030  0.1226
  112SAPE  H11X11713   2.448   1.562   3.275 -0.3440  1.8093 -0.7289
  112SAPE  H11Y11714   2.567   1.670   3.202 -0.7289 -0.1899  0.1611
  112SAPE  C31211715   2.635   1.555   3.381  0.0908 -0.6382  0.2587
  112SAPE  H12X11716   2.743   1.561   3.359 -0.1586  0.2032 -0.8645
  112SAPE  H12Y11717   2.614   1.452   3.416 -0.1927 -1.3146 -1.7285
  112SAPE  C31311718   2.599   1.671   3.483  0.0405 -0.3990 -0.3510
  112SAPE  H13X11719   2.498   1.663   3.528  0.0716  2.4514  0.4132
  112SAPE  H13Y11720   2.588   1.764   3.424 -1.6932  0.7740  1.6757
  112SAPE  C31411721   2.693   1.693   3.598 -0.1590 -0.5483  0.8459
  112SAPE  H14X11722   2.790   1.656   3.558 -0.1082 -0.3660  0.8004
  112SAPE  H14Y11723   2.678   1.618   3.679  1.7846 -1.1576  0.7079
  112SAPE  C31511724   2.691   1.827   3.668 -0.1075 -0.1701 -0.1592
  112SAPE  H15X11725   2.584   1.848   3.691  0.1020  1.5032 -0.5960
  112SAPE  H15Y11726   2.719   1.919   3.613 -0.8869  1.4351  1.9605
  112SAPE  C31611727   2.758   1.830   3.808 -0.4276  0.1742 -0.3005
  112SAPE  H16X11728   2.862   1.793   3.793 -0.1063  0.7442  0.4622
  112SAPE  H16Y11729   2.709   1.766   3.884 -0.5535 -0.2277 -0.7157
  112SAPE  C31711730   2.763   1.970   3.861 -0.0705 -0.4427 -0.2631
  112SAPE  H17X11731   2.660   2.012   3.859  0.4393  0.8067 -1.1710
  112SAPE  H17Y11732   2.832   2.023   3.793  0.7975 -3.3088 -1.7816
  112SAPE  C31811733   2.822   1.982   4.008 -0.3551  0.1224  0.0887
  112SAPE  H18X11734   2.836   2.088   4.038 -2.9492 -0.0356  2.2470
  112SAPE  H18Y11735   2.912   1.926   4.040 -0.2636 -0.7397 -1.5359
  112SAPE  H18Z11736   2.734   1.943   4.063 -1.4071  0.1157 -1.5259
  113SAPE     N11737   2.891   6.128   2.082  0.4247 -0.1531 -0.5952
  113SAPE   HN111738   2.937   6.110   2.173 -0.3613 -2.8067 -0.6470
  113SAPE   HN211739   2.789   6.145   2.093  0.7151  1.6277 -0.3731
  113SAPE   HN311740   2.911   6.050   2.016  2.6910  0.8068 -1.1651
  113SAPE   C1211741   2.957   6.253   2.017  0.8616 -0.1356 -0.2198
  113SAPE  H12A11742   2.905   6.263   1.919  2.0910 -1.6563 -1.0608
  113SAPE  H12B11743   3.065   6.231   2.005  0.7400 -1.4956  0.9825
  113SAPE   C1111744   2.943   6.373   2.108 -0.4168  0.1811 -0.0818
  113SAPE  H11A11745   3.035   6.434   2.116 -0.3938 -0.0122  1.3172
  113SAPE  H11B11746   2.939   6.353   2.217  3.3438  0.0071  0.1514
  113SAPE     P11747   2.697   6.435   2.098  0.1927  0.1504  0.0431
  113SAPE   O1311748   2.599   6.533   2.044 -0.4339  0.4871 -0.1114
  113SAPE   O1411749   2.659   6.293   2.061  0.3722 -0.1026 -0.1462
  113SAPE   O1211750   2.842   6.467   2.063  0.0139 -0.3194  0.3177
  113SAPE   O1111751   2.701   6.438   2.249  0.2521  0.1803 -0.2162
  113SAPE    C111752   2.723   6.565   2.318  0.2700 -0.0826  0.1718
  113SAPE    HA11753   2.817   6.609   2.279  0.3954  0.1030  0.6675
  113SAPE    HB11754   2.636   6.630   2.294  0.2061 -0.5597 -0.9468
  113SAPE    C211755   2.716   6.552   2.474 -0.3239  0.3529 -0.2753
  113SAPE    HS11756   2.710   6.647   2.530 -0.0852  0.0400  0.2969
  113SAPE   O2111757   2.828   6.469   2.522 -0.4898 -0.4934 -0.5490
  113SAPE   C2111758   2.943   6.540   2.497  0.6297 -0.3073 -1.1963
  113SAPE   O2211759   2.944   6.656   2.461  0.2721  0.1488 -0.9368
  113SAPE   C2211760   3.053   6.446   2.543 -0.1432 -0.1455  0.2245
  113SAPE   H2R11761   3.014   6.343   2.533 -0.3910  0.0143 -0.5722
  113SAPE   H2S11762   3.124   6.456   2.457 -1.6189 -0.3089 -1.0546
  113SAPE    C311763   2.585   6.481   2.521 -0.3179 -0.3884 -0.2228
  113SAPE    HX11764   2.573   6.394   2.453 -0.7791 -1.6666  1.4235
  113SAPE    HY11765   2.504   6.554   2.500  0.5334  1.1783  1.6330
  113SAPE   O3111766   2.595   6.443   2.662  0.3322 -0.6813 -0.2347
  113SAPE   C3111767   2.579   6.318   2.694 -0.0031  0.0276 -0.5757
  113SAPE   O3211768   2.571   6.221   2.623 -0.3321 -0.2697 -0.1461
  113SAPE   C3211769   2.568   6.305   2.845  0.4721 -0.5615  0.2602
  113SAPE   H2X11770   2.477   6.244   2.861 -1.8885  2.7318  0.2767
  113SAPE   H2Y11771   2.533   6.402   2.887  0.7290 -0.1879 -0.3703
  113SAPE   C2311772   3.133   6.477   2.663 -0.2727 -0.0134  0.1543
  113SAPE   H3R11773   3.166   6.582   2.674  2.5264 -0.7630 -0.1970
  113SAPE   H3S11774   3.227   6.416   2.663  0.7160  1.4538  0.4167
  113SAPE   C2411775   3.055   6.433   2.793 -0.7115 -0.5155 -0.1558
  113SAPE   H4R11776   3.127   6.427   2.877 -2.2123 -0.9106  1.1489
  113SAPE   H4S11777   3.017   6.329   2.784 -0.8359 -0.3626 -1.7750
  113SAPE   C2511778   2.949   6.539   2.826  0.0296  0.4073 -0.5345
  113SAPE   H5R11779   2.865   6.541   2.755 -0.0690 -1.8549 -0.5531
  113SAPE   C2611780   2.939   6.630   2.926  0.4425 -0.6858  0.1873
  113SAPE   H6R11781   2.852   6.697   2.930 -0.0929 -1.3153 -0.3918
  113SAPE   C2711782   3.035   6.665   3.031  0.3516  0.3273 -0.9869
  113SAPE   H7R11783   3.137   6.628   3.009  0.0759 -0.4216 -1.0421
  113SAPE   H7S11784   2.995   6.617   3.123 -0.1280 -0.5121 -1.6215
  113SAPE   C2811785   3.042   6.817   3.048  0.7862  0.2910 -0.3510
  113SAPE   H8R11786   3.041   6.874   2.953 -1.3856  0.1235 -0.4885
  113SAPE   C2911787   3.050   6.888   3.163  0.3627  0.2454  0.0129
  113SAPE   H9R11788   3.052   6.998   3.157 -1.2094  0.3199 -5.6203
  113SAPE  C21011789   3.080   6.823   3.296  1.0509 -0.1615  0.3898
  113SAPE  H10R11790   3.175   6.863   3.336  0.5181  2.5362 -0.8083
  113SAPE  H10S11791   3.102   6.716   3.275 -2.2232 -0.4342 -2.5572
  113SAPE  C21111792   2.968   6.818   3.396  0.8476 -0.1564  0.1540
  113SAPE  H11R11793   2.871   6.810   3.344  2.4127  0.1207 -3.0479
  113SAPE  C21211794   2.981   6.816   3.526  0.9788 -0.3434 -0.7037
  113SAPE  H12R11795   2.892   6.804   3.589  1.6924  0.9849  0.6197
  113SAPE  C21311796   3.103   6.820   3.611  0.6922 -0.0074  0.0170
  113SAPE  H13R11797   3.180   6.883   3.563 -0.5067  3.1372  1.9623
  113SAPE  H13S11798   3.144   6.718   3.627 -1.2432 -0.5761  1.9073
  113SAPE  C21411799   3.065   6.892   3.742  0.3675  0.3591  0.2218
  113SAPE  H14R11800   3.028   6.995   3.731 -2.1253 -0.3539  1.1834
  113SAPE  C21511801   3.068   6.839   3.863 -0.6367 -0.0498  0.2386
  113SAPE  H15R11802   3.052   6.918   3.938 -1.9830  2.2677 -2.3450
  113SAPE  C21611803   3.106   6.699   3.902 -1.3337  0.3983 -0.5553
  113SAPE  H16R11804   3.127   6.634   3.815  0.1273  0.9223 -0.6127
  113SAPE  H16S11805   3.016   6.659   3.954 -1.9565  1.7094 -0.6096
  113SAPE  C21711806   3.237   6.679   3.989  0.1611 -0.1658 -0.0947
  113SAPE  H17R11807   3.319   6.720   3.927 -0.2395 -0.5551 -0.8984
  113SAPE  H17S11808   3.262   6.574   4.017 -0.9772 -0.4487 -0.0827
  113SAPE  C21811809   3.227   6.744   4.127  0.9113 -0.5007 -0.1799
  113SAPE  H18R11810   3.145   6.699   4.187 -0.2576  2.7265  0.8256
  113SAPE  H18S11811   3.222   6.854   4.131  0.4919 -0.5688  1.9257
  113SAPE  C21911812   3.349   6.706   4.207 -0.7013  0.1909 -0.2870
  113SAPE  H19R11813   3.442   6.740   4.156 -0.5591 -2.8074 -2.3295
  113SAPE  H19S11814   3.351   6.597   4.228 -1.6289  0.7856  3.5642
  113SAPE  C22011815   3.355   6.763   4.350  0.4472  0.0622  0.1290
  113SAPE  H20R11816   3.309   6.682   4.411 -2.0908 -0.5708 -2.4001
  113SAPE  H20S11817   3.305   6.860   4.368  1.8475  0.5300  1.7036
  113SAPE  H20T11818   3.461   6.773   4.379 -0.0111 -0.7943  2.2945
  113SAPE   C3311819   2.691   6.241   2.913  0.1672  0.3972  0.6336
  113SAPE   H3X11820   2.788   6.282   2.878  0.5375 -1.6843 -0.9299
  113SAPE   H3Y11821   2.701   6.139   2.871  1.0144  1.2657 -1.4120
  113SAPE   C3411822   2.707   6.238   3.067 -0.4443  0.4272  0.0487
  113SAPE   H4X11823   2.798   6.183   3.097  0.2243  1.2299 -0.4569
  113SAPE   H4Y11824   2.622   6.194   3.124  0.4179 -0.2307  0.8508
  113SAPE   C3511825   2.722   6.376   3.137 -0.0536  0.3027  0.3327
  113SAPE   H5X11826   2.631   6.439   3.129 -1.5696 -1.6068  1.7631
  113SAPE   H5Y11827   2.807   6.417   3.078 -0.6877  0.2703 -0.6332
  113SAPE   C3611828   2.780   6.385   3.276  0.0468  0.6748  0.1462
  113SAPE   H6X11829   2.805   6.491   3.296 -2.8344  1.4171  0.2996
  113SAPE   H6Y11830   2.870   6.322   3.258 -1.0022 -0.5573 -0.9746
  113SAPE   C3711831   2.702   6.321   3.391 -0.4808  0.2316 -0.1005
  113SAPE   H7X11832   2.674   6.214   3.382  0.3843  0.1345 -2.3706
  113SAPE   H7Y11833   2.606   6.378   3.397 -0.5920 -0.0301  0.6678
  113SAPE   C3811834   2.768   6.354   3.523  0.0130 -0.0258 -0.1156
  113SAPE   H8X11835   2.861   6.293   3.531  1.5229  2.3377  3.2537
  113SAPE   H8Y11836   2.792   6.462   3.536 -0.5698 -0.1090  2.0437
  113SAPE   C3911837   2.699   6.317   3.657 -0.4716  0.2550 -0.2609
  113SAPE   H9X11838   2.674   6.210   3.675  2.1151  0.0209  2.8157
  113SAPE   H9Y11839   2.612   6.386   3.646  1.1652  2.3204 -0.7756
  113SAPE  C31011840   2.787   6.362   3.774  0.2998 -0.3765 -0.0925
  113SAPE  H10X11841   2.814   6.466   3.747 -2.4391 -0.0406 -1.9721
  113SAPE  H10Y11842   2.880   6.302   3.778 -0.2375 -1.2091  0.3502
  113SAPE  C31111843   2.730   6.352   3.913  0.4568  0.2323 -0.1106
  113SAPE  H11X11844   2.704   6.248   3.943  0.7166  0.1608 -0.1242
  113SAPE  H11Y11845   2.641   6.417   3.921  1.0532  1.1984 -1.0749
  113SAPE  C31211846   2.834   6.405   4.014  0.3761 -0.2845  0.2503
  113SAPE  H12X11847   2.859   6.505   3.973 -0.2682  0.0330  0.6088
  113SAPE  H12Y11848   2.916   6.333   3.995 -0.6588 -1.0982 -1.2926
  113SAPE  C31311849   2.787   6.404   4.162  0.5696 -0.6383  0.1846
  113SAPE  H13X11850   2.756   6.300   4.183 -0.9386 -0.2184  0.2338
  113SAPE  H13Y11851   2.688   6.454   4.170  1.4746  1.3666 -0.4997
  113SAPE  C31411852   2.887   6.464   4.256 -0.6728 -0.0659 -0.1137
  113SAPE  H14X11853   2.847   6.495   4.355  1.6394 -1.0997  1.2472
  113SAPE  H14Y11854   2.920   6.555   4.202  0.7971 -0.6298 -0.2207
  113SAPE  C31511855   3.010   6.373   4.281  0.2408 -0.8144 -0.4418
  113SAPE  H15X11856   3.107   6.426   4.294 -0.6415  0.7951 -0.0984
  113SAPE  H15Y11857   3.019   6.304   4.195  0.0368  1.1735 -2.1392
  113SAPE  C31611858   2.991   6.294   4.415 -0.5671 -0.2349 -0.5092
  113SAPE  H16X11859   3.018   6.188   4.394  0.3504 -0.2173  0.5209
  113SAPE  H16Y11860   2.886   6.300   4.451  0.1201 -0.7652  1.7725
  113SAPE  C31711861   3.078   6.347   4.527 -0.0157 -0.4595  0.9339
  113SAPE  H17X11862   3.068   6.456   4.544 -1.0991 -0.9787  4.4985
  113SAPE  H17Y11863   3.185   6.321   4.512  0.8711  1.6176  2.9720
  113SAPE  C31811864   3.034   6.295   4.664 -0.1394 -0.1894  0.4521
  113SAPE  H18X11865   2.934   6.335   4.692 -0.6470 -0.8070 -0.4339
  113SAPE  H18Y11866   3.105   6.338   4.738  0.2809 -1.0618  0.5665
  113SAPE  H18Z11867   3.027   6.184   4.663 -2.1213 -0.1727  2.8199
  114SAPE     N11868   6.228   6.319   2.501 -0.7199 -0.2127 -0.0433
  114SAPE   HN111869   6.273   6.227   2.518  1.3638  0.6990 -0.4107
  114SAPE   HN211870   6.149   6.302   2.436 -0.9844  0.2390  0.1559
  114SAPE   HN311871   6.306   6.358   2.446 -2.1997 -1.0955 -2.9512
  114SAPE   C1211872   6.197   6.391   2.630  0.7757 -0.1714 -0.0044
  114SAPE  H12A11873   6.123   6.326   2.682  1.5119 -2.2381 -1.4194
  114SAPE  H12B11874   6.148   6.487   2.603 -1.9692 -1.7469 -1.0806
  114SAPE   C1111875   6.324   6.414   2.711  0.1597 -0.4392  0.7735
  114SAPE  H11A11876   6.351   6.316   2.756  0.6949 -0.7729 -0.2698
  114SAPE  H11B11877   6.310   6.475   2.803  0.6575 -1.9196  1.8741
  114SAPE     P11878   6.433   6.642   2.635  0.2585 -0.3021 -0.0620
  114SAPE   O1311879   6.544   6.680   2.726  0.3185  0.0152  0.0729
  114SAPE   O1411880   6.423   6.688   2.491 -0.4929 -0.3452 -0.6614
  114SAPE   O1211881   6.432   6.480   2.636  0.3798  0.2594 -0.7507
  114SAPE   O1111882   6.292   6.692   2.700 -0.7684  0.0901 -0.0214
  114SAPE    C111883   6.299   6.817   2.776 -0.3948  0.3653 -0.1872
  114SAPE    HA11884   6.393   6.870   2.754 -0.8764  1.0085 -0.7315
  114SAPE    HB11885   6.216   6.882   2.740 -0.9780 -0.6270 -0.6758
  114SAPE    C211886   6.280   6.795   2.931  0.2089 -0.3516  0.8545
  114SAPE    HS11887   6.380   6.759   2.964  1.0140  1.7152  0.8249
  114SAPE   O2111888   6.172   6.710   2.954  0.1171  0.3610  0.4460
  114SAPE   C2111889   6.185   6.619   3.048 -0.1460  0.1957  0.2099
  114SAPE   O2211890   6.288   6.594   3.108 -0.6642  0.1120 -0.1408
  114SAPE   C2211891   6.056   6.551   3.071 -0.0426 -0.0906 -0.0619
  114SAPE   H2R11892   5.972   6.622   3.066 -0.8861 -0.9075  1.7153
  114SAPE   H2S11893   6.042   6.484   2.983  0.0964  1.3806 -1.2450
  114SAPE    C311894   6.259   6.933   3.000 -0.1079  0.1022  0.6077
  114SAPE    HX11895   6.165   6.978   2.961  1.1395  2.4773  0.1820
  114SAPE    HY11896   6.346   6.996   2.973  0.3743 -1.1481 -0.9262
  114SAPE   O3111897   6.256   6.925   3.145  0.0427  0.5314  0.2071
  114SAPE   C3111898   6.152   6.964   3.218  0.5858 -0.1132 -0.0692
  114SAPE   O3211899   6.043   7.007   3.183 -0.2513  0.3099  0.2723
  114SAPE   C3211900   6.188   6.936   3.366  0.0950  0.0820  0.3772
  114SAPE   H2X11901   6.293   6.970   3.382  0.4121 -0.5048 -0.4075
  114SAPE   H2Y11902   6.185   6.826   3.376 -0.7523  0.0519 -0.0901
  114SAPE   C2311903   6.047   6.456   3.188  0.0143  1.0156 -0.5571
  114SAPE   H3R11904   6.134   6.386   3.185 -0.8689 -0.2131  0.8201
  114SAPE   H3S11905   5.958   6.391   3.171  0.6026  0.0567 -0.0683
  114SAPE   C2411906   6.026   6.521   3.325  0.1460 -0.1384 -0.3453
  114SAPE   H4R11907   5.935   6.585   3.320  1.0249  1.0349 -4.0319
  114SAPE   H4S11908   6.113   6.589   3.341 -0.8283  0.8528  0.9513
  114SAPE   C2511909   6.019   6.422   3.439  0.2072  0.1022 -0.1623
  114SAPE   H5R11910   6.016   6.313   3.420  2.1639 -0.5863  2.6951
  114SAPE   C2611911   6.009   6.453   3.570 -0.0303  0.2347 -0.4156
  114SAPE   H6R11912   5.999   6.362   3.632 -0.4299 -0.2635 -1.1846
  114SAPE   C2711913   6.038   6.586   3.644  0.4163  0.0260 -0.0560
  114SAPE   H7R11914   5.961   6.614   3.719  2.0232 -0.1566  1.7529
  114SAPE   H7S11915   6.042   6.661   3.562 -1.1948 -0.9526 -1.0911
  114SAPE   C2811916   6.171   6.573   3.718  0.9075  1.0644  0.4121
  114SAPE   H8R11917   6.250   6.535   3.651 -0.3698  0.1335 -0.6059
  114SAPE   C2911918   6.206   6.609   3.847 -0.1181 -1.0201 -0.6801
  114SAPE   H9R11919   6.306   6.594   3.888  0.0953 -0.5579 -1.0136
  114SAPE  C21011920   6.119   6.671   3.949 -0.2900 -0.1484 -0.2343
  114SAPE  H10R11921   6.067   6.754   3.899  1.3719  1.3536  0.4230
  114SAPE  H10S11922   6.184   6.716   4.027  1.9591 -0.5219 -1.7950
  114SAPE  C21111923   6.011   6.584   4.003 -0.6994  1.2970  0.1229
  114SAPE  H11R11924   5.912   6.610   3.963 -0.4122  2.5785  0.1888
  114SAPE  C21211925   6.028   6.503   4.112  0.4038 -0.1153  1.0090
  114SAPE  H12R11926   5.934   6.456   4.143 -0.6382  0.8944 -0.4806
  114SAPE  C21311927   6.144   6.462   4.189 -0.4990  0.2826  0.1076
  114SAPE  H13R11928   6.220   6.450   4.109 -0.9554 -2.6900  0.0344
  114SAPE  H13S11929   6.140   6.359   4.228 -1.4275 -0.2470 -1.3259
  114SAPE  C21411930   6.167   6.570   4.291 -0.4224  0.0106 -0.3721
  114SAPE  H14R11931   6.078   6.613   4.339  0.3550  2.1050 -0.6854
  114SAPE  C21511932   6.287   6.619   4.318  0.1399  0.1130  0.3819
  114SAPE  H15R11933   6.297   6.704   4.388 -2.9342  0.6927  0.2776
  114SAPE  C21611934   6.410   6.561   4.259 -0.4007  0.0717  0.2884
  114SAPE  H16R11935   6.489   6.639   4.253 -0.4772  0.1206 -0.1443
  114SAPE  H16S11936   6.407   6.516   4.157 -0.0719 -1.7777  1.0549
  114SAPE  C21711937   6.480   6.458   4.346 -0.3291  0.5459 -0.7327
  114SAPE  H17R11938   6.570   6.408   4.303  0.1951 -1.0633  1.9920
  114SAPE  H17S11939   6.403   6.381   4.370 -0.0858  0.3528 -0.5631
  114SAPE  C21811940   6.531   6.507   4.475 -0.5389 -0.0629 -0.0322
  114SAPE  H18R11941   6.555   6.430   4.551  1.0290  0.2586 -0.1636
  114SAPE  H18S11942   6.452   6.574   4.515  0.1979 -0.0490  1.4494
  114SAPE  C21911943   6.656   6.593   4.459 -0.6575 -0.9114  0.4711
  114SAPE  H19R11944   6.627   6.690   4.413 -0.8843 -0.6745  1.1185
  114SAPE  H19S11945   6.711   6.550   4.372  0.7841 -2.9044  2.2437
  114SAPE  C22011946   6.751   6.615   4.571 -0.1076 -0.0551 -0.2812
  114SAPE  H20R11947   6.754   6.532   4.645  1.7547  0.5944  0.4346
  114SAPE  H20S11948   6.740   6.714   4.620  2.4696  0.8445 -1.3769
  114SAPE  H20T11949   6.855   6.631   4.535 -0.3524  1.5337 -0.3759
  114SAPE   C3311950   6.098   7.011   3.464  0.2429 -0.5849  0.7818
  114SAPE   H3X11951   5.992   6.983   3.450  0.3077  0.3838 -2.3491
  114SAPE   H3Y11952   6.109   7.118   3.439 -0.6222 -1.0573 -1.8469
  114SAPE   C3411953   6.137   6.995   3.614 -0.1719  0.3733 -0.1128
  114SAPE   H4X11954   6.126   6.885   3.631 -1.6646  0.6080  0.5877
  114SAPE   H4Y11955   6.055   7.039   3.674 -2.2411 -3.0007 -0.2081
  114SAPE   C3511956   6.267   7.061   3.655 -0.1267  0.3142 -0.9248
  114SAPE   H5X11957   6.261   7.172   3.649 -1.4582  0.2473 -1.1539
  114SAPE   H5Y11958   6.334   7.039   3.569  0.8466  1.4979 -0.4916
  114SAPE   C3611959   6.332   7.016   3.785 -0.9487  0.5077  0.8477
  114SAPE   H6X11960   6.437   7.049   3.798 -0.9236  0.5445  0.5550
  114SAPE   H6Y11961   6.328   6.905   3.784 -1.3901  0.5197  0.9326
  114SAPE   C3711962   6.251   7.073   3.904  0.1584  0.1107 -0.2825
  114SAPE   H7X11963   6.147   7.035   3.895 -1.0890  3.4531 -1.1908
  114SAPE   H7Y11964   6.253   7.184   3.903 -2.3204  0.2111 -1.2064
  114SAPE   C3811965   6.305   7.034   4.046 -0.4428 -0.0672  0.3194
  114SAPE   H8X11966   6.345   6.930   4.049 -0.5586 -0.2056 -1.8378
  114SAPE   H8Y11967   6.225   7.029   4.123  0.8816  1.6602  1.9105
  114SAPE   C3911968   6.419   7.119   4.099 -0.3880  0.3973 -0.0671
  114SAPE   H9X11969   6.382   7.222   4.116  0.4056  0.9468 -1.4917
  114SAPE   H9Y11970   6.493   7.124   4.016  0.1685 -1.6803  0.2297
  114SAPE  C31011971   6.488   7.065   4.227 -0.0523  0.5899  0.3082
  114SAPE  H10X11972   6.536   6.969   4.198 -1.5697 -0.6970  1.8741
  114SAPE  H10Y11973   6.419   7.038   4.309 -0.9224 -1.3168 -0.9660
  114SAPE  C31111974   6.594   7.166   4.265 -0.0195  0.0491 -0.3725
  114SAPE  H11X11975   6.547   7.266   4.266  2.5650  1.3724  1.2898
  114SAPE  H11Y11976   6.675   7.157   4.189 -1.5737 -0.4104 -2.0287
  114SAPE  C31211977   6.657   7.133   4.400  0.1500  0.4165  0.0875
  114SAPE  H12X11978   6.693   7.028   4.389 -2.5475 -0.7707  1.4354
  114SAPE  H12Y11979   6.571   7.127   4.471  0.1265 -1.6078 -0.0475
  114SAPE  C31311980   6.764   7.232   4.456 -0.2986  0.4970  0.6786
  114SAPE  H13X11981   6.808   7.207   4.554  0.8430  1.1915  0.3731
  114SAPE  H13Y11982   6.707   7.325   4.479  1.2540  1.0959  2.3100
  114SAPE  C31411983   6.873   7.283   4.358  0.1654  0.3581 -0.0535
  114SAPE  H14X11984   6.835   7.310   4.257  3.3369  0.8502 -1.2436
  114SAPE  H14Y11985   6.962   7.219   4.341  0.2787  0.4559  0.1660
  114SAPE  C31511986   6.937   7.413   4.422 -0.3151  0.2267 -0.7788
  114SAPE  H15X11987   7.010   7.374   4.496 -0.6173  0.0695 -0.5622
  114SAPE  H15Y11988   6.864   7.469   4.485 -2.6996 -3.1910 -0.1892
  114SAPE  C31611989   7.012   7.487   4.313 -0.6968  0.5540  0.7204
  114SAPE  H16X11990   7.059   7.414   4.244 -3.1879 -1.1310  0.6875
  114SAPE  H16Y11991   7.085   7.560   4.354 -1.5577  2.1211 -0.3790
  114SAPE  C31711992   6.922   7.578   4.226 -0.8682  0.5369 -0.4592
  114SAPE  H17X11993   6.824   7.528   4.216 -0.6391  0.2925 -1.7096
  114SAPE  H17Y11994   6.962   7.578   4.122 -1.8426  0.1411 -0.8414
  114SAPE  C31811995   6.903   7.721   4.283  0.0836 -0.7171 -0.0997
  114SAPE  H18X11996   6.847   7.700   4.377  3.8308 -0.3385  2.4423
  114SAPE  H18Y11997   6.842   7.781   4.212  0.0847  0.5711  0.9637
  114SAPE  H18Z11998   6.997   7.768   4.319  1.8202 -0.8337 -3.9242
  115SAPE     N11999   3.051   2.925   2.332  0.1050  0.3829 -0.4413
  115SAPE   HN112000   3.010   2.991   2.263 -1.8064 -1.3071 -1.0150
  115SAPE   HN212001   2.970   2.909   2.395 -0.9981 -0.6742 -2.0255
  115SAPE   HN312002   3.137   2.966   2.374  0.7575 -1.1666 -0.2151
  115SAPE   C1212003   3.099   2.807   2.263 -0.0389 -0.2715 -1.0057
  115SAPE  H12A12004   3.017   2.772   2.196 -0.4596 -1.2359  0.0009
  115SAPE  H12B12005   3.111   2.726   2.337 -0.8128 -1.1635 -1.8201
  115SAPE   C1112006   3.232   2.834   2.186 -0.0154  0.3365  0.3947
  115SAPE  H11A12007   3.217   2.917   2.114 -0.1119 -0.3677 -0.4257
  115SAPE  H11B12008   3.261   2.742   2.129 -1.1187  0.4223 -0.3450
  115SAPE     P12009   3.476   2.834   2.290 -0.1285 -0.1194 -0.5731
  115SAPE   O1312010   3.542   2.818   2.157 -0.9234 -0.4776 -0.1152
  115SAPE   O1412011   3.535   2.920   2.392  0.2708  0.1136  0.1124
  115SAPE   O1212012   3.326   2.885   2.276 -0.0149  0.3494  0.9066
  115SAPE   O1112013   3.467   2.690   2.351 -0.5348  0.0282  0.6895
  115SAPE    C112014   3.385   2.668   2.463 -0.3317  0.1033 -1.0238
  115SAPE    HA12015   3.357   2.763   2.513 -1.4410 -0.1795 -1.0939
  115SAPE    HB12016   3.295   2.614   2.428  1.3859 -2.5650 -1.6908
  115SAPE    C212017   3.462   2.581   2.571 -0.7013 -0.5287  0.8425
  115SAPE    HS12018   3.386   2.566   2.651  0.6567 -0.4014  2.1975
  115SAPE   O2112019   3.580   2.645   2.616  0.0687 -0.2717  0.3441
  115SAPE   C2112020   3.590   2.637   2.747 -0.6095 -0.0353 -0.0176
  115SAPE   O2212021   3.518   2.582   2.824  0.1264 -0.3085  0.2254
  115SAPE   C2212022   3.717   2.716   2.786 -0.8584 -0.7223 -0.2176
  115SAPE   H2R12023   3.810   2.654   2.788 -0.5352 -0.3303 -1.8160
  115SAPE   H2S12024   3.742   2.790   2.706  0.1728 -2.0422 -1.1658
  115SAPE    C312025   3.504   2.439   2.511  0.1207  0.6672  0.1452
  115SAPE    HX12026   3.576   2.462   2.430 -1.3875 -0.8586 -1.7219
  115SAPE    HY12027   3.414   2.391   2.468  2.2372 -1.6096 -2.0228
  115SAPE   O3112028   3.570   2.362   2.613  0.0091  0.1501 -0.2945
  115SAPE   C3112029   3.525   2.247   2.651  0.2804  0.1474  0.8527
  115SAPE   O3212030   3.427   2.189   2.605 -0.1430  0.0249 -0.5059
  115SAPE   C3212031   3.619   2.204   2.765  0.4254 -0.4537 -0.2288
  115SAPE   H2X12032   3.677   2.289   2.805  2.5555 -2.1698  0.5430
  115SAPE   H2Y12033   3.693   2.130   2.727  2.1576  1.0329  0.1318
  115SAPE   C2312034   3.691   2.797   2.924  0.2313  0.5296 -0.9648
  115SAPE   H3R12035   3.589   2.841   2.934  0.6126  1.5495 -1.4122
  115SAPE   H3S12036   3.763   2.882   2.919  2.0450 -0.7063  1.7786
  115SAPE   C2412037   3.740   2.722   3.056  0.6058 -0.4633 -0.0373
  115SAPE   H4R12038   3.767   2.806   3.124 -1.9098  1.1121 -0.8541
  115SAPE   H4S12039   3.833   2.664   3.043  1.8397  1.9091 -2.8664
  115SAPE   C2512040   3.633   2.640   3.130 -0.9946  0.1742 -0.0936
  115SAPE   H5R12041   3.577   2.566   3.072  0.6274 -1.5520  0.4523
  115SAPE   C2612042   3.624   2.643   3.262  0.1069 -0.8694 -0.0793
  115SAPE   H6R12043   3.537   2.592   3.306  0.9552 -1.3626  1.0664
  115SAPE   C2712044   3.702   2.732   3.353 -0.1094  0.6315 -0.1432
  115SAPE   H7R12045   3.644   2.825   3.365 -1.5120 -0.1963 -0.2387
  115SAPE   H7S12046   3.806   2.744   3.316 -0.4107  0.9373 -0.9270
  115SAPE   C2812047   3.719   2.662   3.486 -0.1765  1.2359 -0.0766
  115SAPE   H8R12048   3.768   2.564   3.484  1.2044  1.8956  0.4823
  115SAPE   C2912049   3.706   2.724   3.603  0.3274  0.0200  0.6938
  115SAPE   H9R12050   3.725   2.661   3.691 -0.8009  0.0262  0.9536
  115SAPE  C21012051   3.658   2.861   3.643  0.1051 -0.0984  0.1527
  115SAPE  H10R12052   3.631   2.929   3.559  2.4137  1.3127  0.4481
  115SAPE  H10S12053   3.743   2.896   3.706  0.7931 -0.9896 -0.2601
  115SAPE  C21112054   3.534   2.848   3.727  0.2695 -0.1336  0.6067
  115SAPE  H11R12055   3.445   2.812   3.673 -1.2819  2.2841  1.3855
  115SAPE  C21212056   3.525   2.864   3.863  0.0754 -0.5294  0.2797
  115SAPE  H12R12057   3.429   2.833   3.907 -2.0797  1.1297 -2.8744
  115SAPE  C21312058   3.623   2.892   3.970  0.5157  0.2255 -0.4773
  115SAPE  H13R12059   3.727   2.865   3.941  0.9244  1.2308 -0.0123
  115SAPE  H13S12060   3.585   2.820   4.046 -3.1395  2.5813  0.2001
  115SAPE  C21412061   3.614   3.030   4.032 -0.1318  0.6365  0.3487
  115SAPE  H14R12062   3.553   3.102   3.974  0.1125 -1.0060 -2.0710
  115SAPE  C21512063   3.654   3.066   4.155  0.0337  0.9706  0.0682
  115SAPE  H15R12064   3.643   3.171   4.185 -1.9486  0.8884 -0.2377
  115SAPE  C21612065   3.731   2.975   4.253  0.9162  0.0799 -0.6194
  115SAPE  H16R12066   3.814   3.027   4.306  0.9177  0.8863 -1.3983
  115SAPE  H16S12067   3.786   2.890   4.206  1.5110  0.0701  0.0853
  115SAPE  C21712068   3.627   2.926   4.354  0.3216 -0.2126 -0.3787
  115SAPE  H17R12069   3.530   2.904   4.306 -0.6068 -0.3613  1.4765
  115SAPE  H17S12070   3.616   3.012   4.424  1.4302 -1.4864  1.4833
  115SAPE  C21812071   3.682   2.804   4.425 -0.1663 -0.2813 -0.1766
  115SAPE  H18R12072   3.787   2.814   4.459  0.2694 -2.0151 -0.9374
  115SAPE  H18S12073   3.689   2.727   4.346  2.0906 -1.4088  1.0443
  115SAPE  C21912074   3.595   2.734   4.527  0.0276 -0.1547  0.4526
  115SAPE  H19R12075   3.485   2.730   4.509  0.2941 -3.0541 -1.1850
  115SAPE  H19S12076   3.617   2.781   4.625  1.1819 -1.3747  0.8049
  115SAPE  C22012077   3.636   2.584   4.532  0.5635 -0.0568  0.6496
  115SAPE  H20R12078   3.600   2.533   4.440  4.1073 -0.7073 -0.5293
  115SAPE  H20S12079   3.577   2.535   4.612 -1.4952 -2.4561 -2.1425
  115SAPE  H20T12080   3.744   2.560   4.539  0.6041 -0.1620 -0.2199
  115SAPE   C3312081   3.527   2.146   2.874  0.2886  0.4585  0.9089
  115SAPE   H3X12082   3.591   2.100   2.952 -1.2168 -0.6692  1.5233
  115SAPE   H3Y12083   3.462   2.064   2.838 -0.7313  1.3544  0.6508
  115SAPE   C3412084   3.439   2.237   2.950 -0.3961  0.0970  0.4462
  115SAPE   H4X12085   3.364   2.282   2.882 -1.1381 -0.7685  0.6718
  115SAPE   H4Y12086   3.508   2.317   2.986  0.4389 -0.0216 -0.8442
  115SAPE   C3512087   3.355   2.169   3.057 -0.5610 -0.1259  0.2343
  115SAPE   H5X12088   3.409   2.098   3.124 -0.1768  0.4666  0.5657
  115SAPE   H5Y12089   3.285   2.096   3.013  0.5289 -0.4923 -0.9432
  115SAPE   C3612090   3.277   2.264   3.144 -0.4033 -0.1117 -1.0369
  115SAPE   H6X12091   3.177   2.229   3.178  0.5747 -1.6427  0.4013
  115SAPE   H6Y12092   3.268   2.361   3.090  0.7413 -1.6851 -4.3942
  115SAPE   C3712093   3.360   2.295   3.276 -0.1787 -0.3741 -0.1621
  115SAPE   H7X12094   3.318   2.391   3.312 -0.2501 -0.0973 -0.9571
  115SAPE   H7Y12095   3.466   2.313   3.248 -0.7165  1.9622 -0.9944
  115SAPE   C3812096   3.333   2.200   3.389 -0.4775 -0.0324  0.8361
  115SAPE   H8X12097   3.351   2.095   3.359  0.9687  0.5876 -0.7243
  115SAPE   H8Y12098   3.229   2.209   3.426 -0.6733  0.2670  0.2387
  115SAPE   C3912099   3.423   2.235   3.509 -0.5331  0.0128  0.1489
  115SAPE   H9X12100   3.518   2.279   3.472 -0.7041 -0.2536 -0.6215
  115SAPE   H9Y12101   3.441   2.139   3.562  1.6480  0.1979 -0.1788
  115SAPE  C31012102   3.371   2.332   3.613 -0.0062 -0.2510  0.3333
  115SAPE  H10X12103   3.265   2.301   3.629  0.7732 -2.1908  2.0724
  115SAPE  H10Y12104   3.370   2.434   3.567  0.7371 -0.6423 -0.5946
  115SAPE  C31112105   3.450   2.333   3.743 -0.0872  0.2968  0.2588
  115SAPE  H11X12106   3.545   2.388   3.725 -0.6941  1.3936  0.3394
  115SAPE  H11Y12107   3.462   2.228   3.777 -5.9521 -1.2742 -1.2876
  115SAPE  C31212108   3.397   2.408   3.863  0.7463 -0.4613 -0.0135
  115SAPE  H12X12109   3.314   2.344   3.899 -0.5767  1.0292 -0.2832
  115SAPE  H12Y12110   3.349   2.501   3.824  1.7393 -0.1386 -0.5109
  115SAPE  C31312111   3.496   2.425   3.974 -0.6541 -0.0476  0.1690
  115SAPE  H13X12112   3.563   2.507   3.939  1.7076 -2.2697 -0.8965
  115SAPE  H13Y12113   3.566   2.340   3.989  0.1064  0.6122  0.4418
  115SAPE  C31412114   3.435   2.454   4.108  0.1996 -0.6176 -0.1592
  115SAPE  H14X12115   3.341   2.506   4.081 -0.2092 -1.5671 -0.6081
  115SAPE  H14Y12116   3.496   2.515   4.178  0.1061  0.5545 -1.0705
  115SAPE  C31512117   3.393   2.325   4.192  0.2688  0.5173  0.4216
  115SAPE  H15X12118   3.335   2.256   4.127 -0.0622  1.2176 -0.0384
  115SAPE  H15Y12119   3.334   2.357   4.281 -1.6294  2.6652 -1.4890
  115SAPE  C31612120   3.519   2.261   4.253  0.5287  0.6918 -0.0898
  115SAPE  H16X12121   3.588   2.345   4.272  0.9328  0.6730 -1.3984
  115SAPE  H16Y12122   3.574   2.196   4.181  2.3671 -0.2211  2.0236
  115SAPE  C31712123   3.491   2.178   4.383 -0.7543  0.3905  0.0681
  115SAPE  H17X12124   3.411   2.101   4.383 -1.2294  0.8241  2.6312
  115SAPE  H17Y12125   3.469   2.254   4.460 -2.4668 -0.2267  0.2352
  115SAPE  C31812126   3.621   2.105   4.432 -1.1554 -0.0698  0.0306
  115SAPE  H18X12127   3.601   2.044   4.523 -0.6688 -2.7180 -1.5495
  115SAPE  H18Y12128   3.694   2.188   4.446 -0.1682 -0.6262 -1.5647
  115SAPE  H18Z12129   3.665   2.044   4.351  0.9905  1.5133 -0.0728
  116SAPE     N12130   4.475   3.609   2.250 -0.6762  0.0174 -0.1058
  116SAPE   HN112131   4.405   3.633   2.322  1.4993  0.9192  1.8358
  116SAPE   HN212132   4.528   3.521   2.264 -0.1892 -0.3227 -3.2431
  116SAPE   HN312133   4.535   3.694   2.256 -1.8249  0.8857 -0.6121
  116SAPE   C1212134   4.419   3.597   2.106  0.2359 -0.4926 -0.1602
  116SAPE  H12A12135   4.498   3.544   2.051  2.4421 -0.1760  2.4910
  116SAPE  H12B12136   4.403   3.702   2.073 -0.8214 -0.1305  1.3596
  116SAPE   C1112137   4.277   3.525   2.103 -0.2844 -1.2560 -0.0212
  116SAPE  H11A12138   4.297   3.416   2.108  3.1515 -0.7452 -0.1986
  116SAPE  H11B12139   4.240   3.557   2.004  0.7330  0.5674  0.1498
  116SAPE     P12140   4.059   3.494   2.252  0.2474 -0.3713  0.1587
  116SAPE   O1312141   3.956   3.591   2.302 -0.3005  0.5436 -0.1106
  116SAPE   O1412142   4.019   3.392   2.152  0.0966 -0.2564  0.1014
  116SAPE   O1212143   4.184   3.575   2.197  0.5671  0.3118 -0.5857
  116SAPE   O1112144   4.138   3.423   2.369  0.1185 -0.2645  0.2354
  116SAPE    C112145   4.092   3.316   2.447 -0.0720 -0.7297  0.3144
  116SAPE    HA12146   4.014   3.253   2.401 -1.1072  1.3081 -0.8770
  116SAPE    HB12147   4.174   3.242   2.455  0.1727 -0.4463  0.4711
  116SAPE    C212148   4.042   3.360   2.590 -0.3538 -0.9371 -0.2538
  116SAPE    HS12149   3.964   3.436   2.569  2.6067  1.9492 -1.7404
  116SAPE   O2112150   4.145   3.426   2.670  0.2252 -0.9919  0.1097
  116SAPE   C2112151   4.109   3.491   2.773  0.2664 -0.6729  0.2346
  116SAPE   O2212152   3.997   3.497   2.824 -0.2613 -0.5480  0.3154
  116SAPE   C2212153   4.230   3.564   2.833  0.0525 -0.0319  0.8239
  116SAPE   H2R12154   4.313   3.491   2.846 -1.3575 -2.6388 -3.1595
  116SAPE   H2S12155   4.253   3.642   2.758  0.7898  0.0837  1.1598
  116SAPE    C312156   3.993   3.236   2.668 -0.6262 -0.2492  0.3278
  116SAPE    HX12157   3.906   3.189   2.618  0.6172 -1.8301 -0.4655
  116SAPE    HY12158   3.966   3.275   2.768 -1.3004  1.2590 -0.4081
  116SAPE   O3112159   4.100   3.129   2.685 -0.0058 -0.8753 -0.0132
  116SAPE   C3112160   4.050   3.031   2.761 -0.6137  0.9470 -0.0117
  116SAPE   O3212161   3.941   3.039   2.810  0.3349 -0.3120  0.4294
  116SAPE   C3212162   4.160   2.931   2.788  0.1406 -0.0535 -0.5382
  116SAPE   H2X12163   4.244   2.979   2.842 -1.9383  1.8388  1.1951
  116SAPE   H2Y12164   4.187   2.873   2.697 -1.2028 -1.6570  0.0238
  116SAPE   C2312165   4.191   3.648   2.955 -0.1587  0.0623 -0.3818
  116SAPE   H3R12166   4.147   3.571   3.022 -1.4510  0.7599 -0.3854
  116SAPE   H3S12167   4.107   3.717   2.931 -0.3958  0.6492  1.8734
  116SAPE   C2412168   4.313   3.712   3.020 -1.1127  0.1663 -0.1875
  116SAPE   H4R12169   4.275   3.789   3.090  0.8108 -0.8516  2.1031
  116SAPE   H4S12170   4.366   3.764   2.937 -1.2935  0.7392  0.0493
  116SAPE   C2512171   4.398   3.599   3.084 -0.0111 -0.4161  0.4108
  116SAPE   H5R12172   4.471   3.562   3.010  2.0040  2.3339  0.8828
  116SAPE   C2612173   4.395   3.552   3.208  0.1906  0.0714 -0.3878
  116SAPE   H6R12174   4.461   3.470   3.237 -2.0887 -1.6230  0.3232
  116SAPE   C2712175   4.296   3.607   3.316 -0.3405  0.2550 -0.0665
  116SAPE   H7R12176   4.207   3.541   3.303 -0.1371 -0.6856  2.6836
  116SAPE   H7S12177   4.277   3.713   3.290 -1.2260 -0.1558 -1.1931
  116SAPE   C2812178   4.329   3.583   3.459  0.0213  0.5035  0.4654
  116SAPE   H8R12179   4.369   3.486   3.491  0.1649  1.1265  2.2968
  116SAPE   C2912180   4.332   3.675   3.557  0.7697  0.5431  0.2416
  116SAPE   H9R12181   4.342   3.637   3.660  1.5436  0.4751  0.1431
  116SAPE  C21012182   4.299   3.823   3.561 -0.0543  0.3767 -0.0581
  116SAPE  H10R12183   4.261   3.862   3.658  1.2035 -1.8410  1.4148
  116SAPE  H10S12184   4.213   3.842   3.492  0.1692 -1.7236 -0.9654
  116SAPE  C21112185   4.416   3.910   3.509 -0.6411  0.9352 -0.2710
  116SAPE  H11R12186   4.426   3.911   3.400  1.5917  1.1901 -0.1107
  116SAPE  C21212187   4.498   3.976   3.591 -0.1712 -0.5242 -0.1535
  116SAPE  H12R12188   4.568   4.047   3.544 -0.0267 -0.3193  0.3634
  116SAPE  C21312189   4.493   3.984   3.742  0.1236 -0.1443 -1.0146
  116SAPE  H13R12190   4.450   3.894   3.791  0.5590 -1.0235 -2.2115
  116SAPE  H13S12191   4.411   4.057   3.764  0.5546  0.8978 -2.7039
  116SAPE  C21412192   4.620   4.033   3.807  0.3945 -0.0938  0.8386
  116SAPE  H14R12193   4.717   3.988   3.781 -0.3438 -0.2573 -1.9376
  116SAPE  C21512194   4.628   4.134   3.905  0.1844  0.3595  0.1946
  116SAPE  H15R12195   4.728   4.165   3.940  1.1581 -0.1507 -1.9411
  116SAPE  C21612196   4.522   4.208   3.970  0.0670 -0.1161  0.1635
  116SAPE  H16R12197   4.417   4.188   3.938  0.0158  0.3255  0.0594
  116SAPE  H16S12198   4.534   4.317   3.959  0.1443 -0.2432 -1.0733
  116SAPE  C21712199   4.515   4.163   4.116  0.5507 -0.2101  0.6209
  116SAPE  H17R12200   4.617   4.179   4.158  0.6300  1.3874 -0.1140
  116SAPE  H17S12201   4.485   4.057   4.133 -1.2748  0.1120 -0.2875
  116SAPE  C21812202   4.421   4.259   4.201  0.1364  0.3017  0.1305
  116SAPE  H18R12203   4.317   4.220   4.193  0.2450  0.2620 -1.4296
  116SAPE  H18S12204   4.436   4.362   4.163  0.1371  1.2969  2.6653
  116SAPE  C21912205   4.462   4.269   4.354 -0.1821  0.2627 -0.0873
  116SAPE  H19R12206   4.377   4.313   4.409 -0.7216 -1.4187  0.5049
  116SAPE  H19S12207   4.556   4.328   4.361  0.2468 -0.4434  0.2666
  116SAPE  C22012208   4.505   4.135   4.433  0.2375  0.0845 -0.1681
  116SAPE  H20R12209   4.422   4.063   4.414 -1.8999  2.7176 -1.5732
  116SAPE  H20S12210   4.507   4.163   4.540 -1.0146 -1.0209  0.1802
  116SAPE  H20T12211   4.607   4.102   4.406  1.6083  2.6010  1.5860
  116SAPE   C3312212   4.096   2.827   2.888 -0.4426  0.3451 -0.4469
  116SAPE   H3X12213   4.172   2.747   2.890  0.4094  1.1428  1.6347
  116SAPE   H3Y12214   4.003   2.772   2.861 -0.2076 -1.5410  2.2122
  116SAPE   C3412215   4.091   2.871   3.030  0.4667 -0.6443  0.0721
  116SAPE   H4X12216   3.990   2.914   3.044  0.6040  0.8356 -2.8047
  116SAPE   H4Y12217   4.176   2.941   3.035 -1.5760  1.8882  1.7089
  116SAPE   C3512218   4.117   2.779   3.144  0.7099  0.6032  0.3446
  116SAPE   H5X12219   4.217   2.734   3.131 -0.4196 -1.6262 -1.3227
  116SAPE   H5Y12220   4.053   2.687   3.140  0.8802  0.4503  0.9675
  116SAPE   C3612221   4.106   2.836   3.281  0.2034 -0.2557 -0.0045
  116SAPE   H6X12222   4.000   2.869   3.287 -0.6619 -2.8949  0.7402
  116SAPE   H6Y12223   4.174   2.922   3.297 -0.8707  0.5150  0.5852
  116SAPE   C3712224   4.118   2.737   3.389 -0.6366  0.2204  0.2461
  116SAPE   H7X12225   4.206   2.670   3.370  0.3130  1.6426 -0.5079
  116SAPE   H7Y12226   4.036   2.662   3.390 -0.5983  0.1324 -1.1961
  116SAPE   C3812227   4.144   2.800   3.526  0.5571  0.1574 -0.1675
  116SAPE   H8X12228   4.070   2.881   3.540  2.5872  2.2616 -0.8828
  116SAPE   H8Y12229   4.236   2.862   3.519  1.5298 -1.2032  0.0291
  116SAPE   C3912230   4.148   2.700   3.645  0.5564 -0.4143 -0.3967
  116SAPE   H9X12231   4.118   2.603   3.600 -0.5519  0.0570 -0.6955
  116SAPE   H9Y12232   4.070   2.737   3.715 -0.6214 -1.1663 -1.2653
  116SAPE  C31012233   4.287   2.685   3.713 -0.0329 -0.1832 -0.0950
  116SAPE  H10X12234   4.316   2.784   3.756  1.6034 -0.6695 -0.0248
  116SAPE  H10Y12235   4.365   2.676   3.635 -0.5739  1.8732 -0.9508
  116SAPE  C31112236   4.283   2.577   3.829 -0.2966 -0.2859  0.0186
  116SAPE  H11X12237   4.258   2.476   3.790 -1.2568 -0.7373  1.7033
  116SAPE  H11Y12238   4.197   2.598   3.897  0.1012  1.7361 -0.0398
  116SAPE  C31212239   4.401   2.578   3.920  0.4861 -0.2654 -0.2187
  116SAPE  H12X12240   4.394   2.676   3.972 -0.5115 -0.9612  1.0009
  116SAPE  H12Y12241   4.492   2.574   3.856  0.2964 -1.3098 -0.4341
  116SAPE  C31312242   4.410   2.454   4.011  0.2338  0.0930  0.2847
  116SAPE  H13X12243   4.376   2.358   3.965  1.7922 -1.6928  2.6161
  116SAPE  H13Y12244   4.329   2.460   4.087  0.4226 -0.3168  0.5208
  116SAPE  C31412245   4.549   2.425   4.061  0.4159 -0.2431  0.1750
  116SAPE  H14X12246   4.529   2.358   4.147 -1.0011 -1.6905 -1.2090
  116SAPE  H14Y12247   4.585   2.523   4.098  0.5357  0.7910 -2.4856
  116SAPE  C31512248   4.641   2.364   3.958  0.0023 -0.0707  0.1421
  116SAPE  H15X12249   4.672   2.434   3.878  2.1834 -0.1850  0.8296
  116SAPE  H15Y12250   4.596   2.274   3.912 -0.1327  0.1150 -0.0892
  116SAPE  C31612251   4.767   2.302   4.029 -0.4879 -0.4774  0.9204
  116SAPE  H16X12252   4.728   2.223   4.097  0.7360 -0.3626  1.7917
  116SAPE  H16Y12253   4.815   2.382   4.090  2.6868 -2.1126  0.7855
  116SAPE  C31712254   4.862   2.236   3.930 -0.6579  0.0362 -0.3373
  116SAPE  H17X12255   4.896   2.304   3.849 -3.0598  2.6740  0.7019
  116SAPE  H17Y12256   4.802   2.160   3.876 -0.6389  1.0245 -1.8170
  116SAPE  C31812257   4.974   2.168   4.007 -0.4805  0.0379  0.0789
  116SAPE  H18X12258   4.930   2.118   4.096 -0.6996 -4.6489 -2.3357
  116SAPE  H18Y12259   5.048   2.246   4.035  0.6252 -0.6072 -0.9518
  116SAPE  H18Z12260   5.025   2.090   3.945 -0.9638  1.5950 -2.4096
  117SOPE     N12261   2.876   4.473   6.551 -0.0486  0.5889  0.1375
  117SOPE   HN112262   2.964   4.424   6.526 -0.1828 -0.1854  1.1072
  117SOPE   HN212263   2.800   4.404   6.568  0.5997  0.2767  1.9819
  117SOPE   HN312264   2.846   4.523   6.465  0.7174 -0.9887 -1.0869
  117SOPE   C1212265   2.912   4.552   6.667 -0.4612  0.4103  0.1651
  117SOPE  H12A12266   2.938   4.485   6.752 -0.6743  1.4067  1.0392
  117SOPE  H12B12267   2.836   4.628   6.694 -2.7256 -1.3160 -1.0447
  117SOPE   C1112268   3.050   4.621   6.643  0.0586 -0.1370  0.3687
  117SOPE  H11A12269   3.081   4.664   6.741 -1.5423  1.3059  0.2922
  117SOPE  H11B12270   3.046   4.705   6.570  1.0894  0.4408  0.9504
  117SOPE     P12271   3.298   4.571   6.576 -0.0389  0.1294 -0.2311
  117SOPE   O1312272   3.368   4.494   6.474 -0.3651 -0.2328 -0.0699
  117SOPE   O1412273   3.357   4.566   6.709  0.3539 -0.1860 -0.0157
  117SOPE   O1212274   3.146   4.517   6.590 -0.7753 -0.1384 -0.6184
  117SOPE   O1112275   3.281   4.722   6.540 -0.5416  0.7266 -0.2132
  117SOPE    C112276   3.246   4.761   6.409  0.3056 -0.5924  0.9407
  117SOPE    HA12277   3.160   4.831   6.415  1.2695  0.5313  2.4007
  117SOPE    HB12278   3.224   4.676   6.340  1.7682 -0.4794  0.2973
  117SOPE    C212279   3.350   4.843   6.331  0.0128 -0.2720  0.2826
  117SOPE    HS12280   3.303   4.865   6.233  2.7402  0.0509 -1.0542
  117SOPE   O2112281   3.475   4.772   6.288  0.0889 -0.4311 -0.6747
  117SOPE   C2112282   3.462   4.667   6.211  0.0005  0.0544 -0.1500
  117SOPE   O2212283   3.360   4.639   6.155  0.4125  0.4013 -0.0818
  117SOPE   C2212284   3.603   4.605   6.194 -0.4495 -0.0629 -0.2952
  117SOPE   H2R12285   3.634   4.593   6.300 -0.0505 -1.3765 -0.5480
  117SOPE   H2S12286   3.674   4.674   6.144 -0.6803  0.2002 -0.2622
  117SOPE    C312287   3.375   4.978   6.411  0.8277  0.3712 -0.2913
  117SOPE    HX12288   3.445   4.938   6.487 -0.2594  0.2763  0.6843
  117SOPE    HY12289   3.283   5.019   6.456  2.7787  2.0710  2.4190
  117SOPE   O3112290   3.444   5.072   6.327 -0.0297 -0.4022  0.2562
  117SOPE   C3112291   3.377   5.123   6.224 -0.4547 -0.2462  0.0916
  117SOPE   O3212292   3.257   5.104   6.198 -0.4673  0.9622 -0.0785
  117SOPE   C3212293   3.476   5.213   6.153  0.1946 -0.1788  0.2522
  117SOPE   H2X12294   3.521   5.280   6.229  0.0533  1.8966 -1.3933
  117SOPE   H2Y12295   3.413   5.277   6.087  0.7234  0.2205  0.1294
  117SOPE   C2312296   3.595   4.475   6.116  0.0282  0.3146  0.6083
  117SOPE   H3R12297   3.501   4.417   6.122  0.1901 -0.0636 -0.2939
  117SOPE   H3S12298   3.681   4.414   6.154 -0.7031 -0.4686  1.0343
  117SOPE   C2412299   3.630   4.498   5.967  0.6119  0.5364 -0.0618
  117SOPE   H4R12300   3.720   4.561   5.951 -0.1028  1.9051  1.0578
  117SOPE   H4S12301   3.651   4.393   5.937  0.7486  0.9594 -1.5347
  117SOPE   C2512302   3.513   4.541   5.880  1.1126  0.2776 -0.4069
  117SOPE   H5R12303   3.420   4.484   5.898  0.9697 -0.4239 -2.9998
  117SOPE   H5S12304   3.489   4.647   5.904  1.3955  0.1572  0.4398
  117SOPE   C2612305   3.545   4.553   5.726  0.1934 -0.5497 -0.4819
  117SOPE   H6R12306   3.455   4.590   5.671  0.1450 -1.4717 -1.0400
  117SOPE   H6S12307   3.627   4.628   5.720 -0.0557 -0.1787  0.5845
  117SOPE   C2712308   3.567   4.423   5.648 -0.4099 -0.3257  0.3276
  117SOPE   H7R12309   3.667   4.384   5.677 -0.6488 -0.3474  1.1463
  117SOPE   H7S12310   3.497   4.343   5.682 -2.0905 -0.5671 -3.2507
  117SOPE   C2812311   3.553   4.436   5.493 -0.1279  0.1692  0.3791
  117SOPE   H8R12312   3.560   4.333   5.453  0.9177 -1.0493  3.4122
  117SOPE   H8S12313   3.444   4.453   5.474  0.2245 -0.3282 -2.5827
  117SOPE   C2912314   3.627   4.539   5.414  0.0741  0.1047 -0.2291
  117SOPE   H9112315   3.683   4.618   5.466  0.2942  0.8374 -1.5466
  117SOPE  C21012316   3.649   4.528   5.282  0.4848  0.5899  0.0668
  117SOPE  H10112317   3.688   4.612   5.222  0.7416 -0.1592 -0.8414
  117SOPE  C21112318   3.590   4.424   5.195 -0.0751  0.0353 -0.6247
  117SOPE  H11R12319   3.624   4.326   5.235  1.7187  1.0979  0.6011
  117SOPE  H11S12320   3.639   4.434   5.096 -0.9617  1.6315 -0.9435
  117SOPE  C21212321   3.439   4.414   5.171  0.0524 -0.0319  0.0762
  117SOPE  H12R12322   3.410   4.507   5.118  0.7520 -1.2864 -2.6863
  117SOPE  H12S12323   3.395   4.419   5.273  3.5421  1.1405  1.7074
  117SOPE  C21312324   3.412   4.296   5.075 -0.1468 -0.2417 -0.9468
  117SOPE  H13R12325   3.303   4.276   5.083 -0.0007 -0.3246  2.4372
  117SOPE  H13S12326   3.470   4.216   5.127 -0.6589 -0.6276 -0.9557
  117SOPE  C21412327   3.457   4.310   4.929  0.7644 -0.3197 -0.9870
  117SOPE  H14R12328   3.404   4.229   4.873 -1.1729  0.3705 -0.2394
  117SOPE  H14S12329   3.567   4.296   4.933  1.0021  1.4572 -0.2980
  117SOPE  C21512330   3.415   4.450   4.871 -0.0633  0.0450 -0.2498
  117SOPE  H15R12331   3.479   4.528   4.919 -1.2522 -0.6460  2.6811
  117SOPE  H15S12332   3.305   4.466   4.870 -0.3992 -1.0695 -5.2765
  117SOPE  C21612333   3.453   4.463   4.719 -1.3017 -0.3764 -1.3958
  117SOPE  H16R12334   3.559   4.494   4.710 -0.3603 -2.7143  0.6528
  117SOPE  H16S12335   3.397   4.552   4.682 -1.0773 -0.1319 -1.1564
  117SOPE  C21712336   3.406   4.349   4.630  0.7032  0.0322  0.4667
  117SOPE  H17R12337   3.297   4.340   4.648  0.6043  0.0292 -0.0956
  117SOPE  H17S12338   3.457   4.252   4.648  0.0857 -0.5877 -0.9348
  117SOPE  C21812339   3.432   4.391   4.482  0.1476  0.7913 -0.0588
  117SOPE  H18R12340   3.386   4.487   4.451 -0.1825  0.0337 -2.1376
  117SOPE  H18S12341   3.386   4.323   4.407 -2.4979  1.2335  1.0539
  117SOPE  H18T12342   3.541   4.395   4.460  0.0816  0.3945 -0.4749
  117SOPE   C3312343   3.584   5.139   6.076 -0.3494 -0.1678  0.1893
  117SOPE   H3X12344   3.632   5.067   6.146 -2.1017 -1.4165  0.1754
  117SOPE   H3Y12345   3.657   5.216   6.041 -0.6815 -0.9177 -2.3876
  117SOPE   C3412346   3.530   5.066   5.951 -0.0648 -0.5173 -0.1777
  117SOPE   H4X12347   3.492   5.143   5.880 -0.1819 -0.3484  0.0680
  117SOPE   H4Y12348   3.440   5.002   5.966 -0.1897 -0.5257 -0.9293
  117SOPE   C3512349   3.641   4.990   5.876 -0.8344 -0.5657 -0.0118
  117SOPE   H5X12350   3.690   4.902   5.921 -0.0710  0.1401  0.5760
  117SOPE   H5Y12351   3.732   5.051   5.858 -0.0696 -1.9396 -0.9558
  117SOPE   C3612352   3.591   4.971   5.738  1.2697  0.5111 -0.2707
  117SOPE   H6X12353   3.532   5.054   5.693 -0.1988 -0.8694 -1.0091
  117SOPE   H6Y12354   3.522   4.885   5.746 -1.2922  2.3170 -1.6538
  117SOPE   C3712355   3.689   4.918   5.629  0.2155 -0.3741 -0.1118
  117SOPE   H7X12356   3.639   4.829   5.586  1.8096 -0.9170 -0.9113
  117SOPE   H7Y12357   3.783   4.882   5.677  0.1688  0.8448  0.9765
  117SOPE   C3812358   3.710   5.029   5.525 -0.4248 -0.1100 -0.2463
  117SOPE   H8X12359   3.751   5.124   5.565 -2.4313  0.8198 -0.2806
  117SOPE   H8Y12360   3.614   5.049   5.474 -0.3031 -0.0764 -0.4637
  117SOPE   C3912361   3.812   4.985   5.411 -0.1934 -0.7835  0.1275
  117SOPE   H9X12362   3.776   4.890   5.365 -0.1831 -0.9825  0.5242
  117SOPE   H9Y12363   3.906   4.944   5.454  1.6257 -0.3262 -3.0997
  117SOPE  C31012364   3.845   5.096   5.303  0.4242  0.8276  0.2825
  117SOPE  H10X12365   3.898   5.178   5.357  2.3433 -0.1714  0.0130
  117SOPE  H10Y12366   3.748   5.130   5.259 -0.1665  1.5650  2.0529
  117SOPE  C31112367   3.928   5.058   5.183  0.0269  0.2048 -0.3520
  117SOPE  H11X12368   4.034   5.032   5.205  0.7983  1.5077 -2.3469
  117SOPE  H11Y12369   3.937   5.146   5.117  1.6432 -0.6395 -1.3185
  117SOPE  C31212370   3.876   4.930   5.108 -1.4132  0.1467 -0.0547
  117SOPE  H12X12371   3.767   4.911   5.125 -1.0434 -1.0354  1.1649
  117SOPE  H12Y12372   3.925   4.839   5.148 -1.6527 -1.0735 -2.3444
  117SOPE  C31312373   3.918   4.933   4.956  0.0640 -0.1834 -0.0428
  117SOPE  H13X12374   4.029   4.933   4.946  0.1562 -2.7062  0.4395
  117SOPE  H13Y12375   3.870   5.026   4.921 -3.5751 -0.7550  2.7941
  117SOPE  C31412376   3.846   4.825   4.886  0.9020  1.2576 -0.2011
  117SOPE  H14X12377   3.736   4.838   4.895  0.9435  1.5836 -0.1845
  117SOPE  H14Y12378   3.872   4.722   4.920 -2.4802 -0.5068 -2.3755
  117SOPE  C31512379   3.869   4.823   4.738  0.4497  0.2431 -0.3057
  117SOPE  H15X12380   3.845   4.926   4.704  1.5610  1.6604  2.8565
  117SOPE  H15Y12381   3.800   4.751   4.689  1.4980 -1.2275  0.3054
  117SOPE  C31612382   4.015   4.805   4.693  0.7083 -0.4892 -0.5921
  117SOPE  H16X12383   4.059   4.720   4.750  0.8432  1.2891  2.1140
  117SOPE  H16Y12384   4.075   4.897   4.709  3.2355 -1.8310 -1.7319
  117SOPE  C31712385   4.017   4.777   4.546  0.0078  0.3076  0.5158
  117SOPE  H17X12386   3.961   4.859   4.497 -0.4525  0.3255  1.0587
  117SOPE  H17Y12387   3.957   4.687   4.524 -0.5089 -0.0337  3.0189
  117SOPE  C31812388   4.156   4.774   4.489  0.0590  0.5004 -0.0115
  117SOPE  H18X12389   4.208   4.683   4.527 -1.0597 -0.0748  0.1809
  117SOPE  H18Y12390   4.208   4.865   4.526 -0.3102  0.7572 -0.1230
  117SOPE  H18Z12391   4.151   4.773   4.378 -2.4934  0.5823  0.0484
  118SOPE     N12392   3.383   5.918   6.947 -0.3631 -0.9874  0.0140
  118SOPE   HN112393   3.296   5.894   6.897 -0.1551  0.7310 -1.2235
  118SOPE   HN212394   3.458   5.962   6.891  0.9253 -0.5231  1.9931
  118SOPE   HN312395   3.421   5.832   6.993 -0.7586 -0.1587  2.0070
  118SOPE   C1212396   3.341   6.008   7.060 -0.6318 -0.1652 -0.8089
  118SOPE  H12A12397   3.438   6.044   7.100 -0.7333  0.6910 -1.2875
  118SOPE  H12B12398   3.290   5.954   7.142  0.8453 -0.3026  0.0452
  118SOPE   C1112399   3.267   6.125   7.009 -0.0603  0.5118 -0.7646
  118SOPE  H11A12400   3.224   6.183   7.093  1.2932 -1.6313  1.5618
  118SOPE  H11B12401   3.182   6.094   6.945 -0.4578 -0.1598  0.0770
  118SOPE     P12402   3.325   6.355   6.898 -0.2534 -0.0483  0.8316
  118SOPE   O1312403   3.458   6.418   6.882  0.2631  0.3177  0.5517
  118SOPE   O1412404   3.224   6.409   6.989  0.5433  0.2103 -0.6821
  118SOPE   O1212405   3.360   6.207   6.936 -0.0073 -0.0004  0.6169
  118SOPE   O1112406   3.256   6.351   6.747 -0.0424 -0.3155 -0.7613
  118SOPE    C112407   3.247   6.230   6.664 -0.0883  0.1456 -0.4396
  118SOPE    HA12408   3.141   6.230   6.629 -0.9376  3.2020  1.7274
  118SOPE    HB12409   3.255   6.135   6.720 -3.9561  0.7369  1.4836
  118SOPE    C212410   3.330   6.233   6.537 -0.2542 -0.7904 -0.3679
  118SOPE    HS12411   3.298   6.152   6.467 -1.9471  0.8122 -1.5679
  118SOPE   O2112412   3.477   6.225   6.563  0.5365 -0.1325 -0.7288
  118SOPE   C2112413   3.516   6.095   6.571  0.3578 -0.4072  0.7357
  118SOPE   O2212414   3.440   6.004   6.587 -0.1335 -0.1048 -0.2742
  118SOPE   C2212415   3.666   6.089   6.560  0.6115 -0.2265 -0.4845
  118SOPE   H2R12416   3.707   6.041   6.652  0.6227  0.7228  0.0084
  118SOPE   H2S12417   3.713   6.189   6.551  0.8233 -0.3523 -0.8019
  118SOPE    C312418   3.308   6.366   6.463  0.4699  0.3614 -0.0407
  118SOPE    HX12419   3.341   6.452   6.525  1.8282  0.5411 -0.9716
  118SOPE    HY12420   3.202   6.386   6.437  0.7094  1.7350 -0.0528
  118SOPE   O3112421   3.383   6.369   6.341  0.2976 -0.1812 -0.0397
  118SOPE   C3112422   3.439   6.482   6.302  0.2154 -0.2196  0.8242
  118SOPE   O3212423   3.439   6.592   6.359  0.0011  0.1759 -0.0307
  118SOPE   C3212424   3.515   6.461   6.172  0.1432 -0.2154  0.4072
  118SOPE   H2X12425   3.585   6.377   6.191 -1.5365 -1.7318  0.2188
  118SOPE   H2Y12426   3.561   6.559   6.145 -1.9200  0.4252 -1.0348
  118SOPE   C2312427   3.717   6.012   6.436  0.1059  0.4852 -0.9788
  118SOPE   H3R12428   3.651   5.926   6.413 -3.0807  2.9832 -2.1438
  118SOPE   H3S12429   3.815   5.973   6.470 -1.2592 -1.5411  0.9080
  118SOPE   C2412430   3.731   6.105   6.320  0.1419 -0.5278  0.4576
  118SOPE   H4R12431   3.651   6.181   6.326  0.4574 -0.2975  2.4881
  118SOPE   H4S12432   3.830   6.155   6.333 -0.4292  0.4265  1.1788
  118SOPE   C2512433   3.732   6.018   6.191 -0.2498 -0.0449  0.3050
  118SOPE   H5R12434   3.800   5.930   6.201 -2.1113 -1.6872 -0.7088
  118SOPE   H5S12435   3.632   5.971   6.183  0.2370 -0.9705 -0.8348
  118SOPE   C2612436   3.772   6.096   6.063  0.0537  0.3671  0.0777
  118SOPE   H6R12437   3.689   6.165   6.037  0.8272  1.9428  1.5766
  118SOPE   H6S12438   3.863   6.159   6.069 -0.3355  1.2566 -2.2474
  118SOPE   C2712439   3.787   5.998   5.948  0.4223  0.6557  0.3959
  118SOPE   H7R12440   3.890   5.957   5.947  0.1789 -0.2102 -3.6206
  118SOPE   H7S12441   3.718   5.911   5.957 -0.2797  1.3234  1.7789
  118SOPE   C2812442   3.756   6.066   5.812 -0.1400 -0.4061 -0.2461
  118SOPE   H8R12443   3.697   6.000   5.746 -0.8463 -0.4386  0.4068
  118SOPE   H8S12444   3.682   6.146   5.834 -0.1391 -0.6361  0.6359
  118SOPE   C2912445   3.869   6.140   5.739  0.0967  0.3002  0.3325
  118SOPE   H9112446   3.904   6.229   5.793 -0.8273  0.6520  0.3724
  118SOPE  C21012447   3.936   6.092   5.634 -0.4180 -0.1617  0.0502
  118SOPE  H10112448   4.023   6.150   5.601 -0.1714 -1.7029 -2.1990
  118SOPE  C21112449   3.901   5.964   5.553 -0.5329  0.3783 -0.4119
  118SOPE  H11R12450   3.804   5.927   5.591 -0.1463  0.0890  0.3121
  118SOPE  H11S12451   3.975   5.884   5.577 -0.7433  0.7941  1.8031
  118SOPE  C21212452   3.888   5.969   5.401  0.2123 -0.0597 -0.0495
  118SOPE  H12R12453   3.855   5.871   5.362  0.4562  0.3170 -1.2488
  118SOPE  H12S12454   3.992   5.983   5.365  0.7438  0.9536  1.7460
  118SOPE  C21312455   3.794   6.080   5.347 -0.0004  0.3845 -0.5504
  118SOPE  H13R12456   3.823   6.182   5.381 -0.4084  0.1496  0.5563
  118SOPE  H13S12457   3.688   6.060   5.374  0.3438 -1.3304 -0.3779
  118SOPE  C21412458   3.798   6.081   5.192 -0.2219 -0.3718 -0.1816
  118SOPE  H14R12459   3.726   6.155   5.151 -0.5997 -0.7693 -0.2452
  118SOPE  H14S12460   3.768   5.981   5.153 -0.0707  0.0810 -1.5047
  118SOPE  C21512461   3.933   6.125   5.132  0.1101 -0.0739  0.1754
  118SOPE  H15R12462   4.002   6.039   5.145 -0.5248 -0.3676  1.9432
  118SOPE  H15S12463   3.970   6.212   5.191  0.2826  0.4026 -0.6205
  118SOPE  C21612464   3.925   6.187   4.991  0.0595 -0.0539 -0.0376
  118SOPE  H16R12465   3.854   6.273   4.990  0.0920  0.0188  1.5905
  118SOPE  H16S12466   3.880   6.107   4.929 -2.3513 -0.8677  2.5455
  118SOPE  C21712467   4.049   6.246   4.925 -0.7312 -0.2823  0.8913
  118SOPE  H17R12468   4.139   6.186   4.949  1.1095  2.0408  0.1037
  118SOPE  H17S12469   4.064   6.351   4.957  1.5035 -0.1557 -0.3919
  118SOPE  C21812470   4.034   6.252   4.773  0.1770 -0.6119 -0.2667
  118SOPE  H18R12471   3.961   6.331   4.744  2.4236  1.7967  0.3109
  118SOPE  H18S12472   3.995   6.154   4.738  1.4084 -1.0083 -0.5544
  118SOPE  H18T12473   4.130   6.268   4.720  0.6089  0.9721  0.9230
  118SOPE   C3312474   3.421   6.421   6.051 -0.1606  0.2329 -0.1124
  118SOPE   H3X12475   3.334   6.490   6.050 -0.4770 -0.1653 -0.7886
  118SOPE   H3Y12476   3.393   6.314   6.065  0.5467 -0.1932 -1.7851
  118SOPE   C3412477   3.494   6.435   5.919 -0.0882  0.1072  0.4799
  118SOPE   H4X12478   3.596   6.395   5.941  0.2611  0.5856 -0.2406
  118SOPE   H4Y12479   3.505   6.544   5.898  0.1197 -0.3106 -1.8618
  118SOPE   C3512480   3.429   6.358   5.803  0.4570 -0.4270  0.0354
  118SOPE   H5X12481   3.329   6.405   5.794  1.1395  1.0057 -0.2224
  118SOPE   H5Y12482   3.416   6.251   5.829 -0.2502 -0.6815 -1.2632
  118SOPE   C3612483   3.511   6.383   5.677  0.3549  0.0483 -0.2472
  118SOPE   H6X12484   3.618   6.356   5.689  0.7848  1.5997 -0.4055
  118SOPE   H6Y12485   3.506   6.491   5.652 -3.4618 -0.0667 -0.5510
  118SOPE   C3712486   3.446   6.318   5.552  0.6310  0.1248 -0.5953
  118SOPE   H7X12487   3.339   6.348   5.555  0.8578  1.1375 -1.8538
  118SOPE   H7Y12488   3.456   6.207   5.551  1.0719  0.1678 -1.4019
  118SOPE   C3812489   3.509   6.365   5.417 -0.5455 -0.2212 -0.2451
  118SOPE   H8X12490   3.619   6.360   5.431 -0.6153  0.7012  0.8418
  118SOPE   H8Y12491   3.488   6.474   5.411  0.4193 -0.1124 -3.1342
  118SOPE   C3912492   3.469   6.289   5.294  0.1246 -0.6724 -0.1962
  118SOPE   H9X12493   3.359   6.279   5.289 -0.0377  1.0371 -0.5286
  118SOPE   H9Y12494   3.530   6.196   5.285  0.5141 -0.5114  0.6882
  118SOPE  C31012495   3.514   6.378   5.171 -0.3935  0.2304 -0.0533
  118SOPE  H10X12496   3.619   6.412   5.182  0.2521 -1.7700  0.3155
  118SOPE  H10Y12497   3.469   6.479   5.186  0.8669  0.5828  1.5954
  118SOPE  C31112498   3.479   6.320   5.036 -0.0494 -0.0103 -0.2286
  118SOPE  H11X12499   3.369   6.306   5.024 -0.2883  1.0644  0.6301
  118SOPE  H11Y12500   3.534   6.224   5.027 -1.9700 -1.1717 -0.2684
  118SOPE  C31212501   3.512   6.412   4.920 -0.5594 -0.6622  0.6011
  118SOPE  H12X12502   3.612   6.461   4.928  0.3429 -2.3272  0.0864
  118SOPE  H12Y12503   3.432   6.489   4.916  0.8719  0.8695  0.2130
  118SOPE  C31312504   3.517   6.356   4.773  0.0612 -0.5588  0.4185
  118SOPE  H13X12505   3.499   6.438   4.701 -0.3019 -1.9471 -1.1149
  118SOPE  H13Y12506   3.436   6.284   4.748 -0.6817  0.3329  0.1865
  118SOPE  C31412507   3.660   6.299   4.736  0.3191  0.2659 -0.8094
  118SOPE  H14X12508   3.713   6.260   4.826 -1.7685 -3.0247 -0.8594
  118SOPE  H14Y12509   3.710   6.385   4.686 -0.8466 -0.9021 -4.2922
  118SOPE  C31512510   3.669   6.171   4.647 -0.1316  0.4523 -0.3149
  118SOPE  H15X12511   3.770   6.155   4.605  0.9126 -0.3336  2.3067
  118SOPE  H15Y12512   3.600   6.184   4.561  1.0461  1.3718 -1.1550
  118SOPE  C31612513   3.625   6.049   4.726 -0.3612  0.5471 -0.1889
  118SOPE  H16X12514   3.529   6.066   4.780 -1.7207 -0.4734 -2.1361
  118SOPE  H16Y12515   3.699   6.027   4.806 -1.2306  2.1823  1.1219
  118SOPE  C31712516   3.608   5.924   4.636  0.4000 -0.0397  0.0451
  118SOPE  H17X12517   3.550   5.951   4.545  1.2320 -1.9986 -1.1372
  118SOPE  H17Y12518   3.555   5.842   4.690  1.5070  0.1187  1.4151
  118SOPE  C31812519   3.735   5.853   4.596 -0.5273  0.2333  0.6431
  118SOPE  H18X12520   3.787   5.818   4.687  2.7261  3.6970  0.3458
  118SOPE  H18Y12521   3.808   5.911   4.535 -0.4220  0.4190  0.9484
  118SOPE  H18Z12522   3.699   5.767   4.535 -0.4670  1.5778 -1.3788
  119SOPE     N12523   5.636   6.543   7.205  0.2763 -0.1226 -0.0841
  119SOPE   HN112524   5.586   6.503   7.287  1.0515  1.3659  1.1625
  119SOPE   HN212525   5.705   6.613   7.238 -0.3669  0.6589 -0.3665
  119SOPE   HN312526   5.554   6.600   7.175  0.9337  1.1173  0.3946
  119SOPE   C1212527   5.681   6.452   7.101  0.4716  0.0051  0.6817
  119SOPE  H12A12528   5.732   6.368   7.153  2.5873  2.2554  2.4320
  119SOPE  H12B12529   5.753   6.506   7.036  0.5805 -0.7354  0.1711
  119SOPE   C1112530   5.562   6.410   7.019 -0.5332  0.4010 -0.1679
  119SOPE  H11A12531   5.593   6.346   6.934  2.3930  1.4054  0.0333
  119SOPE  H11B12532   5.520   6.501   6.973  0.0395 -0.5481 -2.7418
  119SOPE     P12533   5.442   6.199   7.142 -0.3199  0.0223 -0.7512
  119SOPE   O1312534   5.297   6.177   7.168 -0.3317 -0.5166  0.0282
  119SOPE   O1412535   5.541   6.156   7.245  0.5673  0.0246 -0.1677
  119SOPE   O1212536   5.462   6.351   7.110 -0.4221  0.1689  0.3160
  119SOPE   O1112537   5.473   6.131   7.005  0.1989  0.7000 -0.0880
  119SOPE    C112538   5.375   6.164   6.900 -0.3781 -0.3612 -0.4586
  119SOPE    HA12539   5.436   6.176   6.808 -0.6101 -0.3574 -0.6132
  119SOPE    HB12540   5.318   6.257   6.921  0.1190  0.8891 -3.8705
  119SOPE    C212541   5.283   6.048   6.872 -0.1283  0.4239 -0.2547
  119SOPE    HS12542   5.215   6.040   6.959 -1.4214  0.3467 -1.2477
  119SOPE   O2112543   5.355   5.927   6.855  0.0444 -0.1522 -0.4673
  119SOPE   C2112544   5.278   5.818   6.852  0.5179  0.6000 -0.5593
  119SOPE   O2212545   5.156   5.814   6.868 -0.1386  0.3377  0.3890
  119SOPE   C2212546   5.362   5.693   6.825  0.3660 -0.0931  0.1040
  119SOPE   H2R12547   5.338   5.627   6.912  0.0253  0.6308  0.5694
  119SOPE   H2S12548   5.470   5.714   6.839  0.2803 -1.1549  3.2215
  119SOPE    C312549   5.187   6.071   6.750  0.6957  0.5347 -0.5490
  119SOPE    HX12550   5.140   6.167   6.780 -2.4679 -0.9671 -0.3363
  119SOPE    HY12551   5.098   6.004   6.747  1.2123 -0.2461  0.7648
  119SOPE   O3112552   5.256   6.070   6.625 -0.4269 -0.2092 -0.1463
  119SOPE   C3112553   5.180   6.101   6.523 -0.4949  0.0430 -0.1623
  119SOPE   O3212554   5.058   6.117   6.534  0.3990 -0.1377 -0.2411
  119SOPE   C3212555   5.266   6.080   6.395  0.2271 -0.7391  0.4657
  119SOPE   H2X12556   5.196   6.019   6.335  1.5342 -1.5688 -0.2599
  119SOPE   H2Y12557   5.358   6.024   6.422  1.7247  1.3871  0.0543
  119SOPE   C2312558   5.328   5.619   6.691  0.1692 -0.1017 -0.3999
  119SOPE   H3R12559   5.223   5.629   6.658  0.5590 -0.1883 -1.7122
  119SOPE   H3S12560   5.329   5.509   6.709  0.6436 -0.1565 -0.7463
  119SOPE   C2412561   5.418   5.663   6.572 -0.1124 -0.9788 -0.1042
  119SOPE   H4R12562   5.409   5.773   6.560 -0.4752 -1.0813 -0.8075
  119SOPE   H4S12563   5.522   5.642   6.606  0.1353  0.0946 -0.1807
  119SOPE   C2512564   5.381   5.605   6.441 -0.1880  0.2638  0.1916
  119SOPE   H5R12565   5.416   5.499   6.435 -2.4956 -0.4973 -0.9845
  119SOPE   H5S12566   5.271   5.600   6.423  0.0970 -2.6422 -1.3863
  119SOPE   C2612567   5.449   5.676   6.319  0.1785 -0.0099  0.1115
  119SOPE   H6R12568   5.387   5.766   6.296 -0.2802 -0.2576  0.3696
  119SOPE   H6S12569   5.554   5.707   6.340  0.7054 -0.7001 -1.3615
  119SOPE   C2712570   5.461   5.582   6.200 -0.4670  0.2141 -0.2353
  119SOPE   H7R12571   5.545   5.513   6.223 -0.0907  0.6930 -0.1593
  119SOPE   H7S12572   5.359   5.538   6.193 -2.1505  3.6357  0.3664
  119SOPE   C2812573   5.496   5.649   6.068  0.2782 -0.6471  0.4673
  119SOPE   H8R12574   5.594   5.697   6.090  0.8417 -1.3178 -0.5190
  119SOPE   H8S12575   5.503   5.568   5.992  0.4405 -1.1227  0.9815
  119SOPE   C2912576   5.403   5.755   6.009 -0.0537 -0.1369  0.4258
  119SOPE   H9112577   5.357   5.815   6.089  0.7723  0.3242  0.5627
  119SOPE  C21012578   5.373   5.785   5.878 -0.0194 -0.1712 -0.6626
  119SOPE  H10112579   5.315   5.878   5.863 -2.0906 -1.2659  0.1884
  119SOPE  C21112580   5.420   5.728   5.750 -0.3303  0.5560 -0.1485
  119SOPE  H11R12581   5.508   5.664   5.775  0.0320  1.0588 -0.1249
  119SOPE  H11S12582   5.448   5.806   5.676  0.0941 -0.7497 -1.4291
  119SOPE  C21212583   5.316   5.637   5.687 -0.4224  0.2537 -0.2818
  119SOPE  H12R12584   5.219   5.688   5.673 -1.5732 -2.1957 -1.9521
  119SOPE  H12S12585   5.305   5.543   5.746 -2.7570  0.9698  0.5278
  119SOPE  C21312586   5.368   5.589   5.551 -0.5329 -0.0303  0.5423
  119SOPE  H13R12587   5.475   5.563   5.557 -0.0397  1.0582 -2.0738
  119SOPE  H13S12588   5.357   5.677   5.483  2.6873  1.5972  1.9304
  119SOPE  C21412589   5.286   5.463   5.512 -0.5289 -0.3186 -0.4739
  119SOPE  H14R12590   5.179   5.492   5.525 -0.6267 -0.7849 -0.2369
  119SOPE  H14S12591   5.301   5.382   5.586 -3.4525 -2.0247 -1.5616
  119SOPE  C21512592   5.314   5.412   5.369  0.2871  0.3498 -0.2959
  119SOPE  H15R12593   5.255   5.461   5.289  0.5018  0.1735 -0.5621
  119SOPE  H15S12594   5.278   5.307   5.374 -0.2408  0.5334 -0.1181
  119SOPE  C21612595   5.465   5.400   5.344 -0.8922  0.1844 -0.2291
  119SOPE  H16R12596   5.493   5.320   5.416  2.6359 -0.3708 -1.9948
  119SOPE  H16S12597   5.519   5.496   5.361 -0.8593  0.1428 -0.0940
  119SOPE  C21712598   5.491   5.347   5.203 -0.5609  1.0270  0.3830
  119SOPE  H17R12599   5.419   5.264   5.191  0.4424  0.1158  0.5506
  119SOPE  H17S12600   5.590   5.301   5.184 -0.0199  2.4664 -0.4255
  119SOPE  C21812601   5.454   5.446   5.091 -0.3346 -0.4153 -0.2635
  119SOPE  H18R12602   5.538   5.518   5.076  0.1482 -0.6458  1.2126
  119SOPE  H18S12603   5.360   5.501   5.115 -0.0412 -0.3587  0.8102
  119SOPE  H18T12604   5.443   5.396   4.993 -0.2150  1.3148 -1.2038
  119SOPE   C3312605   5.306   6.215   6.322  0.1308 -0.5121 -0.1654
  119SOPE   H3X12606   5.223   6.290   6.326 -0.3743 -1.0948  0.6719
  119SOPE   H3Y12607   5.316   6.189   6.215  1.0071 -0.8084 -0.0147
  119SOPE   C3412608   5.435   6.275   6.368 -0.9048  0.0735 -0.2648
  119SOPE   H4X12609   5.509   6.195   6.390  0.3691  1.6383  1.4278
  119SOPE   H4Y12610   5.412   6.308   6.471  1.1081  1.2081 -0.1382
  119SOPE   C3512611   5.484   6.377   6.273 -1.0082  0.3545  0.0212
  119SOPE   H5X12612   5.521   6.470   6.322  0.1674 -0.0647 -0.0430
  119SOPE   H5Y12613   5.400   6.413   6.210 -1.7860 -0.6233  0.4658
  119SOPE   C3612614   5.589   6.327   6.173 -0.2502 -0.2553 -0.2751
  119SOPE   H6X12615   5.577   6.382   6.077  3.3337  3.0941  0.9154
  119SOPE   H6Y12616   5.579   6.219   6.150 -4.4379  0.2875 -1.8667
  119SOPE   C3712617   5.732   6.344   6.235 -0.4089  0.2832 -0.5528
  119SOPE   H7X12618   5.753   6.270   6.315  4.2757  0.5097 -1.3110
  119SOPE   H7Y12619   5.764   6.442   6.275 -2.5442  1.9616 -2.6446
  119SOPE   C3812620   5.845   6.287   6.145 -0.1399 -0.3854 -0.0345
  119SOPE   H8X12621   5.800   6.211   6.077 -0.8979  0.5852 -0.6590
  119SOPE   H8Y12622   5.926   6.245   6.208 -0.8655 -0.0744  1.1274
  119SOPE   C3912623   5.909   6.398   6.053  1.0913  0.3363  0.7109
  119SOPE   H9X12624   5.932   6.476   6.129  0.7482  0.0494  1.1156
  119SOPE   H9Y12625   5.830   6.436   5.985  1.1601 -1.0603 -0.1870
  119SOPE  C31012626   6.030   6.353   5.973  0.9352 -0.6762 -0.1295
  119SOPE  H10X12627   6.085   6.273   6.027  0.4237 -0.3573  0.8987
  119SOPE  H10Y12628   6.108   6.432   5.970 -0.2413  0.6046  1.4315
  119SOPE  C31112629   5.995   6.303   5.831  0.0098  0.4359  0.3789
  119SOPE  H11X12630   5.951   6.394   5.786 -2.8345 -1.1422 -0.2730
  119SOPE  H11Y12631   5.925   6.217   5.835  2.6347 -2.0629 -2.1783
  119SOPE  C31212632   6.119   6.255   5.762  0.0874 -0.2274 -0.1702
  119SOPE  H12X12633   6.164   6.166   5.811  1.7202  1.3683  1.3770
  119SOPE  H12Y12634   6.202   6.330   5.763 -0.0244  0.0174  3.0568
  119SOPE  C31312635   6.096   6.225   5.613  0.0534 -0.3909 -0.1137
  119SOPE  H13X12636   6.068   6.316   5.557 -0.1009  1.0285  2.1421
  119SOPE  H13Y12637   6.025   6.140   5.603  1.9084 -2.0785  0.2578
  119SOPE  C31412638   6.227   6.179   5.537  0.2947 -0.3827 -0.3506
  119SOPE  H14X12639   6.253   6.077   5.573  1.0200  0.2568  1.0755
  119SOPE  H14Y12640   6.300   6.256   5.571  1.2794 -1.0319 -0.9323
  119SOPE  C31512641   6.206   6.173   5.387 -0.2780  0.1498 -0.8392
  119SOPE  H15X12642   6.181   6.278   5.359  3.2058  1.3738  0.2168
  119SOPE  H15Y12643   6.118   6.109   5.363 -0.4448  0.5882 -1.4142
  119SOPE  C31612644   6.318   6.117   5.309 -0.1178 -0.1861  0.3664
  119SOPE  H16X12645   6.336   6.012   5.342  0.0413  0.4028  2.2654
  119SOPE  H16Y12646   6.406   6.177   5.342 -1.1644  1.2585  0.6104
  119SOPE  C31712647   6.296   6.127   5.159  0.8687 -0.6116  0.6677
  119SOPE  H17X12648   6.196   6.088   5.134  0.0152  2.0780 -0.4899
  119SOPE  H17Y12649   6.369   6.067   5.100 -0.3225  0.8661 -2.5354
  119SOPE  C31812650   6.307   6.274   5.108 -0.8973 -0.2357 -0.4586
  119SOPE  H18X12651   6.320   6.280   4.998 -1.3547  0.6943 -0.4750
  119SOPE  H18Y12652   6.395   6.327   5.153 -0.9486 -0.6520  0.1420
  119SOPE  H18Z12653   6.213   6.326   5.136 -0.4291 -0.1028  0.9975
  120SOPE     N12654   4.841   1.444   6.914 -0.2222  0.0278 -0.3554
  120SOPE   HN112655   4.832   1.388   7.002  0.4437  1.2506  0.5337
  120SOPE   HN212656   4.925   1.500   6.940 -0.0877  0.1896 -1.1398
  120SOPE   HN312657   4.763   1.508   6.891  0.0716  0.1344 -1.0754
  120SOPE   C1212658   4.879   1.368   6.788  0.0647  0.5809 -0.4520
  120SOPE  H12A12659   4.906   1.444   6.711  3.3827  0.2404  0.2369
  120SOPE  H12B12660   4.793   1.305   6.757  0.4864 -0.4802  0.4807
  120SOPE   C1112661   5.001   1.281   6.812 -0.1370  0.2758 -0.3831
  120SOPE  H11A12662   5.015   1.226   6.716 -1.4633 -2.3328  0.7869
  120SOPE  H11B12663   4.979   1.202   6.887 -1.4581  0.5481 -0.4495
  120SOPE     P12664   5.237   1.289   6.928 -0.3463  0.1286  0.3096
  120SOPE   O1312665   5.195   1.194   7.029 -0.4416  0.5668  0.0153
  120SOPE   O1412666   5.322   1.397   6.971  0.3064 -0.1924  0.2831
  120SOPE   O1212667   5.111   1.356   6.865  0.0233 -0.8158 -0.1345
  120SOPE   O1112668   5.308   1.212   6.808  0.1072 -0.7341  0.1688
  120SOPE    C112669   5.385   1.288   6.714  1.0003  0.5104 -0.1539
  120SOPE    HA12670   5.469   1.224   6.678 -1.8662 -2.8569 -1.4296
  120SOPE    HB12671   5.436   1.367   6.774  2.6618 -0.1269 -0.6702
  120SOPE    C212672   5.312   1.339   6.589 -0.3067 -0.0333 -0.4370
  120SOPE    HS12673   5.222   1.389   6.631  0.8506 -0.3489  2.7442
  120SOPE   O2112674   5.272   1.234   6.503  0.0632 -0.0968 -0.1940
  120SOPE   C2112675   5.176   1.268   6.413 -0.0730  0.6969 -0.3097
  120SOPE   O2212676   5.126   1.377   6.405 -0.0877  0.9709 -0.5586
  120SOPE   C2212677   5.144   1.149   6.339  0.8273  0.2836  0.5898
  120SOPE   H2R12678   5.047   1.163   6.288  0.5750  0.8060  1.1865
  120SOPE   H2S12679   5.141   1.067   6.414 -0.0487  0.5418  0.8526
  120SOPE    C312680   5.397   1.450   6.520 -0.2795 -0.0060 -0.3136
  120SOPE    HX12681   5.418   1.529   6.595  1.2238 -0.4821 -0.2044
  120SOPE    HY12682   5.339   1.490   6.434 -0.4232 -0.5009 -0.4561
  120SOPE   O3112683   5.514   1.395   6.455  0.4416 -0.0195 -0.1278
  120SOPE   C3112684   5.631   1.388   6.519 -0.7693 -0.1937  0.5945
  120SOPE   O3212685   5.652   1.441   6.625  0.3537  0.1487 -0.9095
  120SOPE   C3212686   5.738   1.310   6.432  0.1270 -0.0011  0.0087
  120SOPE   H2X12687   5.688   1.217   6.399 -1.8676  1.2527 -0.6669
  120SOPE   H2Y12688   5.822   1.285   6.501  0.4932  0.9814 -0.0627
  120SOPE   C2312689   5.245   1.128   6.226 -0.0031  0.7066 -0.5759
  120SOPE   H3R12690   5.235   1.018   6.211  0.8168  0.4826  0.4242
  120SOPE   H3S12691   5.349   1.149   6.258 -0.7490  1.9582  1.1560
  120SOPE   C2412692   5.209   1.208   6.103  0.3385  0.9166 -0.6479
  120SOPE   H4R12693   5.107   1.183   6.068  0.7003  1.0605 -1.8636
  120SOPE   H4S12694   5.197   1.314   6.135  0.0400  0.6600  0.0936
  120SOPE   C2512695   5.320   1.197   6.002  0.1033 -0.3257  0.6749
  120SOPE   H5R12696   5.411   1.216   6.063  1.5789 -2.6192 -0.6319
  120SOPE   H5S12697   5.333   1.090   5.973  0.1214 -0.1863  0.1667
  120SOPE   C2612698   5.299   1.298   5.891  0.5286 -0.0088 -0.6080
  120SOPE   H6R12699   5.203   1.279   5.838  0.0309  0.1789  0.2041
  120SOPE   H6S12700   5.285   1.399   5.935  6.1456  1.0369 -0.4944
  120SOPE   C2712701   5.413   1.308   5.794 -0.8435  0.3191 -0.4039
  120SOPE   H7R12702   5.502   1.361   5.832 -1.7788  1.4288  0.3133
  120SOPE   H7S12703   5.443   1.205   5.764  0.1916  0.6919 -0.6597
  120SOPE   C2812704   5.372   1.385   5.663  0.2442  0.1498  0.1072
  120SOPE   H8R12705   5.274   1.355   5.622  0.5508  2.4165 -2.5385
  120SOPE   H8S12706   5.347   1.485   5.706  0.4249  0.3087 -0.1539
  120SOPE   C2912707   5.465   1.403   5.545  0.2808  0.5458 -0.0588
  120SOPE   H9112708   5.523   1.496   5.544  1.7347 -0.3021 -2.1410
  120SOPE  C21012709   5.462   1.317   5.438  0.5879  0.1910  0.2550
  120SOPE  H10112710   5.531   1.333   5.354 -0.3380 -0.2469 -0.5944
  120SOPE  C21112711   5.385   1.192   5.413 -0.1385  0.2858 -0.8894
  120SOPE  H11R12712   5.302   1.208   5.341 -1.0750 -0.6464 -0.0555
  120SOPE  H11S12713   5.346   1.152   5.509 -1.6401  0.9165 -1.2176
  120SOPE  C21212714   5.469   1.079   5.342 -0.3386 -0.7220 -0.0800
  120SOPE  H12R12715   5.402   0.991   5.335 -1.9915  0.4785  0.2072
  120SOPE  H12S12716   5.554   1.051   5.407  0.5263  0.9537 -0.4415
  120SOPE  C21312717   5.528   1.114   5.207  0.0640 -0.4180  0.0249
  120SOPE  H13R12718   5.608   1.191   5.215 -0.1830 -0.2057  0.5888
  120SOPE  H13S12719   5.453   1.171   5.147  1.2303  1.1441 -0.0052
  120SOPE  C21412720   5.590   0.998   5.142 -0.5739  0.1896  0.5446
  120SOPE  H14R12721   5.525   0.909   5.126  0.2300 -0.0415 -1.7523
  120SOPE  H14S12722   5.662   0.966   5.220  1.0233  0.2582 -0.8685
  120SOPE  C21512723   5.672   1.035   5.018  0.2006 -0.4798 -0.7826
  120SOPE  H15R12724   5.739   0.952   4.988 -0.0870 -1.0187  0.0188
  120SOPE  H15S12725   5.739   1.120   5.042 -1.5174  0.1760  2.2047
  120SOPE  C21612726   5.584   1.076   4.902 -0.2963  0.1653  0.7314
  120SOPE  H16R12727   5.506   1.152   4.921 -0.5536  0.3521 -0.9804
  120SOPE  H16S12728   5.524   0.988   4.870 -0.6113  0.6140  0.0758
  120SOPE  C21712729   5.662   1.123   4.779  0.0234 -1.1199 -0.8724
  120SOPE  H17R12730   5.723   1.038   4.743 -1.1371 -2.2156 -0.3304
  120SOPE  H17S12731   5.721   1.207   4.820 -0.1778 -0.5211 -1.7603
  120SOPE  C21812732   5.573   1.175   4.664  0.4695 -0.0145 -0.1068
  120SOPE  H18R12733   5.639   1.182   4.575 -2.3160 -0.0740 -2.3410
  120SOPE  H18S12734   5.545   1.281   4.685  0.8138  0.7362 -3.0052
  120SOPE  H18T12735   5.482   1.114   4.646 -0.9727  1.3039  2.1628
  120SOPE   C3312736   5.788   1.393   6.313  0.2371  0.0902 -0.0248
  120SOPE   H3X12737   5.857   1.471   6.352  0.2898  0.6472 -1.1829
  120SOPE   H3Y12738   5.693   1.435   6.273 -0.5851 -1.7721 -0.1352
  120SOPE   C3412739   5.863   1.307   6.213  0.0399  0.1403 -0.0386
  120SOPE   H4X12740   5.793   1.237   6.162  0.4375 -1.5992  1.6869
  120SOPE   H4Y12741   5.931   1.247   6.277 -1.9144 -1.8942  0.2629
  120SOPE   C3512742   5.936   1.389   6.105  0.5839  0.0671  0.0116
  120SOPE   H5X12743   6.022   1.442   6.152 -0.5795  2.6627 -0.5911
  120SOPE   H5Y12744   5.861   1.460   6.063  1.4589  1.8405  1.3145
  120SOPE   C3612745   6.008   1.310   5.992 -0.0442  0.1861  0.1415
  120SOPE   H6X12746   5.949   1.222   5.959  1.4510  0.1740 -2.9299
  120SOPE   H6Y12747   6.107   1.280   6.032 -0.8565  2.1015  4.1134
  120SOPE   C3712748   6.039   1.393   5.863 -0.6535  0.0244 -0.4191
  120SOPE   H7X12749   6.134   1.359   5.815  0.8246 -1.3904  3.1445
  120SOPE   H7Y12750   6.064   1.500   5.882  1.8124 -0.3250 -1.2775
  120SOPE   C3812751   5.929   1.403   5.754  0.2523  0.0213 -0.0968
  120SOPE   H8X12752   5.839   1.429   5.814 -0.2597  0.9376 -1.2178
  120SOPE   H8Y12753   5.917   1.300   5.715 -0.8774 -0.5284  1.5671
  120SOPE   C3912754   5.954   1.499   5.646 -0.7242  0.0451  0.0538
  120SOPE   H9X12755   6.057   1.484   5.607 -0.2938  2.6040  0.0383
  120SOPE   H9Y12756   5.945   1.602   5.687  1.5876  0.2682  0.1193
  120SOPE  C31012757   5.863   1.476   5.527  0.1254  0.1568  0.6990
  120SOPE  H10X12758   5.757   1.483   5.559 -0.2095 -1.4416  0.0174
  120SOPE  H10Y12759   5.881   1.373   5.491  0.2797  0.7246 -0.9418
  120SOPE  C31112760   5.897   1.568   5.409  0.4524  0.1516 -0.6823
  120SOPE  H11X12761   6.005   1.586   5.390  0.6050 -0.8131 -0.7695
  120SOPE  H11Y12762   5.848   1.666   5.426  1.0764  0.2010  1.0624
  120SOPE  C31212763   5.846   1.522   5.272  0.1344 -0.4869 -0.9899
  120SOPE  H12X12764   5.736   1.522   5.259  0.3189 -0.2578 -2.9432
  120SOPE  H12Y12765   5.871   1.415   5.261 -0.6173 -0.7462 -0.2484
  120SOPE  C31312766   5.911   1.595   5.160 -0.1145 -0.1326  0.1269
  120SOPE  H13X12767   6.021   1.595   5.173 -0.3945  0.0020  3.0665
  120SOPE  H13Y12768   5.876   1.700   5.168 -0.4149 -0.2576  0.4743
  120SOPE  C31412769   5.859   1.544   5.020 -0.4272 -0.4160 -0.0724
  120SOPE  H14X12770   5.750   1.560   5.006 -0.1980  3.3160  1.3341
  120SOPE  H14Y12771   5.871   1.434   5.032  1.8294 -0.1657  0.4968
  120SOPE  C31512772   5.959   1.582   4.910  0.4154  0.5363 -0.4462
  120SOPE  H15X12773   6.049   1.524   4.941 -1.7503 -2.5101  0.5629
  120SOPE  H15Y12774   5.984   1.691   4.912 -0.5067  0.7915 -1.8473
  120SOPE  C31612775   5.923   1.537   4.764 -0.2827  0.6584 -0.4396
  120SOPE  H16X12776   5.906   1.428   4.757 -0.3949  0.7411 -1.6712
  120SOPE  H16Y12777   6.013   1.560   4.704  0.4517 -1.3109 -0.1621
  120SOPE  C31712778   5.795   1.604   4.709 -0.0431  0.0290 -0.4065
  120SOPE  H17X12779   5.824   1.711   4.703 -0.2144  0.0656 -0.5848
  120SOPE  H17Y12780   5.710   1.587   4.779 -0.6409  0.0851 -1.1017
  120SOPE  C31812781   5.766   1.550   4.571 -0.2292 -0.1511  0.0038
  120SOPE  H18X12782   5.684   1.607   4.524 -0.2560 -0.6794 -0.6128
  120SOPE  H18Y12783   5.752   1.439   4.573 -3.4651  0.1684  0.1148
  120SOPE  H18Z12784   5.857   1.580   4.514  0.7058  3.0554  2.8680
  121SOPE     N12785   4.795   0.535   6.812  0.2571 -0.2084  0.3717
  121SOPE   HN112786   4.898   0.538   6.825 -0.0242 -0.3615  3.4117
  121SOPE   HN212787   4.761   0.629   6.784  0.9993  0.3432  1.2929
  121SOPE   HN312788   4.750   0.495   6.897  1.4902  0.0441  1.1664
  121SOPE   C1212789   4.747   0.451   6.692 -0.1100 -0.3946  0.0965
  121SOPE  H12A12790   4.768   0.498   6.594 -0.9988 -1.3058 -0.5393
  121SOPE  H12B12791   4.637   0.435   6.698 -0.0381 -1.0573 -0.2615
  121SOPE   C1112792   4.818   0.308   6.678 -0.1765 -0.2287 -0.0797
  121SOPE  H11A12793   4.927   0.330   6.685 -0.2944  0.6764 -0.9665
  121SOPE  H11B12794   4.794   0.272   6.576  0.0575  3.2451 -1.4912
  121SOPE     P12795   4.638   0.135   6.763  0.1763 -0.0691 -0.6580
  121SOPE   O1312796   4.536   0.235   6.805 -0.6534 -0.0518 -0.4423
  121SOPE   O1412797   4.644   0.003   6.833 -0.7091  0.6154  0.4048
  121SOPE   O1212798   4.783   0.207   6.777  0.3453  0.1246  0.4456
  121SOPE   O1112799   4.607   0.102   6.613 -0.0797 -0.2718  0.1371
  121SOPE    C112800   4.684  -0.016   6.558 -0.4946 -0.3771 -0.7375
  121SOPE    HA12801   4.695  -0.104   6.624  2.1024  0.9305  0.7656
  121SOPE    HB12802   4.791   0.013   6.545  0.2253 -2.7945 -0.7481
  121SOPE    C212803   4.628  -0.056   6.423 -0.2595 -0.3560 -0.3622
  121SOPE    HS12804   4.707  -0.127   6.391  1.0862  1.8754 -2.3243
  121SOPE   O2112805   4.629   0.056   6.335 -0.3799  0.1422  0.2189
  121SOPE   C2112806   4.632   0.039   6.201  0.1533  0.6183 -0.4108
  121SOPE   O2212807   4.639  -0.067   6.139 -0.1641 -0.2782 -0.1536
  121SOPE   C2212808   4.630   0.178   6.141  0.2867 -0.2790 -0.3408
  121SOPE   H2R12809   4.734   0.216   6.144  0.5627 -0.8694 -1.6724
  121SOPE   H2S12810   4.568   0.244   6.205  1.0158 -0.6844  0.8145
  121SOPE    C312811   4.489  -0.117   6.442  1.2746 -0.0262  0.3059
  121SOPE    HX12812   4.429  -0.032   6.482 -0.5459 -0.1729 -1.9410
  121SOPE    HY12813   4.475  -0.199   6.516  0.0833 -1.0524 -1.0109
  121SOPE   O3112814   4.420  -0.152   6.316 -0.5125 -0.0506  0.1730
  121SOPE   C3112815   4.450  -0.277   6.261 -0.1104  0.0795 -0.2808
  121SOPE   O3212816   4.529  -0.355   6.316 -1.3565 -0.9055  0.5051
  121SOPE   C3212817   4.364  -0.300   6.132  0.0613 -0.2346  0.0686
  121SOPE   H2X12818   4.387  -0.221   6.058  1.0173  0.3405  0.9425
  121SOPE   H2Y12819   4.262  -0.297   6.176 -0.0090 -2.0331  0.1011
  121SOPE   C2312820   4.575   0.186   5.998 -0.4415  0.0850  0.0633
  121SOPE   H3R12821   4.543   0.291   5.980 -0.3907 -0.0857 -1.1061
  121SOPE   H3S12822   4.492   0.113   5.987  0.2255 -0.5674 -0.8083
  121SOPE   C2412823   4.683   0.152   5.894 -0.0570  0.1509 -0.5194
  121SOPE   H4R12824   4.765   0.225   5.910  0.3077 -0.4642  0.4980
  121SOPE   H4S12825   4.727   0.052   5.913 -0.7458 -0.3464 -1.4391
  121SOPE   C2512826   4.625   0.180   5.748 -0.0728 -0.2860 -0.1672
  121SOPE   H5R12827   4.551   0.104   5.716 -1.1203  1.1595 -1.2970
  121SOPE   H5S12828   4.560   0.270   5.754 -0.7680 -0.8224  0.4915
  121SOPE   C2612829   4.739   0.198   5.646 -0.1558 -0.4620 -0.2832
  121SOPE   H6R12830   4.807   0.279   5.680 -0.3477 -1.0339  1.6328
  121SOPE   H6S12831   4.796   0.103   5.644  0.2939 -0.2587  1.2007
  121SOPE   C2712832   4.694   0.227   5.499  0.1417  0.3836 -0.6444
  121SOPE   H7R12833   4.637   0.141   5.458  0.0275 -1.2505  2.6795
  121SOPE   H7S12834   4.633   0.320   5.494  0.2690  0.5020 -0.0155
  121SOPE   C2812835   4.821   0.254   5.417  0.6971  0.0588 -0.3468
  121SOPE   H8R12836   4.788   0.296   5.319 -1.6454  3.2549  1.5905
  121SOPE   H8S12837   4.885   0.329   5.468 -0.2074  0.2266  0.5742
  121SOPE   C2912838   4.895   0.121   5.396 -0.4821 -0.8922  0.4016
  121SOPE   H9112839   4.965   0.090   5.475 -1.0318 -2.2514  0.3867
  121SOPE  C21012840   4.877   0.040   5.287  0.9972 -0.9413 -0.4175
  121SOPE  H10112841   4.924  -0.058   5.271 -1.1774 -2.1924  0.3186
  121SOPE  C21112842   4.769   0.085   5.186  0.7393 -0.2688 -0.6189
  121SOPE  H11R12843   4.805   0.182   5.144  4.5333 -1.8122 -1.3220
  121SOPE  H11S12844   4.667   0.095   5.229  1.1798 -2.2771  1.0461
  121SOPE  C21212845   4.757  -0.016   5.069  0.0916  0.3347  0.1311
  121SOPE  H12R12846   4.676   0.009   4.998 -0.0381  1.4520  0.6491
  121SOPE  H12S12847   4.739  -0.118   5.111 -0.4737 -0.0519 -1.0301
  121SOPE  C21312848   4.889  -0.046   4.994 -0.4264  0.2980 -0.1418
  121SOPE  H13R12849   4.983  -0.060   5.053 -1.8046  2.4167  2.8272
  121SOPE  H13S12850   4.909   0.051   4.943  0.0496 -0.3017 -1.1207
  121SOPE  C21412851   4.878  -0.153   4.883 -0.2450 -0.7883 -0.4932
  121SOPE  H14R12852   4.956  -0.128   4.809  0.2069  0.6738  0.4277
  121SOPE  H14S12853   4.775  -0.154   4.842 -0.4095  1.5719 -0.2861
  121SOPE  C21512854   4.916  -0.295   4.925  0.2617  0.5692  0.7980
  121SOPE  H15R12855   4.830  -0.340   4.979 -1.2125  2.2703 -0.0224
  121SOPE  H15S12856   5.003  -0.295   4.995  0.8367  2.4072  0.1574
  121SOPE  C21612857   4.954  -0.379   4.803 -0.0421  0.4885  0.1202
  121SOPE  H16R12858   5.028  -0.315   4.749  0.4426 -1.4239 -1.6136
  121SOPE  H16S12859   4.863  -0.399   4.742 -1.5696  0.1594  2.4135
  121SOPE  C21712860   5.001  -0.519   4.834 -0.0489 -0.0639  0.1898
  121SOPE  H17R12861   4.921  -0.585   4.875 -1.1827  0.1742 -1.5008
  121SOPE  H17S12862   5.087  -0.523   4.903  2.0339  1.2030 -2.1729
  121SOPE  C21812863   5.047  -0.591   4.704 -0.7991  0.0832 -0.0252
  121SOPE  H18R12864   5.079  -0.696   4.721 -2.3493 -0.9512 -2.8043
  121SOPE  H18S12865   5.128  -0.532   4.657 -0.7896  0.2342  0.1850
  121SOPE  H18T12866   4.959  -0.598   4.636 -0.3623  0.9968 -0.6997
  121SOPE   C3312867   4.374  -0.444   6.065  0.1906 -0.4936 -0.5259
  121SOPE   H3X12868   4.372  -0.527   6.139  1.8113 -1.2573 -1.2753
  121SOPE   H3Y12869   4.477  -0.464   6.029  0.3543 -2.6300  0.8858
  121SOPE   C3412870   4.285  -0.472   5.950  0.4423  0.2509 -0.2873
  121SOPE   H4X12871   4.280  -0.387   5.878 -2.7959 -0.6056 -1.2605
  121SOPE   H4Y12872   4.178  -0.484   5.977  0.2449 -0.3577 -1.2733
  121SOPE   C3512873   4.323  -0.598   5.871 -0.3337 -0.1602  0.0816
  121SOPE   H5X12874   4.292  -0.691   5.923  2.4257 -1.1083  0.2216
  121SOPE   H5Y12875   4.434  -0.607   5.876 -0.4412 -0.8318  2.3330
  121SOPE   C3612876   4.281  -0.580   5.719 -0.6357  0.2218  0.9349
  121SOPE   H6X12877   4.330  -0.495   5.667 -1.8183  0.2430 -0.2053
  121SOPE   H6Y12878   4.172  -0.557   5.717 -1.1444 -2.1045 -0.2791
  121SOPE   C3712879   4.287  -0.702   5.630  0.0720 -0.0990  0.3078
  121SOPE   H7X12880   4.217  -0.781   5.665  0.2536 -0.2451  0.3456
  121SOPE   H7Y12881   4.378  -0.763   5.645 -0.6020 -1.2172  0.0264
  121SOPE   C3812882   4.261  -0.673   5.487  0.0058  1.0014 -0.0599
  121SOPE   H8X12883   4.178  -0.601   5.469 -0.5930  0.2393 -0.3898
  121SOPE   H8Y12884   4.213  -0.761   5.439  0.3491  0.1975  1.0135
  121SOPE   C3912885   4.383  -0.629   5.412 -0.3065 -0.3636  0.3578
  121SOPE   H9X12886   4.433  -0.554   5.476  0.2928 -0.5917  0.1662
  121SOPE   H9Y12887   4.362  -0.589   5.311  1.2334 -0.7353 -0.1511
  121SOPE  C31012888   4.489  -0.736   5.386  0.9597  0.2978 -0.4055
  121SOPE  H10X12889   4.444  -0.835   5.366 -0.9738  1.0774 -0.1277
  121SOPE  H10Y12890   4.542  -0.749   5.483 -0.8636  0.4293  0.6469
  121SOPE  C31112891   4.593  -0.708   5.274 -0.0096  0.3952  0.3592
  121SOPE  H11X12892   4.681  -0.776   5.274  0.7480  1.3517 -0.3824
  121SOPE  H11Y12893   4.627  -0.605   5.298  0.9009  0.1818  0.0119
  121SOPE  C31212894   4.543  -0.696   5.125  0.2029 -0.5140  0.0969
  121SOPE  H12X12895   4.479  -0.609   5.098 -0.1702 -0.8302 -0.0573
  121SOPE  H12Y12896   4.488  -0.788   5.095 -0.1162 -0.1478 -0.4712
  121SOPE  C31312897   4.669  -0.678   5.038 -0.1830  0.9897 -0.3634
  121SOPE  H13X12898   4.736  -0.766   5.024  0.4032  1.2955  0.4442
  121SOPE  H13Y12899   4.730  -0.596   5.082  1.1002  0.6961 -1.5377
  121SOPE  C31412900   4.639  -0.634   4.898 -0.7817 -0.5791  0.4388
  121SOPE  H14X12901   4.716  -0.561   4.865 -0.3979 -0.4056  1.6725
  121SOPE  H14Y12902   4.548  -0.570   4.885 -0.9777 -1.1084 -0.9122
  121SOPE  C31512903   4.628  -0.750   4.798 -0.0459  0.2238  0.0850
  121SOPE  H15X12904   4.554  -0.819   4.846  0.5724 -0.7578 -0.3343
  121SOPE  H15Y12905   4.720  -0.812   4.798  0.3636  0.8098  1.1518
  121SOPE  C31612906   4.580  -0.717   4.651  0.8539  0.6169  0.8265
  121SOPE  H16X12907   4.486  -0.658   4.654  0.4547  0.2714 -1.8405
  121SOPE  H16Y12908   4.564  -0.818   4.606 -0.9761  0.2795  2.1488
  121SOPE  C31712909   4.683  -0.637   4.560  0.1475 -0.3015  0.0145
  121SOPE  H17X12910   4.776  -0.694   4.536  0.2976  0.0409 -0.2290
  121SOPE  H17Y12911   4.731  -0.554   4.616 -2.4455  1.2186  0.1472
  121SOPE  C31812912   4.623  -0.598   4.432  0.1847 -0.1970 -0.9911
  121SOPE  H18X12913   4.527  -0.545   4.449  1.4807  1.4575  1.8242
  121SOPE  H18Y12914   4.607  -0.685   4.366  1.4050 -0.3569 -1.1137
  121SOPE  H18Z12915   4.692  -0.530   4.376  0.8561  0.1014  0.1708
  122SOPE     N12916   4.192   0.811   6.940 -0.0726  0.5576 -0.0811
  122SOPE   HN112917   4.179   0.901   6.990  0.8463  0.1511  0.9117
  122SOPE   HN212918   4.148   0.816   6.845  0.6149 -1.0845 -0.5197
  122SOPE   HN312919   4.140   0.747   7.004  2.7739 -1.6125  0.2742
  122SOPE   C1212920   4.338   0.765   6.923 -0.6676 -0.2720  0.1788
  122SOPE  H12A12921   4.347   0.674   6.859  0.1156  0.2860 -0.5250
  122SOPE  H12B12922   4.368   0.727   7.023  0.0961 -0.4333 -0.1055
  122SOPE   C1112923   4.441   0.870   6.865  1.3105 -0.4058 -0.5078
  122SOPE  H11A12924   4.550   0.849   6.866  1.4764  0.3642 -1.1338
  122SOPE  H11B12925   4.425   0.968   6.914  0.4160  0.1781 -1.8935
  122SOPE     P12926   4.462   1.020   6.648  0.1312 -0.0942 -0.3586
  122SOPE   O1312927   4.611   1.021   6.644 -0.4030  0.2338 -0.6704
  122SOPE   O1412928   4.398   1.146   6.699 -0.2892  0.2500  0.5361
  122SOPE   O1212929   4.402   0.888   6.724 -0.2384  0.0090  0.0490
  122SOPE   O1112930   4.411   0.995   6.502  0.0065  0.8282 -0.3428
  122SOPE    C112931   4.272   1.004   6.475  0.6639 -0.0760  0.0162
  122SOPE    HA12932   4.234   1.105   6.502  1.3869  0.3073 -0.3705
  122SOPE    HB12933   4.219   0.929   6.538  0.8388 -0.4532 -0.2852
  122SOPE    C212934   4.232   0.988   6.330 -0.2018 -0.8407  0.3615
  122SOPE    HS12935   4.123   0.982   6.308 -0.2141  1.0190 -0.2746
  122SOPE   O2112936   4.306   0.883   6.272  0.2792  0.6952 -0.8561
  122SOPE   C2112937   4.273   0.758   6.299  0.1550 -0.3936 -0.1191
  122SOPE   O2212938   4.166   0.728   6.359 -0.4992  0.1606 -0.1580
  122SOPE   C2212939   4.380   0.661   6.265  0.0238 -0.1200  0.1527
  122SOPE   H2R12940   4.359   0.565   6.318 -1.3276  0.1720  0.1853
  122SOPE   H2S12941   4.469   0.703   6.318  0.2082 -1.3895  0.8893
  122SOPE    C312942   4.289   1.111   6.251  0.0582 -0.2292  0.3592
  122SOPE    HX12943   4.389   1.133   6.295 -0.4045  0.4937  1.0703
  122SOPE    HY12944   4.232   1.205   6.264  1.5278  0.5738  1.3106
  122SOPE   O3112945   4.291   1.086   6.109 -0.1922 -0.0603 -0.5247
  122SOPE   C3112946   4.400   1.063   6.049 -0.4627 -0.2541  0.3945
  122SOPE   O3212947   4.512   1.046   6.091 -0.1042 -0.5963  0.1363
  122SOPE   C3212948   4.372   1.054   5.899  0.4714 -0.1190 -1.1223
  122SOPE   H2X12949   4.295   1.131   5.878 -0.9546 -1.1607  0.0890
  122SOPE   H2Y12950   4.314   0.964   5.872 -1.1144  0.7449 -0.6728
  122SOPE   C2312951   4.414   0.643   6.119 -0.6049  0.7384  0.2093
  122SOPE   H3R12952   4.523   0.619   6.119 -0.6841  0.1576  2.3704
  122SOPE   H3S12953   4.400   0.740   6.066 -0.2181  1.9557  2.2052
  122SOPE   C2412954   4.315   0.544   6.049 -0.2096  0.0560 -0.6134
  122SOPE   H4R12955   4.330   0.444   6.096 -0.4764  0.3590  0.1317
  122SOPE   H4S12956   4.213   0.581   6.072 -1.1387 -1.5053 -1.9584
  122SOPE   C2512957   4.342   0.530   5.896 -1.0702 -0.6325  0.1880
  122SOPE   H5R12958   4.433   0.466   5.889 -1.5832 -1.1917 -1.7484
  122SOPE   H5S12959   4.266   0.466   5.848  1.2378 -2.1818 -1.6597
  122SOPE   C2612960   4.357   0.666   5.816  0.3824  0.1927 -0.6993
  122SOPE   H6R12961   4.298   0.744   5.870  0.5247 -0.2847  0.1763
  122SOPE   H6S12962   4.463   0.696   5.826  1.2510 -2.2998 -1.6827
  122SOPE   C2712963   4.325   0.651   5.667  0.6011 -0.6926 -0.0910
  122SOPE   H7R12964   4.221   0.615   5.652 -0.0890  0.5492  1.4572
  122SOPE   H7S12965   4.328   0.749   5.616 -2.0297  0.6867  2.0792
  122SOPE   C2812966   4.425   0.561   5.597  0.1485 -0.0855  0.2465
  122SOPE   H8R12967   4.447   0.474   5.663 -2.9923  1.0478  3.1007
  122SOPE   H8S12968   4.378   0.522   5.504  0.9838 -0.2522 -0.1154
  122SOPE   C2912969   4.555   0.617   5.562  0.0151  0.1165  0.6829
  122SOPE   H9112970   4.611   0.663   5.645 -0.9527 -0.8043  1.8607
  122SOPE  C21012971   4.607   0.644   5.437  0.2525  0.3028  0.4161
  122SOPE  H10112972   4.696   0.708   5.431  0.1253  0.5339  1.0161
  122SOPE  C21112973   4.545   0.617   5.298 -0.1477  0.6691  0.3707
  122SOPE  H11R12974   4.517   0.703   5.234  2.4843 -1.3348 -3.9347
  122SOPE  H11S12975   4.456   0.551   5.299  1.4832 -1.8116 -2.3139
  122SOPE  C21212976   4.631   0.533   5.213  0.3207 -0.5859  0.7766
  122SOPE  H12R12977   4.669   0.449   5.275  0.4197 -2.0962 -1.2400
  122SOPE  H12S12978   4.720   0.592   5.182 -0.5121 -0.2235 -1.0769
  122SOPE  C21312979   4.560   0.472   5.090 -0.1836 -0.2973 -0.1000
  122SOPE  H13R12980   4.482   0.540   5.050 -2.2030 -2.1798  0.3973
  122SOPE  H13S12981   4.501   0.384   5.124 -0.1471 -0.6096 -0.8349
  122SOPE  C21412982   4.658   0.426   4.987 -0.5659  0.5283 -0.2018
  122SOPE  H14R12983   4.725   0.360   5.047 -1.1404 -0.1487 -0.2827
  122SOPE  H14S12984   4.709   0.503   4.925  1.6121 -0.6049  0.0880
  122SOPE  C21512985   4.581   0.332   4.893  0.3853 -0.8259 -0.1829
  122SOPE  H15R12986   4.510   0.394   4.833 -2.1009 -1.5479  1.8549
  122SOPE  H15S12987   4.517   0.266   4.955 -1.0074  0.5712 -0.0887
  122SOPE  C21612988   4.670   0.254   4.806 -0.8655 -0.3377 -0.5117
  122SOPE  H16R12989   4.726   0.192   4.879 -0.0312 -0.2659 -1.0820
  122SOPE  H16S12990   4.750   0.322   4.768 -0.5565  0.0152  0.7145
  122SOPE  C21712991   4.607   0.172   4.691 -0.5482  0.3716 -0.0530
  122SOPE  H17R12992   4.539   0.098   4.739  1.4068 -3.1200 -2.2301
  122SOPE  H17S12993   4.679   0.104   4.641 -1.3022 -2.1070  1.9591
  122SOPE  C21812994   4.528   0.244   4.584  0.6171 -0.0000  0.4352
  122SOPE  H18R12995   4.432   0.291   4.616  0.9113  0.0037  1.3660
  122SOPE  H18S12996   4.488   0.182   4.502  0.0927 -0.4415  1.0138
  122SOPE  H18T12997   4.584   0.334   4.550  1.0585  0.1158  1.4165
  122SOPE   C3312998   4.507   1.073   5.819 -0.5366  0.3254 -0.4227
  122SOPE   H3X12999   4.575   0.992   5.854 -1.4488 -1.0663 -1.7581
  122SOPE   H3Y13000   4.556   1.172   5.828  2.0318 -0.6836 -1.8981
  122SOPE   C3413001   4.493   1.040   5.670  0.5485  0.2793  0.6866
  122SOPE   H4X13002   4.439   1.118   5.612  0.8359  1.3765  1.8592
  122SOPE   H4Y13003   4.444   0.942   5.652 -0.3278  1.0119 -1.2452
  122SOPE   C3513004   4.625   1.040   5.596 -0.8416  0.2478  0.3006
  122SOPE   H5X13005   4.685   0.955   5.636  0.5478  2.6740  3.8556
  122SOPE   H5Y13006   4.674   1.137   5.618  0.5170 -0.6251  1.3324
  122SOPE   C3613007   4.613   1.030   5.439 -0.2682 -0.1301 -0.2912
  122SOPE   H6X13008   4.553   1.117   5.404  0.1762  0.3888  0.2078
  122SOPE   H6Y13009   4.558   0.942   5.399 -1.8043  1.1080 -1.0094
  122SOPE   C3713010   4.747   1.017   5.364  0.6792 -0.2099  0.4962
  122SOPE   H7X13011   4.805   0.931   5.403  0.1182 -0.0154  1.8162
  122SOPE   H7Y13012   4.814   1.102   5.386 -0.2069  0.9672 -1.1214
  122SOPE   C3813013   4.727   1.001   5.212  0.5093 -0.5306 -0.2837
  122SOPE   H8X13014   4.647   0.925   5.196 -0.6789  0.5638  0.3270
  122SOPE   H8Y13015   4.820   0.973   5.158  1.3938  0.6960  0.5597
  122SOPE   C3913016   4.671   1.131   5.146  0.0481 -0.1606  0.8157
  122SOPE   H9X13017   4.762   1.191   5.126  0.3159 -0.4007  1.2942
  122SOPE   H9Y13018   4.596   1.185   5.207  0.0794 -0.2304  0.9164
  122SOPE  C31013019   4.599   1.103   5.005  0.1403 -0.2954  0.4364
  122SOPE  H10X13020   4.654   1.028   4.945 -1.7732  0.2580 -2.1657
  122SOPE  H10Y13021   4.596   1.202   4.956  1.4854 -0.5624 -0.2297
  122SOPE  C31113022   4.459   1.041   5.022  0.0666 -0.6809  0.2625
  122SOPE  H11X13023   4.407   1.110   5.092  0.3830 -1.2826  1.1009
  122SOPE  H11Y13024   4.470   0.940   5.068 -0.2624  1.0612  4.6036
  122SOPE  C31213025   4.370   1.023   4.898  0.4312 -0.3814 -0.0916
  122SOPE  H12X13026   4.425   0.998   4.805  1.6051  0.7464  0.2776
  122SOPE  H12Y13027   4.320   1.116   4.865  0.5772  0.4634  1.9310
  122SOPE  C31313028   4.261   0.919   4.915  0.3963  0.3481 -0.3066
  122SOPE  H13X13029   4.170   0.960   4.963 -0.4942 -1.7022 -0.1426
  122SOPE  H13Y13030   4.303   0.840   4.981 -0.0347  0.6885  0.3798
  122SOPE  C31413031   4.220   0.872   4.776 -0.2805  0.1681 -0.1978
  122SOPE  H14X13032   4.302   0.811   4.731  1.0638  2.4680 -1.0525
  122SOPE  H14Y13033   4.207   0.964   4.715  1.9734  1.8549  1.6851
  122SOPE  C31513034   4.098   0.776   4.773  0.1556 -0.0518  0.5550
  122SOPE  H15X13035   4.114   0.699   4.852  1.6932 -0.0443  0.2792
  122SOPE  H15Y13036   4.100   0.726   4.674  0.1227  0.7655  0.1339
  122SOPE  C31613037   3.963   0.841   4.790  0.1894 -0.9578  0.1798
  122SOPE  H16X13038   3.962   0.883   4.893  1.0389 -1.7921  0.5480
  122SOPE  H16Y13039   3.893   0.755   4.785  1.2232 -1.8185  0.0552
  122SOPE  C31713040   3.932   0.942   4.689  0.5888  0.4068  0.6825
  122SOPE  H17X13041   3.993   1.035   4.695  1.4722 -0.1045 -0.1200
  122SOPE  H17Y13042   3.828   0.972   4.714  1.6353  1.0080  5.0530
  122SOPE  C31813043   3.929   0.897   4.545  0.4426 -0.3637 -0.0073
  122SOPE  H18X13044   3.880   0.979   4.489  1.3617  0.3380  0.1938
  122SOPE  H18Y13045   3.870   0.805   4.523 -1.7548  0.6198  1.4171
  122SOPE  H18Z13046   4.031   0.899   4.501  0.0524  3.4546 -1.0757
  123SOPE     N13047   1.383   3.799   1.666  0.2967 -0.1895  0.5678
  123SOPE   HN113048   1.336   3.801   1.573 -1.6344 -1.4537  1.4529
  123SOPE   HN213049   1.456   3.872   1.680 -0.4517  0.8067 -0.5148
  123SOPE   HN313050   1.430   3.709   1.646  1.8939  1.2697 -3.2786
  123SOPE   C1213051   1.283   3.792   1.776 -0.1919 -0.1964 -0.9636
  123SOPE  H12A13052   1.218   3.704   1.757  1.6298 -2.3469  1.8054
  123SOPE  H12B13053   1.225   3.886   1.774  0.6294  0.3158 -1.3573
  123SOPE   C1113054   1.355   3.785   1.921 -0.0114 -0.3851  0.6933
  123SOPE  H11A13055   1.281   3.769   2.002 -1.2510  0.0741 -0.3039
  123SOPE  H11B13056   1.409   3.879   1.944  0.8284  0.0441 -2.4754
  123SOPE     P13057   1.438   3.550   1.972  0.3248  0.1485 -0.0039
  123SOPE   O1313058   1.569   3.485   1.962  0.2992  0.0002  0.5050
  123SOPE   O1413059   1.325   3.492   1.889  0.6861 -0.1243 -0.1336
  123SOPE   O1213060   1.459   3.693   1.924  0.4909 -0.0524 -0.3085
  123SOPE   O1113061   1.403   3.570   2.124 -0.8725 -0.1778  0.3431
  123SOPE    C113062   1.476   3.667   2.202 -0.2870 -0.3793  0.6063
  123SOPE    HA13063   1.452   3.770   2.167 -1.7531 -1.2984 -1.2829
  123SOPE    HB13064   1.586   3.652   2.197 -0.5149 -1.8651 -3.7985
  123SOPE    C213065   1.427   3.665   2.349  0.3412 -0.3361  0.3077
  123SOPE    HS13066   1.472   3.758   2.389  0.7438 -0.8677  1.1083
  123SOPE   O2113067   1.467   3.559   2.427 -0.0137  1.0786 -0.1219
  123SOPE   C2113068   1.601   3.558   2.451 -0.0015  0.8010  0.3092
  123SOPE   O2213069   1.669   3.658   2.437  0.2409  1.1735 -0.4409
  123SOPE   C2213070   1.640   3.430   2.534 -0.3568  0.6360 -0.0093
  123SOPE   H2R13071   1.661   3.351   2.459 -1.1764 -1.4118  1.8014
  123SOPE   H2S13072   1.549   3.396   2.588  0.5228  0.8094  1.6242
  123SOPE    C313073   1.273   3.679   2.365  0.6056  0.5163 -0.2599
  123SOPE    HX13074   1.233   3.588   2.315 -0.5140  1.0550 -0.3643
  123SOPE    HY13075   1.241   3.766   2.304  2.3132 -0.0800 -2.1170
  123SOPE   O3113076   1.233   3.682   2.507  0.0526 -0.0345 -0.0644
  123SOPE   C3113077   1.216   3.798   2.561  0.8127 -0.7201  0.2387
  123SOPE   O3213078   1.226   3.908   2.501  0.1017 -0.4153 -0.6022
  123SOPE   C3213079   1.176   3.785   2.706 -0.6982 -0.9582 -0.5675
  123SOPE   H2X13080   1.232   3.703   2.757  3.2098  0.9755 -1.4542
  123SOPE   H2Y13081   1.067   3.764   2.714 -1.0584  0.9359 -0.1805
  123SOPE   C2313082   1.753   3.443   2.634 -0.1955  0.4566 -0.2028
  123SOPE   H3R13083   1.844   3.466   2.573  0.8223 -1.1697  0.6334
  123SOPE   H3S13084   1.783   3.343   2.673  1.0952  0.2286 -1.6696
  123SOPE   C2413085   1.741   3.550   2.742  0.0052 -0.4482  0.0531
  123SOPE   H4R13086   1.707   3.642   2.690  0.8373 -1.5858 -2.6825
  123SOPE   H4S13087   1.660   3.521   2.812  0.7204 -1.3549  0.5198
  123SOPE   C2513088   1.867   3.579   2.818  0.0780  0.1610  0.3025
  123SOPE   H5R13089   1.951   3.597   2.747 -0.3616  0.1247 -0.2320
  123SOPE   H5S13090   1.855   3.673   2.875  0.8574 -0.4264  1.4764
  123SOPE   C2613091   1.910   3.463   2.911 -0.4161  0.1675 -0.9362
  123SOPE   H6R13092   1.832   3.446   2.988 -1.1550 -0.3831 -1.7891
  123SOPE   H6S13093   1.922   3.375   2.844  0.8170  1.3356 -2.3274
  123SOPE   C2713094   2.048   3.480   2.965  0.0843 -0.8156  0.0812
  123SOPE   H7R13095   2.093   3.383   2.996 -1.1040 -1.2471  0.4981
  123SOPE   H7S13096   2.109   3.528   2.885  0.1403  0.1036  0.6727
  123SOPE   C2813097   2.056   3.583   3.080 -0.0454 -0.0886 -0.1209
  123SOPE   H8R13098   2.009   3.681   3.056  0.2107  0.0666  0.0129
  123SOPE   H8S13099   2.001   3.554   3.173 -2.7899  0.1843 -1.5544
  123SOPE   C2913100   2.197   3.620   3.121  0.5651  0.5015  0.7247
  123SOPE   H9113101   2.234   3.698   3.053 -0.3577 -0.1218 -0.5208
  123SOPE  C21013102   2.273   3.578   3.215  0.2275  0.2632 -0.3131
  123SOPE  H10113103   2.374   3.619   3.217  1.1880 -1.9328  1.6127
  123SOPE  C21113104   2.237   3.484   3.324  0.6511  0.0774  0.4387
  123SOPE  H11R13105   2.260   3.383   3.284 -0.5991 -0.1994  0.3903
  123SOPE  H11S13106   2.129   3.499   3.343  0.6151  1.2782 -0.6190
  123SOPE  C21213107   2.334   3.509   3.440 -0.0449 -0.4869 -0.1472
  123SOPE  H12R13108   2.355   3.618   3.450  0.9090 -0.8342  2.2827
  123SOPE  H12S13109   2.435   3.470   3.415  0.7157  0.8988  0.6200
  123SOPE  C21313110   2.290   3.442   3.574  0.3068 -0.0655  0.4076
  123SOPE  H13R13111   2.281   3.332   3.564  0.1476  0.0735 -1.1964
  123SOPE  H13S13112   2.187   3.477   3.596 -0.8764 -2.6303 -0.6793
  123SOPE  C21413113   2.379   3.482   3.687  0.1976  0.8252 -0.4375
  123SOPE  H14R13114   2.388   3.593   3.686 -1.4778  0.9842 -0.1861
  123SOPE  H14S13115   2.481   3.438   3.677  0.5864  0.5220  3.3147
  123SOPE  C21513116   2.334   3.440   3.827 -0.4827 -0.2042  0.5156
  123SOPE  H15R13117   2.284   3.341   3.829  1.9321 -1.5821 -1.1569
  123SOPE  H15S13118   2.259   3.506   3.875  0.6599  1.2236  0.4132
  123SOPE  C21613119   2.455   3.420   3.926 -0.6971 -0.2579 -0.3329
  123SOPE  H16R13120   2.543   3.376   3.873 -0.2983  0.7892 -0.5603
  123SOPE  H16S13121   2.418   3.349   4.002 -2.7303  0.3238 -0.7332
  123SOPE  C21713122   2.505   3.549   3.995  0.5781 -0.1892  0.0283
  123SOPE  H17R13123   2.416   3.611   4.019  1.3428  0.8937  0.1340
  123SOPE  H17S13124   2.561   3.613   3.924  0.9554 -0.3057  0.2177
  123SOPE  C21813125   2.597   3.536   4.118  0.3499  0.3456 -0.1934
  123SOPE  H18R13126   2.534   3.509   4.205  0.9029  0.6395  0.3095
  123SOPE  H18S13127   2.639   3.634   4.149 -0.4946  1.0533 -1.2118
  123SOPE  H18T13128   2.671   3.454   4.103 -0.2385  0.0843 -1.9915
  123SOPE   C3313129   1.212   3.916   2.790  0.0349 -0.2182  0.0426
  123SOPE   H3X13130   1.168   4.003   2.736 -1.6030 -1.8174 -1.3314
  123SOPE   H3Y13131   1.322   3.926   2.793  0.2063 -1.3252 -1.3674
  123SOPE   C3413132   1.164   3.919   2.934  0.1284  0.2746 -0.0349
  123SOPE   H4X13133   1.214   3.834   2.985 -0.8457 -1.2201 -1.4782
  123SOPE   H4Y13134   1.053   3.908   2.934  0.2897 -1.5701 -0.3060
  123SOPE   C3513135   1.188   4.055   3.006  0.3412 -0.6579 -0.4334
  123SOPE   H5X13136   1.150   4.136   2.940 -0.8894  0.2450  1.3202
  123SOPE   H5Y13137   1.298   4.062   3.012  0.4255 -2.7962  2.0000
  123SOPE   C3613138   1.119   4.050   3.141  0.3051  0.4769 -0.0948
  123SOPE   H6X13139   1.166   3.993   3.223 -0.7654  2.1892  1.8116
  123SOPE   H6Y13140   1.015   4.018   3.119  1.2335 -1.7457 -1.6386
  123SOPE   C3713141   1.102   4.194   3.196  0.4786 -0.0147  0.5048
  123SOPE   H7X13142   1.031   4.261   3.143 -1.3399 -1.5399  0.9022
  123SOPE   H7Y13143   1.199   4.247   3.188  1.5193 -2.0151 -1.1686
  123SOPE   C3813144   1.056   4.195   3.336  1.1964  0.4000  0.0856
  123SOPE   H8X13145   1.020   4.299   3.353 -1.1125 -0.4502  0.9469
  123SOPE   H8Y13146   1.144   4.179   3.401 -0.9422  0.6068  3.2895
  123SOPE   C3913147   0.937   4.102   3.379 -0.1279  0.4559  0.0478
  123SOPE   H9X13148   0.961   3.999   3.411 -2.7671  0.0889  1.1280
  123SOPE   H9Y13149   0.864   4.096   3.295 -2.7518 -2.9313  2.3111
  123SOPE  C31013150   0.854   4.154   3.491 -0.6759 -0.7907 -0.2554
  123SOPE  H10X13151   0.746   4.132   3.476 -0.7396  0.5517 -2.2073
  123SOPE  H10Y13152   0.862   4.265   3.491  0.5055 -0.8651  0.3825
  123SOPE  C31113153   0.890   4.107   3.635  0.8769  0.1049  0.2784
  123SOPE  H11X13154   0.996   4.136   3.650  1.1741  0.5057 -2.1855
  123SOPE  H11Y13155   0.881   3.996   3.638 -0.9083  0.1942 -0.4536
  123SOPE  C31213156   0.792   4.168   3.742 -0.6548 -0.7290  0.1862
  123SOPE  H12X13157   0.691   4.127   3.721 -0.9965  0.0779  0.2382
  123SOPE  H12Y13158   0.793   4.278   3.723  0.0472 -1.1938 -3.2371
  123SOPE  C31313159   0.854   4.134   3.878  0.9552 -0.1573  0.8924
  123SOPE  H13X13160   0.964   4.149   3.871  0.5382  2.7528 -3.7409
  123SOPE  H13Y13161   0.838   4.026   3.899  3.9267 -1.2630 -1.6238
  123SOPE  C31413162   0.796   4.226   3.976 -0.0955 -0.9062 -0.3534
  123SOPE  H14X13163   0.687   4.244   3.963  0.2277  0.3683 -1.5527
  123SOPE  H14Y13164   0.839   4.323   3.942  2.2280 -0.6380  2.8196
  123SOPE  C31513165   0.833   4.190   4.120 -0.4731 -0.0553 -0.1765
  123SOPE  H15X13166   0.809   4.286   4.171 -1.8372 -0.5416  0.1402
  123SOPE  H15Y13167   0.941   4.173   4.141 -0.1000  2.5264  0.4039
  123SOPE  C31613168   0.748   4.076   4.164 -0.3049  0.2393 -0.1463
  123SOPE  H16X13169   0.787   3.982   4.119 -0.8162  0.0044 -0.1064
  123SOPE  H16Y13170   0.649   4.069   4.114 -0.0329 -1.8663 -0.5002
  123SOPE  C31713171   0.731   4.052   4.316 -0.3146  0.3781  0.5369
  123SOPE  H17X13172   0.688   4.138   4.372  1.0613  0.2346  1.8947
  123SOPE  H17Y13173   0.838   4.047   4.346 -0.6405 -1.8634  1.4832
  123SOPE  C31813174   0.648   3.929   4.340  0.0847 -0.2673  0.5695
  123SOPE  H18X13175   0.538   3.938   4.325  0.1132 -0.8720 -0.1200
  123SOPE  H18Y13176   0.652   3.913   4.450  0.4080  0.1750  0.6230
  123SOPE  H18Z13177   0.706   3.848   4.291  2.5117  1.5790  0.2211
  124SOPE     N13178   2.476   0.995   1.725  0.5878 -0.0918 -0.1036
  124SOPE   HN113179   2.450   0.913   1.666  4.5335 -1.4559 -0.3080
  124SOPE   HN213180   2.409   1.074   1.720 -3.1898 -2.9407  0.6283
  124SOPE   HN313181   2.566   1.036   1.691  1.2477 -0.4635  1.1356
  124SOPE   C1213182   2.481   0.965   1.868  0.0649  0.0674 -0.1226
  124SOPE  H12A13183   2.378   0.936   1.900  0.5066 -1.4199  0.0449
  124SOPE  H12B13184   2.502   1.056   1.926 -0.1188 -0.4236  0.7264
  124SOPE   C1113185   2.588   0.857   1.902 -0.8549 -0.3120  0.4559
  124SOPE  H11A13186   2.594   0.881   2.011 -0.8026 -0.0851  0.4025
  124SOPE  H11B13187   2.688   0.882   1.861 -0.6360 -0.4933  0.8639
  124SOPE     P13188   2.457   0.633   1.968  0.2649 -0.1180  0.7036
  124SOPE   O1313189   2.525   0.504   1.981 -0.0979 -0.0107 -0.0191
  124SOPE   O1413190   2.319   0.639   1.917  0.1018  0.3637  0.0949
  124SOPE   O1213191   2.545   0.722   1.867 -0.1067 -0.0395 -0.1993
  124SOPE   O1113192   2.450   0.715   2.104 -0.1750  0.1328  0.5682
  124SOPE    C113193   2.527   0.688   2.212 -0.2919 -0.2267  0.7127
  124SOPE    HA13194   2.622   0.747   2.212 -0.2766 -0.2508  0.3952
  124SOPE    HB13195   2.556   0.583   2.233 -0.3787 -0.0362  1.8874
  124SOPE    C213196   2.462   0.736   2.346  0.1529 -0.5933 -0.4577
  124SOPE    HS13197   2.521   0.706   2.435 -0.9485  2.5447  1.5172
  124SOPE   O2113198   2.328   0.675   2.369  0.3825 -0.2956 -0.4745
  124SOPE   C2113199   2.340   0.543   2.418  0.3112  0.5390 -0.0413
  124SOPE   O2213200   2.443   0.484   2.433 -0.3032 -0.0444  0.3451
  124SOPE   C2213201   2.199   0.493   2.441 -0.4615  0.4605  0.4202
  124SOPE   H2R13202   2.186   0.412   2.366  1.2750  0.3863  0.1710
  124SOPE   H2S13203   2.124   0.570   2.412 -2.3110 -1.2953  0.3317
  124SOPE    C313204   2.451   0.893   2.350  0.0099  0.3536  0.1487
  124SOPE    HX13205   2.380   0.921   2.269 -0.2686 -2.2761 -0.6114
  124SOPE    HY13206   2.550   0.939   2.329 -0.4377  0.7367 -1.2404
  124SOPE   O3113207   2.392   0.939   2.473 -0.4635 -0.0326 -0.0050
  124SOPE   C3113208   2.472   0.927   2.576  0.5893 -0.2299  0.6849
  124SOPE   O3213209   2.591   0.899   2.574 -0.2991 -0.2109  0.2498
  124SOPE   C3213210   2.399   0.951   2.710 -0.7012 -0.1277 -0.4422
  124SOPE   H2X13211   2.292   0.926   2.695 -1.2055  0.6841  1.5238
  124SOPE   H2Y13212   2.401   1.060   2.733 -1.3179 -0.6629  2.4793
  124SOPE   C2313213   2.181   0.434   2.582 -0.3206 -0.0263 -0.2087
  124SOPE   H3R13214   2.233   0.336   2.597 -0.2070  0.0681  0.0213
  124SOPE   H3S13215   2.076   0.406   2.602  0.2146 -1.2897  1.1059
  124SOPE   C2413216   2.231   0.520   2.706  0.0131 -0.3172  1.0061
  124SOPE   H4R13217   2.337   0.549   2.688 -0.9291  1.3340 -3.2952
  124SOPE   H4S13218   2.168   0.612   2.705 -2.0569 -1.5745 -2.8567
  124SOPE   C2513219   2.219   0.446   2.832 -0.0969 -0.1218  0.2604
  124SOPE   H5R13220   2.118   0.406   2.857  0.3902 -1.5592 -0.0294
  124SOPE   H5S13221   2.287   0.358   2.831  1.1033  0.7415  1.7337
  124SOPE   C2613222   2.253   0.525   2.958 -0.0199  0.3401 -0.5963
  124SOPE   H6R13223   2.353   0.571   2.944 -0.0153  0.8748  0.9854
  124SOPE   H6S13224   2.187   0.611   2.981  0.5473  1.2161 -2.1203
  124SOPE   C2713225   2.250   0.431   3.082 -0.2648 -0.2104  0.8672
  124SOPE   H7R13226   2.145   0.394   3.078 -0.0643 -0.6798 -1.2543
  124SOPE   H7S13227   2.316   0.346   3.056  0.7958  1.0003 -0.5435
  124SOPE   C2813228   2.285   0.511   3.208  0.0911  0.5490  0.1477
  124SOPE   H8R13229   2.377   0.571   3.191  0.4246  0.0321  0.1206
  124SOPE   H8S13230   2.215   0.595   3.231  0.7286  1.5481 -1.3977
  124SOPE   C2913231   2.306   0.411   3.319  0.0321 -0.2710 -0.4580
  124SOPE   H9113232   2.384   0.339   3.290  0.2755 -0.3150  0.2866
  124SOPE  C21013233   2.254   0.407   3.446 -0.2157  0.3549  0.3429
  124SOPE  H10113234   2.281   0.316   3.501 -1.3987  1.0041  2.1023
  124SOPE  C21113235   2.168   0.507   3.514  0.3109 -0.2291  0.0936
  124SOPE  H11R13236   2.085   0.459   3.570 -1.0025  1.0794 -0.6706
  124SOPE  H11S13237   2.132   0.576   3.434  4.2334 -0.1919 -1.9264
  124SOPE  C21213238   2.247   0.590   3.619  0.4554 -0.2172  0.6931
  124SOPE  H12R13239   2.183   0.662   3.675 -0.8928 -1.1100  0.3511
  124SOPE  H12S13240   2.316   0.649   3.555 -1.4484  0.1424 -1.1564
  124SOPE  C21313241   2.338   0.515   3.718  0.3979  0.1422 -0.4265
  124SOPE  H13R13242   2.406   0.455   3.654 -0.5725 -0.1852 -1.1821
  124SOPE  H13S13243   2.270   0.447   3.775 -2.2581  3.7017  1.0012
  124SOPE  C21413244   2.422   0.606   3.815 -0.0893  0.6702  0.8162
  124SOPE  H14R13245   2.474   0.684   3.755 -0.0144 -2.0072 -2.9604
  124SOPE  H14S13246   2.496   0.529   3.847 -0.7150 -0.0745  0.5071
  124SOPE  C21513247   2.347   0.659   3.932  0.3250 -0.1319  0.3952
  124SOPE  H15R13248   2.247   0.696   3.900  2.0924  1.8812 -3.4648
  124SOPE  H15S13249   2.394   0.751   3.971 -3.2534  2.0329  0.0835
  124SOPE  C21613250   2.338   0.562   4.059 -0.0535 -0.7982  0.3773
  124SOPE  H16R13251   2.433   0.513   4.088  1.2786  0.6096 -1.3313
  124SOPE  H16S13252   2.280   0.471   4.037 -0.5320 -0.4985  0.3852
  124SOPE  C21713253   2.272   0.626   4.175 -0.5224 -0.1415  0.1992
  124SOPE  H17R13254   2.164   0.642   4.154 -0.7483 -1.5408  0.2076
  124SOPE  H17S13255   2.334   0.718   4.186  0.3981 -0.7214  0.0158
  124SOPE  C21813256   2.285   0.535   4.297  0.0739  0.1466 -0.0521
  124SOPE  H18R13257   2.217   0.447   4.289 -0.5903  0.6926 -0.7116
  124SOPE  H18S13258   2.245   0.586   4.387 -3.0295 -0.1043 -1.1374
  124SOPE  H18T13259   2.387   0.495   4.309  0.1739  0.2857 -0.4131
  124SOPE   C3313260   2.458   0.874   2.832  0.6375  0.2676 -0.1249
  124SOPE   H3X13261   2.568   0.886   2.849  0.4670  2.7036 -0.4622
  124SOPE   H3Y13262   2.437   0.765   2.822  3.2077 -0.1627 -1.9552
  124SOPE   C3413263   2.403   0.927   2.965 -0.3587  0.2569 -1.1479
  124SOPE   H4X13264   2.292   0.923   2.961 -0.4123  0.6238 -0.2077
  124SOPE   H4Y13265   2.428   1.035   2.970 -0.3543  0.2868 -1.7087
  124SOPE   C3513266   2.451   0.861   3.091  0.2783  0.1513 -0.4216
  124SOPE   H5X13267   2.560   0.877   3.081  0.3496 -0.1742 -0.1840
  124SOPE   H5Y13268   2.457   0.750   3.095 -0.9518  0.0771 -0.2274
  124SOPE   C3613269   2.399   0.919   3.219  0.2377  0.1644  0.8922
  124SOPE   H6X13270   2.294   0.885   3.225  0.6192 -1.3873 -0.5953
  124SOPE   H6Y13271   2.391   1.030   3.215  0.0668  0.1765  1.4069
  124SOPE   C3713272   2.486   0.882   3.337 -0.1753 -0.2627 -0.6948
  124SOPE   H7X13273   2.595   0.903   3.323  0.1897 -2.4046 -1.4284
  124SOPE   H7Y13274   2.480   0.774   3.362  0.2806  0.1059  1.0952
  124SOPE   C3813275   2.443   0.963   3.465 -0.9875 -0.7853 -0.6126
  124SOPE   H8X13276   2.337   0.949   3.492 -0.5000 -1.7921  0.9336
  124SOPE   H8Y13277   2.462   1.069   3.437  1.0579 -0.7792  0.5832
  124SOPE   C3913278   2.547   0.940   3.579  0.6689 -0.0543 -0.0717
  124SOPE   H9X13279   2.651   0.944   3.539  0.2651 -0.9322 -1.2636
  124SOPE   H9Y13280   2.540   0.831   3.596 -0.6404 -0.4308 -2.5549
  124SOPE  C31013281   2.514   1.027   3.705  0.4171  0.1854  0.2617
  124SOPE  H10X13282   2.404   1.025   3.725  0.3697 -3.7780  0.5380
  124SOPE  H10Y13283   2.552   1.130   3.692  2.2903 -0.2805  1.7713
  124SOPE  C31113284   2.583   0.974   3.830  0.7522  0.0725  0.0893
  124SOPE  H11X13285   2.693   0.992   3.826  0.7258  0.2643  0.2144
  124SOPE  H11Y13286   2.569   0.864   3.833  0.1255 -0.0125 -2.8759
  124SOPE  C31213287   2.520   1.024   3.955  0.2008  0.0141  0.0170
  124SOPE  H12X13288   2.413   0.996   3.958  0.2323 -0.0818  0.3614
  124SOPE  H12Y13289   2.525   1.135   3.948 -2.1391  0.1339 -0.4526
  124SOPE  C31313290   2.587   0.972   4.079  0.1731  0.0923  0.5770
  124SOPE  H13X13291   2.692   1.006   4.077  0.3859 -0.4223  1.9361
  124SOPE  H13Y13292   2.581   0.862   4.065 -2.2378  0.2951 -0.5776
  124SOPE  C31413293   2.513   1.007   4.208  0.0051  0.2249  0.2193
  124SOPE  H14X13294   2.411   0.962   4.211  0.2377 -0.3041  0.3903
  124SOPE  H14Y13295   2.503   1.117   4.221  0.1725  0.2908 -0.2226
  124SOPE  C31513296   2.575   0.948   4.335 -0.4172  0.8952 -0.5578
  124SOPE  H15X13297   2.671   0.996   4.363 -0.9881  0.7185  1.9290
  124SOPE  H15Y13298   2.597   0.841   4.315 -0.6820  0.9479 -1.1371
  124SOPE  C31613299   2.485   0.956   4.459  0.2450  0.2262 -0.0981
  124SOPE  H16X13300   2.406   0.878   4.446  1.5076 -1.3275  1.1861
  124SOPE  H16Y13301   2.433   1.053   4.476  2.2673  1.4801 -0.8064
  124SOPE  C31713302   2.545   0.900   4.597  0.4347 -0.4339  0.8273
  124SOPE  H17X13303   2.588   0.800   4.576 -1.5503 -0.9991 -0.8547
  124SOPE  H17Y13304   2.466   0.879   4.673 -0.5250 -1.6749 -0.4692
  124SOPE  C31813305   2.651   0.987   4.653  0.2956  0.2440  0.1231
  124SOPE  H18X13306   2.658   0.962   4.761 -3.6684  1.0757  0.7328
  124SOPE  H18Y13307   2.643   1.096   4.632  0.4040  0.4114  0.9219
  124SOPE  H18Z13308   2.755   0.973   4.619  0.4445 -1.4051  1.1372
  125SOPE     N13309   4.650   0.782   2.287  0.3395 -0.6305 -0.8376
  125SOPE   HN113310   4.569   0.720   2.308 -0.7052  1.1523  0.6363
  125SOPE   HN213311   4.620   0.873   2.326  1.8247 -1.8094  3.6367
  125SOPE   HN313312   4.655   0.792   2.183 -1.5503  2.0725 -0.7637
  125SOPE   C1213313   4.783   0.724   2.335  0.9124 -0.0884 -0.1110
  125SOPE  H12A13314   4.854   0.809   2.338  0.5868  0.1884 -0.1671
  125SOPE  H12B13315   4.802   0.644   2.260 -0.3735 -0.9280  0.4141
  125SOPE   C1113316   4.765   0.655   2.476 -1.0858  0.6286  0.3893
  125SOPE  H11A13317   4.713   0.720   2.549  0.8147  1.0131  1.4706
  125SOPE  H11B13318   4.868   0.645   2.516 -0.4530  0.8253 -1.1312
  125SOPE     P13319   4.565   0.488   2.446  0.3903  0.0484 -0.3315
  125SOPE   O1313320   4.554   0.380   2.346 -0.0993  0.2721 -0.3463
  125SOPE   O1413321   4.485   0.608   2.415 -0.6759  0.1882 -1.2046
  125SOPE   O1213322   4.716   0.521   2.462 -0.3890  0.3243  0.4049
  125SOPE   O1113323   4.517   0.436   2.586 -0.0125 -0.5635 -0.3399
  125SOPE    C113324   4.594   0.345   2.659 -0.1328 -0.3989  0.7662
  125SOPE    HA13325   4.703   0.356   2.641  0.0590  1.0810  2.5235
  125SOPE    HB13326   4.562   0.240   2.643 -0.6956 -0.2623  0.9680
  125SOPE    C213327   4.561   0.373   2.813  0.4646 -0.0297 -0.2096
  125SOPE    HS13328   4.624   0.306   2.875  0.4468  0.1571  0.0108
  125SOPE   O2113329   4.422   0.355   2.832 -0.1785 -0.2348 -0.1021
  125SOPE   C2113330   4.384   0.234   2.879 -0.4381 -0.2217 -0.3191
  125SOPE   O2213331   4.458   0.141   2.902  0.3288 -0.2144 -0.0560
  125SOPE   C2213332   4.229   0.223   2.890 -0.1442 -0.1168 -0.8223
  125SOPE   H2R13333   4.202   0.256   2.788  0.0567  2.0111 -0.2496
  125SOPE   H2S13334   4.192   0.301   2.960  0.3352 -0.2342 -0.4367
  125SOPE    C313335   4.596   0.513   2.855  0.3171  0.5196  1.3586
  125SOPE    HX13336   4.551   0.537   2.953 -2.4900 -0.7383  0.4981
  125SOPE    HY13337   4.554   0.578   2.775  1.6218  1.1645  1.1756
  125SOPE   O3113338   4.736   0.526   2.868 -0.4197 -0.0362  0.5172
  125SOPE   C3113339   4.781   0.648   2.845 -0.3673 -0.1985 -0.5209
  125SOPE   O3213340   4.715   0.746   2.815 -0.3060  0.1976  0.3535
  125SOPE   C3213341   4.937   0.650   2.888  0.4429  0.5699  0.0758
  125SOPE   H2X13342   4.973   0.755   2.878 -0.1306  0.8143  0.5149
  125SOPE   H2Y13343   4.986   0.588   2.810 -0.8261 -3.0288  1.8899
  125SOPE   C2313344   4.191   0.083   2.930 -0.5519 -0.1076 -0.7772
  125SOPE   H3R13345   4.230   0.001   2.867 -1.3267 -2.1186  1.2133
  125SOPE   H3S13346   4.081   0.086   2.914 -0.4728  1.4024 -1.1862
  125SOPE   C2413347   4.222   0.058   3.079  0.2072 -0.1294  0.0554
  125SOPE   H4R13348   4.151  -0.012   3.129 -0.2918  0.4278  0.1353
  125SOPE   H4S13349   4.320   0.006   3.074  0.2594  0.0920 -1.9190
  125SOPE   C2513350   4.242   0.184   3.166  0.6254 -0.3322  0.8547
  125SOPE   H5R13351   4.340   0.232   3.148  0.9544  0.4807  4.1193
  125SOPE   H5S13352   4.166   0.261   3.141  1.5643  0.4808  0.4392
  125SOPE   C2613353   4.218   0.160   3.317  0.3981  0.1494  0.5151
  125SOPE   H6R13354   4.115   0.119   3.331 -0.5094  2.3052  0.5155
  125SOPE   H6S13355   4.282   0.074   3.345 -0.0990 -0.4156 -0.0219
  125SOPE   C2713356   4.236   0.282   3.394 -0.1122 -0.1659 -0.4041
  125SOPE   H7R13357   4.338   0.325   3.380 -0.0615  0.5707  1.8942
  125SOPE   H7S13358   4.168   0.363   3.359  0.0497 -0.2997 -1.0534
  125SOPE   C2813359   4.230   0.264   3.546 -0.0817  0.3973 -0.6957
  125SOPE   H8R13360   4.304   0.187   3.577  0.0745  0.8199  0.0019
  125SOPE   H8S13361   4.264   0.366   3.575 -0.6309  0.6715 -1.0188
  125SOPE   C2913362   4.097   0.226   3.604  0.1023 -0.1873  0.6913
  125SOPE   H9113363   4.041   0.157   3.539  2.0555 -1.2067  0.0287
  125SOPE  C21013364   4.056   0.238   3.732  0.0651 -0.9474 -0.2718
  125SOPE  H10113365   3.951   0.211   3.752  0.0885 -0.0469  1.2024
  125SOPE  C21113366   4.139   0.310   3.834 -0.0366 -0.0038 -0.0792
  125SOPE  H11R13367   4.166   0.410   3.793 -1.8428  0.9641  0.9361
  125SOPE  H11S13368   4.233   0.254   3.854  0.4828  1.2356  1.0897
  125SOPE  C21213369   4.082   0.337   3.974 -0.0286  0.6140 -0.0162
  125SOPE  H12R13370   4.033   0.253   4.028 -0.5907  0.7990 -0.2311
  125SOPE  H12S13371   4.007   0.418   3.965 -0.2774  0.2840 -1.1245
  125SOPE  C21313372   4.187   0.393   4.072  0.1764  0.0193 -0.0487
  125SOPE  H13R13373   4.228   0.490   4.037 -1.4400  1.1533  1.0441
  125SOPE  H13S13374   4.266   0.316   4.087  0.7272  0.4276 -0.7830
  125SOPE  C21413375   4.124   0.428   4.203 -0.6941  0.9430 -0.9985
  125SOPE  H14R13376   4.117   0.332   4.259 -2.0928  0.3765 -2.0625
  125SOPE  H14S13377   4.031   0.484   4.179 -0.1648  2.0065 -0.6523
  125SOPE  C21513378   4.220   0.527   4.281 -0.7218 -0.7576 -0.2559
  125SOPE  H15R13379   4.162   0.563   4.369 -2.0970  0.3565 -1.5671
  125SOPE  H15S13380   4.246   0.623   4.231  2.1011 -0.1863  2.0628
  125SOPE  C21613381   4.354   0.463   4.326 -0.0349 -0.0646 -0.2283
  125SOPE  H16R13382   4.419   0.454   4.236  1.2520  1.7945  0.4408
  125SOPE  H16S13383   4.335   0.363   4.369  0.0503  0.3021  0.6817
  125SOPE  C21713384   4.427   0.557   4.426  0.0714 -0.3062  0.1304
  125SOPE  H17R13385   4.444   0.649   4.366  0.7388 -0.2533  0.3972
  125SOPE  H17S13386   4.531   0.526   4.448 -0.2508 -1.6697 -0.1717
  125SOPE  C21813387   4.359   0.593   4.561  0.2447 -0.4690 -0.3457
  125SOPE  H18R13388   4.314   0.517   4.627 -0.1282  0.2654  0.2573
  125SOPE  H18S13389   4.280   0.666   4.531  0.2276 -0.5784 -0.5726
  125SOPE  H18T13390   4.431   0.661   4.613  3.1256 -2.1148 -1.9027
  125SOPE   C3313391   4.962   0.598   3.023  0.4110  0.0034 -0.2705
  125SOPE   H3X13392   5.070   0.573   3.027  0.5736  0.7089 -0.0416
  125SOPE   H3Y13393   4.892   0.519   3.058 -0.5458  1.2824  0.8232
  125SOPE   C3413394   4.949   0.716   3.126 -0.4176  0.2642  0.4420
  125SOPE   H4X13395   4.844   0.751   3.136 -0.0111  0.9628  3.3616
  125SOPE   H4Y13396   5.009   0.801   3.089 -1.2151  0.1999 -1.0843
  125SOPE   C3513397   4.987   0.657   3.262 -1.3159 -0.1421  0.6247
  125SOPE   H5X13398   5.080   0.600   3.237 -1.4794  0.7548 -2.5259
  125SOPE   H5Y13399   4.920   0.575   3.293 -1.6822  0.4354  1.3809
  125SOPE   C3613400   5.003   0.752   3.379  0.1063  0.5051 -0.1543
  125SOPE   H6X13401   4.930   0.834   3.365 -1.5005 -1.2163 -2.7705
  125SOPE   H6Y13402   5.107   0.792   3.376  0.5629 -0.6491 -2.2434
  125SOPE   C3713403   4.980   0.691   3.521 -0.0110  0.1732  0.4127
  125SOPE   H7X13404   5.038   0.597   3.525 -0.0117  0.2110  1.5822
  125SOPE   H7Y13405   4.873   0.665   3.538  0.5866 -0.8878  3.1666
  125SOPE   C3813406   5.034   0.784   3.633  0.1504  0.3893  0.6797
  125SOPE   H8X13407   5.020   0.890   3.603 -1.0645  0.1880  0.4705
  125SOPE   H8Y13408   5.137   0.743   3.637  0.2629  0.1634 -2.2529
  125SOPE   C3913409   4.980   0.768   3.774  0.7770 -1.3550 -0.0394
  125SOPE   H9X13410   4.993   0.667   3.820 -0.4231 -0.8183  1.5630
  125SOPE   H9Y13411   4.870   0.782   3.768  0.9842  0.9241  0.6384
  125SOPE  C31013412   5.041   0.876   3.858 -0.3839  0.5554 -0.4962
  125SOPE  H10X13413   5.008   0.974   3.816 -0.8692  0.5453 -0.1461
  125SOPE  H10Y13414   5.149   0.886   3.838  0.0324  1.1294  1.7244
  125SOPE  C31113415   5.000   0.871   4.007  0.2826 -0.2837 -0.8803
  125SOPE  H11X13416   4.895   0.842   4.031  0.6650 -1.0829 -0.1265
  125SOPE  H11Y13417   5.021   0.969   4.054  0.6963  0.2140 -2.0800
  125SOPE  C31213418   5.096   0.784   4.092 -0.3490  0.2246  0.3143
  125SOPE  H12X13419   5.199   0.798   4.053  0.3889 -1.2033  1.6470
  125SOPE  H12Y13420   5.060   0.680   4.074 -3.0058  1.1098  0.0284
  125SOPE  C31313421   5.100   0.812   4.240  0.2431  0.5627 -0.0943
  125SOPE  H13X13422   5.111   0.922   4.244  0.2395  0.6315 -1.4936
  125SOPE  H13Y13423   5.190   0.760   4.279 -1.5096 -3.6376 -1.0866
  125SOPE  C31413424   4.982   0.753   4.313 -0.7710 -0.3362  0.2505
  125SOPE  H14X13425   4.986   0.642   4.304 -1.7231 -0.2717 -1.3900
  125SOPE  H14Y13426   4.886   0.785   4.267  0.6560 -1.7273 -4.1313
  125SOPE  C31513427   4.970   0.801   4.461  0.3536 -0.6513 -0.2487
  125SOPE  H15X13428   4.972   0.909   4.439  0.1590 -0.6493 -0.2601
  125SOPE  H15Y13429   5.064   0.778   4.515 -0.7122 -0.8616  1.6293
  125SOPE  C31613430   4.848   0.748   4.540  0.4285 -0.4366 -0.2571
  125SOPE  H16X13431   4.875   0.649   4.582 -2.1430 -1.8172 -1.5890
  125SOPE  H16Y13432   4.767   0.729   4.466 -0.1808 -0.3957  0.3795
  125SOPE  C31713433   4.801   0.852   4.652  0.3120 -0.4994 -0.9120
  125SOPE  H17X13434   4.784   0.949   4.601  1.1837  0.4871  0.5973
  125SOPE  H17Y13435   4.880   0.876   4.726 -0.9975  1.6125 -0.1075
  125SOPE  C31813436   4.669   0.822   4.728 -0.1891  0.3937  0.0412
  125SOPE  H18X13437   4.586   0.835   4.656  0.1782  1.7903 -0.1512
  125SOPE  H18Y13438   4.653   0.886   4.817  0.3077  0.4984  0.0562
  125SOPE  H18Z13439   4.671   0.716   4.762 -1.8632  0.2215 -0.2946
  126SOPE     N13440   6.288   2.732   2.515  0.1832 -0.2688 -0.3550
  126SOPE   HN113441   6.289   2.656   2.585  0.0617 -0.1035 -0.1706
  126SOPE   HN213442   6.296   2.819   2.572  1.2853 -0.3650 -0.3438
  126SOPE   HN313443   6.200   2.726   2.460 -1.5594  1.5485  2.0050
  126SOPE   C1213444   6.401   2.707   2.417 -0.2109 -0.3576 -0.2063
  126SOPE  H12A13445   6.367   2.621   2.356 -0.2993  0.5667 -1.4979
  126SOPE  H12B13446   6.490   2.683   2.480 -1.2763  1.3562  2.0902
  126SOPE   C1113447   6.435   2.829   2.327 -0.1710  0.6948 -0.4514
  126SOPE  H11A13448   6.340   2.880   2.300 -1.1402 -0.7436  0.0852
  126SOPE  H11B13449   6.479   2.787   2.234 -2.3463 -1.1165 -0.7475
  126SOPE     P13450   6.673   2.946   2.371  0.0631 -0.1144  0.6047
  126SOPE   O1313451   6.716   3.070   2.437 -0.2001  0.1652  1.3033
  126SOPE   O1413452   6.706   2.945   2.224 -0.3368 -0.6015  0.6071
  126SOPE   O1213453   6.515   2.937   2.389 -0.1621  0.1219  0.0814
  126SOPE   O1113454   6.735   2.815   2.446  0.2844 -0.0504  0.8078
  126SOPE    C113455   6.715   2.788   2.582 -0.2254 -0.0285 -1.1590
  126SOPE    HA13456   6.673   2.687   2.597 -3.3290  1.2316 -0.4950
  126SOPE    HB13457   6.641   2.859   2.627  0.4730  0.5879 -0.9625
  126SOPE    C213458   6.847   2.809   2.654  0.3454  0.2257  0.0449
  126SOPE    HS13459   6.915   2.725   2.629 -1.8986 -1.4264 -0.7480
  126SOPE   O2113460   6.811   2.804   2.792  0.2034  0.5262 -0.1422
  126SOPE   C2113461   6.902   2.743   2.874 -0.2697 -0.1528 -0.0947
  126SOPE   O2213462   7.005   2.690   2.835 -0.7024  0.6807 -0.2832
  126SOPE   C2213463   6.861   2.771   3.019 -0.6128 -0.2919  1.1545
  126SOPE   H2R13464   6.764   2.723   3.045 -0.8689 -0.1622  0.4781
  126SOPE   H2S13465   6.846   2.881   3.016  2.2340  0.1547  0.6077
  126SOPE    C313466   6.927   2.934   2.620  0.8978 -0.1541 -0.6328
  126SOPE    HX13467   6.866   3.020   2.657  2.8033  0.7397  0.6103
  126SOPE    HY13468   6.941   2.952   2.511  0.3049  1.6555 -0.4582
  126SOPE   O3113469   7.054   2.945   2.684 -0.4098  0.0481  0.3887
  126SOPE   C3113470   7.156   2.895   2.618 -0.0761 -1.0504 -0.0653
  126SOPE   O3213471   7.157   2.854   2.508  0.1006 -0.1560  0.0177
  126SOPE   C3213472   7.284   2.916   2.700  0.4693 -0.7089 -0.4241
  126SOPE   H2X13473   7.319   3.018   2.673  0.9208 -0.8478 -0.3711
  126SOPE   H2Y13474   7.363   2.847   2.666  0.3745  0.3242 -2.9578
  126SOPE   C2313475   6.971   2.728   3.120  0.5508  0.1960 -0.1569
  126SOPE   H3R13476   7.073   2.756   3.087  0.2528 -0.7262 -2.0171
  126SOPE   H3S13477   6.980   2.617   3.122  1.6139  0.2608 -0.6368
  126SOPE   C2413478   6.936   2.779   3.256 -0.1504 -0.5995 -0.0340
  126SOPE   H4R13479   6.840   2.834   3.240  0.6442  1.0698  0.6162
  126SOPE   H4S13480   6.927   2.689   3.321 -1.3773  0.0024  0.6887
  126SOPE   C2513481   7.034   2.878   3.325 -0.0501 -0.5445  0.1231
  126SOPE   H5R13482   7.130   2.829   3.350  0.0873  0.4755  1.7226
  126SOPE   H5S13483   7.041   2.968   3.261 -0.3524 -1.5382 -1.3661
  126SOPE   C2613484   6.990   2.916   3.469  0.2624  0.5033  0.6148
  126SOPE   H6R13485   7.077   2.974   3.505  0.5908  1.3744 -1.4441
  126SOPE   H6S13486   6.911   2.993   3.477  0.3064  0.5062  1.0562
  126SOPE   C2713487   6.963   2.799   3.558  0.3381  0.4240 -0.8526
  126SOPE   H7R13488   6.856   2.772   3.545 -0.1190  1.8917 -0.3723
  126SOPE   H7S13489   7.016   2.706   3.528 -0.3255 -0.9304  1.8265
  126SOPE   C2813490   6.994   2.808   3.706  0.0437  0.1846 -0.8698
  126SOPE   H8R13491   6.955   2.717   3.755 -3.0286 -0.0255 -3.4084
  126SOPE   H8S13492   7.104   2.796   3.717  0.0263  1.1072  0.6206
  126SOPE   C2913493   6.950   2.932   3.780  0.3414 -0.3032  0.1124
  126SOPE   H9113494   6.960   3.017   3.711  0.4245 -1.2804 -1.1227
  126SOPE  C21013495   6.924   2.945   3.907 -0.5535  0.1090  0.6859
  126SOPE  H10113496   6.912   3.047   3.947 -3.2757  0.0935  0.0953
  126SOPE  C21113497   6.914   2.830   4.004 -0.4398 -0.4134  0.0970
  126SOPE  H11R13498   6.916   2.732   3.951  0.6508 -1.8270  2.5558
  126SOPE  H11S13499   6.820   2.835   4.063 -1.4878 -2.7067 -1.2311
  126SOPE  C21213500   7.026   2.812   4.106 -0.3734  0.2159 -0.3293
  126SOPE  H12R13501   7.122   2.792   4.054 -1.2728 -0.4874 -1.7955
  126SOPE  H12S13502   7.010   2.718   4.163  1.5102 -0.0396 -0.1576
  126SOPE  C21313503   7.044   2.921   4.204  0.6147  0.1804 -0.2739
  126SOPE  H13R13504   6.947   2.942   4.255  0.0174  1.4447 -1.8449
  126SOPE  H13S13505   7.070   3.020   4.161  2.4132  0.0423  0.4325
  126SOPE  C21413506   7.150   2.895   4.315 -0.3001 -0.1090 -0.2808
  126SOPE  H14R13507   7.247   2.882   4.261  2.0806  4.1638  2.3749
  126SOPE  H14S13508   7.126   2.804   4.374  1.0337  0.4001  1.1091
  126SOPE  C21513509   7.161   3.016   4.415  0.0126  0.6575  0.2656
  126SOPE  H15R13510   7.066   3.024   4.472  1.2227 -0.3673  2.5539
  126SOPE  H15S13511   7.197   3.108   4.364 -0.3670  0.4778 -0.3343
  126SOPE  C21613512   7.256   2.987   4.526  0.0832  0.4582  0.0465
  126SOPE  H16R13513   7.239   2.886   4.569 -2.0924  1.0521  0.7495
  126SOPE  H16S13514   7.234   3.054   4.612 -2.0472  0.7441 -0.6483
  126SOPE  C21713515   7.395   3.020   4.492 -0.1282 -0.0881  0.3668
  126SOPE  H17R13516   7.398   3.130   4.477 -0.2394 -0.2355 -0.7675
  126SOPE  H17S13517   7.411   2.973   4.393  3.0489 -1.1361  1.2346
  126SOPE  C21813518   7.507   2.975   4.592  0.1928  0.5159  0.4891
  126SOPE  H18R13519   7.607   2.989   4.547  0.1467 -2.7852 -0.9613
  126SOPE  H18S13520   7.502   2.867   4.619 -0.9670  0.0768 -1.2765
  126SOPE  H18T13521   7.497   3.033   4.686 -1.2747  1.2406 -0.0793
  126SOPE   C3313522   7.271   2.912   2.852 -1.1180 -0.0867 -0.3567
  126SOPE   H3X13523   7.239   2.811   2.886  0.4693 -0.2893  0.6472
  126SOPE   H3Y13524   7.190   2.982   2.882  0.8239  1.0607  2.7563
  126SOPE   C3413525   7.406   2.963   2.921 -0.3556 -0.2118 -0.4875
  126SOPE   H4X13526   7.418   3.069   2.888  0.1350  0.0621  0.5222
  126SOPE   H4Y13527   7.494   2.914   2.875  0.9452  3.0376 -1.7247
  126SOPE   C3513528   7.391   2.961   3.072 -1.0944 -0.4253 -0.3115
  126SOPE   H5X13529   7.389   2.853   3.099 -1.4941 -0.3703 -0.1071
  126SOPE   H5Y13530   7.291   3.003   3.099 -0.1183  0.8104  1.5250
  126SOPE   C3613531   7.507   3.037   3.137  0.8093 -0.8682  0.1136
  126SOPE   H6X13532   7.495   3.142   3.103  1.2830 -0.9623 -0.3630
  126SOPE   H6Y13533   7.609   3.001   3.111  1.4347  0.3910  0.7525
  126SOPE   C3713534   7.499   3.055   3.288  0.3944 -0.1135 -0.0006
  126SOPE   H7X13535   7.557   2.968   3.328 -2.3224 -2.0999 -0.0900
  126SOPE   H7Y13536   7.394   3.036   3.319  0.9433 -1.6362  1.0435
  126SOPE   C3813537   7.557   3.181   3.350  1.2680  0.3944  0.0994
  126SOPE   H8X13538   7.491   3.263   3.315  1.6956  1.3606  1.4437
  126SOPE   H8Y13539   7.659   3.207   3.313  0.9756  0.4102 -0.7045
  126SOPE   C3913540   7.570   3.184   3.498  0.1648  0.1357 -0.0296
  126SOPE   H9X13541   7.625   3.096   3.540  2.2468  0.1748 -2.4252
  126SOPE   H9Y13542   7.469   3.175   3.541  0.6464  3.2914  2.0575
  126SOPE  C31013543   7.637   3.310   3.562  0.5462 -0.0895  0.0022
  126SOPE  H10X13544   7.566   3.392   3.537  0.6019 -0.2429 -0.7058
  126SOPE  H10Y13545   7.731   3.336   3.509 -0.7609  0.9556 -1.9649
  126SOPE  C31113546   7.657   3.300   3.718  0.3755  0.5119  0.9066
  126SOPE  H11X13547   7.727   3.219   3.747 -1.3357 -1.8614 -1.0571
  126SOPE  H11Y13548   7.566   3.254   3.762  1.0453 -1.5393  0.2590
  126SOPE  C31213549   7.682   3.433   3.788  0.0645  0.1275 -0.1731
  126SOPE  H12X13550   7.681   3.401   3.895 -1.0513  0.4978 -0.0636
  126SOPE  H12Y13551   7.592   3.497   3.778 -0.2996 -0.0715  1.5154
  126SOPE  C31313552   7.806   3.503   3.736 -0.3184 -0.5666  0.0040
  126SOPE  H13X13553   7.795   3.532   3.629  0.0828 -0.4025  0.0044
  126SOPE  H13Y13554   7.892   3.433   3.740  0.8716  0.7323 -1.3032
  126SOPE  C31413555   7.845   3.629   3.816  0.0866  0.2772  0.8222
  126SOPE  H14X13556   7.763   3.703   3.805  0.2041  0.6511  2.1925
  126SOPE  H14Y13557   7.932   3.667   3.759 -1.3982  0.2745 -1.5614
  126SOPE  C31513558   7.886   3.611   3.963 -0.1694  0.5609  0.4010
  126SOPE  H15X13559   7.942   3.515   3.965 -2.6626 -0.9866  0.9625
  126SOPE  H15Y13560   7.788   3.600   4.015 -0.6007 -0.3441 -0.5619
  126SOPE  C31613561   7.964   3.724   4.022  0.0988  0.4433  0.2568
  126SOPE  H16X13562   8.047   3.736   3.949 -0.9161  0.7769 -0.8652
  126SOPE  H16Y13563   8.007   3.696   4.120  2.0476  3.3038  0.3286
  126SOPE  C31713564   7.885   3.851   4.046  0.7264  0.6293  0.0773
  126SOPE  H17X13565   7.802   3.838   4.119  0.0812  2.2524 -0.3171
  126SOPE  H17Y13566   7.825   3.875   3.956  1.0786 -4.0668 -1.6883
  126SOPE  C31813567   7.956   3.970   4.106 -0.5762 -0.0850 -0.0978
  126SOPE  H18X13568   7.886   4.056   4.114  0.1194  0.2917  3.5531
  126SOPE  H18Y13569   8.032   4.018   4.041 -0.6432 -0.5149 -0.5022
  126SOPE  H18Z13570   7.986   3.956   4.212 -0.9023  5.6170  1.0564
  127SOPE     N13571   1.481   4.834   2.126  0.1495 -0.1931  0.0534
  127SOPE   HN113572   1.546   4.768   2.078 -0.6131 -0.3821 -0.7680
  127SOPE   HN213573   1.520   4.930   2.117 -0.0553  0.0540  1.6323
  127SOPE   HN313574   1.486   4.801   2.224  0.2752  1.2280  0.5434
  127SOPE   C1213575   1.353   4.804   2.060 -0.0670 -0.4365  0.2084
  127SOPE  H12A13576   1.274   4.860   2.114  0.6083 -1.2320  2.1199
  127SOPE  H12B13577   1.323   4.699   2.079  2.0602 -1.0967  0.2392
  127SOPE   C1113578   1.350   4.849   1.911  0.1961  0.5577  0.1324
  127SOPE  H11A13579   1.388   4.766   1.848  0.2292 -0.3432  1.3075
  127SOPE  H11B13580   1.418   4.936   1.898  0.6933  0.0849 -0.5382
  127SOPE     P13581   1.116   4.775   1.819  0.3233  0.1605 -0.4002
  127SOPE   O1313582   1.177   4.715   1.698  0.0193 -0.3312 -0.0854
  127SOPE   O1413583   0.982   4.827   1.798  0.2354 -0.4240 -0.5167
  127SOPE   O1213584   1.213   4.890   1.871 -0.7159  0.8117 -0.1210
  127SOPE   O1113585   1.108   4.670   1.936 -0.1391  0.0268 -0.2392
  127SOPE    C113586   0.985   4.599   1.970 -0.7466  0.1416 -1.0572
  127SOPE    HA13587   0.973   4.512   1.903 -0.1389 -1.9172  1.3183
  127SOPE    HB13588   0.897   4.666   1.963  0.4197  1.7698 -0.8203
  127SOPE    C213589   1.003   4.543   2.114  0.3199  0.8115 -0.1271
  127SOPE    HS13590   0.915   4.482   2.143  0.2914  0.8512 -0.1297
  127SOPE   O2113591   1.034   4.645   2.217 -0.4155  0.2431 -0.5123
  127SOPE   C2113592   0.926   4.711   2.244  0.5204 -0.1530 -0.2660
  127SOPE   O2213593   0.817   4.700   2.190  0.2595  0.4167 -0.1487
  127SOPE   C2213594   0.963   4.825   2.348  0.1140 -0.7430  0.1121
  127SOPE   H2R13595   0.892   4.910   2.340  0.8789 -0.0843  0.2901
  127SOPE   H2S13596   1.060   4.868   2.317 -1.3215  1.0014 -2.3464
  127SOPE    C313597   1.125   4.442   2.130  0.1786  0.1976 -0.5124
  127SOPE    HX13598   1.220   4.495   2.105 -1.1895  3.0215 -0.1930
  127SOPE    HY13599   1.123   4.385   2.035  0.2180  0.3562 -0.6102
  127SOPE   O3113600   1.118   4.368   2.252 -0.6266  0.5620 -0.2443
  127SOPE   C3113601   1.198   4.408   2.349  0.6909 -0.3586  0.4308
  127SOPE   O3213602   1.278   4.496   2.335 -0.6795 -0.1239 -0.3841
  127SOPE   C3213603   1.172   4.328   2.473  0.2236 -0.6633  0.3879
  127SOPE   H2X13604   1.197   4.221   2.457  0.4681 -0.6922  0.9245
  127SOPE   H2Y13605   1.063   4.325   2.496  0.3162  0.7347  1.1061
  127SOPE   C2313606   0.960   4.757   2.487  0.4165  0.3029 -0.1279
  127SOPE   H3R13607   1.041   4.681   2.485 -0.2140 -0.3493 -1.5666
  127SOPE   H3S13608   0.865   4.703   2.503 -1.1170  2.7397 -0.4581
  127SOPE   C2413609   0.980   4.863   2.601  0.0108 -0.0848 -0.3439
  127SOPE   H4R13610   1.085   4.899   2.597  0.1914  0.0503  3.0240
  127SOPE   H4S13611   0.908   4.947   2.587 -1.0250 -0.7132  1.0035
  127SOPE   C2513612   0.950   4.815   2.743 -0.2455 -0.1614  0.1816
  127SOPE   H5R13613   0.841   4.830   2.757  0.0997  0.6869  2.4639
  127SOPE   H5S13614   0.957   4.704   2.748 -0.4220 -0.2270 -0.9574
  127SOPE   C2613615   1.024   4.879   2.861 -0.3312 -0.1111  0.1857
  127SOPE   H6R13616   1.131   4.851   2.853 -0.7817 -1.7964 -0.2943
  127SOPE   H6S13617   1.027   4.990   2.857  1.1009 -0.1431 -0.3433
  127SOPE   C2713618   0.962   4.823   2.996 -0.5369 -0.1196 -0.2519
  127SOPE   H7R13619   0.852   4.815   2.989 -0.6607 -0.0728  1.2139
  127SOPE   H7S13620   1.004   4.720   2.998  0.3427  0.2223 -0.2645
  127SOPE   C2813621   1.013   4.922   3.107 -0.0506  0.6888 -0.0576
  127SOPE   H8R13622   1.121   4.901   3.123 -0.5036 -0.4678  1.8392
  127SOPE   H8S13623   1.009   5.030   3.079 -1.4486  0.7424  0.2815
  127SOPE   C2913624   0.942   4.900   3.235  0.0429  0.7420  0.0609
  127SOPE   H9113625   0.833   4.898   3.222  0.0437 -3.8147 -0.8335
  127SOPE  C21013626   0.995   4.864   3.350 -0.8853 -0.3955  0.5912
  127SOPE  H10113627   0.927   4.838   3.432 -1.7680  1.8055  0.6343
  127SOPE  C21113628   1.140   4.829   3.382 -0.2638  0.3674  0.2207
  127SOPE  H11R13629   1.169   4.870   3.481  1.8428  0.1531 -0.2548
  127SOPE  H11S13630   1.217   4.871   3.313 -0.1359 -0.2892 -0.0472
  127SOPE  C21213631   1.154   4.674   3.381 -0.6521 -0.2523  0.4742
  127SOPE  H12R13632   1.263   4.665   3.401 -0.2054  1.8889 -0.6245
  127SOPE  H12S13633   1.127   4.630   3.283 -1.2059  1.5407 -0.2261
  127SOPE  C21313634   1.089   4.592   3.498 -0.6238  0.4838 -0.1339
  127SOPE  H13R13635   1.133   4.490   3.490  2.0379  1.5293  0.2479
  127SOPE  H13S13636   0.980   4.590   3.479 -0.6358 -0.0566 -0.0434
  127SOPE  C21413637   1.122   4.656   3.636 -0.6804 -0.2986  0.2262
  127SOPE  H14R13638   1.058   4.747   3.641  0.6552  0.7822 -1.3518
  127SOPE  H14S13639   1.230   4.678   3.644 -1.0461  1.4471  0.7320
  127SOPE  C21513640   1.085   4.558   3.747 -0.2166 -1.3870 -0.0005
  127SOPE  H15R13641   1.140   4.464   3.727  0.6092 -0.5294 -1.9625
  127SOPE  H15S13642   0.976   4.539   3.736 -0.5694  0.9010 -1.0656
  127SOPE  C21613643   1.127   4.617   3.887 -0.5537 -0.3542  0.9565
  127SOPE  H16R13644   1.079   4.717   3.893 -0.1822 -0.1660  0.8375
  127SOPE  H16S13645   1.238   4.629   3.890 -0.2457 -2.0826 -1.4132
  127SOPE  C21713646   1.085   4.533   3.999  0.3897 -0.4254  0.2893
  127SOPE  H17R13647   1.149   4.442   4.000  2.7062  1.1019 -0.6855
  127SOPE  H17S13648   0.982   4.496   3.976  0.8330 -0.6239 -1.5531
  127SOPE  C21813649   1.084   4.598   4.136  0.4789  0.3206  0.3107
  127SOPE  H18R13650   1.014   4.684   4.138 -1.0073 -0.8579  1.9490
  127SOPE  H18S13651   1.186   4.629   4.168  0.9179 -1.6705  0.9479
  127SOPE  H18T13652   1.040   4.518   4.199 -4.2208  0.0034 -2.8964
  127SOPE   C3313653   1.252   4.376   2.590  0.4118  0.7063  0.0348
  127SOPE   H3X13654   1.359   4.397   2.569  0.2036  1.8072  0.0283
  127SOPE   H3Y13655   1.251   4.299   2.670 -0.7894 -0.0389 -0.6727
  127SOPE   C3413656   1.187   4.505   2.652 -0.1436 -0.0102 -0.3970
  127SOPE   H4X13657   1.083   4.471   2.675  0.6617 -3.1586 -0.9594
  127SOPE   H4Y13658   1.188   4.581   2.571  0.1006  1.2407  0.7538
  127SOPE   C3513659   1.260   4.565   2.778  0.8742 -0.3872 -0.7177
  127SOPE   H5X13660   1.183   4.625   2.832  2.1159 -0.6424  1.4317
  127SOPE   H5Y13661   1.331   4.639   2.736  1.2540 -0.6769 -0.5885
  127SOPE   C3613662   1.310   4.461   2.881  0.1270  0.5287 -1.0964
  127SOPE   H6X13663   1.389   4.393   2.842  2.1398 -0.5399  4.0728
  127SOPE   H6Y13664   1.228   4.388   2.898 -0.5009  0.6503 -3.2867
  127SOPE   C3713665   1.363   4.524   3.013 -0.0756  0.4946 -0.0768
  127SOPE   H7X13666   1.290   4.559   3.090  1.2949  2.0065  0.5907
  127SOPE   H7Y13667   1.433   4.607   2.989 -0.1468  0.4927 -0.2908
  127SOPE   C3813668   1.440   4.413   3.087  0.0223  0.3771  0.3017
  127SOPE   H8X13669   1.526   4.367   3.035 -1.1648 -1.9306  0.2699
  127SOPE   H8Y13670   1.372   4.326   3.094  2.7861 -1.8506  1.4577
  127SOPE   C3913671   1.482   4.460   3.229  1.0384  0.1774 -0.1199
  127SOPE   H9X13672   1.394   4.482   3.293  2.6358  2.1930  1.5211
  127SOPE   H9Y13673   1.543   4.553   3.235  2.8818 -1.0598  2.6914
  127SOPE  C31013674   1.566   4.357   3.311  0.3249  0.1859 -0.2877
  127SOPE  H10X13675   1.655   4.330   3.250  1.7740  1.7374  1.0456
  127SOPE  H10Y13676   1.497   4.271   3.331  0.2278  0.2705 -0.2577
  127SOPE  C31113677   1.619   4.415   3.443  0.3220 -0.1729  0.0531
  127SOPE  H11X13678   1.683   4.503   3.423  1.5778 -1.1846 -0.4649
  127SOPE  H11Y13679   1.676   4.326   3.477  1.3008  0.2887 -0.3426
  127SOPE  C31213680   1.517   4.466   3.556 -0.1984  0.1977  0.6155
  127SOPE  H12X13681   1.433   4.393   3.561 -0.7101  0.7666  0.4739
  127SOPE  H12Y13682   1.475   4.565   3.528 -0.1438 -0.1328 -0.6828
  127SOPE  C31313683   1.578   4.472   3.697  0.1145  0.3508  0.3482
  127SOPE  H13X13684   1.668   4.536   3.706  1.2997 -1.0787 -0.7867
  127SOPE  H13Y13685   1.594   4.366   3.727 -1.5767 -0.0174  0.0769
  127SOPE  C31413686   1.474   4.540   3.783 -1.0325  0.3411 -0.2625
  127SOPE  H14X13687   1.372   4.500   3.762 -1.1889  1.3389 -1.5240
  127SOPE  H14Y13688   1.456   4.643   3.746  0.3682  1.1741  1.2499
  127SOPE  C31513689   1.506   4.542   3.939 -0.3656 -0.8098 -0.2764
  127SOPE  H15X13690   1.444   4.624   3.980 -1.2138 -1.5394 -0.0550
  127SOPE  H15Y13691   1.608   4.579   3.964 -0.7770  0.7037 -0.7531
  127SOPE  C31613692   1.483   4.408   4.011 -0.0182 -0.4514  0.3201
  127SOPE  H16X13693   1.560   4.329   3.998  0.8860  0.5316 -0.4935
  127SOPE  H16Y13694   1.392   4.362   3.967 -0.4914  0.9592 -0.2253
  127SOPE  C31713695   1.472   4.432   4.164  0.6535  1.3159  0.2231
  127SOPE  H17X13696   1.472   4.341   4.227  1.3032  1.6677  0.7313
  127SOPE  H17Y13697   1.376   4.486   4.179 -0.6269 -0.9149  0.4504
  127SOPE  C31813698   1.576   4.531   4.219  0.3095  0.0807 -0.2538
  127SOPE  H18X13699   1.559   4.557   4.326 -4.4797  2.6091 -1.3583
  127SOPE  H18Y13700   1.567   4.633   4.175 -0.8371  1.0550  2.0998
  127SOPE  H18Z13701   1.679   4.490   4.213  0.4313  0.5377 -2.0523
  128SOPE     N13702   4.458   2.470   2.056 -0.4291 -0.0121  0.6136
  128SOPE   HN113703   4.487   2.386   2.003 -1.0618 -0.2474  0.6250
  128SOPE   HN213704   4.417   2.535   1.985  0.0379 -1.1216 -0.7249
  128SOPE   HN313705   4.552   2.511   2.073 -0.0179 -0.6503 -0.0547
  128SOPE   C1213706   4.381   2.445   2.182  0.1037  0.0430  0.2047
  128SOPE  H12A13707   4.299   2.374   2.159  1.6787 -2.4819  1.7748
  128SOPE  H12B13708   4.335   2.541   2.215 -0.5032 -0.8813  2.2008
  128SOPE   C1113709   4.478   2.392   2.292  0.2019  0.1142  0.4996
  128SOPE  H11A13710   4.515   2.293   2.255 -0.3345  0.7148 -1.8204
  128SOPE  H11B13711   4.428   2.380   2.391  0.4519 -0.4522  0.5656
  128SOPE     P13712   4.606   2.602   2.375  0.2954 -0.2818  0.3204
  128SOPE   O1313713   4.487   2.689   2.343 -0.0974  0.3130 -0.3432
  128SOPE   O1413714   4.742   2.654   2.338  0.6579 -0.1820  0.2208
  128SOPE   O1213715   4.593   2.472   2.303 -0.3935 -0.1518 -0.2221
  128SOPE   O1113716   4.608   2.563   2.522 -0.3247 -0.2638  0.1005
  128SOPE    C113717   4.704   2.470   2.575  0.3270  0.0125  0.1858
  128SOPE    HA13718   4.752   2.407   2.496 -0.3718  0.1253 -0.3408
  128SOPE    HB13719   4.652   2.406   2.649  1.2100  0.9813  1.6843
  128SOPE    C213720   4.805   2.538   2.667 -0.6019  0.6571  0.9277
  128SOPE    HS13721   4.882   2.597   2.613 -1.0114  2.3046  2.0916
  128SOPE   O2113722   4.863   2.428   2.734  0.0400  0.4124 -0.4769
  128SOPE   C2113723   4.972   2.445   2.793  0.1495 -0.5119  0.2330
  128SOPE   O2213724   5.046   2.541   2.788 -0.7613  0.1365 -0.3239
  128SOPE   C2213725   5.012   2.329   2.886 -0.0749  0.6545  0.4142
  128SOPE   H2R13726   5.113   2.351   2.925  0.2278 -0.4219  0.2532
  128SOPE   H2S13727   5.024   2.241   2.819 -0.4616 -0.0707  1.2787
  128SOPE    C313728   4.742   2.633   2.774 -0.8048 -0.1380 -0.3462
  128SOPE    HX13729   4.653   2.584   2.820  0.2639 -2.8220 -0.9366
  128SOPE    HY13730   4.703   2.718   2.714  2.3900 -0.0962 -2.6318
  128SOPE   O3113731   4.827   2.686   2.880  0.1300 -0.2254  0.1127
  128SOPE   C3113732   4.881   2.806   2.862  0.1876  0.4089  0.2797
  128SOPE   O3213733   4.869   2.884   2.770  0.5903  0.3093 -0.0505
  128SOPE   C3213734   4.954   2.847   2.988 -1.1663 -0.0645 -0.5642
  128SOPE   H2X13735   5.024   2.767   3.022 -0.8368  0.5413  0.2227
  128SOPE   H2Y13736   4.881   2.853   3.072 -0.0435  0.3599  0.3978
  128SOPE   C2313737   4.913   2.298   2.996  0.8956 -0.5977 -0.2420
  128SOPE   H3R13738   4.929   2.197   3.038  0.4365 -0.6712 -0.2318
  128SOPE   H3S13739   4.809   2.296   2.956 -0.2055  2.0097  2.1013
  128SOPE   C2413740   4.920   2.408   3.100 -0.4489 -0.0539 -0.7799
  128SOPE   H4R13741   5.025   2.421   3.134 -0.5275  0.7482 -0.8199
  128SOPE   H4S13742   4.889   2.504   3.053  1.6385  1.5254  0.8615
  128SOPE   C2513743   4.820   2.388   3.217 -0.0973 -0.6609 -0.0334
  128SOPE   H5R13744   4.721   2.373   3.171 -0.2944  1.0738 -0.2198
  128SOPE   H5S13745   4.846   2.297   3.276  0.0704 -1.1319 -0.8229
  128SOPE   C2613746   4.814   2.508   3.311  0.2488 -0.5244  0.5060
  128SOPE   H6R13747   4.833   2.594   3.242  0.0148  0.4233  1.5830
  128SOPE   H6S13748   4.712   2.529   3.349  0.1383 -0.6258  0.2660
  128SOPE   C2713749   4.911   2.502   3.433  0.5963 -0.2411 -0.0655
  128SOPE   H7R13750   4.873   2.432   3.512  3.0818 -0.0023  1.4356
  128SOPE   H7S13751   5.014   2.464   3.416  0.2366 -0.7373 -1.2045
  128SOPE   C2813752   4.934   2.643   3.496 -0.3490  0.2463 -0.1667
  128SOPE   H8R13753   5.027   2.635   3.555 -1.4455 -0.1048  1.5843
  128SOPE   H8S13754   4.940   2.726   3.423  0.1730  3.8397  3.6056
  128SOPE   C2913755   4.816   2.684   3.582  0.2284 -0.1715 -0.4824
  128SOPE   H9113756   4.718   2.679   3.532 -0.3588 -2.9364  0.7336
  128SOPE  C21013757   4.809   2.692   3.721 -0.2720 -0.2340 -0.1872
  128SOPE  H10113758   4.719   2.724   3.775 -0.7351 -0.8759 -0.5755
  128SOPE  C21113759   4.933   2.676   3.809 -0.3557  0.2700  0.3961
  128SOPE  H11R13760   5.014   2.622   3.754 -1.1111 -2.9681  2.1961
  128SOPE  H11S13761   4.921   2.602   3.891  1.0773 -2.2729 -1.5377
  128SOPE  C21213762   4.995   2.802   3.872  0.3284 -0.1332 -0.1113
  128SOPE  H12R13763   4.934   2.844   3.955  1.4264  0.9213  0.1855
  128SOPE  H12S13764   5.006   2.877   3.791 -0.3607 -0.1491 -0.2278
  128SOPE  C21313765   5.134   2.775   3.941  0.7799 -0.0110  0.0256
  128SOPE  H13R13766   5.206   2.746   3.861  0.0086  0.3951 -0.8389
  128SOPE  H13S13767   5.126   2.697   4.019 -1.7538 -2.0730 -2.0887
  128SOPE  C21413768   5.197   2.906   3.987 -0.0844 -0.0443 -0.0720
  128SOPE  H14R13769   5.127   2.967   4.049 -0.7522 -0.3206 -0.5386
  128SOPE  H14S13770   5.217   2.965   3.896  1.6251  0.7928  0.7954
  128SOPE  C21513771   5.333   2.881   4.046 -0.0380 -0.2590  0.3166
  128SOPE  H15R13772   5.393   2.975   4.045 -0.6970  0.1609  0.2579
  128SOPE  H15S13773   5.394   2.802   3.997  1.3630  0.2476  1.1787
  128SOPE  C21613774   5.327   2.842   4.190  0.1312  0.5770 -0.6876
  128SOPE  H16R13775   5.254   2.759   4.207  0.4621  0.3138 -0.5446
  128SOPE  H16S13776   5.285   2.924   4.253  0.6422  2.1407 -2.3246
  128SOPE  C21713777   5.452   2.779   4.248 -1.0949  0.1040 -0.8521
  128SOPE  H17R13778   5.496   2.720   4.165 -1.4272  1.9220 -2.3968
  128SOPE  H17S13779   5.428   2.716   4.335  0.5428  0.3873 -0.1599
  128SOPE  C21813780   5.559   2.877   4.288  0.5876 -0.0093 -0.1568
  128SOPE  H18R13781   5.579   2.873   4.397  1.5328  2.3358 -0.1706
  128SOPE  H18S13782   5.518   2.981   4.281 -1.5465 -0.7375  0.6222
  128SOPE  H18T13783   5.655   2.872   4.233  0.4265  1.9745 -0.7140
  128SOPE   C3313784   5.026   2.978   2.971 -0.5845  0.1788 -0.6264
  128SOPE   H3X13785   4.944   3.051   2.955 -1.8310 -0.8794  0.6944
  128SOPE   H3Y13786   5.093   2.983   2.882 -1.2628  1.1287 -1.1089
  128SOPE   C3413787   5.091   3.027   3.104 -0.7588 -0.6480  0.6686
  128SOPE   H4X13788   5.161   3.111   3.086 -0.1938 -1.0678  0.8783
  128SOPE   H4Y13789   5.147   2.944   3.151 -0.2677 -0.6367  0.1075
  128SOPE   C3513790   4.987   3.084   3.195  0.6828  0.1045  0.3884
  128SOPE   H5X13791   4.893   3.025   3.198  1.4086 -1.1469 -0.5262
  128SOPE   H5Y13792   4.955   3.181   3.151  0.9271  0.1508  0.3094
  128SOPE   C3613793   5.044   3.097   3.336  0.1469  0.3558  0.9118
  128SOPE   H6X13794   5.136   3.158   3.324  0.3251 -0.1217 -0.1939
  128SOPE   H6Y13795   5.079   2.995   3.362 -0.0855 -0.6459 -2.2778
  128SOPE   C3713796   4.957   3.156   3.441 -0.1743 -0.3735  0.2460
  128SOPE   H7X13797   4.880   3.086   3.479  0.0885  0.2155  1.9421
  128SOPE   H7Y13798   4.905   3.246   3.403  0.6060 -0.5992 -1.4472
  128SOPE   C3813799   5.035   3.196   3.569 -0.5500  0.5401  0.4242
  128SOPE   H8X13800   5.129   3.246   3.540  0.6012 -0.5837  1.9840
  128SOPE   H8Y13801   5.060   3.111   3.636 -0.0889  0.0096 -0.4031
  128SOPE   C3913802   4.966   3.305   3.650  0.4346  0.6048  0.1776
  128SOPE   H9X13803   4.862   3.280   3.679  0.0813 -1.1093 -2.2167
  128SOPE   H9Y13804   4.967   3.393   3.583 -0.4736  0.3948 -0.1297
  128SOPE  C31013805   5.047   3.327   3.780  1.0826  1.0549  0.4886
  128SOPE  H10X13806   5.022   3.427   3.821  0.9352  1.0359  0.4460
  128SOPE  H10Y13807   5.157   3.326   3.765  0.7710  1.0924 -2.3072
  128SOPE  C31113808   5.012   3.224   3.895 -0.4274  0.6084 -0.4190
  128SOPE  H11X13809   5.086   3.144   3.875  0.6121  1.4934 -0.2127
  128SOPE  H11Y13810   4.915   3.173   3.874  0.9906 -2.3664 -0.2296
  128SOPE  C31213811   5.013   3.274   4.035 -0.1066  0.5095 -0.0030
  128SOPE  H12X13812   5.099   3.339   4.062  1.2923 -0.3268 -2.2514
  128SOPE  H12Y13813   5.001   3.187   4.103  0.7461  0.6452  0.3302
  128SOPE  C31313814   4.885   3.362   4.062 -0.0348  0.0556 -0.2019
  128SOPE  H13X13815   4.801   3.300   4.024 -1.4159  2.3313 -1.0152
  128SOPE  H13Y13816   4.891   3.461   4.012 -0.5893 -0.2979 -0.9982
  128SOPE  C31413817   4.867   3.374   4.213 -0.1697  0.8049 -0.0371
  128SOPE  H14X13818   4.806   3.464   4.237  1.7558  2.2277 -0.1777
  128SOPE  H14Y13819   4.968   3.394   4.255 -0.6397  3.7223 -0.0863
  128SOPE  C31513820   4.792   3.255   4.281  0.7333 -0.6726 -0.2538
  128SOPE  H15X13821   4.859   3.166   4.273  3.1505  0.9949  0.3682
  128SOPE  H15Y13822   4.701   3.241   4.217 -1.2002 -0.1791  2.2376
  128SOPE  C31613823   4.748   3.301   4.418  0.1576  0.1383  0.4558
  128SOPE  H16X13824   4.698   3.400   4.415  0.7786  0.4302 -2.0533
  128SOPE  H16Y13825   4.837   3.311   4.484 -0.4148  0.9363  1.1253
  128SOPE  C31713826   4.653   3.189   4.475  0.1555 -0.2745 -0.1836
  128SOPE  H17X13827   4.701   3.092   4.452 -0.0952 -0.1297 -1.3461
  128SOPE  H17Y13828   4.561   3.194   4.414 -0.9254 -0.7662  1.3331
  128SOPE  C31813829   4.619   3.211   4.625 -0.4902 -0.0917 -0.7753
  128SOPE  H18X13830   4.715   3.204   4.681  0.1175  5.5267 -0.4999
  128SOPE  H18Y13831   4.542   3.142   4.664 -0.9524  0.2644 -1.0445
  128SOPE  H18Z13832   4.580   3.316   4.627 -0.5127 -0.1106  1.1444
  129OSM      N13833   3.799   3.194   7.017 -0.0207  0.6304 -0.0604
  129OSM    C1513834   3.779   3.090   7.126 -0.3186  0.0406  0.3200
  129OSM   H15A13835   3.689   3.125   7.175 -0.3490  0.1065  0.2161
  129OSM   H15B13836   3.855   3.095   7.203 -0.6796  0.4065  0.6619
  129OSM   H15C13837   3.772   2.989   7.089  0.1607 -0.0340  0.4228
  129OSM    C1413838   3.840   3.318   7.074  0.0474  0.4065  0.2940
  129OSM   H14A13839   3.934   3.317   7.129 -1.0009  3.5325  2.4413
  129OSM   H14B13840   3.771   3.346   7.152 -0.2297 -0.3375  0.3242
  129OSM   H14C13841   3.855   3.399   7.005 -1.0081 -0.4522 -0.9761
  129OSM    C1313842   3.905   3.136   6.929  0.4573 -0.2393  0.3401
  129OSM   H13A13843   3.989   3.102   6.988  2.2220  4.0800  0.6485
  129OSM   H13B13844   3.947   3.216   6.870 -3.8480  2.6591  0.7894
  129OSM   H13C13845   3.870   3.061   6.859 -0.6211  1.1665 -0.7028
  129OSM    C1213846   3.666   3.211   6.945 -0.0685  0.7204  0.2868
  129OSM   H12A13847   3.591   3.246   7.014 -1.6769 -2.1594  0.1249
  129OSM   H12B13848   3.628   3.117   6.909 -2.7386  1.7280  0.2387
  129OSM    C1113849   3.671   3.301   6.815 -0.2791  0.1879 -0.4432
  129OSM   H11A13850   3.579   3.282   6.755 -0.1323  0.7141 -0.8485
  129OSM   H11B13851   3.763   3.279   6.757  1.4549  0.8241  1.9131
  129OSM      P13852   3.539   3.501   6.912 -0.0983 -0.5778 -0.0065
  129OSM    O1313853   3.462   3.414   7.004 -0.6391  0.2960 -0.9131
  129OSM    O1413854   3.576   3.644   6.953 -0.2122 -0.2897  0.1347
  129OSM    O1113855   3.441   3.507   6.786 -0.1334  0.2321 -0.1096
  129OSM    O1213856   3.672   3.436   6.858 -0.1981  0.4496  0.2244
  129OSM    C1S13857   3.460   3.582   6.667  0.3143 -0.0521 -0.1366
  129OSM    H1S13858   3.567   3.611   6.667  0.2343  0.3545  1.8638
  129OSM    H1T13859   3.398   3.673   6.680  0.1857  0.0819 -1.4783
  129OSM     NF13860   3.442   3.568   6.422  0.0830 -0.3892  0.2916
  129OSM    HNF13861   3.369   3.604   6.364  2.2547  0.2895 -2.1865
  129OSM    C2S13862   3.412   3.502   6.543  0.4088 -0.4582 -0.0217
  129OSM    H2S13863   3.461   3.403   6.542 -0.5429 -0.9449  0.2797
  129OSM    C3S13864   3.261   3.469   6.556  0.1584 -0.7434  0.7368
  129OSM    H3S13865   3.205   3.563   6.573 -1.4593 -2.0729  3.4526
  129OSM     O313866   3.222   3.396   6.673 -0.3721  0.0019  0.0331
  129OSM    HO313867   3.288   3.402   6.743  0.3810 -1.6946 -0.4768
  129OSM    C4S13868   3.208   3.408   6.424  0.6657 -0.6309 -0.2888
  129OSM    H4S13869   3.174   3.481   6.348 -2.0127 -0.3892  1.0285
  129OSM    C5S13870   3.206   3.276   6.399 -0.2646 -0.2612  0.6597
  129OSM    H5S13871   3.243   3.212   6.481 -0.0393 -0.9150  0.0646
  129OSM    C6S13872   3.151   3.204   6.277 -0.2416 -0.1290  0.2808
  129OSM    H6S13873   3.062   3.144   6.303 -1.7260  1.5904 -0.5872
  129OSM    H6T13874   3.228   3.133   6.239 -0.7421  0.0256 -1.0789
  129OSM    C7S13875   3.108   3.306   6.162  0.3561  0.7816 -0.4054
  129OSM    H7S13876   3.193   3.369   6.129  1.4573 -1.0707 -1.2927
  129OSM    H7T13877   3.025   3.370   6.197 -1.5674 -1.6073 -0.3084
  129OSM    C8S13878   3.064   3.238   6.034  0.0104  0.5135  0.0607
  129OSM    H8S13879   2.968   3.185   6.050 -0.2949  0.4795 -1.7633
  129OSM    H8T13880   3.148   3.168   6.013 -0.4420 -0.5996  1.7142
  129OSM    C9S13881   3.065   3.331   5.911  0.3723  0.0010 -0.7222
  129OSM    H9S13882   3.166   3.377   5.908  0.7481 -0.5564  1.4458
  129OSM    H9T13883   2.974   3.392   5.924  0.2350  0.2082 -2.4040
  129OSM   C10S13884   3.051   3.267   5.770 -0.2461 -0.0886 -0.2975
  129OSM   H10S13885   2.951   3.221   5.755 -1.0353  0.9673  1.4167
  129OSM   H10T13886   3.127   3.187   5.756 -1.6063 -1.1562 -1.9664
  129OSM   C11S13887   3.068   3.373   5.660  0.3633  0.2172 -0.1088
  129OSM   H11S13888   3.175   3.400   5.647  0.9280 -1.9059 -0.1681
  129OSM   H11T13889   3.001   3.461   5.671  0.0530 -0.0658  0.3014
  129OSM   C12S13890   3.027   3.306   5.527  0.0894  0.3563  0.2780
  129OSM   H12S13891   2.918   3.312   5.508  0.6021  1.6525 -2.9759
  129OSM   H12T13892   3.060   3.200   5.528  2.5137  1.0428  1.3089
  129OSM   C13S13893   3.096   3.379   5.410  0.3145 -0.0268 -0.1295
  129OSM   H13S13894   3.204   3.389   5.436  0.6471  0.6566 -1.6955
  129OSM   H13T13895   3.053   3.481   5.407 -1.2609 -0.6087  1.0352
  129OSM   C14S13896   3.090   3.297   5.282  0.5906  0.7266  0.1313
  129OSM   H14S13897   2.981   3.290   5.263  0.5865  0.6663  0.1772
  129OSM   H14T13898   3.145   3.201   5.292 -0.0411  0.5216  1.9610
  129OSM   C15S13899   3.144   3.365   5.163 -0.7579 -0.9205  0.1692
  129OSM   H15S13900   3.243   3.413   5.179  0.0827 -1.7623 -2.0391
  129OSM   H15T13901   3.072   3.449   5.161  2.3208  1.9164  0.6780
  129OSM   C16S13902   3.135   3.285   5.032  0.1250 -0.0550  0.6060
  129OSM   H16S13903   3.029   3.258   5.014  0.0934  0.0815  0.5797
  129OSM   H16T13904   3.191   3.189   5.032 -0.0797 -0.1917  2.0609
  129OSM   C17S13905   3.179   3.376   4.912 -0.2867  0.1022 -0.6130
  129OSM   H17S13906   3.112   3.463   4.897  1.1402  1.0387 -1.8277
  129OSM   H17T13907   3.170   3.319   4.817 -0.5920 -1.2627  0.2015
  129OSM   C18S13908   3.324   3.412   4.928  0.7222  0.3408  0.2678
  129OSM   H18S13909   3.337   3.482   5.013  1.0732 -1.0573  1.4187
  129OSM   H18T13910   3.360   3.467   4.839  1.0420  0.0370  0.2054
  129OSM   H18U13911   3.388   3.324   4.951 -0.7660 -1.1902 -1.1080
  129OSM    C1F13912   3.567   3.597   6.392  0.8811  0.7167  0.5988
  129OSM     OF13913   3.659   3.547   6.452 -0.1463 -0.7168 -0.4598
  129OSM    C2F13914   3.582   3.691   6.277 -0.4348 -0.2393 -0.4404
  129OSM    H2F13915   3.526   3.785   6.300  1.3278  0.7383  0.0471
  129OSM    H2G13916   3.536   3.639   6.190  2.0293 -1.8886 -0.8560
  129OSM    C3F13917   3.723   3.733   6.242  0.0784 -0.3955  0.4382
  129OSM    H3F13918   3.783   3.646   6.208  2.5783  0.9871  1.0382
  129OSM    H3G13919   3.774   3.770   6.333 -2.5597  1.8625  1.1212
  129OSM    C4F13920   3.716   3.847   6.136 -0.2070  0.4315  0.6520
  129OSM    H4F13921   3.821   3.871   6.109  0.0406 -0.6294  0.6209
  129OSM    H4G13922   3.664   3.936   6.177  0.5555  1.0688  0.2711
  129OSM    C5F13923   3.644   3.810   6.009  0.2635  0.0611 -0.1647
  129OSM    H5F13924   3.628   3.905   5.953 -1.4793 -0.6833 -0.9878
  129OSM    H5G13925   3.545   3.773   6.042 -1.0426  2.0329 -1.6832
  129OSM    C6F13926   3.724   3.704   5.928  0.0119  0.0371  0.3743
  129OSM    H6F13927   3.752   3.621   5.996  0.7396  1.2458  1.6044
  129OSM    H6G13928   3.821   3.751   5.902  0.7485 -1.5272  0.2385
  129OSM    C7F13929   3.646   3.646   5.815 -0.4346  0.5965 -0.1851
  129OSM    H7F13930   3.537   3.660   5.828 -0.5320  0.0192 -0.3809
  129OSM    H7G13931   3.654   3.536   5.828 -2.2385  0.6789  2.4259
  129OSM    C8F13932   3.697   3.688   5.684 -0.4573 -0.4068  0.6277
  129OSM    H8F13933   3.808   3.675   5.680 -0.3263  0.8989 -1.3313
  129OSM    H8G13934   3.681   3.798   5.678 -0.7958 -0.1954  3.6426
  129OSM    C9F13935   3.630   3.611   5.568 -0.2373 -0.0317  0.5122
  129OSM    H9F13936   3.529   3.573   5.590 -0.1608 -0.2020  0.5681
  129OSM   C10F13937   3.675   3.599   5.444 -0.0752 -0.2973  0.8186
  129OSM   H10F13938   3.628   3.537   5.366  1.0902  0.5705 -0.6063
  129OSM   C11F13939   3.805   3.651   5.406 -0.3983  0.0611  0.0586
  129OSM   H11F13940   3.855   3.720   5.478 -0.2700  1.1819 -1.0732
  129OSM   H11G13941   3.796   3.707   5.310 -1.4411  0.9318  0.6423
  129OSM   C12F13942   3.907   3.543   5.354 -0.2271 -1.0177  0.4974
  129OSM   H12F13943   3.943   3.472   5.433 -0.6745 -1.2174  0.5274
  129OSM   H12G13944   4.001   3.588   5.316 -0.4396 -1.1677 -0.2053
  129OSM   C13F13945   3.855   3.456   5.227 -0.0757  0.4580  0.5643
  129OSM   H13F13946   3.831   3.527   5.145 -2.0518 -1.2577 -0.4432
  129OSM   H13G13947   3.758   3.413   5.259  1.0790 -2.6488  0.1945
  129OSM   C14F13948   3.946   3.345   5.178 -0.7327 -0.0916 -1.1654
  129OSM   H14F13949   3.984   3.303   5.274 -0.3182  3.6450  0.4627
  129OSM   H14G13950   4.030   3.374   5.111  0.3370  0.6544  0.4353
  129OSM   C15F13951   3.877   3.229   5.099  0.0851 -0.0414  0.6858
  129OSM   H15F13952   3.800   3.175   5.160  0.2342  0.5279  1.3967
  129OSM   H15G13953   3.950   3.154   5.062 -0.1552  0.2556 -0.4174
  129OSM   C16F13954   3.805   3.277   4.965 -0.1280 -0.3758 -0.2760
  129OSM   H16F13955   3.868   3.357   4.920  2.1631 -1.0613  1.5505
  129OSM   H16G13956   3.702   3.319   4.974  0.2526  0.1971  1.7444
  129OSM   C17F13957   3.787   3.159   4.872  0.0946  0.4303  0.3796
  129OSM   H17F13958   3.882   3.133   4.822 -1.0523 -0.4909 -1.4196
  129OSM   H17G13959   3.724   3.202   4.792  0.1249  1.4065  0.8702
  129OSM   C18F13960   3.725   3.039   4.939  0.1676 -0.2299 -0.6372
  129OSM   H18F13961   3.783   2.998   5.025 -0.1785  1.7786  0.6070
  129OSM   H18G13962   3.716   2.951   4.871 -0.1953  0.6911 -1.8058
  129OSM   H18H13963   3.620   3.065   4.966 -0.0768 -0.6496 -1.1623
  130OSM      N13964   3.029   5.276   6.803  0.1651 -0.9316 -0.1695
  130OSM    C1513965   2.887   5.269   6.835  0.1360 -0.1446  0.0456
  130OSM   H15A13966   2.861   5.339   6.913 -1.4827 -0.4013 -0.2232
  130OSM   H15B13967   2.860   5.170   6.868  0.2644 -0.5733 -1.0890
  130OSM   H15C13968   2.826   5.294   6.749  0.2586 -0.7015 -0.2087
  130OSM    C1413969   3.105   5.214   6.912 -0.1943  0.4365 -0.6152
  130OSM   H14A13970   3.092   5.107   6.915  0.5028  0.3428 -0.7750
  130OSM   H14B13971   3.070   5.249   7.008  0.4413 -1.4353  0.3707
  130OSM   H14C13972   3.213   5.216   6.910  0.2633 -4.5600  2.2003
  130OSM    C1313973   3.044   5.202   6.678 -0.8910 -0.6261 -0.1112
  130OSM   H13A13974   3.006   5.102   6.683 -0.4215 -0.8576 -0.9277
  130OSM   H13B13975   3.150   5.195   6.657 -0.4418 -1.3292  2.0555
  130OSM   H13C13976   2.993   5.250   6.596  1.5177  0.3866 -1.1073
  130OSM    C1213977   3.063   5.427   6.798 -0.1850 -0.7235  0.0019
  130OSM   H12A13978   3.170   5.438   6.792 -0.2564  1.4990  1.4748
  130OSM   H12B13979   3.046   5.457   6.900 -3.4427 -4.8755  0.9618
  130OSM    C1113980   3.012   5.517   6.683  0.1625  0.3104 -0.3176
  130OSM   H11A13981   3.026   5.465   6.586 -1.1871  1.6351 -1.2891
  130OSM   H11B13982   3.071   5.610   6.671  0.5867  0.0283 -0.4221
  130OSM      P13983   2.813   5.676   6.755 -0.1372  0.0897 -0.0516
  130OSM    O1313984   2.674   5.663   6.794 -0.2942  0.2286  0.0474
  130OSM    O1413985   2.904   5.721   6.861 -0.3696 -0.8846 -0.4542
  130OSM    O1113986   2.825   5.776   6.628  0.1686 -0.3521 -0.4924
  130OSM    O1213987   2.879   5.538   6.700  0.5780  0.3696  0.7026
  130OSM    C1S13988   2.825   5.726   6.491 -0.0046  0.1172 -0.4083
  130OSM    H1S13989   2.722   5.719   6.451  0.2578  0.1704 -1.0980
  130OSM    H1T13990   2.879   5.630   6.480  1.2059  0.6787  0.3792
  130OSM     NF13991   2.873   5.816   6.258  0.1777 -0.1007  0.5612
  130OSM    HNF13992   2.937   5.757   6.209 -0.0433 -1.1275  1.4704
  130OSM    C2S13993   2.896   5.829   6.405 -0.3195 -0.4496 -0.0260
  130OSM    H2S13994   2.859   5.930   6.433  2.8082  0.3930  1.3957
  130OSM    C3S13995   3.054   5.839   6.438  0.1205 -0.5879 -0.2095
  130OSM    H3S13996   3.095   5.736   6.429 -0.1373 -0.5907 -1.6517
  130OSM     O313997   3.076   5.873   6.576  0.1111  0.0829 -0.2919
  130OSM    HO313998   2.988   5.881   6.612  0.3902  0.2957  0.3577
  130OSM    C4S13999   3.115   5.935   6.349 -0.4214 -0.2762  0.0598
  130OSM    H4S14000   3.091   6.040   6.369  2.7622  0.8045 -1.2186
  130OSM    C5S14001   3.208   5.928   6.247 -0.3738  0.6068  0.1670
  130OSM    H5S14002   3.241   5.829   6.210 -1.2879  0.5263 -0.4607
  130OSM    C6S14003   3.254   6.046   6.167  0.9899  0.1117  0.0095
  130OSM    H6S14004   3.355   6.080   6.198  0.4309  0.6747  1.3230
  130OSM    H6T14005   3.199   6.142   6.182 -0.6514 -0.8047  0.1444
  130OSM    C7S14006   3.231   6.035   6.015 -0.8275 -0.2377 -0.0474
  130OSM    H7S14007   3.273   6.127   5.967 -0.7400 -0.1016  0.2887
  130OSM    H7T14008   3.124   6.022   5.986 -0.7971 -1.2272  0.2609
  130OSM    C8S14009   3.322   5.929   5.943  0.6272  0.0044 -0.0476
  130OSM    H8S14010   3.285   5.827   5.968  1.5436 -0.7102 -1.4508
  130OSM    H8T14011   3.427   5.931   5.980  1.5078  0.6198 -2.4198
  130OSM    C9S14012   3.338   5.959   5.792  0.4317 -0.2077 -0.5119
  130OSM    H9S14013   3.406   6.044   5.772 -1.3311  1.3883 -0.0639
  130OSM    H9T14014   3.239   5.986   5.749 -0.6549 -1.6771  0.9519
  130OSM   C10S14015   3.383   5.841   5.712 -0.1341  0.3601 -0.2490
  130OSM   H10S14016   3.303   5.765   5.729  0.8732 -0.1782  2.5341
  130OSM   H10T14017   3.478   5.794   5.745 -1.3656 -0.3635  2.4912
  130OSM   C11S14018   3.397   5.863   5.561 -0.0853  0.4040  0.7706
  130OSM   H11S14019   3.440   5.769   5.520 -0.5746  0.0514  1.0577
  130OSM   H11T14020   3.466   5.944   5.528  0.1454  0.5201  1.5227
  130OSM   C12S14021   3.264   5.891   5.488  0.2831 -0.0396 -0.5626
  130OSM   H12S14022   3.250   6.001   5.486 -1.1528 -0.1221  1.5669
  130OSM   H12T14023   3.178   5.850   5.545  0.7020 -1.8798 -1.1979
  130OSM   C13S14024   3.260   5.844   5.345 -0.3959  0.5653 -0.3161
  130OSM   H13S14025   3.157   5.847   5.304 -0.1368 -3.2272 -1.6521
  130OSM   H13T14026   3.287   5.736   5.351 -1.9963  0.1907  4.5661
  130OSM   C14S14027   3.369   5.911   5.262  0.2526 -0.6422 -0.4136
  130OSM   H14S14028   3.462   5.901   5.321 -0.8244 -1.3437  1.2560
  130OSM   H14T14029   3.338   6.017   5.254  0.1101 -0.5412  1.1513
  130OSM   C15S14030   3.387   5.839   5.125 -0.0038 -0.2624 -0.2707
  130OSM   H15S14031   3.378   5.731   5.148 -3.5803  0.0044  0.1974
  130OSM   H15T14032   3.478   5.868   5.068 -1.4005  1.7321 -1.6446
  130OSM   C16S14033   3.272   5.867   5.029 -0.1577  0.2834 -0.4941
  130OSM   H16S14034   3.172   5.823   5.053 -1.2258  2.8117  0.0505
  130OSM   H16T14035   3.292   5.818   4.931 -2.4232 -2.7559  0.3906
  130OSM   C17S14036   3.249   6.011   4.995  0.1962 -0.0306  0.6219
  130OSM   H17S14037   3.346   6.059   4.968  0.6014 -0.8539  0.5997
  130OSM   H17T14038   3.217   6.065   5.087 -0.9221  1.9071 -0.8332
  130OSM   C18S14039   3.141   6.036   4.891  0.2376 -0.3388  0.4497
  130OSM   H18S14040   3.180   6.020   4.788 -1.9693 -0.0210 -0.4807
  130OSM   H18T14041   3.108   6.141   4.905  0.5692  0.1209 -1.8903
  130OSM   H18U14042   3.060   5.963   4.911 -0.6443  0.8841  1.5598
  130OSM    C1F14043   2.751   5.857   6.213  0.0917  0.5444  0.8468
  130OSM     OF14044   2.672   5.916   6.284  0.3629 -0.2652 -0.1801
  130OSM    C2F14045   2.718   5.831   6.068 -0.3715  0.0152 -0.2985
  130OSM    H2F14046   2.706   5.724   6.041 -0.5607  0.5021 -2.2907
  130OSM    H2G14047   2.815   5.852   6.017  0.2412 -2.8403 -0.4994
  130OSM    C3F14048   2.601   5.916   6.015  0.7375  0.1609 -0.5034
  130OSM    H3F14049   2.632   6.022   6.016  2.7496 -0.3864 -0.1241
  130OSM    H3G14050   2.513   5.900   6.081 -0.5648  1.7692 -1.7562
  130OSM    C4F14051   2.553   5.869   5.877 -0.3938  0.2846 -0.5183
  130OSM    H4F14052   2.462   5.929   5.857 -0.2396  1.3690  1.6985
  130OSM    H4G14053   2.514   5.765   5.880 -1.3343  0.6469  1.3653
  130OSM    C5F14054   2.658   5.879   5.770  0.8766  0.6015  0.6116
  130OSM    H5F14055   2.751   5.825   5.796  3.2264  3.3572 -1.4039
  130OSM    H5G14056   2.688   5.986   5.767 -2.4248  1.7508  2.7008
  130OSM    C6F14057   2.602   5.801   5.645  0.0718  0.7934  0.9321
  130OSM    H6F14058   2.510   5.841   5.598 -0.4268  0.0941  1.2929
  130OSM    H6G14059   2.586   5.696   5.677  2.2436  0.1056 -0.0381
  130OSM    C7F14060   2.721   5.805   5.533  0.7119  0.5964 -0.9195
  130OSM    H7F14061   2.818   5.775   5.577  0.4247 -0.8203 -1.2237
  130OSM    H7G14062   2.729   5.914   5.510  1.0525  0.5607 -0.9707
  130OSM    C8F14063   2.674   5.713   5.425 -0.1844 -0.6115 -0.2770
  130OSM    H8F14064   2.578   5.671   5.460 -1.2331  0.8950 -1.2230
  130OSM    H8G14065   2.748   5.631   5.418 -0.1045 -0.5764  0.0884
  130OSM    C9F14066   2.639   5.792   5.301  0.1363  0.1036 -0.8253
  130OSM    H9F14067   2.584   5.886   5.316  1.7960  1.2338 -1.5134
  130OSM   C10F14068   2.676   5.745   5.183 -0.8803 -0.0845  1.1527
  130OSM   H10F14069   2.655   5.807   5.095  1.4514  0.5828  0.9978
  130OSM   C11F14070   2.752   5.628   5.131 -0.5290 -0.3469 -0.1033
  130OSM   H11F14071   2.682   5.576   5.062 -1.0918  1.7182 -1.1490
  130OSM   H11G14072   2.770   5.556   5.215 -1.2463 -1.3146 -0.7490
  130OSM   C12F14073   2.886   5.672   5.065 -0.0837  0.4370 -0.9918
  130OSM   H12F14074   2.971   5.687   5.136 -1.5395 -0.4994  1.0145
  130OSM   H12G14075   2.860   5.761   5.003  0.4002 -0.3844 -2.4303
  130OSM   C13F14076   2.927   5.572   4.949 -0.9197 -1.0646 -0.2388
  130OSM   H13F14077   2.830   5.548   4.901 -0.5737 -0.0625 -1.4861
  130OSM   H13G14078   2.965   5.482   5.003  0.3914 -0.4698 -0.1150
  130OSM   C14F14079   3.046   5.623   4.874  0.4100 -0.2032  0.4145
  130OSM   H14F14080   3.122   5.650   4.950  2.4711 -0.8763 -1.2944
  130OSM   H14G14081   3.021   5.721   4.827  1.9544  0.5213  1.0233
  130OSM   C15F14082   3.094   5.524   4.771 -0.1896  0.3956  1.0090
  130OSM   H15F14083   3.115   5.428   4.823  1.2126 -0.8840 -1.7313
  130OSM   H15G14084   3.194   5.559   4.739  0.6980 -1.3626  1.7436
  130OSM   C16F14085   3.014   5.483   4.647  0.3903  0.1632  0.6463
  130OSM   H16F14086   2.983   5.567   4.582 -0.1014 -0.7483 -0.3243
  130OSM   H16G14087   2.920   5.437   4.683  0.4111  0.4935  1.1458
  130OSM   C17F14088   3.080   5.376   4.558 -0.2685  0.4364 -0.4231
  130OSM   H17F14089   3.125   5.296   4.621  0.7463 -1.8939 -3.8582
  130OSM   H17G14090   3.167   5.422   4.507 -0.1365 -0.0256 -0.6145
  130OSM   C18F14091   2.978   5.322   4.455 -0.3119  0.3682  0.0695
  130OSM   H18F14092   3.015   5.241   4.389  0.9597  0.3594  0.7620
  130OSM   H18G14093   2.970   5.408   4.384  2.3348  0.0177 -0.7847
  130OSM   H18H14094   2.882   5.305   4.507 -0.5321  0.2055 -0.3934
  131OSM      N14095   3.955   2.304   6.985  0.0468 -0.2129 -0.5208
  131OSM    C1514096   3.934   2.454   7.005 -0.3422  0.1286 -0.2802
  131OSM   H15A14097   4.021   2.511   6.978  0.9941 -1.5729  0.2307
  131OSM   H15B14098   3.924   2.460   7.112  1.2384 -0.9387 -0.0457
  131OSM   H15C14099   3.849   2.481   6.943 -0.6424 -0.8518 -0.3272
  131OSM    C1414100   4.081   2.271   7.065  0.4478  0.3022  0.2143
  131OSM   H14A14101   4.124   2.179   7.028 -2.5768 -0.2678 -2.2871
  131OSM   H14B14102   4.052   2.262   7.169 -1.6909  0.2775 -0.3334
  131OSM   H14C14103   4.150   2.353   7.050 -0.1327  1.0246  1.3658
  131OSM    C1314104   3.843   2.222   7.032 -0.8124 -0.5596 -0.6360
  131OSM   H13A14105   3.762   2.242   6.963  0.5794  0.5116 -2.0607
  131OSM   H13B14106   3.805   2.248   7.129  2.2133 -1.5976  0.9538
  131OSM   H13C14107   3.871   2.118   7.032  0.9155 -0.1352 -0.6149
  131OSM    C1214108   3.994   2.282   6.840  0.4092  0.5147  0.6615
  131OSM   H12A14109   4.020   2.178   6.822  1.2510  1.2952 -3.6326
  131OSM   H12B14110   4.086   2.335   6.823  1.2846 -1.4214 -1.0803
  131OSM    C1114111   3.889   2.314   6.733 -0.6904  0.1203  0.1850
  131OSM   H11A14112   3.795   2.258   6.754 -0.0245 -1.5157 -1.0445
  131OSM   H11B14113   3.917   2.282   6.631 -1.6234 -0.2415  0.0331
  131OSM      P14114   3.919   2.575   6.659  0.1430 -0.1382 -0.0541
  131OSM    O1314115   3.863   2.707   6.709 -0.0938 -0.2867  0.0721
  131OSM    O1414116   4.063   2.552   6.667  0.2612 -0.1121 -0.1174
  131OSM    O1114117   3.877   2.572   6.514 -0.1184 -0.6894 -0.1098
  131OSM    O1214118   3.857   2.453   6.737 -0.5704  0.1570 -0.2510
  131OSM    C1S14119   3.733   2.581   6.484  0.0983 -0.2571 -0.1792
  131OSM    H1S14120   3.689   2.682   6.491 -2.8910 -1.3591 -1.2928
  131OSM    H1T14121   3.674   2.511   6.548  1.2261 -2.8510 -1.7814
  131OSM     NF14122   3.581   2.549   6.293 -0.0643 -0.1956  0.1788
  131OSM    HNF14123   3.523   2.469   6.290  0.8099 -0.8234 -0.4677
  131OSM    C2S14124   3.716   2.517   6.344  0.2811 -0.1645 -0.0286
  131OSM    H2S14125   3.793   2.570   6.285  2.9258 -1.6488  1.8438
  131OSM    C3S14126   3.770   2.369   6.333  0.4932 -0.0645 -0.3445
  131OSM    H3S14127   3.698   2.311   6.395  0.1664  0.4022 -0.2791
  131OSM     O314128   3.901   2.353   6.379 -0.1823  0.2917 -0.2712
  131OSM    HO314129   3.919   2.432   6.431  0.1624 -0.4456  0.7715
  131OSM    C4S14130   3.762   2.329   6.185  0.7099 -0.1578 -0.5129
  131OSM    H4S14131   3.661   2.293   6.163  0.0395  0.8052  0.8302
  131OSM    C5S14132   3.853   2.321   6.092  0.2728  0.4268  0.3572
  131OSM    H5S14133   3.960   2.331   6.118  0.7015 -1.5726 -0.4344
  131OSM    C6S14134   3.814   2.279   5.950  0.1529 -0.6925  0.4498
  131OSM    H6S14135   3.856   2.180   5.921 -1.6675 -1.5118  0.4799
  131OSM    H6T14136   3.865   2.352   5.884 -0.5954 -0.2255  0.3831
  131OSM    C7S14137   3.661   2.267   5.909  0.1310  0.0880 -1.0875
  131OSM    H7S14138   3.615   2.362   5.944 -3.0344 -2.2484  1.7304
  131OSM    H7T14139   3.613   2.188   5.970  0.9603 -1.9379 -2.9301
  131OSM    C8S14140   3.621   2.261   5.762 -0.3900  0.0851  0.0104
  131OSM    H8S14141   3.655   2.347   5.700 -0.3396 -1.0025 -1.5433
  131OSM    H8T14142   3.510   2.257   5.765 -0.3593 -1.1164  2.8187
  131OSM    C9S14143   3.691   2.138   5.708 -0.2996  0.2799  0.7148
  131OSM    H9S14144   3.684   2.062   5.789  0.7416 -0.4623  0.1419
  131OSM    H9T14145   3.797   2.153   5.677 -0.9082 -0.8691 -2.3096
  131OSM   C10S14146   3.619   2.067   5.598 -0.1632  0.9629 -0.1474
  131OSM   H10S14147   3.517   2.042   5.633 -0.0879 -1.9729 -1.6893
  131OSM   H10T14148   3.678   1.975   5.579 -0.6901  0.7422 -0.7790
  131OSM   C11S14149   3.630   2.145   5.469 -0.7268  0.0016  0.3501
  131OSM   H11S14150   3.733   2.180   5.446 -0.3381 -0.8376  0.7854
  131OSM   H11T14151   3.577   2.243   5.475  1.4764  1.2046  1.4003
  131OSM   C12S14152   3.560   2.077   5.353 -0.0601  0.3653  0.7933
  131OSM   H12S14153   3.460   2.047   5.391 -0.6112  1.0053 -0.1010
  131OSM   H12T14154   3.608   1.982   5.321 -1.9487 -1.3092  2.6388
  131OSM   C13S14155   3.518   2.184   5.252  0.2005 -0.3643  0.1412
  131OSM   H13S14156   3.598   2.260   5.240 -0.4825  0.2729 -0.4583
  131OSM   H13T14157   3.432   2.233   5.303  1.0960 -0.5425  1.8952
  131OSM   C14S14158   3.474   2.130   5.109 -0.4452  0.1766 -0.3521
  131OSM   H14S14159   3.389   2.061   5.128  1.4302 -1.6576  2.1720
  131OSM   H14T14160   3.561   2.068   5.080 -1.1263 -0.4778 -1.0240
  131OSM   C15S14161   3.440   2.228   5.003 -0.4205  0.2138 -0.3875
  131OSM   H15S14162   3.540   2.239   4.955 -0.2861 -0.7826 -0.3537
  131OSM   H15T14163   3.409   2.326   5.044 -1.5907 -0.9894  1.8131
  131OSM   C16S14164   3.331   2.183   4.904 -0.2376  0.4490 -0.8516
  131OSM   H16S14165   3.307   2.272   4.842 -0.9643  2.8292  2.5566
  131OSM   H16T14166   3.246   2.143   4.962 -1.0042 -1.0280 -2.8596
  131OSM   C17S14167   3.362   2.066   4.810 -0.2138  0.2856  0.4567
  131OSM   H17S14168   3.378   1.973   4.870  0.0475  0.5852  0.8531
  131OSM   H17T14169   3.454   2.091   4.753 -0.6582 -0.4265 -0.5986
  131OSM   C18S14170   3.267   2.055   4.693 -0.0844 -0.1607 -0.3666
  131OSM   H18S14171   3.298   1.982   4.616 -0.7222  0.0237 -0.8028
  131OSM   H18T14172   3.245   2.151   4.641 -0.4198 -0.3808 -0.6384
  131OSM   H18U14173   3.167   2.022   4.728 -0.2435  1.0185  0.3678
  131OSM    C1F14174   3.529   2.670   6.274 -0.2386 -0.0513 -0.4373
  131OSM     OF14175   3.604   2.761   6.288 -0.3595  0.3969  0.0364
  131OSM    C2F14176   3.385   2.706   6.239  0.2146  0.0117  1.5373
  131OSM    H2F14177   3.345   2.774   6.317 -1.3821 -0.5361  1.2427
  131OSM    H2G14178   3.321   2.615   6.246 -1.6180  1.3068  2.4404
  131OSM    C3F14179   3.378   2.765   6.095 -0.5777  0.1217 -0.2900
  131OSM    H3F14180   3.458   2.843   6.090 -0.3941  0.2963  3.1016
  131OSM    H3G14181   3.281   2.820   6.091 -0.4255  0.3687 -0.6630
  131OSM    C4F14182   3.388   2.650   5.995 -0.2522  0.2452  0.3007
  131OSM    H4F14183   3.303   2.579   6.001  0.4369 -0.6504 -0.1943
  131OSM    H4G14184   3.477   2.585   6.013  0.0804 -0.3188 -2.8056
  131OSM    C5F14185   3.409   2.705   5.852  0.1380  0.8827 -0.1544
  131OSM    H5F14186   3.507   2.758   5.856 -0.2774  1.6203  0.5986
  131OSM    H5G14187   3.329   2.781   5.835 -1.0092 -0.4574 -0.9091
  131OSM    C6F14188   3.413   2.590   5.756  0.6777  0.8134  0.8099
  131OSM    H6F14189   3.304   2.575   5.738  0.7584  2.3378 -1.3440
  131OSM    H6G14190   3.470   2.501   5.790  2.3772  1.3503 -0.4960
  131OSM    C7F14191   3.450   2.632   5.619 -0.2468 -0.4418  0.5014
  131OSM    H7F14192   3.551   2.677   5.630 -0.9385  1.0114  1.1793
  131OSM    H7G14193   3.383   2.715   5.588  1.4716  0.4391 -1.0328
  131OSM    C8F14194   3.453   2.523   5.507  0.2664  0.4597 -0.4952
  131OSM    H8F14195   3.534   2.458   5.546 -0.0240 -0.1361 -0.8717
  131OSM    H8G14196   3.483   2.573   5.413 -1.3754  0.3086 -1.1378
  131OSM    C9F14197   3.316   2.456   5.492  0.2140  0.1636 -0.2095
  131OSM    H9F14198   3.294   2.397   5.582  1.4512 -1.6731 -1.0431
  131OSM   C10F14199   3.236   2.438   5.388 -0.4921 -0.3595  0.3481
  131OSM   H10F14200   3.140   2.385   5.400 -0.3217 -0.3183  2.3062
  131OSM   C11F14201   3.256   2.502   5.252 -0.2722 -0.5274 -0.4576
  131OSM   H11F14202   3.233   2.425   5.176 -0.1249  0.4750 -1.5465
  131OSM   H11G14203   3.358   2.545   5.242 -0.6589  0.8738  1.2041
  131OSM   C12F14204   3.161   2.615   5.227  0.2501 -0.0758 -0.1005
  131OSM   H12F14205   3.177   2.688   5.309  1.4852  0.3612 -0.7095
  131OSM   H12G14206   3.057   2.577   5.235  0.1262  0.0340 -1.0991
  131OSM   C13F14207   3.186   2.689   5.093 -0.4990 -0.2814 -0.1137
  131OSM   H13F14208   3.284   2.740   5.098  0.1539 -1.4922 -0.1800
  131OSM   H13G14209   3.111   2.771   5.094  0.4087  0.5683 -0.5233
  131OSM   C14F14210   3.189   2.597   4.969  0.1828 -0.2422  0.0834
  131OSM   H14F14211   3.086   2.570   4.940  0.7538  0.6079 -3.1142
  131OSM   H14G14212   3.245   2.504   4.993 -0.9810 -0.4672  2.1406
  131OSM   C15F14213   3.251   2.662   4.845 -0.4417  0.0533  1.1106
  131OSM   H15F14214   3.231   2.596   4.757  1.9254 -0.4513  0.8747
  131OSM   H15G14215   3.362   2.671   4.855 -0.3053 -2.7726  3.5530
  131OSM   C16F14216   3.184   2.791   4.795 -0.0241 -0.3503 -0.2947
  131OSM   H16F14217   3.200   2.852   4.886 -1.7039 -2.3860  1.4641
  131OSM   H16G14218   3.075   2.780   4.776  0.0966 -1.9871 -0.1932
  131OSM   C17F14219   3.252   2.870   4.678 -0.5141  0.3207 -0.3134
  131OSM   H17F14220   3.243   2.812   4.584  0.6639 -0.0077 -0.2488
  131OSM   H17G14221   3.360   2.870   4.706 -0.4882 -1.9224 -0.1922
  131OSM   C18F14222   3.203   3.017   4.672  0.2239  0.4382  0.4681
  131OSM   H18F14223   3.243   3.069   4.761 -1.6536  0.6273  1.2390
  131OSM   H18G14224   3.093   3.022   4.659  0.2379  0.6077  0.3978
  131OSM   H18H14225   3.248   3.068   4.583 -0.4830 -0.1607 -0.2432
  132OSM      N14226   3.972   4.248   7.068  0.1511  0.0928 -0.5497
  132OSM    C1514227   3.883   4.313   7.173 -0.3629 -0.5139  0.5681
  132OSM   H15A14228   3.814   4.238   7.210 -0.4275 -0.4259  0.6251
  132OSM   H15B14229   3.826   4.387   7.119  3.3699  2.2802  0.0426
  132OSM   H15C14230   3.935   4.347   7.261  0.4758  0.0719 -0.1388
  132OSM    C1414231   4.014   4.113   7.125  0.0661 -0.0101  0.1696
  132OSM   H14A14232   4.090   4.118   7.202  0.0022 -0.8927  0.3011
  132OSM   H14B14233   4.066   4.059   7.048 -0.9989 -2.1631  0.8890
  132OSM   H14C14234   3.928   4.055   7.157 -1.3465  0.5287 -2.4005
  132OSM    C1314235   3.887   4.238   6.942 -0.0293 -0.3845 -0.0454
  132OSM   H13A14236   3.953   4.213   6.861  0.6718 -1.1205  0.7286
  132OSM   H13B14237   3.845   4.336   6.925 -0.4002 -0.3253  1.0803
  132OSM   H13C14238   3.819   4.154   6.937 -1.0536  0.4628 -0.8760
  132OSM    C1214239   4.093   4.335   7.043 -0.2594 -0.3185 -0.0264
  132OSM   H12A14240   4.068   4.432   7.001  0.9238 -0.0714 -0.1980
  132OSM   H12B14241   4.159   4.287   6.973 -0.5901  1.1167 -1.3646
  132OSM    C1114242   4.183   4.353   7.178  0.5984 -0.4210 -0.1959
  132OSM   H11A14243   4.125   4.400   7.260  1.6636  0.7743 -0.0987
  132OSM   H11B14244   4.263   4.426   7.152  1.1392 -0.7829  0.4124
  132OSM      P14245   4.364   4.171   7.148  0.7979  0.2468  0.3644
  132OSM    O1314246   4.481   4.209   7.226 -0.4031  0.5740 -0.3688
  132OSM    O1414247   4.348   4.026   7.123  0.5767 -0.4207  0.1978
  132OSM    O1114248   4.373   4.251   7.012  0.8053 -0.5104 -0.3056
  132OSM    O1214249   4.246   4.232   7.215  0.5434 -0.2947  0.2196
  132OSM    C1S14250   4.474   4.220   6.915  0.2631  0.2291  0.7245
  132OSM    H1S14251   4.438   4.134   6.853  0.3597  2.7255 -3.1812
  132OSM    H1T14252   4.572   4.203   6.963  0.7353  2.2287  0.5638
  132OSM     NF14253   4.553   4.299   6.696 -0.1246  0.1242 -0.0043
  132OSM    HNF14254   4.649   4.319   6.678 -0.4998  0.3061 -2.0254
  132OSM    C2S14255   4.499   4.339   6.821  0.0386  0.5532 -0.2735
  132OSM    H2S14256   4.401   4.385   6.796 -0.0265  1.4184  1.4286
  132OSM    C3S14257   4.586   4.443   6.889  0.5080 -0.3753 -0.4612
  132OSM    H3S14258   4.689   4.407   6.909  0.5089  0.8744  2.0608
  132OSM     O314259   4.553   4.475   7.025  0.2638  0.1849 -0.0142
  132OSM    HO314260   4.514   4.394   7.058 -0.5957  0.0838 -1.2304
  132OSM    C4S14261   4.597   4.573   6.810 -0.2815 -1.1610  0.6812
  132OSM    H4S14262   4.667   4.562   6.726 -0.9320 -1.5020  0.1770
  132OSM    C5S14263   4.528   4.693   6.817 -0.8457 -0.1447 -0.1312
  132OSM    H5S14264   4.451   4.706   6.894  0.2545 -1.6793  1.3009
  132OSM    C6S14265   4.545   4.812   6.726  0.4157  0.5039 -0.0075
  132OSM    H6S14266   4.536   4.907   6.783 -0.1903  0.2373  0.3501
  132OSM    H6T14267   4.457   4.802   6.658  1.3652 -3.7784 -0.8995
  132OSM    C7S14268   4.663   4.804   6.626 -0.0468 -0.3123 -0.5736
  132OSM    H7S14269   4.647   4.714   6.563  1.6227 -2.0446  1.3137
  132OSM    H7T14270   4.754   4.782   6.686  0.6526 -0.5192 -1.6942
  132OSM    C8S14271   4.689   4.922   6.530 -0.1398 -0.5483  0.3309
  132OSM    H8S14272   4.663   5.013   6.589 -2.2505 -0.8147 -0.1275
  132OSM    H8T14273   4.617   4.927   6.446  0.2407 -0.3551  0.0179
  132OSM    C9S14274   4.829   4.924   6.473 -0.7469 -0.5888 -0.3848
  132OSM    H9S14275   4.906   4.911   6.551 -0.6331  0.6059 -0.2773
  132OSM    H9T14276   4.838   5.022   6.421 -0.4934  0.5651  1.7054
  132OSM   C10S14277   4.843   4.817   6.365 -0.2823  0.0003  0.6121
  132OSM   H10S14278   4.746   4.833   6.312 -0.4619  0.6723  1.1314
  132OSM   H10T14279   4.846   4.722   6.421  0.5318  0.1023  0.7557
  132OSM   C11S14280   4.964   4.825   6.273  0.2729  0.6231 -0.5840
  132OSM   H11S14281   5.051   4.782   6.326  0.0778  1.1778  0.2108
  132OSM   H11T14282   4.985   4.931   6.245  0.7372  1.0476  1.2632
  132OSM   C12S14283   4.940   4.729   6.150 -0.1212  0.0538 -0.6396
  132OSM   H12S14284   4.850   4.760   6.093  0.5848  2.1358 -0.7143
  132OSM   H12T14285   4.917   4.628   6.191  0.0631  0.8360  1.5209
  132OSM   C13S14286   5.056   4.747   6.051 -0.6807 -0.4724 -0.1265
  132OSM   H13S14287   5.131   4.668   6.072  0.7288  0.4075 -1.7127
  132OSM   H13T14288   5.108   4.844   6.058  1.2970 -1.2073 -3.0073
  132OSM   C14S14289   5.006   4.724   5.908 -0.0789  0.2126 -0.6718
  132OSM   H14S14290   4.930   4.803   5.887  0.6747  1.2397  0.3221
  132OSM   H14T14291   4.950   4.629   5.917  0.3581 -0.2066 -2.1316
  132OSM   C15S14292   5.109   4.727   5.797  0.5982  0.5301  0.2912
  132OSM   H15S14293   5.174   4.641   5.821 -1.3978 -0.7319  1.4040
  132OSM   H15T14294   5.160   4.826   5.802 -0.1326  0.9385 -0.0295
  132OSM   C16S14295   5.035   4.686   5.663  0.2677  0.2947 -0.1146
  132OSM   H16S14296   4.980   4.779   5.636 -1.8473 -1.0106 -0.4873
  132OSM   H16T14297   4.960   4.611   5.693  1.0082  0.1264  1.4124
  132OSM   C17S14298   5.126   4.637   5.552  0.2958  0.5717  0.5697
  132OSM   H17S14299   5.186   4.553   5.592  2.1892  2.7072  2.4866
  132OSM   H17T14300   5.197   4.716   5.518  0.9237 -0.5302 -0.7842
  132OSM   C18S14301   5.037   4.604   5.432  0.5793  0.1887  0.1982
  132OSM   H18S14302   5.103   4.563   5.352  3.5534  3.3839  0.7525
  132OSM   H18T14303   4.993   4.695   5.385 -0.0948  0.0355  0.5256
  132OSM   H18U14304   4.955   4.535   5.460 -2.1184  2.6792 -1.0017
  132OSM    C1F14305   4.494   4.230   6.597 -0.4387  0.3655 -0.2425
  132OSM     OF14306   4.396   4.166   6.621  0.4622  0.3966 -0.3363
  132OSM    C2F14307   4.568   4.222   6.467 -0.2039 -0.1793 -0.0612
  132OSM    H2F14308   4.662   4.163   6.466  0.4979  0.9149 -0.1047
  132OSM    H2G14309   4.597   4.326   6.442  0.6187 -0.4936 -0.4708
  132OSM    C3F14310   4.474   4.146   6.363 -0.3271 -0.7700 -0.7802
  132OSM    H3F14311   4.378   4.200   6.373  0.2587 -0.0279  1.4564
  132OSM    H3G14312   4.474   4.036   6.377 -1.0552 -0.5200  1.5263
  132OSM    C4F14313   4.532   4.178   6.220 -0.3576  0.2882  0.3524
  132OSM    H4F14314   4.632   4.131   6.211 -1.2935 -1.6825 -0.6905
  132OSM    H4G14315   4.555   4.286   6.228  0.3987 -0.0037  2.6905
  132OSM    C5F14316   4.435   4.132   6.117 -0.4764 -0.2792  0.5986
  132OSM    H5F14317   4.331   4.157   6.146 -0.9764 -2.5205  0.8873
  132OSM    H5G14318   4.436   4.021   6.115 -0.5376 -0.2848 -1.7647
  132OSM    C6F14319   4.491   4.167   5.980  0.0388 -1.2891 -0.0254
  132OSM    H6F14320   4.596   4.135   5.965  1.3088  2.6467 -0.5063
  132OSM    H6G14321   4.497   4.276   5.960 -0.6286 -1.1705  0.3951
  132OSM    C7F14322   4.400   4.108   5.877 -0.1086 -0.2258 -0.0337
  132OSM    H7F14323   4.300   4.143   5.909  0.8050 -0.5516  3.6188
  132OSM    H7G14324   4.400   4.000   5.900  1.3630 -0.0551  0.9562
  132OSM    C8F14325   4.438   4.128   5.725 -0.1898 -0.2049 -0.1677
  132OSM    H8F14326   4.356   4.071   5.676 -0.2947  0.7744 -1.1575
  132OSM    H8G14327   4.539   4.093   5.693  0.3145  0.5452  0.5559
  132OSM    C9F14328   4.429   4.278   5.694 -0.1748 -0.5526 -0.2175
  132OSM    H9F14329   4.477   4.340   5.771  2.8359  0.1022 -2.4508
  132OSM   C10F14330   4.387   4.343   5.586  0.6969  0.9485  0.0127
  132OSM   H10F14331   4.399   4.453   5.587 -2.2415  1.3428  0.5888
  132OSM   C11F14332   4.305   4.272   5.482  0.0390  0.5782 -0.7094
  132OSM   H11F14333   4.269   4.351   5.413  0.4665 -0.0310 -1.6511
  132OSM   H11G14334   4.212   4.227   5.522  1.4489 -2.7375 -0.7790
  132OSM   C12F14335   4.380   4.163   5.388 -0.4975  0.2191 -0.2860
  132OSM   H12F14336   4.364   4.066   5.439 -0.5674 -0.3148 -1.2995
  132OSM   H12G14337   4.490   4.182   5.392 -0.5152  0.2293  2.7600
  132OSM   C13F14338   4.335   4.170   5.251 -0.4801 -0.0289  0.3410
  132OSM   H13F14339   4.224   4.182   5.252 -0.3644  1.2380  1.3570
  132OSM   H13G14340   4.357   4.078   5.194 -0.3707  0.2005  0.0118
  132OSM   C14F14341   4.388   4.291   5.170 -0.2364 -0.0203 -0.4230
  132OSM   H14F14342   4.497   4.296   5.189 -0.1551  0.6285 -1.0314
  132OSM   H14G14343   4.344   4.387   5.204  1.9100  0.4749  1.1524
  132OSM   C15F14344   4.356   4.265   5.022 -0.1124  0.2796  0.1844
  132OSM   H15F14345   4.250   4.237   5.006  0.1488 -0.3327 -0.5565
  132OSM   H15G14346   4.421   4.180   4.992 -1.9006 -1.3348  0.6747
  132OSM   C16F14347   4.382   4.391   4.941  0.1049 -0.0997  0.8267
  132OSM   H16F14348   4.476   4.444   4.970  1.3354 -1.0755 -1.1870
  132OSM   H16G14349   4.287   4.447   4.951 -2.0956 -3.3859  0.0569
  132OSM   C17F14350   4.420   4.366   4.786  0.7217  0.1322  0.0657
  132OSM   H17F14351   4.336   4.303   4.752 -0.4669  2.4543 -1.5849
  132OSM   H17G14352   4.511   4.304   4.777 -0.5990 -1.7594 -0.8024
  132OSM   C18F14353   4.439   4.486   4.695 -0.0534  0.1427  0.8733
  132OSM   H18F14354   4.504   4.559   4.747  1.2643 -0.8010  0.6015
  132OSM   H18G14355   4.335   4.522   4.680 -0.1563 -0.4519  0.1125
  132OSM   H18H14356   4.489   4.453   4.601  0.1679 -0.0839  1.0706
  133OSM      N14357   1.707   5.612   7.046 -0.5496  0.7019  0.7478
  133OSM    C1514358   1.809   5.571   7.150  0.3748  0.3770 -0.2757
  133OSM   H15A14359   1.894   5.638   7.150 -0.1035  0.9996  0.2495
  133OSM   H15B14360   1.840   5.468   7.138 -0.8367 -0.2978  1.8466
  133OSM   H15C14361   1.773   5.569   7.252  0.6593 -1.1680 -0.1826
  133OSM    C1414362   1.619   5.501   7.015  1.3399 -0.1266 -0.0941
  133OSM   H14A14363   1.674   5.416   6.976 -0.1424 -1.3062  0.2635
  133OSM   H14B14364   1.533   5.523   6.955  0.2209  1.3158  1.9135
  133OSM   H14C14365   1.565   5.470   7.103  0.1746  0.7345 -0.4897
  133OSM    C1314366   1.634   5.726   7.100 -0.1961 -0.5257 -0.2364
  133OSM   H13A14367   1.605   5.708   7.202  1.1058 -1.2476  0.0362
  133OSM   H13B14368   1.549   5.742   7.035  0.8617  3.7083 -0.8535
  133OSM   H13C14369   1.687   5.820   7.104  0.8766 -1.0584 -1.1276
  133OSM    C1214370   1.782   5.649   6.913  0.4368 -0.7085  0.6055
  133OSM   H12A14371   1.872   5.696   6.948  0.1608  0.1101  0.2432
  133OSM   H12B14372   1.735   5.730   6.859  2.3209 -0.1954 -0.3227
  133OSM    C1114373   1.815   5.536   6.813  1.0344  0.2306 -0.1616
  133OSM   H11A14374   1.845   5.590   6.721  4.9310 -0.8769  0.2643
  133OSM   H11B14375   1.727   5.474   6.788 -0.0827  1.1395  1.3088
  133OSM      P14376   2.066   5.506   6.879  0.0413 -0.0553  0.1608
  133OSM    O1314377   2.057   5.648   6.913  0.6526 -0.2143  0.0793
  133OSM    O1414378   2.153   5.418   6.955 -0.2761 -0.0443  0.3233
  133OSM    O1114379   2.116   5.499   6.732  0.6541 -0.4932 -0.1706
  133OSM    O1214380   1.911   5.448   6.868  0.1123  0.3020  0.0266
  133OSM    C1S14381   2.060   5.575   6.626  0.4753  0.3580  0.3115
  133OSM    H1S14382   2.020   5.668   6.672  1.2695  0.4970  0.7474
  133OSM    H1T14383   1.982   5.523   6.566  0.8963  0.2583 -0.1546
  133OSM     NF14384   2.086   5.701   6.408 -0.0826 -0.0711 -0.2396
  133OSM    HNF14385   2.066   5.655   6.322 -1.6297  0.5432 -0.2447
  133OSM    C2S14386   2.152   5.612   6.507 -0.5559 -0.0005  0.5838
  133OSM    H2S14387   2.234   5.675   6.547 -0.8697  0.6824  0.1504
  133OSM    C3S14388   2.222   5.488   6.454  0.2067  0.4675 -0.1711
  133OSM    H3S14389   2.143   5.422   6.412 -0.8673  2.2752 -1.1534
  133OSM     O314390   2.274   5.401   6.553  0.6850 -0.0692 -0.2179
  133OSM    HO314391   2.220   5.420   6.630 -1.8980 -0.1111 -1.9126
  133OSM    C4S14392   2.318   5.506   6.338 -0.1271 -0.8235 -0.5217
  133OSM    H4S14393   2.281   5.496   6.235  1.5462 -1.6162 -1.0857
  133OSM    C5S14394   2.450   5.530   6.360  0.0534 -0.1184 -0.7024
  133OSM    H5S14395   2.494   5.552   6.458  0.6809  1.2293 -1.2530
  133OSM    C6S14396   2.557   5.551   6.251  0.3596  0.2640 -0.2361
  133OSM    H6S14397   2.651   5.497   6.274 -0.1639 -0.4695  0.2345
  133OSM    H6T14398   2.580   5.660   6.254 -0.2252  0.3703  1.8137
  133OSM    C7S14399   2.525   5.515   6.107 -0.0352 -0.1599  0.1080
  133OSM    H7S14400   2.588   5.562   6.028 -1.6623  0.5000 -0.8567
  133OSM    H7T14401   2.425   5.545   6.069 -0.3835  0.5257  1.4946
  133OSM    C8S14402   2.543   5.369   6.081 -0.2972 -0.0159  0.2049
  133OSM    H8S14403   2.471   5.307   6.140 -0.6943  0.1291 -0.1175
  133OSM    H8T14404   2.641   5.323   6.105  0.2709  0.7379 -0.6435
  133OSM    C9S14405   2.512   5.336   5.932  0.3104  0.1692 -0.8363
  133OSM    H9S14406   2.420   5.393   5.906 -0.8722  0.4450  3.2450
  133OSM    H9T14407   2.486   5.229   5.916  0.6704  0.3482 -2.8354
  133OSM   C10S14408   2.626   5.367   5.833 -0.3118  0.7736 -0.6891
  133OSM   H10S14409   2.713   5.300   5.852 -1.1016  0.4533  2.3783
  133OSM   H10T14410   2.663   5.469   5.854  1.1982  0.3993 -1.4005
  133OSM   C11S14411   2.574   5.349   5.692  0.0615  0.3700  0.9413
  133OSM   H11S14412   2.498   5.420   5.651  0.4274  1.2407  1.7352
  133OSM   H11T14413   2.518   5.253   5.698 -0.5316  0.8102  3.1878
  133OSM   C12S14414   2.693   5.349   5.601  0.2413 -0.3411 -0.2221
  133OSM   H12S14415   2.775   5.299   5.657 -1.1631 -1.2370  1.1531
  133OSM   H12T14416   2.721   5.452   5.571 -0.7012 -0.2726 -0.9117
  133OSM   C13S14417   2.663   5.285   5.465  0.5683  1.0192 -0.2629
  133OSM   H13S14418   2.572   5.339   5.431  0.3172  1.2015  0.6477
  133OSM   H13T14419   2.634   5.178   5.473 -0.2701  1.2919  0.6030
  133OSM   C14S14420   2.778   5.308   5.359  0.1754  0.3163  0.7751
  133OSM   H14S14421   2.868   5.247   5.380 -0.9658 -3.2910 -3.2935
  133OSM   H14T14422   2.805   5.415   5.362  4.5438 -0.5973 -0.0133
  133OSM   C15S14423   2.732   5.272   5.217  0.2937 -0.5571  0.2145
  133OSM   H15S14424   2.676   5.360   5.178  0.8537  0.5366  1.7625
  133OSM   H15T14425   2.665   5.183   5.218  0.6754 -0.8443  0.5095
  133OSM   C16S14426   2.838   5.238   5.118 -0.4218  0.4897  0.3150
  133OSM   H16S14427   2.885   5.142   5.148 -1.0480  0.5358  1.5226
  133OSM   H16T14428   2.921   5.312   5.124  1.3579 -1.4008  0.1757
  133OSM   C17S14429   2.798   5.231   4.968 -0.7831  0.0216  0.0957
  133OSM   H17S14430   2.762   5.333   4.942  0.2318  0.7125  1.2699
  133OSM   H17T14431   2.714   5.158   4.966  0.6116 -1.6545 -0.1627
  133OSM   C18S14432   2.906   5.186   4.874 -0.1907  0.3389  0.7344
  133OSM   H18S14433   2.857   5.154   4.780  0.0339 -1.5512  1.2341
  133OSM   H18T14434   2.976   5.108   4.909 -1.5761 -1.2041  0.1864
  133OSM   H18U14435   2.966   5.276   4.848 -0.2381  1.2223  3.3732
  133OSM    C1F14436   2.022   5.816   6.422  0.2160  0.9024 -0.0338
  133OSM     OF14437   2.000   5.858   6.537 -0.0018 -0.0995 -0.2383
  133OSM    C2F14438   1.973   5.885   6.295 -0.0001 -0.5395 -0.6598
  133OSM    H2F14439   1.902   5.817   6.244 -2.2369  1.0264  0.2585
  133OSM    H2G14440   2.065   5.895   6.233 -0.8481 -1.8761 -2.2158
  133OSM    C3F14441   1.886   6.017   6.312  0.0396 -0.1027  0.0886
  133OSM    H3F14442   1.941   6.096   6.367 -0.3825  0.6888 -0.6006
  133OSM    H3G14443   1.796   5.975   6.363  1.7004 -4.4341 -0.1662
  133OSM    C4F14444   1.868   6.081   6.166  0.5914  0.1875  0.4143
  133OSM    H4F14445   1.961   6.058   6.110 -1.3503 -1.4641 -2.4174
  133OSM    H4G14446   1.860   6.191   6.174 -0.2823  0.3034 -1.5816
  133OSM    C5F14447   1.751   6.011   6.097  0.5534  0.3773  0.7258
  133OSM    H5F14448   1.657   6.049   6.143  0.0810 -0.2024  0.2544
  133OSM    H5G14449   1.761   5.904   6.127 -1.2376 -0.2007 -0.5571
  133OSM    C6F14450   1.764   6.019   5.947  0.3130 -0.0746 -0.0181
  133OSM    H6F14451   1.679   5.964   5.901 -0.2056 -0.3387  1.2292
  133OSM    H6G14452   1.860   5.973   5.914 -0.2750 -1.1051 -0.3467
  133OSM    C7F14453   1.777   6.162   5.892  0.4266  0.3444 -0.2005
  133OSM    H7F14454   1.879   6.204   5.906  0.0241  1.0320  0.7315
  133OSM    H7G14455   1.707   6.230   5.945  1.7776  2.6302 -1.1777
  133OSM    C8F14456   1.736   6.172   5.741  0.6359  0.4584 -0.4575
  133OSM    H8F14457   1.674   6.256   5.705 -2.1174 -1.5911 -0.8589
  133OSM    H8G14458   1.662   6.091   5.719  2.2788 -1.6656  1.3531
  133OSM    C9F14459   1.857   6.152   5.653 -1.0740  0.4855 -0.3297
  133OSM    H9F14460   1.941   6.109   5.708 -1.0800  2.1763  1.1224
  133OSM   C10F14461   1.878   6.183   5.524 -1.2092 -0.3549 -0.3494
  133OSM   H10F14462   1.971   6.163   5.468  0.1091  1.2963  1.1660
  133OSM   C11F14463   1.771   6.234   5.434 -0.1214  0.0096 -0.8595
  133OSM   H11F14464   1.688   6.278   5.493  0.2888 -0.8752  0.4273
  133OSM   H11G14465   1.722   6.148   5.384 -0.4366 -0.6601  0.5635
  133OSM   C12F14466   1.835   6.318   5.329  0.0021  0.1825  0.3087
  133OSM   H12F14467   1.899   6.254   5.264 -1.4330  1.7666 -2.9133
  133OSM   H12G14468   1.890   6.410   5.359  2.2928 -1.3938  1.1540
  133OSM   C13F14469   1.716   6.361   5.242 -0.6767 -0.1743  0.7859
  133OSM   H13F14470   1.650   6.428   5.302  0.8374  0.7795  1.4367
  133OSM   H13G14471   1.656   6.274   5.207 -1.7367  0.6076  0.6120
  133OSM   C14F14472   1.775   6.430   5.113  0.4370 -0.3306  0.4950
  133OSM   H14F14473   1.839   6.359   5.057  1.8886  0.4762  1.0793
  133OSM   H14G14474   1.818   6.530   5.138 -0.9143  0.2562  0.5829
  133OSM   C15F14475   1.657   6.466   5.012 -0.6756  0.4329 -0.6412
  133OSM   H15F14476   1.602   6.374   4.982  0.3265 -1.2183  2.2285
  133OSM   H15G14477   1.710   6.498   4.920  4.7011 -2.6041  0.9528
  133OSM   C16F14478   1.562   6.575   5.059 -0.2595  0.5185 -0.0664
  133OSM   H16F14479   1.631   6.655   5.093  0.5400 -1.3211  3.0321
  133OSM   H16G14480   1.511   6.533   5.148  0.1304  1.4846  0.6279
  133OSM   C17F14481   1.458   6.617   4.960  0.2804 -0.2131  0.4766
  133OSM   H17F14482   1.440   6.534   4.888  2.7438  0.1524 -0.6758
  133OSM   H17G14483   1.489   6.698   4.890  1.2307 -0.5995  0.4292
  133OSM   C18F14484   1.333   6.659   5.036 -0.0230  0.8469 -0.4723
  133OSM   H18F14485   1.345   6.766   5.064  2.3630  0.4689  0.1492
  133OSM   H18G14486   1.319   6.596   5.126  2.3177 -1.4884 -1.5796
  133OSM   H18H14487   1.253   6.662   4.958  0.1569  2.1611 -0.6318
  134OSM      N14488   1.659   4.587   6.858  0.2014  0.5158  0.6372
  134OSM    C1514489   1.545   4.611   6.768 -0.4567 -0.4243  0.5148
  134OSM   H15A14490   1.458   4.591   6.828  0.0009  0.6641  1.5716
  134OSM   H15B14491   1.538   4.532   6.695 -2.6288 -2.8410  3.1149
  134OSM   H15C14492   1.531   4.714   6.737 -2.4605 -0.1719  2.0876
  134OSM    C1414493   1.674   4.685   6.967  0.1903 -0.1263 -0.9406
  134OSM   H14A14494   1.596   4.671   7.041  0.9582 -1.3124 -0.3152
  134OSM   H14B14495   1.660   4.786   6.932 -0.7710 -0.0360 -0.3371
  134OSM   H14C14496   1.761   4.666   7.027  0.4455  2.6418 -0.2969
  134OSM    C1314497   1.637   4.446   6.916  0.3158  0.9423  0.3624
  134OSM   H13A14498   1.704   4.429   6.999  1.2797 -1.3150 -0.7892
  134OSM   H13B14499   1.635   4.363   6.847 -1.0085 -0.5173  2.0345
  134OSM   H13C14500   1.534   4.438   6.949  0.0185 -1.3762 -0.8993
  134OSM    C1214501   1.789   4.578   6.773 -0.4915  0.1753  0.0818
  134OSM   H12A14502   1.875   4.573   6.838  0.1535 -0.9099 -0.8101
  134OSM   H12B14503   1.789   4.670   6.717 -0.5235 -0.3065 -0.7189
  134OSM    C1114504   1.806   4.455   6.680  0.3201 -0.8859 -0.7797
  134OSM   H11A14505   1.805   4.354   6.727  2.2653 -0.6946 -0.2516
  134OSM   H11B14506   1.912   4.464   6.651  1.8084 -1.6228  3.7047
  134OSM      P14507   1.727   4.502   6.431 -0.0867 -0.2121 -0.1210
  134OSM    O1314508   1.604   4.526   6.357 -0.0525 -0.6429  0.0587
  134OSM    O1414509   1.823   4.620   6.429 -0.2574  0.9419 -0.7335
  134OSM    O1114510   1.796   4.380   6.364 -0.1995 -0.0664 -0.2397
  134OSM    O1214511   1.707   4.447   6.580 -0.1959 -0.5733  0.8196
  134OSM    C1S14512   1.726   4.253   6.338 -0.4502 -0.0088  0.4047
  134OSM    H1S14513   1.633   4.248   6.398 -0.5136  2.4469  0.6134
  134OSM    H1T14514   1.788   4.170   6.379  0.0096 -0.1812 -0.5994
  134OSM     NF14515   1.623   4.119   6.163  0.2326  0.5477  0.0663
  134OSM    HNF14516   1.678   4.072   6.094  0.0834 -0.8326  0.8632
  134OSM    C2S14517   1.681   4.252   6.184 -0.6620  0.1175 -0.0857
  134OSM    H2S14518   1.601   4.329   6.181 -1.7488 -0.9482  0.6886
  134OSM    C3S14519   1.790   4.295   6.080  0.3706 -0.3896  0.3608
  134OSM    H3S14520   1.867   4.217   6.069  0.7609  0.2310 -1.9216
  134OSM     O314521   1.859   4.418   6.097  0.1804 -0.0356  0.9004
  134OSM    HO314522   1.843   4.443   6.188  0.7197  0.7875  0.7699
  134OSM    C4S14523   1.721   4.296   5.939 -0.7174 -0.2464 -1.1721
  134OSM    H4S14524   1.737   4.207   5.877 -0.1743  0.9737 -2.8404
  134OSM    C5S14525   1.648   4.395   5.885  0.3539  0.9093  0.3064
  134OSM    H5S14526   1.627   4.489   5.939 -1.5321  0.9258 -0.3743
  134OSM    C6S14527   1.598   4.372   5.744  0.2488 -0.1754  0.1236
  134OSM    H6S14528   1.488   4.387   5.741  0.5024  1.6897 -1.1326
  134OSM    H6T14529   1.623   4.272   5.701  0.1390  0.1210 -0.6429
  134OSM    C7S14530   1.644   4.471   5.628 -0.4336  0.5763 -0.5373
  134OSM    H7S14531   1.753   4.463   5.611 -0.2636  0.8245  0.3769
  134OSM    H7T14532   1.625   4.575   5.664  1.2671  0.4682  0.7916
  134OSM    C8S14533   1.562   4.457   5.501  0.3436  0.3331  0.2788
  134OSM    H8S14534   1.460   4.469   5.542  0.9100  0.1920  1.8025
  134OSM    H8T14535   1.561   4.355   5.456  0.1765  1.2273 -1.8240
  134OSM    C9S14536   1.571   4.567   5.399  0.2953  0.2805 -0.0130
  134OSM    H9S14537   1.522   4.528   5.307 -2.1678 -1.9309  2.0743
  134OSM    H9T14538   1.677   4.585   5.371  0.7235  1.3139  2.0388
  134OSM   C10S14539   1.506   4.707   5.427 -0.3786  0.7015 -0.3272
  134OSM   H10S14540   1.502   4.721   5.538  0.5235  1.6840 -0.4029
  134OSM   H10T14541   1.403   4.711   5.386 -0.2498 -0.3044 -0.7762
  134OSM   C11S14542   1.587   4.819   5.365  0.2144  0.0906 -0.4452
  134OSM   H11S14543   1.688   4.844   5.401  0.9145 -0.0458 -2.1902
  134OSM   H11T14544   1.529   4.914   5.366 -2.7200 -1.5205 -1.6107
  134OSM   C12S14545   1.589   4.810   5.213 -0.0800 -0.9818 -0.3940
  134OSM   H12S14546   1.498   4.772   5.162 -0.4735  1.4104 -1.6147
  134OSM   H12T14547   1.666   4.735   5.186 -0.3106 -1.3893  0.0652
  134OSM   C13S14548   1.635   4.943   5.144 -0.1612 -0.0642 -0.2314
  134OSM   H13S14549   1.725   4.978   5.198 -0.2971  0.4821 -0.3573
  134OSM   H13T14550   1.560   5.024   5.155  0.5354  0.4527  0.8393
  134OSM   C14S14551   1.660   4.929   4.997 -0.0175  0.5110 -0.1598
  134OSM   H14S14552   1.721   4.838   4.977 -0.0635  0.6800 -1.1275
  134OSM   H14T14553   1.724   5.017   4.974 -1.2237  1.8266  1.3025
  134OSM   C15S14554   1.542   4.924   4.895  0.3879  0.1673  0.7151
  134OSM   H15S14555   1.477   4.834   4.908  0.1870  0.1105 -0.5723
  134OSM   H15T14556   1.599   4.913   4.801  0.3074 -0.0412  0.6917
  134OSM   C16S14557   1.444   5.045   4.890 -0.1197  0.7205 -0.8473
  134OSM   H16S14558   1.466   5.107   4.980  1.0282  1.0875 -1.3619
  134OSM   H16T14559   1.343   4.999   4.899  1.2385 -2.2224  0.5120
  134OSM   C17S14560   1.456   5.130   4.766  0.4870  0.0156 -0.0790
  134OSM   H17S14561   1.440   5.081   4.667  3.7964  0.6289 -1.0435
  134OSM   H17T14562   1.564   5.150   4.747  0.6907 -2.1546 -1.4883
  134OSM   C18S14563   1.366   5.253   4.779  0.6669 -0.1050 -0.2709
  134OSM   H18S14564   1.381   5.302   4.878  0.0010 -3.0896  1.4406
  134OSM   H18T14565   1.262   5.219   4.762  0.7363  1.0779 -3.8446
  134OSM   H18U14566   1.383   5.319   4.691 -1.0186  1.1157  0.2653
  134OSM    C1F14567   1.519   4.058   6.220 -0.3689 -0.2551 -0.6427
  134OSM     OF14568   1.451   4.120   6.298  0.0499 -0.2345 -0.1428
  134OSM    C2F14569   1.502   3.915   6.186 -0.1727 -0.0422 -0.0365
  134OSM    H2F14570   1.479   3.856   6.278 -0.4222  0.9938  0.5741
  134OSM    H2G14571   1.587   3.866   6.133 -1.1256 -0.5713 -1.1343
  134OSM    C3F14572   1.370   3.896   6.109  1.3391 -0.5821  0.4605
  134OSM    H3F14573   1.293   3.932   6.181  0.1181 -1.9702 -0.1007
  134OSM    H3G14574   1.345   3.788   6.099  0.0487 -0.1527 -1.3298
  134OSM    C4F14575   1.348   3.973   5.977  0.2927  0.1091 -0.2874
  134OSM    H4F14576   1.337   4.084   5.985 -0.2275  0.1145 -0.9325
  134OSM    H4G14577   1.261   3.925   5.928  0.5036 -0.5473 -0.0323
  134OSM    C5F14578   1.477   3.951   5.885 -0.3944 -0.3918  0.3850
  134OSM    H5F14579   1.507   3.845   5.872  1.3528  0.0368  0.7366
  134OSM    H5G14580   1.561   4.004   5.934 -0.7271  0.1862  0.3479
  134OSM    C6F14581   1.462   4.020   5.750 -0.9048  0.5279  0.3321
  134OSM    H6F14582   1.561   4.028   5.701 -0.0852  1.4015  2.0491
  134OSM    H6G14583   1.431   4.126   5.761 -2.6101  0.0244  0.7248
  134OSM    C7F14584   1.357   3.948   5.665  0.5238 -0.2329 -0.4253
  134OSM    H7F14585   1.257   3.966   5.711  0.0575 -3.1272 -0.1378
  134OSM    H7G14586   1.362   3.837   5.670 -1.9543 -0.4446 -1.0177
  134OSM    C8F14587   1.348   4.001   5.517 -0.1149 -0.3385 -0.4399
  134OSM    H8F14588   1.345   4.112   5.524  0.3282 -0.4156  1.6952
  134OSM    H8G14589   1.255   3.973   5.463  0.1953  1.8808 -2.2285
  134OSM    C9F14590   1.476   3.959   5.447  0.6522 -0.4562 -0.1131
  134OSM    H9F14591   1.529   3.874   5.493 -2.2060 -1.3959  1.7769
  134OSM   C10F14592   1.520   4.026   5.338 -0.4631 -0.1544  0.7588
  134OSM   H10F14593   1.608   3.983   5.288 -0.2939 -0.4211  1.2808
  134OSM   C11F14594   1.445   4.133   5.259  0.0801 -0.3272  0.0552
  134OSM   H11F14595   1.490   4.229   5.292  0.0963 -0.4628  0.4276
  134OSM   H11G14596   1.337   4.143   5.285  0.9048  1.5974  3.2427
  134OSM   C12F14597   1.458   4.128   5.102 -0.0224  0.3619 -0.3359
  134OSM   H12F14598   1.431   4.023   5.077  0.5583 -0.1103  0.9831
  134OSM   H12G14599   1.565   4.156   5.090 -0.1299  1.4166  1.0251
  134OSM   C13F14600   1.364   4.217   5.020  0.2198 -0.9190  0.4753
  134OSM   H13F14601   1.354   4.322   5.054 -1.3498 -0.9788  0.2799
  134OSM   H13G14602   1.259   4.183   5.035  0.3642 -2.4299 -1.4698
  134OSM   C14F14603   1.415   4.213   4.876  0.2640  0.5950  0.0601
  134OSM   H14F14604   1.526   4.214   4.869  0.2695 -1.4560 -0.7308
  134OSM   H14G14605   1.363   4.299   4.828 -0.9097 -1.0133 -1.7194
  134OSM   C15F14606   1.371   4.097   4.792 -0.1043 -0.2689 -0.4659
  134OSM   H15F14607   1.264   4.070   4.806  0.0415 -1.9983 -2.2137
  134OSM   H15G14608   1.421   4.010   4.839  2.3890  1.8430  1.0761
  134OSM   C16F14609   1.401   4.112   4.645 -0.0354  0.5771 -0.5179
  134OSM   H16F14610   1.508   4.139   4.635  0.9760 -2.8236 -0.2595
  134OSM   H16G14611   1.345   4.192   4.592  3.4916  2.8565 -1.1508
  134OSM   C17F14612   1.372   3.976   4.575  0.7742 -0.4209 -0.3392
  134OSM   H17F14613   1.261   3.971   4.564  0.7241  0.3169 -0.2111
  134OSM   H17G14614   1.392   3.887   4.638  2.8620  0.2665  0.0472
  134OSM   C18F14615   1.428   3.966   4.431  0.6826  0.2980 -0.2862
  134OSM   H18F14616   1.374   3.881   4.384  0.3290  1.4302 -2.0237
  134OSM   H18G14617   1.537   3.946   4.436  0.9200  1.7329  1.5506
  134OSM   H18H14618   1.409   4.063   4.381 -2.1715  1.4162  2.5584
  135OSM      N14619   1.279   2.885   7.178  0.1654 -0.3199 -0.0788
  135OSM    C1514620   1.273   2.996   7.085 -0.4476 -0.0347 -0.1034
  135OSM   H15A14621   1.319   3.085   7.125 -0.5869  0.9699 -2.0132
  135OSM   H15B14622   1.174   3.029   7.057 -0.3162  0.5644  0.1246
  135OSM   H15C14623   1.317   2.960   6.993  1.1391 -0.7091  0.8761
  135OSM    C1414624   1.416   2.834   7.201  0.1059  0.1439 -0.0914
  135OSM   H14A14625   1.462   2.805   7.108  0.3665 -2.2559  0.7232
  135OSM   H14B14626   1.416   2.743   7.258  0.1638 -0.4646 -1.0424
  135OSM   H14C14627   1.485   2.911   7.233  0.9101  0.6748 -2.8042
  135OSM    C1314628   1.239   2.935   7.318  0.2191 -0.3766 -0.0902
  135OSM   H13A14629   1.231   2.845   7.377 -2.1647 -1.0070 -1.2505
  135OSM   H13B14630   1.142   2.977   7.299 -0.1669 -1.4735 -0.6818
  135OSM   H13C14631   1.306   2.999   7.373 -0.0857 -0.0792 -0.0691
  135OSM    C1214632   1.178   2.778   7.134 -0.0698 -0.1241  0.4425
  135OSM   H12A14633   1.186   2.697   7.205 -2.5469 -0.8745 -0.0346
  135OSM   H12B14634   1.198   2.734   7.037 -1.8199 -1.7355  0.7659
  135OSM    C1114635   1.026   2.818   7.134  0.1008  0.4826  0.7431
  135OSM   H11A14636   0.998   2.849   7.237  0.7119 -0.2159  1.1295
  135OSM   H11B14637   0.969   2.727   7.104 -0.1664  0.6059  0.8705
  135OSM      P14638   0.868   2.962   6.996  0.1821 -0.3034 -0.3834
  135OSM    O1314639   0.801   2.854   6.922 -0.3451  0.5978  0.0223
  135OSM    O1414640   0.800   3.010   7.118  0.1663  0.0731  0.0445
  135OSM    O1114641   0.889   3.089   6.905  0.4344 -0.1478 -0.2076
  135OSM    O1214642   1.009   2.912   7.033 -0.1473 -0.7366  0.6535
  135OSM    C1S14643   0.976   3.082   6.795  0.5665  0.6018  0.8409
  135OSM    H1S14644   1.055   3.004   6.800 -0.3172 -0.3121  0.8292
  135OSM    H1T14645   1.023   3.182   6.798  0.6844  0.5943 -0.2663
  135OSM     NF14646   0.989   3.068   6.543  0.1149  0.4323  0.1350
  135OSM    HNF14647   1.006   3.150   6.490 -0.1809 -0.7343 -1.8655
  135OSM    C2S14648   0.897   3.078   6.652 -0.2500 -0.3727  0.0160
  135OSM    H2S14649   0.845   2.979   6.661  0.1753 -0.4454  2.5723
  135OSM    C3S14650   0.791   3.198   6.640  0.6356  0.1924 -0.8700
  135OSM    H3S14651   0.843   3.295   6.632 -2.5914  2.6073  3.2709
  135OSM     O314652   0.711   3.224   6.757 -0.0309 -0.4436  0.1784
  135OSM    HO314653   0.757   3.176   6.825  1.6234  0.5174 -0.2026
  135OSM    C4S14654   0.709   3.177   6.511 -0.2085 -0.6059 -0.5816
  135OSM    H4S14655   0.618   3.117   6.526 -0.0582 -0.4751  1.0313
  135OSM    C5S14656   0.737   3.236   6.394  0.2167 -0.2439  0.3859
  135OSM    H5S14657   0.821   3.307   6.389  1.2425 -1.5025 -1.9680
  135OSM    C6S14658   0.659   3.239   6.266 -0.1049  0.3070 -0.1252
  135OSM    H6S14659   0.570   3.173   6.278  0.2699 -0.0124  1.0032
  135OSM    H6T14660   0.720   3.185   6.190 -1.4948 -0.2156 -0.8962
  135OSM    C7S14661   0.632   3.382   6.220  0.7538 -0.9116 -0.3484
  135OSM    H7S14662   0.727   3.439   6.206  0.6535 -1.2355 -2.5878
  135OSM    H7T14663   0.568   3.425   6.301  0.5052  0.5555 -1.2860
  135OSM    C8S14664   0.552   3.395   6.087  0.1127  0.8350  0.6595
  135OSM    H8S14665   0.527   3.503   6.076  0.8784  0.8354 -1.4981
  135OSM    H8T14666   0.464   3.336   6.118  0.3279  0.7821  1.1914
  135OSM    C9S14667   0.615   3.343   5.954  0.5968 -0.2568  0.2052
  135OSM    H9S14668   0.666   3.247   5.980  0.3944 -0.4902 -0.2384
  135OSM    H9T14669   0.688   3.425   5.939 -0.4694  0.4204 -1.5454
  135OSM   C10S14670   0.514   3.320   5.843  0.2287 -0.4791 -0.1021
  135OSM   H10S14671   0.450   3.410   5.852 -0.0013 -0.7031  0.5809
  135OSM   H10T14672   0.457   3.230   5.873 -0.9203  0.1913 -0.2399
  135OSM   C11S14673   0.555   3.318   5.691  0.2105 -0.1512  0.0893
  135OSM   H11S14674   0.630   3.236   5.683 -0.6322 -0.8862 -0.3974
  135OSM   H11T14675   0.608   3.411   5.660 -0.1453 -0.3896 -1.3070
  135OSM   C12S14676   0.438   3.297   5.613  0.8638 -0.1943 -1.2602
  135OSM   H12S14677   0.365   3.380   5.617 -0.6792 -1.2671 -4.1237
  135OSM   H12T14678   0.383   3.211   5.657 -0.6039  1.2268 -0.1883
  135OSM   C13S14679   0.476   3.267   5.468 -0.5928  0.3689 -0.1333
  135OSM   H13S14680   0.393   3.206   5.429 -0.0164 -0.7550  0.3597
  135OSM   H13T14681   0.573   3.212   5.472 -0.6734  0.1929 -0.6197
  135OSM   C14S14682   0.477   3.389   5.374  0.2831  0.5055  0.0415
  135OSM   H14S14683   0.551   3.464   5.408  0.0041  0.7724  0.0622
  135OSM   H14T14684   0.371   3.421   5.370 -0.0774 -0.1684  2.5132
  135OSM   C15S14685   0.521   3.336   5.236 -0.7733 -0.2452 -0.8139
  135OSM   H15S14686   0.459   3.256   5.191 -0.0459 -1.3006  0.0153
  135OSM   H15T14687   0.622   3.291   5.233 -0.1760  1.0769 -1.2343
  135OSM   C16S14688   0.540   3.456   5.136 -0.3629 -0.5985  0.5699
  135OSM   H16S14689   0.617   3.530   5.167 -0.3147 -0.1907 -0.4810
  135OSM   H16T14690   0.450   3.519   5.120  0.7156  0.4713 -1.7659
  135OSM   C17S14691   0.581   3.400   4.997 -0.1385 -0.1356  0.1185
  135OSM   H17S14692   0.504   3.330   4.956  2.1596 -0.5860 -3.9483
  135OSM   H17T14693   0.672   3.338   5.007 -0.9059 -1.4827 -0.8147
  135OSM   C18S14694   0.615   3.507   4.890 -0.2248  0.7368 -0.8005
  135OSM   H18S14695   0.523   3.560   4.855 -1.3229  0.7359  1.8083
  135OSM   H18T14696   0.656   3.460   4.798 -0.6881 -0.7323 -0.2927
  135OSM   H18U14697   0.692   3.576   4.930 -1.0755  1.3469 -0.1619
  135OSM    C1F14698   1.047   2.957   6.519  0.4351 -0.0741 -0.7236
  135OSM     OF14699   1.031   2.861   6.596 -0.0598 -0.0457 -0.1963
  135OSM    C2F14700   1.126   2.948   6.399  0.2797  0.0645 -0.0514
  135OSM    H2F14701   1.236   2.958   6.414  0.1916  0.8610  0.1271
  135OSM    H2G14702   1.102   3.037   6.336 -1.0581  0.0270  0.3832
  135OSM    C3F14703   1.087   2.827   6.311  0.3077 -0.5362 -0.5108
  135OSM    H3F14704   1.103   2.733   6.368  1.9317  0.1336  0.1950
  135OSM    H3G14705   1.153   2.826   6.222  1.8008 -1.7364  0.5580
  135OSM    C4F14706   0.942   2.837   6.270 -0.2479  0.1750  0.2197
  135OSM    H4F14707   0.868   2.834   6.353 -3.0683  0.5086 -2.1089
  135OSM    H4G14708   0.923   2.934   6.218 -0.8618 -0.8925 -1.6568
  135OSM    C5F14709   0.907   2.726   6.169  0.0456 -0.0060  0.3376
  135OSM    H5F14710   0.800   2.728   6.140  0.0246  2.0088  0.4275
  135OSM    H5G14711   0.927   2.625   6.212  1.2131 -0.1429 -0.4659
  135OSM    C6F14712   0.992   2.727   6.037  0.7117 -0.3687 -0.6963
  135OSM    H6F14713   0.950   2.643   5.978  0.3120  0.4330 -1.5847
  135OSM    H6G14714   1.101   2.711   6.054  0.5645 -0.1053  0.6329
  135OSM    C7F14715   0.979   2.861   5.963 -0.2389  0.0000 -0.1662
  135OSM    H7F14716   1.034   2.943   6.014  1.4227 -0.9291 -0.3530
  135OSM    H7G14717   0.873   2.887   5.947  0.2047  1.4080 -1.0041
  135OSM    C8F14718   1.042   2.864   5.819  1.0694 -0.8754 -0.5104
  135OSM    H8F14719   1.145   2.830   5.842  1.0863  0.1980  1.1432
  135OSM    H8G14720   1.055   2.970   5.789  0.8142 -0.7051 -0.0277
  135OSM    C9F14721   0.961   2.772   5.730  0.5306  0.0550  0.2391
  135OSM    H9F14722   0.949   2.671   5.773 -0.4161 -0.2017 -0.5712
  135OSM   C10F14723   0.908   2.795   5.609  0.2174  0.0851 -0.7732
  135OSM   H10F14724   0.863   2.714   5.551 -0.7672  0.5456 -0.6708
  135OSM   C11F14725   0.923   2.921   5.538  1.2129 -0.0686  0.2190
  135OSM   H11F14726   1.006   2.991   5.562  0.0123  1.9805 -1.2941
  135OSM   H11G14727   0.827   2.967   5.568 -0.0823 -2.4597  0.0146
  135OSM   C12F14728   0.927   2.898   5.387  0.1390  0.0841  0.3025
  135OSM   H12F14729   0.873   2.812   5.342  0.1394  1.8270 -3.4507
  135OSM   H12G14730   1.033   2.890   5.354  1.1723  3.0783  2.4259
  135OSM   C13F14731   0.866   3.019   5.314  0.3147 -0.1188  0.1923
  135OSM   H13F14732   0.925   3.103   5.358 -1.3201  1.4389 -0.4627
  135OSM   H13G14733   0.763   3.041   5.348  0.3191 -2.4090  1.9445
  135OSM   C14F14734   0.866   3.014   5.162  0.0871  0.8923 -0.3890
  135OSM   H14F14735   0.813   3.104   5.122 -0.3961  1.1944  0.9053
  135OSM   H14G14736   0.804   2.928   5.129 -0.1307  0.0206  2.1341
  135OSM   C15F14737   1.001   2.998   5.095  0.4618  0.4696  1.5674
  135OSM   H15F14738   1.049   2.899   5.112 -1.4865 -0.8388 -0.0669
  135OSM   H15G14739   1.076   3.069   5.136  0.5404  1.1693  0.2688
  135OSM   C16F14740   0.983   3.017   4.947  0.0009  0.2340  0.7114
  135OSM   H16F14741   0.881   2.983   4.919  0.8408 -1.0070 -1.0665
  135OSM   H16G14742   1.054   2.963   4.881  0.4744  1.0253  0.5753
  135OSM   C17F14743   0.989   3.170   4.911  0.1186  0.2190 -0.6701
  135OSM   H17F14744   1.077   3.214   4.962 -0.7964  0.3864  0.8135
  135OSM   H17G14745   0.899   3.215   4.958  1.3124 -0.3623  2.4346
  135OSM   C18F14746   1.007   3.221   4.762 -0.4844 -0.4072  1.5262
  135OSM   H18F14747   0.922   3.180   4.704 -0.3984  1.2601  0.1452
  135OSM   H18G14748   1.110   3.196   4.726 -0.3240  0.8362  1.0876
  135OSM   H18H14749   0.993   3.331   4.764 -2.5711 -0.5929 -0.2909
  136OSM      N14750   4.753   3.173   7.355 -0.1195 -0.9717 -0.5409
  136OSM    C1514751   4.772   3.096   7.483  0.2197 -0.3348  0.0722
  136OSM   H15A14752   4.786   2.991   7.465  3.0513 -0.0301 -0.0187
  136OSM   H15B14753   4.690   3.089   7.552  1.3529 -2.7003  1.2903
  136OSM   H15C14754   4.872   3.125   7.513  0.9889 -2.1974 -0.5404
  136OSM    C1414755   4.715   3.310   7.396  0.3436  0.2999 -0.1227
  136OSM   H14A14756   4.787   3.341   7.471  0.2661  0.7262 -0.2189
  136OSM   H14B14757   4.619   3.317   7.444 -0.6034  1.5164 -2.0766
  136OSM   H14C14758   4.703   3.381   7.316 -0.7282 -0.3054 -0.5096
  136OSM    C1314759   4.886   3.192   7.282  0.5286 -0.1246 -0.2585
  136OSM   H13A14760   4.871   3.225   7.180  1.0360 -1.9737 -0.9554
  136OSM   H13B14761   4.927   3.092   7.283 -2.0192 -1.2348 -0.2160
  136OSM   H13C14762   4.955   3.260   7.332  1.1210 -0.5392 -0.5006
  136OSM    C1214763   4.643   3.106   7.277 -0.1586 -0.7601  0.2200
  136OSM   H12A14764   4.556   3.103   7.341 -0.1009  1.8872  0.5172
  136OSM   H12B14765   4.670   3.002   7.267 -0.3891 -0.7022 -1.0946
  136OSM    C1114766   4.622   3.162   7.133  0.1628  0.0849  0.0462
  136OSM   H11A14767   4.599   3.270   7.145  0.4891  0.5657 -2.8335
  136OSM   H11B14768   4.525   3.118   7.101 -0.7662  1.0034  1.4978
  136OSM      P14769   4.729   3.048   6.918 -0.1877  0.2079 -0.1546
  136OSM    O1314770   4.853   3.074   6.839 -0.0062 -0.7236 -0.2808
  136OSM    O1414771   4.701   2.908   6.943 -0.2421 -0.2322 -0.2843
  136OSM    O1114772   4.614   3.110   6.830 -0.5518 -0.1939 -0.1565
  136OSM    O1214773   4.728   3.131   7.047  0.0999  0.1167  0.4331
  136OSM    C1S14774   4.616   3.252   6.797  0.9741 -0.5959  0.1578
  136OSM    H1S14775   4.713   3.298   6.768  0.1417  1.5206  0.5551
  136OSM    H1T14776   4.597   3.320   6.883  1.3168  1.4188 -1.2863
  136OSM     NF14777   4.525   3.404   6.638 -0.7461 -0.2792  1.1083
  136OSM    HNF14778   4.451   3.469   6.656 -0.9523 -0.6973  1.8092
  136OSM    C2S14779   4.502   3.279   6.698  0.4930 -0.0408  0.6081
  136OSM    H2S14780   4.509   3.210   6.612 -2.7282 -1.4203  1.2881
  136OSM    C3S14781   4.362   3.257   6.760 -0.3458 -0.3389 -0.0406
  136OSM    H3S14782   4.357   3.343   6.830  0.9726 -0.2150 -0.0795
  136OSM     O314783   4.349   3.146   6.844  0.1030  0.5398 -0.5229
  136OSM    HO314784   4.439   3.114   6.850  1.0872  2.7721 -2.1134
  136OSM    C4S14785   4.270   3.268   6.636 -0.2773 -0.7636 -0.1188
  136OSM    H4S14786   4.267   3.371   6.598 -1.9969 -0.4985  0.6279
  136OSM    C5S14787   4.228   3.169   6.559 -0.8353  0.1829 -0.0172
  136OSM    H5S14788   4.262   3.067   6.579  4.5540  1.6793 -0.1767
  136OSM    C6S14789   4.141   3.204   6.437 -0.0139  0.2361  0.0741
  136OSM    H6S14790   4.074   3.290   6.458 -1.2591 -0.9987  1.3083
  136OSM    H6T14791   4.073   3.119   6.416 -1.3069  1.2821 -0.1093
  136OSM    C7S14792   4.227   3.237   6.317  0.7775  0.5690  0.1677
  136OSM    H7S14793   4.305   3.159   6.305  0.1605 -0.6815  3.3100
  136OSM    H7T14794   4.302   3.317   6.334  2.7421 -1.2451  0.5180
  136OSM    C8S14795   4.157   3.255   6.181 -0.4441  0.0059 -0.2255
  136OSM    H8S14796   4.094   3.346   6.192  0.0271  0.3033  0.0197
  136OSM    H8T14797   4.100   3.164   6.152 -0.7763  0.5896 -1.4596
  136OSM    C9S14798   4.263   3.283   6.079 -0.0446  0.2989  0.0514
  136OSM    H9S14799   4.336   3.200   6.080  2.1275  2.0422 -1.7503
  136OSM    H9T14800   4.321   3.375   6.102  1.6405 -0.3810 -1.2694
  136OSM   C10S14801   4.202   3.297   5.940 -0.2041 -0.1762 -0.0717
  136OSM   H10S14802   4.117   3.368   5.943  1.0880  1.6598 -2.6166
  136OSM   H10T14803   4.150   3.204   5.909 -2.5758  1.2758 -0.7030
  136OSM   C11S14804   4.301   3.326   5.826  0.1158  0.5146  0.2110
  136OSM   H11S14805   4.369   3.238   5.818  0.8062  1.2234 -2.4939
  136OSM   H11T14806   4.374   3.404   5.858 -0.0689  0.6799  0.2347
  136OSM   C12S14807   4.233   3.343   5.692 -0.1508  0.0506  0.7816
  136OSM   H12S14808   4.162   3.428   5.691  0.6283  0.7021 -0.6697
  136OSM   H12T14809   4.172   3.254   5.666 -0.5755 -0.0841  2.1460
  136OSM   C13S14810   4.337   3.363   5.583 -0.6287  0.5489 -0.1732
  136OSM   H13S14811   4.415   3.284   5.587  0.3598  1.5365  1.0498
  136OSM   H13T14812   4.392   3.460   5.580  0.5189 -0.1026 -0.7654
  136OSM   C14S14813   4.277   3.327   5.438 -0.3170  0.2627  0.1434
  136OSM   H14S14814   4.196   3.400   5.415 -1.0276  0.9942  4.2515
  136OSM   H14T14815   4.233   3.225   5.430 -1.4305  0.8206 -1.3745
  136OSM   C15S14816   4.382   3.350   5.326  0.2751  0.2936 -0.4041
  136OSM   H15S14817   4.476   3.300   5.358  0.5276 -0.0372 -1.6106
  136OSM   H15T14818   4.402   3.460   5.327 -1.4214  0.6719  2.1471
  136OSM   C16S14819   4.334   3.306   5.186  0.2305 -0.6112  0.3976
  136OSM   H16S14820   4.241   3.352   5.145  0.0485  0.1827  1.6422
  136OSM   H16T14821   4.323   3.195   5.181 -0.9728 -0.5110  0.3380
  136OSM   C17S14822   4.441   3.339   5.079  0.1044 -0.1388 -0.0515
  136OSM   H17S14823   4.537   3.298   5.118  0.2754  0.3456  0.0510
  136OSM   H17T14824   4.443   3.450   5.071 -0.2016  0.0132  1.5885
  136OSM   C18S14825   4.408   3.277   4.942 -0.2884 -0.3250  0.6360
  136OSM   H18S14826   4.413   3.168   4.961  0.8688 -0.3622  0.2182
  136OSM   H18T14827   4.478   3.302   4.860 -0.0280 -0.0457  0.9371
  136OSM   H18U14828   4.310   3.315   4.909 -0.1212  0.7515  1.3182
  136OSM    C1F14829   4.626   3.435   6.556 -0.0880 -0.2069  1.2694
  136OSM     OF14830   4.709   3.356   6.516  0.6257  0.3796 -0.0982
  136OSM    C2F14831   4.639   3.586   6.526 -0.1364 -0.5169 -0.3354
  136OSM    H2F14832   4.740   3.627   6.547 -0.8848  0.9796  0.4825
  136OSM    H2G14833   4.563   3.639   6.587  0.5612 -1.8255  1.7661
  136OSM    C3F14834   4.609   3.608   6.379  0.4779  0.0971 -1.0445
  136OSM    H3F14835   4.504   3.572   6.367 -0.3694  0.6948  3.1017
  136OSM    H3G14836   4.687   3.554   6.320  1.3465  2.3675 -2.0672
  136OSM    C4F14837   4.612   3.754   6.337 -0.3074  0.3080  0.2563
  136OSM    H4F14838   4.662   3.815   6.415  0.5503 -0.8152  0.6121
  136OSM    H4G14839   4.511   3.796   6.317 -0.7149 -1.6144 -2.2269
  136OSM    C5F14840   4.706   3.773   6.213  0.3937  0.0922  0.5119
  136OSM    H5F14841   4.811   3.746   6.236  1.3145  3.1358  0.3620
  136OSM    H5G14842   4.704   3.880   6.183 -0.8844  0.0240  0.2817
  136OSM    C6F14843   4.639   3.694   6.089 -0.2742 -0.3561  0.1954
  136OSM    H6F14844   4.529   3.703   6.101 -0.3498 -0.1665 -0.6033
  136OSM    H6G14845   4.679   3.590   6.096  0.2064 -0.1524  0.4797
  136OSM    C7F14846   4.691   3.744   5.952 -0.4458  0.1099 -0.0356
  136OSM    H7F14847   4.799   3.722   5.942 -0.4541  0.3044 -0.5409
  136OSM    H7G14848   4.696   3.855   5.957  1.0882  0.0426  0.4004
  136OSM    C8F14849   4.588   3.692   5.850  0.3422  0.5981  0.0006
  136OSM    H8F14850   4.487   3.717   5.886  0.6625 -0.3602  1.6633
  136OSM    H8G14851   4.592   3.581   5.848 -1.1691  0.5124  0.5389
  136OSM    C9F14852   4.610   3.738   5.706 -0.6667  0.0246 -0.1271
  136OSM    H9F14853   4.575   3.840   5.683 -0.4887  0.0024 -0.5003
  136OSM   C10F14854   4.666   3.673   5.609 -0.4157 -0.4626  0.4631
  136OSM   H10F14855   4.674   3.725   5.513 -0.5258 -2.0090 -0.4216
  136OSM   C11F14856   4.722   3.529   5.606 -0.3816  0.0078  0.3789
  136OSM   H11F14857   4.644   3.454   5.581  0.6878 -1.0344  0.0849
  136OSM   H11G14858   4.764   3.496   5.704  2.1863 -0.1229 -0.6904
  136OSM   C12F14859   4.835   3.513   5.504  0.4045  0.4904  0.4524
  136OSM   H12F14860   4.880   3.412   5.508  2.6849  1.4068 -0.0464
  136OSM   H12G14861   4.920   3.579   5.531 -0.3085  0.8044  2.0022
  136OSM   C13F14862   4.785   3.531   5.363  0.2946 -0.0755 -0.2638
  136OSM   H13F14863   4.738   3.630   5.342 -0.9130 -0.9184 -1.7182
  136OSM   H13G14864   4.703   3.458   5.350 -0.0176  0.1991  0.1590
  136OSM   C14F14865   4.902   3.521   5.262  0.2743  0.0549  0.0280
  136OSM   H14F14866   4.956   3.426   5.283  2.3210  1.0888 -0.3320
  136OSM   H14G14867   4.971   3.599   5.299 -0.8962 -0.4630  3.7346
  136OSM   C15F14868   4.865   3.533   5.117 -0.3671  0.6221  0.1602
  136OSM   H15F14869   4.779   3.604   5.107 -1.2571 -0.3665  0.5752
  136OSM   H15G14870   4.816   3.438   5.086 -1.4116  0.7206  1.4519
  136OSM   C16F14871   4.978   3.564   5.015  0.4099 -0.0616 -0.6897
  136OSM   H16F14872   5.051   3.481   5.030  0.0194 -0.4586 -0.9586
  136OSM   H16G14873   5.017   3.664   5.042 -0.0400 -0.1070  0.1705
  136OSM   C17F14874   4.934   3.561   4.865 -0.2873 -0.2304 -0.4161
  136OSM   H17F14875   4.856   3.639   4.865 -2.9133 -2.7010  0.4717
  136OSM   H17G14876   4.893   3.465   4.829 -0.5292  0.1585 -1.1924
  136OSM   C18F14877   5.054   3.604   4.784 -0.4909  0.3818  0.3695
  136OSM   H18F14878   5.084   3.707   4.813  1.2918 -0.1776  0.6276
  136OSM   H18G14879   5.025   3.622   4.678  0.3900 -0.7465 -0.0786
  136OSM   H18H14880   5.149   3.547   4.791  0.3732  1.9234  2.2573
  137OSM      N14881   6.082   2.174   6.990  1.2205 -0.5946  0.2252
  137OSM    C1514882   6.117   2.308   7.056  0.0797 -0.0881 -1.0515
  137OSM   H15A14883   6.046   2.381   7.022 -1.0109 -1.3546 -1.5970
  137OSM   H15B14884   6.217   2.324   7.019  0.9044  0.4479  1.2418
  137OSM   H15C14885   6.114   2.307   7.164 -1.5485  0.8800 -1.0690
  137OSM    C1414886   6.172   2.064   7.041  0.1713  0.4002  0.2546
  137OSM   H14A14887   6.153   2.032   7.143 -1.4498  1.9328  0.4973
  137OSM   H14B14888   6.275   2.090   7.027  0.4414 -1.1918 -1.0095
  137OSM   H14C14889   6.150   1.978   6.980  0.8163 -0.0189  0.6014
  137OSM    C1314890   5.938   2.138   7.009  0.1991 -0.0352 -0.3094
  137OSM   H13A14891   5.905   2.060   6.940 -0.5094 -2.3853  2.4838
  137OSM   H13B14892   5.872   2.222   6.992 -0.0715 -0.1471  0.1740
  137OSM   H13C14893   5.923   2.102   7.110 -1.5520  1.0579 -0.1358
  137OSM    C1214894   6.100   2.200   6.842 -0.1740  0.1220  0.7353
  137OSM   H12A14895   6.022   2.270   6.818 -1.0103 -0.9475  0.2676
  137OSM   H12B14896   6.080   2.113   6.781  2.9483 -0.5916  0.5462
  137OSM    C1114897   6.240   2.251   6.795  0.0189 -0.4688 -0.1773
  137OSM   H11A14898   6.271   2.348   6.838  0.7810 -0.0297 -1.6413
  137OSM   H11B14899   6.222   2.285   6.691  0.8265 -0.9949 -0.4926
  137OSM      P14900   6.489   2.187   6.858  0.5160  0.0750 -0.4090
  137OSM    O1314901   6.491   2.271   6.981 -0.9449 -0.3020  0.3241
  137OSM    O1414902   6.573   2.066   6.857  0.3295  0.4045 -0.2805
  137OSM    O1114903   6.543   2.284   6.754 -0.2934  0.3144 -0.0047
  137OSM    O1214904   6.345   2.144   6.806  0.7587 -0.0504 -0.1633
  137OSM    C1S14905   6.587   2.247   6.624  0.7545  0.1363  0.2446
  137OSM    H1S14906   6.587   2.136   6.610 -0.7290  0.0379  0.8122
  137OSM    H1T14907   6.687   2.293   6.610  0.9798  0.0722  1.5273
  137OSM     NF14908   6.523   2.255   6.375 -0.2107  0.0408 -0.1560
  137OSM    HNF14909   6.552   2.326   6.311 -0.2870  0.8286  0.6634
  137OSM    C2S14910   6.488   2.307   6.510  0.5817  1.1151  0.5088
  137OSM    H2S14911   6.391   2.267   6.548 -0.6435  2.9884 -0.4990
  137OSM    C3S14912   6.482   2.465   6.518  0.2214  0.7386  0.7594
  137OSM    H3S14913   6.578   2.506   6.480 -0.7704  2.2393 -0.2339
  137OSM     O314914   6.456   2.514   6.654 -0.2564 -0.2902  0.2171
  137OSM    HO314915   6.483   2.439   6.707  0.1400 -0.4710 -0.2365
  137OSM    C4S14916   6.369   2.519   6.439  0.6907  0.4125  1.0441
  137OSM    H4S14917   6.277   2.463   6.463  1.2774 -1.0506  0.0747
  137OSM    C5S14918   6.379   2.612   6.341  0.3901  0.2322 -0.8181
  137OSM    H5S14919   6.482   2.639   6.313  0.9976 -0.4427  0.6478
  137OSM    C6S14920   6.271   2.649   6.236 -0.9269 -0.3387  0.4161
  137OSM    H6S14921   6.246   2.757   6.241 -2.8168 -0.7690  1.3386
  137OSM    H6T14922   6.179   2.588   6.246 -0.9044 -0.4274  0.0909
  137OSM    C7S14923   6.328   2.636   6.091 -0.3894  0.5046  0.2517
  137OSM    H7S14924   6.356   2.530   6.074  1.4838  0.9119  0.6131
  137OSM    H7T14925   6.418   2.700   6.079  0.9186 -1.5685 -2.0045
  137OSM    C8S14926   6.220   2.681   5.991  0.5421 -0.5370 -0.4653
  137OSM    H8S14927   6.189   2.783   6.021  0.9142 -0.4532 -0.3503
  137OSM    H8T14928   6.126   2.623   6.002 -0.0144  0.0240 -2.0517
  137OSM    C9S14929   6.279   2.668   5.850 -0.1018  0.5901  0.7877
  137OSM    H9S14930   6.282   2.560   5.824 -0.7133  1.2212 -2.3096
  137OSM    H9T14931   6.382   2.708   5.844 -0.3208  1.1386  0.6473
  137OSM   C10S14932   6.200   2.746   5.738 -0.1516  0.4335  0.6106
  137OSM   H10S14933   6.218   2.856   5.742 -1.6245  0.7891 -0.9597
  137OSM   H10T14934   6.092   2.749   5.767 -0.0764  0.0654  0.9280
  137OSM   C11S14935   6.242   2.715   5.597  0.2239  0.2800  0.0865
  137OSM   H11S14936   6.199   2.617   5.566 -0.9269  0.3895  1.2497
  137OSM   H11T14937   6.352   2.718   5.586  0.5264 -1.8036  1.7278
  137OSM   C12S14938   6.178   2.803   5.486 -0.5393 -0.1281  0.3193
  137OSM   H12S14939   6.070   2.800   5.513 -0.2821  0.3632  1.4608
  137OSM   H12T14940   6.203   2.750   5.392 -0.2352 -1.2249  0.9938
  137OSM   C13S14941   6.241   2.942   5.489 -0.0662  0.0352  0.3253
  137OSM   H13S14942   6.351   2.929   5.482 -0.2789 -1.3223 -0.8830
  137OSM   H13T14943   6.215   3.004   5.578  1.4457  1.8054 -0.3803
  137OSM   C14S14944   6.193   3.034   5.361 -0.0827 -0.0653 -1.3016
  137OSM   H14S14945   6.227   3.134   5.394 -0.7614 -0.5961  1.2275
  137OSM   H14T14946   6.082   3.043   5.364 -0.1637 -0.4685  2.4177
  137OSM   C15S14947   6.266   3.008   5.229 -0.4863  0.0536  0.0439
  137OSM   H15S14948   6.371   2.985   5.256 -0.4280 -0.7947 -0.8884
  137OSM   H15T14949   6.267   3.107   5.178 -1.4476 -0.7154 -1.5224
  137OSM   C16S14950   6.200   2.907   5.137  0.0395  0.2903 -1.1063
  137OSM   H16S14951   6.092   2.930   5.125 -0.6118 -0.7618  1.9321
  137OSM   H16T14952   6.199   2.802   5.171  1.8390  0.7139  0.3846
  137OSM   C17S14953   6.270   2.913   5.001 -0.5904  0.0373 -1.0110
  137OSM   H17S14954   6.366   2.856   5.008 -0.0956  0.9597 -0.0476
  137OSM   H17T14955   6.283   3.016   4.964 -1.7044  0.0283 -1.4695
  137OSM   C18S14956   6.193   2.843   4.889  0.1135  0.0842 -0.5724
  137OSM   H18S14957   6.258   2.837   4.798  0.4593  1.2078 -0.4073
  137OSM   H18T14958   6.095   2.887   4.861  0.4103  1.6034  0.6544
  137OSM   H18U14959   6.163   2.740   4.918 -1.7824  0.1750 -2.0197
  137OSM    C1F14960   6.522   2.122   6.346 -0.1793 -1.3065  0.4369
  137OSM     OF14961   6.493   2.035   6.429 -0.0238  0.3453 -0.3970
  137OSM    C2F14962   6.567   2.083   6.212 -0.4496 -0.5408 -0.1408
  137OSM    H2F14963   6.678   2.080   6.217 -0.3241  2.3903  0.8339
  137OSM    H2G14964   6.534   2.160   6.139 -1.0244 -0.6183  0.0361
  137OSM    C3F14965   6.516   1.947   6.159 -0.0616 -0.4009  0.8449
  137OSM    H3F14966   6.405   1.948   6.158 -0.1245 -2.4959  1.4417
  137OSM    H3G14967   6.563   1.873   6.227  2.9822  0.9050  0.3225
  137OSM    C4F14968   6.567   1.914   6.015  0.5170  0.5612 -0.3946
  137OSM    H4F14969   6.521   1.818   5.983  0.4789  1.0335 -1.8310
  137OSM    H4G14970   6.676   1.901   6.028  0.3343 -1.5276 -0.7142
  137OSM    C5F14971   6.540   2.021   5.903 -0.1684  0.3129  0.3033
  137OSM    H5F14972   6.577   2.123   5.927  0.1576  0.0363  1.0194
  137OSM    H5G14973   6.429   2.031   5.903 -0.2971 -0.9153  0.7241
  137OSM    C6F14974   6.610   1.985   5.777  0.4284  0.7991  0.2419
  137OSM    H6F14975   6.567   1.887   5.748  2.2972 -0.3618  1.1844
  137OSM    H6G14976   6.720   1.973   5.784  0.2328 -2.9602 -0.7000
  137OSM    C7F14977   6.579   2.081   5.664 -0.2443 -0.5698 -0.1286
  137OSM    H7F14978   6.596   2.190   5.680 -0.1521 -0.3640 -1.4937
  137OSM    H7G14979   6.472   2.076   5.635 -0.9694  0.3598  2.1615
  137OSM    C8F14980   6.659   2.045   5.536 -0.1466  0.9595  0.0260
  137OSM    H8F14981   6.661   1.936   5.516 -1.9903  0.4280  2.2486
  137OSM    H8G14982   6.763   2.079   5.554  0.3171 -0.4821  0.1979
  137OSM    C9F14983   6.599   2.108   5.409 -0.4442 -0.7573  1.8035
  137OSM    H9F14984   6.544   2.200   5.436 -0.2851 -0.4747  1.1879
  137OSM   C10F14985   6.631   2.089   5.277  0.1296  0.7425 -1.3462
  137OSM   H10F14986   6.603   2.162   5.199 -1.1873  0.5810 -1.0418
  137OSM   C11F14987   6.735   1.986   5.231 -0.4488 -0.3245  0.2683
  137OSM   H11F14988   6.790   1.938   5.314  0.1333 -1.7379 -0.8795
  137OSM   H11G14989   6.807   2.039   5.165 -1.2981 -0.2331 -0.6070
  137OSM   C12F14990   6.662   1.867   5.157 -0.3046  0.4709 -0.0583
  137OSM   H12F14991   6.571   1.836   5.213 -1.4498 -2.4648 -3.1538
  137OSM   H12G14992   6.730   1.779   5.166 -1.8285 -0.5496  3.2238
  137OSM   C13F14993   6.617   1.906   5.015  0.6402 -0.7551 -0.0666
  137OSM   H13F14994   6.700   1.940   4.948 -1.2674  2.8110 -0.9069
  137OSM   H13G14995   6.548   1.993   5.017 -2.6686 -3.0409 -2.8265
  137OSM   C14F14996   6.544   1.799   4.934  0.5698 -0.4140 -0.1901
  137OSM   H14F14997   6.442   1.801   4.978  0.1247 -4.2011 -0.6844
  137OSM   H14G14998   6.581   1.697   4.959  0.1720 -0.4144  0.4112
  137OSM   C15F14999   6.558   1.818   4.783 -0.3896 -0.3030 -0.1580
  137OSM   H15F15000   6.519   1.737   4.718 -1.8548  0.6108 -0.4625
  137OSM   H15G15001   6.665   1.823   4.755 -0.5146  0.1366 -0.5714
  137OSM   C16F15002   6.511   1.954   4.718  0.4541 -0.1444  0.0216
  137OSM   H16F15003   6.568   2.034   4.769  1.5624 -0.2381 -1.0133
  137OSM   H16G15004   6.401   1.965   4.724  0.4384 -0.3420  0.1212
  137OSM   C17F15005   6.553   1.957   4.571 -0.5922  0.2016 -0.3635
  137OSM   H17F15006   6.529   1.861   4.521 -1.5624 -0.0158  0.4837
  137OSM   H17G15007   6.663   1.973   4.565 -0.7571  0.9467 -1.7700
  137OSM   C18F15008   6.475   2.070   4.509 -0.7174 -0.7370 -0.1686
  137OSM   H18F15009   6.492   2.160   4.572 -0.3822 -0.5031 -0.5861
  137OSM   H18G15010   6.366   2.048   4.510 -1.3654  2.0625 -0.9014
  137OSM   H18H15011   6.519   2.095   4.410  0.7143 -0.8729  0.4176
  138OSM      N15012   3.373   2.156   6.889  0.0514  0.3514 -0.2487
  138OSM    C1515013   3.424   2.219   7.009 -0.6322  0.4301  0.2639
  138OSM   H15A15014   3.441   2.324   6.987  1.4038  0.5179  1.8990
  138OSM   H15B15015   3.515   2.172   7.045 -0.7394  0.8183  1.0745
  138OSM   H15C15016   3.362   2.202   7.096  1.3738  0.3375  1.7777
  138OSM    C1415017   3.306   2.022   6.929 -0.0954 -0.0845  0.4758
  138OSM   H14A15018   3.368   1.978   7.005  2.9797  1.1364 -1.1257
  138OSM   H14B15019   3.310   1.953   6.846  0.7937 -2.2823  2.2378
  138OSM   H14C15020   3.206   2.031   6.967  0.9281 -0.2887  3.4475
  138OSM    C1315021   3.281   2.258   6.836 -0.4652 -0.1446  0.3256
  138OSM   H13A15022   3.238   2.237   6.739  0.0390  0.9611 -0.1574
  138OSM   H13B15023   3.346   2.344   6.829  3.0472 -2.5290  1.1086
  138OSM   H13C15024   3.209   2.276   6.914  0.3255  2.4922  0.5306
  138OSM    C1215025   3.487   2.135   6.795 -0.3115 -0.1658 -0.3561
  138OSM   H12A15026   3.551   2.061   6.841 -2.3620 -0.7106  1.8327
  138OSM   H12B15027   3.531   2.233   6.783  4.1017 -1.9502 -0.5823
  138OSM    C1115028   3.451   2.069   6.658 -0.3161  0.4098 -0.5978
  138OSM   H11A15029   3.529   2.075   6.579 -0.3650 -0.0113 -0.6798
  138OSM   H11B15030   3.365   2.117   6.607 -0.7194 -1.0249 -1.3309
  138OSM      P15031   3.533   1.817   6.698 -0.4358 -0.1706 -0.6111
  138OSM    O1315032   3.622   1.836   6.823  0.0161  0.6018  0.3779
  138OSM    O1415033   3.473   1.682   6.688  0.6399  0.1008  0.6617
  138OSM    O1115034   3.628   1.844   6.567  0.5117  0.0016  0.4063
  138OSM    O1215035   3.420   1.927   6.682  0.4218 -0.3334  0.2226
  138OSM    C1S15036   3.574   1.847   6.433 -0.0735 -0.2355 -0.1686
  138OSM    H1S15037   3.472   1.891   6.435  0.4939  1.0768  0.5911
  138OSM    H1T15038   3.550   1.741   6.407 -1.8832 -0.5324  2.3176
  138OSM     NF15039   3.591   1.919   6.207  0.3615 -0.1190  1.0217
  138OSM    HNF15040   3.606   1.852   6.136  0.6501  1.9344 -0.9683
  138OSM    C2S15041   3.662   1.925   6.329  0.2065  0.4728  0.7861
  138OSM    H2S15042   3.672   2.031   6.364  0.3904 -0.2255  3.0396
  138OSM    C3S15043   3.799   1.864   6.327  0.3820  0.7262 -0.0681
  138OSM    H3S15044   3.788   1.766   6.277  0.1562 -0.7506  2.7116
  138OSM     O315045   3.847   1.816   6.448 -0.7078  0.5543  0.2171
  138OSM    HO315046   3.766   1.800   6.496 -1.0505  0.8783 -0.2540
  138OSM    C4S15047   3.895   1.941   6.246 -0.8951 -0.0205  0.2511
  138OSM    H4S15048   3.881   1.916   6.140  0.5322 -1.5624  0.4000
  138OSM    C5S15049   3.991   2.024   6.289 -0.4760  1.0998  0.4266
  138OSM    H5S15050   4.002   2.038   6.398 -1.7730 -0.1994  0.7556
  138OSM    C6S15051   4.098   2.101   6.214  0.2076 -0.6844 -0.3869
  138OSM    H6S15052   4.198   2.095   6.262  0.2246 -1.1830 -0.4732
  138OSM    H6T15053   4.079   2.210   6.207  0.6981 -0.4052  1.8467
  138OSM    C7S15054   4.117   2.061   6.064 -0.4394 -0.0906 -0.6404
  138OSM    H7S15055   4.018   2.047   6.015 -0.5642 -0.7037 -0.2245
  138OSM    H7T15056   4.162   1.960   6.063 -1.4036 -0.5574  0.5884
  138OSM    C8S15057   4.189   2.171   5.988 -0.2001 -0.2344  0.3753
  138OSM    H8S15058   4.284   2.177   6.045  0.1967 -0.6811 -0.2292
  138OSM    H8T15059   4.139   2.269   6.004 -1.6254 -1.1586  2.0383
  138OSM    C9S15060   4.226   2.156   5.844 -0.2283 -0.0258 -0.1114
  138OSM    H9S15061   4.247   2.049   5.821 -1.0715  0.4076 -3.4713
  138OSM    H9T15062   4.310   2.219   5.809  0.4907 -1.1430 -0.4540
  138OSM   C10S15063   4.116   2.198   5.741  0.1489  0.7679  0.4701
  138OSM   H10S15064   4.078   2.297   5.775 -2.5018  0.0336 -0.0876
  138OSM   H10T15065   4.039   2.117   5.742  1.4936 -0.5488  0.7455
  138OSM   C11S15066   4.169   2.206   5.601 -0.7000 -0.0970 -0.1190
  138OSM   H11S15067   4.242   2.122   5.598 -0.7318 -0.1683  0.7493
  138OSM   H11T15068   4.235   2.293   5.584 -0.4771  0.2605  2.1585
  138OSM   C12S15069   4.059   2.200   5.488  0.5835  0.2302 -0.6482
  138OSM   H12S15070   3.991   2.287   5.486  1.2302  0.7563 -0.0645
  138OSM   H12T15071   3.999   2.107   5.496 -0.5305  0.8749 -1.2251
  138OSM   C13S15072   4.109   2.218   5.344 -0.3498 -0.1029 -0.2210
  138OSM   H13S15073   4.176   2.133   5.317  1.7694  0.9313  1.5181
  138OSM   H13T15074   4.161   2.316   5.337  1.3292 -0.5196  3.7483
  138OSM   C14S15075   3.982   2.227   5.258 -0.9788 -0.1717 -0.3675
  138OSM   H14S15076   3.915   2.306   5.298 -0.4576 -0.3160  0.8462
  138OSM   H14T15077   3.933   2.128   5.271  1.6785 -1.5982 -0.4772
  138OSM   C15S15078   4.012   2.243   5.110  0.2945 -0.1907  0.1740
  138OSM   H15S15079   4.096   2.178   5.077  0.1542 -0.1552 -0.2520
  138OSM   H15T15080   4.035   2.350   5.092 -1.2687  0.0396 -0.6067
  138OSM   C16S15081   3.895   2.203   5.018 -0.2160 -0.5340 -0.4252
  138OSM   H16S15082   3.799   2.241   5.058  0.5430  2.8276 -1.5333
  138OSM   H16T15083   3.901   2.092   5.022 -3.0303 -0.8665 -2.3675
  138OSM   C17S15084   3.916   2.255   4.880  0.7808  0.9161  0.7077
  138OSM   H17S15085   4.004   2.204   4.835  0.7601 -0.2461  1.9390
  138OSM   H17T15086   3.928   2.365   4.892  0.4847  1.1688 -1.0443
  138OSM   C18S15087   3.796   2.224   4.782 -0.4171  1.0865 -0.0721
  138OSM   H18S15088   3.748   2.127   4.808  1.7189 -0.5060 -1.6394
  138OSM   H18T15089   3.831   2.206   4.678 -0.6878 -1.2299  0.1777
  138OSM   H18U15090   3.727   2.311   4.775 -1.4159  0.1949 -3.0180
  138OSM    C1F15091   3.477   1.985   6.189  0.3114  0.1553  0.1775
  138OSM     OF15092   3.434   2.062   6.276 -0.0265  0.2343  0.8778
  138OSM    C2F15093   3.400   1.958   6.064 -0.3350 -0.0535  0.1426
  138OSM    H2F15094   3.351   1.859   6.081  0.5405 -0.1687  2.1851
  138OSM    H2G15095   3.467   1.949   5.975 -0.5122  0.5354 -0.0513
  138OSM    C3F15096   3.316   2.083   6.039 -0.5724 -0.4854  0.5877
  138OSM    H3F15097   3.380   2.168   6.007 -2.7077  1.0354  0.1474
  138OSM    H3G15098   3.262   2.115   6.131 -1.0462  1.0844 -0.2112
  138OSM    C4F15099   3.219   2.060   5.925 -0.2084  0.1674 -0.5437
  138OSM    H4F15100   3.127   2.122   5.926  0.3313  0.9919  0.6875
  138OSM    H4G15101   3.186   1.956   5.945 -0.9288  0.8115  1.9948
  138OSM    C5F15102   3.286   2.085   5.787 -0.3591 -0.2967 -0.6792
  138OSM    H5F15103   3.373   2.016   5.781 -0.0186  0.1354 -0.7700
  138OSM    H5G15104   3.312   2.193   5.789 -0.8099 -0.1681 -1.2921
  138OSM    C6F15105   3.186   2.038   5.674 -0.8540 -0.1773 -0.4270
  138OSM    H6F15106   3.231   2.068   5.576  1.3111  0.2600  0.6301
  138OSM    H6G15107   3.103   2.111   5.686 -0.7397 -0.0068 -0.6501
  138OSM    C7F15108   3.150   1.888   5.670 -0.2269 -0.1576 -0.5629
  138OSM    H7F15109   3.056   1.878   5.729  1.4616 -0.3415  2.2746
  138OSM    H7G15110   3.226   1.827   5.723 -0.6624 -1.5953 -1.5507
  138OSM    C8F15111   3.132   1.837   5.528 -0.2437  0.0926 -0.2305
  138OSM    H8F15112   3.109   1.728   5.528  0.7996 -0.1533 -1.2259
  138OSM    H8G15113   3.228   1.861   5.478  0.4545 -0.1406  0.9740
  138OSM    C9F15114   3.023   1.912   5.458  0.2534 -0.1508  0.8721
  138OSM    H9F15115   2.951   1.960   5.526  0.6008  0.9935  0.4610
  138OSM   C10F15116   2.998   1.922   5.324 -0.6576  0.4588  0.4068
  138OSM   H10F15117   2.928   2.002   5.296 -2.5741 -1.9336 -2.1643
  138OSM   C11F15118   3.081   1.867   5.210 -0.3123  1.3974 -0.0147
  138OSM   H11F15119   3.118   1.764   5.232 -1.9409  0.6756 -0.5340
  138OSM   H11G15120   3.175   1.923   5.191  0.7476 -0.1805  0.3687
  138OSM   C12F15121   2.998   1.862   5.072 -0.1881  0.6293 -0.1206
  138OSM   H12F15122   2.972   1.969   5.054 -1.0330  0.2394 -1.3250
  138OSM   H12G15123   2.909   1.802   5.099  0.8160 -0.1390  1.6685
  138OSM   C13F15124   3.076   1.791   4.968 -0.1242 -0.4277  0.9381
  138OSM   H13F15125   3.094   1.684   4.993  0.2413 -0.6174 -0.0748
  138OSM   H13G15126   3.175   1.839   4.949 -0.8728  0.4165 -1.1280
  138OSM   C14F15127   2.991   1.792   4.834  0.2072  0.0214  0.6853
  138OSM   H14F15128   2.949   1.894   4.843 -1.4624 -0.6115  0.6423
  138OSM   H14G15129   2.900   1.730   4.852  0.4116  0.3416  3.3008
  138OSM   C15F15130   3.066   1.756   4.702  0.7086  0.5028 -0.8172
  138OSM   H15F15131   3.108   1.657   4.728  2.0292  1.2458  0.0069
  138OSM   H15G15132   3.154   1.821   4.678  1.3211 -1.0683 -3.1345
  138OSM   C16F15133   2.983   1.741   4.583 -0.3180  0.4399 -0.3512
  138OSM   H16F15134   2.912   1.656   4.597  2.9390 -2.5536 -0.6028
  138OSM   H16G15135   3.051   1.709   4.502 -0.9586  0.2401 -0.8213
  138OSM   C17F15136   2.898   1.865   4.541  0.1954 -0.3934 -1.0934
  138OSM   H17F15137   2.974   1.946   4.529  0.2267 -0.1914  0.3159
  138OSM   H17G15138   2.827   1.893   4.621  0.9470 -0.8385 -0.2470
  138OSM   C18F15139   2.820   1.841   4.411 -0.0114  0.0367 -0.2582
  138OSM   H18F15140   2.739   1.916   4.397 -0.1734 -0.3165 -1.2749
  138OSM   H18G15141   2.761   1.747   4.412 -1.8782  1.1583  0.7884
  138OSM   H18H15142   2.896   1.836   4.329  1.3786  0.0903  0.9763
  139OSM      N15143   6.192   5.096   7.385  0.1157 -0.1703 -0.4783
  139OSM    C1515144   6.123   5.202   7.468  0.1014  0.5867 -0.1574
  139OSM   H15A15145   6.016   5.188   7.457  0.0241 -0.4934  1.6668
  139OSM   H15B15146   6.148   5.304   7.444 -0.9564  0.3255 -2.8188
  139OSM   H15C15147   6.148   5.193   7.572  0.7752  2.5567 -0.1198
  139OSM    C1415148   6.339   5.107   7.390  0.1307  0.3498  0.8307
  139OSM   H14A15149   6.381   5.087   7.487  0.7137  0.8451  0.6792
  139OSM   H14B15150   6.370   5.205   7.359 -1.1891  0.2311 -1.0588
  139OSM   H14C15151   6.379   5.032   7.323 -0.2245  0.6373  0.2917
  139OSM    C1315152   6.146   4.963   7.428  0.0774  0.1610  0.5498
  139OSM   H13A15153   6.199   4.934   7.518  1.0211 -0.6508 -0.2497
  139OSM   H13B15154   6.188   4.891   7.360 -2.3883 -0.9010  0.0630
  139OSM   H13C15155   6.040   4.948   7.439  0.2895 -0.3875  2.1371
  139OSM    C1215156   6.156   5.110   7.239  0.4446  0.3038 -0.3669
  139OSM   H12A15157   6.196   5.207   7.212  3.6737 -0.3507  1.5664
  139OSM   H12B15158   6.050   5.128   7.230  0.7783  1.8339 -1.7643
  139OSM    C1115159   6.211   5.014   7.131 -0.4477  0.2081  0.5742
  139OSM   H11A15160   6.319   5.032   7.112 -0.7043  0.0074 -1.2550
  139OSM   H11B15161   6.166   5.043   7.033 -1.2254 -2.6174 -0.0028
  139OSM      P15162   6.060   4.812   7.103  0.3299 -0.1212 -0.5492
  139OSM    O1315163   6.067   4.671   7.151  0.3291  0.0340 -0.3650
  139OSM    O1415164   5.938   4.900   7.131  0.1975 -0.3307  0.0640
  139OSM    O1115165   6.093   4.806   6.959  0.1788 -0.2824 -0.1700
  139OSM    O1215166   6.190   4.875   7.164 -0.1599 -0.2073 -0.1922
  139OSM    C1S15167   6.118   4.675   6.898  0.2242  0.9908 -0.0885
  139OSM    H1S15168   6.018   4.630   6.881  0.7642 -0.1774 -0.2364
  139OSM    H1T15169   6.174   4.603   6.960 -0.0586  0.8732  0.0331
  139OSM     NF15170   6.150   4.566   6.674  0.0727 -0.2545  0.1288
  139OSM    HNF15171   6.220   4.501   6.644  1.7178  1.1628  0.6863
  139OSM    C2S15172   6.192   4.679   6.755  0.4488  0.1945 -0.0415
  139OSM    H2S15173   6.155   4.773   6.707 -0.9844  0.0980  0.8042
  139OSM    C3S15174   6.343   4.685   6.771  0.1886  0.1646 -0.0529
  139OSM    H3S15175   6.368   4.586   6.814 -0.7847  0.4285  1.1717
  139OSM     O315176   6.389   4.767   6.879 -0.1339 -0.4060 -0.0617
  139OSM    HO315177   6.305   4.794   6.917  0.3141 -0.8288  1.2850
  139OSM    C4S15178   6.422   4.703   6.639  0.3494  0.1877  0.1071
  139OSM    H4S15179   6.391   4.783   6.570  1.2392 -1.2827 -2.1170
  139OSM    C5S15180   6.531   4.631   6.604  0.1044 -0.6880 -0.5893
  139OSM    H5S15181   6.571   4.555   6.674 -2.4077 -0.2637  1.4640
  139OSM    C6S15182   6.611   4.650   6.478  0.3740 -0.0340  0.0276
  139OSM    H6S15183   6.630   4.554   6.426  1.0845  0.8985 -1.5379
  139OSM    H6T15184   6.701   4.711   6.503  1.8580 -1.8580 -0.6769
  139OSM    C7S15185   6.540   4.738   6.373  0.0920  0.3250  0.2697
  139OSM    H7S15186   6.536   4.847   6.394  1.9855  0.3191  0.7876
  139OSM    H7T15187   6.435   4.703   6.359  0.6147 -1.8311  1.3548
  139OSM    C8S15188   6.596   4.721   6.232  0.1632 -0.8055  0.2988
  139OSM    H8S15189   6.604   4.612   6.213 -0.1974 -0.8699  0.5045
  139OSM    H8T15190   6.702   4.754   6.231 -0.5080  1.8833  2.9260
  139OSM    C9S15191   6.523   4.799   6.120  0.9112 -0.4307  0.1061
  139OSM    H9S15192   6.508   4.907   6.136 -2.1357 -0.4495 -1.8388
  139OSM    H9T15193   6.419   4.763   6.109  0.2450  0.8513  1.8815
  139OSM   C10S15194   6.592   4.792   5.986 -0.6158  0.2370  0.5226
  139OSM   H10S15195   6.611   4.684   5.970  0.6790  0.2796  1.6612
  139OSM   H10T15196   6.691   4.842   5.991 -0.6256  0.8957 -2.9443
  139OSM   C11S15197   6.503   4.845   5.870 -0.4813  0.1537  0.5133
  139OSM   H11S15198   6.477   4.952   5.884 -1.6380  0.2931 -2.1067
  139OSM   H11T15199   6.410   4.786   5.877 -0.2230 -0.2351  0.6663
  139OSM   C12S15200   6.582   4.826   5.741  0.0988 -0.4553 -0.3279
  139OSM   H12S15201   6.629   4.726   5.736  1.4752  0.0785  1.1155
  139OSM   H12T15202   6.660   4.902   5.763 -1.3888  0.6239  1.6274
  139OSM   C13S15203   6.506   4.860   5.612  1.2853  0.0530 -0.1168
  139OSM   H13S15204   6.481   4.968   5.609 -1.2205 -0.4300 -3.7399
  139OSM   H13T15205   6.407   4.809   5.604  0.9493  0.1539  2.4963
  139OSM   C14S15206   6.593   4.834   5.485  0.1781  0.0690 -0.0862
  139OSM   H14S15207   6.590   4.725   5.465  1.7446 -0.4470  2.2327
  139OSM   H14T15208   6.696   4.852   5.523 -0.5774 -1.1571  2.7705
  139OSM   C15S15209   6.558   4.926   5.364  0.2831 -0.4442 -0.2320
  139OSM   H15S15210   6.606   5.025   5.375 -1.6241  0.4762  0.3370
  139OSM   H15T15211   6.450   4.953   5.370  0.2153 -0.9396  1.5045
  139OSM   C16S15212   6.583   4.870   5.230 -0.3211  0.2275 -0.1369
  139OSM   H16S15213   6.521   4.779   5.215  1.3315 -1.3601  2.0816
  139OSM   H16T15214   6.688   4.836   5.225 -0.9184 -1.7717 -0.1270
  139OSM   C17S15215   6.548   4.980   5.122 -0.4062 -0.2212  0.1703
  139OSM   H17S15216   6.604   5.073   5.146  2.6800 -1.3056 -2.0705
  139OSM   H17T15217   6.438   4.991   5.111 -0.2733 -0.1468 -1.3632
  139OSM   C18S15218   6.597   4.938   4.985 -0.3045  0.6073 -0.7011
  139OSM   H18S15219   6.544   4.854   4.934 -2.7954  0.5505  1.7355
  139OSM   H18T15220   6.704   4.909   4.993 -0.4327 -0.1735 -1.5847
  139OSM   H18U15221   6.608   5.022   4.913  1.3680  0.5369 -0.5665
  139OSM    C1F15222   6.028   4.545   6.631 -0.2728 -0.6556 -0.5122
  139OSM     OF15223   5.948   4.636   6.646  0.8312  0.5990 -1.0096
  139OSM    C2F15224   5.990   4.408   6.575 -0.9562  0.0692  0.6165
  139OSM    H2F15225   5.957   4.345   6.661 -2.0886  0.2745  0.3475
  139OSM    H2G15226   6.079   4.356   6.534 -1.2987  1.6974 -2.4609
  139OSM    C3F15227   5.877   4.412   6.472  0.0683  0.2996  0.1261
  139OSM    H3F15228   5.785   4.468   6.499  0.9098  1.0711  1.5252
  139OSM    H3G15229   5.842   4.307   6.462 -2.4589  1.0691  0.0193
  139OSM    C4F15230   5.913   4.464   6.335  0.3341 -0.2113 -0.0569
  139OSM    H4F15231   6.023   4.476   6.321  0.3339  1.0247  0.7921
  139OSM    H4G15232   5.866   4.564   6.337 -0.0415 -0.3569 -1.0563
  139OSM    C5F15233   5.864   4.382   6.212  0.2558 -0.5932 -0.3105
  139OSM    H5F15234   5.754   4.398   6.213  0.2710 -0.4862  0.8251
  139OSM    H5G15235   5.883   4.275   6.233 -1.4189 -0.3926  2.8733
  139OSM    C6F15236   5.912   4.441   6.080 -0.3169 -0.3706 -0.3438
  139OSM    H6F15237   5.861   4.397   5.991  0.4336  1.1113 -1.5437
  139OSM    H6G15238   6.021   4.421   6.073 -0.1604 -1.0028  2.6279
  139OSM    C7F15239   5.897   4.594   6.071  0.1320  0.1160 -0.7079
  139OSM    H7F15240   5.961   4.644   6.148  2.0634 -0.2432 -1.9945
  139OSM    H7G15241   5.795   4.610   6.112  0.3640 -0.5257  0.1491
  139OSM    C8F15242   5.917   4.651   5.926  0.1071 -0.4655  0.0351
  139OSM    H8F15243   5.828   4.631   5.863 -1.5190 -0.2543  2.1694
  139OSM    H8G15244   6.003   4.594   5.883  0.0072  0.3396 -1.2999
  139OSM    C9F15245   5.941   4.804   5.916  0.2531 -0.8139 -0.4508
  139OSM    H9F15246   5.961   4.856   6.011 -0.4712 -1.5992  0.1533
  139OSM   C10F15247   5.959   4.868   5.804 -0.1371  0.0746  0.2877
  139OSM   H10F15248   5.962   4.978   5.808  0.7956  0.1022 -0.7182
  139OSM   C11F15249   5.953   4.802   5.667 -0.4889  0.0742 -0.0865
  139OSM   H11F15250   5.871   4.843   5.604 -0.6550 -1.9708 -1.2824
  139OSM   H11G15251   5.949   4.692   5.677  1.3564  0.0392  0.6218
  139OSM   C12F15252   6.075   4.840   5.579 -0.1910  0.4511  0.7202
  139OSM   H12F15253   6.173   4.809   5.620  0.8438  0.8796 -1.2947
  139OSM   H12G15254   6.078   4.951   5.572 -1.2547  0.4499 -0.1809
  139OSM   C13F15255   6.061   4.806   5.437 -0.0684 -0.4126 -0.0350
  139OSM   H13F15256   5.978   4.865   5.393  0.9819  0.4288 -0.9374
  139OSM   H13G15257   6.024   4.702   5.422 -1.2850 -0.1000  0.7235
  139OSM   C14F15258   6.203   4.830   5.365  0.4785 -0.0111  0.4746
  139OSM   H14F15259   6.286   4.791   5.428  0.4826  0.4292  0.7400
  139OSM   H14G15260   6.235   4.936   5.357  0.3481  0.1323  1.6719
  139OSM   C15F15261   6.201   4.771   5.223  0.5889 -0.6262  0.3374
  139OSM   H15F15262   6.162   4.668   5.216 -0.4625 -0.1891 -0.5188
  139OSM   H15G15263   6.304   4.756   5.186  0.3846 -1.2436  0.0152
  139OSM   C16F15264   6.128   4.854   5.111 -0.2546 -0.1051 -0.2626
  139OSM   H16F15265   6.159   4.961   5.120  0.1066 -0.1845 -0.5834
  139OSM   H16G15266   6.018   4.846   5.124 -0.5783  3.7421  0.6042
  139OSM   C17F15267   6.180   4.817   4.969  0.3389  1.1136 -0.2009
  139OSM   H17F15268   6.169   4.710   4.942 -1.9164  1.1106  0.5239
  139OSM   H17G15269   6.289   4.833   4.957  0.9785 -1.2986  1.6677
  139OSM   C18F15270   6.104   4.910   4.873  0.4347  0.6248  0.1538
  139OSM   H18F15271   6.142   4.908   4.768 -1.0023  2.0591 -0.4422
  139OSM   H18G15272   6.104   5.014   4.911  2.6129  1.2210 -1.2859
  139OSM   H18H15273   5.998   4.877   4.875  1.1234 -1.7536  0.2516
  140OSM      N15274   0.140   3.310   7.170  0.0724 -0.2342  0.0198
  140OSM    C1515275   0.201   3.214   7.276 -1.1109  0.5077  0.2657
  140OSM   H15A15276   0.264   3.273   7.340  0.0658 -0.5192  0.1053
  140OSM   H15B15277   0.264   3.139   7.231 -1.6096 -0.0389  0.4630
  140OSM   H15C15278   0.123   3.162   7.330 -3.0675  2.8077 -0.1998
  140OSM    C1415279   0.053   3.409   7.234  0.3631 -0.0050  0.1488
  140OSM   H14A15280  -0.020   3.355   7.293 -2.7344  1.8539 -1.7435
  140OSM   H14B15281  -0.004   3.461   7.159  1.2560 -0.8255 -1.1228
  140OSM   H14C15282   0.109   3.481   7.293  0.0622  0.5375 -0.2273
  140OSM    C1315283   0.251   3.380   7.097  0.8049  0.1584 -0.1547
  140OSM   H13A15284   0.288   3.458   7.161  1.5922 -1.5239  1.5048
  140OSM   H13B15285   0.225   3.433   7.006 -1.2693  1.3557  1.0578
  140OSM   H13C15286   0.331   3.310   7.082  0.4565 -0.1969 -0.3603
  140OSM    C1215287   0.064   3.233   7.061  0.1935  0.0876 -0.4755
  140OSM   H12A15288   0.120   3.159   7.004 -1.3421 -0.5523 -1.2380
  140OSM   H12B15289   0.039   3.293   6.974  1.6746  0.3218 -0.7772
  140OSM    C1115290  -0.076   3.181   7.088 -0.0527 -0.0823 -0.1368
  140OSM   H11A15291  -0.077   3.113   7.176 -0.6689  1.0681  0.7849
  140OSM   H11B15292  -0.098   3.114   7.002  0.1037 -2.0337  1.2819
  140OSM      P15293  -0.236   3.362   6.985 -0.0509  0.1714 -0.2490
  140OSM    O1315294  -0.371   3.405   7.030  0.0523  0.1722 -0.2616
  140OSM    O1415295  -0.142   3.465   6.937 -1.1767  0.3772 -0.2262
  140OSM    O1115296  -0.242   3.249   6.874 -0.6841 -0.0203  0.2864
  140OSM    O1215297  -0.174   3.282   7.106  0.0180  0.2899  0.2443
  140OSM    C1S15298  -0.324   3.277   6.760 -0.5504  0.8292  0.4071
  140OSM    H1S15299  -0.341   3.385   6.739 -0.0653  0.6315 -1.1994
  140OSM    H1T15300  -0.424   3.229   6.764 -0.4061  0.1306 -2.2324
  140OSM     NF15301  -0.317   3.286   6.508 -0.2841 -0.4035 -0.1300
  140OSM    HNF15302  -0.377   3.224   6.458 -1.0992 -1.5935  2.1671
  140OSM    C2S15303  -0.259   3.222   6.626 -0.8791  0.4285  0.3422
  140OSM    H2S15304  -0.152   3.251   6.620 -1.0677  0.9183 -0.9689
  140OSM    C3S15305  -0.261   3.065   6.627  0.2775  0.4588  0.5093
  140OSM    H3S15306  -0.369   3.040   6.639  0.4107 -1.8261 -2.0766
  140OSM     O315307  -0.200   3.005   6.745  0.5997  0.2638  0.2191
  140OSM    HO315308  -0.187   3.082   6.801 -1.0144  0.7050  0.0287
  140OSM    C4S15309  -0.202   3.012   6.504 -0.4473 -0.3976  0.6841
  140OSM    H4S15310  -0.278   2.989   6.428 -0.0793  0.7210 -0.0393
  140OSM    C5S15311  -0.072   2.973   6.479  0.0894 -0.2103  0.0887
  140OSM    H5S15312  -0.003   2.974   6.565 -1.6244  0.3186  1.5324
  140OSM    C6S15313  -0.010   2.921   6.352  0.0757  0.0668 -0.1740
  140OSM    H6S15314   0.006   2.812   6.356  0.6378  0.1864  1.2058
  140OSM    H6T15315   0.092   2.961   6.330 -0.9819  1.7492 -2.4641
  140OSM    C7S15316  -0.092   2.958   6.232  0.1129 -0.6763  0.4204
  140OSM    H7S15317  -0.116   3.067   6.233  0.5982 -0.5663  1.8116
  140OSM    H7T15318  -0.186   2.900   6.243 -1.9394  2.2271 -0.3693
  140OSM    C8S15319  -0.022   2.924   6.099  0.2044  0.3495  0.2668
  140OSM    H8S15320   0.048   2.838   6.107  2.9438  2.1337 -2.2072
  140OSM    H8T15321   0.040   3.013   6.074 -1.1570  0.8785 -1.4777
  140OSM    C9S15322  -0.119   2.905   5.980  0.6838  0.6071 -0.0134
  140OSM    H9S15323  -0.181   2.997   5.971 -0.2464  0.4706  3.4630
  140OSM    H9T15324  -0.188   2.823   6.009  0.9502  0.7821  1.1535
  140OSM   C10S15325  -0.041   2.892   5.849  0.4908 -0.0585 -1.0887
  140OSM   H10S15326  -0.111   2.851   5.772  1.3137 -0.1775 -1.7938
  140OSM   H10T15327   0.027   2.808   5.875 -1.2220 -0.5171  2.4528
  140OSM   C11S15328   0.022   3.016   5.794  0.0819 -0.3308 -0.4931
  140OSM   H11S15329   0.102   3.038   5.868  2.2157 -2.7002 -1.9180
  140OSM   H11T15330  -0.042   3.106   5.785 -1.5986 -1.3697  0.3778
  140OSM   C12S15331   0.106   3.000   5.663 -0.0664  0.4450 -0.8400
  140OSM   H12S15332   0.184   2.923   5.679 -0.2556  0.7492  2.1001
  140OSM   H12T15333   0.167   3.092   5.649  1.4703 -0.6753 -1.8346
  140OSM   C13S15334   0.027   2.966   5.529  0.1707 -0.4325 -0.2453
  140OSM   H13S15335  -0.011   2.862   5.519 -0.5165 -0.4059  1.6719
  140OSM   H13T15336   0.107   2.976   5.453  0.5591 -1.1233  0.0690
  140OSM   C14S15337  -0.101   3.060   5.515 -0.8087 -0.4764  0.2199
  140OSM   H14S15338  -0.066   3.165   5.518  0.5439 -0.7741 -2.2311
  140OSM   H14T15339  -0.174   3.030   5.593  1.8915  0.7724  3.4193
  140OSM   C15S15340  -0.146   3.061   5.367  0.3556  0.4060 -0.1200
  140OSM   H15S15341  -0.243   3.115   5.365  1.0158  1.5972 -1.5878
  140OSM   H15T15342  -0.164   2.952   5.352  0.5507  0.3034  0.3560
  140OSM   C16S15343  -0.057   3.119   5.261 -0.1143 -0.3910 -0.3310
  140OSM   H16S15344   0.046   3.077   5.262 -0.1154 -0.4490 -1.7517
  140OSM   H16T15345  -0.036   3.227   5.278 -0.5723 -0.3895  0.2709
  140OSM   C17S15346  -0.118   3.108   5.125 -0.0495  0.3870  0.0222
  140OSM   H17S15347  -0.084   3.186   5.055 -1.4790 -0.0452 -1.2046
  140OSM   H17T15348  -0.223   3.141   5.140  0.4008  1.7676  0.3295
  140OSM   C18S15349  -0.106   2.964   5.061 -0.5924  0.7435  0.7454
  140OSM   H18S15350  -0.013   2.946   5.004 -1.8336  0.2478 -1.2039
  140OSM   H18T15351  -0.185   2.931   4.991  0.9825 -3.7999  0.7521
  140OSM   H18U15352  -0.105   2.898   5.151  1.6359  0.4147  0.5451
  140OSM    C1F15353  -0.300   3.410   6.474  0.9670  0.5022  0.1316
  140OSM     OF15354  -0.217   3.477   6.533  0.3622 -0.0889  0.0530
  140OSM    C2F15355  -0.385   3.460   6.363  0.1220 -0.1790  0.6605
  140OSM    H2F15356  -0.455   3.533   6.409 -1.5453 -1.4152  0.1761
  140OSM    H2G15357  -0.462   3.391   6.324 -0.8246  0.4384  1.3864
  140OSM    C3F15358  -0.318   3.531   6.250  0.0173  0.4380  0.4509
  140OSM    H3F15359  -0.270   3.458   6.181 -1.3566  0.3287 -0.4298
  140OSM    H3G15360  -0.245   3.609   6.281  0.6655  0.4642 -1.0706
  140OSM    C4F15361  -0.428   3.599   6.163 -0.1838  0.0339 -0.3903
  140OSM    H4F15362  -0.499   3.653   6.230  1.3185  1.3499  0.1954
  140OSM    H4G15363  -0.489   3.523   6.109  2.0235 -1.7048 -0.5549
  140OSM    C5F15364  -0.367   3.705   6.070 -0.4107  0.0310 -0.4183
  140OSM    H5F15365  -0.289   3.657   6.008  0.0493 -0.0298  0.1929
  140OSM    H5G15366  -0.324   3.799   6.112 -2.7504  1.7586 -1.6407
  140OSM    C6F15367  -0.465   3.766   5.970 -0.8221  0.0469  0.5941
  140OSM    H6F15368  -0.550   3.812   6.024 -0.3284  1.4051  0.2695
  140OSM    H6G15369  -0.496   3.687   5.899  0.8432 -1.4070  1.3915
  140OSM    C7F15370  -0.396   3.869   5.875 -0.4431  0.1691  0.2030
  140OSM    H7F15371  -0.310   3.820   5.824 -0.9966 -0.9595  0.3291
  140OSM    H7G15372  -0.355   3.957   5.930  2.5996 -1.4352  0.7400
  140OSM    C8F15373  -0.496   3.931   5.775  0.1976  0.2191  0.3180
  140OSM    H8F15374  -0.581   3.969   5.836 -0.4889 -0.3027 -0.2984
  140OSM    H8G15375  -0.540   3.851   5.711 -3.9329  2.4289  0.0938
  140OSM    C9F15376  -0.457   4.044   5.687 -0.2339 -0.1504 -0.1710
  140OSM    H9F15377  -0.430   4.139   5.735 -0.9770  0.4471 -0.9110
  140OSM   C10F15378  -0.453   4.038   5.552  0.0602 -0.4403 -0.4526
  140OSM   H10F15379  -0.418   4.126   5.496  0.7165 -1.0152 -0.9822
  140OSM   C11F15380  -0.469   3.921   5.460  0.0270  0.0523 -0.2123
  140OSM   H11F15381  -0.469   3.824   5.514 -0.7557  0.3374  0.3062
  140OSM   H11G15382  -0.384   3.915   5.388  2.1800  3.1118  1.8211
  140OSM   C12F15383  -0.578   3.944   5.355  1.0864 -0.3701 -0.3481
  140OSM   H12F15384  -0.672   3.979   5.403  0.7304  3.3471 -3.3213
  140OSM   H12G15385  -0.596   3.844   5.311 -2.0126  0.0428 -0.2636
  140OSM   C13F15386  -0.540   4.034   5.238 -0.2715  0.5811 -0.1338
  140OSM   H13F15387  -0.489   4.128   5.266  0.6138  0.0850 -0.0182
  140OSM   H13G15388  -0.637   4.059   5.189 -0.3794  0.5578  0.0677
  140OSM   C14F15389  -0.451   3.957   5.139  0.3416 -0.2462  1.1394
  140OSM   H14F15390  -0.475   3.849   5.148  0.6045 -0.5436 -1.0450
  140OSM   H14G15391  -0.345   3.979   5.163  0.2384  1.4594  0.1961
  140OSM   C15F15392  -0.469   3.990   4.989  0.2873 -0.0476 -0.8196
  140OSM   H15F15393  -0.424   4.091   4.980  1.8582 -0.4847  1.3036
  140OSM   H15G15394  -0.575   4.010   4.961  0.6842  0.9682 -1.6803
  140OSM   C16F15395  -0.403   3.892   4.897 -0.5224 -0.1285 -0.3358
  140OSM   H16F15396  -0.317   3.860   4.959 -1.8352  0.8244  2.1082
  140OSM   H16G15397  -0.361   3.951   4.813 -0.8233 -0.0505 -0.4339
  140OSM   C17F15398  -0.484   3.770   4.845  0.2868 -0.9092  0.1169
  140OSM   H17F15399  -0.546   3.738   4.931  3.1425  0.1881  2.7638
  140OSM   H17G15400  -0.404   3.698   4.814  1.7166  0.7068 -0.1020
  140OSM   C18F15401  -0.563   3.801   4.723 -0.3916  0.7329 -0.2241
  140OSM   H18F15402  -0.493   3.837   4.644 -0.0301  3.1411  1.1154
  140OSM   H18G15403  -0.634   3.882   4.749 -0.5129  1.3431 -2.2405
  140OSM   H18H15404  -0.623   3.718   4.680  0.3278  0.4780 -0.7669
  141OSM      N15405   5.715   3.426   6.954  0.6801 -0.0931 -0.2327
  141OSM    C1515406   5.742   3.315   7.046 -0.1733  0.7978 -0.0224
  141OSM   H15A15407   5.683   3.228   7.025  0.8330 -0.2524  1.3116
  141OSM   H15B15408   5.735   3.343   7.150 -1.4517  0.7557 -0.0889
  141OSM   H15C15409   5.844   3.284   7.032 -0.1452 -1.0568  3.3574
  141OSM    C1415410   5.581   3.481   7.002 -0.1629  0.3863 -0.3085
  141OSM   H14A15411   5.513   3.397   7.003 -1.2775  1.2636  0.6044
  141OSM   H14B15412   5.541   3.559   6.939  1.2552  0.6360 -0.9342
  141OSM   H14C15413   5.602   3.525   7.099  0.4521  1.8008 -1.0439
  141OSM    C1315414   5.825   3.523   6.947  0.7468  0.6040  0.4122
  141OSM   H13A15415   5.801   3.600   6.875  1.1850 -2.5428 -3.3895
  141OSM   H13B15416   5.923   3.487   6.917  0.4080 -0.0996  0.1356
  141OSM   H13C15417   5.844   3.569   7.043 -1.9946  2.2301  0.2707
  141OSM    C1215418   5.697   3.362   6.821 -0.4364  0.0385  0.2661
  141OSM   H12A15419   5.665   3.443   6.756  2.5010  0.6683 -0.5212
  141OSM   H12B15420   5.623   3.284   6.832 -0.0118 -0.0372  3.4168
  141OSM    C1115421   5.827   3.307   6.758 -0.2186 -0.1885 -0.1072
  141OSM   H11A15422   5.805   3.246   6.667 -0.7313 -0.5022  0.2187
  141OSM   H11B15423   5.875   3.235   6.828  0.1463 -0.0544 -0.2188
  141OSM      P15424   6.071   3.403   6.730  0.1196 -0.1373 -0.4172
  141OSM    O1315425   6.136   3.508   6.651 -0.9889  0.2393  0.1505
  141OSM    O1415426   6.098   3.392   6.873  0.2648 -0.5335 -0.7041
  141OSM    O1115427   6.114   3.262   6.665 -0.2155  0.7500  0.0666
  141OSM    O1215428   5.917   3.413   6.707 -0.5516 -0.1803 -0.6385
  141OSM    C1S15429   6.095   3.247   6.525 -0.4842 -1.0027 -0.8351
  141OSM    H1S15430   6.160   3.307   6.459  0.3890 -1.9933 -0.8995
  141OSM    H1T15431   5.994   3.272   6.486  1.0611 -0.6106 -5.0402
  141OSM     NF15432   6.120   3.080   6.341 -0.0458  0.1122  0.9655
  141OSM    HNF15433   6.033   3.045   6.306  1.0757 -1.1503 -0.7363
  141OSM    C2S15434   6.125   3.095   6.487  0.2824 -0.3019 -0.0977
  141OSM    H2S15435   6.226   3.063   6.522  1.1181  2.7408  0.5113
  141OSM    C3S15436   6.021   3.012   6.565 -0.6159 -0.2708 -0.3954
  141OSM    H3S15437   5.926   3.059   6.534 -0.9762 -0.5147  0.3245
  141OSM     O315438   6.015   3.027   6.713 -0.0597  0.0440  0.2836
  141OSM    HO315439   6.085   3.093   6.721 -1.5516  1.6303  1.1772
  141OSM    C4S15440   6.009   2.865   6.521  0.3928 -0.3057 -0.0065
  141OSM    H4S15441   6.102   2.823   6.482  0.9276  0.6883  0.1655
  141OSM    C5S15442   5.903   2.781   6.503  0.0186  0.2537  0.1161
  141OSM    H5S15443   5.811   2.807   6.558 -0.5162  1.1739 -1.1752
  141OSM    C6S15444   5.926   2.642   6.450 -0.3142 -0.1549  0.5954
  141OSM    H6S15445   5.920   2.567   6.531 -2.3318  0.3849  1.0065
  141OSM    H6T15446   6.032   2.642   6.417  0.1153  0.9494  1.8745
  141OSM    C7S15447   5.837   2.599   6.329  0.0916  0.3882 -0.1858
  141OSM    H7S15448   5.730   2.625   6.346 -0.2006 -0.7887 -0.1232
  141OSM    H7T15449   5.840   2.489   6.316 -0.1906  0.3479  0.0797
  141OSM    C8S15450   5.878   2.656   6.188  0.6438 -0.6219 -0.0700
  141OSM    H8S15451   5.978   2.621   6.155  1.6415  2.1051 -0.1400
  141OSM    H8T15452   5.887   2.764   6.211 -0.1126 -0.7348  0.8475
  141OSM    C9S15453   5.787   2.629   6.066 -0.1642  0.0778  0.2536
  141OSM    H9S15454   5.709   2.708   6.059 -1.6748 -1.2814  1.0299
  141OSM    H9T15455   5.748   2.528   6.091 -0.0588  0.0754  0.4130
  141OSM   C10S15456   5.859   2.619   5.931 -0.1341  0.3840 -0.4458
  141OSM   H10S15457   5.935   2.539   5.938  0.4288  0.7029 -2.3048
  141OSM   H10T15458   5.921   2.711   5.922  0.2291  0.1728 -0.0801
  141OSM   C11S15459   5.762   2.601   5.808 -0.2544 -0.3152  0.6082
  141OSM   H11S15460   5.694   2.688   5.798 -1.1879 -1.2691 -2.4903
  141OSM   H11T15461   5.689   2.520   5.827 -2.0834  1.3140  0.8202
  141OSM   C12S15462   5.832   2.579   5.673  0.1287 -0.4393  0.0223
  141OSM   H12S15463   5.895   2.487   5.679 -0.3181 -0.8706 -1.5944
  141OSM   H12T15464   5.901   2.666   5.668  1.8028 -1.3373  3.6535
  141OSM   C13S15465   5.747   2.573   5.544 -0.0284 -0.0434 -1.0033
  141OSM   H13S15466   5.660   2.641   5.549  0.1168  0.0592  0.6151
  141OSM   H13T15467   5.711   2.468   5.542 -2.0723  0.6168 -1.2853
  141OSM   C14S15468   5.829   2.587   5.408  0.6687 -0.1939  0.0175
  141OSM   H14S15469   5.905   2.506   5.405  1.0981  0.2286 -2.5145
  141OSM   H14T15470   5.894   2.677   5.408  0.2944  0.1013 -1.1853
  141OSM   C15S15471   5.746   2.596   5.287  0.3582 -0.5563 -0.3862
  141OSM   H15S15472   5.669   2.676   5.285 -0.2008 -1.0890 -0.5239
  141OSM   H15T15473   5.690   2.505   5.257 -0.0389  0.0102 -1.4267
  141OSM   C16S15474   5.830   2.629   5.163 -0.7728  0.3326 -0.6164
  141OSM   H16S15475   5.915   2.558   5.149  0.8508  1.9829  0.3398
  141OSM   H16T15476   5.875   2.729   5.178 -0.1260 -0.0904  0.3957
  141OSM   C17S15477   5.745   2.637   5.042  0.4964  0.4687 -0.3994
  141OSM   H17S15478   5.698   2.737   5.041  0.4480  0.5304  2.4286
  141OSM   H17T15479   5.675   2.551   5.045  1.4048 -0.3328 -1.2342
  141OSM   C18S15480   5.833   2.619   4.912  0.0967 -0.4649 -0.1112
  141OSM   H18S15481   5.773   2.626   4.818 -2.8682  0.5994  1.7202
  141OSM   H18T15482   5.876   2.517   4.922  0.0522 -0.3109  2.0731
  141OSM   H18U15483   5.917   2.691   4.919 -0.3814  0.2513 -1.3958
  141OSM    C1F15484   6.221   3.106   6.256  0.4571  0.0753 -0.6394
  141OSM     OF15485   6.336   3.131   6.299 -0.6679  0.0392 -0.4033
  141OSM    C2F15486   6.193   3.107   6.110 -0.0665 -0.3956  0.2704
  141OSM    H2F15487   6.177   3.214   6.083  1.2035 -0.3049 -0.1807
  141OSM    H2G15488   6.100   3.053   6.081  0.0794  0.1356 -1.2468
  141OSM    C3F15489   6.306   3.058   6.029 -0.5109 -0.4759 -0.1622
  141OSM    H3F15490   6.332   2.951   6.047  0.3200 -0.8091 -2.8732
  141OSM    H3G15491   6.400   3.110   6.056  0.4727 -0.9733 -2.3959
  141OSM    C4F15492   6.299   3.080   5.874  0.2433 -0.3142  0.0498
  141OSM    H4F15493   6.198   3.046   5.842 -0.0557 -1.7338  2.2891
  141OSM    H4G15494   6.387   3.028   5.829  1.0113  1.0026 -0.0184
  141OSM    C5F15495   6.309   3.227   5.831  0.4687 -0.4096  0.8677
  141OSM    H5F15496   6.401   3.277   5.869  0.7865 -0.6768  0.4593
  141OSM    H5G15497   6.221   3.274   5.879  0.6770 -0.8195  1.6841
  141OSM    C6F15498   6.324   3.242   5.680 -0.3124  0.4182  0.2336
  141OSM    H6F15499   6.225   3.204   5.648 -1.1987 -0.1762  3.3789
  141OSM    H6G15500   6.414   3.183   5.652  0.7907  2.5457 -0.9604
  141OSM    C7F15501   6.342   3.386   5.628 -0.0257 -0.5951 -0.5957
  141OSM    H7F15502   6.443   3.421   5.658 -0.3393 -0.5578  0.4535
  141OSM    H7G15503   6.270   3.456   5.675  1.5111  1.8309 -1.6320
  141OSM    C8F15504   6.336   3.382   5.472  0.3694  0.1445  0.0812
  141OSM    H8F15505   6.237   3.341   5.441  0.2627  0.7901 -0.4644
  141OSM    H8G15506   6.423   3.328   5.429  0.5254  0.9282 -0.6185
  141OSM    C9F15507   6.347   3.525   5.427  0.1701 -0.7345  0.7735
  141OSM    H9F15508   6.304   3.607   5.486 -1.1965 -0.5702 -0.4206
  141OSM   C10F15509   6.390   3.555   5.300 -0.3806  0.0817 -0.5920
  141OSM   H10F15510   6.396   3.664   5.283 -0.3140  0.5862  2.1139
  141OSM   C11F15511   6.425   3.470   5.181 -0.3283 -0.6193  0.5505
  141OSM   H11F15512   6.447   3.365   5.207  1.6690 -0.7779 -1.4632
  141OSM   H11G15513   6.521   3.491   5.131 -1.0159 -3.8004 -2.4697
  141OSM   C12F15514   6.316   3.470   5.070  0.4716  0.1746 -0.0717
  141OSM   H12F15515   6.305   3.568   5.019 -1.1676 -0.6357 -1.3924
  141OSM   H12G15516   6.226   3.451   5.132  1.4924  0.1335  1.4502
  141OSM   C13F15517   6.324   3.349   4.969 -0.5022 -0.2660  0.4529
  141OSM   H13F15518   6.220   3.336   4.933 -0.4344  0.8367 -0.1980
  141OSM   H13G15519   6.353   3.255   5.020 -1.4469 -1.5971 -1.3525
  141OSM   C14F15520   6.423   3.375   4.855 -0.2662 -0.6171 -0.3669
  141OSM   H14F15521   6.525   3.407   4.886  0.2893 -0.0009 -2.6758
  141OSM   H14G15522   6.374   3.456   4.798  0.8271  0.5988  0.3332
  141OSM   C15F15523   6.432   3.251   4.765 -0.0307  0.7603  0.3776
  141OSM   H15F15524   6.330   3.222   4.733  0.0943  2.8396 -2.2719
  141OSM   H15G15525   6.488   3.176   4.825 -0.4067 -0.1022 -0.3238
  141OSM   C16F15526   6.515   3.284   4.638  0.2992 -0.0456  0.5721
  141OSM   H16F15527   6.614   3.324   4.670  2.3398 -2.3048 -2.3674
  141OSM   H16G15528   6.456   3.366   4.593 -2.1576 -1.3348  1.3010
  141OSM   C17F15529   6.550   3.173   4.540  0.3010 -0.5541 -0.9156
  141OSM   H17F15530   6.639   3.120   4.581  1.1293 -1.0888 -3.2929
  141OSM   H17G15531   6.584   3.218   4.445  1.1626 -0.1929 -0.4526
  141OSM   C18F15532   6.436   3.076   4.501  0.0351 -0.2340  0.2646
  141OSM   H18F15533   6.352   3.138   4.461  2.1429  1.8781 -1.2011
  141OSM   H18G15534   6.396   3.034   4.596  1.3139 -0.6168  0.6506
  141OSM   H18H15535   6.469   3.009   4.419 -1.9528 -0.9622  0.0095
  142OSM      N15536   5.355   2.264   6.987 -0.1503  0.4956 -0.2439
  142OSM    C1515537   5.466   2.330   7.060 -0.6819 -1.3075 -0.2763
  142OSM   H15A15538   5.455   2.436   7.046  0.0593 -0.9853  1.3760
  142OSM   H15B15539   5.557   2.293   7.017  0.2272  0.1177  0.3559
  142OSM   H15C15540   5.455   2.314   7.167 -0.9941 -2.5635 -0.4790
  142OSM    C1415541   5.354   2.112   7.018  0.1756 -0.1788  0.6492
  142OSM   H14A15542   5.448   2.064   6.998 -1.0867 -3.4176  1.7782
  142OSM   H14B15543   5.279   2.059   6.961 -2.3971  0.7688  2.8775
  142OSM   H14C15544   5.329   2.097   7.122 -1.4791  1.9259  0.6321
  142OSM    C1315545   5.217   2.312   7.026 -0.2778 -0.0939 -1.2306
  142OSM   H13A15546   5.201   2.409   6.980  3.3174  0.0772 -2.4414
  142OSM   H13B15547   5.195   2.308   7.131  0.1109  0.0719 -1.1420
  142OSM   H13C15548   5.143   2.247   6.982 -0.0904 -0.9707 -0.2700
  142OSM    C1215549   5.368   2.289   6.845  0.0841  0.3963  0.6489
  142OSM   H12A15550   5.383   2.394   6.825  1.2237  0.6187  2.4554
  142OSM   H12B15551   5.275   2.265   6.796  0.6212  2.0717 -1.3162
  142OSM    C1115552   5.483   2.210   6.768 -0.0626 -0.0840 -0.2530
  142OSM   H11A15553   5.471   2.243   6.663 -0.1874 -0.2945 -0.3057
  142OSM   H11B15554   5.471   2.100   6.767 -0.9173  0.0016 -0.7960
  142OSM      P15555   5.705   2.351   6.763 -0.4479  0.3063 -0.4194
  142OSM    O1315556   5.629   2.468   6.709  0.4872  0.2836 -0.1201
  142OSM    O1415557   5.815   2.380   6.865 -0.2556  0.7792 -0.2147
  142OSM    O1115558   5.767   2.272   6.642 -0.2545  0.2755  0.6280
  142OSM    O1215559   5.614   2.235   6.822 -0.2164 -0.3092 -0.9015
  142OSM    C1S15560   5.798   2.135   6.643  0.2447 -0.1094  0.0386
  142OSM    H1S15561   5.710   2.070   6.622  0.2353  0.6748 -2.6560
  142OSM    H1T15562   5.854   2.111   6.736  2.3353 -0.7345 -1.3204
  142OSM     NF15563   5.912   1.966   6.501 -0.0592  0.0120 -0.4378
  142OSM    HNF15564   6.008   1.945   6.520 -0.0153  0.7635  0.2244
  142OSM    C2S15565   5.883   2.105   6.520 -0.4103  0.0704 -0.1447
  142OSM    H2S15566   5.820   2.139   6.436 -3.0481 -2.9559  0.4302
  142OSM    C3S15567   6.015   2.188   6.520  0.3047  0.3986  0.3178
  142OSM    H3S15568   6.073   2.140   6.602  0.5126 -1.2409 -0.7255
  142OSM     O315569   6.003   2.324   6.564  0.3853  0.6076  0.2114
  142OSM    HO315570   5.913   2.329   6.599  0.5688  0.1772  0.7604
  142OSM    C4S15571   6.101   2.184   6.395 -0.0992  0.1230  0.3624
  142OSM    H4S15572   6.173   2.100   6.391 -1.1880 -0.7898 -2.3882
  142OSM    C5S15573   6.097   2.262   6.286 -0.5221  0.4551  0.4259
  142OSM    H5S15574   6.032   2.350   6.295  1.5949  2.0086  1.2890
  142OSM    C6S15575   6.192   2.258   6.168  0.7538  0.3896  0.1891
  142OSM    H6S15576   6.242   2.160   6.158  0.8546  0.4058  0.5208
  142OSM    H6T15577   6.264   2.343   6.174 -1.9221  3.0330 -1.7180
  142OSM    C7S15578   6.124   2.283   6.029 -0.4319 -0.4635 -0.0980
  142OSM    H7S15579   6.093   2.389   6.017  2.2201  0.2838 -1.1051
  142OSM    H7T15580   6.039   2.212   6.019 -0.2966 -1.4175  3.8987
  142OSM    C8S15581   6.216   2.260   5.912  0.1765  0.3250 -0.1829
  142OSM    H8S15582   6.266   2.160   5.908 -1.3845 -0.5227  0.6694
  142OSM    H8T15583   6.299   2.332   5.922  1.1516 -0.7340 -0.4148
  142OSM    C9S15584   6.148   2.275   5.778 -0.2280  0.3800  0.5915
  142OSM    H9S15585   6.076   2.359   5.789  0.5189  0.8866  1.8478
  142OSM    H9T15586   6.086   2.184   5.762  1.9126 -0.6718 -2.7716
  142OSM   C10S15587   6.241   2.291   5.650 -0.3474  0.3211  0.6278
  142OSM   H10S15588   6.314   2.208   5.635 -0.2620  0.4287  0.4480
  142OSM   H10T15589   6.296   2.383   5.678  1.3714 -0.3017 -0.5298
  142OSM   C11S15590   6.162   2.318   5.519 -0.2929  0.3512  0.6233
  142OSM   H11S15591   6.097   2.406   5.541  0.1861  0.9867 -0.4315
  142OSM   H11T15592   6.104   2.230   5.486 -2.2333  0.9250  2.2485
  142OSM   C12S15593   6.265   2.369   5.414 -0.1463  0.3205  0.2859
  142OSM   H12S15594   6.334   2.282   5.409 -0.1796  0.3284 -0.3422
  142OSM   H12T15595   6.317   2.460   5.450  0.7492 -0.8415  2.0779
  142OSM   C13S15596   6.203   2.409   5.283 -0.1720  0.7015 -0.5358
  142OSM   H13S15597   6.151   2.504   5.309 -2.2075 -0.7384  1.0214
  142OSM   H13T15598   6.126   2.335   5.253 -1.0258  0.5522  1.8253
  142OSM   C14S15599   6.308   2.402   5.164 -0.1724 -0.6896  0.8194
  142OSM   H14S15600   6.344   2.298   5.151  1.3140  0.0046 -1.2237
  142OSM   H14T15601   6.390   2.474   5.187  1.2358 -1.9742  0.0213
  142OSM   C15S15602   6.252   2.457   5.032  1.0673  0.2721 -0.9755
  142OSM   H15S15603   6.200   2.554   5.046  0.2043 -0.3552  0.3572
  142OSM   H15T15604   6.178   2.381   4.996  0.7444 -0.4030  0.9981
  142OSM   C16S15605   6.360   2.474   4.925 -0.0740  0.5885 -0.3964
  142OSM   H16S15606   6.424   2.384   4.937 -0.6488 -0.2845 -3.2868
  142OSM   H16T15607   6.423   2.564   4.945  1.0274 -0.3662  0.6419
  142OSM   C17S15608   6.301   2.479   4.782  0.3278  0.2755 -0.1543
  142OSM   H17S15609   6.235   2.568   4.780 -0.2277 -0.0484  1.7572
  142OSM   H17T15610   6.245   2.383   4.779 -2.4085  1.7767 -2.8285
  142OSM   C18S15611   6.407   2.467   4.676 -0.1498  0.0218 -0.0560
  142OSM   H18S15612   6.483   2.393   4.706 -0.5391 -0.0406  0.8121
  142OSM   H18T15613   6.461   2.564   4.666 -0.1067  0.3502  2.6708
  142OSM   H18U15614   6.365   2.430   4.580  0.3977  0.7341 -0.5806
  142OSM    C1F15615   5.826   1.870   6.462 -0.0342 -0.3268  0.0807
  142OSM     OF15616   5.704   1.900   6.444  0.5866 -0.2490  0.1365
  142OSM    C2F15617   5.876   1.731   6.465  0.4294 -0.3018 -0.3349
  142OSM    H2F15618   5.797   1.667   6.420 -2.1316  1.8966  0.6905
  142OSM    H2G15619   5.882   1.704   6.573 -0.9135 -0.9893 -0.4039
  142OSM    C3F15620   6.009   1.714   6.394  0.0233  0.3793  0.3480
  142OSM    H3F15621   6.056   1.621   6.432 -1.1206 -0.1904  0.4128
  142OSM    H3G15622   6.083   1.784   6.438  0.4655  1.2832 -1.6933
  142OSM    C4F15623   6.007   1.749   6.243  0.3347  0.3130  0.6659
  142OSM    H4F15624   5.962   1.850   6.231  2.3229  0.9541 -2.3733
  142OSM    H4G15625   5.945   1.694   6.170  1.5847 -0.1455 -0.0644
  142OSM    C5F15626   6.143   1.745   6.184  0.4076 -0.3368 -0.8015
  142OSM    H5F15627   6.182   1.645   6.156  1.3503  0.0322 -0.8451
  142OSM    H5G15628   6.206   1.788   6.264 -2.1913  0.3120  1.0407
  142OSM    C6F15629   6.167   1.828   6.054 -0.2041  0.3646  0.2738
  142OSM    H6F15630   6.270   1.833   6.013 -0.9813  2.3966 -1.6938
  142OSM    H6G15631   6.144   1.934   6.079  1.9020  0.2060  3.4177
  142OSM    C7F15632   6.091   1.785   5.930  0.2650  0.3451  0.8065
  142OSM    H7F15633   5.992   1.750   5.967  1.7870 -0.8865  4.2708
  142OSM    H7G15634   6.152   1.701   5.889 -1.9803 -1.0528  0.1931
  142OSM    C8F15635   6.085   1.898   5.828 -0.2050 -0.5155 -0.2662
  142OSM    H8F15636   6.185   1.944   5.811 -0.9237  1.0945 -0.3068
  142OSM    H8G15637   6.047   1.974   5.899  1.6995  0.0868  0.1643
  142OSM    C9F15638   5.993   1.885   5.707 -0.6383 -0.2154  0.2068
  142OSM    H9F15639   5.895   1.934   5.717 -0.5199  0.2092 -0.6382
  142OSM   C10F15640   6.036   1.850   5.587  0.0873 -0.4999  0.5773
  142OSM   H10F15641   5.957   1.850   5.511  0.2906  0.2576  0.3587
  142OSM   C11F15642   6.178   1.815   5.556  0.1146 -0.8930  1.7810
  142OSM   H11F15643   6.183   1.704   5.548  2.8696 -0.7026 -2.4779
  142OSM   H11G15644   6.242   1.858   5.636  4.0005 -0.6828 -1.1486
  142OSM   C12F15645   6.238   1.878   5.430 -0.2202  0.2561  0.2356
  142OSM   H12F15646   6.348   1.859   5.429 -0.7020 -3.1651 -0.8295
  142OSM   H12G15647   6.232   1.988   5.444  0.1346  0.3264 -0.1477
  142OSM   C13F15648   6.170   1.842   5.291  0.3634 -0.2025  0.2670
  142OSM   H13F15649   6.062   1.840   5.314  0.4014 -1.5857  0.4259
  142OSM   H13G15650   6.212   1.740   5.273  2.7584  0.6841  0.4905
  142OSM   C14F15651   6.207   1.938   5.180 -0.7610  0.5037 -0.0802
  142OSM   H14F15652   6.318   1.938   5.176 -0.7848 -0.0905 -1.0807
  142OSM   H14G15653   6.183   2.042   5.208 -2.7367  0.1523 -0.3265
  142OSM   C15F15654   6.142   1.913   5.039 -0.0587  0.5951 -0.3985
  142OSM   H15F15655   6.032   1.901   5.040  0.0715 -1.0274 -1.1113
  142OSM   H15G15656   6.181   1.816   4.999  0.1082  0.0471  1.0140
  142OSM   C16F15657   6.170   2.030   4.939  0.0203  0.2771 -0.8512
  142OSM   H16F15658   6.279   2.044   4.926  0.3258 -0.9509  0.1273
  142OSM   H16G15659   6.118   2.118   4.983 -3.6544 -2.7996  1.6616
  142OSM   C17F15660   6.116   2.006   4.794 -0.2261  0.2598  0.0643
  142OSM   H17F15661   6.009   1.977   4.788 -0.3302  0.9476 -3.7408
  142OSM   H17G15662   6.167   1.918   4.749 -0.8172 -0.9261  1.5987
  142OSM   C18F15663   6.129   2.125   4.699  0.0105 -0.1898 -0.1064
  142OSM   H18F15664   6.095   2.095   4.598 -0.5908  1.0607 -0.2984
  142OSM   H18G15665   6.233   2.163   4.697 -0.0268 -0.1071 -1.3393
  142OSM   H18H15666   6.068   2.206   4.745  1.9627  0.4420  1.5258
  143OSM      N15667   6.447   6.085   6.852 -0.4291 -0.1228  0.3280
  143OSM    C1515668   6.455   6.162   6.729  0.2686  0.3772 -1.1213
  143OSM   H15A15669   6.373   6.136   6.664 -0.2232 -0.3239 -0.2353
  143OSM   H15B15670   6.549   6.147   6.677  0.2466  0.8324 -1.2995
  143OSM   H15C15671   6.441   6.267   6.749 -0.4622  0.2514 -0.9577
  143OSM    C1415672   6.547   5.976   6.834 -0.2769  0.1084  0.2594
  143OSM   H14A15673   6.649   6.009   6.831 -0.7279  1.6055  0.5922
  143OSM   H14B15674   6.535   5.931   6.736 -0.6332  0.9526 -0.0996
  143OSM   H14C15675   6.532   5.895   6.904 -0.7488 -0.2002 -0.1849
  143OSM    C1315676   6.484   6.179   6.963 -0.2315 -0.7346 -0.4100
  143OSM   H13A15677   6.422   6.266   6.956  0.3063 -0.2440  0.7644
  143OSM   H13B15678   6.587   6.212   6.972 -0.8364  0.5590  4.0113
  143OSM   H13C15679   6.459   6.136   7.059  1.7336  1.0173  0.9798
  143OSM    C1215680   6.303   6.044   6.863 -0.4308  0.1861 -0.9420
  143OSM   H12A15681   6.283   5.963   6.795 -0.2457  1.9477 -3.2098
  143OSM   H12B15682   6.246   6.130   6.832  1.6762  2.7807  1.7826
  143OSM    C1115683   6.255   6.011   7.008 -0.2006 -1.1924  0.4133
  143OSM   H11A15684   6.148   5.983   7.010 -0.6705  0.3204  3.5146
  143OSM   H11B15685   6.270   6.095   7.079  0.7102 -2.9188  2.3782
  143OSM      P15686   6.301   5.752   7.032  0.0821 -0.0874  0.0327
  143OSM    O1315687   6.410   5.668   7.088  0.2133  0.1323 -0.2325
  143OSM    O1415688   6.166   5.713   7.078 -0.0836 -0.5105  0.2650
  143OSM    O1115689   6.304   5.735   6.877 -0.4095  0.3545 -0.2068
  143OSM    O1215690   6.336   5.907   7.071  0.8758  0.6802  0.1062
  143OSM    C1S15691   6.236   5.619   6.824  0.7876 -0.3465 -0.7099
  143OSM    H1S15692   6.128   5.625   6.848  1.1462 -0.7411  1.1729
  143OSM    H1T15693   6.276   5.523   6.863 -2.1099 -0.7769  1.5021
  143OSM     NF15694   6.148   5.519   6.608  0.6794  0.4505  0.2992
  143OSM    HNF15695   6.192   5.436   6.573 -3.0894 -0.5017 -2.7647
  143OSM    C2S15696   6.235   5.622   6.665  0.3779 -0.0108 -0.2566
  143OSM    H2S15697   6.204   5.723   6.631  0.7013  0.0822 -0.2813
  143OSM    C3S15698   6.384   5.600   6.629 -0.4726 -1.0322  0.1169
  143OSM    H3S15699   6.405   5.497   6.665  0.5914 -0.6957  0.4975
  143OSM     O315700   6.476   5.682   6.704  0.1365 -0.4731 -0.1561
  143OSM    HO315701   6.416   5.706   6.775  1.7425  4.5542 -0.1010
  143OSM    C4S15702   6.412   5.594   6.487 -0.0093 -0.4061  0.1916
  143OSM    H4S15703   6.397   5.494   6.445 -1.9665 -0.5658  1.1168
  143OSM    C5S15704   6.472   5.682   6.404 -0.0856 -0.0716  0.3133
  143OSM    H5S15705   6.527   5.771   6.439  1.1634  0.8647 -3.5449
  143OSM    C6S15706   6.505   5.645   6.257  0.2109  0.1312 -0.3126
  143OSM    H6S15707   6.512   5.537   6.233 -0.4027  0.5487 -2.6110
  143OSM    H6T15708   6.600   5.694   6.225  0.2035  0.3685  0.0237
  143OSM    C7S15709   6.408   5.710   6.150 -0.4371  0.5858 -0.5297
  143OSM    H7S15710   6.426   5.820   6.153 -1.4121  0.7349  0.7348
  143OSM    H7T15711   6.305   5.697   6.188  0.5646  0.1900  2.3148
  143OSM    C8S15712   6.428   5.648   6.013  0.2898  0.4472  0.5016
  143OSM    H8S15713   6.349   5.691   5.948 -0.6379 -2.0612 -0.1461
  143OSM    H8T15714   6.406   5.541   6.029  0.2527  0.3046 -0.4236
  143OSM    C9S15715   6.568   5.663   5.960 -0.1178  0.3506 -0.0783
  143OSM    H9S15716   6.638   5.609   6.028  1.7879 -0.0273 -2.1906
  143OSM    H9T15717   6.587   5.773   5.961  1.6439  0.0803  0.9397
  143OSM   C10S15718   6.593   5.608   5.818 -0.0309  0.3270  0.2683
  143OSM   H10S15719   6.585   5.498   5.834 -2.1047  0.5601  1.3159
  143OSM   H10T15720   6.692   5.633   5.776 -0.8098  1.1304 -1.1531
  143OSM   C11S15721   6.485   5.662   5.723 -0.6418  0.0067  0.3704
  143OSM   H11S15722   6.478   5.771   5.742  1.4600  0.4442 -0.9779
  143OSM   H11T15723   6.394   5.604   5.748  0.0208 -0.5300  1.6448
  143OSM   C12S15724   6.526   5.635   5.575  0.3860  0.5280 -0.1779
  143OSM   H12S15725   6.546   5.526   5.576  0.0047  0.2460  5.0428
  143OSM   H12T15726   6.620   5.688   5.553  1.0459 -0.8885 -0.9043
  143OSM   C13S15727   6.418   5.674   5.468 -0.7599 -0.0581  0.4061
  143OSM   H13S15728   6.402   5.782   5.490  1.2992  0.2978  0.2999
  143OSM   H13T15729   6.318   5.629   5.490 -2.1592  2.3970 -0.4982
  143OSM   C14S15730   6.456   5.676   5.323  0.0479  0.3132 -0.5863
  143OSM   H14S15731   6.502   5.578   5.299  1.2628  0.7451 -0.1493
  143OSM   H14T15732   6.528   5.758   5.304 -0.7636  1.4803  1.1063
  143OSM   C15S15733   6.329   5.706   5.227 -0.3356 -0.3762 -0.1770
  143OSM   H15S15734   6.279   5.796   5.269  0.6196  0.1229 -0.0819
  143OSM   H15T15735   6.249   5.629   5.234  0.4230 -1.1399  0.1419
  143OSM   C16S15736   6.381   5.740   5.083  0.2883  0.1260 -0.1408
  143OSM   H16S15737   6.424   5.642   5.053  1.3900  0.0648  1.5489
  143OSM   H16T15738   6.459   5.818   5.096 -1.7863  2.0748  1.4921
  143OSM   C17S15739   6.258   5.778   4.996  0.3800 -0.6259  0.2268
  143OSM   H17S15740   6.196   5.854   5.048 -1.8715 -1.9681 -0.3678
  143OSM   H17T15741   6.199   5.685   4.982  0.1309 -0.2517 -1.3215
  143OSM   C18S15742   6.304   5.813   4.855 -0.0660 -0.3518  0.2549
  143OSM   H18S15743   6.389   5.749   4.824 -0.1250 -0.1872 -0.2701
  143OSM   H18T15744   6.340   5.918   4.860 -1.2779  0.0238  1.9690
  143OSM   H18U15745   6.217   5.800   4.786 -0.7118 -3.8102  1.5155
  143OSM    C1F15746   6.012   5.511   6.621  0.2848  0.2701  0.0981
  143OSM     OF15747   5.949   5.612   6.658  0.1630  0.1363  0.3669
  143OSM    C2F15748   5.951   5.374   6.599 -0.2705  0.4615 -0.0948
  143OSM    H2F15749   5.989   5.307   6.679 -0.0478 -0.3881 -0.8960
  143OSM    H2G15750   5.987   5.343   6.499 -0.7018  1.2234 -0.4936
  143OSM    C3F15751   5.794   5.383   6.596 -0.4805  0.1562 -0.0410
  143OSM    H3F15752   5.744   5.473   6.554 -1.5289 -0.7355 -0.7616
  143OSM    H3G15753   5.768   5.389   6.704  0.3897  0.1705  0.1796
  143OSM    C4F15754   5.725   5.255   6.538 -0.7934  0.1618 -0.0400
  143OSM    H4F15755   5.720   5.179   6.618  1.1898 -0.7447 -0.7175
  143OSM    H4G15756   5.795   5.211   6.463 -0.0397 -0.8818  1.2380
  143OSM    C5F15757   5.584   5.275   6.486 -0.0697 -0.5420  0.2317
  143OSM    H5F15758   5.591   5.323   6.386 -1.3867  0.9514  0.8067
  143OSM    H5G15759   5.534   5.355   6.544 -0.1120 -0.4073  0.0131
  143OSM    C6F15760   5.504   5.145   6.472 -0.7357  0.7042 -0.1049
  143OSM    H6F15761   5.501   5.103   6.575 -1.7056 -0.6838 -0.6667
  143OSM    H6G15762   5.554   5.071   6.406 -0.8668  0.1719  0.3842
  143OSM    C7F15763   5.358   5.170   6.431 -0.0892  0.3410  0.4378
  143OSM    H7F15764   5.329   5.251   6.502  0.1283  0.5420  0.3003
  143OSM    H7G15765   5.292   5.084   6.452  1.0833 -0.2106  2.1673
  143OSM    C8F15766   5.340   5.206   6.285  0.4207 -0.2301  0.6257
  143OSM    H8F15767   5.371   5.126   6.215 -0.0612  1.5047 -1.6789
  143OSM    H8G15768   5.415   5.283   6.257 -2.5657  2.7107  0.0367
  143OSM    C9F15769   5.198   5.246   6.249 -0.4804 -0.7236  0.3066
  143OSM    H9F15770   5.123   5.256   6.328 -0.1267  0.8198  0.4916
  143OSM   C10F15771   5.157   5.260   6.122  0.3751  0.7100  0.1127
  143OSM   H10F15772   5.056   5.297   6.103  0.6758  0.0569 -3.4622
  143OSM   C11F15773   5.243   5.246   5.999 -0.7485 -0.2121  0.2347
  143OSM   H11F15774   5.344   5.286   6.024 -1.8401  3.4095 -0.4578
  143OSM   H11G15775   5.217   5.314   5.915 -0.1743  0.7583  0.8250
  143OSM   C12F15776   5.237   5.103   5.942  0.2053 -0.3178 -0.9820
  143OSM   H12F15777   5.132   5.067   5.947  0.2113 -0.2797 -0.6161
  143OSM   H12G15778   5.289   5.050   6.024 -0.8055  0.6093  0.3027
  143OSM   C13F15779   5.300   5.070   5.811 -1.0546  0.2283  0.1904
  143OSM   H13F15780   5.334   4.964   5.807 -0.7460  0.1995  2.5102
  143OSM   H13G15781   5.397   5.123   5.796 -0.6622  0.1182  2.1463
  143OSM   C14F15782   5.205   5.100   5.685 -0.3233 -0.2915  0.6147
  143OSM   H14F15783   5.176   5.207   5.686 -3.7728 -1.1064  0.6979
  143OSM   H14G15784   5.111   5.042   5.695 -1.0598  0.9396  1.0604
  143OSM   C15F15785   5.282   5.060   5.550 -0.0305 -0.0889 -0.2700
  143OSM   H15F15786   5.331   4.961   5.564 -1.8120 -0.8085  1.3233
  143OSM   H15G15787   5.365   5.132   5.536 -1.3413  2.2076  2.6601
  143OSM   C16F15788   5.191   5.034   5.428 -1.0723  0.2825 -0.3631
  143OSM   H16F15789   5.155   5.129   5.384  1.9735  2.7417  2.0130
  143OSM   H16G15790   5.103   4.972   5.455 -1.4823  0.5870 -0.9907
  143OSM   C17F15791   5.264   4.960   5.314 -0.6203 -0.8665 -0.1708
  143OSM   H17F15792   5.285   4.856   5.343  0.7773 -1.6399 -3.4181
  143OSM   H17G15793   5.352   5.028   5.305 -1.7587  0.9770  1.6582
  143OSM   C18F15794   5.183   4.949   5.180  0.5141 -0.6306  0.4029
  143OSM   H18F15795   5.248   4.965   5.092 -1.7072  0.8764 -1.0671
  143OSM   H18G15796   5.113   5.035   5.177  0.6148 -0.5728 -1.1810
  143OSM   H18H15797   5.120   4.857   5.180  1.1154 -1.0988  2.4212
  144OSM      N15798   6.669   4.665   7.073 -0.0248  0.4445 -0.7651
  144OSM    C1515799   6.751   4.606   7.185 -0.5993  0.5210 -0.1847
  144OSM   H15A15800   6.728   4.657   7.277 -3.3971 -2.2124  0.8166
  144OSM   H15B15801   6.858   4.617   7.179  0.0509 -2.4829  2.9124
  144OSM   H15C15802   6.738   4.499   7.179  1.7167  0.2727 -3.3182
  144OSM    C1415803   6.518   4.654   7.121 -0.5362  0.0498  0.2469
  144OSM   H14A15804   6.477   4.554   7.111  5.3715 -2.5972 -1.8810
  144OSM   H14B15805   6.451   4.706   7.054 -1.0899 -1.6674 -0.5947
  144OSM   H14C15806   6.496   4.700   7.216 -0.9321  1.7684 -0.6447
  144OSM    C1315807   6.689   4.809   7.047  0.3321  0.2068 -0.7489
  144OSM   H13A15808   6.623   4.849   6.972  0.7961 -0.7868 -1.7282
  144OSM   H13B15809   6.779   4.823   6.989  0.7871 -1.7708 -0.6126
  144OSM   H13C15810   6.686   4.869   7.136 -2.1665 -0.1621 -0.5233
  144OSM    C1215811   6.686   4.588   6.942 -0.2660  0.4489 -1.4278
  144OSM   H12A15812   6.782   4.585   6.892 -0.6126 -2.9114 -2.0658
  144OSM   H12B15813   6.615   4.623   6.868  0.3698  1.7323 -1.4691
  144OSM    C1115814   6.666   4.436   6.958 -0.3260  0.7550 -0.2607
  144OSM   H11A15815   6.565   4.419   7.001  0.5510 -1.0279  1.1982
  144OSM   H11B15816   6.744   4.398   7.027 -1.1347 -0.6553 -0.0994
  144OSM      P15817   6.641   4.219   6.811 -0.4031 -0.3725 -0.0999
  144OSM    O1315818   6.673   4.141   6.940  0.3379  0.5688  0.3061
  144OSM    O1415819   6.506   4.205   6.754  0.1290 -0.0047  0.1673
  144OSM    O1115820   6.752   4.178   6.701 -0.3678 -0.5968 -0.1111
  144OSM    O1215821   6.675   4.378   6.826  0.0398  0.3319  0.3943
  144OSM    C1S15822   6.767   4.254   6.580  0.6331  0.1707 -1.0806
  144OSM    H1S15823   6.862   4.309   6.595  1.4712 -1.2037 -1.1368
  144OSM    H1T15824   6.692   4.335   6.571  2.1299  1.6469 -0.8919
  144OSM     NF15825   6.769   4.250   6.329 -0.1495  0.1357 -0.8123
  144OSM    HNF15826   6.680   4.239   6.284 -1.2833 -2.8860  1.7679
  144OSM    C2S15827   6.787   4.171   6.454 -0.7585  0.1104  0.7920
  144OSM    H2S15828   6.890   4.130   6.448 -0.9370 -0.1850 -0.5923
  144OSM    C3S15829   6.702   4.040   6.454  0.1570 -0.4489 -0.2553
  144OSM    H3S15830   6.598   4.079   6.453 -0.1357 -1.2014  0.1182
  144OSM     O315831   6.713   3.956   6.566 -0.2110 -0.0407  0.1037
  144OSM    HO315832   6.723   4.011   6.644  1.0870 -0.7672  0.4802
  144OSM    C4S15833   6.695   3.957   6.318 -0.4117  0.1805  0.6791
  144OSM    H4S15834   6.622   4.000   6.247  0.6899 -0.0629 -0.6473
  144OSM    C5S15835   6.797   3.881   6.269 -0.3551 -0.2336 -0.0036
  144OSM    H5S15836   6.888   3.863   6.328  0.2758 -0.4505 -1.0106
  144OSM    C6S15837   6.806   3.825   6.134  0.1179  0.4109  0.3557
  144OSM    H6S15838   6.748   3.731   6.131 -1.3752  1.0473  4.0150
  144OSM    H6T15839   6.913   3.811   6.108  0.3986  0.5544  1.3553
  144OSM    C7S15840   6.750   3.915   6.016 -0.2888 -0.3264  0.8230
  144OSM    H7S15841   6.808   4.009   6.008 -0.6006 -0.2456 -0.8138
  144OSM    H7T15842   6.650   3.958   6.036 -0.9887 -1.3039 -0.4499
  144OSM    C8S15843   6.756   3.848   5.880 -0.0341  0.0869 -1.0834
  144OSM    H8S15844   6.666   3.782   5.882 -0.4111  0.5089  2.8046
  144OSM    H8T15845   6.839   3.776   5.877 -2.7507 -3.3484 -0.3792
  144OSM    C9S15846   6.743   3.946   5.758 -0.4494  0.5101 -0.3486
  144OSM    H9S15847   6.838   4.002   5.766 -0.7194  0.7340  2.0108
  144OSM    H9T15848   6.662   4.017   5.783  0.0784  0.5840  1.2310
  144OSM   C10S15849   6.711   3.891   5.622  0.0036  0.7429 -0.0436
  144OSM   H10S15850   6.609   3.846   5.626 -0.6198  1.9129 -1.5776
  144OSM   H10T15851   6.783   3.817   5.582 -0.5531  0.6195 -0.8529
  144OSM   C11S15852   6.694   3.996   5.509  0.2354 -0.1621 -0.7682
  144OSM   H11S15853   6.778   4.068   5.517 -1.2480  1.5447  0.1760
  144OSM   H11T15854   6.598   4.052   5.509  0.0903 -0.3826  0.4564
  144OSM   C12S15855   6.714   3.929   5.367  0.5301 -0.9874 -0.0514
  144OSM   H12S15856   6.629   3.858   5.366  0.3314 -0.7894  0.9797
  144OSM   H12T15857   6.806   3.870   5.349  1.2158  0.9165 -3.6392
  144OSM   C13S15858   6.704   4.033   5.253  0.0047 -1.0509  0.3185
  144OSM   H13S15859   6.789   4.103   5.268  0.7276 -2.3654  2.8554
  144OSM   H13T15860   6.610   4.089   5.268  1.0875  0.8790  0.2558
  144OSM   C14S15861   6.712   3.966   5.112  0.1366 -0.0370 -0.2142
  144OSM   H14S15862   6.640   3.882   5.098  1.2205 -1.0296 -0.0064
  144OSM   H14T15863   6.812   3.918   5.118 -0.9793 -2.5157 -0.0723
  144OSM   C15S15864   6.690   4.069   5.000  0.6418  0.2177  0.1742
  144OSM   H15S15865   6.763   4.150   5.022  2.7321 -1.8540  1.3717
  144OSM   H15T15866   6.586   4.107   5.002  0.3575 -0.2255 -2.3412
  144OSM   C16S15867   6.709   4.024   4.851  0.1582  0.5874  0.3386
  144OSM   H16S15868   6.649   3.934   4.829  1.3620  0.1878 -1.4778
  144OSM   H16T15869   6.817   4.000   4.845  0.1220  0.2579  0.9212
  144OSM   C17S15870   6.680   4.135   4.756 -0.8851  0.4158  0.4624
  144OSM   H17S15871   6.722   4.225   4.806 -3.7179  1.3842  1.2699
  144OSM   H17T15872   6.570   4.149   4.747 -0.8574 -0.0323 -0.8250
  144OSM   C18S15873   6.742   4.113   4.622 -0.0633 -0.9440 -0.2371
  144OSM   H18S15874   6.753   4.201   4.555  0.7984 -2.6704 -2.4984
  144OSM   H18T15875   6.676   4.051   4.557 -0.8578 -0.6126  0.2358
  144OSM   H18U15876   6.839   4.059   4.619 -0.2288 -1.3012  0.6227
  144OSM    C1F15877   6.848   4.345   6.297 -0.2952 -0.1270  0.5038
  144OSM     OF15878   6.955   4.354   6.356 -0.3312 -0.3895  0.2204
  144OSM    C2F15879   6.821   4.431   6.173 -0.2309 -0.0782  0.0572
  144OSM    H2F15880   6.810   4.538   6.200  0.2192  0.5284 -1.9767
  144OSM    H2G15881   6.725   4.389   6.138 -0.3014  0.0870  0.0551
  144OSM    C3F15882   6.931   4.410   6.070  0.0298 -0.2011 -0.6216
  144OSM    H3F15883   6.950   4.302   6.052  0.3044 -0.2487 -0.0432
  144OSM    H3G15884   7.022   4.446   6.121 -1.1435  0.5265  1.0441
  144OSM    C4F15885   6.899   4.476   5.935  0.5038  0.6984 -0.0206
  144OSM    H4F15886   6.990   4.515   5.885 -1.0478  1.2933 -2.5778
  144OSM    H4G15887   6.841   4.568   5.956  0.7076  0.6691  0.7071
  144OSM    C5F15888   6.822   4.378   5.844  0.1059 -0.1984 -0.1637
  144OSM    H5F15889   6.728   4.348   5.893  1.0806  0.0459  1.9626
  144OSM    H5G15890   6.890   4.291   5.830  1.2794  0.9496 -2.2578
  144OSM    C6F15891   6.808   4.441   5.707 -0.3220 -0.6577 -1.1889
  144OSM    H6F15892   6.911   4.480   5.692  0.5509 -1.8171  1.2471
  144OSM    H6G15893   6.730   4.518   5.722  1.7600  1.4898 -0.6847
  144OSM    C7F15894   6.784   4.350   5.588  0.3350 -0.8129  0.3363
  144OSM    H7F15895   6.680   4.312   5.598  0.4887 -0.8841  1.7868
  144OSM    H7G15896   6.862   4.271   5.584 -0.3304 -1.4494 -1.9951
  144OSM    C8F15897   6.791   4.435   5.454 -0.8131 -1.0257  0.2158
  144OSM    H8F15898   6.740   4.534   5.457  1.2469  0.1752 -1.0899
  144OSM    H8G15899   6.739   4.377   5.375 -2.3880  0.4650  0.0993
  144OSM    C9F15900   6.942   4.460   5.415  0.4595  0.3095  1.3167
  144OSM    H9F15901   7.000   4.510   5.493  2.0739  3.1260 -1.4772
  144OSM   C10F15902   6.993   4.434   5.288 -0.2106 -0.2118  0.1273
  144OSM   H10F15903   7.091   4.479   5.264 -1.4445  1.7110 -1.5797
  144OSM   C11F15904   6.918   4.378   5.168  0.1972 -0.4429 -0.3999
  144OSM   H11F15905   6.828   4.320   5.197  1.7965 -2.9745 -0.1438
  144OSM   H11G15906   6.988   4.305   5.121 -0.4451 -0.0847 -1.9618
  144OSM   C12F15907   6.894   4.493   5.070 -0.6623 -0.2928  0.2096
  144OSM   H12F15908   6.864   4.587   5.122 -1.2486 -1.0536  1.2995
  144OSM   H12G15909   6.814   4.453   5.005  0.9365 -1.6531 -1.0061
  144OSM   C13F15910   7.016   4.514   4.985  0.3379 -0.1431  0.2452
  144OSM   H13F15911   7.052   4.415   4.950  2.8091  1.2620 -1.5823
  144OSM   H13G15912   7.087   4.572   5.048 -0.4367  0.6662  0.3865
  144OSM   C14F15913   7.002   4.590   4.848  0.1257  0.2955  0.1179
  144OSM   H14F15914   7.101   4.613   4.803  0.9185  0.7652  2.0371
  144OSM   H14G15915   6.961   4.688   4.879  0.5402  1.1390 -1.8355
  144OSM   C15F15916   6.909   4.516   4.745  0.4521  0.2239 -0.0724
  144OSM   H15F15917   6.893   4.410   4.774 -0.0937  0.5469  0.8303
  144OSM   H15G15918   6.964   4.496   4.650  0.2746 -2.4953  0.3121
  144OSM   C16F15919   6.764   4.578   4.716 -0.5140  0.4964 -0.5972
  144OSM   H16F15920   6.722   4.607   4.815 -1.2472 -0.9398 -0.4644
  144OSM   H16G15921   6.691   4.508   4.671  0.6914 -1.3879  0.2287
  144OSM   C17F15922   6.791   4.696   4.628  0.0906  0.3829 -0.1672
  144OSM   H17F15923   6.846   4.658   4.540 -0.5837  0.9002 -0.8175
  144OSM   H17G15924   6.864   4.766   4.673 -1.0370  1.4606  0.0266
  144OSM   C18F15925   6.667   4.772   4.580 -0.3935 -0.1245  0.2959
  144OSM   H18F15926   6.684   4.868   4.528  0.0981 -0.3790 -0.0211
  144OSM   H18G15927   6.608   4.781   4.674 -0.4390 -2.5026  0.5572
  144OSM   H18H15928   6.603   4.714   4.510 -0.0835  0.0255 -0.1142
  145OSM      N15929   0.888   1.660   6.677  0.1502 -0.0643  0.4718
  145OSM    C1515930   1.000   1.727   6.752  0.5135 -0.4745  0.1348
  145OSM   H15A15931   1.087   1.734   6.688 -1.5841 -1.4522 -3.0447
  145OSM   H15B15932   1.019   1.689   6.851  0.4442  1.4762  0.9324
  145OSM   H15C15933   0.982   1.830   6.778 -1.1936 -0.9114  0.7735
  145OSM    C1415934   0.772   1.669   6.782 -0.2565 -0.4804  0.1096
  145OSM   H14A15935   0.688   1.604   6.760 -1.4581  1.8354 -2.7035
  145OSM   H14B15936   0.736   1.769   6.799 -1.0161 -0.3033 -2.1752
  145OSM   H14C15937   0.808   1.626   6.874 -1.1123 -0.5900  0.4076
  145OSM    C1315938   0.850   1.725   6.550 -0.1729  0.1019 -0.0185
  145OSM   H13A15939   0.848   1.832   6.561  1.5729  0.1561  0.1003
  145OSM   H13B15940   0.749   1.693   6.527  0.8135 -3.3163 -0.2104
  145OSM   H13C15941   0.923   1.702   6.474  1.3060  0.4323  1.2450
  145OSM    C1215942   0.928   1.516   6.657 -0.1088 -0.1231  0.4230
  145OSM   H12A15943   0.993   1.486   6.738 -0.7711  0.8948  1.3578
  145OSM   H12B15944   0.997   1.522   6.574  0.8478  1.4240  1.2728
  145OSM    C1115945   0.816   1.415   6.617  0.0464 -0.4083 -0.9210
  145OSM   H11A15946   0.861   1.321   6.580  2.2992  0.0825  0.4254
  145OSM   H11B15947   0.752   1.471   6.545  1.0317 -0.4153 -1.8225
  145OSM      P15948   0.765   1.264   6.817  0.2558  0.1212 -0.0734
  145OSM    O1315949   0.909   1.274   6.858  0.2174  0.6230 -0.0841
  145OSM    O1415950   0.670   1.262   6.927  0.2763 -0.4857  0.3002
  145OSM    O1115951   0.746   1.138   6.728  0.0743  0.2335  0.5331
  145OSM    O1215952   0.723   1.384   6.722 -0.3135  0.0837  0.0002
  145OSM    C1S15953   0.625   1.110   6.653 -0.0187  0.4139  0.7490
  145OSM    H1S15954   0.540   1.157   6.708 -0.2420  0.0110  0.7562
  145OSM    H1T15955   0.599   1.002   6.654  0.4389  0.2971  0.3358
  145OSM     NF15956   0.516   1.129   6.439  0.1596  0.1557 -0.8381
  145OSM    HNF15957   0.507   1.046   6.384 -0.3452 -0.0718 -0.4205
  145OSM    C2S15958   0.642   1.142   6.500  0.3274 -0.0381  0.0555
  145OSM    H2S15959   0.665   1.251   6.497 -0.4809  0.1475  0.1882
  145OSM    C3S15960   0.759   1.063   6.433  0.8026 -0.6070 -0.5508
  145OSM    H3S15961   0.731   0.956   6.423 -0.2715 -0.2997 -0.9559
  145OSM     O315962   0.876   1.058   6.510 -0.2340  0.1438 -0.5181
  145OSM    HO315963   0.853   1.098   6.594  2.5091 -0.3850  0.5944
  145OSM    C4S15964   0.777   1.119   6.292  0.6302 -0.0100 -0.6236
  145OSM    H4S15965   0.710   1.077   6.215 -0.1888  0.0381  0.0495
  145OSM    C5S15966   0.880   1.193   6.247  0.2111  0.0183  0.2880
  145OSM    H5S15967   0.960   1.209   6.321 -0.2104  1.6326  0.4459
  145OSM    C6S15968   0.905   1.236   6.098  0.1522  0.2596  0.3289
  145OSM    H6S15969   1.013   1.216   6.082 -0.0796 -1.7786  0.9938
  145OSM    H6T15970   0.886   1.345   6.087  1.6768  0.4544 -0.5741
  145OSM    C7S15971   0.818   1.155   5.997  0.1267 -0.7244  0.0206
  145OSM    H7S15972   0.710   1.172   6.017  0.0571 -0.1781 -0.7676
  145OSM    H7T15973   0.831   1.045   6.008  1.6502 -0.5312  0.4588
  145OSM    C8S15974   0.856   1.188   5.848  0.4316 -0.4168  0.2868
  145OSM    H8S15975   0.964   1.175   5.826  0.0317 -1.2291 -1.3070
  145OSM    H8T15976   0.839   1.295   5.825 -0.9486 -0.6797 -0.0411
  145OSM    C9S15977   0.771   1.102   5.750 -0.4891 -0.7588 -0.5370
  145OSM    H9S15978   0.663   1.126   5.754 -0.6653 -1.4665 -0.8921
  145OSM    H9T15979   0.761   0.997   5.785 -0.6103 -0.7095 -0.4232
  145OSM   C10S15980   0.834   1.094   5.608 -0.0267  0.2711  0.3795
  145OSM   H10S15981   0.926   1.032   5.613 -0.8562 -1.1402 -0.9265
  145OSM   H10T15982   0.866   1.195   5.575 -3.1538  0.5095 -2.4895
  145OSM   C11S15983   0.745   1.026   5.509  0.0651 -0.1230  0.4789
  145OSM   H11S15984   0.650   1.081   5.494 -0.5641 -1.2967  0.0126
  145OSM   H11T15985   0.719   0.925   5.549  0.8331 -0.0354  1.2305
  145OSM   C12S15986   0.803   1.006   5.369  0.3262 -0.1743  0.2525
  145OSM   H12S15987   0.873   0.922   5.390  1.2799  0.4612 -0.3185
  145OSM   H12T15988   0.844   1.101   5.329 -0.6783  0.0529 -0.2693
  145OSM   C13S15989   0.694   0.976   5.258 -0.2269  0.4159 -0.1740
  145OSM   H13S15990   0.600   1.034   5.257 -2.1318 -2.4113  0.8005
  145OSM   H13T15991   0.665   0.869   5.262  2.6307 -0.4587 -0.4056
  145OSM   C14S15992   0.751   1.002   5.118 -0.6875  0.3568  0.2334
  145OSM   H14S15993   0.852   1.046   5.136  0.0139 -1.0827 -0.0322
  145OSM   H14T15994   0.689   1.075   5.061  1.8512  0.2602 -2.9219
  145OSM   C15S15995   0.770   0.863   5.036  0.2745  0.2019 -0.6437
  145OSM   H15S15996   0.663   0.839   5.014  0.1018  0.1333  0.2250
  145OSM   H15T15997   0.811   0.789   5.107 -2.0059 -0.8798 -0.3435
  145OSM   C16S15998   0.848   0.884   4.906  0.5627  0.2672  0.5269
  145OSM   H16S15999   0.929   0.958   4.918  0.6454  0.6771 -1.9549
  145OSM   H16T16000   0.782   0.935   4.832  2.7320 -0.1713 -1.8563
  145OSM   C17S16001   0.900   0.754   4.847 -0.2328  0.8430 -0.1106
  145OSM   H17S16002   0.823   0.687   4.803  0.3680 -0.1575  0.3092
  145OSM   H17T16003   0.941   0.698   4.934  0.4135  0.7195 -0.4883
  145OSM   C18S16004   1.019   0.774   4.746 -0.0012  0.8997 -0.3175
  145OSM   H18S16005   1.069   0.676   4.733 -0.4004  0.6349  0.1227
  145OSM   H18T16006   1.095   0.829   4.806 -0.7455 -0.2390  1.7846
  145OSM   H18U16007   0.982   0.824   4.654  1.2829 -0.1263 -1.4435
  145OSM    C1F16008   0.406   1.217   6.455  0.2708 -0.2186  0.3821
  145OSM     OF16009   0.410   1.313   6.527 -0.0122  0.0491 -0.5198
  145OSM    C2F16010   0.280   1.177   6.379  0.9255 -0.1951 -0.1837
  145OSM    H2F16011   0.206   1.155   6.459  1.0511  1.1611  0.3340
  145OSM    H2G16012   0.288   1.088   6.313 -2.3086 -1.4259  0.8727
  145OSM    C3F16013   0.225   1.303   6.304  0.0747 -0.0333 -0.3962
  145OSM    H3F16014   0.297   1.335   6.225  1.3895 -0.8976  0.4053
  145OSM    H3G16015   0.199   1.388   6.370  2.6722  0.1193  0.5392
  145OSM    C4F16016   0.082   1.271   6.245  0.2318 -0.0334 -0.6083
  145OSM    H4F16017   0.013   1.262   6.331  0.4352 -0.1093 -0.4521
  145OSM    H4G16018   0.097   1.171   6.197 -0.3964 -0.4043 -0.0440
  145OSM    C5F16019   0.030   1.375   6.151 -0.0334  0.5816 -0.5591
  145OSM    H5F16020   0.033   1.465   6.216  0.3074 -1.4390  2.4134
  145OSM    H5G16021  -0.071   1.340   6.121 -0.3920  0.7519  0.4324
  145OSM    C6F16022   0.101   1.402   6.017  0.0019 -1.0082 -0.4270
  145OSM    H6F16023   0.117   1.307   5.962 -2.0407 -1.0243 -1.0630
  145OSM    H6G16024   0.189   1.459   6.053 -1.0388  2.9066 -3.4055
  145OSM    C7F16025   0.029   1.514   5.932 -0.4693 -0.1574 -0.3231
  145OSM    H7F16026  -0.006   1.588   6.007 -0.7700 -1.6527  1.0644
  145OSM    H7G16027  -0.055   1.461   5.882 -1.0831 -0.7122  1.2403
  145OSM    C8F16028   0.122   1.576   5.832 -0.6085 -0.3805  0.4786
  145OSM    H8F16029   0.180   1.496   5.782 -1.6753 -0.3897 -0.7905
  145OSM    H8G16030   0.211   1.624   5.877  0.2356 -2.6696  1.4024
  145OSM    C9F16031   0.074   1.672   5.735 -0.3330  0.3133  0.0496
  145OSM    H9F16032   0.010   1.749   5.781 -0.2075  0.0927  0.6003
  145OSM   C10F16033   0.119   1.694   5.610 -0.5402 -0.2970 -0.1235
  145OSM   H10F16034   0.066   1.769   5.548 -0.0679  0.7776  0.7457
  145OSM   C11F16035   0.218   1.611   5.532  0.3688 -0.6098 -0.1066
  145OSM   H11F16036   0.301   1.568   5.592  0.2832 -1.1030 -0.3356
  145OSM   H11G16037   0.270   1.661   5.448 -0.3844  0.4501  0.0373
  145OSM   C12F16038   0.146   1.478   5.479  0.0245  0.3670 -0.0027
  145OSM   H12F16039   0.093   1.439   5.569 -2.5663 -1.1785 -2.0549
  145OSM   H12G16040   0.224   1.402   5.458 -0.9217 -1.1692  1.7364
  145OSM   C13F16041   0.052   1.508   5.367  0.4986  0.0567  0.5924
  145OSM   H13F16042  -0.015   1.589   5.404  0.5129 -0.2037  1.2018
  145OSM   H13G16043  -0.007   1.415   5.354  0.8651  0.0452 -1.1002
  145OSM   C14F16044   0.106   1.547   5.230 -0.2921 -0.4822 -0.1965
  145OSM   H14F16045   0.206   1.499   5.230 -0.4730 -0.8647  0.4379
  145OSM   H14G16046   0.122   1.657   5.229 -1.7115 -0.2479 -1.5995
  145OSM   C15F16047   0.031   1.485   5.115 -0.1761  0.6676 -0.6140
  145OSM   H15F16048  -0.070   1.520   5.144  0.0221 -0.0708  1.0491
  145OSM   H15G16049   0.043   1.374   5.109 -1.4444  0.5547 -1.6748
  145OSM   C16F16050   0.084   1.533   4.974  0.8969 -0.4738  0.0053
  145OSM   H16F16051   0.182   1.481   4.964  0.3845 -1.5104  0.2349
  145OSM   H16G16052   0.095   1.643   4.977  2.8634 -0.6414 -0.0276
  145OSM   C17F16053  -0.008   1.487   4.856  0.0583 -0.4541  1.0298
  145OSM   H17F16054  -0.115   1.499   4.883 -0.1895 -0.2269 -0.0259
  145OSM   H17G16055  -0.002   1.377   4.844 -0.2823 -0.4011  0.3058
  145OSM   C18F16056   0.036   1.557   4.723  0.5018  0.1213  0.1756
  145OSM   H18F16057  -0.042   1.546   4.645  1.2880  0.4694 -0.6832
  145OSM   H18G16058   0.133   1.517   4.686  1.2524  0.8357  1.3251
  145OSM   H18H16059   0.054   1.666   4.736 -0.9906  0.5730 -1.1415
  146OSM      N16060   4.737   1.861   6.586 -0.1504 -0.3269  0.4831
  146OSM    C1516061   4.800   1.834   6.714 -0.1183 -0.5543  0.1451
  146OSM   H15A16062   4.791   1.921   6.777 -0.7344  2.4001 -3.6571
  146OSM   H15B16063   4.906   1.820   6.697 -0.3058  0.2210 -1.9220
  146OSM   H15C16064   4.755   1.747   6.761 -1.7009 -0.9029 -1.8775
  146OSM    C1416065   4.709   1.736   6.511 -0.4639  1.1532  0.0475
  146OSM   H14A16066   4.801   1.683   6.493 -0.8077  0.7727 -0.6495
  146OSM   H14B16067   4.659   1.747   6.415 -2.5483 -0.5389  0.8572
  146OSM   H14C16068   4.647   1.672   6.571  0.8327 -0.9566 -0.7794
  146OSM    C1316069   4.606   1.930   6.608  0.3748  0.4260  0.0202
  146OSM   H13A16070   4.619   2.034   6.633 -1.7999  0.6555  0.4336
  146OSM   H13B16071   4.539   1.888   6.683 -1.9227 -0.4067 -2.3390
  146OSM   H13C16072   4.538   1.936   6.524  1.9575 -1.9704 -1.5848
  146OSM    C1216073   4.828   1.946   6.498 -0.0110  0.9791 -0.0422
  146OSM   H12A16074   4.846   2.041   6.546  2.8000 -0.1229  1.2845
  146OSM   H12B16075   4.771   1.965   6.408  0.3636 -0.1621 -0.5416
  146OSM    C1116076   4.973   1.906   6.467  0.2946  0.0942  0.8177
  146OSM   H11A16077   5.016   1.962   6.382  1.7154 -2.6882 -0.4518
  146OSM   H11B16078   4.973   1.808   6.414 -0.6379  1.1298 -1.2124
  146OSM      P16079   5.099   2.033   6.658  0.4164 -0.2416  0.2973
  146OSM    O1316080   4.992   2.139   6.657  0.1118  0.1081  0.2845
  146OSM    O1416081   5.144   1.994   6.795 -0.6028 -0.5294  0.3376
  146OSM    O1116082   5.219   2.087   6.575  0.7733 -0.0836  0.6239
  146OSM    O1216083   5.057   1.905   6.574  0.3069  0.2950 -0.5784
  146OSM    C1S16084   5.314   1.995   6.520  0.3251  0.1654 -0.4014
  146OSM    H1S16085   5.281   1.890   6.505  0.3443  0.0862  0.0974
  146OSM    H1T16086   5.403   1.990   6.587  1.1479 -1.5150 -1.5461
  146OSM     NF16087   5.462   1.933   6.324  0.1357 -0.3085 -0.0171
  146OSM    HNF16088   5.551   1.939   6.368 -0.7284  2.0802  1.6528
  146OSM    C2S16089   5.371   2.037   6.378 -0.5054 -0.0588 -0.1321
  146OSM    H2S16090   5.281   2.045   6.314 -1.0500  2.1093  0.8121
  146OSM    C3S16091   5.439   2.178   6.377  0.1541 -0.2164 -0.1337
  146OSM    H3S16092   5.519   2.169   6.453 -0.2502 -0.6659  0.2509
  146OSM     O316093   5.358   2.279   6.428  0.2938  0.2240 -0.0944
  146OSM    HO316094   5.308   2.224   6.490  1.3513 -0.0825  0.5217
  146OSM    C4S16095   5.492   2.213   6.245 -0.0164  0.0731  0.0134
  146OSM    H4S16096   5.419   2.260   6.178  0.8242  0.1330 -0.8983
  146OSM    C5S16097   5.619   2.206   6.202 -0.0857 -1.5355  0.3852
  146OSM    H5S16098   5.698   2.168   6.267  1.4529  1.7311  0.6438
  146OSM    C6S16099   5.668   2.260   6.069  0.3988 -0.2082 -0.4842
  146OSM    H6S16100   5.766   2.312   6.074  0.3208 -0.1117  0.1645
  146OSM    H6T16101   5.595   2.334   6.031  1.6500  1.3192 -0.0255
  146OSM    C7S16102   5.700   2.146   5.978 -0.4435 -0.3858 -0.0650
  146OSM    H7S16103   5.614   2.079   5.957 -0.2918 -0.6613  0.1977
  146OSM    H7T16104   5.772   2.083   6.034  1.2190  1.7235  0.3077
  146OSM    C8S16105   5.771   2.188   5.847  0.4226 -0.7548 -0.1089
  146OSM    H8S16106   5.850   2.114   5.823  0.5910 -1.1079  1.4742
  146OSM    H8T16107   5.811   2.291   5.861 -0.3184 -0.7399  2.3715
  146OSM    C9S16108   5.687   2.190   5.715 -0.5590 -0.1594 -0.4095
  146OSM    H9S16109   5.625   2.282   5.716  1.4363  1.2856 -1.3639
  146OSM    H9T16110   5.619   2.104   5.731  1.0987 -1.1773  1.5802
  146OSM   C10S16111   5.774   2.184   5.592 -0.4147  0.5330 -0.0377
  146OSM   H10S16112   5.835   2.091   5.593 -0.9265  0.1989  0.6245
  146OSM   H10T16113   5.836   2.276   5.597  1.1209 -0.5177  1.3755
  146OSM   C11S16114   5.698   2.197   5.462  0.9600  0.0564  1.2571
  146OSM   H11S16115   5.621   2.277   5.461 -1.5833 -2.1469  3.5444
  146OSM   H11T16116   5.632   2.108   5.462  1.4306 -0.3065  0.1957
  146OSM   C12S16117   5.787   2.207   5.347  0.8214 -1.1335 -0.4431
  146OSM   H12S16118   5.861   2.124   5.345  0.1893 -1.7638  1.0157
  146OSM   H12T16119   5.857   2.293   5.354 -1.1248  0.3884  2.3959
  146OSM   C13S16120   5.716   2.210   5.212  0.4850 -0.5188 -0.1903
  146OSM   H13S16121   5.640   2.292   5.201 -0.6676 -1.7671 -2.2944
  146OSM   H13T16122   5.651   2.120   5.213  1.4846 -1.2391  0.6849
  146OSM   C14S16123   5.808   2.228   5.087  0.1323  0.1200  0.0982
  146OSM   H14S16124   5.893   2.157   5.085  1.4799  1.6752 -0.5939
  146OSM   H14T16125   5.849   2.330   5.107 -2.0681  0.3189  4.9764
  146OSM   C15S16126   5.744   2.211   4.943  0.5233 -0.1951  0.7836
  146OSM   H15S16127   5.811   2.245   4.861 -1.0522  1.1509 -0.0192
  146OSM   H15T16128   5.653   2.274   4.954 -0.0014 -0.9686  0.9617
  146OSM   C16S16129   5.701   2.066   4.909  0.1788  0.7391 -0.1043
  146OSM   H16S16130   5.628   2.032   4.985  1.2028  0.6244  0.8615
  146OSM   H16T16131   5.786   1.995   4.915 -0.2608  0.2929  1.3547
  146OSM   C17S16132   5.643   2.054   4.770 -0.1484 -0.1019 -0.2199
  146OSM   H17S16133   5.654   1.952   4.727  0.3035 -0.5158  0.8558
  146OSM   H17T16134   5.687   2.128   4.699  2.1684 -1.4846 -0.3226
  146OSM   C18S16135   5.491   2.086   4.761  0.1789 -0.0986 -0.1334
  146OSM   H18S16136   5.448   2.060   4.662  1.4376  0.1448 -0.7645
  146OSM   H18T16137   5.475   2.196   4.763 -0.5117 -0.2118  1.1576
  146OSM   H18U16138   5.426   2.042   4.839 -0.0214 -0.8822 -0.7204
  146OSM    C1F16139   5.408   1.818   6.275  0.3777  0.3412  0.1740
  146OSM     OF16140   5.286   1.810   6.263 -0.4103  0.0429  0.0774
  146OSM    C2F16141   5.503   1.701   6.243  0.3787 -0.1497  0.1485
  146OSM    H2F16142   5.440   1.612   6.221 -0.6549  0.7175 -0.4767
  146OSM    H2G16143   5.565   1.675   6.332  1.5155 -0.9014 -0.8245
  146OSM    C3F16144   5.597   1.724   6.119 -0.3161  0.2090 -0.0355
  146OSM    H3F16145   5.674   1.645   6.112  2.7395  2.9083  0.8898
  146OSM    H3G16146   5.649   1.818   6.149  2.1582 -0.6698 -1.3233
  146OSM    C4F16147   5.523   1.745   5.989 -0.1118  0.2653 -0.4505
  146OSM    H4F16148   5.472   1.844   5.989  1.1100  0.9208 -0.3979
  146OSM    H4G16149   5.447   1.665   5.982 -0.8410  0.8962  0.0644
  146OSM    C5F16150   5.603   1.723   5.849  0.3141 -0.4287 -0.0034
  146OSM    H5F16151   5.645   1.621   5.840  1.8015  0.1052  0.5113
  146OSM    H5G16152   5.688   1.792   5.828 -1.3968  1.3239 -1.6217
  146OSM    C6F16153   5.518   1.757   5.728  0.5276  0.2173  0.2051
  146OSM    H6F16154   5.460   1.852   5.733 -1.1125 -0.5947 -1.8709
  146OSM    H6G16155   5.449   1.676   5.697  2.1358 -0.1042 -2.8690
  146OSM    C7F16156   5.601   1.774   5.596  0.1052  0.1325 -0.2574
  146OSM    H7F16157   5.650   1.676   5.580 -1.9313 -0.7286 -1.6122
  146OSM    H7G16158   5.677   1.852   5.620  1.0213 -0.8475  0.1272
  146OSM    C8F16159   5.509   1.826   5.484 -0.3954  0.5346  0.1930
  146OSM    H8F16160   5.469   1.925   5.515 -1.4322  0.4043 -0.7001
  146OSM    H8G16161   5.425   1.755   5.478 -0.3026  0.3230  1.1961
  146OSM    C9F16162   5.572   1.850   5.350  1.0090 -0.0270  0.2716
  146OSM    H9F16163   5.679   1.874   5.356  0.9148  0.2714  0.8425
  146OSM   C10F16164   5.513   1.834   5.231  0.6497 -0.5169 -0.1864
  146OSM   H10F16165   5.572   1.843   5.139 -0.2798  2.0924 -0.6299
  146OSM   C11F16166   5.369   1.808   5.188 -0.7201 -0.6423 -0.1734
  146OSM   H11F16167   5.317   1.903   5.164  1.2233  0.4097 -0.3979
  146OSM   H11G16168   5.315   1.759   5.272  0.0993  0.3796  0.9950
  146OSM   C12F16169   5.357   1.715   5.065  0.6263 -0.4615  0.0267
  146OSM   H12F16170   5.406   1.764   4.978 -0.8767  0.1911 -0.4872
  146OSM   H12G16171   5.248   1.716   5.046  0.7806 -1.2938 -1.0185
  146OSM   C13F16172   5.417   1.572   5.079  1.1734  1.0548  0.1463
  146OSM   H13F16173   5.361   1.539   5.169  1.2003  1.4297  0.3045
  146OSM   H13G16174   5.524   1.581   5.108  0.9806  0.5137  1.0708
  146OSM   C14F16175   5.395   1.493   4.952 -0.5344  0.3918 -0.2176
  146OSM   H14F16176   5.480   1.514   4.884  0.8328 -2.0858  0.5960
  146OSM   H14G16177   5.412   1.386   4.977  0.1174  0.8050  1.2360
  146OSM   C15F16178   5.256   1.488   4.896 -0.6653 -0.4752  0.2943
  146OSM   H15F16179   5.255   1.562   4.814 -2.2696 -0.8447 -0.0640
  146OSM   H15G16180   5.191   1.525   4.979  0.4079 -0.3963  1.1281
  146OSM   C16F16181   5.224   1.346   4.845 -0.5908  0.1156  0.4719
  146OSM   H16F16182   5.200   1.274   4.927  0.1722  1.6808  2.1398
  146OSM   H16G16183   5.315   1.305   4.797  0.4063 -0.3944  2.6630
  146OSM   C17F16184   5.127   1.335   4.727 -0.4790  0.4412  0.0671
  146OSM   H17F16185   5.149   1.421   4.661  0.7903 -0.6877 -1.0230
  146OSM   H17G16186   5.019   1.347   4.754 -0.6245 -1.8050  0.7274
  146OSM   C18F16187   5.131   1.204   4.650  0.7391 -0.3736 -0.5114
  146OSM   H18F16188   5.232   1.171   4.618  0.4343  0.0517 -1.9988
  146OSM   H18G16189   5.068   1.198   4.558  1.0096  0.4032 -0.7571
  146OSM   H18H16190   5.092   1.130   4.723  0.7467 -0.1682 -0.2996
  147OSM      N16191   4.776   4.614   1.799 -0.3068 -0.3780  0.1442
  147OSM    C1516192   4.739   4.603   1.653 -0.0851 -0.6028  0.5386
  147OSM   H15A16193   4.805   4.540   1.595  0.2677  1.6963 -1.7343
  147OSM   H15B16194   4.716   4.689   1.591  0.7503 -0.5646  0.2727
  147OSM   H15C16195   4.646   4.548   1.641 -0.8467  0.5815  0.8720
  147OSM    C1416196   4.677   4.677   1.887  0.4496  0.4481 -0.3043
  147OSM   H14A16197   4.715   4.660   1.987  2.6775  0.5434 -1.0703
  147OSM   H14B16198   4.580   4.630   1.881  0.6066 -0.3570  2.2649
  147OSM   H14C16199   4.658   4.781   1.865 -1.6157 -0.3429 -2.6646
  147OSM    C1316200   4.777   4.472   1.854 -0.6485 -0.5832 -1.3800
  147OSM   H13A16201   4.674   4.439   1.852 -0.4600 -2.1517  3.0283
  147OSM   H13B16202   4.796   4.453   1.959 -3.0874  2.2424 -0.2731
  147OSM   H13C16203   4.843   4.403   1.804  4.8779  0.0905  3.7994
  147OSM    C1216204   4.911   4.684   1.814 -0.8644 -0.2408  0.1953
  147OSM   H12A16205   4.898   4.787   1.786  1.6152  0.5490  1.6436
  147OSM   H12B16206   4.986   4.644   1.747 -0.0539  0.2284  0.7943
  147OSM    C1116207   4.982   4.679   1.947  0.7117 -0.3910  0.5510
  147OSM   H11A16208   5.071   4.742   1.926 -0.5942  1.2800 -0.2219
  147OSM   H11B16209   5.010   4.576   1.978 -1.1094 -0.9308  0.4821
  147OSM      P16210   4.967   4.729   2.208 -0.3322 -0.3251  0.1888
  147OSM    O1316211   5.072   4.829   2.225 -0.0761 -0.0219  0.1815
  147OSM    O1416212   4.863   4.744   2.311 -0.4354  0.2975 -0.1170
  147OSM    O1116213   5.029   4.583   2.222 -0.1929 -0.3350  0.2418
  147OSM    O1216214   4.909   4.739   2.058 -0.0582  0.0892  0.0214
  147OSM    C1S16215   5.122   4.542   2.324 -0.0586  0.9683  0.0643
  147OSM    H1S16216   5.180   4.628   2.363  2.1889 -0.1687 -0.6334
  147OSM    H1T16217   5.193   4.468   2.282  1.1158  2.3576 -0.4791
  147OSM     NF16218   5.144   4.445   2.555 -0.0196  0.3782  0.3672
  147OSM    HNF16219   5.161   4.351   2.585 -2.0635 -0.0639  0.3069
  147OSM    C2S16220   5.054   4.466   2.442  0.0944  0.1336 -0.9678
  147OSM    H2S16221   4.981   4.537   2.486  1.4478 -0.4969  2.6580
  147OSM    C3S16222   4.982   4.331   2.391  0.7890 -0.0868  0.7768
  147OSM    H3S16223   5.066   4.263   2.367  1.5571  0.8663  0.6906
  147OSM     O316224   4.911   4.357   2.271  1.1020  0.4027  0.1693
  147OSM    HO316225   4.947   4.440   2.240 -0.4085  1.3985  0.9939
  147OSM    C4S16226   4.890   4.270   2.493  0.2247 -0.8848  0.6399
  147OSM    H4S16227   4.902   4.162   2.512  0.5465 -0.6959  1.5809
  147OSM    C5S16228   4.778   4.328   2.530  0.1140 -0.1484 -0.1187
  147OSM    H5S16229   4.758   4.425   2.483 -0.6218 -0.1559  0.1679
  147OSM    C6S16230   4.676   4.263   2.625  0.4594  0.0478  0.5514
  147OSM    H6S16231   4.713   4.165   2.663  0.8053 -0.4580 -1.0278
  147OSM    H6T16232   4.582   4.242   2.571  0.3230 -1.6571  1.3877
  147OSM    C7S16233   4.650   4.348   2.751  0.2960 -0.6225  0.6674
  147OSM    H7S16234   4.577   4.309   2.825  0.3974 -2.2629 -0.0594
  147OSM    H7T16235   4.608   4.448   2.727  1.0723 -0.8491 -2.0176
  147OSM    C8S16236   4.776   4.369   2.839 -0.0386 -0.8976  0.6017
  147OSM    H8S16237   4.850   4.424   2.777 -0.4605 -0.3449  0.5810
  147OSM    H8T16238   4.811   4.272   2.880 -1.8224 -0.3437  3.7645
  147OSM    C9S16239   4.734   4.464   2.952  0.3752 -0.1803  0.0576
  147OSM    H9S16240   4.665   4.408   3.018 -0.5397 -0.5352 -1.1536
  147OSM    H9T16241   4.682   4.551   2.906 -1.4683 -0.6154  1.1886
  147OSM   C10S16242   4.846   4.508   3.043 -0.3433  0.2134 -0.4220
  147OSM   H10S16243   4.924   4.559   2.982 -2.2131  1.8830 -1.5740
  147OSM   H10T16244   4.886   4.418   3.094 -1.1242  0.1546  0.1054
  147OSM   C11S16245   4.801   4.599   3.163  0.4022  0.2235 -0.1449
  147OSM   H11S16246   4.737   4.545   3.235 -2.0839  3.1262  0.0601
  147OSM   H11T16247   4.747   4.690   3.128  1.5384  1.4026  1.0430
  147OSM   C12S16248   4.923   4.658   3.246 -0.4333  0.0305  0.6826
  147OSM   H12S16249   4.892   4.706   3.342  0.9496 -0.3980  1.3714
  147OSM   H12T16250   4.978   4.734   3.188 -0.5306 -1.7584 -1.9430
  147OSM   C13S16251   5.024   4.551   3.287 -0.1146  0.1800  0.3048
  147OSM   H13S16252   5.095   4.505   3.214  0.0512  1.3282 -0.2802
  147OSM   H13T16253   4.957   4.478   3.338 -0.4091  1.2184  1.4649
  147OSM   C14S16254   5.128   4.600   3.392  0.0372  0.6112 -0.2043
  147OSM   H14S16255   5.067   4.628   3.480  1.4101  0.6483  0.7548
  147OSM   H14T16256   5.196   4.682   3.362 -1.1645  0.9077 -2.4078
  147OSM   C15S16257   5.207   4.474   3.426 -0.4531 -0.3966 -0.6773
  147OSM   H15S16258   5.290   4.465   3.352  1.1678  1.2604  0.8306
  147OSM   H15T16259   5.141   4.384   3.424  0.6490 -1.2451 -0.2022
  147OSM   C16S16260   5.277   4.473   3.562 -0.7622  1.0851  0.2883
  147OSM   H16S16261   5.342   4.563   3.572  3.2498 -1.2707 -1.9681
  147OSM   H16T16262   5.357   4.397   3.549 -1.5110  0.6364 -2.0602
  147OSM   C17S16263   5.186   4.432   3.675 -0.6008  0.2009  0.6092
  147OSM   H17S16264   5.226   4.337   3.716  1.5246  0.9823  0.4606
  147OSM   H17T16265   5.082   4.414   3.642 -0.9395 -1.5800  2.4468
  147OSM   C18S16266   5.169   4.544   3.780  0.2653  0.2190 -0.1177
  147OSM   H18S16267   5.271   4.553   3.822  0.5015 -2.2730 -0.0230
  147OSM   H18T16268   5.110   4.511   3.868 -0.6601  1.7340 -0.1426
  147OSM   H18U16269   5.125   4.641   3.748 -0.4386 -0.1871 -0.3984
  147OSM    C1F16270   5.200   4.547   2.614 -0.4889 -0.7095  0.1789
  147OSM     OF16271   5.144   4.656   2.600 -0.0710 -0.2857 -0.7591
  147OSM    C2F16272   5.333   4.516   2.681  0.2394  0.8317  0.6881
  147OSM    H2F16273   5.427   4.534   2.623  0.7998  1.9147  1.8986
  147OSM    H2G16274   5.329   4.407   2.701 -0.9498  0.7734  0.2243
  147OSM    C3F16275   5.348   4.587   2.816  1.0012  0.2546  0.6110
  147OSM    H3F16276   5.250   4.576   2.867 -0.0704 -1.4126 -1.6433
  147OSM    H3G16277   5.365   4.696   2.815 -2.1025  0.8465 -0.8521
  147OSM    C4F16278   5.462   4.522   2.900 -0.8635  0.6706 -0.3415
  147OSM    H4F16279   5.555   4.561   2.855 -1.9974  3.6664 -0.2949
  147OSM    H4G16280   5.471   4.411   2.898  1.2000  0.8147 -2.4881
  147OSM    C5F16281   5.454   4.576   3.043 -0.6073  0.1332 -0.1721
  147OSM    H5F16282   5.354   4.573   3.092 -1.0847  0.0633 -1.1250
  147OSM    H5G16283   5.482   4.684   3.043  2.8864 -0.6562  0.1758
  147OSM    C6F16284   5.560   4.507   3.139  1.0610 -0.1602  0.0174
  147OSM    H6F16285   5.537   4.542   3.242  1.4509 -1.2773  0.5001
  147OSM    H6G16286   5.660   4.545   3.108  2.0369  1.2000  4.1062
  147OSM    C7F16287   5.551   4.356   3.134  0.2349 -0.5707 -1.1749
  147OSM    H7F16288   5.604   4.310   3.048  2.2364  0.1044 -0.3624
  147OSM    H7G16289   5.445   4.327   3.118  0.4436 -1.1249 -1.5934
  147OSM    C8F16290   5.590   4.269   3.256 -0.8906  0.2017 -0.4131
  147OSM    H8F16291   5.614   4.166   3.220  0.5519  0.0909  0.7707
  147OSM    H8G16292   5.514   4.292   3.334  0.1249 -1.0173  0.9875
  147OSM    C9F16293   5.725   4.315   3.312  0.1063 -0.1304 -0.1537
  147OSM    H9F16294   5.809   4.337   3.245  1.5930 -1.5213  1.1608
  147OSM   C10F16295   5.750   4.318   3.444 -0.7919  0.2254 -1.0971
  147OSM   H10F16296   5.852   4.347   3.473 -1.3078  0.6849  0.3488
  147OSM   C11F16297   5.664   4.290   3.558 -0.4581 -0.4021 -0.9110
  147OSM   H11F16298   5.631   4.184   3.560  1.5502 -1.0523 -0.2458
  147OSM   H11G16299   5.571   4.350   3.541  0.4446  1.1670 -0.4981
  147OSM   C12F16300   5.727   4.327   3.696 -0.2161  0.0055 -0.5811
  147OSM   H12F16301   5.737   4.438   3.694 -0.3833  0.0095 -2.3007
  147OSM   H12G16302   5.824   4.274   3.704 -0.3944 -0.3124 -0.5099
  147OSM   C13F16303   5.649   4.272   3.822 -1.1225  0.2627 -0.6810
  147OSM   H13F16304   5.729   4.252   3.897 -0.0144 -1.2604 -2.1926
  147OSM   H13G16305   5.612   4.171   3.794 -1.7484  0.4062 -0.3893
  147OSM   C14F16306   5.534   4.352   3.878  0.5021  0.2820 -0.1270
  147OSM   H14F16307   5.450   4.345   3.806 -1.5539 -1.7028  2.2685
  147OSM   H14G16308   5.563   4.458   3.888  0.4708  0.7357 -3.5413
  147OSM   C15F16309   5.501   4.291   4.018  0.1995  0.5959 -0.3393
  147OSM   H15F16310   5.491   4.181   4.008  0.2589  0.5331  0.2626
  147OSM   H15G16311   5.405   4.333   4.057  0.7715  1.0804  0.5649
  147OSM   C16F16312   5.605   4.305   4.129 -0.2280 -0.1328  0.4491
  147OSM   H16F16313   5.650   4.407   4.121  1.7275 -0.9468  0.3623
  147OSM   H16G16314   5.692   4.239   4.108  0.9330  0.4905  2.9352
  147OSM   C17F16315   5.566   4.293   4.280 -0.8648 -0.4070  1.6068
  147OSM   H17F16316   5.652   4.305   4.350 -0.2563 -0.0856  0.8237
  147OSM   H17G16317   5.523   4.192   4.302  1.4551 -1.8862 -0.1289
  147OSM   C18F16318   5.461   4.404   4.307 -0.6912  0.1648 -0.9272
  147OSM   H18F16319   5.487   4.499   4.257  0.3673  0.4719  0.1713
  147OSM   H18G16320   5.445   4.428   4.414 -0.4401 -0.7569 -0.6676
  147OSM   H18H16321   5.360   4.382   4.266 -1.3519 -0.7744  1.0981
  148OSM      N16322   6.384   3.470   2.091 -0.1599  0.1217  0.3415
  148OSM    C1516323   6.517   3.444   2.033 -0.5186 -0.0847  0.8290
  148OSM   H15A16324   6.540   3.501   1.944  0.5504 -2.4994 -0.5320
  148OSM   H15B16325   6.529   3.340   2.010  2.9629  0.2767  0.4550
  148OSM   H15C16326   6.595   3.474   2.102  0.4939 -0.1145 -0.2719
  148OSM    C1416327   6.388   3.613   2.134  0.0888 -0.0100 -0.6467
  148OSM   H14A16328   6.441   3.637   2.225 -2.4404  1.8864  0.4424
  148OSM   H14B16329   6.291   3.652   2.161 -0.5726 -0.3833 -2.3989
  148OSM   H14C16330   6.422   3.676   2.053  0.4551 -0.3415 -0.7565
  148OSM    C1316331   6.287   3.452   1.981  0.0285 -0.5826 -0.3839
  148OSM   H13A16332   6.314   3.507   1.892 -0.2539 -0.3971 -0.3539
  148OSM   H13B16333   6.194   3.492   2.017  0.4629  2.5015 -2.3202
  148OSM   H13C16334   6.258   3.350   1.958 -1.9199  0.4169 -2.8751
  148OSM    C1216335   6.353   3.376   2.206 -0.4135 -0.2857  0.5054
  148OSM   H12A16336   6.249   3.385   2.235 -0.5374  1.8383 -0.4539
  148OSM   H12B16337   6.422   3.408   2.283  0.7620 -3.8993  1.1388
  148OSM    C1116338   6.372   3.221   2.198 -0.3370  0.1612 -0.6127
  148OSM   H11A16339   6.390   3.176   2.298 -0.3620 -2.2124 -1.6010
  148OSM   H11B16340   6.474   3.208   2.155 -0.5201  1.7938 -1.6370
  148OSM      P16341   6.128   3.122   2.192 -0.5161  0.2294 -0.4808
  148OSM    O1316342   6.015   3.203   2.150 -0.0193 -0.2032 -0.5668
  148OSM    O1416343   6.116   2.973   2.186 -0.3326  0.0377 -0.2402
  148OSM    O1116344   6.161   3.159   2.341 -0.1074 -0.5788  0.4202
  148OSM    O1216345   6.264   3.168   2.122 -0.4097  0.2752 -0.7839
  148OSM    C1S16346   6.127   3.076   2.452  0.0208 -0.0903  0.0822
  148OSM    H1S16347   6.199   2.991   2.453  1.2851  0.8997  2.8282
  148OSM    H1T16348   6.022   3.042   2.445 -1.2763  3.4147  0.5579
  148OSM     NF16349   6.093   3.068   2.700  0.4646  0.3506 -0.3041
  148OSM    HNF16350   5.997   3.068   2.728 -0.0257  2.8970 -1.6881
  148OSM    C2S16351   6.127   3.153   2.587  0.2633 -0.9885 -0.7998
  148OSM    H2S16352   6.230   3.194   2.597 -0.0674 -0.2434 -0.4378
  148OSM    C3S16353   6.034   3.277   2.579 -0.0482 -0.2487  0.0088
  148OSM    H3S16354   5.930   3.241   2.597  0.1116 -0.0971  1.3493
  148OSM     O316355   6.026   3.353   2.459 -0.1126 -0.6899 -0.5568
  148OSM    HO316356   6.073   3.294   2.399  0.8671 -0.8499  0.3381
  148OSM    C4S16357   6.055   3.380   2.689 -0.0925 -0.0641 -0.7733
  148OSM    H4S16358   6.146   3.441   2.682  0.0006  0.1048  1.1649
  148OSM    C5S16359   5.971   3.410   2.790 -0.1907  0.1284  1.0813
  148OSM    H5S16360   5.881   3.351   2.814  0.3177 -0.4318  1.6507
  148OSM    C6S16361   5.999   3.510   2.900 -0.5387  0.0129  0.4342
  148OSM    H6S16362   5.940   3.603   2.902  0.2852  0.5430  0.9580
  148OSM    H6T16363   6.104   3.548   2.902 -1.2086  2.1351 -1.4517
  148OSM    C7S16364   5.976   3.450   3.042 -0.5948  0.0022 -0.4322
  148OSM    H7S16365   6.055   3.371   3.046 -0.9257 -0.4061 -1.4829
  148OSM    H7T16366   5.875   3.406   3.036  0.0254 -1.8973  1.7694
  148OSM    C8S16367   5.989   3.543   3.162 -0.3246 -0.0284  0.3371
  148OSM    H8S16368   5.890   3.591   3.176 -1.4469 -1.8795 -0.8416
  148OSM    H8T16369   6.067   3.619   3.139 -2.2147  1.7178 -0.5558
  148OSM    C9S16370   6.025   3.464   3.294 -0.4543 -0.8656 -0.4401
  148OSM    H9S16371   6.127   3.421   3.282 -0.2767  0.0106 -2.3362
  148OSM    H9T16372   5.949   3.384   3.279 -1.0268 -0.1018 -1.8069
  148OSM   C10S16373   5.991   3.542   3.417  0.0554  0.2126  0.4677
  148OSM   H10S16374   5.886   3.577   3.408 -0.2018 -1.0103 -2.3606
  148OSM   H10T16375   6.044   3.638   3.435 -2.0764  1.6757 -0.6396
  148OSM   C11S16376   6.008   3.443   3.534  0.5464  0.5224 -0.2538
  148OSM   H11S16377   6.111   3.405   3.517 -0.0811 -1.2954 -0.2314
  148OSM   H11T16378   5.928   3.367   3.528  0.8596  0.0615  1.0416
  148OSM   C12S16379   6.000   3.509   3.667  0.1407  0.0668 -0.1386
  148OSM   H12S16380   5.893   3.536   3.678 -0.2766 -0.7283 -1.8864
  148OSM   H12T16381   6.066   3.598   3.669  0.6973 -0.3516  0.4701
  148OSM   C13S16382   6.056   3.427   3.784 -0.6114 -0.1318 -0.0859
  148OSM   H13S16383   6.165   3.410   3.765 -0.2707  1.1836  0.5509
  148OSM   H13T16384   5.994   3.335   3.776 -0.3463 -0.1616 -4.5799
  148OSM   C14S16385   6.034   3.505   3.917 -0.3512 -0.0884 -0.0181
  148OSM   H14S16386   5.924   3.515   3.934 -0.1385  0.3183  1.2100
  148OSM   H14T16387   6.058   3.613   3.903 -1.7090  0.3892  1.0225
  148OSM   C15S16388   6.120   3.461   4.036 -0.1311  0.1095 -0.9831
  148OSM   H15S16389   6.221   3.483   3.996 -0.0493  0.0669 -0.7962
  148OSM   H15T16390   6.096   3.353   4.042 -0.8466  0.1768 -2.1995
  148OSM   C16S16391   6.097   3.532   4.166 -0.9297  0.5908 -0.1945
  148OSM   H16S16392   5.987   3.531   4.184 -0.9192  1.2210 -0.0584
  148OSM   H16T16393   6.120   3.641   4.160 -2.9556  1.0470 -0.7983
  148OSM   C17S16394   6.180   3.469   4.281  0.0629 -0.4663 -0.3549
  148OSM   H17S16395   6.153   3.527   4.372  0.5686  1.5983 -1.4643
  148OSM   H17T16396   6.290   3.474   4.268  0.0724 -1.4852 -0.7227
  148OSM   C18S16397   6.141   3.322   4.314  0.5808  0.0192 -0.0434
  148OSM   H18S16398   6.042   3.306   4.361  0.1741 -1.2285 -1.2569
  148OSM   H18T16399   6.223   3.279   4.377  1.0288 -0.0174 -0.6424
  148OSM   H18U16400   6.131   3.248   4.232  0.9769  0.0165 -0.0925
  148OSM    C1F16401   6.169   2.972   2.749 -0.1388 -0.3264 -0.1981
  148OSM     OF16402   6.282   2.957   2.705  0.0952 -0.0762  0.5343
  148OSM    C2F16403   6.108   2.870   2.849  0.0455 -0.5868  0.9175
  148OSM    H2F16404   6.156   2.772   2.831  0.0877 -0.4629  0.3276
  148OSM    H2G16405   5.999   2.859   2.831  0.0082 -2.9836  2.1768
  148OSM    C3F16406   6.138   2.902   3.001  0.8134 -0.1168  0.3095
  148OSM    H3F16407   6.246   2.925   3.005  0.7617 -0.0436  1.7079
  148OSM    H3G16408   6.117   2.810   3.060  3.1412 -2.3411 -2.0639
  148OSM    C4F16409   6.051   3.021   3.041  0.1536 -0.2255  0.0386
  148OSM    H4F16410   5.942   3.000   3.028  0.5843 -1.0318 -2.8604
  148OSM    H4G16411   6.068   3.095   2.960 -0.0867  1.2233  1.2525
  148OSM    C5F16412   6.074   3.087   3.171 -0.3632  0.2320  0.3405
  148OSM    H5F16413   6.056   3.197   3.172 -1.4655  0.0645  0.5065
  148OSM    H5G16414   6.181   3.073   3.195 -0.5234  1.2591  1.7833
  148OSM    C6F16415   5.991   3.034   3.287  0.1789  0.0548  0.3481
  148OSM    H6F16416   5.999   2.924   3.306 -1.2778  0.1999  2.0314
  148OSM    H6G16417   5.888   3.055   3.253 -0.1132 -0.8684  0.6275
  148OSM    C7F16418   6.022   3.111   3.416  0.2279 -0.0467 -0.4442
  148OSM    H7F16419   5.998   3.219   3.402  0.5622  0.2110  0.8642
  148OSM    H7G16420   6.129   3.097   3.443 -0.5674 -1.0530  2.5538
  148OSM    C8F16421   5.925   3.071   3.530 -0.6096 -0.2391  0.1787
  148OSM    H8F16422   5.821   3.088   3.496 -0.6262  1.1198  0.8746
  148OSM    H8G16423   5.949   3.135   3.617 -1.9694 -0.1753  0.5272
  148OSM    C9F16424   5.951   2.931   3.575  0.0422  0.3947  0.2966
  148OSM    H9F16425   5.902   2.864   3.503  0.4608 -1.0638  1.3184
  148OSM   C10F16426   6.023   2.889   3.681 -0.3217  0.1453  0.0884
  148OSM   H10F16427   6.031   2.780   3.691  1.4421  0.2297 -0.1846
  148OSM   C11F16428   6.110   2.964   3.776  0.2454  0.0270  0.2398
  148OSM   H11F16429   6.095   2.926   3.880 -1.6668  3.3156  1.3040
  148OSM   H11G16430   6.076   3.069   3.779  4.0196  1.3693  2.5075
  148OSM   C12F16431   6.257   2.959   3.742 -0.0163 -0.5942  0.6665
  148OSM   H12F16432   6.266   3.009   3.644 -1.6316  0.0122  0.7994
  148OSM   H12G16433   6.304   2.858   3.739  2.0924  0.3095  1.1034
  148OSM   C13F16434   6.341   3.035   3.846 -0.2335 -0.1032  0.6662
  148OSM   H13F16435   6.309   3.142   3.851  0.0721 -0.0405  1.5767
  148OSM   H13G16436   6.449   3.036   3.819 -0.9344  1.0691 -2.5486
  148OSM   C14F16437   6.340   2.979   3.993 -0.4856  0.0427 -0.0127
  148OSM   H14F16438   6.237   2.953   4.023  0.3247 -0.6227  2.4330
  148OSM   H14G16439   6.380   3.058   4.062 -1.3781 -0.7818  1.5012
  148OSM   C15F16440   6.432   2.862   4.009 -0.4666  0.0459 -0.0196
  148OSM   H15F16441   6.514   2.882   3.938  0.0755 -0.8526  0.3259
  148OSM   H15G16442   6.390   2.766   3.971  1.8462 -1.6870  1.4930
  148OSM   C16F16443   6.481   2.830   4.153 -0.5389 -0.2798  0.7491
  148OSM   H16F16444   6.473   2.929   4.203 -1.1805  0.0218  0.0724
  148OSM   H16G16445   6.589   2.803   4.154 -0.7283 -1.3206 -1.3395
  148OSM   C17F16446   6.394   2.718   4.220 -0.7315 -0.0618  0.2703
  148OSM   H17F16447   6.403   2.634   4.148 -3.7172 -0.2521 -0.0092
  148OSM   H17G16448   6.287   2.743   4.231 -0.3887  1.0898  1.2973
  148OSM   C18F16449   6.446   2.684   4.362 -0.0696 -0.1507 -0.2233
  148OSM   H18F16450   6.391   2.603   4.415  0.3648  0.7141  1.6657
  148OSM   H18G16451   6.429   2.770   4.430 -3.7718 -0.3143 -0.7167
  148OSM   H18H16452   6.553   2.655   4.368  0.3898  1.2797 -1.2746
  149OSM      N16453   0.529   4.002   1.900  0.6363 -0.0177  0.3120
  149OSM    C1516454   0.474   4.115   1.825  0.2615 -0.3521  0.0339
  149OSM   H15A16455   0.367   4.124   1.817  0.0450 -1.5775  1.2287
  149OSM   H15B16456   0.503   4.113   1.721 -1.0249  3.2799 -0.5412
  149OSM   H15C16457   0.512   4.202   1.877  0.9152 -0.8022  0.3310
  149OSM    C1416458   0.486   3.873   1.840 -0.2577  0.0612  0.0682
  149OSM   H14A16459   0.502   3.872   1.734  2.2691 -0.2511  0.3834
  149OSM   H14B16460   0.381   3.855   1.857  0.1230 -0.2863  2.4075
  149OSM   H14C16461   0.542   3.795   1.890 -1.7484 -2.4313 -1.9419
  149OSM    C1316462   0.686   4.000   1.867  0.3458  0.3258 -0.0874
  149OSM   H13A16463   0.727   4.090   1.908  0.3285  0.0145  0.6175
  149OSM   H13B16464   0.699   3.991   1.760 -1.7558  0.8537 -0.4370
  149OSM   H13C16465   0.724   3.916   1.923 -1.7866 -0.7448 -0.1151
  149OSM    C1216466   0.509   3.993   2.053  0.2050 -0.2381  0.0954
  149OSM   H12A16467   0.557   3.901   2.083 -0.0818 -0.1107  0.9691
  149OSM   H12B16468   0.405   3.979   2.077 -0.7502  0.7759 -2.9153
  149OSM    C1116469   0.571   4.109   2.129 -0.2707  0.2568 -0.0780
  149OSM   H11A16470   0.681   4.102   2.140 -0.2108  1.5195  0.4044
  149OSM   H11B16471   0.521   4.107   2.229 -2.2813  1.2734 -1.0111
  149OSM      P16472   0.645   4.346   2.086  0.1333 -0.0025 -0.2762
  149OSM    O1316473   0.766   4.303   2.022  0.4686 -0.8709 -0.5535
  149OSM    O1416474   0.592   4.471   2.033 -0.0518  0.4451 -0.8560
  149OSM    O1116475   0.665   4.353   2.236 -0.2326  0.1562  0.0773
  149OSM    O1216476   0.532   4.231   2.079 -0.0454  0.9036  0.1614
  149OSM    C1S16477   0.567   4.414   2.327  0.1400 -0.5711  0.5488
  149OSM    H1S16478   0.463   4.404   2.289 -0.3490  1.1616  1.3249
  149OSM    H1T16479   0.568   4.525   2.321 -0.1767 -0.4689  2.0746
  149OSM     NF16480   0.450   4.382   2.549  0.2424 -0.8045 -0.6269
  149OSM    HNF16481   0.451   4.433   2.634 -1.3364 -0.0644 -1.0144
  149OSM    C2S16482   0.572   4.365   2.472 -0.0703 -0.3027 -0.1744
  149OSM    H2S16483   0.594   4.256   2.466 -0.6142 -0.4247  0.0641
  149OSM    C3S16484   0.693   4.436   2.541 -0.4430  0.2405  1.2464
  149OSM    H3S16485   0.670   4.545   2.539  0.0756  0.3498 -0.1178
  149OSM     O316486   0.812   4.426   2.461 -0.8446  0.1106  0.5235
  149OSM    HO316487   0.783   4.378   2.383  1.3425 -0.3331 -0.1015
  149OSM    C4S16488   0.703   4.396   2.680 -0.1500  0.1969  0.1321
  149OSM    H4S16489   0.680   4.480   2.747 -0.3159  0.5215 -0.3294
  149OSM    C5S16490   0.772   4.292   2.727  0.0011  0.8446 -0.3930
  149OSM    H5S16491   0.844   4.235   2.666 -1.3221 -0.6126 -0.6410
  149OSM    C6S16492   0.802   4.280   2.876 -0.0611  0.1912 -0.0557
  149OSM    H6S16493   0.906   4.309   2.901  0.6924 -1.9555 -0.4953
  149OSM    H6T16494   0.791   4.174   2.908  0.5006 -0.6204 -2.4036
  149OSM    C7S16495   0.720   4.373   2.967  1.0957 -0.8896 -0.4454
  149OSM    H7S16496   0.615   4.344   2.946  0.5468  0.3579  0.4479
  149OSM    H7T16497   0.740   4.477   2.933  1.0305 -0.8578 -0.3871
  149OSM    C8S16498   0.737   4.353   3.113 -0.2626 -0.3113 -0.0155
  149OSM    H8S16499   0.844   4.362   3.143 -0.4473  0.3300  0.4892
  149OSM    H8T16500   0.691   4.265   3.162 -1.5729  0.3853  0.0371
  149OSM    C9S16501   0.667   4.464   3.188 -0.0202  0.1907  0.4916
  149OSM    H9S16502   0.557   4.455   3.178 -0.1987  1.1002  1.4626
  149OSM    H9T16503   0.710   4.558   3.149  1.1820 -0.2809  0.6105
  149OSM   C10S16504   0.698   4.442   3.337  0.0930  0.1560  0.5155
  149OSM   H10S16505   0.806   4.424   3.351  0.2724  1.4396  0.9167
  149OSM   H10T16506   0.645   4.348   3.362  1.4784 -0.6216  0.6069
  149OSM   C11S16507   0.640   4.547   3.437 -0.2340  0.4100 -0.3888
  149OSM   H11S16508   0.536   4.574   3.412 -0.7282 -0.4880  0.6593
  149OSM   H11T16509   0.698   4.639   3.414 -0.1527  0.7401  1.0431
  149OSM   C12S16510   0.649   4.511   3.588 -0.2378 -0.6289  0.3843
  149OSM   H12S16511   0.750   4.467   3.607  0.7070  1.7067  1.0432
  149OSM   H12T16512   0.566   4.439   3.608 -1.2540 -0.1526 -1.7900
  149OSM   C13S16513   0.618   4.635   3.676 -0.7597 -0.2948  0.1349
  149OSM   H13S16514   0.519   4.678   3.650 -0.0925  0.6923 -0.8731
  149OSM   H13T16515   0.697   4.713   3.669  0.0927 -1.2679 -1.9336
  149OSM   C14S16516   0.612   4.594   3.832 -0.7526 -0.1904  1.3659
  149OSM   H14S16517   0.691   4.524   3.865 -2.3727 -2.4270  0.7142
  149OSM   H14T16518   0.520   4.534   3.845 -0.2809 -1.2625  0.0069
  149OSM   C15S16519   0.616   4.711   3.927  0.4757 -0.1104 -0.1679
  149OSM   H15S16520   0.544   4.788   3.891  0.8873  0.2168 -0.2940
  149OSM   H15T16521   0.720   4.750   3.929  0.6668 -0.5983  2.0619
  149OSM   C16S16522   0.567   4.674   4.066  0.6214 -0.0275  0.2796
  149OSM   H16S16523   0.470   4.622   4.055  1.5120 -2.0306  1.3235
  149OSM   H16T16524   0.558   4.764   4.131  0.5557 -0.4354  0.8426
  149OSM   C17S16525   0.668   4.579   4.128 -0.3703  0.0297 -1.1807
  149OSM   H17S16526   0.773   4.604   4.103  0.6568 -1.1865  1.5000
  149OSM   H17T16527   0.650   4.479   4.081 -1.3710 -1.7916  2.6815
  149OSM   C18S16528   0.651   4.557   4.283 -0.1134  0.5762 -0.2606
  149OSM   H18S16529   0.695   4.650   4.326  2.1216  0.7689 -2.6968
  149OSM   H18T16530   0.703   4.469   4.324  0.0958  1.5272  1.6166
  149OSM   H18U16531   0.544   4.567   4.311  0.1663  0.9334  0.7471
  149OSM    C1F16532   0.325   4.339   2.510 -0.3050  0.0699 -1.2040
  149OSM     OF16533   0.310   4.251   2.430 -1.0464  0.1918  0.9816
  149OSM    C2F16534   0.206   4.408   2.572  0.5276  0.4316 -0.0063
  149OSM    H2F16535   0.120   4.413   2.501  0.2092  0.7017  0.3934
  149OSM    H2G16536   0.223   4.513   2.603  0.5100  1.1592 -2.2610
  149OSM    C3F16537   0.163   4.317   2.692  0.6429 -0.0683 -0.4842
  149OSM    H3F16538   0.251   4.317   2.761  1.8485  1.1349 -1.9374
  149OSM    H3G16539   0.137   4.213   2.664 -2.7409 -0.1043  2.1272
  149OSM    C4F16540   0.040   4.352   2.777  0.3987 -0.2455  0.8913
  149OSM    H4F16541  -0.055   4.342   2.720 -1.0534  2.7771  2.5816
  149OSM    H4G16542   0.045   4.450   2.827  0.8054  0.3791 -0.3128
  149OSM    C5F16543   0.037   4.251   2.887  0.2900 -1.0650  0.5607
  149OSM    H5F16544   0.143   4.234   2.915  1.5389  3.0055 -0.8987
  149OSM    H5G16545  -0.018   4.161   2.851 -3.4838  1.8644 -1.7341
  149OSM    C6F16546  -0.049   4.302   3.006 -0.3177 -0.0804 -0.4478
  149OSM    H6F16547  -0.153   4.308   2.967 -0.5945  0.5828  0.3660
  149OSM    H6G16548  -0.017   4.402   3.042 -2.1593  1.1005 -1.8934
  149OSM    C7F16549  -0.066   4.192   3.117 -0.0701  0.2407  0.0046
  149OSM    H7F16550   0.033   4.152   3.150 -0.0040  0.5737  0.2093
  149OSM    H7G16551  -0.106   4.103   3.064  2.2455  0.3110 -2.1126
  149OSM    C8F16552  -0.145   4.233   3.241 -0.1016  0.3085 -0.3491
  149OSM    H8F16553  -0.191   4.140   3.279 -0.7330  0.9015  0.3653
  149OSM    H8G16554  -0.237   4.285   3.207 -0.3371 -1.0164 -1.8588
  149OSM    C9F16555  -0.061   4.296   3.350  0.2334  0.0341  0.2382
  149OSM    H9F16556  -0.039   4.403   3.341 -2.1044  0.8485  2.7604
  149OSM   C10F16557  -0.010   4.239   3.458  0.6474 -0.1296 -0.0160
  149OSM   H10F16558   0.058   4.288   3.529  0.6397 -1.5683  1.0343
  149OSM   C11F16559  -0.038   4.103   3.517 -0.6778 -0.6459  0.2691
  149OSM   H11F16560   0.062   4.066   3.546 -0.1886  1.2842  1.2237
  149OSM   H11G16561  -0.098   4.040   3.448 -0.0611 -1.0840  0.1288
  149OSM   C12F16562  -0.125   4.128   3.646  0.1406 -0.3612  0.3996
  149OSM   H12F16563  -0.166   4.028   3.670 -1.9638  1.0924  3.5446
  149OSM   H12G16564  -0.205   4.205   3.631 -0.7871 -0.9288  2.1958
  149OSM   C13F16565  -0.043   4.163   3.761  0.1488 -0.7744 -0.4251
  149OSM   H13F16566   0.020   4.249   3.727  1.7972 -1.7656  0.0095
  149OSM   H13G16567   0.035   4.087   3.783  2.2824  1.3428 -0.1614
  149OSM   C14F16568  -0.134   4.204   3.887 -0.1732  0.0108 -0.3647
  149OSM   H14F16569  -0.194   4.114   3.912  1.0524 -0.4786  0.9580
  149OSM   H14G16570  -0.201   4.290   3.868 -0.9898 -0.4053  0.5312
  149OSM   C15F16571  -0.058   4.227   4.016  0.1550  0.1632  0.3530
  149OSM   H15F16572   0.038   4.281   4.000 -0.0091  1.1915  2.4781
  149OSM   H15G16573  -0.028   4.124   4.047  3.2084  0.9176  0.2629
  149OSM   C16F16574  -0.134   4.295   4.129  0.0288  0.4850 -0.4227
  149OSM   H16F16575  -0.202   4.223   4.179 -0.5531 -0.3151 -2.2698
  149OSM   H16G16576  -0.196   4.376   4.084  0.5768  0.3183 -1.5301
  149OSM   C17F16577  -0.048   4.355   4.236  0.3439 -0.4601  0.6143
  149OSM   H17F16578   0.029   4.419   4.186 -1.4254 -0.3251 -2.1529
  149OSM   H17G16579   0.001   4.273   4.293 -2.4263 -1.8482  1.1589
  149OSM   C18F16580  -0.130   4.444   4.329 -0.6517 -0.5947  0.5749
  149OSM   H18F16581  -0.068   4.484   4.412  0.7534  1.9997 -1.5697
  149OSM   H18G16582  -0.230   4.400   4.350 -2.3063  0.6922 -3.5594
  149OSM   H18H16583  -0.161   4.538   4.279 -0.2542  1.1026  3.2931
  150OSM      N16584   4.701   0.025   2.293  0.5341  0.0611  0.6095
  150OSM    C1516585   4.654   0.110   2.402 -0.1401 -0.2710 -0.5873
  150OSM   H15A16586   4.650   0.215   2.379 -1.5160  0.4690  2.4984
  150OSM   H15B16587   4.718   0.094   2.488 -0.0625  2.3224 -0.0873
  150OSM   H15C16588   4.556   0.086   2.441  0.3160 -0.9052  0.2240
  150OSM    C1416589   4.657   0.093   2.160  0.3726  0.3310 -0.5188
  150OSM   H14A16590   4.550   0.104   2.151 -0.1949 -0.9441  3.0085
  150OSM   H14B16591   4.697   0.030   2.082  1.3689 -1.8053  1.6042
  150OSM   H14C16592   4.698   0.194   2.158  1.9681 -0.1830  1.9015
  150OSM    C1316593   4.849   0.010   2.281  0.1124  0.4877  0.0418
  150OSM   H13A16594   4.897  -0.012   2.375  2.6300 -0.6917 -1.4330
  150OSM   H13B16595   4.893   0.098   2.237 -0.5482  0.9560  0.2906
  150OSM   H13C16596   4.873  -0.067   2.209  1.2903  1.7944 -1.0081
  150OSM    C1216597   4.635  -0.110   2.294 -0.1561 -0.1681  0.5230
  150OSM   H12A16598   4.652  -0.163   2.202 -0.7723 -0.4718  0.5807
  150OSM   H12B16599   4.527  -0.105   2.292 -0.1207  2.9821  1.0057
  150OSM    C1116600   4.670  -0.196   2.407  0.4175  0.0708 -0.0581
  150OSM   H11A16601   4.638  -0.156   2.506 -0.1112 -1.2121  0.3139
  150OSM   H11B16602   4.780  -0.214   2.418  0.8384  0.9267 -2.4152
  150OSM      P16603   4.438  -0.332   2.387  0.0778  0.2924  0.1384
  150OSM    O1316604   4.385  -0.192   2.399 -0.4305  0.0512  0.1328
  150OSM    O1416605   4.389  -0.410   2.271  0.0108  0.2174 -0.4164
  150OSM    O1116606   4.421  -0.400   2.529 -0.2265 -0.2962 -0.0709
  150OSM    O1216607   4.600  -0.323   2.384 -0.1300  0.0741 -0.5833
  150OSM    C1S16608   4.533  -0.413   2.617 -0.3419  0.1656  0.1274
  150OSM    H1S16609   4.577  -0.312   2.629 -0.9453  0.6750 -1.6465
  150OSM    H1T16610   4.609  -0.471   2.561 -0.1678 -0.3423  0.8793
  150OSM     NF16611   4.620  -0.470   2.842  0.5722 -0.7632  0.1409
  150OSM    HNF16612   4.688  -0.543   2.837 -0.1728 -1.5002  0.4886
  150OSM    C2S16613   4.501  -0.475   2.755 -0.5404  0.1198  0.0913
  150OSM    H2S16614   4.416  -0.415   2.793 -3.0396 -3.1672  0.1790
  150OSM    C3S16615   4.448  -0.615   2.736  0.4246 -0.4169 -0.4279
  150OSM    H3S16616   4.518  -0.681   2.680  0.3180 -0.8233 -0.0842
  150OSM     O316617   4.329  -0.615   2.649  0.1371 -0.6246  0.1010
  150OSM    HO316618   4.344  -0.536   2.596 -1.8972 -0.2164  0.0615
  150OSM    C4S16619   4.421  -0.685   2.873 -0.4119  0.2710 -0.0290
  150OSM    H4S16620   4.507  -0.734   2.919 -0.3403  0.8680  0.4897
  150OSM    C5S16621   4.308  -0.675   2.940  0.4627  0.8847 -0.2597
  150OSM    H5S16622   4.225  -0.624   2.888  0.8134  2.5915  0.8051
  150OSM    C6S16623   4.287  -0.732   3.080  0.0581 -0.2627 -0.4595
  150OSM    H6S16624   4.289  -0.843   3.074  1.8250 -0.2765 -0.1500
  150OSM    H6T16625   4.188  -0.695   3.116  0.3500  0.0138  0.0562
  150OSM    C7S16626   4.382  -0.699   3.192 -0.0605 -0.2441 -0.5299
  150OSM    H7S16627   4.380  -0.589   3.206 -0.5305 -0.2511 -0.5096
  150OSM    H7T16628   4.486  -0.725   3.164  0.2803  1.2926 -0.7796
  150OSM    C8S16629   4.342  -0.758   3.332  0.7000  0.1995 -0.3409
  150OSM    H8S16630   4.361  -0.868   3.332 -0.0742  0.0356 -2.0226
  150OSM    H8T16631   4.233  -0.738   3.342 -0.0488 -3.5975  0.8374
  150OSM    C9S16632   4.408  -0.698   3.457  0.3919  0.0392  0.2166
  150OSM    H9S16633   4.436  -0.595   3.426 -0.4571  0.3657  0.4916
  150OSM    H9T16634   4.499  -0.753   3.488  0.2463  0.2085  0.9572
  150OSM   C10S16635   4.296  -0.690   3.564  0.5049 -0.3926 -0.5773
  150OSM   H10S16636   4.245  -0.788   3.582  1.8379 -1.2417 -1.2384
  150OSM   H10T16637   4.213  -0.619   3.547  0.3576  0.8931  4.0818
  150OSM   C11S16638   4.354  -0.633   3.699  0.3559  0.0085 -0.2469
  150OSM   H11S16639   4.388  -0.528   3.687  0.4182  0.0882  0.5629
  150OSM   H11T16640   4.444  -0.688   3.734  0.4239 -0.4147 -1.0527
  150OSM   C12S16641   4.240  -0.642   3.804 -0.1166  0.2279  0.0370
  150OSM   H12S16642   4.204  -0.747   3.802 -0.8099  0.4705 -0.7227
  150OSM   H12T16643   4.150  -0.587   3.771  0.5451  0.9752 -0.5705
  150OSM   C13S16644   4.294  -0.598   3.937  0.1079  0.1205 -0.0331
  150OSM   H13S16645   4.324  -0.491   3.930  3.1522 -0.4290  2.2446
  150OSM   H13T16646   4.394  -0.638   3.968 -0.5601 -1.1638  0.5528
  150OSM   C14S16647   4.203  -0.631   4.056  0.1030  0.3245 -0.0599
  150OSM   H14S16648   4.196  -0.739   4.079  1.1676  0.6416  2.0185
  150OSM   H14T16649   4.101  -0.598   4.028  0.2793  0.0350 -1.0725
  150OSM   C15S16650   4.243  -0.555   4.181 -0.5026 -0.4754 -0.4469
  150OSM   H15S16651   4.353  -0.545   4.188 -0.4387 -1.9431  2.5953
  150OSM   H15T16652   4.212  -0.612   4.272 -2.5767  0.7446 -0.3164
  150OSM   C16S16653   4.166  -0.422   4.196  0.8289 -0.0177  0.2655
  150OSM   H16S16654   4.059  -0.438   4.171  0.4479  0.6309  1.4514
  150OSM   H16T16655   4.197  -0.343   4.124 -0.2261 -0.0818 -0.2856
  150OSM   C17S16656   4.175  -0.362   4.337  0.1931  0.0962 -0.7064
  150OSM   H17S16657   4.151  -0.253   4.342  1.6422  0.3793  1.8101
  150OSM   H17T16658   4.277  -0.378   4.376 -0.0519 -1.2885 -0.5910
  150OSM   C18S16659   4.082  -0.426   4.443 -0.3264 -0.2877  0.2006
  150OSM   H18S16660   3.987  -0.369   4.438  0.4085  0.8667 -1.5154
  150OSM   H18T16661   4.131  -0.422   4.543 -1.8537  3.9526  0.9610
  150OSM   H18U16662   4.066  -0.532   4.413  0.8741 -0.3668 -0.2234
  150OSM    C1F16663   4.646  -0.352   2.905 -0.1651 -0.6406 -0.3585
  150OSM     OF16664   4.574  -0.251   2.890 -0.3873 -0.5379 -0.0099
  150OSM    C2F16665   4.773  -0.340   2.981 -0.1510  0.3746 -0.7877
  150OSM    H2F16666   4.793  -0.236   3.013  1.6506  0.3897 -1.8841
  150OSM    H2G16667   4.859  -0.374   2.921  0.3633  0.4287 -0.0886
  150OSM    C3F16668   4.772  -0.431   3.115 -0.6375 -1.3783  0.9285
  150OSM    H3F16669   4.879  -0.448   3.140 -0.3716 -0.4950  0.4362
  150OSM    H3G16670   4.720  -0.527   3.095 -1.2767 -1.0178  0.8483
  150OSM    C4F16671   4.704  -0.350   3.223 -0.2867 -0.4276 -0.1224
  150OSM    H4F16672   4.603  -0.312   3.198 -0.3633 -0.8217 -0.4301
  150OSM    H4G16673   4.757  -0.256   3.248 -0.7558 -0.6545  1.9397
  150OSM    C5F16674   4.703  -0.439   3.340  0.2478 -0.7647 -0.7341
  150OSM    H5F16675   4.798  -0.496   3.345  1.5445  1.0671 -2.4996
  150OSM    H5G16676   4.622  -0.511   3.320 -0.3024  0.0705 -1.6494
  150OSM    C6F16677   4.691  -0.360   3.471  0.7165  0.0287  0.4336
  150OSM    H6F16678   4.585  -0.325   3.477  0.3324 -1.0549  0.2610
  150OSM    H6G16679   4.760  -0.273   3.467 -0.8060  1.2474 -2.1134
  150OSM    C7F16680   4.716  -0.446   3.593 -1.1124  0.2867 -0.6037
  150OSM    H7F16681   4.800  -0.514   3.566 -0.7700 -0.2808  1.6420
  150OSM    H7G16682   4.630  -0.516   3.595  0.0048 -1.1761 -1.2634
  150OSM    C8F16683   4.746  -0.367   3.726  0.8624 -0.7675  0.1848
  150OSM    H8F16684   4.657  -0.300   3.726  0.6857 -0.9783 -1.0241
  150OSM    H8G16685   4.844  -0.316   3.711  0.9029 -1.3556 -1.7426
  150OSM    C9F16686   4.760  -0.462   3.839 -0.2140 -0.4606 -0.2547
  150OSM    H9F16687   4.833  -0.540   3.815  0.6467  0.3190 -0.2106
  150OSM   C10F16688   4.704  -0.455   3.960  0.2653 -0.4369 -0.1727
  150OSM   H10F16689   4.715  -0.533   4.037  0.8867  1.4287  1.7024
  150OSM   C11F16690   4.609  -0.346   4.002  0.3437 -0.1544  0.3661
  150OSM   H11F16691   4.502  -0.373   4.012  0.4861  0.0287  2.8598
  150OSM   H11G16692   4.616  -0.258   3.934 -1.9416 -1.7519 -2.1627
  150OSM   C12F16693   4.665  -0.303   4.142 -0.1064  0.3648 -0.0938
  150OSM   H12F16694   4.767  -0.261   4.135 -0.1192  0.1778 -1.6638
  150OSM   H12G16695   4.673  -0.395   4.204  1.1162  0.2775 -0.3706
  150OSM   C13F16696   4.574  -0.196   4.210 -0.5044  0.0092  0.3031
  150OSM   H13F16697   4.489  -0.255   4.250  0.3741 -2.4050 -1.1738
  150OSM   H13G16698   4.541  -0.136   4.122  0.3973  0.7842  0.4804
  150OSM   C14F16699   4.647  -0.108   4.324 -0.2328 -0.1420 -0.3248
  150OSM   H14F16700   4.582  -0.019   4.334 -0.0376 -0.1978  1.7032
  150OSM   H14G16701   4.742  -0.074   4.276 -0.1204  0.1483  0.1023
  150OSM   C15F16702   4.677  -0.169   4.462 -0.5161 -0.1171 -0.2529
  150OSM   H15F16703   4.732  -0.100   4.528  0.3498 -0.5364 -0.5213
  150OSM   H15G16704   4.740  -0.258   4.443 -0.3819  0.0501 -0.5847
  150OSM   C16F16705   4.552  -0.213   4.529  0.0838  0.1036 -0.3271
  150OSM   H16F16706   4.525  -0.307   4.477  0.0417 -0.7325  1.1554
  150OSM   H16G16707   4.479  -0.129   4.535  1.9078  1.6846  2.1148
  150OSM   C17F16708   4.577  -0.263   4.674  0.4153 -0.3068  0.5313
  150OSM   H17F16709   4.603  -0.176   4.737 -2.1371  1.0758 -0.1563
  150OSM   H17G16710   4.651  -0.345   4.665  2.0097  1.0747  0.5574
  150OSM   C18F16711   4.456  -0.331   4.735 -0.9865  0.0431 -0.0333
  150OSM   H18F16712   4.418  -0.412   4.669  1.9901 -0.6835 -1.0274
  150OSM   H18G16713   4.369  -0.264   4.750 -0.9258  0.1251 -0.0430
  150OSM   H18H16714   4.484  -0.361   4.838 -0.0119  0.4019 -0.1838
  151OSM      N16715   4.766   6.196   2.194 -0.1944  0.6242  0.1834
  151OSM    C1516716   4.809   6.284   2.309  0.4359 -0.2829  0.0485
  151OSM   H15A16717   4.910   6.321   2.310  0.5472 -0.5534  1.3385
  151OSM   H15B16718   4.791   6.232   2.403  0.5831 -0.7265 -0.1661
  151OSM   H15C16719   4.742   6.368   2.321  1.4063  0.6000 -0.6257
  151OSM    C1416720   4.771   6.281   2.073 -0.4456  0.3291 -0.0658
  151OSM   H14A16721   4.869   6.321   2.049 -1.0198  1.4290 -0.6953
  151OSM   H14B16722   4.706   6.367   2.076 -0.2172  0.4696  1.1460
  151OSM   H14C16723   4.742   6.223   1.986  0.2355  1.4012 -1.0420
  151OSM    C1316724   4.852   6.074   2.179 -0.1284 -0.0647 -0.1243
  151OSM   H13A16725   4.838   5.997   2.253  1.3872 -2.0602 -1.8044
  151OSM   H13B16726   4.955   6.104   2.170 -0.2739 -0.0503 -2.6570
  151OSM   H13C16727   4.839   6.030   2.081 -0.4140 -1.1520  0.3859
  151OSM    C1216728   4.622   6.154   2.223 -0.0786 -0.3952  0.3965
  151OSM   H12A16729   4.587   6.095   2.140  3.5775 -1.0258 -0.8691
  151OSM   H12B16730   4.572   6.249   2.215  0.3742 -0.2928 -1.4905
  151OSM    C1116731   4.588   6.088   2.360  0.0292  0.9765 -0.3016
  151OSM   H11A16732   4.477   6.083   2.361  0.0139 -1.8956 -2.9194
  151OSM   H11B16733   4.624   6.151   2.445  0.1286 -0.6624  0.9159
  151OSM      P16734   4.575   5.833   2.279  0.1694 -0.0520  0.3349
  151OSM    O1316735   4.510   5.896   2.160 -0.9548  0.2341 -0.4593
  151OSM    O1416736   4.681   5.733   2.241  0.5039  0.1691  0.6115
  151OSM    O1116737   4.470   5.764   2.374  0.1614  0.4274  0.3422
  151OSM    O1216738   4.638   5.954   2.369 -0.0987  0.1777 -0.7823
  151OSM    C1S16739   4.506   5.705   2.503 -0.1658  0.2104 -0.6982
  151OSM    H1S16740   4.607   5.737   2.534  0.5186 -0.7824 -1.8233
  151OSM    H1T16741   4.498   5.595   2.506 -2.4375  0.3209 -0.8199
  151OSM     NF16742   4.483   5.703   2.743  0.2338  0.4072 -0.1478
  151OSM    HNF16743   4.452   5.611   2.767 -0.8966 -0.2250 -3.5192
  151OSM    C2S16744   4.426   5.755   2.623  0.0711 -0.5274 -0.0933
  151OSM    H2S16745   4.438   5.865   2.633  0.4537 -0.6237  0.5506
  151OSM    C3S16746   4.276   5.717   2.594  0.3892 -0.7584 -0.5906
  151OSM    H3S16747   4.284   5.609   2.571  0.6454 -1.7938  3.4662
  151OSM     O316748   4.210   5.788   2.494  0.4744 -0.6001  0.5576
  151OSM    HO316749   4.286   5.830   2.452  1.7371 -1.8552  1.4624
  151OSM    C4S16750   4.205   5.742   2.722 -0.3601 -0.3071 -0.1025
  151OSM    H4S16751   4.237   5.844   2.748  1.8326 -1.0167  0.2196
  151OSM    C5S16752   4.137   5.661   2.808 -0.3646 -0.4659 -0.1456
  151OSM    H5S16753   4.119   5.559   2.771 -1.1339 -0.2641 -0.3521
  151OSM    C6S16754   4.106   5.697   2.950  0.1024  0.4433  0.0926
  151OSM    H6S16755   4.096   5.806   2.970 -0.9304  0.3522  0.1086
  151OSM    H6T16756   4.187   5.664   3.019 -0.7724  0.4984  1.1848
  151OSM    C7S16757   3.981   5.633   3.007  0.8838  0.0084  0.4512
  151OSM    H7S16758   3.981   5.522   3.013 -3.8143 -0.4541 -2.7069
  151OSM    H7T16759   3.901   5.659   2.935  1.2276  0.7974  0.3437
  151OSM    C8S16760   3.949   5.702   3.139 -1.0783 -0.3588  0.3846
  151OSM    H8S16761   3.867   5.640   3.180 -2.0849  0.3127 -0.5859
  151OSM    H8T16762   3.907   5.801   3.113 -2.4808 -0.7637  1.0153
  151OSM    C9S16763   4.051   5.697   3.252 -0.4100 -0.3560 -0.2600
  151OSM    H9S16764   4.144   5.731   3.202 -1.1255 -1.3523 -2.3811
  151OSM    H9T16765   4.068   5.592   3.286  0.7269  0.2314  1.0871
  151OSM   C10S16766   4.019   5.780   3.386 -0.5330  0.6056 -0.1022
  151OSM   H10S16767   3.909   5.781   3.370 -0.2592 -1.2179 -2.5855
  151OSM   H10T16768   4.064   5.882   3.389 -0.8078  0.7130  1.0929
  151OSM   C11S16769   4.061   5.711   3.516 -0.6963 -0.3074  0.4305
  151OSM   H11S16770   4.016   5.610   3.522  2.4055 -2.0713 -2.3226
  151OSM   H11T16771   4.032   5.781   3.597 -0.0871 -0.5983  0.9101
  151OSM   C12S16772   4.217   5.687   3.530 -0.1581 -0.6979 -0.6539
  151OSM   H12S16773   4.267   5.785   3.518 -1.2605 -0.0404 -0.0690
  151OSM   H12T16774   4.240   5.612   3.452 -1.2649 -1.3787 -0.3503
  151OSM   C13S16775   4.251   5.636   3.672 -0.2372 -0.0512 -0.3825
  151OSM   H13S16776   4.357   5.602   3.675 -0.0390  0.6083  2.0078
  151OSM   H13T16777   4.195   5.543   3.698  3.3781 -1.7179  2.3900
  151OSM   C14S16778   4.234   5.734   3.792  0.1226 -0.2130 -0.1005
  151OSM   H14S16779   4.139   5.786   3.769  0.1996 -0.5454 -1.1912
  151OSM   H14T16780   4.309   5.816   3.785 -2.5694  2.2618 -2.3005
  151OSM   C15S16781   4.229   5.680   3.936 -0.5209 -0.0062 -0.0830
  151OSM   H15S16782   4.246   5.571   3.934  0.0213  0.0348  1.4584
  151OSM   H15T16783   4.132   5.705   3.983 -0.3223 -0.5195  0.6053
  151OSM   C16S16784   4.335   5.744   4.032 -0.5913  0.3467  0.1275
  151OSM   H16S16785   4.331   5.855   4.024  1.7656  0.6913  2.3619
  151OSM   H16T16786   4.437   5.715   4.001 -0.4534  0.4782  0.4442
  151OSM   C17S16787   4.316   5.693   4.179 -0.7398  0.4528  0.2856
  151OSM   H17S16788   4.398   5.734   4.242  0.0010  2.8117 -2.0134
  151OSM   H17T16789   4.317   5.582   4.174 -4.2099  0.3525 -0.1179
  151OSM   C18S16790   4.179   5.723   4.241 -0.7058 -0.0373 -0.0426
  151OSM   H18S16791   4.100   5.661   4.194 -1.4136  0.1423  0.8934
  151OSM   H18T16792   4.155   5.831   4.228 -1.9252 -0.2901  0.0064
  151OSM   H18U16793   4.168   5.687   4.345 -2.3307  0.0220 -0.1728
  151OSM    C1F16794   4.584   5.755   2.815 -0.0384 -0.1506  0.6074
  151OSM     OF16795   4.657   5.843   2.765  0.1100 -0.0256 -0.0924
  151OSM    C2F16796   4.571   5.730   2.961  0.7557  0.8412  0.1957
  151OSM    H2F16797   4.574   5.620   2.977 -1.6487  0.8949  1.5588
  151OSM    H2G16798   4.468   5.757   2.994  0.2243 -0.5478 -0.2364
  151OSM    C3F16799   4.675   5.800   3.045  0.0231 -0.4043 -0.0932
  151OSM    H3F16800   4.677   5.906   3.012 -1.1986 -0.0334  0.9302
  151OSM    H3G16801   4.777   5.766   3.017 -0.5753 -0.4860 -2.3924
  151OSM    C4F16802   4.654   5.769   3.193  0.4953  0.0045 -0.4838
  151OSM    H4F16803   4.689   5.664   3.207  2.8620  0.8156  0.1028
  151OSM    H4G16804   4.550   5.787   3.228  0.5900 -0.0430 -0.1739
  151OSM    C5F16805   4.743   5.857   3.288  0.1591  0.0439  0.1047
  151OSM    H5F16806   4.704   5.961   3.296  1.9812  0.8608 -1.0607
  151OSM    H5G16807   4.844   5.858   3.243 -0.5673 -1.3965 -1.6766
  151OSM    C6F16808   4.746   5.798   3.429 -0.0670 -0.2653 -0.1836
  151OSM    H6F16809   4.794   5.699   3.437 -0.0710 -0.1823  1.0692
  151OSM    H6G16810   4.639   5.786   3.457  0.0193 -0.0275  0.2806
  151OSM    C7F16811   4.823   5.885   3.540 -0.0115  0.1663 -0.2942
  151OSM    H7F16812   4.768   5.982   3.548  0.8427  0.9255 -2.7276
  151OSM    H7G16813   4.922   5.898   3.491  0.3731 -0.9352  0.1674
  151OSM    C8F16814   4.825   5.830   3.680 -0.1315 -0.5201  0.1283
  151OSM    H8F16815   4.890   5.901   3.735 -0.1019 -1.3678  1.2168
  151OSM    H8G16816   4.883   5.737   3.668  2.3187  0.5299  2.6485
  151OSM    C9F16817   4.689   5.802   3.738  0.1703  0.0632 -0.3254
  151OSM    H9F16818   4.615   5.753   3.673  0.4536  2.0966 -2.3144
  151OSM   C10F16819   4.654   5.847   3.860 -0.5601  0.0201  0.2378
  151OSM   H10F16820   4.549   5.844   3.891 -0.4867  1.3856  0.7230
  151OSM   C11F16821   4.748   5.903   3.955 -0.4354 -0.4625  0.1457
  151OSM   H11F16822   4.760   6.009   3.925  2.3615 -0.2498  1.6933
  151OSM   H11G16823   4.844   5.847   3.954 -1.3007 -2.0098  0.5895
  151OSM   C12F16824   4.702   5.910   4.102 -0.3443  0.5645 -0.3117
  151OSM   H12F16825   4.593   5.930   4.104 -0.3809  0.4782 -0.9947
  151OSM   H12G16826   4.757   5.986   4.161  0.4136  0.1457 -0.4568
  151OSM   C13F16827   4.723   5.776   4.180 -0.2447  0.7335 -0.2716
  151OSM   H13F16828   4.832   5.753   4.182 -0.2452  0.7605  0.1279
  151OSM   H13G16829   4.666   5.702   4.120 -0.3523  1.2424 -0.7995
  151OSM   C14F16830   4.677   5.781   4.325 -0.1196  0.1417  0.1646
  151OSM   H14F16831   4.577   5.829   4.323 -1.0540 -1.7119  0.1343
  151OSM   H14G16832   4.741   5.850   4.385  1.8453 -1.6604  0.2616
  151OSM   C15F16833   4.663   5.646   4.399 -0.7811 -0.2550 -0.1350
  151OSM   H15F16834   4.760   5.591   4.391  0.1800  1.2345  0.8196
  151OSM   H15G16835   4.577   5.589   4.359  0.6413 -2.7392  0.1130
  151OSM   C16F16836   4.630   5.655   4.549 -0.7098 -0.4979 -0.0564
  151OSM   H16F16837   4.535   5.711   4.564  0.1232  1.2015 -0.9326
  151OSM   H16G16838   4.705   5.714   4.606 -2.4054  0.8866  0.8339
  151OSM   C17F16839   4.609   5.526   4.625 -1.0900 -0.3134 -0.3181
  151OSM   H17F16840   4.592   5.551   4.732  3.6423 -1.0463  0.8607
  151OSM   H17G16841   4.703   5.466   4.627 -0.0300  1.1390  3.8125
  151OSM   C18F16842   4.499   5.434   4.571 -0.5986 -0.2904  0.1721
  151OSM   H18F16843   4.454   5.367   4.649 -0.9556 -0.8508 -0.5022
  151OSM   H18G16844   4.555   5.364   4.505  0.1658 -2.3550  2.8220
  151OSM   H18H16845   4.426   5.497   4.516 -0.6688  1.0959  1.7804
  152OSM      N16846   6.156   5.836   2.256 -0.1147 -0.3768  0.2756
  152OSM    C1516847   6.023   5.827   2.186 -0.1015 -0.7757  0.2580
  152OSM   H15A16848   5.957   5.752   2.227 -0.3125 -0.7714 -0.0700
  152OSM   H15B16849   6.030   5.828   2.079 -2.4411  0.3838  0.0474
  152OSM   H15C16850   5.967   5.918   2.203  1.5833  0.2674  0.4718
  152OSM    C1416851   6.234   5.717   2.224 -0.2019  0.0076  0.3595
  152OSM   H14A16852   6.204   5.633   2.285 -2.3468  1.2744  1.1443
  152OSM   H14B16853   6.340   5.727   2.240 -0.1972  0.7730 -0.0839
  152OSM   H14C16854   6.229   5.698   2.117 -1.9603  4.0090 -0.4766
  152OSM    C1316855   6.224   5.961   2.200  0.1077  0.8611  0.4443
  152OSM   H13A16856   6.233   5.961   2.092  3.4854 -2.4815  0.4857
  152OSM   H13B16857   6.331   5.963   2.220  0.3634 -2.1589 -0.1541
  152OSM   H13C16858   6.188   6.055   2.239  2.5200  1.9883  0.1862
  152OSM    C1216859   6.145   5.851   2.405  0.1885  0.1841 -0.9130
  152OSM   H12A16860   6.242   5.851   2.452 -0.9514  0.6245  1.6366
  152OSM   H12B16861   6.084   5.769   2.438 -3.6949  2.7445 -1.0119
  152OSM    C1116862   6.082   5.976   2.477 -0.5537  0.2471 -0.9110
  152OSM   H11A16863   6.151   6.060   2.460  0.4125 -0.5446 -0.9794
  152OSM   H11B16864   6.075   5.956   2.586 -1.5500 -0.9938 -1.1677
  152OSM      P16865   5.901   6.161   2.403 -0.3032 -0.1497  0.0868
  152OSM    O1316866   6.021   6.248   2.368  0.2327  0.2403  0.4940
  152OSM    O1416867   5.786   6.163   2.315 -0.0369 -0.1749  0.0462
  152OSM    O1116868   5.854   6.207   2.546  0.2888 -0.4226 -0.2085
  152OSM    O1216869   5.950   6.012   2.431 -0.1811  0.1060  0.6106
  152OSM    C1S16870   5.736   6.143   2.599 -0.1911 -0.1681 -0.1649
  152OSM    H1S16871   5.728   6.041   2.557  0.5768 -0.3173  0.0463
  152OSM    H1T16872   5.648   6.201   2.564  0.0396 -0.0886 -0.6130
  152OSM     NF16873   5.617   6.051   2.790 -0.1915  0.6263 -0.3230
  152OSM    HNF16874   5.535   6.103   2.815 -0.6105 -0.1779  0.0195
  152OSM    C2S16875   5.739   6.128   2.754 -0.4262  0.3749 -0.0243
  152OSM    H2S16876   5.835   6.086   2.792 -2.2403 -0.7220  3.8789
  152OSM    C3S16877   5.733   6.275   2.806  1.1785 -0.3734 -0.2355
  152OSM    H3S16878   5.658   6.315   2.734 -1.7862 -2.9727  1.1712
  152OSM     O316879   5.856   6.340   2.799 -0.2311 -0.2526 -0.1932
  152OSM    HO316880   5.903   6.292   2.731 -0.4104  1.5497 -1.6818
  152OSM    C4S16881   5.689   6.276   2.944 -0.3182  0.4386  0.6460
  152OSM    H4S16882   5.778   6.247   3.003 -0.7636 -3.6058 -0.3690
  152OSM    C5S16883   5.577   6.329   2.992  0.4881  1.0616  0.9032
  152OSM    H5S16884   5.511   6.374   2.917  0.0148  0.1565  0.7597
  152OSM    C6S16885   5.551   6.380   3.128 -0.3986  0.3409 -0.7611
  152OSM    H6S16886   5.445   6.368   3.160 -0.5914  1.7248 -0.8176
  152OSM    H6T16887   5.565   6.490   3.132 -1.1112  0.4231  1.9321
  152OSM    C7S16888   5.632   6.307   3.242  0.5863 -0.8158 -0.7224
  152OSM    H7S16889   5.740   6.312   3.216  0.5416 -2.7481 -1.4607
  152OSM    H7T16890   5.599   6.202   3.226  2.5948 -1.4708 -0.8046
  152OSM    C8S16891   5.603   6.372   3.377 -0.1593 -0.5536 -0.6219
  152OSM    H8S16892   5.651   6.472   3.379 -0.5354 -0.3810 -0.1735
  152OSM    H8T16893   5.661   6.299   3.438  0.3204  1.3405  1.2763
  152OSM    C9S16894   5.459   6.369   3.422 -0.2702 -0.3410 -0.4347
  152OSM    H9S16895   5.404   6.278   3.388 -1.4824  0.2358 -0.1026
  152OSM    H9T16896   5.408   6.456   3.375 -0.7529 -0.3383  0.0735
  152OSM   C10S16897   5.428   6.399   3.574 -0.0606  1.2066 -0.3565
  152OSM   H10S16898   5.458   6.309   3.631 -0.7954  1.8050  1.0232
  152OSM   H10T16899   5.323   6.404   3.612 -0.4684 -0.8775 -1.0912
  152OSM   C11S16900   5.499   6.519   3.635 -0.4895 -0.0492 -0.8258
  152OSM   H11S16901   5.452   6.603   3.580 -0.7624 -0.8993 -1.9198
  152OSM   H11T16902   5.606   6.518   3.604  0.0456 -1.3405  0.8836
  152OSM   C12S16903   5.483   6.510   3.791 -0.5305  0.0737 -0.0105
  152OSM   H12S16904   5.380   6.481   3.821 -1.3169  2.5087 -0.1869
  152OSM   H12T16905   5.497   6.609   3.838 -2.6935  0.5070 -0.1772
  152OSM   C13S16906   5.588   6.421   3.854  0.0600 -0.6642  0.0733
  152OSM   H13S16907   5.682   6.471   3.819 -0.8508 -0.4612 -2.3116
  152OSM   H13T16908   5.584   6.320   3.807 -2.0608 -1.9890  2.8708
  152OSM   C14S16909   5.573   6.370   3.996 -0.3771 -0.2482 -0.1935
  152OSM   H14S16910   5.635   6.280   4.012 -2.3244 -1.7967 -0.9204
  152OSM   H14T16911   5.469   6.343   4.025 -0.4613  2.4441  2.5585
  152OSM   C15S16912   5.622   6.484   4.090 -0.2290  0.7155  0.1600
  152OSM   H15S16913   5.564   6.576   4.067 -2.4510 -0.9486 -1.3426
  152OSM   H15T16914   5.727   6.521   4.077 -0.2969  0.8837  0.0777
  152OSM   C16S16915   5.615   6.454   4.239 -0.6657 -0.4482 -0.4743
  152OSM   H16S16916   5.513   6.421   4.270  0.1451  0.6800  4.1855
  152OSM   H16T16917   5.625   6.552   4.290  0.9031 -0.9269  0.1965
  152OSM   C17S16918   5.726   6.360   4.289 -0.6751 -0.5711  0.0474
  152OSM   H17S16919   5.793   6.333   4.206  0.8820  0.5141  0.8960
  152OSM   H17T16920   5.689   6.265   4.332  0.1708 -0.8129  0.2631
  152OSM   C18S16921   5.815   6.426   4.397  0.2134  0.5387  0.1967
  152OSM   H18S16922   5.761   6.433   4.494 -0.4713 -0.2421 -0.1112
  152OSM   H18T16923   5.868   6.519   4.366  2.6011 -0.7854  0.0413
  152OSM   H18U16924   5.903   6.360   4.412 -0.1928 -0.7933 -2.5262
  152OSM    C1F16925   5.606   5.918   2.767 -0.0007  0.0695  0.3493
  152OSM     OF16926   5.700   5.853   2.718 -0.1485 -0.2594 -0.2104
  152OSM    C2F16927   5.473   5.853   2.796  0.6620  0.8855 -0.3239
  152OSM    H2F16928   5.397   5.888   2.724 -0.4629  0.7753  0.7816
  152OSM    H2G16929   5.429   5.888   2.892 -0.9176  0.2910 -0.8103
  152OSM    C3F16930   5.467   5.692   2.790 -0.0547 -0.7503  0.5753
  152OSM    H3F16931   5.507   5.662   2.690 -0.0156  2.9695 -0.6733
  152OSM    H3G16932   5.359   5.665   2.779 -0.3954 -0.1949  2.2944
  152OSM    C4F16933   5.526   5.615   2.902 -0.2513 -0.2434 -0.2573
  152OSM    H4F16934   5.635   5.628   2.886 -0.4280  0.4707 -0.9519
  152OSM    H4G16935   5.498   5.509   2.886  0.7303 -0.3810 -1.2449
  152OSM    C5F16936   5.501   5.658   3.046 -0.1843 -0.5430  0.2177
  152OSM    H5F16937   5.390   5.658   3.054 -0.2874 -2.2955 -0.6484
  152OSM    H5G16938   5.542   5.754   3.083  1.8861 -1.4025  0.2626
  152OSM    C6F16939   5.547   5.558   3.147 -0.8184 -0.0574 -0.8268
  152OSM    H6F16940   5.656   5.564   3.167 -0.5900 -0.9114 -1.6928
  152OSM    H6G16941   5.519   5.456   3.114  0.0224 -0.2823 -0.8716
  152OSM    C7F16942   5.479   5.584   3.282 -0.2375  0.2314  0.3803
  152OSM    H7F16943   5.368   5.582   3.271 -0.1868  0.0047 -0.1367
  152OSM    H7G16944   5.507   5.686   3.316 -1.2932  0.0255  1.9773
  152OSM    C8F16945   5.527   5.485   3.387  0.5920 -0.2784  0.4891
  152OSM    H8F16946   5.514   5.382   3.347  0.5651 -0.7519  1.6719
  152OSM    H8G16947   5.455   5.491   3.472 -1.5895 -3.4086 -0.9609
  152OSM    C9F16948   5.671   5.500   3.433  0.3139 -0.5504 -0.9272
  152OSM    H9F16949   5.758   5.488   3.367  1.1940 -0.6771  0.2229
  152OSM   C10F16950   5.703   5.528   3.562 -0.4791  0.7334 -0.0252
  152OSM   H10F16951   5.807   5.552   3.590 -0.4314  1.0347 -0.4506
  152OSM   C11F16952   5.612   5.525   3.683 -0.5929  0.2714  0.0122
  152OSM   H11F16953   5.519   5.465   3.675 -0.7757  0.3096  1.5807
  152OSM   H11G16954   5.604   5.624   3.732 -0.1586 -1.1132  3.0690
  152OSM   C12F16955   5.689   5.443   3.781  0.7392 -0.2689  0.3692
  152OSM   H12F16956   5.792   5.478   3.807  0.1651  1.8940 -0.0973
  152OSM   H12G16957   5.697   5.348   3.725 -0.0321  1.0024 -2.0652
  152OSM   C13F16958   5.622   5.425   3.916 -0.4575  0.7339  0.5042
  152OSM   H13F16959   5.679   5.353   3.979 -1.8041 -1.1405 -0.3212
  152OSM   H13G16960   5.520   5.381   3.912 -1.0593  2.0617  0.7820
  152OSM   C14F16961   5.613   5.553   4.004  0.0298  0.2183  0.4359
  152OSM   H14F16962   5.566   5.527   4.101  1.0928 -1.2263  0.5858
  152OSM   H14G16963   5.549   5.631   3.957 -0.1934 -0.1534  0.1214
  152OSM   C15F16964   5.737   5.629   4.042  0.2641  0.1999 -0.0222
  152OSM   H15F16965   5.716   5.734   4.071 -1.9079 -0.7559  2.2309
  152OSM   H15G16966   5.810   5.621   3.959  1.5536 -0.5694  1.1424
  152OSM   C16F16967   5.808   5.567   4.163  0.5416  0.7324 -0.9486
  152OSM   H16F16968   5.841   5.465   4.134 -1.6413 -0.4955  0.5634
  152OSM   H16G16969   5.745   5.546   4.253  1.1032  2.1676 -0.1821
  152OSM   C17F16970   5.934   5.636   4.202  0.7464  0.2196  0.3386
  152OSM   H17F16971   5.907   5.743   4.217  0.2056 -0.1084  1.8401
  152OSM   H17G16972   6.009   5.621   4.120 -0.3907  2.8331 -1.3161
  152OSM   C18F16973   5.993   5.585   4.334  0.1215  0.4649 -0.3846
  152OSM   H18F16974   6.030   5.482   4.310  0.2701  0.5893 -0.7029
  152OSM   H18G16975   5.925   5.592   4.421 -0.3980 -2.2673 -0.4778
  152OSM   H18H16976   6.080   5.647   4.362  0.3319 -0.3028  0.6995
  153OSM      N16977   5.784   6.561   2.446 -0.4363  0.2237  0.4294
  153OSM    C1516978   5.676   6.479   2.388 -0.1084 -0.3715  0.3177
  153OSM   H15A16979   5.705   6.380   2.357  1.5300  0.3590 -0.6028
  153OSM   H15B16980   5.646   6.525   2.296  1.3294  0.2606  0.1425
  153OSM   H15C16981   5.594   6.463   2.457  0.2469  0.0108  0.8397
  153OSM    C1416982   5.819   6.530   2.588 -0.6844 -0.0932 -0.8327
  153OSM   H14A16983   5.856   6.429   2.596 -0.6354  0.0536  1.1872
  153OSM   H14B16984   5.737   6.540   2.658 -0.2287 -0.9621 -0.1633
  153OSM   H14C16985   5.886   6.608   2.619 -0.5797  0.0356 -1.3724
  153OSM    C1316986   5.919   6.529   2.365  0.9873  0.1250  0.2084
  153OSM   H13A16987   5.901   6.516   2.259 -0.4341 -2.0963  0.6517
  153OSM   H13B16988   5.959   6.440   2.413  1.5586  1.0888  1.5712
  153OSM   H13C16989   5.993   6.601   2.396 -0.0608  1.5849 -0.5949
  153OSM    C1216990   5.764   6.709   2.429 -0.0666  0.1145  0.7657
  153OSM   H12A16991   5.761   6.740   2.326  3.2886 -0.3290  0.4179
  153OSM   H12B16992   5.850   6.768   2.457  0.6597  0.2731 -1.5698
  153OSM    C1116993   5.635   6.771   2.485  0.1494 -0.1728  0.5861
  153OSM   H11A16994   5.638   6.875   2.446  0.1256 -1.4212 -3.1033
  153OSM   H11B16995   5.649   6.770   2.596 -1.0306 -1.5061  0.7509
  153OSM      P16996   5.417   6.734   2.342 -0.3856  0.3681 -0.0595
  153OSM    O1316997   5.478   6.840   2.258  0.3781 -0.0194 -1.0005
  153OSM    O1416998   5.397   6.609   2.273 -0.4461  0.1438 -0.1648
  153OSM    O1116999   5.284   6.781   2.401  0.5039 -0.1580  0.0813
  153OSM    O1217000   5.514   6.702   2.463 -0.3498 -0.0653 -0.2160
  153OSM    C1S17001   5.222   6.744   2.523  0.0641  0.5782 -0.1883
  153OSM    H1S17002   5.253   6.640   2.543  1.3914  0.9723 -0.0846
  153OSM    H1T17003   5.112   6.737   2.515 -0.0868  1.1328  1.1413
  153OSM     NF17004   5.183   6.801   2.756 -0.0997 -0.2542  0.4106
  153OSM    HNF17005   5.109   6.866   2.773 -0.9475 -1.2070  0.5335
  153OSM    C2S17006   5.263   6.842   2.644 -0.4047  1.3956  1.0366
  153OSM    H2S17007   5.370   6.823   2.668 -0.3009  0.5352 -0.0359
  153OSM    C3S17008   5.256   6.995   2.607 -0.0730 -0.0761  0.2818
  153OSM    H3S17009   5.155   7.012   2.565  0.1280  1.5526  0.3890
  153OSM     O317010   5.344   7.039   2.508 -0.7219  0.1690  0.0891
  153OSM    HO317011   5.330   6.983   2.431 -0.3478 -1.7047  1.3119
  153OSM    C4S17012   5.286   7.081   2.725 -0.1426  0.2074 -0.3429
  153OSM    H4S17013   5.205   7.154   2.740  0.1804  0.2343  1.3984
  153OSM    C5S17014   5.392   7.098   2.813  0.1916  0.0114  0.2011
  153OSM    H5S17015   5.488   7.046   2.798 -0.3408 -0.5840 -1.2871
  153OSM    C6S17016   5.387   7.196   2.926  1.4668  0.2903  0.0899
  153OSM    H6S17017   5.307   7.273   2.914  0.7061 -0.5294 -0.2309
  153OSM    H6T17018   5.483   7.251   2.928  0.7025  1.7125 -0.6121
  153OSM    C7S17019   5.374   7.129   3.065 -0.2031 -1.2707 -0.3187
  153OSM    H7S17020   5.459   7.063   3.091  0.6225  0.0592  0.5232
  153OSM    H7T17021   5.285   7.063   3.070 -0.9767 -0.2779 -0.6337
  153OSM    C8S17022   5.394   7.244   3.176  0.1488 -0.5746 -0.1983
  153OSM    H8S17023   5.310   7.314   3.157 -0.3094 -1.2055 -0.5087
  153OSM    H8T17024   5.484   7.307   3.157  0.2988 -0.6025  0.3963
  153OSM    C9S17025   5.405   7.187   3.320  0.7567  0.1274 -0.1383
  153OSM    H9S17026   5.441   7.269   3.386 -0.2147  1.0967 -0.7630
  153OSM    H9T17027   5.484   7.109   3.318 -1.0754 -1.8377 -0.3554
  153OSM   C10S17028   5.274   7.133   3.377 -0.0918 -0.7121 -0.5468
  153OSM   H10S17029   5.231   7.063   3.303 -4.7315  0.6237  0.5997
  153OSM   H10T17030   5.203   7.217   3.383 -0.3854 -1.0296  0.6920
  153OSM   C11S17031   5.295   7.068   3.516 -0.2610 -0.5042 -0.6528
  153OSM   H11S17032   5.369   6.987   3.496 -0.3934 -0.6773 -0.4400
  153OSM   H11T17033   5.200   7.021   3.550 -0.8452  1.6085  0.7817
  153OSM   C12S17034   5.355   7.160   3.621 -0.0686 -0.5092  0.1626
  153OSM   H12S17035   5.295   7.253   3.621  0.1103 -0.3753 -1.3523
  153OSM   H12T17036   5.460   7.187   3.598 -0.6662  1.6624 -0.1834
  153OSM   C13S17037   5.357   7.089   3.758 -0.3853 -0.1364  0.2820
  153OSM   H13S17038   5.415   6.995   3.745  1.7814  1.4321 -2.3970
  153OSM   H13T17039   5.253   7.068   3.790 -0.6985 -0.4046 -0.8655
  153OSM   C14S17040   5.429   7.176   3.859  0.4494  0.0208 -1.1149
  153OSM   H14S17041   5.389   7.280   3.854  0.1439 -0.1073 -1.3880
  153OSM   H14T17042   5.539   7.172   3.842  0.8346 -1.4541  1.2859
  153OSM   C15S17043   5.411   7.135   4.008  0.6223  0.4303 -0.0285
  153OSM   H15S17044   5.460   7.037   4.028  0.3113  0.6857  2.1309
  153OSM   H15T17045   5.304   7.145   4.035  0.4329 -2.6484  0.7645
  153OSM   C16S17046   5.500   7.225   4.102  0.9360  0.5159 -0.3874
  153OSM   H16S17047   5.485   7.333   4.084 -0.3637  0.2315 -1.1178
  153OSM   H16T17048   5.608   7.202   4.092  0.9822  0.7822 -0.5092
  153OSM   C17S17049   5.459   7.190   4.242  0.6826 -0.4596 -0.3833
  153OSM   H17S17050   5.472   7.080   4.257 -1.7041 -1.0195 -1.7731
  153OSM   H17T17051   5.354   7.221   4.258  1.1673  0.1628  1.8079
  153OSM   C18S17052   5.548   7.262   4.340  0.0802 -0.0788 -1.0476
  153OSM   H18S17053   5.654   7.232   4.327  0.4985  0.3749  0.9464
  153OSM   H18T17054   5.534   7.230   4.446  0.8092 -0.4143 -1.0436
  153OSM   H18U17055   5.538   7.372   4.347 -0.9092 -0.2312  0.9176
  153OSM    C1F17056   5.176   6.681   2.802 -0.5070 -0.1819 -1.0734
  153OSM     OF17057   5.238   6.589   2.754 -0.3350  0.2126  0.0565
  153OSM    C2F17058   5.080   6.661   2.917 -0.5519  0.1338 -0.1784
  153OSM    H2F17059   4.989   6.619   2.868 -0.5859 -1.4464  1.1707
  153OSM    H2G17060   5.058   6.763   2.955  0.1860  0.2252  0.0161
  153OSM    C3F17061   5.140   6.558   3.022 -0.1798  0.1756  0.4484
  153OSM    H3F17062   5.199   6.478   2.974  0.3572  1.7728 -1.6941
  153OSM    H3G17063   5.055   6.504   3.070 -1.4230  2.1455  0.6196
  153OSM    C4F17064   5.231   6.618   3.130 -0.6471 -0.3544 -0.3505
  153OSM    H4F17065   5.282   6.705   3.085 -0.9638 -0.3279 -0.6628
  153OSM    H4G17066   5.308   6.544   3.162  1.2502  1.0553 -1.5023
  153OSM    C5F17067   5.147   6.687   3.248  0.4932 -0.4714 -0.5002
  153OSM    H5F17068   5.040   6.691   3.220  0.5314 -0.6478 -0.6725
  153OSM    H5G17069   5.175   6.794   3.242 -2.6889  0.5024  0.2337
  153OSM    C6F17070   5.186   6.630   3.377  0.8495 -0.2999 -0.3882
  153OSM    H6F17071   5.286   6.668   3.409  0.4175  1.4057 -0.9661
  153OSM    H6G17072   5.191   6.519   3.366  0.5202 -0.4052  0.4691
  153OSM    C7F17073   5.083   6.678   3.485  0.1442  0.7923 -0.8187
  153OSM    H7F17074   4.988   6.632   3.450 -0.6487  1.8967 -0.1616
  153OSM    H7G17075   5.074   6.789   3.476 -2.7000  0.6142 -1.1215
  153OSM    C8F17076   5.119   6.638   3.635 -0.2372  0.3575 -0.2969
  153OSM    H8F17077   5.228   6.644   3.657 -0.4532 -0.9151  1.3205
  153OSM    H8G17078   5.104   6.528   3.644  1.0546  0.2717  1.1538
  153OSM    C9F17079   5.037   6.698   3.753  0.2685 -0.1443  0.5495
  153OSM    H9F17080   4.929   6.682   3.740  0.3403 -1.3326  1.2746
  153OSM   C10F17081   5.086   6.758   3.863 -0.1816  0.1753 -0.1979
  153OSM   H10F17082   5.016   6.795   3.939 -0.9330 -0.4838 -0.5620
  153OSM   C11F17083   5.236   6.784   3.887  0.3014 -0.7802  0.2254
  153OSM   H11F17084   5.245   6.890   3.919  0.6658 -0.9405  0.6677
  153OSM   H11G17085   5.304   6.761   3.802 -1.7338 -0.8043 -1.5049
  153OSM   C12F17086   5.276   6.705   4.007 -0.6433  0.4057  0.3032
  153OSM   H12F17087   5.386   6.715   4.016 -0.5027  0.9487 -1.6135
  153OSM   H12G17088   5.259   6.595   3.999 -0.7436  0.4832 -0.6426
  153OSM   C13F17089   5.230   6.761   4.137  0.3014 -0.2840  0.2968
  153OSM   H13F17090   5.127   6.800   4.123  1.0992  1.8169 -0.1504
  153OSM   H13G17091   5.296   6.850   4.143 -1.4187  1.1094 -0.5907
  153OSM   C14F17092   5.232   6.675   4.264 -0.2266 -0.7132  0.0673
  153OSM   H14F17093   5.208   6.735   4.354  0.8006 -0.7504  0.3843
  153OSM   H14G17094   5.335   6.635   4.276  0.0603  0.2977  1.2206
  153OSM   C15F17095   5.137   6.559   4.247  0.0107 -0.6330 -0.4193
  153OSM   H15F17096   5.184   6.480   4.184  0.5585 -0.4468 -0.2529
  153OSM   H15G17097   5.037   6.585   4.206 -2.6945 -2.5912  4.1003
  153OSM   C16F17098   5.123   6.470   4.383 -0.2922 -0.4101  0.6106
  153OSM   H16F17099   5.079   6.541   4.456 -0.6613  0.2344 -0.2254
  153OSM   H16G17100   5.230   6.447   4.401 -0.0327 -0.7470 -1.1234
  153OSM   C17F17101   5.043   6.343   4.354 -0.3946  0.3550 -0.3925
  153OSM   H17F17102   4.948   6.362   4.300 -2.2689  1.4156  2.9804
  153OSM   H17G17103   5.010   6.304   4.453  0.2276 -0.8884 -0.6519
  153OSM   C18F17104   5.123   6.227   4.284 -0.2477 -0.1867  0.6617
  153OSM   H18F17105   5.066   6.137   4.316  0.9559 -0.5125  1.9868
  153OSM   H18G17106   5.231   6.213   4.306 -0.0535 -3.1530 -1.6222
  153OSM   H18H17107   5.106   6.234   4.175 -0.4671 -1.8270  0.5746
  154OSM      N17108   2.177   6.515   2.130 -0.7318 -0.5568 -0.0136
  154OSM    C1517109   2.057   6.599   2.114  0.0655  0.3499 -0.1389
  154OSM   H15A17110   1.973   6.538   2.144  1.7828 -2.2885 -0.3083
  154OSM   H15B17111   2.045   6.637   2.014  0.0651  1.8452  0.4161
  154OSM   H15C17112   2.061   6.689   2.172  0.8268 -0.7522  1.5994
  154OSM    C1417113   2.180   6.466   2.269 -0.6369 -0.6309  0.2348
  154OSM   H14A17114   2.247   6.381   2.279  0.4598 -0.0358 -1.5770
  154OSM   H14B17115   2.082   6.440   2.305  0.0328 -1.2650  1.7121
  154OSM   H14C17116   2.218   6.549   2.327 -0.1398 -1.6064  1.3556
  154OSM    C1317117   2.156   6.403   2.040 -0.0625 -0.4428 -0.2789
  154OSM   H13A17118   2.132   6.445   1.943  2.3335  0.7734 -0.4426
  154OSM   H13B17119   2.081   6.335   2.076  2.0170 -2.3284  0.7545
  154OSM   H13C17120   2.244   6.342   2.025  1.5101  1.5126  0.5598
  154OSM    C1217121   2.306   6.591   2.096  0.2601 -0.3456  0.7111
  154OSM   H12A17122   2.308   6.640   2.000  1.6418 -2.4764 -0.4293
  154OSM   H12B17123   2.394   6.530   2.080  0.0965  0.0273 -2.2930
  154OSM    C1117124   2.356   6.700   2.191 -0.0888  0.2494  0.2700
  154OSM   H11A17125   2.436   6.762   2.147 -0.7941 -0.5589 -2.3220
  154OSM   H11B17126   2.385   6.646   2.284  2.3323  0.4131 -0.3363
  154OSM      P17127   2.241   6.905   2.301 -0.2085  0.2442  0.0052
  154OSM    O1317128   2.342   6.996   2.247  0.0610  0.3246  0.2942
  154OSM    O1417129   2.104   6.956   2.317 -0.1912  0.6112  0.8846
  154OSM    O1117130   2.299   6.844   2.434  0.4740 -0.0219  0.4915
  154OSM    O1217131   2.240   6.784   2.210 -0.1702 -0.1288 -0.3760
  154OSM    C1S17132   2.222   6.758   2.517  0.0931  0.0934 -0.1643
  154OSM    H1S17133   2.207   6.659   2.469 -1.0359  0.4246 -0.5328
  154OSM    H1T17134   2.125   6.801   2.548 -0.5067 -0.5024 -1.1781
  154OSM     NF17135   2.222   6.627   2.724 -0.5311  0.0125 -0.0914
  154OSM    HNF17136   2.182   6.649   2.813  1.1121  0.2512  0.6359
  154OSM    C2S17137   2.296   6.724   2.647 -0.4888 -0.8259  0.1609
  154OSM    H2S17138   2.395   6.679   2.623 -0.6619 -0.1041 -2.1329
  154OSM    C3S17139   2.339   6.859   2.719  0.4406 -0.3123  0.1460
  154OSM    H3S17140   2.247   6.921   2.735  0.2327 -0.4757 -0.4013
  154OSM     O317141   2.427   6.943   2.652  0.5509 -0.1259 -0.1221
  154OSM    HO317142   2.419   6.927   2.558 -0.2303 -1.7932  0.1986
  154OSM    C4S17143   2.400   6.818   2.855 -0.3726 -0.2856  0.4184
  154OSM    H4S17144   2.343   6.861   2.938 -0.8823 -0.3975  0.1278
  154OSM    C5S17145   2.511   6.745   2.882 -0.3498 -0.0567  0.0943
  154OSM    H5S17146   2.569   6.696   2.802 -2.4970  0.9757 -2.2294
  154OSM    C6S17147   2.562   6.704   3.018  0.2091 -0.3051 -0.1168
  154OSM    H6S17148   2.672   6.718   3.028 -0.0483  1.3097  0.7833
  154OSM    H6T17149   2.559   6.593   3.017  0.8163 -0.3278  0.0611
  154OSM    C7S17150   2.486   6.752   3.139  0.0456  0.5042 -0.3918
  154OSM    H7S17151   2.378   6.734   3.123  0.0249 -0.8403  0.9753
  154OSM    H7T17152   2.496   6.861   3.161  0.4996  0.4722 -0.4423
  154OSM    C8S17153   2.526   6.690   3.281 -0.0051  0.8811  1.1859
  154OSM    H8S17154   2.633   6.711   3.303  0.5048  0.6646 -0.8775
  154OSM    H8T17155   2.513   6.580   3.280  0.4559  0.8189  0.2915
  154OSM    C9S17156   2.445   6.765   3.385 -1.2202  1.0534 -0.2519
  154OSM    H9S17157   2.346   6.714   3.389  0.3757 -2.3160 -0.2706
  154OSM    H9T17158   2.436   6.874   3.364 -0.0141  1.6519  2.0088
  154OSM   C10S17159   2.512   6.750   3.527 -0.6373  0.4696 -0.9496
  154OSM   H10S17160   2.605   6.810   3.532 -0.1971 -0.2137 -0.6586
  154OSM   H10T17161   2.537   6.642   3.543  1.4348  1.0327 -0.0223
  154OSM   C11S17162   2.423   6.788   3.651 -0.1902  0.2446 -0.2821
  154OSM   H11S17163   2.325   6.737   3.639 -0.4729  0.9138 -0.9404
  154OSM   H11T17164   2.392   6.894   3.660  0.5303  0.4464 -0.1255
  154OSM   C12S17165   2.496   6.742   3.779  0.2471 -0.6606 -0.6631
  154OSM   H12S17166   2.505   6.632   3.789 -0.9556 -0.6560  1.0055
  154OSM   H12T17167   2.429   6.766   3.865  1.9379 -0.2829  0.6011
  154OSM   C13S17168   2.635   6.806   3.799 -0.0390 -0.2256 -0.6466
  154OSM   H13S17169   2.640   6.910   3.761 -3.3257  0.5032  0.6257
  154OSM   H13T17170   2.684   6.748   3.717  0.8873 -1.1284  0.5060
  154OSM   C14S17171   2.697   6.805   3.940  0.5647 -0.4169 -0.3240
  154OSM   H14S17172   2.804   6.827   3.920 -0.3136  2.1417 -2.9034
  154OSM   H14T17173   2.667   6.707   3.982 -1.7628  0.7266  0.8453
  154OSM   C15S17174   2.635   6.923   4.016 -0.4283  0.4856  0.2350
  154OSM   H15S17175   2.534   6.947   3.975 -0.3055  0.1833 -0.2571
  154OSM   H15T17176   2.694   7.016   4.001 -1.1589  1.0788  0.9398
  154OSM   C16S17177   2.626   6.886   4.166  0.1383 -0.0384 -0.0463
  154OSM   H16S17178   2.582   6.975   4.215 -1.2165 -1.2442  1.0123
  154OSM   H16T17179   2.724   6.849   4.203 -0.6228 -0.4695  1.6193
  154OSM   C17S17180   2.519   6.769   4.200  0.4353  0.2283  0.9240
  154OSM   H17S17181   2.526   6.745   4.308 -0.2671 -2.2739  0.4830
  154OSM   H17T17182   2.550   6.684   4.136  0.9681  0.4438  0.8962
  154OSM   C18S17183   2.372   6.805   4.173  0.5746  0.1245 -0.1460
  154OSM   H18S17184   2.309   6.713   4.173 -1.5515  1.5037 -0.5004
  154OSM   H18T17185   2.361   6.867   4.082 -2.3741  1.6015  1.0904
  154OSM   H18U17186   2.325   6.871   4.249 -0.2921 -1.3148  0.6213
  154OSM    C1F17187   2.205   6.497   2.685 -0.7173 -0.3991 -0.0146
  154OSM     OF17188   2.277   6.452   2.593  0.0011 -0.3370 -0.5474
  154OSM    C2F17189   2.102   6.426   2.756  0.2488 -0.5858 -0.0823
  154OSM    H2F17190   2.046   6.372   2.676  1.6711 -1.1078 -0.7683
  154OSM    H2G17191   2.029   6.494   2.805  0.6961  0.6166 -1.0087
  154OSM    C3F17192   2.168   6.323   2.845 -0.1164  0.1652 -0.7383
  154OSM    H3F17193   2.251   6.266   2.798  0.8274  1.2819 -0.4705
  154OSM    H3G17194   2.087   6.248   2.852 -1.1041  1.3004  0.5517
  154OSM    C4F17195   2.220   6.395   2.968 -0.5546  0.0930 -0.0728
  154OSM    H4F17196   2.141   6.455   3.017 -1.0874 -0.9784  0.4271
  154OSM    H4G17197   2.307   6.457   2.938 -0.9284  1.1450  0.9168
  154OSM    C5F17198   2.249   6.287   3.077  0.7080  0.3045  0.4226
  154OSM    H5F17199   2.293   6.198   3.027  0.6447 -0.2328  1.2969
  154OSM    H5G17200   2.152   6.264   3.125  0.5566  2.0810  1.0154
  154OSM    C6F17201   2.344   6.332   3.195  0.3664  0.0983 -0.2034
  154OSM    H6F17202   2.440   6.364   3.150 -1.4610  3.4725 -2.1611
  154OSM    H6G17203   2.364   6.248   3.265 -0.1573 -0.4548 -0.7001
  154OSM    C7F17204   2.279   6.442   3.280  0.1479  0.3113 -0.7648
  154OSM    H7F17205   2.250   6.527   3.216  1.4775 -0.9874 -3.2658
  154OSM    H7G17206   2.355   6.481   3.351  0.0491 -2.3113  0.9308
  154OSM    C8F17207   2.155   6.399   3.360 -0.6791  0.1454  0.7710
  154OSM    H8F17208   2.073   6.378   3.288  0.4725 -0.9682 -0.2617
  154OSM    H8G17209   2.126   6.498   3.402  2.4866  1.9684 -0.9331
  154OSM    C9F17210   2.176   6.302   3.468 -0.2030  0.4600  0.7698
  154OSM    H9F17211   2.164   6.197   3.439 -1.2075  0.7962 -0.0765
  154OSM   C10F17212   2.221   6.331   3.588  0.2738  0.5845 -0.7211
  154OSM   H10F17213   2.240   6.239   3.646 -2.6721  0.2694 -0.0757
  154OSM   C11F17214   2.267   6.461   3.646  0.7550  0.0290 -0.3875
  154OSM   H11F17215   2.218   6.541   3.586 -0.6695 -1.2112 -0.9510
  154OSM   H11G17216   2.378   6.464   3.640  0.9174  1.0580  2.0259
  154OSM   C12F17217   2.219   6.484   3.790 -0.2882 -0.8956 -0.5146
  154OSM   H12F17218   2.108   6.498   3.791 -0.3211 -0.6152  2.9572
  154OSM   H12G17219   2.255   6.584   3.824 -0.3942 -1.5410  1.6161
  154OSM   C13F17220   2.266   6.395   3.901 -0.2285  0.3549 -0.1416
  154OSM   H13F17221   2.376   6.384   3.899 -0.2033 -1.2258  3.0908
  154OSM   H13G17222   2.220   6.294   3.894  1.5817 -0.4936 -0.3520
  154OSM   C14F17223   2.246   6.455   4.037 -0.1992  0.3977 -0.0746
  154OSM   H14F17224   2.144   6.494   4.060  0.2174  0.7648  1.2579
  154OSM   H14G17225   2.314   6.542   4.053  1.7723 -0.9615 -0.7225
  154OSM   C15F17226   2.273   6.344   4.143  0.4139 -0.8299 -0.7608
  154OSM   H15F17227   2.218   6.251   4.119  1.5452 -2.6134  2.7695
  154OSM   H15G17228   2.257   6.388   4.244  3.6138  0.3901 -0.6562
  154OSM   C16F17229   2.420   6.330   4.152  0.2201  0.3148 -0.0341
  154OSM   H16F17230   2.455   6.435   4.162 -1.4197  0.8660  0.2400
  154OSM   H16G17231   2.455   6.284   4.057 -2.7753  0.5255 -1.3499
  154OSM   C17F17232   2.475   6.253   4.275  0.2060 -0.5872 -0.2005
  154OSM   H17F17233   2.433   6.304   4.364 -0.9117  2.5427 -2.3575
  154OSM   H17G17234   2.585   6.262   4.292  0.4827 -1.9572 -1.0673
  154OSM   C18F17235   2.447   6.106   4.276  0.0503  0.1392 -0.0466
  154OSM   H18F17236   2.462   6.061   4.377 -0.0108  0.9054  0.3093
  154OSM   H18G17237   2.523   6.065   4.206  0.5638  1.1789 -0.1171
  154OSM   H18H17238   2.343   6.084   4.246 -0.3163  0.9935  0.5673
  155OSM      N17239   6.549   1.713   2.130 -0.1690 -0.1696  0.4073
  155OSM    C1517240   6.442   1.607   2.113 -1.1158  0.2083 -0.4607
  155OSM   H15A17241   6.448   1.560   2.016 -0.8113 -0.3785 -0.1631
  155OSM   H15B17242   6.351   1.666   2.113 -0.7839  0.7292 -0.9981
  155OSM   H15C17243   6.431   1.557   2.208  1.7721  0.9531  0.3653
  155OSM    C1417244   6.550   1.796   2.002 -0.1507 -0.4670 -0.1794
  155OSM   H14A17245   6.456   1.847   1.988  0.8227  1.7757  0.9524
  155OSM   H14B17246   6.562   1.734   1.914 -2.9149 -0.5299 -0.5915
  155OSM   H14C17247   6.628   1.872   2.001 -1.9626  1.4929 -1.0021
  155OSM    C1317248   6.504   1.803   2.237 -0.2612  0.4472 -0.6933
  155OSM   H13A17249   6.513   1.738   2.323  3.3536  0.2272 -1.0937
  155OSM   H13B17250   6.405   1.846   2.225 -0.3035  0.5599  0.0314
  155OSM   H13C17251   6.582   1.877   2.249 -0.4956  0.5231  0.5317
  155OSM    C1217252   6.679   1.656   2.172 -0.1287 -0.6219 -0.3612
  155OSM   H12A17253   6.754   1.733   2.164 -0.3039 -0.5390 -1.2928
  155OSM   H12B17254   6.715   1.586   2.098  0.7965 -1.5596  0.9174
  155OSM    C1117255   6.699   1.579   2.312  1.1054 -0.1145  0.1309
  155OSM   H11A17256   6.656   1.646   2.389  0.0248 -1.5363  0.8105
  155OSM   H11B17257   6.807   1.563   2.328  1.1958 -0.1479 -0.4731
  155OSM      P17258   6.695   1.327   2.248 -0.2520 -0.2323 -0.3466
  155OSM    O1317259   6.612   1.211   2.264  0.1238 -0.3862 -0.3638
  155OSM    O1417260   6.726   1.364   2.109  0.4223  0.1911 -0.1085
  155OSM    O1117261   6.825   1.310   2.333 -0.1630 -0.1011  0.1267
  155OSM    O1217262   6.634   1.454   2.328  0.1570  0.6954  0.0199
  155OSM    C1S17263   6.812   1.281   2.474  1.0110 -0.2231 -0.3342
  155OSM    H1S17264   6.777   1.176   2.481 -0.6891  0.3604  0.9184
  155OSM    H1T17265   6.729   1.336   2.524 -0.9481 -2.7507 -0.6117
  155OSM     NF17266   6.909   1.270   2.707 -0.2607  0.6448 -0.1418
  155OSM    HNF17267   6.908   1.345   2.773 -1.7437  0.0694  0.5421
  155OSM    C2S17268   6.936   1.300   2.570  0.6776 -0.0170  0.2218
  155OSM    H2S17269   7.011   1.226   2.535 -0.6101 -1.1694 -0.1750
  155OSM    C3S17270   7.006   1.438   2.547  0.2929  0.0245 -0.4574
  155OSM    H3S17271   6.933   1.517   2.577  0.3357  0.9227 -2.5101
  155OSM     O317272   7.020   1.482   2.415  0.4563  0.4911  0.7154
  155OSM    HO317273   6.972   1.420   2.360 -1.6214  2.5235  0.0471
  155OSM    C4S17274   7.124   1.453   2.634  0.0450  0.5032  0.2555
  155OSM    H4S17275   7.100   1.466   2.740 -0.8743 -2.2269  0.4398
  155OSM    C5S17276   7.254   1.425   2.614 -0.0171  0.0604  0.3387
  155OSM    H5S17277   7.277   1.383   2.515 -0.9012 -0.5257  0.3739
  155OSM    C6S17278   7.374   1.432   2.712  0.0047 -0.7057  0.0860
  155OSM    H6S17279   7.437   1.516   2.677 -1.1472  0.1268 -0.0464
  155OSM    H6T17280   7.442   1.345   2.703  0.4144 -0.4351  0.5171
  155OSM    C7S17281   7.338   1.445   2.864 -0.1157  0.2727  0.4889
  155OSM    H7S17282   7.279   1.358   2.900 -0.3502  0.4452  0.5284
  155OSM    H7T17283   7.287   1.542   2.884 -1.3142  0.3422 -2.4482
  155OSM    C8S17284   7.465   1.449   2.949 -0.6923 -0.3213  0.1521
  155OSM    H8S17285   7.514   1.534   2.896  0.6078 -1.2304 -0.1483
  155OSM    H8T17286   7.513   1.349   2.951 -2.9558 -1.4530 -0.0272
  155OSM    C9S17287   7.438   1.497   3.097 -0.1534  0.5591  0.7413
  155OSM    H9S17288   7.365   1.430   3.147  2.4967 -1.7545  1.7925
  155OSM    H9T17289   7.394   1.598   3.113 -2.6060 -0.6000  1.7677
  155OSM   C10S17290   7.574   1.480   3.174 -0.0777  0.8001 -0.1724
  155OSM   H10S17291   7.653   1.536   3.119  1.2536 -0.2059  0.6454
  155OSM   H10T17292   7.588   1.370   3.178 -1.1610  0.6819  0.9708
  155OSM   C11S17293   7.577   1.539   3.315  1.3491  0.2432 -0.0459
  155OSM   H11S17294   7.547   1.646   3.315  0.3226 -0.0291 -0.2904
  155OSM   H11T17295   7.676   1.540   3.364  0.4036 -0.3218  1.9871
  155OSM   C12S17296   7.474   1.460   3.406  0.1332 -0.5090  0.7103
  155OSM   H12S17297   7.511   1.356   3.418 -2.1029 -1.4973 -0.3877
  155OSM   H12T17298   7.377   1.444   3.356 -0.3808  0.4535  1.3630
  155OSM   C13S17299   7.465   1.520   3.549  0.0384  0.5997  0.4417
  155OSM   H13S17300   7.372   1.480   3.594 -1.0950  0.8631 -1.5586
  155OSM   H13T17301   7.453   1.631   3.543  5.1255  1.4551  1.5086
  155OSM   C14S17302   7.590   1.500   3.635  0.3560 -0.1600  0.2016
  155OSM   H14S17303   7.676   1.536   3.575  2.9026 -2.5353  2.1302
  155OSM   H14T17304   7.613   1.392   3.650 -2.0280 -0.5621  1.6066
  155OSM   C15S17305   7.591   1.566   3.770 -0.0826  0.3835  0.0728
  155OSM   H15S17306   7.575   1.675   3.761  0.0742  0.2483 -3.2829
  155OSM   H15T17307   7.694   1.548   3.806 -0.2702 -3.5655 -0.8626
  155OSM   C16S17308   7.489   1.508   3.866  0.1011  0.5551 -0.2927
  155OSM   H16S17309   7.473   1.402   3.838  1.7950 -0.3848  1.9906
  155OSM   H16T17310   7.394   1.564   3.853 -0.2946 -0.2102 -0.8189
  155OSM   C17S17311   7.534   1.502   4.011 -0.4242 -0.3278  0.7454
  155OSM   H17S17312   7.621   1.433   4.020  0.6174  0.7613 -0.4792
  155OSM   H17T17313   7.451   1.472   4.079 -0.5972 -0.4093  0.4969
  155OSM   C18S17314   7.569   1.640   4.059  0.0994 -0.0872 -1.1051
  155OSM   H18S17315   7.660   1.692   4.023  0.3374 -0.5667 -1.2043
  155OSM   H18T17316   7.584   1.634   4.169 -0.0031 -2.1155 -1.1623
  155OSM   H18U17317   7.480   1.703   4.040  1.3265  1.9282 -0.4426
  155OSM    C1F17318   6.856   1.149   2.742  0.5984  0.9335 -0.3399
  155OSM     OF17319   6.855   1.052   2.665  0.9369 -0.0857 -0.1489
  155OSM    C2F17320   6.796   1.137   2.880 -0.0171 -0.8624  0.2344
  155OSM    H2F17321   6.685   1.148   2.874  0.1818  0.9487 -1.2425
  155OSM    H2G17322   6.837   1.222   2.940  2.1322 -2.7610  1.5890
  155OSM    C3F17323   6.826   1.008   2.956 -0.0930  0.1802  0.3762
  155OSM    H3F17324   6.933   1.004   2.985  0.0282  0.3783 -0.0386
  155OSM    H3G17325   6.804   0.910   2.909 -0.4287  0.1530  0.5842
  155OSM    C4F17326   6.739   0.998   3.091  0.0034 -0.3222  0.0303
  155OSM    H4F17327   6.785   1.079   3.152 -0.2696  0.7627 -1.1659
  155OSM    H4G17328   6.765   0.897   3.129  0.2803 -0.2490  0.0399
  155OSM    C5F17329   6.584   1.022   3.077  0.1171  0.8633 -0.7293
  155OSM    H5F17330   6.544   0.951   3.002  1.7306  0.3420 -1.1525
  155OSM    H5G17331   6.566   1.127   3.046  0.8270  1.4562  0.7405
  155OSM    C6F17332   6.503   0.992   3.210  0.0071 -0.6648  0.6603
  155OSM    H6F17333   6.526   0.891   3.253  0.2436 -0.9914 -0.2160
  155OSM    H6G17334   6.396   0.994   3.180 -0.0603  1.1285  0.9297
  155OSM    C7F17335   6.530   1.102   3.311 -0.3015  0.2507 -0.2225
  155OSM    H7F17336   6.461   1.187   3.301 -0.6491  0.3511  2.3038
  155OSM    H7G17337   6.630   1.149   3.300  1.0025 -2.3698 -0.4668
  155OSM    C8F17338   6.529   1.045   3.457  0.1216 -0.0525 -0.4154
  155OSM    H8F17339   6.436   0.991   3.483 -1.6207  2.7316 -0.4710
  155OSM    H8G17340   6.535   1.127   3.531 -1.7861 -0.0568 -0.2184
  155OSM    C9F17341   6.649   0.949   3.473 -0.7132 -0.9276 -0.3830
  155OSM    H9F17342   6.706   0.930   3.381 -0.9111 -0.2655 -0.6504
  155OSM   C10F17343   6.673   0.894   3.592 -0.3786  0.7051  0.2155
  155OSM   H10F17344   6.768   0.839   3.597 -0.9333 -0.2238  0.8038
  155OSM   C11F17345   6.596   0.891   3.721  0.7132  0.4001 -0.5212
  155OSM   H11F17346   6.624   0.791   3.759  0.6114 -0.1398 -1.8282
  155OSM   H11G17347   6.490   0.882   3.692  1.0414 -0.1026 -1.6122
  155OSM   C12F17348   6.641   1.001   3.816 -0.8451  0.6447 -0.3402
  155OSM   H12F17349   6.650   1.098   3.761  0.5471  0.2752 -0.8040
  155OSM   H12G17350   6.741   0.978   3.857 -0.5183  1.0346 -0.9026
  155OSM   C13F17351   6.534   1.040   3.928 -0.4205  0.5301  0.9243
  155OSM   H13F17352   6.441   1.071   3.875 -2.0037  0.4961  3.5137
  155OSM   H13G17353   6.567   1.126   3.990  0.6321 -0.2505  1.4797
  155OSM   C14F17354   6.503   0.929   4.024 -0.0930  0.0270 -0.3634
  155OSM   H14F17355   6.593   0.896   4.082 -1.2271 -0.8563  0.9803
  155OSM   H14G17356   6.461   0.838   3.976 -0.0490 -0.9157  1.3051
  155OSM   C15F17357   6.393   0.963   4.129  0.0385  0.5663 -0.4819
  155OSM   H15F17358   6.304   0.993   4.070 -0.4252  0.6077  0.2232
  155OSM   H15G17359   6.419   1.051   4.191 -1.3826  1.9847 -1.7850
  155OSM   C16F17360   6.354   0.846   4.230 -0.2323 -0.7679  0.6808
  155OSM   H16F17361   6.320   0.760   4.169  0.1537  0.1533 -0.9056
  155OSM   H16G17362   6.262   0.877   4.284 -1.2512 -0.7313 -0.9986
  155OSM   C17F17363   6.464   0.812   4.330  0.2587 -0.7077 -0.6122
  155OSM   H17F17364   6.492   0.908   4.380  0.0591 -0.0227 -1.7800
  155OSM   H17G17365   6.552   0.783   4.270  1.0085 -0.0369  0.1274
  155OSM   C18F17366   6.418   0.713   4.438 -0.4158 -0.2537  0.1844
  155OSM   H18F17367   6.340   0.644   4.400  0.4475 -0.6523 -0.9447
  155OSM   H18G17368   6.369   0.761   4.525  1.3285  0.8034  0.6516
  155OSM   H18H17369   6.499   0.647   4.475 -0.7134 -0.5254  0.3497
  156OSM      N17370   0.983   0.297   1.595  0.5238 -0.4071  0.2763
  156OSM    C1517371   0.862   0.296   1.507 -0.5567  0.7300  0.0952
  156OSM   H15A17372   0.853   0.191   1.484  2.8096  0.4935 -0.6968
  156OSM   H15B17373   0.865   0.352   1.414 -3.1718  1.0622  0.1335
  156OSM   H15C17374   0.784   0.329   1.574 -0.2499 -0.2823  0.9691
  156OSM    C1417375   0.977   0.191   1.698 -0.1227  0.3414 -0.2907
  156OSM   H14A17376   0.953   0.096   1.652  2.3658 -0.5842  0.1463
  156OSM   H14B17377   0.907   0.212   1.777  1.5011  1.8316  0.8324
  156OSM   H14C17378   1.066   0.189   1.759 -0.4460  1.9938  0.2951
  156OSM    C1317379   1.098   0.258   1.502 -0.2475  0.2009 -0.1624
  156OSM   H13A17380   1.085   0.156   1.471  1.0231  0.1071 -0.4282
  156OSM   H13B17381   1.184   0.257   1.566 -0.2528  1.8333 -0.0811
  156OSM   H13C17382   1.105   0.329   1.421 -1.6325  1.7811  1.0194
  156OSM    C1217383   1.001   0.437   1.662  0.0287  0.2358  0.4769
  156OSM   H12A17384   1.026   0.513   1.590 -1.3221  3.1676  2.8549
  156OSM   H12B17385   1.085   0.431   1.731 -0.3022 -1.8479  0.7461
  156OSM    C1117386   0.882   0.501   1.740 -0.6614 -0.3342 -0.3599
  156OSM   H11A17387   0.811   0.543   1.666  1.9776  2.2510 -1.6536
  156OSM   H11B17388   0.931   0.591   1.784 -1.5063  0.1489 -0.4020
  156OSM      P17389   0.891   0.406   1.983 -0.1196 -0.2541  0.1731
  156OSM    O1317390   0.819   0.511   2.059  1.0958  0.6264 -0.4656
  156OSM    O1417391   0.896   0.267   2.032 -0.4190 -0.2404 -0.7250
  156OSM    O1117392   1.039   0.447   1.946 -0.5021 -0.3834 -0.7912
  156OSM    O1217393   0.825   0.410   1.837  0.1484 -0.4789 -0.0227
  156OSM    C1S17394   1.090   0.567   2.017 -0.3058 -0.0945 -0.3832
  156OSM    H1S17395   1.019   0.650   2.035  1.4327  2.0010 -2.3655
  156OSM    H1T17396   1.173   0.613   1.958  0.2771  1.3398  1.4322
  156OSM     NF17397   1.206   0.660   2.212  0.2621 -0.6004 -0.6403
  156OSM    HNF17398   1.298   0.695   2.196  1.0922 -1.3067  2.1742
  156OSM    C2S17399   1.162   0.535   2.155 -0.6578  0.5120  0.0561
  156OSM    H2S17400   1.096   0.493   2.234  0.3083 -1.7857 -0.2685
  156OSM    C3S17401   1.281   0.433   2.134  1.0785  0.3005 -0.1134
  156OSM    H3S17402   1.348   0.477   2.057 -0.4276  1.1352 -1.0162
  156OSM     O317403   1.242   0.317   2.071 -0.6128 -0.1182 -0.1858
  156OSM    HO317404   1.167   0.339   2.017 -0.1464 -1.6087 -1.5230
  156OSM    C4S17405   1.357   0.396   2.253  0.0944 -0.0080  0.5760
  156OSM    H4S17406   1.452   0.447   2.274  0.8110 -1.0749  0.0529
  156OSM    C5S17407   1.302   0.324   2.351  0.4254  0.6837 -0.0662
  156OSM    H5S17408   1.204   0.275   2.339  0.9749 -0.2949 -0.6385
  156OSM    C6S17409   1.373   0.307   2.486  0.8597 -0.0956 -0.4123
  156OSM    H6S17410   1.462   0.373   2.482 -1.4261  3.2214 -1.3037
  156OSM    H6T17411   1.398   0.201   2.503 -0.5696 -0.5056 -0.7161
  156OSM    C7S17412   1.295   0.358   2.606  0.2365  0.4159 -0.5509
  156OSM    H7S17413   1.204   0.296   2.618  0.0439  0.7940  0.0127
  156OSM    H7T17414   1.252   0.458   2.584 -0.2627  0.3367  0.0384
  156OSM    C8S17415   1.381   0.352   2.731 -0.0334  0.0401 -0.0388
  156OSM    H8S17416   1.468   0.419   2.716 -1.9049  2.6661  0.1012
  156OSM    H8T17417   1.407   0.246   2.754  0.3233  0.2293  0.4596
  156OSM    C9S17418   1.302   0.416   2.848 -0.5531  1.0696  0.2502
  156OSM    H9S17419   1.208   0.362   2.873 -0.4436  0.8224  0.1249
  156OSM    H9T17420   1.258   0.510   2.808 -5.0784 -1.4596 -1.4300
  156OSM   C10S17421   1.390   0.434   2.970  0.2609 -0.3920  0.1130
  156OSM   H10S17422   1.459   0.519   2.954 -1.6205  1.0495 -0.7136
  156OSM   H10T17423   1.450   0.343   2.991 -0.8317 -1.0971  0.3029
  156OSM   C11S17424   1.296   0.448   3.095 -0.7239 -0.3862 -1.0369
  156OSM   H11S17425   1.231   0.359   3.104  0.5712 -1.1477  2.2322
  156OSM   H11T17426   1.232   0.538   3.090  0.9202  0.8400 -0.9316
  156OSM   C12S17427   1.377   0.459   3.234 -0.2302 -0.6686 -0.5349
  156OSM   H12S17428   1.415   0.563   3.227 -1.5370 -0.0764  0.6316
  156OSM   H12T17429   1.452   0.379   3.215 -0.6005 -0.4436 -3.5219
  156OSM   C13S17430   1.298   0.434   3.357 -0.4709 -0.1268 -0.5162
  156OSM   H13S17431   1.367   0.405   3.439 -2.2832 -1.5759  0.5774
  156OSM   H13T17432   1.230   0.348   3.338 -2.6271  1.2240  0.6503
  156OSM   C14S17433   1.208   0.546   3.408 -0.4131 -0.3450 -0.0772
  156OSM   H14S17434   1.105   0.511   3.431 -0.0622 -0.7142  0.9739
  156OSM   H14T17435   1.199   0.612   3.318  0.5055 -1.6498 -1.1681
  156OSM   C15S17436   1.241   0.629   3.529 -0.0270  0.3808 -0.1989
  156OSM   H15S17437   1.351   0.644   3.533  0.3636 -1.9398 -0.4833
  156OSM   H15T17438   1.229   0.553   3.610  1.7756 -2.7121 -2.5554
  156OSM   C16S17439   1.152   0.748   3.546 -0.6358 -0.6716 -0.5185
  156OSM   H16S17440   1.043   0.726   3.550 -0.5771 -0.8837  1.9285
  156OSM   H16T17441   1.169   0.825   3.468 -0.2652 -0.0447  0.1651
  156OSM   C17S17442   1.184   0.817   3.688  0.3509  0.7107 -0.2071
  156OSM   H17S17443   1.142   0.920   3.687 -2.5406 -0.3667 -0.8733
  156OSM   H17T17444   1.294   0.833   3.693  0.9689 -2.3564 -1.7327
  156OSM   C18S17445   1.144   0.745   3.814  0.7552 -0.0583 -0.1415
  156OSM   H18S17446   1.188   0.642   3.811 -0.0149 -0.4464  1.0671
  156OSM   H18T17447   1.035   0.734   3.834  0.3765  0.9587 -1.5259
  156OSM   H18U17448   1.195   0.790   3.901  0.0987 -0.2929  0.3722
  156OSM    C1F17449   1.109   0.738   2.269  0.1095 -0.5003 -0.2517
  156OSM     OF17450   0.995   0.700   2.293  0.6329  0.0175 -0.0036
  156OSM    C2F17451   1.150   0.886   2.282 -0.7905  0.3157 -0.2825
  156OSM    H2F17452   1.152   0.936   2.183 -0.5073  3.0386  0.9843
  156OSM    H2G17453   1.253   0.870   2.322 -1.3645 -0.8582  0.7985
  156OSM    C3F17454   1.065   0.968   2.377 -0.1377 -0.6712  0.4449
  156OSM    H3F17455   0.962   0.927   2.379 -1.6908  2.6375 -2.0004
  156OSM    H3G17456   1.062   1.072   2.339 -0.9614  0.0664  2.3899
  156OSM    C4F17457   1.129   0.960   2.510  0.3120  0.1061  0.0313
  156OSM    H4F17458   1.239   0.967   2.501  0.2317  0.8486 -0.4635
  156OSM    H4G17459   1.097   0.864   2.556 -2.0733  0.8415  0.0744
  156OSM    C5F17460   1.079   1.061   2.609  0.6654 -0.0047 -0.2514
  156OSM    H5F17461   0.968   1.062   2.612  0.6535  0.5151 -0.6738
  156OSM    H5G17462   1.108   1.161   2.570 -2.1050  0.9926  0.0383
  156OSM    C6F17463   1.119   1.026   2.751  0.4021  0.4226 -0.0649
  156OSM    H6F17464   1.229   1.010   2.754  0.2759 -0.9798 -1.6428
  156OSM    H6G17465   1.071   0.933   2.786  1.1735  0.9820  2.6702
  156OSM    C7F17466   1.082   1.136   2.853 -0.6318 -0.5496  0.8676
  156OSM    H7F17467   0.971   1.149   2.849 -0.6837  0.5015  3.6142
  156OSM    H7G17468   1.138   1.224   2.814  1.8460 -2.5329 -0.3142
  156OSM    C8F17469   1.139   1.125   2.997  0.3029 -0.5199 -0.3304
  156OSM    H8F17470   1.125   1.227   3.039  1.3207 -0.9486  1.1425
  156OSM    H8G17471   1.250   1.121   2.992  0.3358 -0.1517  0.0729
  156OSM    C9F17472   1.094   1.005   3.086 -1.3004 -0.1202  0.7709
  156OSM    H9F17473   1.122   0.903   3.056  0.0197  0.3074  0.4728
  156OSM   C10F17474   1.046   1.017   3.210  0.2099  0.3775 -1.1748
  156OSM   H10F17475   1.028   0.926   3.269 -0.2987  1.6825  0.8111
  156OSM   C11F17476   1.015   1.150   3.283 -0.3977 -0.1457  0.2386
  156OSM   H11F17477   0.906   1.155   3.303 -0.6663  3.5806 -1.2795
  156OSM   H11G17478   1.029   1.243   3.225 -2.3058 -0.4972 -0.8556
  156OSM   C12F17479   1.110   1.148   3.405 -0.5784 -0.3404 -0.0821
  156OSM   H12F17480   1.212   1.117   3.373 -0.4652 -2.0955  1.7830
  156OSM   H12G17481   1.081   1.071   3.480  0.0698  0.4868  1.0447
  156OSM   C13F17482   1.112   1.296   3.462 -0.2784 -0.5274 -0.0666
  156OSM   H13F17483   1.005   1.327   3.460  0.0960  0.8111 -0.5204
  156OSM   H13G17484   1.163   1.365   3.391  0.7564 -2.3819 -1.2040
  156OSM   C14F17485   1.187   1.316   3.594 -0.0005  0.3885  0.8712
  156OSM   H14F17486   1.278   1.252   3.605 -1.1741 -1.3066  1.1813
  156OSM   H14G17487   1.118   1.255   3.657 -1.3427 -0.4955 -1.3460
  156OSM   C15F17488   1.213   1.457   3.645 -0.8355  0.5789 -0.3556
  156OSM   H15F17489   1.116   1.504   3.670 -1.7605 -1.2134 -0.4873
  156OSM   H15G17490   1.255   1.528   3.570  1.5663 -1.2134 -0.8406
  156OSM   C16F17491   1.288   1.451   3.775 -0.8337  0.8609 -0.3620
  156OSM   H16F17492   1.378   1.390   3.752 -1.1459  1.2039 -2.7476
  156OSM   H16G17493   1.234   1.385   3.846 -0.5144  1.7990  0.7870
  156OSM   C17F17494   1.332   1.583   3.827  0.2151 -0.0532 -0.0073
  156OSM   H17F17495   1.238   1.642   3.834  1.1205  1.3160  1.0974
  156OSM   H17G17496   1.409   1.624   3.759  1.9043  1.5768  2.7239
  156OSM   C18F17497   1.408   1.578   3.962  0.0610 -0.5089  0.0186
  156OSM   H18F17498   1.441   1.681   3.989  2.2424 -1.2557  0.4389
  156OSM   H18G17499   1.487   1.500   3.962  0.2188 -0.4128  2.3700
  156OSM   H18H17500   1.342   1.556   4.048  0.0053 -0.1354  0.0756
  157OSM      N17501   1.958   2.226   1.731  0.1019  0.1776  0.2831
  157OSM    C1517502   1.855   2.334   1.727  0.0139  0.8159 -0.3100
  157OSM   H15A17503   1.782   2.322   1.806  0.0504 -0.2568 -0.4285
  157OSM   H15B17504   1.815   2.351   1.628 -1.8845  1.1738  0.4590
  157OSM   H15C17505   1.905   2.426   1.753  1.2785 -0.0724  0.5500
  157OSM    C1417506   1.889   2.098   1.729 -0.3574  0.9135  0.2145
  157OSM   H14A17507   1.962   2.020   1.741 -0.7996  0.5349  0.4876
  157OSM   H14B17508   1.840   2.082   1.634 -0.8173  1.9903  0.2595
  157OSM   H14C17509   1.808   2.086   1.800 -1.3505 -0.3113 -1.0535
  157OSM    C1317510   2.051   2.241   1.610  0.1057  0.4374  0.0182
  157OSM   H13A17511   1.991   2.239   1.520  0.8020  1.5500 -0.4860
  157OSM   H13B17512   2.138   2.177   1.601  0.6042  1.4026 -3.3108
  157OSM   H13C17513   2.087   2.342   1.608  2.4268 -0.3266  0.0182
  157OSM    C1217514   2.046   2.230   1.852 -0.2876  0.4067  0.6378
  157OSM   H12A17515   2.107   2.318   1.839 -2.7078  2.3513  1.6303
  157OSM   H12B17516   2.107   2.141   1.857 -2.3466 -1.1572 -0.3661
  157OSM    C1117517   1.978   2.239   1.989  0.8850 -0.6083 -0.1458
  157OSM   H11A17518   2.040   2.194   2.069  1.1960 -0.2948 -0.2028
  157OSM   H11B17519   1.883   2.182   1.995  0.7041 -0.1717  1.6836
  157OSM      P17520   2.041   2.464   2.105 -0.1237 -0.2409 -0.4125
  157OSM    O1317521   2.180   2.426   2.078 -0.5280  0.2213  0.3717
  157OSM    O1417522   2.006   2.611   2.083  0.0689  0.3705  0.4906
  157OSM    O1117523   1.997   2.413   2.254 -0.5148 -0.9004 -0.3115
  157OSM    O1217524   1.952   2.378   2.006  0.2201 -0.1184 -0.6543
  157OSM    C1S17525   1.867   2.408   2.299 -0.2216  0.8359  0.6117
  157OSM    H1S17526   1.834   2.317   2.245  1.9510  0.1451  0.3382
  157OSM    H1T17527   1.812   2.502   2.274 -0.8058  0.3713  0.1442
  157OSM     NF17528   1.723   2.377   2.497  0.2031  0.2502  0.0753
  157OSM    HNF17529   1.686   2.451   2.552  1.0543 -0.5872  1.8353
  157OSM    C2S17530   1.862   2.393   2.454 -0.3946  0.3517  0.5091
  157OSM    H2S17531   1.913   2.297   2.478 -0.9720  0.2064  1.1964
  157OSM    C3S17532   1.936   2.507   2.534 -0.3283 -0.0931  0.1250
  157OSM    H3S17533   1.893   2.607   2.511  2.9887  1.2558 -0.6837
  157OSM     O317534   2.069   2.523   2.496  0.1033  0.6533 -0.9312
  157OSM    HO317535   2.081   2.460   2.424  1.8844 -0.5841  0.3648
  157OSM    C4S17536   1.934   2.473   2.682  0.2131 -0.4071  0.4769
  157OSM    H4S17537   1.989   2.381   2.704  0.2997 -0.0576  1.7973
  157OSM    C5S17538   1.883   2.548   2.783  1.0145 -0.2716  0.0144
  157OSM    H5S17539   1.833   2.644   2.762 -1.6310 -0.9615  2.4892
  157OSM    C6S17540   1.898   2.518   2.932 -0.1953 -0.9387 -0.1551
  157OSM    H6S17541   1.967   2.433   2.955 -0.6995 -0.9221  1.5477
  157OSM    H6T17542   1.800   2.486   2.973 -0.2110  0.4291  0.9326
  157OSM    C7S17543   1.964   2.635   3.004 -0.2789  0.7960 -0.0739
  157OSM    H7S17544   1.927   2.730   2.960  1.7210  1.8049  0.2903
  157OSM    H7T17545   2.073   2.635   2.980 -0.2610  0.5035  0.0050
  157OSM    C8S17546   1.930   2.645   3.160 -0.5144  0.1629 -0.0069
  157OSM    H8S17547   2.002   2.706   3.217 -1.0302  1.0727 -0.3153
  157OSM    H8T17548   1.932   2.545   3.209 -0.6009  0.2818  0.2391
  157OSM    C9S17549   1.793   2.708   3.197  0.6288 -0.1225  0.2309
  157OSM    H9S17550   1.723   2.624   3.177  2.0795 -1.8125  2.0198
  157OSM    H9T17551   1.774   2.806   3.148  0.7340  0.2257  0.8847
  157OSM   C10S17552   1.787   2.738   3.342  1.0700  0.1359 -0.2903
  157OSM   H10S17553   1.881   2.785   3.379  0.0917  0.8902  1.3618
  157OSM   H10T17554   1.777   2.640   3.394  2.0694  0.6868  0.9941
  157OSM   C11S17555   1.665   2.820   3.372  0.1616  0.3430 -0.0628
  157OSM   H11S17556   1.579   2.779   3.314  0.4755  1.2160 -1.1915
  157OSM   H11T17557   1.682   2.929   3.357 -0.6642  0.7883  1.9487
  157OSM   C12S17558   1.610   2.812   3.515 -0.8582  0.1801 -0.3361
  157OSM   H12S17559   1.598   2.709   3.555 -2.1785  0.8609  1.1448
  157OSM   H12T17560   1.508   2.856   3.511 -0.2560  1.7937  0.7791
  157OSM   C13S17561   1.693   2.890   3.615 -0.4486  0.1307 -0.1281
  157OSM   H13S17562   1.709   2.997   3.590  0.5220  0.2804  1.0312
  157OSM   H13T17563   1.795   2.850   3.636 -0.7329  1.0910  4.0255
  157OSM   C14S17564   1.629   2.901   3.750 -0.3269  0.2148 -0.3444
  157OSM   H14S17565   1.532   2.950   3.728 -1.3592 -2.3070 -1.8125
  157OSM   H14T17566   1.689   2.965   3.817 -0.3168 -2.1216  2.0339
  157OSM   C15S17567   1.594   2.770   3.822  0.5750 -0.0618  0.5303
  157OSM   H15S17568   1.687   2.719   3.857  0.1609 -1.1448  0.0972
  157OSM   H15T17569   1.550   2.701   3.748  2.4775  0.2520 -0.9935
  157OSM   C16S17570   1.481   2.788   3.934 -0.7977 -0.3319 -0.1521
  157OSM   H16S17571   1.382   2.789   3.885 -1.5915  0.5635  1.4056
  157OSM   H16T17572   1.496   2.893   3.967 -0.3052 -0.4718  0.0933
  157OSM   C17S17573   1.493   2.698   4.051 -0.6022 -0.1204  0.1782
  157OSM   H17S17574   1.593   2.714   4.097 -0.9890  0.7920  0.7553
  157OSM   H17T17575   1.481   2.592   4.021  0.0213  0.1430 -1.0444
  157OSM   C18S17576   1.379   2.716   4.158 -0.5207  0.3460 -0.3248
  157OSM   H18S17577   1.279   2.707   4.110 -0.9554 -1.2999  0.8066
  157OSM   H18T17578   1.396   2.817   4.202 -0.9843  1.4461 -2.5509
  157OSM   H18U17579   1.384   2.636   4.235 -1.6135  1.3359  0.8362
  157OSM    C1F17580   1.646   2.276   2.463  0.1677  0.0074 -0.6270
  157OSM     OF17581   1.686   2.171   2.414  0.1631 -0.5156 -0.2667
  157OSM    C2F17582   1.501   2.289   2.483 -0.7408  0.3175  1.0586
  157OSM    H2F17583   1.457   2.280   2.382  2.5046  1.2666 -0.5651
  157OSM    H2G17584   1.486   2.393   2.519 -0.5165  0.6468  0.2086
  157OSM    C3F17585   1.441   2.189   2.582  0.4695 -0.6451 -0.0714
  157OSM    H3F17586   1.455   2.087   2.540  0.0214 -1.4217  1.5722
  157OSM    H3G17587   1.335   2.223   2.581  1.6747  3.7587  0.9721
  157OSM    C4F17588   1.489   2.178   2.732 -0.8095 -0.1735  0.0584
  157OSM    H4F17589   1.597   2.153   2.728 -0.8564 -0.2956 -2.9061
  157OSM    H4G17590   1.430   2.095   2.776  3.0221 -2.9165  0.4765
  157OSM    C5F17591   1.462   2.298   2.826  0.2090  0.1180  0.9001
  157OSM    H5F17592   1.355   2.327   2.834 -0.0662 -0.4545 -0.4995
  157OSM    H5G17593   1.513   2.392   2.799  1.1364 -0.2952  1.1598
  157OSM    C6F17594   1.508   2.273   2.978  0.3122 -0.0653 -0.1900
  157OSM    H6F17595   1.613   2.237   2.971  0.2862 -0.1727 -0.0434
  157OSM    H6G17596   1.440   2.204   3.032  1.9344 -0.8862  0.8862
  157OSM    C7F17597   1.516   2.405   3.054  0.1564  0.0104  0.1073
  157OSM    H7F17598   1.423   2.462   3.034 -0.2199 -0.8897 -0.8029
  157OSM    H7G17599   1.589   2.463   2.994  1.4786 -0.3272  1.3227
  157OSM    C8F17600   1.567   2.395   3.197  0.0760 -0.0609  0.1063
  157OSM    H8F17601   1.482   2.351   3.254  1.2411 -2.0070  0.4204
  157OSM    H8G17602   1.560   2.502   3.226  0.5262  0.1632 -0.5800
  157OSM    C9F17603   1.701   2.356   3.238  0.1150  0.4733 -0.0567
  157OSM    H9F17604   1.774   2.355   3.156 -1.0827  0.4918 -1.1548
  157OSM   C10F17605   1.745   2.313   3.361 -0.5051 -0.0953 -1.1521
  157OSM   H10F17606   1.852   2.295   3.378 -0.5900  0.8723  0.6471
  157OSM   C11F17607   1.659   2.299   3.493 -0.2968  0.0956  0.0203
  157OSM   H11F17608   1.735   2.292   3.573 -1.2465 -1.9664  0.7795
  157OSM   H11G17609   1.610   2.200   3.498  1.8785 -1.0016  1.3815
  157OSM   C12F17610   1.575   2.410   3.557  0.9064 -0.7066  0.0285
  157OSM   H12F17611   1.504   2.439   3.478 -1.5662  0.0355  2.3641
  157OSM   H12G17612   1.642   2.496   3.577  3.2276 -1.9931 -1.7532
  157OSM   C13F17613   1.504   2.367   3.687  0.1447  0.2522  0.4781
  157OSM   H13F17614   1.437   2.279   3.673 -0.4929  0.4609  1.9893
  157OSM   H13G17615   1.428   2.444   3.711  0.2140 -0.0904  1.9040
  157OSM   C14F17616   1.602   2.354   3.805  0.1655 -0.9063 -0.4113
  157OSM   H14F17617   1.651   2.452   3.819 -1.3771 -0.2907  0.9739
  157OSM   H14G17618   1.686   2.282   3.790 -1.3728 -3.1219  0.9424
  157OSM   C15F17619   1.530   2.319   3.939  0.2859 -0.1340  0.0802
  157OSM   H15F17620   1.510   2.210   3.935 -0.4190 -0.0740  1.3291
  157OSM   H15G17621   1.434   2.373   3.954  0.9676  0.7876  1.3847
  157OSM   C16F17622   1.618   2.343   4.062 -0.3810  0.1786  0.1629
  157OSM   H16F17623   1.659   2.445   4.053 -0.0451 -0.1608 -3.4792
  157OSM   H16G17624   1.706   2.276   4.054 -0.2496  0.5454 -1.9899
  157OSM   C17F17625   1.545   2.308   4.190 -0.1656  0.0665 -0.1417
  157OSM   H17F17626   1.516   2.203   4.211 -0.4828  0.3371  0.8322
  157OSM   H17G17627   1.453   2.369   4.199  0.4047  0.8221  0.8304
  157OSM   C18F17628   1.625   2.352   4.316  0.5323  0.0963 -0.2305
  157OSM   H18F17629   1.565   2.321   4.404  0.6776  2.1383  0.6358
  157OSM   H18G17630   1.637   2.463   4.318 -0.2620  0.2434 -1.6808
  157OSM   H18H17631   1.731   2.320   4.313  0.2485 -1.4203  2.8061
  158OSM      N17632   6.417   0.307   2.344 -0.6993 -0.2808  0.7715
  158OSM    C1517633   6.375   0.449   2.313 -0.1723  0.1337  0.2013
  158OSM   H15A17634   6.295   0.452   2.240 -0.0065 -0.0639  0.0073
  158OSM   H15B17635   6.452   0.509   2.266 -1.6124  1.3570 -0.7138
  158OSM   H15C17636   6.355   0.487   2.411 -1.0121 -1.1434  0.5549
  158OSM    C1417637   6.475   0.235   2.219 -0.7727  0.2889 -0.4063
  158OSM   H14A17638   6.529   0.145   2.244 -0.8974 -0.3311 -2.2493
  158OSM   H14B17639   6.560   0.277   2.167  1.8220 -1.8322  1.7940
  158OSM   H14C17640   6.399   0.206   2.148 -1.0401  1.7270 -0.7291
  158OSM    C1317641   6.515   0.315   2.456  0.1329 -0.4977  0.4696
  158OSM   H13A17642   6.471   0.368   2.539  1.0862  2.9395 -1.0558
  158OSM   H13B17643   6.606   0.365   2.426 -0.3692  1.0938  1.4815
  158OSM   H13C17644   6.551   0.217   2.486  0.9318 -0.5300 -0.5502
  158OSM    C1217645   6.294   0.232   2.392 -0.5164 -0.2891  0.2128
  158OSM   H12A17646   6.315   0.131   2.423  2.9877  0.0313 -0.6835
  158OSM   H12B17647   6.221   0.223   2.313 -0.0976 -1.6928 -0.0513
  158OSM    C1117648   6.207   0.292   2.510  0.2264  0.8414 -0.4283
  158OSM   H11A17649   6.262   0.269   2.603  0.9219 -0.2538 -1.0850
  158OSM   H11B17650   6.125   0.219   2.526  2.2223 -1.6619 -0.9235
  158OSM      P17651   6.023   0.473   2.468 -0.1605 -0.1587  0.1732
  158OSM    O1317652   6.011   0.617   2.489 -0.3660 -0.7768  0.5066
  158OSM    O1417653   5.993   0.422   2.337 -0.1375 -0.0619  0.3729
  158OSM    O1117654   5.938   0.390   2.574  0.4604  0.0034  0.7786
  158OSM    O1217655   6.170   0.428   2.508 -0.0902  0.4020 -0.2319
  158OSM    C1S17656   5.954   0.411   2.713 -0.5584 -0.3589 -0.7912
  158OSM    H1S17657   5.959   0.520   2.731  2.7286 -0.3585 -1.2145
  158OSM    H1T17658   6.051   0.370   2.748 -1.7352 -1.1071  1.8764
  158OSM     NF17659   5.803   0.384   2.925 -0.3047 -0.1332  0.7962
  158OSM    HNF17660   5.840   0.342   3.007  3.0834  1.6993  0.3592
  158OSM    C2S17661   5.844   0.336   2.794  0.0649 -0.2325 -0.3143
  158OSM    H2S17662   5.747   0.331   2.741 -0.1937 -2.2600  0.2700
  158OSM    C3S17663   5.891   0.179   2.788  0.1778 -0.5737 -1.6022
  158OSM    H3S17664   5.986   0.169   2.845 -1.6027  0.4375  1.8619
  158OSM     O317665   5.911   0.131   2.656  0.2580  1.0493  0.0587
  158OSM    HO317666   5.915   0.215   2.609  2.3825  0.2352 -1.3398
  158OSM    C4S17667   5.777   0.101   2.850  0.0614 -0.5158  0.3799
  158OSM    H4S17668   5.685   0.102   2.789 -0.0772 -2.5212  0.5168
  158OSM    C5S17669   5.774   0.036   2.968 -0.6479 -0.4123 -0.2677
  158OSM    H5S17670   5.862   0.042   3.033  0.1956 -0.3990 -1.3666
  158OSM    C6S17671   5.656  -0.026   3.023  0.4219  0.4136 -0.3779
  158OSM    H6S17672   5.669  -0.136   3.031  0.6287  0.5167  0.9786
  158OSM    H6T17673   5.579  -0.003   2.947 -0.7190  3.3125  1.4753
  158OSM    C7S17674   5.608   0.024   3.163  0.1494 -0.7153  0.3878
  158OSM    H7S17675   5.508  -0.012   3.194 -0.6587  1.8733  0.9810
  158OSM    H7T17676   5.585   0.132   3.160  1.2618 -0.4406  1.0473
  158OSM    C8S17677   5.715   0.001   3.278 -0.0237 -0.4230  0.0333
  158OSM    H8S17678   5.800   0.067   3.253 -1.0618  0.3602 -1.5704
  158OSM    H8T17679   5.751  -0.104   3.280 -2.2891 -1.2800 -0.6891
  158OSM    C9S17680   5.649   0.054   3.408  0.0067  0.3329 -0.5809
  158OSM    H9S17681   5.549   0.011   3.429  0.4395 -0.9532 -1.0390
  158OSM    H9T17682   5.625   0.161   3.389 -0.6393  0.3789  0.4037
  158OSM   C10S17683   5.744   0.044   3.526 -0.7731 -0.3293 -0.3208
  158OSM   H10S17684   5.848   0.078   3.508 -0.1625 -1.9670 -0.0465
  158OSM   H10T17685   5.759  -0.065   3.545 -0.2976 -0.3509 -0.7887
  158OSM   C11S17686   5.681   0.090   3.662  0.4688 -0.6728  0.4443
  158OSM   H11S17687   5.584   0.038   3.680 -0.4167  1.2974  1.7143
  158OSM   H11T17688   5.658   0.199   3.658 -1.8443 -0.8128  4.2919
  158OSM   C12S17689   5.765   0.070   3.785  0.3072 -0.7752  0.2776
  158OSM   H12S17690   5.856   0.133   3.775 -0.4632  0.2582 -0.4458
  158OSM   H12T17691   5.817  -0.027   3.799  1.4802 -0.2920 -0.5532
  158OSM   C13S17692   5.687   0.102   3.913  0.8889 -0.8031  0.4053
  158OSM   H13S17693   5.589   0.051   3.924  0.2026  0.7123  1.5577
  158OSM   H13T17694   5.669   0.211   3.919  1.8566 -0.5555 -0.7925
  158OSM   C14S17695   5.777   0.074   4.042  0.2462 -0.4527  0.0910
  158OSM   H14S17696   5.883   0.091   4.013  0.9730  0.4637  2.9461
  158OSM   H14T17697   5.776  -0.032   4.074 -2.2604 -0.4434  0.2118
  158OSM   C15S17698   5.757   0.156   4.171 -0.5179 -0.8695  0.3254
  158OSM   H15S17699   5.650   0.145   4.198 -0.7924  0.9994  0.0973
  158OSM   H15T17700   5.773   0.266   4.171  1.8577 -1.1580 -0.9195
  158OSM   C16S17701   5.838   0.106   4.296 -0.0120  0.6591 -0.1154
  158OSM   H16S17702   5.819  -0.003   4.294  0.9866  0.4722  0.0781
  158OSM   H16T17703   5.794   0.151   4.387 -3.3307 -2.4056 -0.0030
  158OSM   C17S17704   5.994   0.112   4.288 -0.7490  0.3173  0.1667
  158OSM   H17S17705   5.997   0.211   4.237 -1.0512 -0.8763 -2.3152
  158OSM   H17T17706   6.035   0.034   4.221  0.2274 -0.4699  1.6183
  158OSM   C18S17707   6.072   0.115   4.420  0.5394 -0.5433 -0.2346
  158OSM   H18S17708   6.180   0.122   4.396  0.7221 -0.0026  0.7042
  158OSM   H18T17709   6.045   0.031   4.487  1.4314 -0.5166  0.1672
  158OSM   H18U17710   6.045   0.200   4.485  0.4032 -3.5130  3.9779
  158OSM    C1F17711   5.759   0.507   2.932  0.0440  0.4147  0.0016
  158OSM     OF17712   5.719   0.560   2.826  0.2037 -0.1515 -0.1900
  158OSM    C2F17713   5.758   0.576   3.067  0.0241  0.0877  0.1841
  158OSM    H2F17714   5.664   0.635   3.073 -1.3319 -1.8087 -1.1683
  158OSM    H2G17715   5.834   0.656   3.060  0.3330 -0.2850 -1.1131
  158OSM    C3F17716   5.779   0.489   3.190 -0.4155 -0.2214 -0.6897
  158OSM    H3F17717   5.879   0.441   3.196  0.2647  1.0163 -1.6295
  158OSM    H3G17718   5.701   0.409   3.186  1.0880 -1.8091  0.3980
  158OSM    C4F17719   5.762   0.557   3.326 -0.6214  0.2023  0.3481
  158OSM    H4F17720   5.659   0.585   3.358 -0.5730 -1.1450  1.8367
  158OSM    H4G17721   5.825   0.648   3.337 -1.2047  0.5619  0.7897
  158OSM    C5F17722   5.807   0.469   3.443 -0.3491 -0.8269  0.3285
  158OSM    H5F17723   5.914   0.442   3.430  0.2550  0.6399  1.8803
  158OSM    H5G17724   5.740   0.380   3.439 -0.2918 -0.8249 -1.1941
  158OSM    C6F17725   5.796   0.537   3.580 -0.1106 -1.2167 -0.2151
  158OSM    H6F17726   5.699   0.591   3.574  1.0387  0.7178 -2.6178
  158OSM    H6G17727   5.869   0.620   3.583 -1.4922  0.0128  0.3140
  158OSM    C7F17728   5.811   0.452   3.706 -0.0964 -0.1178 -0.2655
  158OSM    H7F17729   5.900   0.389   3.684  0.3839  0.6530 -0.5822
  158OSM    H7G17730   5.724   0.387   3.730 -0.0952 -0.0958 -0.2009
  158OSM    C8F17731   5.840   0.539   3.831 -0.5698  0.4721 -0.4553
  158OSM    H8F17732   5.748   0.596   3.855 -0.5529  0.1177  0.4664
  158OSM    H8G17733   5.920   0.611   3.802 -0.5444  0.1323 -1.2548
  158OSM    C9F17734   5.879   0.453   3.949  0.6633  0.3017  0.2110
  158OSM    H9F17735   5.834   0.353   3.945 -0.7018  0.9213 -1.0605
  158OSM   C10F17736   5.952   0.493   4.054 -0.2103  0.2883  0.5291
  158OSM   H10F17737   5.984   0.414   4.123  1.7636  0.9681  0.4425
  158OSM   C11F17738   6.016   0.625   4.089  0.2573 -0.5531 -0.4034
  158OSM   H11F17739   5.989   0.704   4.015  0.7340 -1.3451 -1.4583
  158OSM   H11G17740   6.127   0.627   4.100  0.1146 -1.2504  1.5094
  158OSM   C12F17741   5.967   0.679   4.229  0.4361 -0.5966 -0.3818
  158OSM   H12F17742   5.857   0.684   4.241  0.7397  2.1401  2.4210
  158OSM   H12G17743   6.001   0.785   4.233  1.0280 -0.7829 -0.3996
  158OSM   C13F17744   6.027   0.600   4.346 -0.1517  0.2492 -0.1901
  158OSM   H13F17745   6.138   0.595   4.335 -0.0221 -0.0786  1.1200
  158OSM   H13G17746   5.992   0.496   4.336  0.4710  0.0584 -0.4695
  158OSM   C14F17747   5.985   0.655   4.485 -0.1005  0.6369 -0.2498
  158OSM   H14F17748   6.025   0.585   4.562  2.1483  1.6921 -0.4021
  158OSM   H14G17749   5.874   0.656   4.497 -0.0689 -1.4706  0.7572
  158OSM   C15F17750   6.042   0.798   4.517 -0.3606  0.0626  0.1391
  158OSM   H15F17751   5.990   0.858   4.439  0.9232 -0.0416 -0.8422
  158OSM   H15G17752   6.151   0.796   4.496 -0.4137 -1.6782 -0.1264
  158OSM   C16F17753   6.008   0.840   4.663  0.4032 -1.0357  0.2237
  158OSM   H16F17754   5.898   0.840   4.679 -0.5958  2.3404 -4.5583
  158OSM   H16G17755   6.035   0.946   4.679 -2.9286  0.2002 -1.4455
  158OSM   C17F17756   6.095   0.765   4.767 -0.1246  0.0123 -0.0472
  158OSM   H17F17757   6.197   0.744   4.729 -0.4511 -3.6013  0.7710
  158OSM   H17G17758   6.039   0.669   4.771  0.8317 -0.5799 -0.7160
  158OSM   C18F17759   6.106   0.831   4.907 -0.4821  0.4623  0.4689
  158OSM   H18F17760   6.180   0.776   4.969 -0.3447  1.8876  1.6279
  158OSM   H18G17761   6.009   0.831   4.961 -1.3490 -0.2946 -1.0269
  158OSM   H18H17762   6.152   0.930   4.888 -1.5935  1.3064  1.9589
  159OSM      N17763   1.329   1.885   1.807 -0.3717  0.3566  0.3780
  159OSM    C1517764   1.325   1.866   1.950  0.2502 -1.0260  0.1996
  159OSM   H15A17765   1.416   1.849   2.004 -1.2244 -1.6730  2.6195
  159OSM   H15B17766   1.274   1.773   1.967  3.7742 -3.4893 -1.4429
  159OSM   H15C17767   1.270   1.952   1.987 -0.6617 -0.1514 -2.8846
  159OSM    C1417768   1.359   1.752   1.745  0.1549  0.5423 -0.1345
  159OSM   H14A17769   1.290   1.671   1.765 -0.3497  0.9053 -0.3695
  159OSM   H14B17770   1.455   1.719   1.781 -1.5532 -3.0911  1.6020
  159OSM   H14C17771   1.370   1.747   1.638  1.9225 -1.7372  0.0855
  159OSM    C1317772   1.193   1.924   1.761  0.1735 -0.1197  0.8437
  159OSM   H13A17773   1.113   1.852   1.767  0.7353 -0.6265  2.8664
  159OSM   H13B17774   1.209   1.953   1.658 -0.4932  1.3969  1.1389
  159OSM   H13C17775   1.157   2.019   1.798  1.4436  0.7593 -0.0978
  159OSM    C1217776   1.439   1.986   1.777 -0.4565  0.2456 -0.2689
  159OSM   H12A17777   1.472   1.979   1.674  1.0045 -1.0815  0.2484
  159OSM   H12B17778   1.530   1.955   1.827 -1.1272 -0.1517  0.7410
  159OSM    C1117779   1.414   2.136   1.817  0.6978 -0.4077  0.7984
  159OSM   H11A17780   1.505   2.189   1.781 -0.5695  0.7300 -0.9230
  159OSM   H11B17781   1.401   2.129   1.927  4.5392  0.4091  1.4428
  159OSM      P17782   1.274   2.353   1.771  0.1114 -0.2703 -0.4099
  159OSM    O1317783   1.388   2.430   1.719 -0.5527  0.3152  0.8906
  159OSM    O1417784   1.140   2.389   1.724 -0.2690 -0.2707  0.8542
  159OSM    O1117785   1.274   2.371   1.927  0.5726  0.9567 -0.2601
  159OSM    O1217786   1.300   2.198   1.749  0.0560  0.2923  0.0024
  159OSM    C1S17787   1.173   2.307   2.003  0.5153 -0.2323 -0.2830
  159OSM    H1S17788   1.184   2.197   1.989  0.0874 -0.5847  1.8193
  159OSM    H1T17789   1.069   2.325   1.969  0.4467 -2.8900 -1.7203
  159OSM     NF17790   1.100   2.245   2.231 -0.1412  0.0114  0.6697
  159OSM    HNF17791   1.020   2.284   2.277 -0.2423  0.5724  0.0433
  159OSM    C2S17792   1.182   2.345   2.160 -0.0453  1.5198 -0.1738
  159OSM    H2S17793   1.286   2.324   2.192 -0.3994 -0.9083 -0.4414
  159OSM    C3S17794   1.151   2.494   2.184 -0.7935 -0.6323 -0.2718
  159OSM    H3S17795   1.054   2.522   2.140  1.7093  3.5618 -3.9245
  159OSM     O317796   1.241   2.593   2.127 -0.5472 -0.4585  0.7197
  159OSM    HO317797   1.286   2.545   2.057 -1.3611  0.5023 -0.5062
  159OSM    C4S17798   1.152   2.515   2.331 -0.1172 -0.0722 -0.2038
  159OSM    H4S17799   1.046   2.524   2.357 -1.4831 -2.2807 -4.1044
  159OSM    C5S17800   1.247   2.532   2.419 -0.0241  0.3570 -0.2057
  159OSM    H5S17801   1.351   2.542   2.387 -0.3250  1.8835 -0.8048
  159OSM    C6S17802   1.217   2.532   2.567  0.8289 -1.0891 -0.6437
  159OSM    H6S17803   1.311   2.546   2.625  1.2003 -0.0356 -1.4587
  159OSM    H6T17804   1.156   2.447   2.605 -2.9932  2.0176  0.9767
  159OSM    C7S17805   1.119   2.649   2.598 -0.3201  0.6063 -0.1536
  159OSM    H7S17806   1.025   2.641   2.540 -0.6108  0.3647  0.3477
  159OSM    H7T17807   1.178   2.743   2.589 -0.2827  0.6091  0.1291
  159OSM    C8S17808   1.066   2.650   2.742  0.7005 -0.0164 -0.2481
  159OSM    H8S17809   1.023   2.555   2.781 -0.0663 -0.0841 -1.2063
  159OSM    H8T17810   0.974   2.712   2.745  0.5437 -0.2576 -0.0742
  159OSM    C9S17811   1.159   2.703   2.853  0.8483  0.1187  0.7412
  159OSM    H9S17812   1.212   2.797   2.825  0.0182  0.3012 -0.2927
  159OSM    H9T17813   1.234   2.621   2.859  0.2534 -0.5276 -0.2275
  159OSM   C10S17814   1.094   2.721   2.993 -0.5127  0.1790 -0.6141
  159OSM   H10S17815   1.089   2.620   3.038  3.3606  0.5213  0.9877
  159OSM   H10T17816   0.997   2.773   2.990 -1.3196 -0.9518  2.4727
  159OSM   C11S17817   1.190   2.798   3.089 -0.2896  0.6606  0.4352
  159OSM   H11S17818   1.201   2.900   3.046 -1.7343  0.6866  0.0582
  159OSM   H11T17819   1.288   2.745   3.084 -0.7743 -0.3068  0.7567
  159OSM   C12S17820   1.142   2.812   3.233  0.4912  0.0896 -0.1547
  159OSM   H12S17821   1.122   2.707   3.265 -1.7011  1.3885  3.2216
  159OSM   H12T17822   1.045   2.865   3.236  0.0361 -0.7853  1.6595
  159OSM   C13S17823   1.244   2.883   3.327  0.9893 -0.5647  0.1985
  159OSM   H13S17824   1.266   2.986   3.294  0.7980 -0.5399  0.1474
  159OSM   H13T17825   1.344   2.836   3.336  0.9638 -0.7286 -0.3280
  159OSM   C14S17826   1.188   2.895   3.470  0.4172 -0.5100 -0.6197
  159OSM   H14S17827   1.180   2.791   3.506  1.1484 -0.5293 -0.5032
  159OSM   H14T17828   1.087   2.938   3.456  1.8222  2.4853 -2.7890
  159OSM   C15S17829   1.261   2.981   3.570 -0.4732  0.6533  0.4703
  159OSM   H15S17830   1.293   3.075   3.521  1.8418 -0.3711 -0.1376
  159OSM   H15T17831   1.357   2.936   3.604  0.9754  0.5252 -3.3295
  159OSM   C16S17832   1.169   3.002   3.697 -0.3714  0.1350  0.0558
  159OSM   H16S17833   1.137   2.902   3.732  2.5652 -1.2459 -0.8439
  159OSM   H16T17834   1.092   3.071   3.657 -0.2548  0.5633  0.5696
  159OSM   C17S17835   1.226   3.083   3.807 -0.1933 -0.5214 -1.1952
  159OSM   H17S17836   1.283   3.026   3.883 -0.9162  1.3909  0.9187
  159OSM   H17T17837   1.137   3.117   3.864  0.6163 -0.8883  0.3351
  159OSM   C18S17838   1.317   3.193   3.758 -0.2629 -0.0565  0.0274
  159OSM   H18S17839   1.410   3.153   3.713  0.2912  1.3284 -0.1099
  159OSM   H18T17840   1.349   3.256   3.845 -0.0278 -1.5310  1.0421
  159OSM   H18U17841   1.261   3.256   3.686 -1.6995  0.9035  1.8772
  159OSM    C1F17842   1.130   2.115   2.229  0.9691  0.2904  0.3331
  159OSM     OF17843   1.233   2.072   2.187  0.1126  0.0296  0.0468
  159OSM    C2F17844   1.015   2.021   2.275 -0.7206 -0.3478 -0.0429
  159OSM    H2F17845   1.013   1.938   2.201 -0.6664 -0.5253  0.1514
  159OSM    H2G17846   0.919   2.075   2.283 -0.7871 -0.6562  1.6014
  159OSM    C3F17847   1.054   1.958   2.409  0.3615 -0.1243  0.4265
  159OSM    H3F17848   1.148   1.899   2.410 -0.3045 -1.2451  1.7523
  159OSM    H3G17849   0.970   1.885   2.419 -1.7250  1.8215 -1.6063
  159OSM    C4F17850   1.076   2.062   2.520  0.2529  0.0137  0.1619
  159OSM    H4F17851   1.004   2.145   2.505 -1.1044 -1.1853 -0.1367
  159OSM    H4G17852   1.177   2.108   2.511 -0.2785  0.9468 -1.3468
  159OSM    C5F17853   1.053   2.001   2.660 -0.5006 -0.2998  0.3689
  159OSM    H5F17854   1.125   1.918   2.677  1.1920  0.5097 -2.1605
  159OSM    H5G17855   0.954   1.950   2.663 -1.7752  2.0881  0.8864
  159OSM    C6F17856   1.072   2.098   2.768 -0.1987 -0.3853  0.2048
  159OSM    H6F17857   1.173   2.141   2.751 -0.5931  0.1963 -0.7285
  159OSM    H6G17858   1.066   2.043   2.865 -1.0079 -1.6736 -0.5549
  159OSM    C7F17859   0.970   2.218   2.768 -0.0623  0.2901 -0.3779
  159OSM    H7F17860   0.864   2.188   2.754 -0.7475  3.1889 -2.1611
  159OSM    H7G17861   0.996   2.287   2.684 -0.4367  0.7388 -0.1294
  159OSM    C8F17862   0.988   2.304   2.901 -0.5509  0.9039  0.3171
  159OSM    H8F17863   0.917   2.388   2.883 -2.3766  0.0848  3.0592
  159OSM    H8G17864   1.091   2.344   2.907 -0.4223  0.4975  0.9899
  159OSM    C9F17865   0.956   2.236   3.027  0.2353 -0.0384  0.6802
  159OSM    H9F17866   0.859   2.184   3.020 -0.7318  1.6918  0.6999
  159OSM   C10F17867   1.019   2.216   3.140 -0.0395 -0.2120 -0.2248
  159OSM   H10F17868   0.972   2.159   3.222 -1.0367 -0.2846 -0.8260
  159OSM   C11F17869   1.152   2.277   3.169  0.1489  0.6441  0.0662
  159OSM   H11F17870   1.184   2.336   3.080  2.2302 -0.8865 -0.2688
  159OSM   H11G17871   1.231   2.203   3.191  0.2116  0.6347 -0.1816
  159OSM   C12F17872   1.140   2.381   3.273 -0.8246  0.0304 -0.1014
  159OSM   H12F17873   1.051   2.446   3.277  0.0254  1.1975  0.8212
  159OSM   H12G17874   1.224   2.452   3.257 -0.2805 -0.6735 -0.4267
  159OSM   C13F17875   1.154   2.322   3.414  0.3507  0.9149  0.0076
  159OSM   H13F17876   1.256   2.280   3.425  1.2342  3.2937  1.8371
  159OSM   H13G17877   1.079   2.240   3.422 -0.7816  1.9767  0.6633
  159OSM   C14F17878   1.132   2.416   3.531  0.0012 -0.9795  0.7197
  159OSM   H14F17879   1.041   2.477   3.515  0.2027 -0.2054  2.3049
  159OSM   H14G17880   1.215   2.491   3.527 -2.6363  2.1331  0.4922
  159OSM   C15F17881   1.120   2.368   3.672 -0.0759  0.4253 -0.2809
  159OSM   H15F17882   1.216   2.315   3.690  1.2492  2.2599 -1.5955
  159OSM   H15G17883   1.032   2.303   3.691 -0.1297  0.7163  0.4793
  159OSM   C16F17884   1.097   2.488   3.763  0.5599  0.5108 -0.5037
  159OSM   H16F17885   0.994   2.521   3.740 -0.6727 -2.7899 -0.1808
  159OSM   H16G17886   1.165   2.573   3.741  0.3967  0.5691 -0.7798
  159OSM   C17F17887   1.117   2.454   3.909 -0.3233 -0.0212 -0.5628
  159OSM   H17F17888   1.221   2.423   3.930 -0.8246 -1.3488  0.0625
  159OSM   H17G17889   1.059   2.360   3.922 -0.0079 -0.0006  1.2479
  159OSM   C18F17890   1.059   2.558   4.001 -0.1013 -0.1324 -0.3780
  159OSM   H18F17891   1.082   2.517   4.102 -2.7271  0.4698  0.5265
  159OSM   H18G17892   0.950   2.552   3.979 -0.3342 -0.8588  0.8615
  159OSM   H18H17893   1.106   2.658   3.993 -0.7048  0.1543 -0.3520
  160OSM      N17894   5.679   1.527   1.837 -0.3110 -0.2945 -0.6320
  160OSM    C1517895   5.707   1.607   1.710 -0.0927  0.5553 -0.2833
  160OSM   H15A17896   5.617   1.664   1.692 -1.5719 -1.6202 -0.1839
  160OSM   H15B17897   5.713   1.534   1.630 -1.1332  0.4747 -0.2984
  160OSM   H15C17898   5.805   1.653   1.707  0.0755  0.1732 -0.8982
  160OSM    C1417899   5.541   1.485   1.842  0.6469  0.5154 -0.2564
  160OSM   H14A17900   5.503   1.483   1.741 -0.4570  3.7283 -0.0291
  160OSM   H14B17901   5.488   1.543   1.915  2.0172 -1.8531  2.8753
  160OSM   H14C17902   5.545   1.383   1.877 -1.0650  0.4129 -0.3080
  160OSM    C1317903   5.762   1.403   1.826 -0.5747 -0.1594  0.0922
  160OSM   H13A17904   5.867   1.419   1.809 -0.6518 -2.0618 -2.6705
  160OSM   H13B17905   5.736   1.340   1.742  0.6805 -1.7381  0.8246
  160OSM   H13C17906   5.748   1.342   1.915 -1.1729 -1.3999 -0.8279
  160OSM    C1217907   5.713   1.612   1.957  0.0502 -0.4882  0.7923
  160OSM   H12A17908   5.662   1.708   1.955  0.8534  0.0003  2.5054
  160OSM   H12B17909   5.815   1.647   1.950 -0.5473  1.9535  2.7277
  160OSM    C1117910   5.691   1.560   2.098 -0.7036 -0.4219 -0.2349
  160OSM   H11A17911   5.729   1.626   2.179 -0.8217 -0.5725 -0.0535
  160OSM   H11B17912   5.758   1.471   2.096 -1.1887 -0.7928 -0.2519
  160OSM      P17913   5.517   1.402   2.210 -0.4988 -0.0911 -0.1811
  160OSM    O1317914   5.392   1.427   2.288  0.7665 -0.0063  0.0466
  160OSM    O1417915   5.521   1.277   2.129  0.1529 -0.4908  1.0085
  160OSM    O1117916   5.642   1.403   2.316 -0.7207  0.6055  0.1433
  160OSM    O1217917   5.553   1.527   2.125  0.1001 -0.2916 -0.2532
  160OSM    C1S17918   5.610   1.430   2.456 -0.3390  0.1104  0.3002
  160OSM    H1S17919   5.527   1.363   2.487 -0.2542 -0.4075 -0.5527
  160OSM    H1T17920   5.581   1.536   2.470 -0.2071  0.0361  1.1879
  160OSM     NF17921   5.689   1.419   2.695 -1.5379  0.0504  0.2109
  160OSM    HNF17922   5.732   1.500   2.735 -0.2793  0.9543 -2.6693
  160OSM    C2S17923   5.723   1.392   2.552 -0.7017  0.4250 -1.0391
  160OSM    H2S17924   5.753   1.285   2.542 -2.3445 -0.1996  0.1836
  160OSM    C3S17925   5.855   1.456   2.492 -0.0095 -0.0482 -0.2604
  160OSM    H3S17926   5.830   1.563   2.476 -1.1936  0.2043  2.5933
  160OSM     O317927   5.906   1.396   2.375  0.4411  0.1713  0.1509
  160OSM    HO317928   5.839   1.343   2.332  2.3895 -1.2375 -1.3233
  160OSM    C4S17929   5.962   1.448   2.600  0.3464  0.5403  0.4344
  160OSM    H4S17930   6.016   1.352   2.594 -0.8820 -0.2906  1.7983
  160OSM    C5S17931   6.000   1.542   2.687  0.0778  0.0718 -0.0834
  160OSM    H5S17932   5.948   1.639   2.695  1.4561  0.7136  1.6633
  160OSM    C6S17933   6.101   1.528   2.791 -0.1607  0.5839  0.2230
  160OSM    H6S17934   6.152   1.625   2.809  1.2222  0.0624 -0.6807
  160OSM    H6T17935   6.182   1.459   2.758  0.3139  1.2624 -0.0552
  160OSM    C7S17936   6.037   1.478   2.924  0.3679  0.5651 -0.1605
  160OSM    H7S17937   6.118   1.476   3.000 -0.8877 -1.2566  1.1893
  160OSM    H7T17938   5.999   1.374   2.918 -0.2700  0.6621  1.7552
  160OSM    C8S17939   5.926   1.575   2.965 -0.2815  0.6148  0.3708
  160OSM    H8S17940   5.837   1.573   2.899 -0.0748 -1.6404  0.1177
  160OSM    H8T17941   5.963   1.677   2.938 -0.0546 -0.0235 -1.8970
  160OSM    C9S17942   5.875   1.555   3.105  0.4646 -0.3293  0.5597
  160OSM    H9S17943   5.956   1.564   3.180 -1.1526  0.7602  2.2679
  160OSM    H9T17944   5.817   1.461   3.119  0.3944 -0.5176 -0.8311
  160OSM   C10S17945   5.777   1.674   3.133  0.2823 -0.2997  0.0702
  160OSM   H10S17946   5.697   1.688   3.057  2.6076  1.2841 -2.2869
  160OSM   H10T17947   5.829   1.772   3.133  0.1762 -0.2026 -1.6044
  160OSM   C11S17948   5.699   1.660   3.264  0.1190 -0.2801 -0.1647
  160OSM   H11S17949   5.665   1.554   3.274  0.2399 -0.2889  0.1546
  160OSM   H11T17950   5.614   1.732   3.258  0.8961  0.7430  0.7712
  160OSM   C12S17951   5.774   1.717   3.394  0.0996  0.1419 -0.7755
  160OSM   H12S17952   5.797   1.826   3.385  1.5615 -0.1279 -0.5436
  160OSM   H12T17953   5.868   1.658   3.396  0.6872  1.0399 -1.4206
  160OSM   C13S17954   5.688   1.707   3.522 -0.0375 -0.2011  0.3877
  160OSM   H13S17955   5.753   1.714   3.612 -1.8395  0.7028  1.6939
  160OSM   H13T17956   5.637   1.609   3.526 -2.1297  0.8057 -0.4976
  160OSM   C14S17957   5.592   1.827   3.544 -0.0717  0.1346  0.2857
  160OSM   H14S17958   5.535   1.851   3.451  1.4037 -2.5894 -1.4580
  160OSM   H14T17959   5.663   1.912   3.552  1.1674 -0.8180 -0.2771
  160OSM   C15S17960   5.504   1.806   3.668 -0.0791  0.1946 -0.0025
  160OSM   H15S17961   5.475   1.911   3.689  1.0095 -0.1283  3.8065
  160OSM   H15T17962   5.563   1.770   3.755 -0.9551 -2.7350 -0.4910
  160OSM   C16S17963   5.374   1.718   3.650  0.2106  0.1978 -0.1746
  160OSM   H16S17964   5.412   1.615   3.630  1.0316  0.6301 -0.8878
  160OSM   H16T17965   5.315   1.752   3.562 -2.9309 -1.6584  1.0319
  160OSM   C17S17966   5.285   1.709   3.777 -0.1425 -0.3003  0.2268
  160OSM   H17S17967   5.260   1.816   3.793 -0.6679 -0.5093  0.8262
  160OSM   H17T17968   5.348   1.662   3.855  0.7471 -0.5583 -0.6238
  160OSM   C18S17969   5.149   1.646   3.762 -0.0407 -0.1735  0.4965
  160OSM   H18S17970   5.102   1.638   3.863 -0.7878 -0.1826  0.1526
  160OSM   H18T17971   5.155   1.547   3.711  0.5164 -0.7185  1.5610
  160OSM   H18U17972   5.076   1.696   3.697  1.1411  0.0730 -0.6794
  160OSM    C1F17973   5.586   1.358   2.751  0.5611  0.3581 -0.3700
  160OSM     OF17974   5.538   1.257   2.700 -0.0436 -0.3404 -0.1924
  160OSM    C2F17975   5.522   1.421   2.867  0.7634 -0.2965 -0.8232
  160OSM    H2F17976   5.437   1.482   2.830  1.0336 -0.4203 -1.6702
  160OSM    H2G17977   5.595   1.491   2.912  0.7165 -0.4952 -0.4368
  160OSM    C3F17978   5.466   1.327   2.977  0.0155 -0.0468  0.7226
  160OSM    H3F17979   5.547   1.257   3.007 -1.5625 -1.4401  1.9412
  160OSM    H3G17980   5.387   1.259   2.937 -0.6561  0.7901  0.5893
  160OSM    C4F17981   5.423   1.399   3.101  0.0495 -0.0403 -0.3048
  160OSM    H4F17982   5.341   1.472   3.082  0.1815  0.8241  2.0809
  160OSM    H4G17983   5.508   1.459   3.140 -1.5216  2.3269 -0.2806
  160OSM    C5F17984   5.368   1.309   3.221 -0.0142 -1.0620 -0.2177
  160OSM    H5F17985   5.460   1.252   3.247  1.1425 -0.8328 -3.3640
  160OSM    H5G17986   5.295   1.232   3.188 -1.0332 -0.3205  0.2301
  160OSM    C6F17987   5.324   1.396   3.334  0.7582 -0.5386 -0.4700
  160OSM    H6F17988   5.257   1.473   3.290  1.2613  0.4144  0.4137
  160OSM    H6G17989   5.408   1.461   3.368 -0.7020  2.1325 -1.6640
  160OSM    C7F17990   5.242   1.333   3.450 -0.0303  0.2409  0.0319
  160OSM    H7F17991   5.149   1.306   3.397  0.7841  1.3443 -2.0530
  160OSM    H7G17992   5.218   1.402   3.534 -2.9312 -0.8391  0.2044
  160OSM    C8F17993   5.315   1.208   3.491 -0.0864 -0.2113  0.0974
  160OSM    H8F17994   5.418   1.247   3.507  0.1000  0.1890 -1.8487
  160OSM    H8G17995   5.298   1.137   3.407  0.0424  1.7029 -1.6311
  160OSM    C9F17996   5.249   1.139   3.602 -0.6411 -0.1072  0.2749
  160OSM    H9F17997   5.198   1.045   3.574 -0.1420 -1.1180  2.5546
  160OSM   C10F17998   5.264   1.165   3.734 -0.1193 -0.5677  0.2383
  160OSM   H10F17999   5.223   1.097   3.810  0.4898 -0.4969  0.6425
  160OSM   C11F18000   5.356   1.266   3.793  0.9547  0.6007 -0.6130
  160OSM   H11F18001   5.407   1.325   3.714  0.1022  0.7044 -1.0988
  160OSM   H11G18002   5.443   1.222   3.847  1.0864 -0.5842 -1.7418
  160OSM   C12F18003   5.281   1.359   3.897 -0.3336 -0.5867 -0.1527
  160OSM   H12F18004   5.184   1.393   3.854 -0.0982  0.5051  0.1447
  160OSM   H12G18005   5.341   1.451   3.911 -1.8113  0.3340  0.3639
  160OSM   C13F18006   5.263   1.296   4.040 -0.5722  0.2423  0.1677
  160OSM   H13F18007   5.280   1.186   4.040 -2.7362 -0.1566 -0.9282
  160OSM   H13G18008   5.161   1.310   4.082 -1.0511  1.6551 -1.3299
  160OSM   C14F18009   5.362   1.354   4.149 -0.3442 -0.6936  0.4134
  160OSM   H14F18010   5.458   1.347   4.094 -0.6193 -0.6522 -0.0768
  160OSM   H14G18011   5.363   1.293   4.242  1.0169 -2.0027 -0.4163
  160OSM   C15F18012   5.344   1.502   4.191  0.5544  0.1728  0.2552
  160OSM   H15F18013   5.238   1.517   4.218  0.3207 -0.8489 -0.0429
  160OSM   H15G18014   5.366   1.572   4.108 -0.3689 -0.3310 -0.4297
  160OSM   C16F18015   5.434   1.544   4.306  0.0811 -0.4257 -0.0880
  160OSM   H16F18016   5.534   1.514   4.268 -0.3975 -1.8375 -0.3138
  160OSM   H16G18017   5.405   1.469   4.382 -2.3837  0.0150 -0.5116
  160OSM   C17F18018   5.434   1.688   4.353 -0.3931 -0.0395  0.0030
  160OSM   H17F18019   5.469   1.760   4.275  2.1150 -0.7868  0.3409
  160OSM   H17G18020   5.503   1.706   4.438 -0.5841  2.3661 -0.2753
  160OSM   C18F18021   5.306   1.736   4.412 -0.2747  0.1727 -0.6716
  160OSM   H18F18022   5.281   1.682   4.506  0.4366 -0.0231 -0.5869
  160OSM   H18G18023   5.222   1.715   4.343 -0.9734  0.3776  0.0916
  160OSM   H18H18024   5.308   1.845   4.434  2.6876 -0.0147  0.4337
  161OSM      N18025   2.076   0.334   1.836 -0.2208  0.4077 -0.4403
  161OSM    C1518026   1.945   0.354   1.760  0.1058  0.5216 -0.4809
  161OSM   H15A18027   1.867   0.408   1.810  1.4492  3.0009 -0.8945
  161OSM   H15B18028   1.909   0.266   1.710  0.8846  0.3107 -0.6886
  161OSM   H15C18029   1.969   0.418   1.677  0.4497 -0.1136 -0.8755
  161OSM    C1418030   2.074   0.196   1.905  0.2919  0.2119  0.7241
  161OSM   H14A18031   2.078   0.111   1.838  3.2213  0.6734  0.2043
  161OSM   H14B18032   1.990   0.186   1.973 -0.3315  0.9190  0.0715
  161OSM   H14C18033   2.162   0.179   1.966  0.8802 -1.6755 -0.5745
  161OSM    C1318034   2.189   0.340   1.744 -0.7683  0.2751 -0.4338
  161OSM   H13A18035   2.282   0.326   1.797 -1.7915  0.8403  1.6079
  161OSM   H13B18036   2.206   0.437   1.700 -0.0956  0.7023  0.7434
  161OSM   H13C18037   2.200   0.272   1.661  1.1764  0.1325 -0.0977
  161OSM    C1218038   2.100   0.443   1.936  0.1699  0.6055  0.1058
  161OSM   H12A18039   2.105   0.540   1.888  0.2221  0.6932  0.2839
  161OSM   H12B18040   2.195   0.434   1.987 -0.5902  0.2102  1.5083
  161OSM    C1118041   2.000   0.460   2.050  0.1491 -0.4535 -0.1031
  161OSM   H11A18042   2.035   0.531   2.128 -1.1885  0.3402 -0.1920
  161OSM   H11B18043   1.994   0.360   2.097  1.2899 -0.0415  0.9926
  161OSM      P18044   1.823   0.645   1.978 -0.3223  0.1443 -0.4152
  161OSM    O1318045   1.952   0.721   1.958 -0.3157 -0.1996 -0.2731
  161OSM    O1418046   1.721   0.640   1.870  0.2075  0.4943 -0.2583
  161OSM    O1118047   1.751   0.690   2.111  0.0901  0.2439 -0.2696
  161OSM    O1218048   1.861   0.496   2.011  0.1092  0.5040  0.2563
  161OSM    C1S18049   1.817   0.698   2.241  0.1132 -0.4774  0.2757
  161OSM    H1S18050   1.916   0.748   2.229 -0.9062  0.9922 -3.4396
  161OSM    H1T18051   1.833   0.596   2.281  1.1312 -0.2559  0.4691
  161OSM     NF18052   1.808   0.774   2.466 -0.5904  1.1267  0.2389
  161OSM    HNF18053   1.773   0.709   2.534  1.5989 -0.6084 -0.1802
  161OSM    C2S18054   1.729   0.768   2.345 -0.8873  0.2868 -0.1058
  161OSM    H2S18055   1.722   0.871   2.304  2.4863  0.3031 -0.9706
  161OSM    C3S18056   1.592   0.696   2.355 -0.8673 -0.2748 -0.3472
  161OSM    H3S18057   1.615   0.589   2.373  2.2899  0.3875  0.1426
  161OSM     O318058   1.514   0.704   2.234  0.3312  0.7719  0.5429
  161OSM    HO318059   1.581   0.720   2.168  1.4034 -0.7847  1.1757
  161OSM    C4S18060   1.511   0.759   2.463 -0.0890 -0.1525  0.5024
  161OSM    H4S18061   1.486   0.866   2.457 -0.1051 -0.0383  2.2475
  161OSM    C5S18062   1.494   0.698   2.585 -1.0328 -0.2337  0.7103
  161OSM    H5S18063   1.532   0.596   2.600 -2.2788 -0.7409  0.5397
  161OSM    C6S18064   1.422   0.767   2.700  0.2860  0.4060  0.4117
  161OSM    H6S18065   1.330   0.707   2.718 -0.5282  1.3151 -0.6005
  161OSM    H6T18066   1.394   0.870   2.669  1.5037  0.6996  0.2228
  161OSM    C7S18067   1.513   0.771   2.816  0.3597 -0.0192 -0.1709
  161OSM    H7S18068   1.614   0.817   2.808 -0.4614  1.8746 -0.2866
  161OSM    H7T18069   1.528   0.668   2.853 -1.6530 -0.1737  0.3198
  161OSM    C8S18070   1.442   0.846   2.939 -0.5206 -0.4512  0.7107
  161OSM    H8S18071   1.342   0.808   2.967  0.2326 -1.9686  1.5207
  161OSM    H8T18072   1.438   0.950   2.900  0.7341 -0.6103  0.1156
  161OSM    C9S18073   1.532   0.847   3.066 -0.4199 -0.0916 -0.4226
  161OSM    H9S18074   1.636   0.885   3.056 -0.3798 -0.6430 -2.7279
  161OSM    H9T18075   1.548   0.742   3.099 -0.9323 -0.1130 -0.2354
  161OSM   C10S18076   1.466   0.922   3.185  0.2400  0.1352  0.3522
  161OSM   H10S18077   1.364   0.882   3.203  0.7302 -0.8373  1.0837
  161OSM   H10T18078   1.463   1.030   3.158  1.9246 -0.0511 -0.7132
  161OSM   C11S18079   1.549   0.907   3.311  0.0470 -1.0299  0.3212
  161OSM   H11S18080   1.650   0.942   3.283  0.1957 -0.7249  1.2172
  161OSM   H11T18081   1.553   0.803   3.350 -0.4151 -1.3104 -0.3459
  161OSM   C12S18082   1.500   0.997   3.426 -0.7655  0.5538 -0.6560
  161OSM   H12S18083   1.402   0.962   3.466 -0.7235  1.4586  0.2772
  161OSM   H12T18084   1.488   1.101   3.387 -2.2371  0.1153 -1.4574
  161OSM   C13S18085   1.593   0.996   3.545  0.1943 -0.2098 -0.5390
  161OSM   H13S18086   1.686   1.052   3.520  0.1421  0.3903  0.5556
  161OSM   H13T18087   1.624   0.894   3.577 -0.1833  0.1039  0.9123
  161OSM   C14S18088   1.529   1.055   3.672 -0.0481  0.3103  0.0593
  161OSM   H14S18089   1.442   0.994   3.706  0.0088 -0.2389 -0.7565
  161OSM   H14T18090   1.493   1.157   3.644 -2.5263 -0.8558 -1.3021
  161OSM   C15S18091   1.619   1.050   3.798  0.9010 -0.4213 -0.3487
  161OSM   H15S18092   1.727   1.058   3.773  0.4454  3.4185 -1.9405
  161OSM   H15T18093   1.600   0.954   3.850 -0.8268 -0.7904 -1.5761
  161OSM   C16S18094   1.583   1.163   3.895  0.0287 -0.3649 -0.3351
  161OSM   H16S18095   1.477   1.146   3.923  0.3216 -0.7643  0.5846
  161OSM   H16T18096   1.598   1.254   3.833 -0.1562 -0.4004 -0.4339
  161OSM   C17S18097   1.679   1.180   4.014 -0.4967 -0.2417 -0.5872
  161OSM   H17S18098   1.669   1.278   4.064 -0.7338 -0.1821 -0.7511
  161OSM   H17T18099   1.780   1.199   3.970 -0.1148  0.6011  0.6065
  161OSM   C18S18100   1.704   1.052   4.104  0.2222 -0.5547  0.1019
  161OSM   H18S18101   1.745   0.975   4.035 -0.7549 -1.1337  0.1497
  161OSM   H18T18102   1.609   1.009   4.142  1.6159 -3.5575  0.4319
  161OSM   H18U18103   1.768   1.067   4.193  1.2248  0.8994 -0.8059
  161OSM    C1F18104   1.919   0.855   2.482 -0.1228  0.4297  0.7053
  161OSM     OF18105   1.939   0.936   2.395 -0.0447  0.4044  0.5305
  161OSM    C2F18106   2.001   0.837   2.604 -0.0954 -0.5379  0.5947
  161OSM    H2F18107   2.078   0.915   2.588  0.9196 -1.6313 -0.0236
  161OSM    H2G18108   2.047   0.737   2.589 -1.5856 -0.9926 -1.4011
  161OSM    C3F18109   1.925   0.861   2.735  0.0999 -0.5163 -0.2073
  161OSM    H3F18110   1.863   0.770   2.747  2.0616 -1.9944 -0.6215
  161OSM    H3G18111   1.867   0.955   2.725 -0.1060 -0.6711 -0.4694
  161OSM    C4F18112   2.017   0.853   2.861  0.8216 -0.2686 -0.2234
  161OSM    H4F18113   2.100   0.927   2.857  1.0012 -0.4656 -0.2289
  161OSM    H4G18114   2.065   0.753   2.870 -1.1077 -1.0694  2.1834
  161OSM    C5F18115   1.932   0.890   2.987 -0.0315 -0.1850 -0.9807
  161OSM    H5F18116   1.861   0.806   2.996 -0.3183  0.0680 -0.8629
  161OSM    H5G18117   1.887   0.991   2.976  0.1790  0.0389  0.0951
  161OSM    C6F18118   2.017   0.888   3.123  0.1493 -0.1163  0.4177
  161OSM    H6F18119   2.086   0.975   3.128 -0.5784  0.4820  0.2567
  161OSM    H6G18120   2.087   0.804   3.108 -0.7758 -0.6588 -1.1387
  161OSM    C7F18121   1.930   0.877   3.246  0.1978  0.5138 -0.8069
  161OSM    H7F18122   1.869   0.787   3.221 -0.3770  0.5534  0.3947
  161OSM    H7G18123   1.862   0.965   3.249 -0.7819 -0.2276  1.5402
  161OSM    C8F18124   2.007   0.857   3.381 -0.4252 -0.4947  0.5067
  161OSM    H8F18125   2.084   0.780   3.359 -0.8962 -0.6940 -0.5051
  161OSM    H8G18126   1.930   0.833   3.456 -1.6952 -0.8400 -0.8557
  161OSM    C9F18127   2.080   0.984   3.416 -0.1576 -0.0054  0.0038
  161OSM    H9F18128   2.144   1.027   3.337  2.3252  0.7624  2.2600
  161OSM   C10F18129   2.089   1.048   3.530  0.3874  0.0414 -0.2125
  161OSM   H10F18130   2.141   1.145   3.539 -0.1069  0.3106 -0.2606
  161OSM   C11F18131   2.023   1.008   3.659  0.5092  0.2390  0.5007
  161OSM   H11F18132   2.034   0.898   3.669  0.5499  0.2416  0.4846
  161OSM   H11G18133   1.917   1.039   3.655  0.1929 -0.9036 -0.6139
  161OSM   C12F18134   2.087   1.074   3.780  0.2796 -0.4779 -0.4445
  161OSM   H12F18135   2.059   1.181   3.767  1.3559  0.0826  1.4102
  161OSM   H12G18136   2.197   1.085   3.770  0.3400  2.2325  1.7051
  161OSM   C13F18137   2.045   1.021   3.919  0.1205 -0.3391 -0.2144
  161OSM   H13F18138   2.110   0.932   3.936  0.7221  0.1650  0.1505
  161OSM   H13G18139   1.938   0.994   3.931  0.3046 -0.3028  1.6728
  161OSM   C14F18140   2.091   1.114   4.030  0.6404  0.3302 -0.2175
  161OSM   H14F18141   2.021   1.200   4.032  1.7011  1.2550 -1.0288
  161OSM   H14G18142   2.190   1.156   4.002 -0.0008  0.3987 -2.5202
  161OSM   C15F18143   2.094   1.052   4.167 -0.1036  0.1775  0.4162
  161OSM   H15F18144   2.170   0.971   4.160 -1.1289 -0.6470 -2.4493
  161OSM   H15G18145   1.997   1.004   4.189 -0.0167 -1.5311 -2.4211
  161OSM   C16F18146   2.143   1.146   4.273 -0.1069 -0.0687 -0.1873
  161OSM   H16F18147   2.241   1.189   4.241 -0.5767  0.1873 -1.3216
  161OSM   H16G18148   2.166   1.094   4.369 -0.9052  0.0113  0.0509
  161OSM   C17F18149   2.045   1.258   4.327 -0.6746 -0.4158  0.1121
  161OSM   H17F18150   1.951   1.208   4.358 -1.7230  0.9431 -0.7582
  161OSM   H17G18151   2.019   1.335   4.251 -0.6389  0.2743  0.7824
  161OSM   C18F18152   2.107   1.329   4.455 -0.3266 -0.3333 -0.0046
  161OSM   H18F18153   2.184   1.403   4.424 -0.7394  0.2486  0.3404
  161OSM   H18G18154   2.169   1.256   4.511  0.4342 -0.2889 -0.7497
  161OSM   H18H18155   2.030   1.373   4.522 -0.1901 -0.8006  0.4595
  162OSM      N18156   3.355   2.068   1.924 -0.0464  0.2334 -0.0882
  162OSM    C1518157   3.488   2.055   1.855 -0.0096 -0.2206  0.4039
  162OSM   H15A18158   3.499   2.092   1.754  1.2008  0.4678  0.7757
  162OSM   H15B18159   3.514   1.950   1.859  0.0016 -0.1992  1.0611
  162OSM   H15C18160   3.556   2.119   1.909  0.1468  0.9356 -1.1188
  162OSM    C1418161   3.303   2.207   1.906  0.5681 -1.0348  0.2070
  162OSM   H14A18162   3.296   2.231   1.801  2.2335  0.8385  0.4614
  162OSM   H14B18163   3.368   2.285   1.944  1.5262 -2.1229  0.8951
  162OSM   H14C18164   3.209   2.227   1.956  0.2293 -1.0000 -0.4376
  162OSM    C1318165   3.261   1.980   1.850  0.2938  0.2651  0.7091
  162OSM   H13A18166   3.248   2.025   1.753  0.1974  1.3393  1.2136
  162OSM   H13B18167   3.166   1.980   1.900  0.0857  0.6267  0.3200
  162OSM   H13C18168   3.309   1.883   1.845 -0.9074 -0.5129  2.8952
  162OSM    C1218169   3.361   2.029   2.072  0.0549  0.1957  0.1183
  162OSM   H12A18170   3.276   2.071   2.125  0.2433  0.8135 -0.0548
  162OSM   H12B18171   3.443   2.088   2.111 -0.6400  0.8199  0.6781
  162OSM    C1118172   3.363   1.884   2.116 -0.3468 -0.1467  0.1903
  162OSM   H11A18173   3.271   1.839   2.074  0.1068 -1.3398  0.4315
  162OSM   H11B18174   3.368   1.872   2.227  1.0510 -2.3149 -0.0429
  162OSM      P18175   3.506   1.674   2.086 -0.2981 -0.5566 -0.0263
  162OSM    O1318176   3.495   1.602   1.959  0.0945  0.2491 -0.4713
  162OSM    O1418177   3.632   1.658   2.162 -0.0791  0.8740  0.3302
  162OSM    O1118178   3.388   1.637   2.182 -0.9154  0.7145 -0.0105
  162OSM    O1218179   3.479   1.823   2.059  0.5514  0.4625 -0.1095
  162OSM    C1S18180   3.367   1.505   2.227  0.0902  0.2696 -0.2055
  162OSM    H1S18181   3.460   1.443   2.232 -1.3322 -1.9831 -0.3693
  162OSM    H1T18182   3.309   1.451   2.149 -0.7366  2.8939 -1.5106
  162OSM     NF18183   3.311   1.365   2.427  0.0300  0.4218 -0.1300
  162OSM    HNF18184   3.225   1.315   2.435  0.0982  0.4233  0.8171
  162OSM    C2S18185   3.308   1.499   2.366 -0.4756 -0.0854 -0.1740
  162OSM    H2S18186   3.356   1.565   2.441 -2.4187 -0.9099  1.9201
  162OSM    C3S18187   3.158   1.560   2.358  0.1302 -0.2313  0.2258
  162OSM    H3S18188   3.090   1.485   2.313 -0.9960  3.0830 -4.2575
  162OSM     O318189   3.133   1.656   2.266 -0.7342 -0.3828 -0.5254
  162OSM    HO318190   3.219   1.679   2.228  0.6244  0.8083  2.8996
  162OSM    C4S18191   3.098   1.598   2.487 -0.2881  0.3221 -0.2453
  162OSM    H4S18192   3.153   1.671   2.548  1.9358 -2.5332  1.4313
  162OSM    C5S18193   2.987   1.548   2.537  0.1883  0.1068 -0.4506
  162OSM    H5S18194   2.933   1.475   2.475  3.2315 -1.9384 -0.9425
  162OSM    C6S18195   2.934   1.574   2.674  0.6672 -0.5054 -0.3137
  162OSM    H6S18196   2.932   1.480   2.733  1.7848  0.5367  1.4809
  162OSM    H6T18197   2.827   1.605   2.673  0.7574  0.0007 -3.1224
  162OSM    C7S18198   3.022   1.670   2.759 -0.1556  0.2474  0.9723
  162OSM    H7S18199   3.043   1.764   2.704 -1.3249  1.4622  2.5208
  162OSM    H7T18200   3.124   1.629   2.772 -0.8787 -1.5004  1.5754
  162OSM    C8S18201   2.965   1.708   2.899  0.1931  0.1238 -0.1574
  162OSM    H8S18202   2.863   1.752   2.892 -0.0504 -0.4830 -0.4797
  162OSM    H8T18203   3.028   1.797   2.923 -0.2965  0.3009  0.4924
  162OSM    C9S18204   2.973   1.607   3.008  0.0162  0.5254 -0.0290
  162OSM    H9S18205   3.066   1.547   3.019  0.8119  1.9585  1.7349
  162OSM    H9T18206   2.899   1.527   2.991  0.8278 -0.9368  2.7302
  162OSM   C10S18207   2.939   1.668   3.140  0.3693  0.0240 -0.2942
  162OSM   H10S18208   2.917   1.587   3.213 -0.9781 -0.9628 -1.7179
  162OSM   H10T18209   2.844   1.725   3.127  0.2635 -0.1416 -0.2577
  162OSM   C11S18210   3.046   1.753   3.209  0.1050  0.3797  0.2531
  162OSM   H11S18211   3.082   1.837   3.146  0.3845 -0.3119 -0.5345
  162OSM   H11T18212   3.137   1.699   3.242  0.0016  0.9313  1.4860
  162OSM   C12S18213   2.995   1.806   3.343  0.0150 -0.4578  0.7326
  162OSM   H12S18214   2.965   1.720   3.406 -0.7378  0.1681  1.2337
  162OSM   H12T18215   2.912   1.878   3.329 -0.2229 -1.1241 -1.8985
  162OSM   C13S18216   3.108   1.884   3.410 -0.3858 -0.8743 -0.5064
  162OSM   H13S18217   3.143   1.975   3.355  4.9614 -0.3036  3.1271
  162OSM   H13T18218   3.192   1.812   3.411 -0.8243 -1.4024 -0.8437
  162OSM   C14S18219   3.064   1.925   3.551 -0.5262 -0.6761 -0.2364
  162OSM   H14S18220   3.025   1.833   3.599 -1.2750  0.2338  0.9639
  162OSM   H14T18221   2.989   2.007   3.542  1.9225  1.5223 -2.0238
  162OSM   C15S18222   3.182   1.975   3.633 -0.4954 -0.6303 -0.4289
  162OSM   H15S18223   3.215   2.076   3.599  1.4982 -0.0082  2.8736
  162OSM   H15T18224   3.267   1.906   3.614 -1.1038 -0.8049 -2.8031
  162OSM   C16S18225   3.158   1.976   3.789 -0.6557  0.0534 -0.2255
  162OSM   H16S18226   3.088   1.895   3.820 -2.4233  1.7202  0.3567
  162OSM   H16T18227   3.114   2.073   3.821  1.1027  0.8063  0.0440
  162OSM   C17S18228   3.279   1.972   3.872 -0.2860  0.0883 -0.2976
  162OSM   H17S18229   3.339   2.064   3.854 -0.9865  0.7391  0.5870
  162OSM   H17T18230   3.348   1.885   3.861  1.6390  1.3793  0.8737
  162OSM   C18S18231   3.237   1.983   4.021 -0.3982  0.3484  0.0314
  162OSM   H18S18232   3.326   1.992   4.087  0.0647 -0.5865 -0.4414
  162OSM   H18T18233   3.174   1.894   4.044 -0.1505 -0.2722 -1.5717
  162OSM   H18U18234   3.174   2.072   4.040 -0.0347  0.6103  0.0297
  162OSM    C1F18235   3.422   1.299   2.463 -0.5300 -0.3883 -0.0818
  162OSM     OF18236   3.537   1.341   2.429 -0.4967 -0.6061  0.3402
  162OSM    C2F18237   3.401   1.171   2.544 -0.4141 -0.2769  0.1175
  162OSM    H2F18238   3.501   1.140   2.581 -0.2602 -0.6904 -0.6054
  162OSM    H2G18239   3.377   1.086   2.477  3.0814 -2.0566  0.8716
  162OSM    C3F18240   3.297   1.178   2.656  0.6176  0.0712  0.1633
  162OSM    H3F18241   3.305   1.077   2.701  0.5926  0.3561  0.8160
  162OSM    H3G18242   3.193   1.183   2.617  0.5998 -1.4570 -0.0372
  162OSM    C4F18243   3.322   1.277   2.765  0.0519 -0.2630  0.3910
  162OSM    H4F18244   3.307   1.384   2.739  0.7651  0.2797  2.1369
  162OSM    H4G18245   3.431   1.273   2.786  0.3936  2.3366 -0.4951
  162OSM    C5F18246   3.250   1.255   2.902 -0.0784 -0.4025  0.1205
  162OSM    H5F18247   3.234   1.150   2.936 -0.3574 -0.1755  0.7194
  162OSM    H5G18248   3.147   1.294   2.887  0.5867  0.3920 -2.7853
  162OSM    C6F18249   3.319   1.337   3.017  0.4827 -0.1506 -0.2145
  162OSM    H6F18250   3.315   1.444   2.987  0.4889  0.1923  0.9708
  162OSM    H6G18251   3.430   1.322   3.016  0.3310 -1.7464 -2.6253
  162OSM    C7F18252   3.244   1.304   3.147  0.3870 -0.0603 -0.0157
  162OSM    H7F18253   3.289   1.211   3.187  0.7629  0.7476  1.5295
  162OSM    H7G18254   3.135   1.297   3.127  0.2653  0.7069  0.3142
  162OSM    C8F18255   3.263   1.423   3.249 -0.2271 -0.2411  0.2171
  162OSM    H8F18256   3.222   1.520   3.212 -2.5328 -0.0991  2.7844
  162OSM    H8G18257   3.370   1.452   3.255 -0.5990  1.1019  0.7384
  162OSM    C9F18258   3.198   1.393   3.382 -0.5886 -0.1317  0.9396
  162OSM    H9F18259   3.110   1.327   3.381 -0.1841 -0.6742 -0.7588
  162OSM   C10F18260   3.237   1.429   3.504 -0.8149 -0.3870  0.7095
  162OSM   H10F18261   3.173   1.396   3.588 -1.4042 -0.9536  0.0460
  162OSM   C11F18262   3.365   1.512   3.524  0.4814 -0.0849  0.8910
  162OSM   H11F18263   3.382   1.581   3.439  1.1641  0.1746  1.2362
  162OSM   H11G18264   3.439   1.429   3.525 -0.2376 -0.8511 -1.5577
  162OSM   C12F18265   3.363   1.581   3.662  0.2917 -0.1971  0.0845
  162OSM   H12F18266   3.263   1.629   3.667 -0.9017 -2.3472 -1.6169
  162OSM   H12G18267   3.439   1.661   3.675  2.3774 -2.3524  2.1134
  162OSM   C13F18268   3.377   1.491   3.783  0.7537  0.8760  1.4868
  162OSM   H13F18269   3.474   1.439   3.772  1.0698  1.8327 -0.8660
  162OSM   H13G18270   3.295   1.415   3.776  0.5229  1.2161  0.3162
  162OSM   C14F18271   3.370   1.549   3.922  0.5366 -0.3966  0.4260
  162OSM   H14F18272   3.275   1.607   3.931  0.6578  0.0533 -0.9028
  162OSM   H14G18273   3.450   1.626   3.929 -2.0700  2.4151  1.6565
  162OSM   C15F18274   3.385   1.461   4.047  0.2263 -0.5898 -0.1605
  162OSM   H15F18275   3.488   1.418   4.048 -0.0953 -1.4236  1.5465
  162OSM   H15G18276   3.317   1.378   4.018  1.5067 -1.1812 -1.5944
  162OSM   C16F18277   3.326   1.507   4.182 -0.7330  0.1639 -0.7294
  162OSM   H16F18278   3.334   1.416   4.246 -1.8129  0.2557 -0.4612
  162OSM   H16G18279   3.218   1.531   4.181 -0.9161 -0.5470  0.3382
  162OSM   C17F18280   3.401   1.619   4.250 -0.6846 -0.1035 -0.0013
  162OSM   H17F18281   3.405   1.713   4.190  1.4048 -0.6968 -0.8744
  162OSM   H17G18282   3.507   1.592   4.271 -0.4040  0.7613 -0.2480
  162OSM   C18F18283   3.327   1.658   4.383 -0.0408 -0.3470 -0.1898
  162OSM   H18F18284   3.233   1.712   4.358  0.7954  3.1178  3.1222
  162OSM   H18G18285   3.403   1.705   4.449  0.1431  0.6749 -1.1103
  162OSM   H18H18286   3.299   1.560   4.429 -1.3630 -1.1558 -2.5630
  163OSM      N18287   1.705   1.082   1.990  0.4356  0.1923 -0.1647
  163OSM    C1518288   1.639   0.949   1.994  1.2365 -0.1883 -0.0668
  163OSM   H15A18289   1.544   0.974   2.038  2.1635  1.4057  1.1451
  163OSM   H15B18290   1.683   0.883   2.066 -2.7330 -1.6534  1.2699
  163OSM   H15C18291   1.619   0.908   1.896  0.8783  0.2423 -0.1824
  163OSM    C1418292   1.609   1.173   1.910  0.1417 -0.3122  0.1824
  163OSM   H14A18293   1.652   1.272   1.902  2.2637 -1.2253 -0.2539
  163OSM   H14B18294   1.512   1.183   1.956  0.6823 -0.9774  1.5023
  163OSM   H14C18295   1.604   1.131   1.811  2.4805  0.1029 -0.1724
  163OSM    C1318296   1.725   1.130   2.133 -0.4211  0.5256  0.3936
  163OSM   H13A18297   1.636   1.136   2.195 -0.9034  3.6710 -0.3944
  163OSM   H13B18298   1.776   1.225   2.133  0.7446 -0.0854  0.6061
  163OSM   H13C18299   1.798   1.066   2.180  0.2240  1.7487  1.1212
  163OSM    C1218300   1.846   1.067   1.919  0.3605 -0.5603 -0.4116
  163OSM   H12A18301   1.826   1.023   1.822  0.1992 -2.5645  0.4811
  163OSM   H12B18302   1.895   0.987   1.972  0.8694 -0.9844 -1.4916
  163OSM    C1118303   1.933   1.186   1.896  0.6525  0.1673  0.5248
  163OSM   H11A18304   2.020   1.149   1.838  1.0129  2.1958 -0.3203
  163OSM   H11B18305   1.975   1.208   1.996 -0.8829  0.0111  1.2235
  163OSM      P18306   1.860   1.442   1.904  0.1382  0.1183  0.1519
  163OSM    O1318307   1.963   1.542   1.874  0.3824 -0.0342 -0.0227
  163OSM    O1418308   1.725   1.480   1.865  0.0795 -0.0610  0.1073
  163OSM    O1118309   1.875   1.408   2.058 -0.1486  0.2612  0.3581
  163OSM    O1218310   1.877   1.307   1.824  0.3919  0.3768  0.2396
  163OSM    C1S18311   1.832   1.487   2.159  0.0230 -0.6012 -0.6686
  163OSM    H1S18312   1.721   1.494   2.161  0.1186  1.5315  0.5739
  163OSM    H1T18313   1.872   1.590   2.145  0.4575 -0.9599 -2.1841
  163OSM     NF18314   1.831   1.513   2.405  0.9632 -0.4993 -0.0731
  163OSM    HNF18315   1.887   1.591   2.429 -0.3879  0.6569 -0.5708
  163OSM    C2S18316   1.883   1.434   2.296  0.0974 -0.2177  0.0753
  163OSM    H2S18317   1.845   1.329   2.304 -1.9827  0.2073 -2.6032
  163OSM    C3S18318   2.036   1.428   2.303 -0.0652  0.7075 -0.1866
  163OSM    H3S18319   2.089   1.524   2.319  1.3521  0.1334 -1.2087
  163OSM     O318320   2.088   1.373   2.181 -0.1184  0.0484 -0.0248
  163OSM    HO318321   2.011   1.371   2.124  0.3478  1.1767 -0.7132
  163OSM    C4S18322   2.079   1.341   2.419  0.0857  0.1341  0.4339
  163OSM    H4S18323   2.041   1.239   2.429 -0.8268  0.6293  2.3775
  163OSM    C5S18324   2.158   1.373   2.517 -0.1092 -0.3619 -0.5449
  163OSM    H5S18325   2.205   1.472   2.509 -1.2827  0.2347 -0.2726
  163OSM    C6S18326   2.190   1.283   2.638 -0.0967 -0.2090 -0.1069
  163OSM    H6S18327   2.299   1.265   2.646 -0.4072 -1.6149  1.5258
  163OSM    H6T18328   2.135   1.186   2.632 -0.2888 -0.0289 -2.9262
  163OSM    C7S18329   2.146   1.358   2.763  0.1616 -0.5664 -0.2739
  163OSM    H7S18330   2.039   1.327   2.774 -0.4672 -1.1257 -5.3473
  163OSM    H7T18331   2.161   1.468   2.765 -0.7705 -0.4319  1.7490
  163OSM    C8S18332   2.214   1.309   2.890  0.6847  0.3169  0.0043
  163OSM    H8S18333   2.321   1.338   2.902  0.7429 -0.2523  1.0231
  163OSM    H8T18334   2.215   1.198   2.887  1.0273  0.3217 -0.1192
  163OSM    C9S18335   2.142   1.341   3.022 -0.0426  0.4659  0.4346
  163OSM    H9S18336   2.041   1.294   3.017 -1.2468  2.6848  2.0583
  163OSM    H9T18337   2.124   1.448   3.047  1.9434  0.5559  1.6703
  163OSM   C10S18338   2.222   1.291   3.140 -0.0150  0.9026 -0.0687
  163OSM   H10S18339   2.332   1.292   3.126  0.3598 -3.6748  1.1205
  163OSM   H10T18340   2.184   1.187   3.148  1.5278  0.1883 -1.4818
  163OSM   C11S18341   2.185   1.357   3.274  1.2916  0.0449 -0.1833
  163OSM   H11S18342   2.081   1.334   3.307  2.4158 -4.0104  1.2439
  163OSM   H11T18343   2.191   1.465   3.249  3.1292 -0.5082 -2.4282
  163OSM   C12S18344   2.273   1.323   3.392 -0.1814 -0.2494 -0.1414
  163OSM   H12S18345   2.377   1.352   3.366  0.0371  0.6494  1.5849
  163OSM   H12T18346   2.280   1.213   3.403 -1.4060 -0.4064 -0.7332
  163OSM   C13S18347   2.227   1.384   3.526  0.0935 -0.1108 -0.9557
  163OSM   H13S18348   2.119   1.366   3.548 -0.4684  0.9955 -2.6118
  163OSM   H13T18349   2.239   1.494   3.524 -0.3417  0.0348  1.3705
  163OSM   C14S18350   2.321   1.332   3.634 -0.4627  0.0845 -0.1928
  163OSM   H14S18351   2.423   1.331   3.591 -0.2007 -1.3803  0.3915
  163OSM   H14T18352   2.305   1.227   3.664 -0.0431 -0.3573 -1.4680
  163OSM   C15S18353   2.300   1.414   3.763 -0.0467 -0.0103 -0.0834
  163OSM   H15S18354   2.193   1.410   3.792 -0.0831  1.9430  0.2074
  163OSM   H15T18355   2.315   1.520   3.733  2.1768 -0.8514 -2.3476
  163OSM   C16S18356   2.381   1.359   3.872 -0.5953  0.4209 -1.1231
  163OSM   H16S18357   2.485   1.334   3.843 -0.2516  0.5647 -0.0324
  163OSM   H16T18358   2.337   1.263   3.906  1.1328  0.2513  0.7680
  163OSM   C17S18359   2.368   1.441   4.009  0.0090  0.0438  0.3506
  163OSM   H17S18360   2.408   1.375   4.088  0.0402 -1.1328 -0.6068
  163OSM   H17T18361   2.264   1.468   4.036 -0.2055 -0.4990  0.0840
  163OSM   C18S18362   2.444   1.571   3.994  0.3478  0.1982  0.4681
  163OSM   H18S18363   2.387   1.644   3.931  0.9955  1.1119  0.9159
  163OSM   H18T18364   2.544   1.547   3.952  0.5752  0.9389  0.5651
  163OSM   H18U18365   2.455   1.618   4.094 -1.1244 -0.0064  0.7499
  163OSM    C1F18366   1.701   1.518   2.431 -0.7430 -0.5937  1.0368
  163OSM     OF18367   1.624   1.432   2.384 -1.0690 -0.4482 -0.2294
  163OSM    C2F18368   1.655   1.638   2.496  0.4398 -0.7113 -0.5286
  163OSM    H2F18369   1.699   1.731   2.455  0.6276  0.1216  1.4539
  163OSM    H2G18370   1.689   1.634   2.601 -1.0481  0.6316  0.0350
  163OSM    C3F18371   1.503   1.659   2.504  0.2530  0.5866  0.1160
  163OSM    H3F18372   1.460   1.561   2.532  2.6685 -0.8472 -0.8811
  163OSM    H3G18373   1.456   1.673   2.405 -1.7167 -0.3238  0.8732
  163OSM    C4F18374   1.472   1.775   2.596 -0.1968 -0.4032 -1.0214
  163OSM    H4F18375   1.365   1.804   2.581 -0.2092  0.4033  0.4461
  163OSM    H4G18376   1.539   1.862   2.582  1.7024 -1.1422  2.4076
  163OSM    C5F18377   1.480   1.726   2.746  0.0473 -0.1220 -0.1144
  163OSM    H5F18378   1.584   1.691   2.767  0.1487 -0.4987 -1.1657
  163OSM    H5G18379   1.426   1.630   2.764 -2.4371  1.0251 -1.0840
  163OSM    C6F18380   1.456   1.821   2.853 -0.0268  0.1739  0.3781
  163OSM    H6F18381   1.348   1.846   2.847 -0.1441 -0.5566 -1.5480
  163OSM    H6G18382   1.523   1.909   2.836  1.3453 -1.2472 -2.1506
  163OSM    C7F18383   1.490   1.764   2.996  0.6212 -0.2587  0.1057
  163OSM    H7F18384   1.590   1.717   3.005  0.9820  0.0031 -1.9872
  163OSM    H7G18385   1.418   1.682   3.017 -0.7774  0.7962 -0.3953
  163OSM    C8F18386   1.465   1.857   3.113  1.0947  0.0924 -0.2724
  163OSM    H8F18387   1.452   1.801   3.208 -0.1774  0.3079 -0.3071
  163OSM    H8G18388   1.381   1.927   3.093  0.6557 -0.6530 -1.1025
  163OSM    C9F18389   1.590   1.942   3.134 -0.2005 -0.3868  1.1534
  163OSM    H9F18390   1.634   1.978   3.040  1.6579 -1.0468  1.7179
  163OSM   C10F18391   1.659   1.973   3.241  0.0485 -0.0724  0.1552
  163OSM   H10F18392   1.732   2.055   3.235 -1.0761  0.8458 -2.0879
  163OSM   C11F18393   1.623   1.924   3.381  0.2025 -0.3639 -0.2008
  163OSM   H11F18394   1.581   1.821   3.380  0.7911 -0.6947  2.6390
  163OSM   H11G18395   1.541   1.989   3.418  2.2252  2.7763 -0.8258
  163OSM   C12F18396   1.736   1.924   3.481  0.1321 -0.0342 -0.4168
  163OSM   H12F18397   1.788   2.022   3.485 -2.0307  1.1652 -0.2384
  163OSM   H12G18398   1.812   1.858   3.434 -0.9891 -0.2200 -2.1014
  163OSM   C13F18399   1.709   1.870   3.621 -0.1383  0.3803 -0.1419
  163OSM   H13F18400   1.813   1.852   3.656  1.1435 -0.5090 -3.9548
  163OSM   H13G18401   1.646   1.779   3.616 -0.4627  0.5216  0.9728
  163OSM   C14F18402   1.642   1.976   3.706 -0.3055  0.2396 -0.2951
  163OSM   H14F18403   1.553   2.013   3.651 -0.1870  1.6783  0.4311
  163OSM   H14G18404   1.715   2.060   3.704 -0.5333  0.5289  1.8754
  163OSM   C15F18405   1.620   1.950   3.857 -0.4299 -0.2453  0.1630
  163OSM   H15F18406   1.608   1.842   3.881  0.8074 -1.0510 -2.4291
  163OSM   H15G18407   1.524   2.002   3.879 -0.0354  1.3464 -1.6567
  163OSM   C16F18408   1.732   2.010   3.934 -0.4653  0.7716 -0.6978
  163OSM   H16F18409   1.750   2.118   3.913  0.1621  0.5526 -1.2988
  163OSM   H16G18410   1.818   1.951   3.897 -0.0205  1.0135 -0.0716
  163OSM   C17F18411   1.723   1.980   4.088 -0.4602  0.0929  0.4397
  163OSM   H17F18412   1.704   1.871   4.100  0.3668 -0.0559  0.4565
  163OSM   H17G18413   1.634   2.033   4.128 -0.1936  0.9883 -0.0997
  163OSM   C18F18414   1.844   2.018   4.174 -0.2457  0.2634 -0.1668
  163OSM   H18F18415   1.816   2.085   4.258 -0.4401  0.1656 -0.1520
  163OSM   H18G18416   1.916   2.071   4.108  0.4214 -0.4122  0.0081
  163OSM   H18H18417   1.889   1.927   4.218  1.6835  0.8012 -0.9094
  164OSM      N18418   5.608   0.654   2.223  0.1417  0.4041  0.5580
  164OSM    C1518419   5.688   0.583   2.111  0.6951  0.5877 -0.0295
  164OSM   H15A18420   5.721   0.486   2.145  1.0384  0.7467  0.0838
  164OSM   H15B18421   5.771   0.639   2.073  0.5111 -0.4161 -2.0727
  164OSM   H15C18422   5.620   0.558   2.030  0.6007  0.7318  0.0052
  164OSM    C1418423   5.488   0.572   2.251  0.1449 -0.7501  0.2342
  164OSM   H14A18424   5.414   0.618   2.315 -1.6681  0.1398 -2.3320
  164OSM   H14B18425   5.507   0.473   2.291 -1.0715 -0.7161  0.9433
  164OSM   H14C18426   5.429   0.568   2.161  1.4875  1.0751 -0.7812
  164OSM    C1318427   5.697   0.661   2.343  0.4360  0.6585  0.8919
  164OSM   H13A18428   5.786   0.714   2.313  0.7627  0.0764  0.8106
  164OSM   H13B18429   5.710   0.564   2.388  2.7809 -1.0278 -2.9000
  164OSM   H13C18430   5.643   0.713   2.421 -2.0775 -2.1442  1.1978
  164OSM    C1218431   5.566   0.784   2.176 -0.1128  0.0586  0.0784
  164OSM   H12A18432   5.654   0.840   2.148  2.3422 -3.0586  0.9765
  164OSM   H12B18433   5.522   0.849   2.251 -0.1979  2.6612 -2.0663
  164OSM    C1118434   5.464   0.802   2.066 -0.5607  0.8188 -0.0446
  164OSM   H11A18435   5.491   0.726   1.990  2.7542  2.4450 -0.6714
  164OSM   H11B18436   5.484   0.903   2.023  1.3429  0.3631 -0.3012
  164OSM      P18437   5.248   0.896   2.175  0.4302  0.3731  0.1205
  164OSM    O1318438   5.245   1.003   2.069 -0.2556  0.0423  0.4852
  164OSM    O1418439   5.120   0.847   2.228  0.3924  0.1414  0.5439
  164OSM    O1118440   5.353   0.932   2.291  0.3649  0.0354  0.4630
  164OSM    O1218441   5.324   0.775   2.115 -0.1706  0.0947  0.1990
  164OSM    C1S18442   5.349   1.057   2.357 -0.0668 -0.4459 -0.3543
  164OSM    H1S18443   5.249   1.103   2.345  0.0921  0.1412  0.4617
  164OSM    H1T18444   5.423   1.133   2.325 -0.4571  0.4141  0.7499
  164OSM     NF18445   5.319   1.193   2.559 -0.6622  0.2240 -0.8823
  164OSM    HNF18446   5.396   1.230   2.611 -0.2195  0.6355 -1.8124
  164OSM    C2S18447   5.343   1.056   2.512  0.4415  0.1271 -0.0220
  164OSM    H2S18448   5.247   1.006   2.536  1.2587 -1.5157  0.0320
  164OSM    C3S18449   5.455   0.973   2.582 -0.5837 -0.4766  0.7272
  164OSM    H3S18450   5.552   1.025   2.573 -0.7995 -0.4543 -2.0580
  164OSM     O318451   5.492   0.852   2.518  0.0198  0.3185 -0.1801
  164OSM    HO318452   5.432   0.847   2.443 -1.0291  1.2144  0.5711
  164OSM    C4S18453   5.425   0.958   2.723 -0.8210  0.2824 -0.6101
  164OSM    H4S18454   5.503   0.998   2.790 -1.4585  0.0046  0.3109
  164OSM    C5S18455   5.331   0.882   2.782 -0.6061  0.0398  0.0343
  164OSM    H5S18456   5.282   0.810   2.715  1.1239  1.2310 -2.6802
  164OSM    C6S18457   5.307   0.856   2.925  0.6189 -0.1579 -0.3979
  164OSM    H6S18458   5.293   0.747   2.940 -0.8677 -0.0871 -1.0871
  164OSM    H6T18459   5.212   0.904   2.957  1.2856  0.2460  1.0481
  164OSM    C7S18460   5.410   0.906   3.016 -0.3064 -0.1057 -0.5964
  164OSM    H7S18461   5.414   1.017   3.012 -0.1796 -0.0770  0.1919
  164OSM    H7T18462   5.507   0.862   2.984 -0.1693 -0.8029  0.7046
  164OSM    C8S18463   5.370   0.874   3.159  0.2153 -0.5522 -0.6168
  164OSM    H8S18464   5.350   0.765   3.167  3.3846 -1.2293 -0.7613
  164OSM    H8T18465   5.278   0.924   3.196  0.2729 -1.7389  1.2689
  164OSM    C9S18466   5.477   0.892   3.268 -0.5299  1.0608  0.4235
  164OSM    H9S18467   5.498   1.001   3.279 -0.6777  1.2415 -0.9391
  164OSM    H9T18468   5.569   0.837   3.237 -1.7023  0.0795 -1.5038
  164OSM   C10S18469   5.428   0.847   3.409  0.3670 -0.8810  0.6080
  164OSM   H10S18470   5.379   0.749   3.395  1.7708 -1.3954 -1.0710
  164OSM   H10T18471   5.334   0.900   3.435  1.0975  0.9981 -0.3759
  164OSM   C11S18472   5.539   0.868   3.519  0.5985  0.5474  0.1531
  164OSM   H11S18473   5.547   0.978   3.528  0.0499  0.4748  1.9398
  164OSM   H11T18474   5.636   0.823   3.487 -0.2627 -1.4162  0.1857
  164OSM   C12S18475   5.496   0.811   3.653 -0.2501  0.4906 -0.4603
  164OSM   H12S18476   5.507   0.701   3.656  2.3559  0.6353 -1.6205
  164OSM   H12T18477   5.388   0.827   3.670 -0.5866 -0.9762 -1.1202
  164OSM   C13S18478   5.571   0.882   3.765  0.1150 -0.2293 -1.0585
  164OSM   H13S18479   5.554   0.992   3.761 -0.3642 -0.0689  2.5160
  164OSM   H13T18480   5.681   0.885   3.748  0.3340  0.2808  0.3236
  164OSM   C14S18481   5.526   0.824   3.900 -0.0880 -0.8597  0.1656
  164OSM   H14S18482   5.548   0.716   3.914  1.4066 -0.3557  2.1148
  164OSM   H14T18483   5.418   0.847   3.906  0.2207  0.7494  0.0898
  164OSM   C15S18484   5.594   0.906   4.019 -0.2840  0.7345  0.6725
  164OSM   H15S18485   5.548   1.007   4.012 -1.2517  0.2151 -1.7120
  164OSM   H15T18486   5.702   0.914   3.995 -0.6094  1.2852 -0.7140
  164OSM   C16S18487   5.597   0.845   4.158 -0.1336  0.0714 -0.4744
  164OSM   H16S18488   5.618   0.737   4.169 -1.3954 -0.2703 -1.1831
  164OSM   H16T18489   5.491   0.854   4.192 -0.3325 -2.8482 -0.1027
  164OSM   C17S18490   5.664   0.939   4.268 -0.0243 -0.6716 -0.3533
  164OSM   H17S18491   5.766   0.965   4.231  1.6932 -3.1579  2.1844
  164OSM   H17T18492   5.676   0.872   4.356  1.4549 -0.4287 -0.3359
  164OSM   C18S18493   5.582   1.068   4.298  0.2038 -0.0410  0.4945
  164OSM   H18S18494   5.536   1.100   4.202  1.6755 -0.2019 -0.2941
  164OSM   H18T18495   5.648   1.146   4.340 -1.2533  0.7184  1.4655
  164OSM   H18U18496   5.500   1.053   4.372  0.6202  0.8165  1.1442
  164OSM    C1F18497   5.211   1.261   2.551  0.2407 -0.4742 -0.4838
  164OSM     OF18498   5.110   1.218   2.502 -0.4119  0.1731  0.1587
  164OSM    C2F18499   5.218   1.397   2.611 -0.2900 -0.0844  0.1508
  164OSM    H2F18500   5.184   1.468   2.532 -1.3093 -2.1127 -1.3126
  164OSM    H2G18501   5.324   1.418   2.636  0.1670 -1.1256 -0.8262
  164OSM    C3F18502   5.145   1.402   2.743 -0.1999  0.5810  0.0718
  164OSM    H3F18503   5.176   1.316   2.807 -4.7866 -0.7698  0.8321
  164OSM    H3G18504   5.040   1.373   2.724 -0.6190 -1.4183  4.2994
  164OSM    C4F18505   5.138   1.540   2.802  0.3287 -0.5172 -0.2314
  164OSM    H4F18506   5.105   1.606   2.718 -0.1556  0.3503  0.6197
  164OSM    H4G18507   5.242   1.575   2.819  0.2584 -1.3132  2.1250
  164OSM    C5F18508   5.068   1.548   2.935  0.6923 -0.7905  0.2236
  164OSM    H5F18509   5.098   1.462   3.000 -0.1366 -2.2586 -1.2591
  164OSM    H5G18510   4.961   1.527   2.914  0.8070 -1.7361  0.5112
  164OSM    C6F18511   5.081   1.681   3.014  0.0770 -0.4728 -0.0416
  164OSM    H6F18512   5.017   1.765   2.979 -0.4622 -0.7975  0.1460
  164OSM    H6G18513   5.183   1.725   3.011 -0.3356  0.5166 -0.1770
  164OSM    C7F18514   5.051   1.660   3.157  0.3082 -0.3035 -0.1936
  164OSM    H7F18515   5.092   1.567   3.201 -0.2682 -1.7653 -2.5504
  164OSM    H7G18516   4.940   1.658   3.166  0.1945 -2.0134 -1.5190
  164OSM    C8F18517   5.106   1.786   3.236 -0.4049  0.2989  0.0196
  164OSM    H8F18518   5.064   1.881   3.195 -2.5479 -0.8574 -0.6152
  164OSM    H8G18519   5.214   1.789   3.208 -0.6305  1.4731 -0.8303
  164OSM    C9F18520   5.099   1.784   3.387 -0.7027  0.6414 -0.4359
  164OSM    H9F18521   5.127   1.687   3.431 -1.0275  0.3552 -0.8549
  164OSM   C10F18522   5.076   1.896   3.467  0.2885 -0.4356 -0.1578
  164OSM   H10F18523   5.063   1.894   3.576 -1.1008 -1.8241 -0.3071
  164OSM   C11F18524   5.066   2.042   3.429 -0.5516  0.2768  0.4562
  164OSM   H11F18525   4.965   2.074   3.398 -1.1156 -1.2494  0.6211
  164OSM   H11G18526   5.136   2.043   3.342 -0.3247 -2.0240  0.5614
  164OSM   C12F18527   5.108   2.146   3.532  0.2446 -0.6950  0.4860
  164OSM   H12F18528   5.032   2.141   3.614 -1.8999 -1.2011 -1.4200
  164OSM   H12G18529   5.097   2.246   3.484 -0.3849 -1.0736 -0.1747
  164OSM   C13F18530   5.255   2.139   3.586  0.8302  0.0734  0.3640
  164OSM   H13F18531   5.328   2.165   3.506  3.0628 -2.3984  1.4259
  164OSM   H13G18532   5.274   2.034   3.614  0.4617 -0.1595 -0.2385
  164OSM   C14F18533   5.257   2.228   3.710 -0.4076  0.7078 -0.0237
  164OSM   H14F18534   5.176   2.194   3.778  0.4385 -0.8261  0.2601
  164OSM   H14G18535   5.237   2.332   3.676  1.5521  1.2064  0.2553
  164OSM   C15F18536   5.403   2.227   3.767  0.5795 -0.5121  0.0112
  164OSM   H15F18537   5.466   2.256   3.680  1.0909 -2.0099 -0.1428
  164OSM   H15G18538   5.432   2.125   3.800  3.8294  0.0548 -0.7359
  164OSM   C16F18539   5.417   2.334   3.883  0.7617 -0.2130  0.3398
  164OSM   H16F18540   5.404   2.434   3.836 -1.4488  0.1397  1.5798
  164OSM   H16G18541   5.523   2.323   3.916  1.1457 -2.3636 -1.4298
  164OSM   C17F18542   5.315   2.331   3.991 -0.4724 -0.5998 -0.8868
  164OSM   H17F18543   5.299   2.227   4.026  0.2840 -0.2254  0.6730
  164OSM   H17G18544   5.221   2.363   3.943 -0.1384 -1.0696 -1.8858
  164OSM   C18F18545   5.347   2.428   4.104 -0.5670  0.2360  0.4610
  164OSM   H18F18546   5.424   2.382   4.170  0.5702  1.2495 -0.1291
  164OSM   H18G18547   5.247   2.458   4.142 -2.1473  0.7004 -3.5604
  164OSM   H18H18548   5.388   2.521   4.058 -1.5980  0.8335  0.7237
  165SAPS     N18549   3.635   5.391   6.848 -0.9584 -0.0511  0.8389
  165SAPS   HN118550   3.660   5.315   6.915  0.0620  0.5016  1.1015
  165SAPS   HN218551   3.610   5.348   6.756 -0.3494 -0.8435  1.0336
  165SAPS   HN318552   3.714   5.458   6.843 -0.9695 -0.0016  1.2653
  165SAPS   C1218553   3.515   5.464   6.895 -0.2831 -0.5748 -0.2608
  165SAPS  H12A18554   3.460   5.406   6.968 -0.1406  1.3219  1.4558
  165SAPS   C1318555   3.558   5.604   6.954  0.4748  0.0654  0.0903
  165SAPS  O13A18556   3.681   5.626   6.975  0.5917 -0.1285 -0.3883
  165SAPS  O13B18557   3.465   5.668   7.015 -0.1501  0.4698 -0.3877
  165SAPS   C1118558   3.426   5.491   6.770  0.2448 -0.2092  0.1860
  165SAPS  H11A18559   3.492   5.525   6.688  0.3660  0.7313  0.6630
  165SAPS  H11B18560   3.350   5.569   6.790  1.2283  0.8134  0.0013
  165SAPS     P18561   3.414   5.274   6.614 -0.1616 -0.0146  0.3124
  165SAPS   O1318562   3.385   5.140   6.661 -0.0950 -0.3191 -0.7979
  165SAPS   O1418563   3.369   5.318   6.485 -0.0556  0.2103  0.3655
  165SAPS   O1218564   3.366   5.368   6.734  0.6136 -0.3170  0.1358
  165SAPS   O1118565   3.569   5.290   6.619 -0.0561  0.2139  0.1699
  165SAPS    C118566   3.658   5.195   6.569  0.1302  0.3618  0.0085
  165SAPS    HA18567   3.675   5.114   6.643 -0.2721  0.4870  0.2389
  165SAPS    HB18568   3.631   5.148   6.472  1.1638  1.0495 -0.6367
  165SAPS    C218569   3.798   5.264   6.547 -0.2182 -0.0368 -0.1653
  165SAPS    HS18570   3.820   5.298   6.651 -1.2779  0.0478  0.0507
  165SAPS   O2118571   3.783   5.372   6.454 -0.1767 -0.3771  0.0236
  165SAPS   C2118572   3.768   5.497   6.501  0.2197 -0.4186  0.3640
  165SAPS   O2218573   3.755   5.522   6.621 -0.1493  0.7386 -0.0832
  165SAPS   C2218574   3.751   5.592   6.385 -0.0577 -0.5319 -0.3462
  165SAPS   H2R18575   3.700   5.683   6.422 -0.2532 -1.1560  0.9787
  165SAPS   H2S18576   3.855   5.615   6.355 -0.0332  1.1150  0.8625
  165SAPS    C318577   3.914   5.162   6.513 -0.1229  0.2205 -0.1192
  165SAPS    HX18578   3.932   5.096   6.601 -1.9391 -1.0623 -0.6476
  165SAPS    HY18579   4.004   5.226   6.503 -0.8429  1.1113 -1.0810
  165SAPS   O3118580   3.895   5.089   6.388  0.2789 -0.2143 -0.6188
  165SAPS   C3118581   3.850   4.962   6.393 -0.5740  0.1925 -0.9006
  165SAPS   O3218582   3.805   4.911   6.490  0.3693  0.7856 -0.1350
  165SAPS   C3218583   3.862   4.891   6.255  0.4538  0.0144 -0.4308
  165SAPS   H2X18584   3.904   4.963   6.181 -0.2286 -0.6290 -1.4630
  165SAPS   H2Y18585   3.755   4.868   6.237  0.6906 -1.3510 -0.2045
  165SAPS   C2318586   3.674   5.530   6.264 -0.2915  0.2902  0.1555
  165SAPS   H3R18587   3.575   5.494   6.301 -0.1201 -0.3744 -0.0143
  165SAPS   H3S18588   3.724   5.446   6.212 -0.1669  0.2501  0.3358
  165SAPS   C2418589   3.654   5.639   6.157 -0.1045  0.2536 -0.2097
  165SAPS   H4R18590   3.620   5.733   6.205 -1.4664 -0.9641  1.3233
  165SAPS   H4S18591   3.574   5.618   6.082 -1.1089  0.2397  0.8440
  165SAPS   C2518592   3.786   5.666   6.085 -0.3052  0.3624 -0.0640
  165SAPS   H5R18593   3.864   5.708   6.150  0.0056  0.6482 -0.6177
  165SAPS   C2618594   3.801   5.645   5.953  0.5397  0.1248 -0.1072
  165SAPS   H6R18595   3.896   5.674   5.906 -0.0993  0.9492 -0.9330
  165SAPS   C2718596   3.696   5.604   5.848  0.2806 -0.0452 -1.0488
  165SAPS   H7R18597   3.698   5.683   5.769  1.7506  0.6731 -0.3269
  165SAPS   H7S18598   3.592   5.618   5.886  1.0095  0.0637  1.0228
  165SAPS   C2818599   3.710   5.470   5.793  0.1828  0.6080  0.0093
  165SAPS   H8R18600   3.687   5.392   5.867  3.4562  1.1213  1.7133
  165SAPS   C2918601   3.754   5.438   5.667 -0.4918  0.3339  0.1147
  165SAPS   H9R18602   3.773   5.334   5.637 -0.7323  0.6619 -1.2220
  165SAPS  C21018603   3.788   5.532   5.561  0.2791 -0.1365 -0.3142
  165SAPS  H10R18604   3.863   5.491   5.490 -0.5203 -1.8403 -0.2275
  165SAPS  H10S18605   3.831   5.623   5.608 -1.0334  1.2620 -1.7187
  165SAPS  C21118606   3.663   5.551   5.477  0.1743 -0.5037  0.2006
  165SAPS  H11R18607   3.570   5.554   5.535  0.5856  2.5192  0.8652
  165SAPS  C21218608   3.659   5.596   5.350 -0.2398  0.0247 -0.5357
  165SAPS  H12R18609   3.558   5.611   5.307 -1.0128 -1.9620  0.4608
  165SAPS  C21318610   3.783   5.617   5.260 -0.4189 -0.0341  0.2538
  165SAPS  H13R18611   3.868   5.640   5.327  0.5634  0.5108 -1.1252
  165SAPS  H13S18612   3.776   5.713   5.204 -1.8241  0.9437  2.0131
  165SAPS  C21418613   3.815   5.490   5.179  0.4351  0.2073 -0.4045
  165SAPS  H14R18614   3.835   5.402   5.242  2.5794 -0.9394 -2.5201
  165SAPS  C21518615   3.814   5.470   5.044 -0.4876 -0.4393 -0.0180
  165SAPS  H15R18616   3.823   5.366   5.010 -0.2810 -0.1352 -0.9135
  165SAPS  C21618617   3.787   5.567   4.936 -0.2058 -0.4677  0.1261
  165SAPS  H16R18618   3.742   5.664   4.965  0.1468 -0.1252 -0.4522
  165SAPS  H16S18619   3.724   5.519   4.857 -0.8231 -0.0827  0.3765
  165SAPS  C21718620   3.920   5.608   4.870  0.3998  0.2929  0.4453
  165SAPS  H17R18621   3.902   5.682   4.789  2.7320 -0.9136 -1.2890
  165SAPS  H17S18622   3.959   5.518   4.818  2.8638  2.5626 -1.9063
  165SAPS  C21818623   4.029   5.671   4.955 -0.0211 -0.3829  0.1000
  165SAPS  H18R18624   4.046   5.597   5.036 -2.4768  0.2985  1.3298
  165SAPS  H18S18625   3.993   5.767   4.997 -1.4755 -0.1709 -1.4688
  165SAPS  C21918626   4.155   5.710   4.879  0.7422 -0.6302  0.1999
  165SAPS  H19R18627   4.117   5.770   4.794 -1.8510 -2.3880  0.0004
  165SAPS  H19S18628   4.191   5.614   4.836 -0.6245 -0.9367 -0.2916
  165SAPS  C22018629   4.266   5.786   4.950 -0.0244  0.0180 -0.2805
  165SAPS  H20R18630   4.316   5.726   5.029  0.9846  0.5820 -0.4710
  165SAPS  H20S18631   4.212   5.867   5.003  2.6428  1.0361  1.0981
  165SAPS  H20T18632   4.342   5.824   4.878 -0.5384 -1.4542 -1.6364
  165SAPS   C3318633   3.946   4.764   6.266  0.0500 -0.5553  0.1073
  165SAPS   H3X18634   3.906   4.700   6.347  2.5485  1.6257  3.3144
  165SAPS   H3Y18635   4.047   4.787   6.306  0.2355  2.5763 -1.7993
  165SAPS   C3418636   3.961   4.701   6.128  0.1832 -0.1216 -0.3531
  165SAPS   H4X18637   3.867   4.703   6.069 -0.4379 -0.3386  0.6021
  165SAPS   H4Y18638   3.986   4.593   6.136  1.9570  0.3412  1.1821
  165SAPS   C3518639   4.085   4.757   6.058  0.2171  0.4194 -0.1075
  165SAPS   H5X18640   4.169   4.750   6.130 -1.8969  0.3030  2.4902
  165SAPS   H5Y18641   4.077   4.866   6.036 -2.7331  0.0608 -1.3348
  165SAPS   C3618642   4.126   4.690   5.922 -0.3577  0.8122 -1.0060
  165SAPS   H6X18643   4.152   4.588   5.956 -4.0079  0.3582  0.8541
  165SAPS   H6Y18644   4.221   4.740   5.892  0.1218  2.5889  2.9234
  165SAPS   C3718645   4.023   4.689   5.808  0.4088  0.1376 -0.6425
  165SAPS   H7X18646   3.973   4.787   5.792  2.3625  0.9989 -1.7407
  165SAPS   H7Y18647   3.950   4.613   5.841  0.9383  0.2887  0.9978
  165SAPS   C3818648   4.078   4.640   5.674  0.2509 -0.3113 -0.2402
  165SAPS   H8X18649   4.140   4.549   5.682  0.3194 -0.1982  0.6147
  165SAPS   H8Y18650   4.157   4.712   5.644  0.2037  0.4653  1.3514
  165SAPS   C3918651   3.976   4.626   5.558 -0.1301 -0.3043 -0.4628
  165SAPS   H9X18652   3.916   4.719   5.548 -1.0170 -0.9402 -1.2662
  165SAPS   H9Y18653   3.915   4.537   5.583  0.7108 -0.0140  3.1549
  165SAPS  C31018654   4.055   4.581   5.422 -0.3739 -0.8232 -0.0894
  165SAPS  H10X18655   3.975   4.546   5.353  0.7012 -1.9838 -0.7939
  165SAPS  H10Y18656   4.131   4.502   5.438  1.8634  1.2632  0.1024
  165SAPS  C31118657   4.133   4.698   5.357 -0.2995  0.4408  0.0577
  165SAPS  H11X18658   4.226   4.728   5.409  0.6403  0.2823 -1.4682
  165SAPS  H11Y18659   4.069   4.789   5.363 -1.6450 -0.5507  2.4780
  165SAPS  C31218660   4.173   4.670   5.212  0.0497  0.1150  0.2944
  165SAPS  H12X18661   4.085   4.651   5.148  1.1856  0.7707 -1.5311
  165SAPS  H12Y18662   4.250   4.591   5.193  0.6343  0.1379  2.2646
  165SAPS  C31318663   4.242   4.797   5.152  0.4764  0.3633 -0.2066
  165SAPS  H13X18664   4.312   4.842   5.226  1.6109 -0.2002 -0.9101
  165SAPS  H13Y18665   4.163   4.875   5.146  1.3780  1.4270  1.1450
  165SAPS  C31418666   4.318   4.764   5.024 -0.0111 -0.5503 -0.1555
  165SAPS  H14X18667   4.248   4.716   4.953  0.9120  0.4709 -1.8075
  165SAPS  H14Y18668   4.401   4.691   5.039  0.8235  0.2377 -0.8495
  165SAPS  C31518669   4.388   4.886   4.962 -0.2775  0.6956 -0.2847
  165SAPS  H15X18670   4.471   4.916   5.030 -2.2625  1.1592  2.0802
  165SAPS  H15Y18671   4.318   4.973   4.967 -1.3653 -0.1494 -0.4850
  165SAPS  C31618672   4.416   4.865   4.811 -0.0726 -0.1531 -0.3259
  165SAPS  H16X18673   4.333   4.818   4.754  0.9951 -0.9898 -1.2521
  165SAPS  H16Y18674   4.501   4.793   4.802 -1.3151 -1.7227  0.1213
  165SAPS  C31718675   4.466   4.991   4.745 -0.5183  0.0275  0.4784
  165SAPS  H17X18676   4.484   5.073   4.818  1.1356  0.9761 -0.9201
  165SAPS  H17Y18677   4.392   5.037   4.676  2.1883  1.8028 -1.4487
  165SAPS  C31818678   4.604   4.981   4.667  0.2030 -0.3371 -0.1990
  165SAPS  H18X18679   4.647   5.084   4.672 -3.3483  1.3063 -0.1180
  165SAPS  H18Y18680   4.584   4.960   4.560 -1.4763  0.2234 -0.0218
  165SAPS  H18Z18681   4.668   4.899   4.705  0.3262 -1.9267 -3.5149
  166SAPS     N18682   2.051   5.159   6.890 -0.1216  0.0820  0.0791
  166SAPS   HN118683   1.970   5.094   6.884 -1.8827  2.2764 -1.9893
  166SAPS   HN218684   2.107   5.114   6.965  1.2306  1.6591  0.0895
  166SAPS   HN318685   2.011   5.253   6.906 -1.7969 -0.5082 -0.4180
  166SAPS   C1218686   2.109   5.158   6.754  0.3542  0.1508  0.2756
  166SAPS  H12A18687   2.201   5.215   6.756  0.7940 -0.5603  1.5962
  166SAPS   C1318688   2.176   5.023   6.704  0.4270  0.5453  0.2509
  166SAPS  O13A18689   2.194   4.928   6.782  0.0916 -0.5664 -0.1161
  166SAPS  O13B18690   2.232   5.021   6.589 -0.2271  0.0185 -0.1892
  166SAPS   C1118691   2.004   5.203   6.644  1.1800  0.1141  0.6870
  166SAPS  H11A18692   2.053   5.201   6.545 -1.6321 -1.2531 -0.7689
  166SAPS  H11B18693   1.972   5.309   6.656 -1.6429 -0.4264 -1.2303
  166SAPS     P18694   1.772   5.127   6.559 -0.3902 -0.1909  0.3880
  166SAPS   O1318695   1.651   5.057   6.599  0.2396 -0.3506 -0.3020
  166SAPS   O1418696   1.757   5.261   6.499  0.2520 -0.2042 -0.0545
  166SAPS   O1218697   1.885   5.118   6.661 -0.0428  0.0182  0.3507
  166SAPS   O1118698   1.841   5.039   6.449 -0.2665  0.7038  0.2789
  166SAPS    C118699   1.754   4.967   6.361  0.2362  0.7952  0.4067
  166SAPS    HA18700   1.702   4.886   6.418 -1.9855  2.8922  1.5381
  166SAPS    HB18701   1.681   5.032   6.308 -3.1333 -3.3902 -0.6915
  166SAPS    C218702   1.831   4.895   6.251 -0.2251  0.5819  0.2291
  166SAPS    HS18703   1.900   4.823   6.300 -1.9893 -1.4050 -0.0711
  166SAPS   O2118704   1.903   4.991   6.177  0.4323 -0.3199 -0.8679
  166SAPS   C2118705   1.990   4.940   6.102  0.7013 -0.2140  0.0942
  166SAPS   O2218706   2.029   4.824   6.090 -0.5784  0.0311 -0.0571
  166SAPS   C2218707   2.057   5.053   6.022 -0.4048  0.2487 -0.3438
  166SAPS   H2R18708   2.054   5.152   6.070 -1.1615  0.3649 -0.6073
  166SAPS   H2S18709   2.161   5.016   6.012 -0.0749  1.4812 -1.7367
  166SAPS    C318710   1.736   4.811   6.159 -0.0652  0.3120 -0.2921
  166SAPS    HX18711   1.674   4.761   6.236  0.7900 -1.7006 -0.8494
  166SAPS    HY18712   1.788   4.734   6.098  0.7544  1.6478 -1.3554
  166SAPS   O3118713   1.658   4.895   6.073  0.0099  0.2419  0.4532
  166SAPS   C3118714   1.527   4.888   6.076  0.0075  0.5976  0.7978
  166SAPS   O3218715   1.454   4.809   6.137  0.1906 -0.5820  0.0248
  166SAPS   C3218716   1.465   5.001   5.989 -0.0237 -0.0749  0.6208
  166SAPS   H2X18717   1.512   4.996   5.888  1.7765 -1.3471  1.4557
  166SAPS   H2Y18718   1.493   5.095   6.041  0.0812  0.3420 -0.1778
  166SAPS   C2318719   2.000   5.064   5.880 -0.6290  0.8031 -0.2896
  166SAPS   H3R18720   2.044   4.973   5.834  2.2973  1.4290  1.0297
  166SAPS   H3S18721   2.047   5.153   5.834  1.3765  0.0136  0.1375
  166SAPS   C2418722   1.849   5.060   5.851  0.4207  0.9804 -0.1352
  166SAPS   H4R18723   1.810   4.958   5.870  3.5868 -0.4821 -0.7339
  166SAPS   H4S18724   1.836   5.076   5.741  1.6081  1.2261 -0.2502
  166SAPS   C2518725   1.758   5.162   5.927  0.0880 -0.3808 -0.4010
  166SAPS   H5R18726   1.738   5.141   6.033  1.0800 -0.0010 -0.1265
  166SAPS   C2618727   1.679   5.252   5.860  0.2968 -0.0059 -1.0358
  166SAPS   H6R18728   1.619   5.321   5.921  0.7848 -1.2018  0.9209
  166SAPS   C2718729   1.676   5.272   5.712  0.1204  0.1157  0.6592
  166SAPS   H7R18730   1.580   5.328   5.698 -0.0112 -0.2898 -0.0985
  166SAPS   H7S18731   1.658   5.174   5.664 -0.6558 -0.5331  2.2140
  166SAPS   C2818732   1.791   5.342   5.639 -0.9779  0.3604 -0.3391
  166SAPS   H8R18733   1.866   5.383   5.708 -2.0904 -0.4118  1.4106
  166SAPS   C2918734   1.805   5.345   5.508 -0.2188 -0.1142 -0.1835
  166SAPS   H9R18735   1.896   5.393   5.466  0.1340  2.2352  2.8573
  166SAPS  C21018736   1.717   5.295   5.400 -0.0875 -0.3664 -0.6995
  166SAPS  H10R18737   1.649   5.214   5.436  2.0708 -2.1048 -0.3170
  166SAPS  H10S18738   1.782   5.234   5.333 -0.1654 -1.3739  0.0981
  166SAPS  C21118739   1.635   5.384   5.314 -0.2649  0.1462 -0.6973
  166SAPS  H11R18740   1.535   5.410   5.351  0.2585 -0.7739  1.5107
  166SAPS  C21218741   1.677   5.435   5.197  0.7063  0.5676 -0.3559
  166SAPS  H12R18742   1.612   5.501   5.138  2.8962  1.5856 -1.7284
  166SAPS  C21318743   1.816   5.414   5.137  0.1468  0.3059 -0.2704
  166SAPS  H13R18744   1.841   5.306   5.130 -0.0780  0.2066  0.4406
  166SAPS  H13S18745   1.895   5.461   5.199 -1.6134  0.7615  1.7487
  166SAPS  C21418746   1.832   5.493   5.013  0.2250 -0.0292  0.9403
  166SAPS  H14R18747   1.852   5.600   5.030  2.3520 -0.1559 -0.3732
  166SAPS  C21518748   1.832   5.445   4.890 -0.2914  0.6548  0.0343
  166SAPS  H15R18749   1.855   5.516   4.809  0.0378  1.6458  0.9748
  166SAPS  C21618750   1.834   5.293   4.859  0.2144 -0.6092  0.0879
  166SAPS  H16R18751   1.729   5.259   4.862  0.2729 -1.0920 -1.8521
  166SAPS  H16S18752   1.906   5.238   4.923  2.2595 -0.4397 -1.9289
  166SAPS  C21718753   1.866   5.260   4.706  0.0463 -0.7638  0.1658
  166SAPS  H17R18754   1.961   5.311   4.678 -0.5384 -0.0648 -0.5905
  166SAPS  H17S18755   1.780   5.307   4.654 -0.5088  0.3974  2.0301
  166SAPS  C21818756   1.876   5.107   4.677 -0.3950  0.1891 -0.1004
  166SAPS  H18R18757   1.790   5.054   4.724  0.4225 -1.2139 -0.1402
  166SAPS  H18S18758   1.970   5.064   4.718 -0.7533 -1.0615 -0.5539
  166SAPS  C21918759   1.851   5.090   4.532  0.3542  0.1083  0.4157
  166SAPS  H19R18760   1.870   4.985   4.502  3.0151  0.3534  0.9490
  166SAPS  H19S18761   1.915   5.162   4.476  0.0951  0.6105  0.7578
  166SAPS  C22018762   1.706   5.116   4.474 -1.1396 -0.1523  0.7092
  166SAPS  H20R18763   1.717   5.081   4.369 -1.4806  2.2138 -0.1933
  166SAPS  H20S18764   1.683   5.225   4.480  0.9044  0.6634 -2.8461
  166SAPS  H20T18765   1.627   5.054   4.521 -1.4977 -0.5236 -0.3475
  166SAPS   C3318766   1.313   5.000   5.961  0.2708 -0.3493 -0.4799
  166SAPS   H3X18767   1.255   5.029   6.051  0.4619 -1.1898 -0.0760
  166SAPS   H3Y18768   1.284   4.898   5.927  1.2015 -0.7023 -0.2450
  166SAPS   C3418769   1.274   5.107   5.857  0.2419 -0.5666  0.0372
  166SAPS   H4X18770   1.326   5.198   5.894 -0.5343  0.4412 -1.2618
  166SAPS   H4Y18771   1.164   5.127   5.852 -0.1638 -2.7215 -0.9648
  166SAPS   C3518772   1.309   5.075   5.712 -0.2932  0.0859 -0.1574
  166SAPS   H5X18773   1.267   4.976   5.683 -0.3297  0.2845 -0.7976
  166SAPS   H5Y18774   1.419   5.071   5.699 -0.0718 -0.2447  1.6435
  166SAPS   C3618775   1.247   5.173   5.609 -0.2462  0.5025  0.8425
  166SAPS   H6X18776   1.154   5.219   5.649 -0.8163  0.7217 -0.6402
  166SAPS   H6Y18777   1.215   5.116   5.519 -0.8381 -0.0677  1.3980
  166SAPS   C3718778   1.320   5.297   5.574  0.4198 -0.5850  0.2428
  166SAPS   H7X18779   1.406   5.269   5.509  1.7175 -0.7080  1.9336
  166SAPS   H7Y18780   1.372   5.348   5.658  3.1631  0.2710 -1.8037
  166SAPS   C3818781   1.234   5.412   5.505  0.0218 -0.2441 -0.0095
  166SAPS   H8X18782   1.299   5.500   5.484  1.3772 -1.9776 -4.1384
  166SAPS   H8Y18783   1.154   5.440   5.576  0.2668  0.0524  0.1558
  166SAPS   C3918784   1.149   5.370   5.389 -0.8857 -0.9772 -0.1107
  166SAPS   H9X18785   1.071   5.448   5.374 -0.7873 -0.7258  0.6698
  166SAPS   H9Y18786   1.105   5.271   5.416 -1.4630 -0.6916  0.0143
  166SAPS  C31018787   1.227   5.354   5.258  0.4900  0.1254 -0.3082
  166SAPS  H10X18788   1.157   5.292   5.197 -0.0318  2.7651 -2.5844
  166SAPS  H10Y18789   1.324   5.304   5.279 -0.6064 -1.8735  0.3649
  166SAPS  C31118790   1.240   5.493   5.185  0.3229 -0.1664 -0.8551
  166SAPS  H11X18791   1.311   5.556   5.244  1.5246  0.8320 -3.2432
  166SAPS  H11Y18792   1.143   5.546   5.184  0.4203  0.0098 -1.1066
  166SAPS  C31218793   1.289   5.487   5.042 -0.5182 -0.5454  0.4762
  166SAPS  H12X18794   1.218   5.432   4.976 -0.0823  1.4679 -1.8650
  166SAPS  H12Y18795   1.377   5.419   5.049 -1.6551 -1.8914  3.0591
  166SAPS  C31318796   1.309   5.627   4.976  0.0810 -0.7121 -1.1601
  166SAPS  H13X18797   1.388   5.677   5.037 -1.4525 -0.3772  0.6509
  166SAPS  H13Y18798   1.212   5.681   4.968 -0.4335 -1.4525 -0.2027
  166SAPS  C31418799   1.365   5.614   4.840 -0.5104 -0.4183 -0.5087
  166SAPS  H14X18800   1.300   5.549   4.778  1.1496 -1.6003 -1.1043
  166SAPS  H14Y18801   1.473   5.585   4.839 -0.0819  1.0397 -2.5318
  166SAPS  C31518802   1.370   5.749   4.779  0.3274 -0.4704 -0.2551
  166SAPS  H15X18803   1.446   5.822   4.815 -0.3867  0.4858 -0.6128
  166SAPS  H15Y18804   1.270   5.794   4.796 -0.1112 -1.1446 -1.0048
  166SAPS  C31618805   1.403   5.738   4.628  0.4007  0.5244  0.4514
  166SAPS  H16X18806   1.401   5.835   4.575  0.0980 -0.1540 -0.8392
  166SAPS  H16Y18807   1.313   5.681   4.596  0.4038 -0.2128  1.6753
  166SAPS  C31718808   1.526   5.655   4.587 -0.1489 -0.2280 -0.8079
  166SAPS  H17X18809   1.511   5.627   4.481  1.1375 -2.4796 -0.4652
  166SAPS  H17Y18810   1.535   5.556   4.637 -0.5289 -0.0861 -0.4575
  166SAPS  C31818811   1.657   5.741   4.604 -0.4972  0.1783 -0.1294
  166SAPS  H18X18812   1.687   5.745   4.711 -1.1987 -2.1293  0.2122
  166SAPS  H18Y18813   1.636   5.836   4.550 -2.6640 -1.2863 -2.0641
  166SAPS  H18Z18814   1.751   5.705   4.558  0.2060  1.0307  0.5981
  167SAPS     N18815   3.966   5.565   7.071  0.4004 -0.4438  0.0123
  167SAPS   HN118816   4.014   5.477   7.042  3.4224  1.4265 -1.1845
  167SAPS   HN218817   3.965   5.561   7.175  0.1319 -3.1075 -0.0320
  167SAPS   HN318818   3.868   5.565   7.036  0.0943 -0.8023  0.8356
  167SAPS   C1218819   4.038   5.676   7.021 -0.1450 -0.0082  0.6090
  167SAPS  H12A18820   4.027   5.674   6.913 -0.5303  1.3554  0.5965
  167SAPS   C1318821   3.972   5.812   7.073 -0.7971  0.1624 -0.0508
  167SAPS  O13A18822   3.905   5.808   7.180  0.4917  0.0369  0.1391
  167SAPS  O13B18823   3.999   5.920   7.014 -0.3244 -0.0850 -0.0825
  167SAPS   C1118824   4.184   5.683   7.074  0.0649 -0.8969  0.3828
  167SAPS  H11A18825   4.187   5.711   7.182 -0.4248  0.6828  0.0042
  167SAPS  H11B18826   4.243   5.764   7.028 -1.0931 -0.5829 -0.5957
  167SAPS     P18827   4.402   5.542   7.073  0.3865 -0.8224  0.3584
  167SAPS   O1318828   4.455   5.641   7.171 -0.0309 -0.1332 -0.2672
  167SAPS   O1418829   4.419   5.400   7.107 -0.1788 -0.0794 -0.2831
  167SAPS   O1218830   4.246   5.562   7.041 -0.3512  0.3293  0.8353
  167SAPS   O1118831   4.469   5.572   6.938 -0.5519  0.5187 -0.4456
  167SAPS    C118832   4.418   5.608   6.812  0.5685 -0.1868  0.3228
  167SAPS    HA18833   4.356   5.521   6.781  1.2322 -0.7053  0.4321
  167SAPS    HB18834   4.350   5.696   6.816  0.4853 -0.2386  0.0618
  167SAPS    C218835   4.530   5.625   6.701 -0.0116  0.1163 -0.0258
  167SAPS    HS18836   4.479   5.675   6.616  0.5318  0.4773 -0.1467
  167SAPS   O2118837   4.589   5.495   6.651  0.2298  0.1006 -0.7757
  167SAPS   C2118838   4.513   5.433   6.566  0.9923  0.5936 -0.0980
  167SAPS   O2218839   4.389   5.433   6.554 -0.1247 -0.1526  0.2206
  167SAPS   C2218840   4.607   5.360   6.472 -0.0499 -0.3526  0.2568
  167SAPS   H2R18841   4.705   5.399   6.506 -0.2716  0.4629 -0.0199
  167SAPS   H2S18842   4.605   5.249   6.485 -0.0135 -0.5379 -1.1668
  167SAPS    C318843   4.647   5.720   6.750  0.6640 -0.3575 -0.2016
  167SAPS    HX18844   4.713   5.676   6.827  1.6351  0.4961 -0.5267
  167SAPS    HY18845   4.607   5.807   6.805  2.5059  1.4705 -1.6163
  167SAPS   O3118846   4.730   5.767   6.641 -0.3336 -0.0574  0.0502
  167SAPS   C3118847   4.692   5.873   6.568 -0.0660  0.0672 -0.6109
  167SAPS   O3218848   4.586   5.925   6.587  0.2573 -0.0235 -0.1259
  167SAPS   C3218849   4.798   5.933   6.475  0.0080 -0.3393  0.5009
  167SAPS   H2X18850   4.889   5.870   6.483 -1.2609 -2.2227  0.7480
  167SAPS   H2Y18851   4.811   6.043   6.486 -0.7895  0.3235 -3.4950
  167SAPS   C2318852   4.591   5.393   6.319  0.2766 -0.2278 -0.6834
  167SAPS   H3R18853   4.571   5.502   6.305 -2.0425 -0.1812  2.0837
  167SAPS   H3S18854   4.497   5.351   6.278 -0.3132  1.7920 -1.5600
  167SAPS   C2418855   4.717   5.347   6.243 -0.6389 -0.3814  0.1273
  167SAPS   H4R18856   4.703   5.370   6.135 -2.0300  1.4572  0.6502
  167SAPS   H4S18857   4.733   5.237   6.251  0.6768 -0.3605 -1.5462
  167SAPS   C2518858   4.841   5.409   6.294  0.1826 -0.1770  0.6696
  167SAPS   H5R18859   4.897   5.353   6.370  1.0302 -0.9835 -0.5005
  167SAPS   C2618860   4.914   5.506   6.239 -0.1628  0.4051  0.0245
  167SAPS   H6R18861   4.994   5.551   6.300  0.0376  1.1314 -0.7536
  167SAPS   C2718862   4.885   5.565   6.104 -0.1129  0.1180  0.7880
  167SAPS   H7R18863   4.841   5.665   6.120  2.3142  1.0812  1.8977
  167SAPS   H7S18864   4.805   5.508   6.053  1.0549 -1.3629  0.5161
  167SAPS   C2818865   5.001   5.592   6.014 -1.6128 -0.2776  0.3685
  167SAPS   H8R18866   5.086   5.649   6.054 -1.3476 -0.1161 -0.4255
  167SAPS   C2918867   5.017   5.527   5.903 -1.0537 -0.3313 -1.2076
  167SAPS   H9R18868   5.110   5.545   5.849 -0.3529 -1.0555 -0.2879
  167SAPS  C21018869   4.920   5.448   5.821 -0.2658 -0.4977 -0.1293
  167SAPS  H10R18870   4.839   5.408   5.886 -0.2235 -1.7573 -0.7993
  167SAPS  H10S18871   4.970   5.357   5.780  1.2128  0.0166  0.4993
  167SAPS  C21118872   4.878   5.543   5.707 -0.5042 -0.7492  0.3946
  167SAPS  H11R18873   4.966   5.578   5.651 -1.7892  2.6624  0.2567
  167SAPS  C21218874   4.753   5.566   5.673  0.3662 -0.7313 -0.6598
  167SAPS  H12R18875   4.732   5.638   5.593 -1.8268 -0.9932 -0.3612
  167SAPS  C21318876   4.628   5.506   5.731 -0.3539 -0.0945 -0.6937
  167SAPS  H13R18877   4.658   5.409   5.777  1.6220  1.1315  0.7031
  167SAPS  H13S18878   4.561   5.470   5.649  0.3602  0.5332 -1.5631
  167SAPS  C21418879   4.561   5.589   5.843 -0.0903 -0.2087 -0.0111
  167SAPS  H14R18880   4.634   5.643   5.905  0.7856  0.3398 -1.4741
  167SAPS  C21518881   4.427   5.627   5.864 -1.1655  0.4616 -0.6478
  167SAPS  H15R18882   4.404   5.689   5.951  3.8815  3.0498 -0.8074
  167SAPS  C21618883   4.313   5.569   5.780 -0.5651  0.2161  0.2166
  167SAPS  H16R18884   4.235   5.532   5.850 -0.3606  0.4097  0.5467
  167SAPS  H16S18885   4.339   5.477   5.724 -1.7068 -0.5043  0.8165
  167SAPS  C21718886   4.272   5.672   5.677  0.0880 -0.3306 -0.4238
  167SAPS  H17R18887   4.369   5.693   5.628  0.9582  0.6373  1.6041
  167SAPS  H17S18888   4.240   5.765   5.729  0.4727 -0.6607  0.4280
  167SAPS  C21818889   4.162   5.632   5.572 -0.6475 -0.2050  0.0156
  167SAPS  H18R18890   4.068   5.627   5.631 -1.1204  0.8474 -0.6298
  167SAPS  H18S18891   4.194   5.528   5.551 -0.2792  0.3283 -2.2400
  167SAPS  C21918892   4.168   5.715   5.455 -0.6185  0.1757 -0.2455
  167SAPS  H19R18893   4.162   5.822   5.484 -3.1708 -0.1535  0.6630
  167SAPS  H19S18894   4.089   5.679   5.387 -0.9737  1.9690 -0.8414
  167SAPS  C22018895   4.303   5.698   5.381  0.3107 -0.8863  0.3362
  167SAPS  H20R18896   4.323   5.588   5.376  2.3024 -0.5219 -2.0642
  167SAPS  H20S18897   4.394   5.739   5.429  2.3009 -2.4306 -1.8639
  167SAPS  H20T18898   4.304   5.739   5.277  0.1551 -4.7682 -1.3992
  167SAPS   C3318899   4.754   5.924   6.329 -0.1297  0.3765 -0.2343
  167SAPS   H3X18900   4.722   5.820   6.308  0.5440 -0.2536  1.6059
  167SAPS   H3Y18901   4.843   5.938   6.264  0.1632  0.5330  0.1957
  167SAPS   C3418902   4.637   6.010   6.288  0.2731  0.2502  0.3280
  167SAPS   H4X18903   4.625   6.097   6.357  0.5135  1.6071 -1.2780
  167SAPS   H4Y18904   4.543   5.951   6.290 -0.2076  1.0195  1.7302
  167SAPS   C3518905   4.650   6.063   6.145 -0.4461 -0.0267  0.5392
  167SAPS   H5X18906   4.752   6.102   6.126 -1.2716  0.8327 -2.7335
  167SAPS   H5Y18907   4.586   6.151   6.123 -1.4336 -0.8986 -0.2298
  167SAPS   C3618908   4.626   5.956   6.043 -0.0394  0.2547 -0.3987
  167SAPS   H6X18909   4.528   5.904   6.054  1.5420 -2.5170  2.0787
  167SAPS   H6Y18910   4.699   5.874   6.058 -2.4640 -2.1028 -0.7808
  167SAPS   C3718911   4.643   6.000   5.900  0.2200  0.5059 -0.0299
  167SAPS   H7X18912   4.653   6.110   5.906  0.4450  0.5167 -0.5237
  167SAPS   H7Y18913   4.554   5.976   5.837  1.6533 -1.3583 -1.4723
  167SAPS   C3818914   4.765   5.927   5.823  0.0998  0.5922 -0.2718
  167SAPS   H8X18915   4.758   5.818   5.839  2.5768  0.4244  0.1016
  167SAPS   H8Y18916   4.855   5.974   5.868  0.1124 -1.6944  2.3877
  167SAPS   C3918917   4.769   5.959   5.675 -0.3463  0.2589  0.5335
  167SAPS   H9X18918   4.757   6.068   5.662  0.8348  0.2446 -0.8423
  167SAPS   H9Y18919   4.675   5.918   5.632  0.1201  0.6393 -0.8999
  167SAPS  C31018920   4.883   5.907   5.583 -0.6098 -0.1089 -0.3018
  167SAPS  H10X18921   4.841   5.916   5.481 -2.0678  1.5464  0.3962
  167SAPS  H10Y18922   4.901   5.801   5.609 -1.4295 -0.2000 -0.0778
  167SAPS  C31118923   5.011   5.995   5.590  0.2174  0.0968  0.0677
  167SAPS  H11X18924   5.056   5.999   5.691  0.5511  1.6735 -0.1230
  167SAPS  H11Y18925   5.004   6.102   5.561  3.0048  0.1924 -0.5094
  167SAPS  C31218926   5.129   5.934   5.505  0.2949 -0.0883  0.0811
  167SAPS  H12X18927   5.147   5.828   5.532  1.8979  0.5352  1.6535
  167SAPS  H12Y18928   5.218   5.996   5.530  0.5886 -0.4625 -0.0262
  167SAPS  C31318929   5.106   5.948   5.350  0.6901  0.7053  0.1915
  167SAPS  H13X18930   5.029   6.026   5.331 -2.4473 -2.2820 -0.4013
  167SAPS  H13Y18931   5.055   5.853   5.323  0.2508  1.0688 -0.2707
  167SAPS  C31418932   5.224   5.967   5.255  0.0297 -0.0175 -0.5808
  167SAPS  H14X18933   5.283   5.874   5.262 -0.2864 -0.1061  1.1455
  167SAPS  H14Y18934   5.287   6.051   5.290 -0.2678 -0.3646  0.8592
  167SAPS  C31518935   5.193   5.987   5.099  0.4332  0.2572 -0.3884
  167SAPS  H15X18936   5.293   5.978   5.052  1.6467 -1.5087  2.2829
  167SAPS  H15Y18937   5.140   6.081   5.070  0.5489 -0.1285 -1.9394
  167SAPS  C31618938   5.089   5.885   5.047  0.8377 -0.0340  0.6706
  167SAPS  H16X18939   5.063   5.927   4.947 -1.3238 -2.8020 -0.0713
  167SAPS  H16Y18940   4.999   5.864   5.109 -0.8717 -0.5699 -1.8297
  167SAPS  C31718941   5.154   5.750   5.024 -0.5034  0.6430  0.0523
  167SAPS  H17X18942   5.068   5.679   5.024  0.6894 -0.8721  1.5649
  167SAPS  H17Y18943   5.213   5.724   5.114  0.6115 -1.8296 -1.2872
  167SAPS  C31818944   5.230   5.731   4.895  0.0366 -0.4209  0.7536
  167SAPS  H18X18945   5.278   5.631   4.903  1.8488  0.4265  1.2059
  167SAPS  H18Y18946   5.310   5.807   4.880  2.1368 -2.7928 -0.6665
  167SAPS  H18Z18947   5.159   5.728   4.810  1.7529  0.9426 -0.8333
  168SAPS     N18948   1.765   6.455   6.855  0.4480  0.3828  0.1009
  168SAPS   HN118949   1.755   6.499   6.761  1.2204  2.6650  1.0105
  168SAPS   HN218950   1.812   6.522   6.919  0.4574 -0.2660  0.7930
  168SAPS   HN318951   1.834   6.377   6.850 -0.8273 -0.7386 -0.5346
  168SAPS   C1218952   1.633   6.409   6.908  0.0865 -0.5396 -0.9283
  168SAPS  H12A18953   1.589   6.339   6.839  1.2595 -0.3243 -1.9266
  168SAPS   C1318954   1.621   6.340   7.045 -0.4444 -0.0672 -0.1122
  168SAPS  O13A18955   1.724   6.281   7.093 -0.2979 -0.6206 -0.7053
  168SAPS  O13B18956   1.504   6.322   7.084  0.4465 -0.1510  0.1746
  168SAPS   C1118957   1.537   6.532   6.913  0.3054  0.2371  0.6827
  168SAPS  H11A18958   1.573   6.612   6.981  1.8554  0.5553 -0.4682
  168SAPS  H11B18959   1.434   6.508   6.947  0.4761 -0.0998  0.9636
  168SAPS     P18960   1.457   6.721   6.759 -0.0665  0.0117  0.1181
  168SAPS   O1318961   1.313   6.717   6.760  0.2743  0.2280  0.1401
  168SAPS   O1418962   1.515   6.810   6.862  0.1259  0.3911 -0.0892
  168SAPS   O1218963   1.513   6.575   6.776  1.0084  0.4144 -0.8250
  168SAPS   O1118964   1.511   6.763   6.614  0.0409  0.1482 -0.1885
  168SAPS    C118965   1.432   6.698   6.514 -0.3360  0.2239 -0.3959
  168SAPS    HA18966   1.444   6.588   6.508 -2.2322  0.0205 -1.4020
  168SAPS    HB18967   1.324   6.719   6.528  0.2429  1.6954  2.5725
  168SAPS    C218968   1.478   6.745   6.374 -0.2049  0.1301 -0.1846
  168SAPS    HS18969   1.475   6.856   6.369  0.9518  0.1785 -0.1767
  168SAPS   O2118970   1.395   6.688   6.272 -0.3169 -0.4724 -0.0557
  168SAPS   C2118971   1.271   6.746   6.268  0.2405 -0.6843 -0.2229
  168SAPS   O2218972   1.234   6.836   6.346  0.2341  0.4748  0.1413
  168SAPS   C2218973   1.193   6.700   6.141 -0.4754 -0.1308 -0.6953
  168SAPS   H2R18974   1.084   6.694   6.161 -0.2756  0.8996  0.9831
  168SAPS   H2S18975   1.202   6.781   6.065 -1.2317  0.1547 -0.4871
  168SAPS    C318976   1.627   6.712   6.348  0.2029 -0.3030  0.4033
  168SAPS    HX18977   1.659   6.608   6.373 -1.5835 -1.0925 -0.3549
  168SAPS    HY18978   1.698   6.771   6.409 -0.0395  0.3936  0.0276
  168SAPS   O3118979   1.667   6.730   6.210  0.1822  0.1402 -0.2124
  168SAPS   C3118980   1.647   6.621   6.131 -0.1671  0.3951  0.0977
  168SAPS   O3218981   1.605   6.514   6.164  0.3051  0.0240  0.2705
  168SAPS   C3218982   1.690   6.658   5.992 -0.1367 -0.2871 -0.3571
  168SAPS   H2X18983   1.801   6.651   5.983 -0.1877  0.0764 -1.5027
  168SAPS   H2Y18984   1.662   6.764   5.974 -1.1335 -0.5994 -0.7402
  168SAPS   C2318985   1.255   6.563   6.094  0.0618 -0.1442 -0.6012
  168SAPS   H3R18986   1.252   6.490   6.177  0.1210 -0.7965 -1.1588
  168SAPS   H3S18987   1.361   6.585   6.070 -0.1193 -0.8309 -2.1727
  168SAPS   C2418988   1.174   6.519   5.969 -0.2300  0.2823  0.5229
  168SAPS   H4R18989   1.215   6.424   5.929  0.5034  1.0298 -0.5545
  168SAPS   H4S18990   1.166   6.602   5.896  0.2010 -0.7141 -0.6758
  168SAPS   C2518991   1.036   6.488   6.009 -0.3922  0.2697  0.0387
  168SAPS   H5R18992   1.034   6.428   6.101 -1.3219 -0.1483 -0.2411
  168SAPS   C2618993   0.925   6.519   5.934  0.2357 -0.1381  0.1089
  168SAPS   H6R18994   0.825   6.497   5.974 -0.8071  1.3780 -1.5630
  168SAPS   C2718995   0.920   6.595   5.803  0.7066 -0.0277 -0.6544
  168SAPS   H7R18996   0.843   6.551   5.735 -0.4397  0.9857 -0.0564
  168SAPS   H7S18997   1.015   6.578   5.748  0.4684 -2.1255 -0.5118
  168SAPS   C2818998   0.894   6.740   5.833 -0.5289  0.4809  0.3825
  168SAPS   H8R18999   0.949   6.777   5.921  2.7525 -2.9039  0.0036
  168SAPS   C2919000   0.829   6.827   5.761 -0.2594 -0.4155  0.3845
  168SAPS   H9R19001   0.813   6.931   5.795  0.0603 -0.7951  1.7095
  168SAPS  C21019002   0.782   6.790   5.621 -0.4059  0.1332 -0.0123
  168SAPS  H10R19003   0.840   6.715   5.565  2.9821  2.2882  0.3279
  168SAPS  H10S19004   0.794   6.880   5.558  0.3305  1.0462  1.3763
  168SAPS  C21119005   0.629   6.782   5.615 -0.1622  0.0131  0.0121
  168SAPS  H11R19006   0.574   6.771   5.710 -2.8749 -2.0566 -1.6371
  168SAPS  C21219007   0.548   6.777   5.507 -0.1429 -0.7476  0.3724
  168SAPS  H12R19008   0.444   6.761   5.539  0.3380  1.1646  3.3201
  168SAPS  C21319009   0.567   6.804   5.364 -0.2458 -0.0992  0.8523
  168SAPS  H13R19010   0.507   6.731   5.304 -0.3007  0.5284  0.1278
  168SAPS  H13S19011   0.675   6.792   5.343 -0.6924 -1.6137 -0.9230
  168SAPS  C21419012   0.533   6.946   5.327 -0.7036 -0.1904  0.7705
  168SAPS  H14R19013   0.574   7.028   5.388  2.3548  0.3666 -1.7365
  168SAPS  C21519014   0.468   6.991   5.223  0.5135 -0.1840  0.3711
  168SAPS  H15R19015   0.463   7.100   5.208  1.7089 -0.3551 -1.7419
  168SAPS  C21619016   0.409   6.918   5.102 -0.2733 -0.2570 -0.6132
  168SAPS  H16R19017   0.315   6.966   5.067 -1.5136 -0.4605  2.1718
  168SAPS  H16S19018   0.389   6.810   5.116  2.1537 -0.9809 -2.1415
  168SAPS  C21719019   0.494   6.913   4.978 -0.3340 -0.4931  0.0599
  168SAPS  H17R19020   0.589   6.862   5.003  0.8007  1.6495  0.3455
  168SAPS  H17S19021   0.519   7.015   4.940 -0.5505 -0.5253 -0.1707
  168SAPS  C21819022   0.434   6.832   4.866  0.5325  0.1989  0.6162
  168SAPS  H18R19023   0.413   6.730   4.904  0.5907  0.3528  1.0687
  168SAPS  H18S19024   0.515   6.815   4.793 -0.1133  1.4236 -0.4237
  168SAPS  C21919025   0.311   6.889   4.785 -0.6877 -0.2753  0.1868
  168SAPS  H19R19026   0.333   6.888   4.676  3.8457  1.3411  0.8679
  168SAPS  H19S19027   0.289   6.996   4.807 -0.3801 -0.2773  0.5000
  168SAPS  C22019028   0.178   6.822   4.806 -0.7079 -0.3017 -0.3313
  168SAPS  H20R19029   0.105   6.851   4.727 -1.7007  2.9371  1.5918
  168SAPS  H20S19030   0.134   6.851   4.904  1.1448  2.2266 -0.1516
  168SAPS  H20T19031   0.194   6.712   4.807 -1.0219 -0.3508  1.0348
  168SAPS   C3319032   1.622   6.568   5.887  0.0566  0.0217 -0.0985
  168SAPS   H3X19033   1.518   6.537   5.912  0.0907 -1.0989 -1.1782
  168SAPS   H3Y19034   1.675   6.471   5.877 -0.0976  0.0088 -0.8663
  168SAPS   C3419035   1.635   6.619   5.735 -0.3941  0.0491  0.7972
  168SAPS   H4X19036   1.605   6.532   5.671  1.5873 -1.1524  1.4149
  168SAPS   H4Y19037   1.741   6.628   5.706 -0.3697  1.6719  1.3210
  168SAPS   C3519038   1.564   6.742   5.685 -0.3362  0.5235 -0.4466
  168SAPS   H5X19039   1.611   6.823   5.745  2.0733 -1.9433  1.1740
  168SAPS   H5Y19040   1.456   6.735   5.710  0.2415  0.3213  2.2910
  168SAPS   C3619041   1.575   6.740   5.535 -0.3621  0.0214 -0.3281
  168SAPS   H6X19042   1.497   6.676   5.488 -0.8261 -0.1423  0.6408
  168SAPS   H6Y19043   1.666   6.685   5.503 -0.2292 -1.0263  1.6658
  168SAPS   C3719044   1.546   6.877   5.479  0.0681  0.4361  0.4912
  168SAPS   H7X19045   1.638   6.939   5.482  0.8033 -0.4509 -1.6656
  168SAPS   H7Y19046   1.461   6.920   5.535 -1.1772 -1.7373  0.4051
  168SAPS   C3819047   1.511   6.872   5.331 -0.0200 -0.6090 -0.2557
  168SAPS   H8X19048   1.418   6.813   5.320 -0.9857  1.0053 -1.1399
  168SAPS   H8Y19049   1.587   6.818   5.272  0.5120 -2.3518  1.8883
  168SAPS   C3919050   1.486   7.005   5.260  0.1706 -0.7551 -0.2346
  168SAPS   H9X19051   1.433   7.071   5.332 -0.8415 -1.5701 -0.2048
  168SAPS   H9Y19052   1.417   6.987   5.175  0.4272  0.9862 -0.8684
  168SAPS  C31019053   1.610   7.075   5.204  0.2223 -0.9904 -0.2121
  168SAPS  H10X19054   1.683   7.080   5.288 -0.7496  1.6757  0.5812
  168SAPS  H10Y19055   1.582   7.178   5.173 -0.1023 -0.8168  0.6206
  168SAPS  C31119056   1.656   7.014   5.071  0.4239  0.2600 -0.2872
  168SAPS  H11X19057   1.577   7.030   4.995 -1.7210  2.9435  2.2492
  168SAPS  H11Y19058   1.669   6.904   5.083  0.0051  0.3685  1.6067
  168SAPS  C31219059   1.783   7.075   5.021 -0.4257 -0.0324  0.0799
  168SAPS  H12X19060   1.873   7.080   5.086 -0.2263  1.8902 -0.2850
  168SAPS  H12Y19061   1.777   7.184   5.003  1.9993  0.1362 -0.0502
  168SAPS  C31319062   1.833   7.002   4.894 -0.4956 -0.7130  1.0238
  168SAPS  H13X19063   1.761   7.022   4.812 -2.6988  0.9895  3.2105
  168SAPS  H13Y19064   1.830   6.892   4.909 -0.6326 -1.1316 -1.6115
  168SAPS  C31419065   1.981   7.048   4.853 -0.3502  0.4137  0.6624
  168SAPS  H14X19066   2.045   7.025   4.941 -2.4080 -0.7658  1.9297
  168SAPS  H14Y19067   1.971   7.157   4.837  0.5285  0.5886  1.2521
  168SAPS  C31519068   2.037   6.974   4.730 -0.4739 -0.1444  0.0233
  168SAPS  H15X19069   1.986   6.996   4.634  0.4585  1.3693 -0.1538
  168SAPS  H15Y19070   2.040   6.865   4.753  1.2790  0.2248  1.8244
  168SAPS  C31619071   2.186   7.011   4.709  0.6105 -0.2601 -0.2457
  168SAPS  H16X19072   2.242   6.996   4.803 -0.7133 -1.7930  0.3409
  168SAPS  H16Y19073   2.183   7.120   4.687 -2.6169 -0.1147  0.4177
  168SAPS  C31719074   2.261   6.935   4.602  0.7231 -0.8853  0.4454
  168SAPS  H17X19075   2.199   6.948   4.510 -0.2865 -0.8073  1.1193
  168SAPS  H17Y19076   2.259   6.830   4.639 -1.9592 -1.0159  0.1190
  168SAPS  C31819077   2.402   6.983   4.587 -0.4342 -0.2691 -0.2131
  168SAPS  H18X19078   2.455   6.950   4.679 -1.6114  2.5501  1.6054
  168SAPS  H18Y19079   2.401   7.093   4.577  1.4036 -0.2644 -0.6237
  168SAPS  H18Z19080   2.445   6.927   4.501 -0.1368  1.4642 -1.2369
  169SAPS     N19081   3.678   0.571   6.890  0.0378  0.0533 -0.5886
  169SAPS   HN119082   3.599   0.555   6.823 -0.2018  1.3949 -0.6589
  169SAPS   HN219083   3.753   0.517   6.844  1.6915  1.3553  0.4769
  169SAPS   HN319084   3.645   0.528   6.979 -1.8654  0.2556 -1.1467
  169SAPS   C1219085   3.714   0.718   6.908  0.3659  0.3996 -0.3972
  169SAPS  H12A19086   3.623   0.768   6.934  0.8459  2.3246 -2.1723
  169SAPS   C1319087   3.824   0.735   7.017 -0.8615  0.6116  0.6178
  169SAPS  O13A19088   3.867   0.639   7.087  0.0159 -0.5484 -0.8882
  169SAPS  O13B19089   3.860   0.853   7.041  0.0149  0.3924 -0.2235
  169SAPS   C1119090   3.758   0.770   6.768 -0.2473  0.2954  0.7731
  169SAPS  H11A19091   3.673   0.766   6.697 -0.2356  1.7860  0.6416
  169SAPS  H11B19092   3.836   0.698   6.732 -1.4552 -0.3357 -0.6928
  169SAPS     P19093   3.938   0.944   6.702  0.0581 -0.0616  0.2651
  169SAPS   O1319094   3.977   1.080   6.740 -0.5823 -0.2065  0.1948
  169SAPS   O1419095   4.031   0.834   6.730  0.1056  0.3435 -0.1970
  169SAPS   O1219096   3.809   0.906   6.769  0.5930  0.2664 -0.5539
  169SAPS   O1119097   3.909   0.945   6.549  0.0847 -0.1895  0.7262
  169SAPS    C119098   3.795   1.011   6.503  1.2521 -0.2869 -0.8324
  169SAPS    HA19099   3.714   0.938   6.527  0.9352  0.5862  0.8866
  169SAPS    HB19100   3.768   1.104   6.557 -2.2829 -0.9924 -1.0884
  169SAPS    C219101   3.794   1.052   6.353  0.3228 -0.3307  0.0657
  169SAPS    HS19102   3.687   1.061   6.325  0.8792 -0.7861 -2.4331
  169SAPS   O2119103   3.854   0.948   6.280 -0.1284  0.3082  0.2438
  169SAPS   C2119104   3.818   0.935   6.155 -0.1477 -0.4491 -0.4293
  169SAPS   O2219105   3.734   1.002   6.098 -0.1874 -0.2930 -0.0169
  169SAPS   C2219106   3.901   0.826   6.097 -0.1765  0.1493  0.3999
  169SAPS   H2R19107   3.954   0.876   6.013 -1.0053  1.4360  0.6286
  169SAPS   H2S19108   3.969   0.783   6.173  0.4596  0.3201 -0.0651
  169SAPS    C319109   3.882   1.182   6.337 -0.4763 -0.0104  0.0517
  169SAPS    HX19110   3.985   1.161   6.370 -0.7406 -1.7289 -0.1606
  169SAPS    HY19111   3.834   1.251   6.410  0.3466 -0.5826  1.1543
  169SAPS   O3119112   3.884   1.241   6.202 -0.5752  0.2604 -0.2099
  169SAPS   C3119113   3.871   1.367   6.196 -0.2017 -0.1209  0.2213
  169SAPS   O3219114   3.851   1.443   6.293  0.0491 -0.3933 -0.3860
  169SAPS   C3219115   3.903   1.414   6.048 -0.3729  0.3467  0.0528
  169SAPS   H2X19116   3.816   1.380   5.987 -0.2028  0.9131 -0.5184
  169SAPS   H2Y19117   3.994   1.367   6.005  1.0389  1.2725  1.9023
  169SAPS   C2319118   3.830   0.700   6.041  0.6891 -0.1955 -0.0167
  169SAPS   H3R19119   3.736   0.722   5.987  1.3728 -1.4651 -1.8251
  169SAPS   H3S19120   3.792   0.644   6.129 -0.9378  3.4422  1.8061
  169SAPS   C2419121   3.929   0.623   5.941 -0.2520 -0.1412  0.4662
  169SAPS   H4R19122   4.007   0.584   6.011  0.8896  1.5746  0.2213
  169SAPS   H4S19123   3.985   0.685   5.867 -0.3292 -0.3954  0.1955
  169SAPS   C2519124   3.846   0.509   5.885 -0.3455 -0.0522  0.4158
  169SAPS   H5R19125   3.800   0.437   5.954 -1.3897  1.4740  1.3751
  169SAPS   C2619126   3.799   0.505   5.763 -0.6528 -0.1275  0.7486
  169SAPS   H6R19127   3.719   0.433   5.739  0.0377 -0.9742  0.9688
  169SAPS   C2719128   3.831   0.607   5.658 -0.1991 -0.0313 -0.1776
  169SAPS   H7R19129   3.938   0.633   5.648 -0.4971  0.9970 -0.8538
  169SAPS   H7S19130   3.775   0.698   5.688 -1.0977 -1.0667  1.4082
  169SAPS   C2819131   3.780   0.555   5.522 -0.0943 -0.1535  0.8069
  169SAPS   H8R19132   3.677   0.515   5.523  1.0993 -3.7972 -1.2692
  169SAPS   C2919133   3.851   0.546   5.408  0.0524 -0.1821  0.2030
  169SAPS   H9R19134   3.793   0.509   5.323 -1.4896 -0.2168  1.2360
  169SAPS  C21019135   3.996   0.588   5.388 -1.3114 -0.8105  0.6215
  169SAPS  H10R19136   4.062   0.512   5.435 -2.6462 -1.9022  0.7639
  169SAPS  H10S19137   4.020   0.684   5.439  1.0136 -0.8869 -0.1859
  169SAPS  C21119138   4.038   0.602   5.242 -0.6401 -0.8124 -0.0076
  169SAPS  H11R19139   4.035   0.511   5.180 -0.0122  0.3086 -1.7663
  169SAPS  C21219140   4.054   0.722   5.185  0.1589 -0.7264  0.4477
  169SAPS  H12R19141   4.076   0.725   5.077  0.7588  1.6730  0.5766
  169SAPS  C21319142   4.054   0.859   5.250  0.3116 -0.9591 -0.4730
  169SAPS  H13R19143   3.981   0.862   5.334 -0.4744  0.8722 -1.1604
  169SAPS  H13S19144   4.003   0.931   5.182 -0.4111  1.6966  2.6005
  169SAPS  C21419145   4.189   0.917   5.296  0.5181 -0.0445 -0.7581
  169SAPS  H14R19146   4.268   0.889   5.225 -0.7068 -1.8000 -1.4927
  169SAPS  C21519147   4.217   0.991   5.404 -0.2503  0.0442  0.1419
  169SAPS  H15R19148   4.323   1.013   5.422  0.2364 -1.2902 -0.9465
  169SAPS  C21619149   4.117   1.043   5.504 -0.1992 -0.3337  0.1244
  169SAPS  H16R19150   4.024   1.075   5.452 -0.3077 -0.8033  0.0210
  169SAPS  H16S19151   4.155   1.137   5.549 -3.2787  0.4369  1.3756
  169SAPS  C21719152   4.087   0.944   5.615 -0.2700  0.0574 -0.0833
  169SAPS  H17R19153   4.187   0.911   5.650  0.4822  2.7718  0.5500
  169SAPS  H17S19154   4.054   0.853   5.561  3.1314  0.0515 -2.4554
  169SAPS  C21819155   4.014   1.001   5.734  0.2830  0.4295  0.7237
  169SAPS  H18R19156   4.067   1.089   5.776  1.6859  0.5344 -1.1576
  169SAPS  H18S19157   4.013   0.928   5.818 -0.0056 -0.5479 -0.1205
  169SAPS  C21919158   3.869   1.033   5.706 -0.0435  0.1602  0.7819
  169SAPS  H19R19159   3.811   0.938   5.706 -1.2431  0.8613  1.9632
  169SAPS  H19S19160   3.849   1.076   5.605  0.6608  0.5902  0.8190
  169SAPS  C22019161   3.817   1.140   5.806  0.0177 -0.0422  0.1382
  169SAPS  H20R19162   3.842   1.118   5.912  0.0973 -1.3017 -0.1250
  169SAPS  H20S19163   3.708   1.148   5.785 -0.1315 -1.8618 -0.0093
  169SAPS  H20T19164   3.864   1.240   5.800  0.6251 -0.0941  2.9557
  169SAPS   C3319165   3.930   1.558   6.045  0.0254 -0.1751 -0.2396
  169SAPS   H3X19166   4.013   1.578   6.116  0.1622 -0.5199 -0.3000
  169SAPS   H3Y19167   3.842   1.620   6.072 -1.0334 -1.6811 -0.0818
  169SAPS   C3419168   3.990   1.596   5.909 -0.7445 -0.3398  1.1092
  169SAPS   H4X19169   3.933   1.535   5.836 -1.5670  0.6719  0.8926
  169SAPS   H4Y19170   4.092   1.551   5.912 -0.4261  0.2362 -0.2699
  169SAPS   C3519171   3.994   1.751   5.880 -0.1300  0.3062  0.0979
  169SAPS   H5X19172   4.063   1.801   5.953 -0.1962  3.5472 -1.8783
  169SAPS   H5Y19173   3.898   1.806   5.891  0.6660  2.0124 -1.0125
  169SAPS   C3619174   4.052   1.784   5.737 -0.3394 -0.2015 -0.2037
  169SAPS   H6X19175   4.110   1.692   5.715  1.1211  0.2935  1.3812
  169SAPS   H6Y19176   4.124   1.868   5.747 -0.1502 -0.4624  0.7436
  169SAPS   C3719177   3.943   1.825   5.636  0.4657  0.3567 -0.6205
  169SAPS   H7X19178   3.926   1.934   5.644  0.2500  0.1657  3.2945
  169SAPS   H7Y19179   3.850   1.768   5.658  0.1159  1.6641  1.4937
  169SAPS   C3819180   3.988   1.784   5.492  0.7340  0.0590  0.1960
  169SAPS   H8X19181   4.015   1.677   5.498  0.8084  0.1238  1.2544
  169SAPS   H8Y19182   4.080   1.833   5.454  1.5937  0.3378  2.4682
  169SAPS   C3919183   3.872   1.803   5.393  0.3024  0.8079  0.4151
  169SAPS   H9X19184   3.863   1.912   5.372 -0.4129  0.9252  1.2559
  169SAPS   H9Y19185   3.780   1.750   5.424  1.1764 -0.9043  0.1935
  169SAPS  C31019186   3.914   1.740   5.255 -0.0634  0.2952 -0.0700
  169SAPS  H10X19187   3.890   1.632   5.253 -1.9603  0.6562 -2.6984
  169SAPS  H10Y19188   4.022   1.760   5.236  0.0431  0.1776  0.4099
  169SAPS  C31119189   3.820   1.802   5.146 -0.6673  0.4197  0.3273
  169SAPS  H11X19190   3.846   1.910   5.144  2.0793 -0.1604 -0.3848
  169SAPS  H11Y19191   3.712   1.794   5.171 -0.9741 -1.0496 -1.2410
  169SAPS  C31219192   3.857   1.758   4.992  0.3074  0.1354 -0.3856
  169SAPS  H12X19193   3.850   1.648   4.981 -0.8212  0.0745  0.6961
  169SAPS  H12Y19194   3.962   1.788   4.972  0.6921  0.0771  1.3672
  169SAPS  C31319195   3.764   1.836   4.904 -0.2449  0.2738  0.2709
  169SAPS  H13X19196   3.783   1.944   4.891  0.9905 -0.0071 -0.4440
  169SAPS  H13Y19197   3.662   1.820   4.946  0.7929  0.6719  3.1843
  169SAPS  C31419198   3.761   1.774   4.766 -0.3523  0.7361 -0.1642
  169SAPS  H14X19199   3.680   1.818   4.704 -1.4147 -0.5946  0.2410
  169SAPS  H14Y19200   3.743   1.665   4.774  0.4014  0.6332  0.1711
  169SAPS  C31519201   3.889   1.786   4.683  0.0373  0.3128 -0.4027
  169SAPS  H15X19202   3.961   1.703   4.703  0.3678  0.7294  0.1508
  169SAPS  H15Y19203   3.927   1.888   4.704 -2.4140  1.1106  0.4802
  169SAPS  C31619204   3.856   1.785   4.533 -0.7585 -0.1323  0.3050
  169SAPS  H16X19205   3.776   1.862   4.528 -0.3153  0.3692  0.8516
  169SAPS  H16Y19206   3.809   1.688   4.503 -0.5596  0.4934 -2.2451
  169SAPS  C31719207   3.982   1.815   4.446  0.1837 -0.5382 -0.2732
  169SAPS  H17X19208   4.062   1.742   4.471  1.1476  0.3855 -0.6009
  169SAPS  H17Y19209   4.008   1.916   4.484 -0.5876 -0.8383  1.1059
  169SAPS  C31819210   3.956   1.814   4.290 -0.3286  0.3815  0.1375
  169SAPS  H18X19211   3.918   1.916   4.268  0.4176  0.7146  0.3526
  169SAPS  H18Y19212   3.871   1.751   4.256  0.6842 -0.5837 -0.6876
  169SAPS  H18Z19213   4.049   1.802   4.232 -1.9375  2.6848 -3.2094
  170SAPS     N19214   5.086   6.334   7.184  0.1065 -0.4521 -0.1755
  170SAPS   HN119215   5.044   6.304   7.274  1.1983  2.2555  1.3530
  170SAPS   HN219216   5.045   6.300   7.094  1.2392 -1.5001 -0.3135
  170SAPS   HN319217   5.178   6.286   7.182 -0.1700 -0.9771 -1.5996
  170SAPS   C1219218   5.105   6.483   7.189  0.4114  0.2219  0.1401
  170SAPS  H12A19219   5.010   6.534   7.181  0.6736  0.4682 -2.2870
  170SAPS   C1319220   5.191   6.542   7.302  0.0116  1.0752 -0.4510
  170SAPS  O13A19221   5.254   6.469   7.387  0.6914  0.2554  0.5029
  170SAPS  O13B19222   5.205   6.666   7.315 -0.6468 -0.0977  0.4818
  170SAPS   C1119223   5.166   6.524   7.047  0.0693  0.3192 -0.1328
  170SAPS  H11A19224   5.263   6.474   7.027  0.4361  1.4027 -1.2335
  170SAPS  H11B19225   5.186   6.633   7.037  0.8872  0.0451 -1.9095
  170SAPS     P19226   4.993   6.567   6.865 -0.1080 -0.0055  0.1143
  170SAPS   O1319227   4.877   6.485   6.822  0.5860  0.3362  0.0654
  170SAPS   O1419228   4.973   6.692   6.943 -0.4235  0.0068 -0.5154
  170SAPS   O1219229   5.084   6.472   6.942  0.7770 -0.1955 -0.9458
  170SAPS   O1119230   5.072   6.604   6.734  0.9652  0.1365 -0.3006
  170SAPS    C119231   5.122   6.496   6.647  0.4955  0.3699 -0.7731
  170SAPS    HA19232   5.183   6.422   6.702 -0.1604  2.2689  2.8228
  170SAPS    HB19233   5.031   6.455   6.598 -1.0578  0.5046  1.8170
  170SAPS    C219234   5.207   6.554   6.531 -0.0610  0.4821  0.3299
  170SAPS    HS19235   5.258   6.472   6.475  0.9294  0.1869  1.6164
  170SAPS   O2119236   5.296   6.660   6.584 -0.5643  0.0559  0.1214
  170SAPS   C2119237   5.402   6.618   6.629 -0.1862 -0.3407  0.0304
  170SAPS   O2219238   5.445   6.504   6.622 -0.1557  0.5974 -0.0636
  170SAPS   C2219239   5.472   6.733   6.716  0.3545 -0.0637 -0.1216
  170SAPS   H2R19240   5.407   6.822   6.704  0.8676  0.4873  1.1178
  170SAPS   H2S19241   5.448   6.701   6.820  1.5802  2.5787  1.0594
  170SAPS    C319242   5.124   6.632   6.420 -0.4446 -0.1687 -0.1999
  170SAPS    HX19243   5.198   6.688   6.360 -1.5091  1.2421 -0.2541
  170SAPS    HY19244   5.055   6.709   6.462 -0.6207  0.9605 -2.4216
  170SAPS   O3119245   5.042   6.543   6.343 -0.0485  0.0580  0.1917
  170SAPS   C3119246   4.959   6.595   6.268  0.2307  0.0185  0.4795
  170SAPS   O3219247   4.936   6.717   6.260  0.8993 -0.1479  0.1644
  170SAPS   C3219248   4.895   6.488   6.175 -0.7977 -0.3313 -0.2276
  170SAPS   H2X19249   4.827   6.550   6.113  0.1471  1.7192  0.6728
  170SAPS   H2Y19250   4.839   6.408   6.228 -0.7356  0.5938  1.2871
  170SAPS   C2319251   5.620   6.766   6.696  0.5766  0.2072 -0.2131
  170SAPS   H3R19252   5.683   6.684   6.738 -0.1931 -0.9245 -1.2183
  170SAPS   H3S19253   5.644   6.857   6.755  2.1518 -0.9244  0.9974
  170SAPS   C2419254   5.661   6.794   6.552 -0.2030  0.0359 -0.9262
  170SAPS   H4R19255   5.643   6.700   6.495 -2.0134 -0.4702  0.3675
  170SAPS   H4S19256   5.770   6.812   6.540  0.0570 -0.5610  0.4091
  170SAPS   C2519257   5.575   6.904   6.501  0.0325 -0.4539 -0.2460
  170SAPS   H5R19258   5.539   6.973   6.579  1.5497  0.4125 -0.2655
  170SAPS   C2619259   5.535   6.933   6.376  1.2141  0.6049  0.5343
  170SAPS   H6R19260   5.486   7.030   6.357  2.8204  2.1255  3.4486
  170SAPS   C2719261   5.571   6.850   6.259  0.1693 -0.2067  0.3325
  170SAPS   H7R19262   5.672   6.806   6.273  0.2021  0.3527  2.0800
  170SAPS   H7S19263   5.573   6.914   6.168  1.9101  0.2936  0.6770
  170SAPS   C2819264   5.464   6.740   6.241  0.0203  0.0779 -0.3531
  170SAPS   H8R19265   5.425   6.693   6.332  0.9010  0.7372  0.3736
  170SAPS   C2919266   5.410   6.705   6.125 -0.0623  0.6188  0.5083
  170SAPS   H9R19267   5.343   6.618   6.121  0.0401  0.5661 -0.0224
  170SAPS  C21019268   5.446   6.758   5.984 -0.1904 -0.0055  0.2400
  170SAPS  H10R19269   5.491   6.860   5.987 -0.3100  0.0501  3.1771
  170SAPS  H10S19270   5.354   6.753   5.922 -0.9375 -1.6678  1.4181
  170SAPS  C21119271   5.558   6.670   5.919  0.2994  0.0365 -0.1807
  170SAPS  H11R19272   5.620   6.624   5.997 -0.9673  0.0535  0.8596
  170SAPS  C21219273   5.593   6.662   5.791 -0.1531  0.6195 -0.6616
  170SAPS  H12R19274   5.674   6.595   5.759 -0.1054  0.7171 -0.7455
  170SAPS  C21319275   5.523   6.744   5.684  0.0393  0.3132  0.4215
  170SAPS  H13R19276   5.439   6.807   5.718  0.0283  0.9880 -0.7746
  170SAPS  H13S19277   5.472   6.668   5.621 -0.5663  1.4556 -0.5114
  170SAPS  C21419278   5.611   6.836   5.609 -0.2882 -0.6138  0.1674
  170SAPS  H14R19279   5.679   6.892   5.674  1.6016 -0.9387 -1.4150
  170SAPS  C21519280   5.612   6.875   5.477 -0.3198 -0.1673 -0.9663
  170SAPS  H15R19281   5.679   6.958   5.450 -0.6570 -0.1167 -1.6732
  170SAPS  C21619282   5.502   6.844   5.377  0.1941 -0.3318  0.0447
  170SAPS  H16R19283   5.421   6.799   5.437  1.3710 -3.0747 -0.2832
  170SAPS  H16S19284   5.534   6.767   5.304 -1.0301  0.0240 -0.8971
  170SAPS  C21719285   5.445   6.970   5.306 -0.5509 -0.0575 -0.3779
  170SAPS  H17R19286   5.522   7.019   5.244 -0.9444  2.2854  0.8527
  170SAPS  H17S19287   5.405   7.039   5.384 -1.8374  0.6070 -1.5722
  170SAPS  C21819288   5.329   6.933   5.212 -0.2519  0.4772 -0.2957
  170SAPS  H18R19289   5.250   6.876   5.266 -0.7233  1.3459 -0.0540
  170SAPS  H18S19290   5.374   6.874   5.129 -2.1764  2.8701 -3.2246
  170SAPS  C21919291   5.260   7.050   5.151  0.4023  0.1259  0.1302
  170SAPS  H19R19292   5.336   7.113   5.100  0.5079 -1.5946 -1.9754
  170SAPS  H19S19293   5.220   7.106   5.238  2.1827 -0.0474  1.0883
  170SAPS  C22019294   5.150   7.018   5.046 -0.5970 -0.0434 -0.6799
  170SAPS  H20R19295   5.195   6.992   4.948  0.6905  2.0250 -0.6941
  170SAPS  H20S19296   5.086   7.108   5.037 -0.0067  0.3962 -0.5546
  170SAPS  H20T19297   5.094   6.930   5.084 -5.6002  2.5858 -1.1924
  170SAPS   C3319298   4.990   6.402   6.082 -0.0023  0.5342 -0.1261
  170SAPS   H3X19299   4.927   6.360   6.000  1.3777  3.8182 -3.1102
  170SAPS   H3Y19300   5.034   6.315   6.135  1.8091  1.5222  0.0751
  170SAPS   C3419301   5.110   6.487   6.035 -0.0394 -0.2310 -0.8685
  170SAPS   H4X19302   5.160   6.540   6.119 -1.4047 -1.1108  0.5416
  170SAPS   H4Y19303   5.065   6.568   5.974  2.9796  1.2815 -1.3117
  170SAPS   C3519304   5.219   6.404   5.968  0.1868  0.3923  0.2829
  170SAPS   H5X19305   5.262   6.315   6.019  1.5732  0.4123 -0.7925
  170SAPS   H5Y19306   5.306   6.471   5.957  0.1422  0.6670  1.4834
  170SAPS   C3619307   5.166   6.357   5.825  0.3912  0.2545  0.6298
  170SAPS   H6X19308   5.156   6.453   5.771  1.3533 -0.2207 -0.4394
  170SAPS   H6Y19309   5.086   6.280   5.832  1.6318 -1.0923  0.4429
  170SAPS   C3719310   5.284   6.292   5.758  0.2967  0.3815  0.1955
  170SAPS   H7X19311   5.247   6.259   5.658 -3.1148  0.1547  1.4228
  170SAPS   H7Y19312   5.324   6.199   5.804  1.4568 -0.6703 -2.6945
  170SAPS   C3819313   5.406   6.387   5.738  0.6426  0.1727 -0.4306
  170SAPS   H8X19314   5.465   6.394   5.831  0.5772  0.4347 -0.4076
  170SAPS   H8Y19315   5.374   6.490   5.710  0.1231  0.0257 -0.3984
  170SAPS   C3919316   5.492   6.352   5.617  0.2069  0.6347 -0.4130
  170SAPS   H9X19317   5.558   6.437   5.591  2.6572 -1.4037 -1.2242
  170SAPS   H9Y19318   5.429   6.336   5.527  0.2762  1.0218 -0.5300
  170SAPS  C31019319   5.585   6.227   5.632 -0.4329  0.5496 -0.2226
  170SAPS  H10X19320   5.533   6.133   5.601 -0.5866  0.5392  0.0663
  170SAPS  H10Y19321   5.618   6.208   5.736 -2.1998  0.0926  0.2912
  170SAPS  C31119322   5.712   6.242   5.548 -0.5053  0.4016  0.3514
  170SAPS  H11X19323   5.794   6.175   5.583 -1.4376  1.1719  4.4510
  170SAPS  H11Y19324   5.749   6.347   5.551  1.5013 -0.2739  0.9574
  170SAPS  C31219325   5.684   6.228   5.399  0.7367 -0.0113 -0.1352
  170SAPS  H12X19326   5.644   6.322   5.355 -1.8864 -1.0394 -0.1251
  170SAPS  H12Y19327   5.621   6.141   5.369 -1.5246  1.9025 -1.2144
  170SAPS  C31319328   5.817   6.209   5.325  0.3853  1.0933 -0.0936
  170SAPS  H13X19329   5.870   6.124   5.372  0.2448  0.5996 -0.8260
  170SAPS  H13Y19330   5.881   6.301   5.328  0.9457  0.6850  1.3346
  170SAPS  C31419331   5.793   6.170   5.176 -0.1910  0.6331 -0.1897
  170SAPS  H14X19332   5.723   6.083   5.173  0.4715  0.0523  0.7774
  170SAPS  H14Y19333   5.889   6.140   5.130  0.0970 -0.5559  1.1258
  170SAPS  C31519334   5.737   6.281   5.092 -0.0174 -0.4428 -0.3508
  170SAPS  H15X19335   5.811   6.364   5.095 -2.4385  1.8516 -0.5753
  170SAPS  H15Y19336   5.648   6.326   5.142 -0.5206 -3.1483  1.3637
  170SAPS  C31619337   5.697   6.235   4.946 -0.0662 -0.3246 -0.3313
  170SAPS  H16X19338   5.625   6.152   4.958 -3.3859  2.4922  0.6179
  170SAPS  H16Y19339   5.782   6.201   4.882 -0.6308  0.6605 -1.6466
  170SAPS  C31719340   5.634   6.352   4.869  0.6775 -0.1496  0.2667
  170SAPS  H17X19341   5.703   6.439   4.865  2.2344 -1.2746  1.4013
  170SAPS  H17Y19342   5.540   6.382   4.920  0.7760  0.5478  0.0489
  170SAPS  C31819343   5.598   6.309   4.723  0.2500  0.4982 -0.5087
  170SAPS  H18X19344   5.498   6.260   4.724  1.1296 -1.3823  0.0161
  170SAPS  H18Y19345   5.678   6.242   4.686  1.2830  0.6949  1.2638
  170SAPS  H18Z19346   5.592   6.392   4.649 -0.9245 -0.3805 -1.4481
  171SAPS     N19347   0.232   6.119   7.283  0.6227  0.1801 -0.2784
  171SAPS   HN119348   0.310   6.188   7.292 -0.9325  1.9848  0.0624
  171SAPS   HN219349   0.245   6.040   7.350  1.1567  0.4494 -0.0563
  171SAPS   HN319350   0.228   6.073   7.190  1.3088 -1.9038  0.6455
  171SAPS   C1219351   0.102   6.196   7.310  0.4842  0.5649 -0.0831
  171SAPS  H12A19352   0.027   6.118   7.307  3.4160 -2.4674 -2.9294
  171SAPS   C1319353   0.098   6.264   7.452  0.7018  0.5028  0.3306
  171SAPS  O13A19354   0.194   6.272   7.535  0.2810 -0.1417  0.2222
  171SAPS  O13B19355  -0.022   6.270   7.493 -0.1702  0.0059  0.0660
  171SAPS   C1119356   0.069   6.307   7.200 -0.2570  0.8208 -0.3179
  171SAPS  H11A19357  -0.029   6.355   7.220 -0.4046  1.3143 -2.0658
  171SAPS  H11B19358   0.056   6.250   7.106 -1.1458  0.7354 -0.1553
  171SAPS     P19359   0.162   6.563   7.135 -0.3086  0.1816 -0.8117
  171SAPS   O1319360   0.071   6.636   7.225 -0.5676 -0.1275  0.1715
  171SAPS   O1419361   0.305   6.612   7.128 -0.5242  0.0050 -0.4945
  171SAPS   O1219362   0.173   6.408   7.196 -0.7260  0.0572  0.6012
  171SAPS   O1119363   0.113   6.538   6.989  0.2290  0.1835  0.9890
  171SAPS    C119364   0.157   6.633   6.886 -0.1192  0.4002  0.1390
  171SAPS    HA19365   0.252   6.685   6.913  1.5160 -2.3909  0.1055
  171SAPS    HB19366   0.178   6.580   6.791 -0.4931 -0.4589  0.5287
  171SAPS    C219367   0.045   6.742   6.864 -0.1349 -0.5278  0.4009
  171SAPS    HS19368   0.032   6.787   6.965 -1.1820  1.0605 -0.3991
  171SAPS   O2119369  -0.076   6.678   6.827 -0.4085  0.2870 -0.4159
  171SAPS   C2119370  -0.179   6.752   6.837  0.2585 -0.3734 -0.8257
  171SAPS   O2219371  -0.186   6.862   6.893 -0.1421  0.0419  0.0571
  171SAPS   C2219372  -0.298   6.697   6.758  0.3102 -0.4760  0.6811
  171SAPS   H2R19373  -0.267   6.601   6.712  0.0951 -0.3575  0.2803
  171SAPS   H2S19374  -0.377   6.668   6.832  2.0957 -1.1023  2.4275
  171SAPS    C319375   0.086   6.848   6.760  0.4934 -0.0794 -0.1630
  171SAPS    HX19376   0.169   6.910   6.800  0.3432  0.0648 -0.0713
  171SAPS    HY19377   0.000   6.916   6.741 -1.6112 -2.0643  1.5824
  171SAPS   O3119378   0.129   6.792   6.637  0.1186  0.5440  0.1125
  171SAPS   C3119379   0.160   6.884   6.543 -0.0315  0.1592 -0.2131
  171SAPS   O3219380   0.171   7.005   6.552  0.1484 -0.4877 -0.4780
  171SAPS   C3219381   0.176   6.811   6.408  0.4699  0.9002 -1.1916
  171SAPS   H2X19382   0.165   6.702   6.426  0.2924  1.0582 -0.2926
  171SAPS   H2Y19383   0.282   6.829   6.380  1.0689  0.4684  0.6879
  171SAPS   C2319384  -0.351   6.794   6.646 -0.3474 -0.5347 -0.7940
  171SAPS   H3R19385  -0.369   6.892   6.696  1.1030 -0.6611  0.0290
  171SAPS   H3S19386  -0.450   6.762   6.607 -0.7493  1.1094 -1.2179
  171SAPS   C2419387  -0.259   6.820   6.529  0.2132  0.2098 -0.1336
  171SAPS   H4R19388  -0.240   6.715   6.496  0.2980 -0.0279  0.6499
  171SAPS   H4S19389  -0.164   6.867   6.562 -0.5240  2.5452 -1.1177
  171SAPS   C2519390  -0.327   6.900   6.425  0.3166  0.0769 -0.1648
  171SAPS   H5R19391  -0.350   7.001   6.462  1.8074  0.4742 -0.2516
  171SAPS   C2619392  -0.352   6.870   6.295 -0.4176 -0.1309  0.1276
  171SAPS   H6R19393  -0.409   6.942   6.234 -0.2107 -0.6299 -0.6688
  171SAPS   C2719394  -0.344   6.734   6.227  0.3203 -0.3664  0.4795
  171SAPS   H7R19395  -0.435   6.717   6.165  0.1047  1.8471  0.1136
  171SAPS   H7S19396  -0.340   6.656   6.306 -1.5393  0.1623  1.1517
  171SAPS   C2819397  -0.228   6.718   6.130 -0.5078  0.5117 -0.0523
  171SAPS   H8R19398  -0.130   6.681   6.167  0.3024  1.7131 -0.9318
  171SAPS   C2919399  -0.231   6.731   6.000 -0.2885 -0.2774  0.2369
  171SAPS   H9R19400  -0.140   6.727   5.938  0.6508 -0.9646  1.6057
  171SAPS  C21019401  -0.348   6.786   5.914  0.1866 -0.4054 -0.2425
  171SAPS  H10R19402  -0.429   6.829   5.978  0.1172  2.0281 -1.8216
  171SAPS  H10S19403  -0.400   6.698   5.871  2.4531 -1.2253 -1.4194
  171SAPS  C21119404  -0.319   6.876   5.798 -0.4549  0.5542  0.5619
  171SAPS  H11R19405  -0.322   6.984   5.818  2.2079  0.8029 -0.0577
  171SAPS  C21219406  -0.306   6.840   5.663  0.7114  0.2912 -0.1333
  171SAPS  H12R19407  -0.288   6.923   5.594 -2.6663 -0.1136 -1.7160
  171SAPS  C21319408  -0.301   6.697   5.610 -0.2187 -0.3523 -0.8519
  171SAPS  H13R19409  -0.294   6.625   5.694  0.4398 -0.1928 -0.7659
  171SAPS  H13S19410  -0.206   6.694   5.552 -0.6552  0.3508 -1.6170
  171SAPS  C21419411  -0.422   6.660   5.529  0.2702  0.4393  0.1066
  171SAPS  H14R19412  -0.519   6.672   5.581 -0.7590 -0.7827 -1.4593
  171SAPS  C21519413  -0.421   6.628   5.395  0.0886  0.4138 -1.1740
  171SAPS  H15R19414  -0.512   6.579   5.357  1.6109 -1.0865 -3.1013
  171SAPS  C21619415  -0.298   6.613   5.308 -0.0390 -0.0678  1.2808
  171SAPS  H16R19416  -0.290   6.512   5.262 -1.4558 -0.9710  2.8965
  171SAPS  H16S19417  -0.199   6.630   5.355  0.9224 -0.4897 -0.4853
  171SAPS  C21719418  -0.293   6.712   5.193  0.0205  0.2126  0.1342
  171SAPS  H17R19419  -0.390   6.707   5.139 -1.5761 -0.4703  2.8810
  171SAPS  H17S19420  -0.215   6.675   5.124 -0.4235  4.1874 -2.8743
  171SAPS  C21819421  -0.283   6.858   5.241 -0.1010  0.6194 -0.0661
  171SAPS  H18R19422  -0.196   6.865   5.310 -1.4564 -0.5172  1.8803
  171SAPS  H18S19423  -0.375   6.878   5.301  0.7297 -0.4999  1.6582
  171SAPS  C21919424  -0.260   6.965   5.122  0.2511 -0.1101  0.2835
  171SAPS  H19R19425  -0.266   7.059   5.181  2.0442  0.7619 -0.8148
  171SAPS  H19S19426  -0.347   6.972   5.054 -0.3850 -1.2586  0.9466
  171SAPS  C22019427  -0.132   6.952   5.034 -0.5471  0.3797 -0.0327
  171SAPS  H20R19428  -0.105   7.042   4.976  1.1764  0.2260  0.4668
  171SAPS  H20S19429  -0.146   6.870   4.961 -1.7507  2.1004 -1.8220
  171SAPS  H20T19430  -0.052   6.931   5.108  1.1956  0.7022 -1.7519
  171SAPS   C3319431   0.083   6.861   6.302  0.2878  0.1290  0.6546
  171SAPS   H3X19432  -0.018   6.866   6.349 -1.0628  0.4523 -2.0865
  171SAPS   H3Y19433   0.091   6.784   6.222 -0.8267 -1.1496  1.7223
  171SAPS   C3419434   0.117   6.998   6.250  0.2111  0.1140  0.2030
  171SAPS   H4X19435   0.215   6.990   6.198 -0.2121  0.9639 -0.7763
  171SAPS   H4Y19436   0.143   7.070   6.330 -0.3113  0.6265 -0.0776
  171SAPS   C3519437   0.003   7.055   6.165 -0.3603 -0.1022 -0.5636
  171SAPS   H5X19438  -0.090   7.064   6.225  1.6754 -0.4497  2.8995
  171SAPS   H5Y19439  -0.009   6.975   6.089  0.0752  0.7368 -1.5386
  171SAPS   C3619440   0.028   7.185   6.092 -0.2029  0.9139 -0.7210
  171SAPS   H6X19441   0.137   7.206   6.083  0.0424 -0.7233 -1.9700
  171SAPS   H6Y19442  -0.017   7.267   6.152  1.1969  1.4102 -0.2883
  171SAPS   C3719443  -0.031   7.177   5.949  0.4456 -0.3957 -0.0942
  171SAPS   H7X19444  -0.129   7.128   5.966 -1.3029  2.7252 -0.4661
  171SAPS   H7Y19445   0.039   7.114   5.890  2.7651  0.5320  1.4989
  171SAPS   C3819446  -0.044   7.310   5.875 -0.5816 -0.3422 -0.0278
  171SAPS   H8X19447   0.047   7.371   5.861  0.9291 -2.3279  0.6338
  171SAPS   H8Y19448  -0.121   7.368   5.931 -0.6770 -0.1037 -0.3995
  171SAPS   C3919449  -0.103   7.284   5.741  0.0762 -0.4066  0.7576
  171SAPS   H9X19450  -0.197   7.225   5.752 -0.4343 -0.1051 -1.4951
  171SAPS   H9Y19451  -0.024   7.237   5.679 -0.4925  1.5586 -1.6327
  171SAPS  C31019452  -0.136   7.417   5.672 -0.2254  0.1334 -0.2245
  171SAPS  H10X19453  -0.041   7.471   5.650  0.4671 -0.9375  0.0429
  171SAPS  H10Y19454  -0.200   7.466   5.748 -0.0502 -1.4721  1.0206
  171SAPS  C31119455  -0.231   7.412   5.548 -0.9978  0.1568  0.5744
  171SAPS  H11X19456  -0.267   7.513   5.517 -2.6733 -0.7502 -0.6174
  171SAPS  H11Y19457  -0.324   7.365   5.586 -0.8221 -0.5900  0.1026
  171SAPS  C31219458  -0.169   7.333   5.435  0.0475  0.0297 -0.6930
  171SAPS  H12X19459  -0.183   7.225   5.457  3.0810 -0.2670  0.2408
  171SAPS  H12Y19460  -0.060   7.350   5.444  0.2353 -0.7724 -1.4484
  171SAPS  C31319461  -0.211   7.365   5.299  0.0636 -0.4148  0.3047
  171SAPS  H13X19462  -0.216   7.472   5.272 -0.8200 -0.2394  1.1342
  171SAPS  H13Y19463  -0.313   7.331   5.271 -0.8841  2.2262  0.2649
  171SAPS  C31419464  -0.126   7.308   5.192  0.6353 -0.2287 -0.3895
  171SAPS  H14X19465  -0.098   7.201   5.207  1.0981  0.0128  0.5318
  171SAPS  H14Y19466  -0.027   7.357   5.200  0.6267 -0.4509  1.4457
  171SAPS  C31519467  -0.181   7.327   5.052 -0.3943  0.2064 -0.0104
  171SAPS  H15X19468  -0.234   7.425   5.049  0.5435  0.7629  1.0794
  171SAPS  H15Y19469  -0.253   7.243   5.041 -0.0834 -0.4002  2.1240
  171SAPS  C31619470  -0.073   7.320   4.948  0.5254  0.6685  0.2199
  171SAPS  H16X19471  -0.020   7.222   4.947 -0.6311  0.0121  0.8409
  171SAPS  H16Y19472   0.001   7.400   4.969 -0.7743  2.1186 -0.5486
  171SAPS  C31719473  -0.129   7.331   4.805  0.8051 -0.4625  0.1633
  171SAPS  H17X19474  -0.042   7.352   4.738  0.1544 -2.1253 -1.2806
  171SAPS  H17Y19475  -0.190   7.421   4.782 -0.8077 -1.7723 -0.9430
  171SAPS  C31819476  -0.195   7.203   4.759 -0.9139  0.4562  0.7443
  171SAPS  H18X19477  -0.120   7.122   4.754 -1.9535 -0.4648 -1.5788
  171SAPS  H18Y19478  -0.247   7.227   4.663 -0.1032  2.4708  0.7457
  171SAPS  H18Z19479  -0.270   7.184   4.839 -0.0586  1.4972  1.8319
  172SAPS     N19480   6.593   0.932   6.801  0.2224  0.2215 -0.0610
  172SAPS   HN119481   6.695   0.917   6.790  0.4424  2.2729 -1.2230
  172SAPS   HN219482   6.540   0.864   6.742  1.5463 -0.9966  0.1090
  172SAPS   HN319483   6.585   1.029   6.764 -0.5483 -0.7536 -2.6715
  172SAPS   C1219484   6.555   0.922   6.947  0.4210  0.1690 -0.0496
  172SAPS  H12A19485   6.602   0.835   6.990  1.9450 -0.4018 -2.6464
  172SAPS   C1319486   6.594   1.050   7.030 -0.1665 -0.0190 -0.2513
  172SAPS  O13A19487   6.632   1.159   6.973  0.0013  0.5914 -0.0466
  172SAPS  O13B19488   6.540   1.063   7.146  0.0841  0.2566  0.2539
  172SAPS   C1119489   6.403   0.893   6.960 -0.1317  0.0767 -0.7006
  172SAPS  H11A19490   6.355   0.961   6.886 -2.0813 -1.6236 -1.0899
  172SAPS  H11B19491   6.367   0.916   7.063 -2.0638 -0.2774 -1.2429
  172SAPS     P19492   6.255   0.680   6.973  0.2499  0.1940  0.0793
  172SAPS   O1319493   6.237   0.648   7.114 -0.0048  0.5669  0.1039
  172SAPS   O1419494   6.143   0.757   6.913  0.1994  0.1595  0.6002
  172SAPS   O1219495   6.389   0.753   6.940 -0.2106 -0.4310 -0.5553
  172SAPS   O1119496   6.270   0.542   6.901  0.3014  0.3493 -0.2134
  172SAPS    C119497   6.389   0.462   6.871 -0.0763 -0.0764 -0.5038
  172SAPS    HA19498   6.455   0.444   6.959  0.4489  1.6405 -0.5169
  172SAPS    HB19499   6.370   0.373   6.807 -1.2087  0.1816 -0.5328
  172SAPS    C219500   6.479   0.535   6.767  0.3334 -0.5955  0.0600
  172SAPS    HS19501   6.514   0.631   6.810  0.2827 -1.2955  1.7508
  172SAPS   O2119502   6.390   0.554   6.658 -0.1106 -0.1032 -0.5912
  172SAPS   C2119503   6.393   0.671   6.592  0.0970 -0.3487 -0.7949
  172SAPS   O2219504   6.466   0.769   6.624 -0.2112 -0.3550 -0.2291
  172SAPS   C2219505   6.307   0.665   6.467  0.0987  0.0882  0.2207
  172SAPS   H2R19506   6.206   0.676   6.512 -0.0017 -0.6210  0.1748
  172SAPS   H2S19507   6.324   0.759   6.410  0.8228  1.3545  2.3834
  172SAPS    C319508   6.610   0.458   6.719 -0.3203 -0.6093 -0.6618
  172SAPS    HX19509   6.588   0.352   6.694 -0.7635  0.4912 -6.0532
  172SAPS    HY19510   6.682   0.454   6.803  0.4122  1.9398 -1.0766
  172SAPS   O3119511   6.676   0.517   6.602  0.3698  0.0133 -0.4133
  172SAPS   C3119512   6.733   0.635   6.625  0.0701 -0.7175 -0.5032
  172SAPS   O3219513   6.755   0.691   6.735  0.1660  0.3363  0.4104
  172SAPS   C3219514   6.790   0.688   6.498 -0.4928 -0.0668  0.3909
  172SAPS   H2X19515   6.735   0.649   6.410 -0.8934 -0.2661  0.7298
  172SAPS   H2Y19516   6.895   0.653   6.486  0.2005  1.4579  1.6318
  172SAPS   C2319517   6.301   0.535   6.391 -0.0950 -0.6733  0.6359
  172SAPS   H3R19518   6.216   0.545   6.319 -0.7711  2.7528  1.7152
  172SAPS   H3S19519   6.266   0.453   6.458 -0.6376  0.8491  2.2912
  172SAPS   C2419520   6.429   0.493   6.313  0.5879 -1.1622 -0.6421
  172SAPS   H4R19521   6.421   0.388   6.278 -1.7785 -0.8066 -1.3684
  172SAPS   H4S19522   6.520   0.505   6.375  0.8441  2.2038 -1.4765
  172SAPS   C2519523   6.451   0.582   6.191 -1.0137 -0.3779 -0.7754
  172SAPS   H5R19524   6.509   0.674   6.207 -1.9942  0.1918 -0.4561
  172SAPS   C2619525   6.421   0.554   6.060 -0.0580 -0.4184 -0.0771
  172SAPS   H6R19526   6.447   0.627   5.982 -0.1826  1.1247  1.2706
  172SAPS   C2719527   6.351   0.437   6.010  0.8118  0.0748 -0.8374
  172SAPS   H7R19528   6.388   0.349   6.066  0.7230  0.2567 -0.4893
  172SAPS   H7S19529   6.375   0.420   5.903  1.4888  0.5892 -0.7733
  172SAPS   C2819530   6.198   0.442   6.023 -0.2388  0.0528  0.5335
  172SAPS   H8R19531   6.154   0.419   6.121  0.6710  2.7051  1.6345
  172SAPS   C2919532   6.124   0.488   5.915 -0.1882  1.3299  0.2192
  172SAPS   H9R19533   6.018   0.509   5.935 -0.4320 -1.3249  2.2557
  172SAPS  C21019534   6.175   0.542   5.788 -0.0451  0.7370  1.4722
  172SAPS  H10R19535   6.263   0.602   5.818  0.8556 -0.3603  1.0997
  172SAPS  H10S19536   6.099   0.613   5.749  0.0008  0.0874  0.1287
  172SAPS  C21119537   6.217   0.426   5.691 -0.2091  0.3232 -0.4391
  172SAPS  H11R19538   6.299   0.360   5.723 -1.4904 -1.4176 -0.5887
  172SAPS  C21219539   6.166   0.407   5.567 -0.5559 -0.3156 -0.3053
  172SAPS  H12R19540   6.209   0.320   5.516 -2.0813 -1.2632 -0.0688
  172SAPS  C21319541   6.056   0.487   5.499 -0.1172 -0.0343  0.1349
  172SAPS  H13R19542   6.031   0.569   5.570  1.4355  1.4044 -0.9203
  172SAPS  H13S19543   5.959   0.432   5.495  0.0456 -0.2336 -2.3376
  172SAPS  C21419544   6.092   0.552   5.366 -0.5836 -0.4600 -1.3015
  172SAPS  H14R19545   6.125   0.657   5.361 -1.1348 -0.0862  1.5366
  172SAPS  C21519546   6.083   0.489   5.248 -0.1626  0.7725  0.2586
  172SAPS  H15R19547   6.122   0.547   5.163 -1.4071 -0.0827 -0.9399
  172SAPS  C21619548   6.055   0.335   5.214 -0.5819 -0.7564 -0.4421
  172SAPS  H16R19549   5.966   0.337   5.147 -1.0581 -1.1067  0.1729
  172SAPS  H16S19550   6.046   0.276   5.307  2.5228  1.2911  1.3612
  172SAPS  C21719551   6.164   0.273   5.128 -0.7273  0.0325  0.1771
  172SAPS  H17R19552   6.142   0.164   5.123 -1.7245  0.2220  0.0313
  172SAPS  H17S19553   6.263   0.287   5.175 -0.5039  2.1650 -0.7821
  172SAPS  C21819554   6.168   0.320   4.982  0.2495  0.2073  0.0157
  172SAPS  H18R19555   6.256   0.277   4.929  1.0345 -1.8348  2.7592
  172SAPS  H18S19556   6.170   0.430   4.973 -1.6511  0.2541 -0.2299
  172SAPS  C21919557   6.059   0.259   4.887 -0.3409  0.5770  0.2105
  172SAPS  H19R19558   5.960   0.272   4.935 -1.5199  1.5084 -2.2941
  172SAPS  H19S19559   6.087   0.152   4.878 -0.6225  0.3778  1.5301
  172SAPS  C22019560   6.058   0.319   4.749  0.0460 -0.3456 -0.1231
  172SAPS  H20R19561   6.043   0.429   4.749  2.3032  0.0052 -1.1860
  172SAPS  H20S19562   5.981   0.278   4.680 -1.2370  2.7597 -0.6867
  172SAPS  H20T19563   6.154   0.289   4.701 -0.7612 -1.1335 -1.3153
  172SAPS   C3319564   6.783   0.843   6.484  0.3701  0.3607 -0.4558
  172SAPS   H3X19565   6.851   0.890   6.560  1.2693 -0.9188 -0.4354
  172SAPS   H3Y19566   6.680   0.868   6.517  0.2703 -0.9016  0.2460
  172SAPS   C3419567   6.801   0.898   6.345 -0.0966 -0.2002  0.5535
  172SAPS   H4X19568   6.902   0.884   6.299 -1.3180  0.6534 -2.6351
  172SAPS   H4Y19569   6.798   1.008   6.360 -0.7148  0.0700 -1.2553
  172SAPS   C3519570   6.696   0.854   6.235 -0.2519 -1.0935  0.4146
  172SAPS   H5X19571   6.593   0.884   6.268 -0.5268 -1.3809 -0.1750
  172SAPS   H5Y19572   6.714   0.746   6.221  2.0638 -0.5081 -1.8273
  172SAPS   C3619573   6.728   0.930   6.105  0.3273 -0.6691  0.1663
  172SAPS   H6X19574   6.830   0.911   6.064  0.3875 -1.2279  0.5507
  172SAPS   H6Y19575   6.717   1.038   6.130  2.2778 -0.3084 -0.3827
  172SAPS   C3719576   6.621   0.898   5.997  0.2107  0.3577  0.5087
  172SAPS   H7X19577   6.522   0.886   6.047  0.0464  1.0609  0.3639
  172SAPS   H7Y19578   6.642   0.801   5.948 -1.9223 -0.1314  0.4702
  172SAPS   C3819579   6.593   0.988   5.872  0.7040 -0.1938 -0.5152
  172SAPS   H8X19580   6.559   1.091   5.895  0.9174 -0.1753 -0.2863
  172SAPS   H8Y19581   6.507   0.943   5.817 -0.9526  0.8592  1.0888
  172SAPS   C3919582   6.713   0.997   5.783  0.2855 -0.8745  0.6043
  172SAPS   H9X19583   6.737   0.902   5.730 -2.0524 -1.1079 -0.1466
  172SAPS   H9Y19584   6.803   1.018   5.844  2.1722 -2.8850 -1.3196
  172SAPS  C31019585   6.701   1.120   5.685 -0.1303  0.3404  0.3284
  172SAPS  H10X19586   6.799   1.114   5.632 -0.1571  1.5288  0.1352
  172SAPS  H10Y19587   6.690   1.213   5.744 -0.3249 -0.0684  0.9406
  172SAPS  C31119588   6.589   1.111   5.581 -0.0889  0.2431  0.1046
  172SAPS  H11X19589   6.486   1.122   5.620 -0.5629 -0.3518 -0.9247
  172SAPS  H11Y19590   6.583   1.002   5.561  0.8392  0.1994  0.0432
  172SAPS  C31219591   6.619   1.177   5.444  0.1833  0.2102  0.0895
  172SAPS  H12X19592   6.723   1.144   5.422  0.6482  0.0113  2.3819
  172SAPS  H12Y19593   6.625   1.284   5.471  0.6703 -0.0275  0.9450
  172SAPS  C31319594   6.529   1.122   5.333 -0.2357 -0.0565 -0.5385
  172SAPS  H13X19595   6.555   1.189   5.248 -0.1152  1.4075  0.6032
  172SAPS  H13Y19596   6.422   1.150   5.350 -0.2843 -0.5650  0.0674
  172SAPS  C31419597   6.533   0.970   5.297 -0.6670 -0.0790 -0.0688
  172SAPS  H14X19598   6.476   0.921   5.378  0.4438  2.1959  2.2411
  172SAPS  H14Y19599   6.636   0.930   5.304  0.0487  1.0406 -2.7294
  172SAPS  C31519600   6.485   0.937   5.156 -0.4015  0.2402  0.5409
  172SAPS  H15X19601   6.400   1.006   5.139 -0.3676  0.4942  1.3401
  172SAPS  H15Y19602   6.457   0.830   5.156  2.6902 -0.6732  0.5306
  172SAPS  C31619603   6.597   0.942   5.048 -0.4186 -0.8407  0.2260
  172SAPS  H16X19604   6.650   1.039   5.045  0.9771 -1.5738  0.3513
  172SAPS  H16Y19605   6.669   0.858   5.061 -0.0413 -0.7342 -1.1220
  172SAPS  C31719606   6.541   0.928   4.901  0.1893  0.0437  0.3032
  172SAPS  H17X19607   6.465   1.004   4.875 -0.7832 -1.4391 -1.4492
  172SAPS  H17Y19608   6.488   0.832   4.882  2.3020 -0.9865 -0.7271
  172SAPS  C31819609   6.647   0.940   4.787  0.5629 -0.4246 -0.0526
  172SAPS  H18X19610   6.703   1.036   4.778  2.9474 -1.8415 -1.1940
  172SAPS  H18Y19611   6.604   0.930   4.686  1.9032  0.4728 -0.7458
  172SAPS  H18Z19612   6.732   0.871   4.810  0.0802 -0.5731  1.4159
  173SAPS     N19613   0.647   4.776   1.979 -0.1203  0.1711 -0.3069
  173SAPS   HN119614   0.545   4.771   1.998 -0.0164 -1.1015 -0.0589
  173SAPS   HN219615   0.670   4.718   1.896  0.6487  0.1186 -0.0693
  173SAPS   HN319616   0.699   4.745   2.064 -0.1594 -1.3215 -0.7985
  173SAPS   C1219617   0.671   4.922   1.955 -0.1409 -0.5745  0.3912
  173SAPS  H12A19618   0.778   4.923   1.935 -0.0932 -1.4326  0.5878
  173SAPS   C1319619   0.604   4.985   1.834  0.2825 -0.1051 -0.0911
  173SAPS  O13A19620   0.557   4.915   1.748 -0.4706 -0.7659  0.3822
  173SAPS  O13B19621   0.647   5.101   1.803  0.5426 -0.0182 -0.2913
  173SAPS   C1119622   0.650   5.008   2.078 -0.3299 -0.0084 -0.8287
  173SAPS  H11A19623   0.657   5.114   2.045 -0.9634  0.0319 -0.8537
  173SAPS  H11B19624   0.729   4.979   2.151 -0.6873 -0.6375 -0.6813
  173SAPS     P19625   0.450   5.032   2.252  0.2314 -0.0108  0.1831
  173SAPS   O1319626   0.421   5.170   2.214 -0.3914 -0.6906  0.2766
  173SAPS   O1419627   0.337   4.940   2.289 -0.1722 -0.1084 -0.1841
  173SAPS   O1219628   0.514   4.976   2.120 -0.1570 -0.8729 -0.2814
  173SAPS   O1119629   0.560   5.033   2.361  0.3936 -0.1146  0.0384
  173SAPS    C119630   0.590   4.919   2.435 -0.0407  0.6923 -0.0843
  173SAPS    HA19631   0.555   4.828   2.380  2.1993  1.0515 -2.2694
  173SAPS    HB19632   0.698   4.906   2.455 -0.7652 -2.0827  3.0003
  173SAPS    C219633   0.522   4.911   2.576  0.3248  0.4885  0.4404
  173SAPS    HS19634   0.421   4.956   2.571  0.7409  1.3473 -1.1699
  173SAPS   O2119635   0.612   4.984   2.669  0.3755 -0.1847 -0.1844
  173SAPS   C2119636   0.559   5.091   2.717  0.0673 -1.2089 -0.3835
  173SAPS   O2219637   0.450   5.142   2.697 -0.2393  0.3884  0.0436
  173SAPS   C2219638   0.668   5.143   2.809 -0.8116  1.0599  0.0863
  173SAPS   H2R19639   0.728   5.063   2.857 -0.5650  1.5989  0.7001
  173SAPS   H2S19640   0.746   5.185   2.742  1.1623 -1.2944  0.7828
  173SAPS    C319641   0.507   4.774   2.637  0.3853  0.0877 -0.6771
  173SAPS    HX19642   0.608   4.726   2.633  0.9830  1.3365 -1.1090
  173SAPS    HY19643   0.431   4.713   2.583 -0.5695 -0.6923  1.4653
  173SAPS   O3119644   0.463   4.785   2.774  0.2140 -0.0396  0.0936
  173SAPS   C3119645   0.434   4.663   2.829  0.1599 -0.3502  0.1522
  173SAPS   O3219646   0.464   4.560   2.769  0.5966  0.9518 -0.3473
  173SAPS   C3219647   0.365   4.671   2.963  0.2711 -0.4099  0.4562
  173SAPS   H2X19648   0.339   4.779   2.970  1.0858 -0.1653 -0.0621
  173SAPS   H2Y19649   0.450   4.651   3.032 -0.0977  0.4911  1.1937
  173SAPS   C2319650   0.619   5.234   2.917  0.0991 -0.3062 -0.1233
  173SAPS   H3R19651   0.543   5.185   2.982 -0.4382  1.4780  0.6755
  173SAPS   H3S19652   0.561   5.325   2.890 -1.6269 -1.2989  0.1181
  173SAPS   C2419653   0.711   5.271   3.034 -0.3827  0.0005  0.4340
  173SAPS   H4R19654   0.733   5.172   3.079  2.3269 -0.0450 -0.7801
  173SAPS   H4S19655   0.646   5.332   3.101 -0.0031  3.0792 -1.7378
  173SAPS   C2519656   0.844   5.342   3.003  0.1453  0.0430  0.3636
  173SAPS   H5R19657   0.883   5.327   2.901 -1.6795 -1.3063 -0.1836
  173SAPS   C2619658   0.920   5.401   3.092  0.4990  0.3392 -0.7707
  173SAPS   H6R19659   1.017   5.441   3.058  1.5561 -2.6314 -1.5799
  173SAPS   C2719660   0.889   5.409   3.239 -0.4019  0.4876 -1.1023
  173SAPS   H7R19661   0.783   5.427   3.268 -0.3469 -0.6541 -0.1111
  173SAPS   H7S19662   0.939   5.499   3.281  1.4869 -1.2907  0.6407
  173SAPS   C2819663   0.942   5.293   3.321  0.0564  0.1936 -0.3890
  173SAPS   H8R19664   1.014   5.226   3.272  0.4947  0.0357  0.4422
  173SAPS   C2919665   0.892   5.249   3.442  0.2926  0.1779 -0.6230
  173SAPS   H9R19666   0.933   5.157   3.486  0.4108  0.5692  0.0943
  173SAPS  C21019667   0.796   5.335   3.526  0.1235 -0.1232  0.4364
  173SAPS  H10R19668   0.804   5.441   3.493 -2.0268 -0.1794 -0.4273
  173SAPS  H10S19669   0.844   5.334   3.627  1.1820  0.2393 -0.0465
  173SAPS  C21119670   0.654   5.280   3.525 -0.1572 -0.3842 -0.2763
  173SAPS  H11R19671   0.600   5.291   3.430 -1.3892  1.8951  0.6143
  173SAPS  C21219672   0.599   5.218   3.630  0.3997  0.3489  0.4875
  173SAPS  H12R19673   0.500   5.172   3.620 -0.4646  2.0851  0.7206
  173SAPS  C21319674   0.660   5.190   3.767  0.0085 -0.0967 -0.4544
  173SAPS  H13R19675   0.637   5.288   3.815 -3.3192  0.5022 -2.9401
  173SAPS  H13S19676   0.771   5.186   3.768  0.3061  3.6540 -2.3495
  173SAPS  C21419677   0.596   5.077   3.847  0.3700 -0.4818  0.4886
  173SAPS  H14R19678   0.647   4.980   3.843 -1.2078 -1.3140 -0.1945
  173SAPS  C21519679   0.473   5.076   3.905 -0.1926  0.2178  0.0102
  173SAPS  H15R19680   0.436   4.981   3.947  1.8782 -0.9496 -0.6691
  173SAPS  C21619681   0.386   5.202   3.923  0.6221 -0.8184  0.9182
  173SAPS  H16R19682   0.430   5.292   3.875 -1.5046 -0.3537 -0.3029
  173SAPS  H16S19683   0.365   5.223   4.030 -2.9470  1.8022 -0.1223
  173SAPS  C21719684   0.252   5.188   3.847 -0.8533  0.3980  0.6652
  173SAPS  H17R19685   0.187   5.274   3.873 -3.3192 -0.2687 -2.5313
  173SAPS  H17S19686   0.199   5.095   3.879 -2.1209  0.2800 -1.5450
  173SAPS  C21819687   0.260   5.190   3.695  0.2806  0.0114  0.1932
  173SAPS  H18R19688   0.309   5.102   3.649 -0.2382  0.3562 -1.0911
  173SAPS  H18S19689   0.308   5.284   3.659 -0.2221 -0.2812 -1.3309
  173SAPS  C21919690   0.118   5.186   3.628  0.0373  0.2375  0.4199
  173SAPS  H19R19691   0.132   5.164   3.520 -1.7091 -0.9313  0.3949
  173SAPS  H19S19692   0.071   5.284   3.650 -1.0253  0.1046 -1.1417
  173SAPS  C22019693   0.016   5.094   3.695  0.1118 -0.6260  0.2578
  173SAPS  H20R19694  -0.025   5.124   3.793 -0.9803 -1.0072 -0.0707
  173SAPS  H20S19695   0.065   4.998   3.720  0.4999 -0.5529 -0.1973
  173SAPS  H20T19696  -0.075   5.076   3.634  0.7739 -2.0634 -0.3532
  173SAPS   C3319697   0.244   4.576   2.985  0.4466  0.2101  0.2908
  173SAPS   H3X19698   0.226   4.515   2.894 -0.7320 -0.5863  1.0304
  173SAPS   H3Y19699   0.148   4.625   3.010  0.1582 -0.2725  0.1578
  173SAPS   C3419700   0.263   4.494   3.109 -0.6969 -0.0304  0.6654
  173SAPS   H4X19701   0.351   4.431   3.087 -0.2815  1.0153 -0.8424
  173SAPS   H4Y19702   0.171   4.431   3.107 -1.3539  0.8825 -1.2134
  173SAPS   C3519703   0.271   4.577   3.238 -0.4589  0.4933  0.3000
  173SAPS   H5X19704   0.374   4.614   3.262  0.0771 -1.5757  1.4854
  173SAPS   H5Y19705   0.258   4.495   3.312  0.1899 -0.2938 -0.4408
  173SAPS   C3619706   0.171   4.696   3.264  0.2520  0.1450  0.2621
  173SAPS   H6X19707   0.065   4.665   3.265 -0.6467  2.9277  1.4018
  173SAPS   H6Y19708   0.187   4.765   3.178  1.6027 -2.3576 -1.6300
  173SAPS   C3719709   0.193   4.754   3.401 -0.2710 -0.1742 -0.1898
  173SAPS   H7X19710   0.116   4.835   3.405  0.2527  0.3356 -0.2088
  173SAPS   H7Y19711   0.296   4.796   3.412  0.8577 -1.4312 -4.1912
  173SAPS   C3819712   0.179   4.650   3.522 -0.1765  0.5016  0.3894
  173SAPS   H8X19713   0.268   4.583   3.525 -0.4313  0.1465  0.0894
  173SAPS   H8Y19714   0.080   4.601   3.512 -0.2104  0.8612 -1.3892
  173SAPS   C3919715   0.185   4.733   3.650  0.4609  0.2018 -0.1136
  173SAPS   H9X19716   0.105   4.810   3.652  1.0820  0.8594  1.9496
  173SAPS   H9Y19717   0.283   4.786   3.653  0.0718  0.9342  0.0390
  173SAPS  C31019718   0.169   4.647   3.771  0.5815  0.0583 -0.4908
  173SAPS  H10X19719   0.246   4.566   3.780 -1.9400 -2.5259 -0.7822
  173SAPS  H10Y19720   0.074   4.589   3.766  1.0241 -0.5750 -3.1904
  173SAPS  C31119721   0.164   4.726   3.902  0.1830  0.1809 -0.7557
  173SAPS  H11X19722   0.081   4.799   3.891 -1.1976 -1.0343  0.9686
  173SAPS  H11Y19723   0.266   4.769   3.900 -0.6500  2.2851  0.0024
  173SAPS  C31219724   0.142   4.640   4.024  0.1594 -0.7114 -0.6694
  173SAPS  H12X19725   0.188   4.539   4.015  1.0242 -0.5648  1.4242
  173SAPS  H12Y19726   0.033   4.639   4.044  0.1092  1.5523 -0.5637
  173SAPS  C31319727   0.202   4.712   4.148 -0.2795  0.2392  0.1440
  173SAPS  H13X19728   0.311   4.718   4.132  0.1110 -0.0087  2.3229
  173SAPS  H13Y19729   0.182   4.645   4.235  2.7700 -0.9549  0.0524
  173SAPS  C31419730   0.136   4.852   4.168  0.1826 -0.1444 -0.2426
  173SAPS  H14X19731   0.026   4.855   4.182  0.1279  1.1744 -0.8446
  173SAPS  H14Y19732   0.147   4.903   4.070  0.2296 -0.8790 -0.6244
  173SAPS  C31519733   0.197   4.947   4.268 -0.3829 -0.3126  0.5769
  173SAPS  H15X19734   0.194   4.894   4.366  0.1612 -1.5988 -0.0808
  173SAPS  H15Y19735   0.130   5.036   4.270 -1.1991 -0.8742 -0.5475
  173SAPS  C31619736   0.336   5.002   4.220 -0.3304  0.3751  0.2163
  173SAPS  H16X19737   0.314   5.063   4.130 -1.3145 -0.5182 -0.1670
  173SAPS  H16Y19738   0.395   4.914   4.188  2.9856  2.0750  1.2239
  173SAPS  C31719739   0.406   5.081   4.329 -0.5795  0.1040 -0.3580
  173SAPS  H17X19740   0.327   5.157   4.349 -1.9569 -1.3245 -0.1128
  173SAPS  H17Y19741   0.496   5.142   4.306  0.6524 -1.3865  0.3196
  173SAPS  C31819742   0.441   5.009   4.461  0.8007 -0.1211  0.5770
  173SAPS  H18X19743   0.362   4.937   4.492 -0.4010  1.3293  1.0098
  173SAPS  H18Y19744   0.468   5.081   4.542 -0.8465 -0.6409  1.6385
  173SAPS  H18Z19745   0.529   4.945   4.441 -0.1023 -1.4714  0.8102
  174SAPS     N19746   2.936   5.489   2.301  0.8082 -0.5229  0.3047
  174SAPS   HN119747   2.872   5.408   2.314 -1.2533  1.1879  1.6293
  174SAPS   HN219748   3.014   5.473   2.235  0.1896 -1.8395 -0.1368
  174SAPS   HN319749   2.980   5.511   2.392 -2.5573  1.0305  1.7608
  174SAPS   C1219750   2.844   5.600   2.247  0.9657  0.6051 -0.2388
  174SAPS  H12A19751   2.821   5.597   2.141 -0.7933  1.5851  0.0823
  174SAPS   C1319752   2.699   5.604   2.302 -0.0317 -0.8086 -0.3949
  174SAPS  O13A19753   2.671   5.534   2.400 -0.0295  0.0553  0.1807
  174SAPS  O13B19754   2.618   5.696   2.265 -0.0510  0.2734 -0.1256
  174SAPS   C1119755   2.904   5.748   2.268  0.0344 -0.2214  0.9071
  174SAPS  H11A19756   2.905   5.773   2.377  0.6274  3.0043  0.2702
  174SAPS  H11B19757   2.853   5.832   2.217  2.7118  1.1390  0.3055
  174SAPS     P19758   3.131   5.873   2.188  0.4676 -0.4174  0.5117
  174SAPS   O1319759   3.161   5.887   2.044  1.1586  0.1517  0.1232
  174SAPS   O1419760   3.072   5.998   2.245  0.2558 -0.9138 -0.4051
  174SAPS   O1219761   3.040   5.749   2.211  0.6677 -0.1622 -0.1498
  174SAPS   O1119762   3.265   5.834   2.253  1.0400 -0.2115  0.2024
  174SAPS    C119763   3.282   5.793   2.382  0.2783  0.9844 -0.1038
  174SAPS    HA19764   3.197   5.817   2.451 -0.0626 -0.2646 -0.0597
  174SAPS    HB19765   3.286   5.682   2.386 -0.3882  0.8810 -1.5937
  174SAPS    C219766   3.410   5.856   2.431  0.0063  0.1303 -0.2329
  174SAPS    HS19767   3.398   5.967   2.427  1.1219  0.2360 -1.1444
  174SAPS   O2119768   3.525   5.802   2.361 -0.6755  0.6506 -0.3224
  174SAPS   C2119769   3.572   5.884   2.269  0.1556 -0.1635 -0.9297
  174SAPS   O2219770   3.523   5.992   2.236  0.2222 -0.2217 -0.2925
  174SAPS   C2219771   3.696   5.829   2.203  0.1521 -0.2538 -0.1539
  174SAPS   H2R19772   3.671   5.734   2.150 -0.5389 -0.5203  0.6234
  174SAPS   H2S19773   3.722   5.910   2.132 -0.0279  0.3022  0.4092
  174SAPS    C319774   3.412   5.827   2.591 -0.3115  0.5930  0.5859
  174SAPS    HX19775   3.513   5.848   2.633  0.2337 -1.5956  0.5185
  174SAPS    HY19776   3.405   5.717   2.604  0.9945  0.0895 -2.0602
  174SAPS   O3119777   3.301   5.893   2.651  0.3718 -0.0315 -0.3376
  174SAPS   C3119778   3.331   6.016   2.692 -0.2846  0.4382 -0.2179
  174SAPS   O3219779   3.441   6.068   2.677  0.1300 -0.2172  0.3665
  174SAPS   C3219780   3.208   6.075   2.756  0.4300  0.1839 -0.0766
  174SAPS   H2X19781   3.116   6.022   2.722  1.5497 -0.5031 -2.2245
  174SAPS   H2Y19782   3.204   6.183   2.731 -1.3188  0.0729 -0.3936
  174SAPS   C2319783   3.812   5.813   2.309  0.0339 -0.0561 -0.7767
  174SAPS   H3R19784   3.881   5.728   2.294  2.0606  1.3804  0.0003
  174SAPS   H3S19785   3.762   5.797   2.407 -0.7342 -1.7868 -1.4063
  174SAPS   C2419786   3.902   5.934   2.316 -0.2565  0.7600 -0.5157
  174SAPS   H4R19787   3.940   5.953   2.214 -1.5414 -0.0898 -1.1869
  174SAPS   H4S19788   3.994   5.892   2.361 -0.7898 -1.7711 -1.5780
  174SAPS   C2519789   3.854   6.059   2.380  0.0562 -0.0327 -0.9660
  174SAPS   H5R19790   3.815   6.131   2.307  0.1184 -0.4498 -1.4177
  174SAPS   C2619791   3.856   6.083   2.518  0.2279 -0.3292  0.6817
  174SAPS   H6R19792   3.796   6.169   2.554 -0.0552 -0.3026  0.1679
  174SAPS   C2719793   3.903   5.992   2.623  0.3888 -0.0350 -0.2644
  174SAPS   H7R19794   3.983   5.926   2.584  0.2554 -1.0656  1.1398
  174SAPS   H7S19795   3.817   5.925   2.645  0.6525 -0.4676 -0.5467
  174SAPS   C2819796   3.964   6.066   2.742  0.1799  0.1224  0.6542
  174SAPS   H8R19797   4.069   6.099   2.736 -0.4329  1.8942 -1.5598
  174SAPS   C2919798   3.914   6.108   2.855  0.7256 -0.1699  0.2692
  174SAPS   H9R19799   3.967   6.162   2.935  0.5613 -0.3098  0.4751
  174SAPS  C21019800   3.771   6.082   2.901 -0.2895 -0.0187  0.2532
  174SAPS  H10R19801   3.778   6.007   2.984  3.1905  0.3961  0.4832
  174SAPS  H10S19802   3.718   6.027   2.820  2.1165  0.0716 -1.4807
  174SAPS  C21119803   3.697   6.204   2.940 -0.2818  0.6225 -0.3853
  174SAPS  H11R19804   3.638   6.242   2.855  1.6842 -0.7656 -2.4960
  174SAPS  C21219805   3.684   6.238   3.065  0.9661  0.2936  0.0439
  174SAPS  H12R19806   3.615   6.320   3.089  1.8938  1.0695  0.1304
  174SAPS  C21319807   3.736   6.174   3.192 -0.0472  0.5067 -0.0210
  174SAPS  H13R19808   3.769   6.070   3.174  0.1222  0.2516  1.5992
  174SAPS  H13S19809   3.658   6.162   3.271  1.8545  0.4079  1.9486
  174SAPS  C21419810   3.843   6.248   3.264  0.6658 -0.1025  0.1805
  174SAPS  H14R19811   3.875   6.341   3.213  2.0753  0.0565  1.2799
  174SAPS  C21519812   3.895   6.231   3.385  0.1599 -0.1657  0.1631
  174SAPS  H15R19813   3.978   6.298   3.408 -0.4420  1.1223 -1.2156
  174SAPS  C21619814   3.878   6.112   3.472  0.3611 -0.1555  0.2599
  174SAPS  H16R19815   3.979   6.075   3.499  0.2875 -0.8872 -0.4334
  174SAPS  H16S19816   3.836   6.026   3.416  2.3874  0.3611 -2.2455
  174SAPS  C21719817   3.794   6.152   3.596  0.2754  0.6600  0.2124
  174SAPS  H17R19818   3.758   6.058   3.643 -1.6435  0.9670 -0.5460
  174SAPS  H17S19819   3.707   6.210   3.560 -2.7000 -3.8837 -0.7089
  174SAPS  C21819820   3.877   6.230   3.701  0.2571  0.4625 -0.0646
  174SAPS  H18R19821   3.943   6.309   3.659 -2.1773  2.7080  0.0885
  174SAPS  H18S19822   3.945   6.164   3.759  0.1155  1.5846  1.4530
  174SAPS  C21919823   3.798   6.296   3.813  0.3793 -0.2160 -0.0045
  174SAPS  H19R19824   3.765   6.230   3.896 -0.7033  1.5314  1.0136
  174SAPS  H19S19825   3.711   6.346   3.766  1.0966  1.7385  0.6459
  174SAPS  C22019826   3.889   6.397   3.876 -0.0404  0.2591  0.4343
  174SAPS  H20R19827   3.923   6.475   3.806  2.3433 -0.4939  0.6562
  174SAPS  H20S19828   3.974   6.330   3.905 -0.8203 -2.8126 -3.4687
  174SAPS  H20T19829   3.843   6.439   3.968  0.2270 -1.7831  1.5778
  174SAPS   C3319830   3.206   6.072   2.911 -0.6901  0.4933 -0.3272
  174SAPS   H3X19831   3.244   5.973   2.945  0.3039  0.8834 -0.2780
  174SAPS   H3Y19832   3.104   6.080   2.955 -0.8186  0.9833 -0.7028
  174SAPS   C3419833   3.295   6.179   2.971 -0.6327  0.2500 -0.2708
  174SAPS   H4X19834   3.241   6.271   2.939 -2.2178 -0.1428  1.1232
  174SAPS   H4Y19835   3.397   6.164   2.931 -0.4371  0.1846  0.2420
  174SAPS   C3519836   3.283   6.174   3.127  0.5647 -0.3659 -0.0912
  174SAPS   H5X19837   3.372   6.223   3.172 -0.1868  0.0128  1.0298
  174SAPS   H5Y19838   3.281   6.069   3.163  4.6551 -0.8822 -0.8907
  174SAPS   C3619839   3.166   6.258   3.179  0.6449 -0.2290 -0.2457
  174SAPS   H6X19840   3.066   6.225   3.143  0.3831  0.1104  0.1647
  174SAPS   H6Y19841   3.183   6.363   3.148  0.1846  0.1653  0.8230
  174SAPS   C3719842   3.149   6.276   3.330 -0.3287 -0.3079 -0.6547
  174SAPS   H7X19843   3.143   6.176   3.379 -2.6979 -0.1244 -0.4421
  174SAPS   H7Y19844   3.058   6.333   3.358 -0.1926 -1.0994  1.5567
  174SAPS   C3819845   3.253   6.376   3.391  0.4344 -0.3541 -0.0559
  174SAPS   H8X19846   3.243   6.471   3.333  0.2247 -0.2763  0.1079
  174SAPS   H8Y19847   3.354   6.338   3.365  1.2282 -0.2290  2.5419
  174SAPS   C3919848   3.225   6.402   3.539 -0.1337  0.1602 -1.5764
  174SAPS   H9X19849   3.120   6.383   3.570 -0.1227  0.9064 -1.0500
  174SAPS   H9Y19850   3.247   6.508   3.564  1.5435  0.1348 -2.7947
  174SAPS  C31019851   3.310   6.312   3.635  0.7017  0.0779  0.0889
  174SAPS  H10X19852   3.417   6.331   3.609  1.8566 -3.0977  1.9725
  174SAPS  H10Y19853   3.300   6.203   3.618 -0.3255  0.3791 -1.3876
  174SAPS  C31119854   3.298   6.344   3.783  0.2247  0.3864 -0.1333
  174SAPS  H11X19855   3.190   6.328   3.803  0.2178  0.8201  0.1792
  174SAPS  H11Y19856   3.328   6.447   3.812  0.9884 -0.1599  1.1409
  174SAPS  C31219857   3.369   6.247   3.882  0.2989 -0.2883 -0.1464
  174SAPS  H12X19858   3.477   6.239   3.861  1.1955  0.3215  3.5878
  174SAPS  H12Y19859   3.323   6.149   3.861 -2.0770  0.1943  2.2096
  174SAPS  C31319860   3.371   6.279   4.032  0.1215 -0.2625 -0.3560
  174SAPS  H13X19861   3.263   6.270   4.058 -0.6859 -0.6165 -3.4414
  174SAPS  H13Y19862   3.398   6.386   4.047  2.8989 -0.7334 -1.5317
  174SAPS  C31419863   3.465   6.185   4.110 -0.9012  0.4736  0.1532
  174SAPS  H14X19864   3.569   6.193   4.072 -0.8056  1.1387  0.5368
  174SAPS  H14Y19865   3.435   6.085   4.072 -0.6971  0.0559  1.0723
  174SAPS  C31519866   3.443   6.198   4.265  0.7604  0.7246  0.0286
  174SAPS  H15X19867   3.492   6.109   4.310  0.7542  0.7745  0.1323
  174SAPS  H15Y19868   3.334   6.181   4.281  1.1936 -1.5324  0.9789
  174SAPS  C31619869   3.493   6.324   4.324 -0.3780  0.3328 -0.0029
  174SAPS  H16X19870   3.475   6.326   4.433 -0.1251  1.7772  0.0307
  174SAPS  H16Y19871   3.412   6.394   4.294 -0.5174 -0.7221 -2.2842
  174SAPS  C31719872   3.630   6.377   4.277 -0.0165  0.2452 -0.1732
  174SAPS  H17X19873   3.629   6.394   4.167 -0.2537 -1.7907 -0.5274
  174SAPS  H17Y19874   3.701   6.294   4.297 -0.4114  0.7415  4.3752
  174SAPS  C31819875   3.669   6.492   4.356 -0.4746 -0.6670  0.5754
  174SAPS  H18X19876   3.643   6.474   4.462  1.8457 -0.6654  1.2005
  174SAPS  H18Y19877   3.619   6.583   4.316 -0.9575 -2.0445 -2.2253
  174SAPS  H18Z19878   3.777   6.510   4.339 -0.5221 -1.1948 -0.3379
  175SAPS     N19879   0.883   3.342   2.001 -0.5721  0.6199  0.5884
  175SAPS   HN119880   0.841   3.283   1.926  1.0284  0.4379 -0.2064
  175SAPS   HN219881   0.938   3.418   1.955 -1.7875  1.6922  0.8360
  175SAPS   HN319882   0.953   3.286   2.053 -0.2555 -1.8733 -2.2098
  175SAPS   C1219883   0.777   3.417   2.070 -0.4277  0.3054  0.1206
  175SAPS  H12A19884   0.722   3.482   2.004 -0.8108  0.2402  0.3697
  175SAPS   C1319885   0.674   3.314   2.135  0.1298 -0.3974  0.3808
  175SAPS  O13A19886   0.703   3.195   2.151 -0.2442  0.0842  0.3778
  175SAPS  O13B19887   0.563   3.360   2.161  0.4357 -0.6022 -0.2207
  175SAPS   C1119888   0.839   3.487   2.191  0.1695 -0.6067  0.0343
  175SAPS  H11A19889   0.904   3.420   2.251  0.9177  1.1939  1.3276
  175SAPS  H11B19890   0.763   3.522   2.264  0.6200 -0.3309  0.3749
  175SAPS     P19891   0.867   3.734   2.083  0.2570 -0.0233 -0.0364
  175SAPS   O1319892   0.976   3.794   2.007  0.4273 -0.7276 -0.4640
  175SAPS   O1419893   0.745   3.710   1.999 -0.0684  0.5401 -0.7616
  175SAPS   O1219894   0.917   3.602   2.152 -0.0184  0.3508 -0.2859
  175SAPS   O1119895   0.827   3.831   2.200 -0.5128 -0.2382 -0.1220
  175SAPS    C119896   0.912   3.831   2.318  0.0543 -0.0225  0.7169
  175SAPS    HA19897   0.979   3.743   2.328  0.0691 -0.6026 -3.0969
  175SAPS    HB19898   0.975   3.923   2.315 -1.1652  0.9195  2.4361
  175SAPS    C219899   0.827   3.853   2.443 -0.9571  0.5584 -0.4643
  175SAPS    HS19900   0.892   3.872   2.531 -0.0078  2.7347 -1.5551
  175SAPS   O2119901   0.723   3.754   2.464  0.3062  0.1471  0.2255
  175SAPS   C2119902   0.772   3.648   2.516  0.0103 -0.1773 -0.3625
  175SAPS   O2219903   0.889   3.628   2.552 -0.1564 -0.4967 -0.0825
  175SAPS   C2219904   0.656   3.551   2.543 -0.7911  0.0975 -0.3403
  175SAPS   H2R19905   0.593   3.548   2.452 -2.4164  0.3762  0.7453
  175SAPS   H2S19906   0.700   3.450   2.558  2.1997  1.4202  0.6849
  175SAPS    C319907   0.751   3.988   2.438  0.4514 -0.2911  0.2077
  175SAPS    HX19908   0.692   3.996   2.344  0.9817  0.2140 -0.0864
  175SAPS    HY19909   0.815   4.076   2.416 -2.1367  1.4118 -1.1096
  175SAPS   O3119910   0.673   4.022   2.557 -0.5080 -0.1397 -0.1886
  175SAPS   C3119911   0.543   3.981   2.554 -0.3387 -0.4437  0.5569
  175SAPS   O3219912   0.494   3.914   2.463  0.4162 -0.2052  0.3229
  175SAPS   C3219913   0.460   4.023   2.675  0.1174  0.3030 -0.4687
  175SAPS   H2X19914   0.372   3.955   2.680 -0.4092  1.0275  2.6204
  175SAPS   H2Y19915   0.417   4.126   2.671 -1.5782 -0.3494  0.1323
  175SAPS   C2319916   0.563   3.599   2.662 -0.4290 -0.2957 -0.5017
  175SAPS   H3R19917   0.558   3.710   2.654  0.2672 -0.2633 -0.5428
  175SAPS   H3S19918   0.615   3.585   2.759  0.8031  1.6817 -0.7986
  175SAPS   C2419919   0.412   3.555   2.665  0.0352 -0.2267  0.1302
  175SAPS   H4R19920   0.358   3.622   2.595  0.5174 -0.1002 -0.1203
  175SAPS   H4S19921   0.361   3.582   2.760  0.6706  1.1631  0.1045
  175SAPS   C2519922   0.379   3.410   2.621 -0.6669 -0.5227  0.0923
  175SAPS   H5R19923   0.441   3.377   2.537 -0.6902 -1.8674  0.5778
  175SAPS   C2619924   0.295   3.321   2.675  0.5658 -0.3657  0.3318
  175SAPS   H6R19925   0.277   3.229   2.618 -2.2957 -0.2896  0.9413
  175SAPS   C2719926   0.197   3.337   2.783 -0.7537  0.6209  0.1349
  175SAPS   H7R19927   0.095   3.347   2.741 -1.3852 -2.4985  0.6534
  175SAPS   H7S19928   0.215   3.436   2.830  3.5895  0.9708 -1.7695
  175SAPS   C2819929   0.192   3.222   2.887  0.4440 -0.7751 -0.1325
  175SAPS   H8R19930   0.140   3.127   2.868  0.2144 -0.9555  1.3187
  175SAPS   C2919931   0.247   3.231   3.012 -0.5261 -0.1007  0.7636
  175SAPS   H9R19932   0.237   3.147   3.082  0.5604 -1.4487 -0.6080
  175SAPS  C21019933   0.332   3.343   3.057 -0.5350 -0.6068 -0.0138
  175SAPS  H10R19934   0.252   3.417   3.076 -0.5769 -0.3884 -0.9790
  175SAPS  H10S19935   0.385   3.396   2.976 -1.1214  0.4399  0.2767
  175SAPS  C21119936   0.427   3.306   3.171 -0.4505  0.2157 -0.2594
  175SAPS  H11R19937   0.528   3.272   3.142 -0.4959  0.4845 -0.7473
  175SAPS  C21219938   0.420   3.334   3.299  0.4943  0.6155 -0.2681
  175SAPS  H12R19939   0.505   3.305   3.362  0.3761  0.6569 -0.0854
  175SAPS  C21319940   0.308   3.403   3.370 -0.2252 -0.0342  0.0851
  175SAPS  H13R19941   0.237   3.440   3.293 -0.8517  0.3564  0.8403
  175SAPS  H13S19942   0.335   3.502   3.411 -1.9559  0.7432 -0.5918
  175SAPS  C21419943   0.244   3.328   3.481 -0.4698  0.7318 -0.2464
  175SAPS  H14R19944   0.179   3.252   3.433  0.6744  0.0094 -0.6917
  175SAPS  C21519945   0.285   3.313   3.607  0.1982 -0.2972  0.0799
  175SAPS  H15R19946   0.236   3.235   3.668 -1.2183 -0.4429 -1.1760
  175SAPS  C21619947   0.384   3.408   3.674  0.7183 -0.2186 -0.5149
  175SAPS  H16R19948   0.333   3.488   3.732 -0.4062  1.5934 -3.7328
  175SAPS  H16S19949   0.446   3.461   3.598 -0.3848 -1.0911 -2.0693
  175SAPS  C21719950   0.484   3.336   3.767  0.3973  0.1155  0.0897
  175SAPS  H17R19951   0.550   3.407   3.820 -0.4664  0.6077  0.5378
  175SAPS  H17S19952   0.541   3.281   3.689  0.3934  0.3309 -0.0653
  175SAPS  C21819953   0.410   3.247   3.875  0.4122  0.0170  0.3662
  175SAPS  H18R19954   0.491   3.204   3.939 -0.9270 -3.0222  0.1919
  175SAPS  H18S19955   0.364   3.155   3.834  1.2042 -0.9072  1.4928
  175SAPS  C21919956   0.326   3.338   3.970  0.5818  0.3178 -0.5642
  175SAPS  H19R19957   0.274   3.272   4.043  1.5123  0.0356 -0.1453
  175SAPS  H19S19958   0.252   3.398   3.911 -0.0573 -0.5376 -0.6629
  175SAPS  C22019959   0.415   3.441   4.048  0.7410  0.7274 -1.1304
  175SAPS  H20R19960   0.458   3.521   3.984  1.4772  0.3478 -1.1173
  175SAPS  H20S19961   0.493   3.401   4.115 -1.0787 -0.8534  0.1664
  175SAPS  H20T19962   0.346   3.484   4.124  0.5542 -0.0411 -0.8579
  175SAPS   C3319963   0.538   4.014   2.807  0.4828  0.8169 -0.3211
  175SAPS   H3X19964   0.627   4.081   2.799  1.7607 -0.2498  3.1373
  175SAPS   H3Y19965   0.579   3.918   2.845 -1.7309 -0.0072  0.1681
  175SAPS   C3419966   0.454   4.060   2.918  0.0188 -0.0847  0.0083
  175SAPS   H4X19967   0.345   4.039   2.911  0.3536 -2.3006  0.6258
  175SAPS   H4Y19968   0.462   4.170   2.916  0.0038 -0.0848 -0.0776
  175SAPS   C3519969   0.511   4.031   3.051 -0.1327  0.3566  0.2411
  175SAPS   H5X19970   0.615   4.070   3.058  0.4774 -1.4269  1.6649
  175SAPS   H5Y19971   0.515   3.923   3.076  1.1801  0.5914  1.1937
  175SAPS   C3619972   0.420   4.099   3.153  0.2034 -0.0565 -0.1289
  175SAPS   H6X19973   0.321   4.051   3.146  0.1751  0.2406 -4.0068
  175SAPS   H6Y19974   0.413   4.208   3.133 -1.8497  0.2136  1.7011
  175SAPS   C3719975   0.471   4.086   3.301 -0.1832 -0.2257  0.6612
  175SAPS   H7X19976   0.574   4.127   3.312  0.5039 -1.6089 -0.2828
  175SAPS   H7Y19977   0.487   3.978   3.321 -0.0040 -0.1894  0.7193
  175SAPS   C3819978   0.381   4.142   3.403  0.3915  0.5934 -0.3132
  175SAPS   H8X19979   0.288   4.083   3.412  0.4071  0.5439 -0.4873
  175SAPS   H8Y19980   0.353   4.248   3.383  1.7634  0.9427 -0.4720
  175SAPS   C3919981   0.445   4.151   3.541 -0.0284  0.0366 -0.0390
  175SAPS   H9X19982   0.533   4.219   3.534  0.0684 -0.0777  0.0582
  175SAPS   H9Y19983   0.477   4.050   3.575 -1.7602 -0.0948  1.3848
  175SAPS  C31019984   0.352   4.195   3.662  0.5229  0.3629  0.5521
  175SAPS  H10X19985   0.257   4.138   3.676  1.3208 -0.6303  2.3511
  175SAPS  H10Y19986   0.326   4.303   3.652  0.3936  0.2318 -0.6419
  175SAPS  C31119987   0.414   4.175   3.799  0.2073  0.2459 -0.4345
  175SAPS  H11X19988   0.520   4.206   3.791  0.1733  1.0376  1.6505
  175SAPS  H11Y19989   0.401   4.071   3.834 -0.8942  1.2454  2.4756
  175SAPS  C31219990   0.340   4.254   3.912 -0.2649  0.0205  0.0491
  175SAPS  H12X19991   0.236   4.214   3.914 -0.2916  0.1253  0.9816
  175SAPS  H12Y19992   0.348   4.363   3.893 -0.3637  0.0608  0.2425
  175SAPS  C31319993   0.388   4.222   4.054 -0.5847 -0.3586  0.3982
  175SAPS  H13X19994   0.499   4.213   4.058 -0.6183 -0.4646  2.3452
  175SAPS  H13Y19995   0.361   4.119   4.085  1.1738 -1.0530 -0.2287
  175SAPS  C31419996   0.345   4.314   4.169  0.3363  0.2045 -0.0226
  175SAPS  H14X19997   0.236   4.323   4.150  0.6305 -2.3983 -4.1486
  175SAPS  H14Y19998   0.393   4.414   4.161 -0.0018  0.3844  0.1843
  175SAPS  C31519999   0.392   4.257   4.307 -0.4517  0.0194  0.6460
  175SAPS  H15X20000   0.502   4.267   4.300 -0.4477 -0.7357 -0.8546
  175SAPS  H15Y20001   0.379   4.147   4.318 -0.1394  0.0078  0.8873
  175SAPS  C31620002   0.332   4.332   4.428 -0.1635 -0.4491 -0.3576
  175SAPS  H16X20003   0.221   4.321   4.421 -0.4837  2.4222 -1.1000
  175SAPS  H16Y20004   0.346   4.442   4.425 -3.4639  0.0778 -0.2684
  175SAPS  C31720005   0.389   4.283   4.560 -0.0317  0.9106 -0.0997
  175SAPS  H17X20006   0.403   4.173   4.554  1.0183  1.0028  0.4397
  175SAPS  H17Y20007   0.313   4.295   4.640 -1.7990 -3.7137 -0.7828
  175SAPS  C31820008   0.522   4.343   4.592 -0.0841  0.1890  0.2204
  175SAPS  H18X20009   0.597   4.307   4.518  0.8667 -0.5828  1.5331
  175SAPS  H18Y20010   0.549   4.317   4.696 -2.5107  0.1476  0.9063
  175SAPS  H18Z20011   0.523   4.454   4.580  2.7747  0.3245  1.0547
  176SAPS     N20012   0.378   1.411   1.800 -0.4828 -0.7487  0.3873
  176SAPS   HN120013   0.391   1.331   1.864  1.6057  0.5372  1.6935
  176SAPS   HN220014   0.376   1.499   1.857  0.4270 -0.4067 -0.0934
  176SAPS   HN320015   0.285   1.398   1.754  0.9411 -1.2805 -2.5633
  176SAPS   C1220016   0.494   1.412   1.706  0.1228  0.3582 -0.0054
  176SAPS  H12A20017   0.504   1.314   1.662  0.6127  1.0722 -1.5593
  176SAPS   C1320018   0.478   1.493   1.574  0.2406  0.2971  0.2844
  176SAPS  O13A20019   0.377   1.564   1.557 -0.1323  0.4317 -0.2343
  176SAPS  O13B20020   0.560   1.491   1.483 -0.3297  0.3941 -0.4154
  176SAPS   C1120021   0.626   1.445   1.784 -0.0728  0.2681  0.5221
  176SAPS  H11A20022   0.629   1.555   1.798 -1.2132  0.2273  1.2238
  176SAPS  H11B20023   0.714   1.431   1.718  0.1896 -0.6313  1.0385
  176SAPS     P20024   0.684   1.441   2.031  0.0399  0.1342 -0.6003
  176SAPS   O1320025   0.795   1.528   1.998 -0.4818 -0.9191 -0.0610
  176SAPS   O1420026   0.571   1.507   2.100  0.5037 -0.1751 -0.0917
  176SAPS   O1220027   0.640   1.367   1.900 -0.5970  0.0907  0.0793
  176SAPS   O1120028   0.736   1.326   2.121 -0.1563 -0.5328 -0.5904
  176SAPS    C120029   0.667   1.255   2.225 -1.0065  0.0015 -0.1356
  176SAPS    HA20030   0.577   1.303   2.269 -0.4612  0.6419  0.3066
  176SAPS    HB20031   0.653   1.149   2.194  1.6277 -0.0387 -1.4352
  176SAPS    C220032   0.760   1.250   2.350 -0.4113 -1.1546 -0.2547
  176SAPS    HS20033   0.853   1.193   2.328  0.4063  0.1117 -0.2116
  176SAPS   O2120034   0.688   1.201   2.460 -0.4132  0.5401  0.4955
  176SAPS   C2120035   0.680   1.067   2.458 -0.8803  0.4883  0.3646
  176SAPS   O2220036   0.730   0.997   2.374  0.1291  0.0013 -0.4380
  176SAPS   C2220037   0.605   1.023   2.584  0.2093 -0.3893  0.0631
  176SAPS   H2R20038   0.600   1.105   2.658 -0.7524 -1.0500  0.7600
  176SAPS   H2S20039   0.499   1.008   2.556  0.5213 -1.6637 -0.5301
  176SAPS    C320040   0.803   1.397   2.385 -0.0513 -0.1039 -0.5968
  176SAPS    HX20041   0.710   1.449   2.415 -1.2018 -3.0392  1.3365
  176SAPS    HY20042   0.843   1.454   2.298  2.7861 -0.2002  0.5202
  176SAPS   O3120043   0.910   1.396   2.481  0.3316  0.1207  0.4439
  176SAPS   C3120044   0.932   1.523   2.527 -0.1730 -0.8939 -0.4767
  176SAPS   O3220045   0.869   1.621   2.489 -0.2424  0.3086 -0.0606
  176SAPS   C3220046   1.030   1.519   2.643 -0.1134  0.2071  0.7250
  176SAPS   H2X20047   1.130   1.503   2.596 -0.0701  0.0164  0.8795
  176SAPS   H2Y20048   1.011   1.426   2.701 -1.5764  0.0133 -0.0210
  176SAPS   C2320049   0.656   0.894   2.652  0.1003  0.0703  0.2718
  176SAPS   H3R20050   0.763   0.872   2.633  0.5087 -0.0933  2.5132
  176SAPS   H3S20051   0.610   0.810   2.596  0.9536 -0.7271  0.7283
  176SAPS   C2420052   0.616   0.869   2.801  0.8028  0.1342  0.2166
  176SAPS   H4R20053   0.624   0.762   2.828 -0.9442  0.4434  2.2700
  176SAPS   H4S20054   0.508   0.896   2.811  0.4019 -0.6175 -1.6211
  176SAPS   C2520055   0.703   0.955   2.888 -0.1077 -0.3818 -0.2168
  176SAPS   H5R20056   0.811   0.962   2.868 -0.0402 -0.0271  0.2756
  176SAPS   C2620057   0.662   1.024   2.999  0.9073 -0.5483 -0.1975
  176SAPS   H6R20058   0.730   1.090   3.054  0.0340  0.9338 -0.8447
  176SAPS   C2720059   0.524   1.051   3.051 -0.4951 -0.3437  0.2396
  176SAPS   H7R20060   0.451   1.060   2.967 -0.6500 -1.6746  0.1973
  176SAPS   H7S20061   0.513   1.150   3.099  0.0164  0.3825 -1.0987
  176SAPS   C2820062   0.477   0.930   3.125 -0.3285  0.1176 -0.0450
  176SAPS   H8R20063   0.476   0.835   3.069  1.0675 -1.2247  2.0350
  176SAPS   C2920064   0.417   0.933   3.247 -0.2151 -0.6582  0.1939
  176SAPS   H9R20065   0.376   0.842   3.294 -0.5590  0.1157  1.4368
  176SAPS  C21020066   0.387   1.057   3.330 -0.0950  0.4498 -0.3378
  176SAPS  H10R20067   0.460   1.139   3.315  0.8037 -0.3399 -0.3260
  176SAPS  H10S20068   0.397   1.016   3.433  0.0109 -0.7699 -0.8246
  176SAPS  C21120069   0.242   1.107   3.320  0.3128  0.0943  0.3677
  176SAPS  H11R20070   0.198   1.093   3.220  0.3617  3.2735 -0.1726
  176SAPS  C21220071   0.176   1.176   3.413  0.0002  0.2946 -0.3096
  176SAPS  H12R20072   0.074   1.215   3.398 -0.6295 -0.3799  1.7709
  176SAPS  C21320073   0.239   1.217   3.545  0.1610 -0.3132 -0.3530
  176SAPS  H13R20074   0.216   1.326   3.546 -0.4316 -0.4245  1.3820
  176SAPS  H13S20075   0.350   1.212   3.545  0.2165  0.6007 -0.7667
  176SAPS  C21420076   0.174   1.157   3.663  0.0854  0.5188 -0.7390
  176SAPS  H14R20077   0.072   1.124   3.641  0.6365 -1.3166 -0.6910
  176SAPS  C21520078   0.224   1.165   3.796 -0.3669 -0.0557  0.6202
  176SAPS  H15R20079   0.165   1.122   3.877  2.9102 -2.8993  1.7571
  176SAPS  C21620080   0.350   1.236   3.841  0.3027  0.0897 -0.5191
  176SAPS  H16R20081   0.388   1.295   3.754  0.0507  0.3520 -0.4510
  176SAPS  H16S20082   0.434   1.170   3.873 -0.7298 -1.6735 -1.3159
  176SAPS  C21720083   0.335   1.330   3.961  0.0147  0.4170 -0.1706
  176SAPS  H17R20084   0.244   1.394   3.964  0.8575  1.6347  1.1288
  176SAPS  H17S20085   0.406   1.413   3.940 -0.7514  1.9528  2.6750
  176SAPS  C21820086   0.355   1.272   4.103 -0.2914  0.4876 -0.2762
  176SAPS  H18R20087   0.444   1.207   4.115 -1.8718 -1.8576 -0.5839
  176SAPS  H18S20088   0.269   1.207   4.128 -3.0346  3.1901 -1.8829
  176SAPS  C21920089   0.373   1.391   4.194  0.3571  0.6912  0.0407
  176SAPS  H19R20090   0.299   1.468   4.163  0.9944  1.5717  0.6764
  176SAPS  H19S20091   0.476   1.431   4.183  0.9738 -0.5610  1.0373
  176SAPS  C22020092   0.362   1.360   4.344  0.7766  0.1224  0.6275
  176SAPS  H20R20093   0.410   1.434   4.411 -0.6304 -1.1628  3.1892
  176SAPS  H20S20094   0.397   1.257   4.367  1.3970 -0.4754 -2.4705
  176SAPS  H20T20095   0.254   1.353   4.370  0.4446  0.7744 -0.4665
  176SAPS   C3320096   1.021   1.641   2.730  0.1481 -0.4859 -0.0983
  176SAPS   H3X20097   0.917   1.659   2.765  0.5998  1.2686  0.4607
  176SAPS   H3Y20098   1.051   1.733   2.677  0.6751 -0.0917  0.8552
  176SAPS   C3420099   1.108   1.619   2.860 -0.1150 -0.6591 -0.1681
  176SAPS   H4X20100   1.212   1.641   2.826 -0.1880  1.4109  0.8281
  176SAPS   H4Y20101   1.091   1.512   2.887  0.5472 -1.3484 -2.2904
  176SAPS   C3520102   1.075   1.721   2.977 -0.1588 -0.3200  0.5143
  176SAPS   H5X20103   0.967   1.719   3.000 -1.0119 -1.6379 -2.9333
  176SAPS   H5Y20104   1.119   1.818   2.946  0.4163 -0.3844  1.1151
  176SAPS   C3620105   1.144   1.675   3.111  0.4874 -0.5392 -0.2036
  176SAPS   H6X20106   1.251   1.646   3.102  0.6031 -0.9671  1.8940
  176SAPS   H6Y20107   1.100   1.574   3.128  3.4562 -2.2055 -1.7443
  176SAPS   C3720108   1.115   1.760   3.230 -0.0507  0.1117 -0.1972
  176SAPS   H7X20109   1.006   1.777   3.246 -0.6827 -4.7512  2.8305
  176SAPS   H7Y20110   1.159   1.861   3.219 -0.5473  0.6504  2.1504
  176SAPS   C3820111   1.160   1.701   3.361  0.3033  0.1689  0.6963
  176SAPS   H8X20112   1.266   1.667   3.357 -0.3052 -1.9492  1.3899
  176SAPS   H8Y20113   1.100   1.613   3.391  2.2857 -1.8776 -0.9857
  176SAPS   C3920114   1.154   1.787   3.488  0.2561 -0.0980 -0.2565
  176SAPS   H9X20115   1.166   1.726   3.581  0.7998  0.2819 -0.0711
  176SAPS   H9Y20116   1.052   1.830   3.483  0.3681  0.2230  0.1625
  176SAPS  C31020117   1.268   1.894   3.493 -0.5275 -0.2909  0.6100
  176SAPS  H10X20118   1.264   1.955   3.400 -1.4905  0.1628  0.9417
  176SAPS  H10Y20119   1.366   1.842   3.500  0.0593  0.7579  0.3201
  176SAPS  C31120120   1.255   1.997   3.602  0.3058  0.6668 -0.1338
  176SAPS  H11X20121   1.198   2.087   3.572 -0.4407  0.7450  1.4172
  176SAPS  H11Y20122   1.360   2.026   3.621  0.7702  0.1210 -1.6880
  176SAPS  C31220123   1.198   1.941   3.729  0.2425  0.0363  0.3713
  176SAPS  H12X20124   1.265   1.865   3.775  1.9105  1.7812  0.9535
  176SAPS  H12Y20125   1.091   1.913   3.723 -0.0212  0.7527  1.4335
  176SAPS  C31320126   1.195   2.047   3.842 -0.4300  0.1082 -0.0347
  176SAPS  H13X20127   1.118   2.125   3.827 -0.1992  0.4285  0.4242
  176SAPS  H13Y20128   1.295   2.094   3.854 -0.2823 -0.4393  1.0458
  176SAPS  C31420129   1.178   1.986   3.984 -0.2780  0.0641  0.0857
  176SAPS  H14X20130   1.243   1.898   4.000  0.9641  1.1517  1.3439
  176SAPS  H14Y20131   1.071   1.957   3.995 -0.1932 -0.1070  0.4647
  176SAPS  C31520132   1.208   2.094   4.086  0.1406  1.0572  0.0092
  176SAPS  H15X20133   1.147   2.186   4.076 -1.4366  0.0036 -0.4145
  176SAPS  H15Y20134   1.313   2.125   4.070  0.3975  0.3446  0.2743
  176SAPS  C31620135   1.200   2.039   4.230 -0.3086 -0.2320 -0.5108
  176SAPS  H16X20136   1.286   1.970   4.248  0.5910  1.3246  1.5073
  176SAPS  H16Y20137   1.103   1.988   4.246 -0.3517  0.0783  0.2182
  176SAPS  C31720138   1.207   2.153   4.338 -0.9825  0.0113 -0.2927
  176SAPS  H17X20139   1.312   2.188   4.345  0.3223 -2.7541 -3.4347
  176SAPS  H17Y20140   1.191   2.118   4.443  0.4170  1.0035  0.2881
  176SAPS  C31820141   1.115   2.276   4.312  0.1518 -0.6403  0.2782
  176SAPS  H18X20142   1.096   2.345   4.397 -0.0480 -1.5354  0.9753
  176SAPS  H18Y20143   1.013   2.237   4.289  0.6995 -0.4763 -3.0262
  176SAPS  H18Z20144   1.134   2.336   4.220 -4.2615  0.5281 -0.1356
  177SAPS     N20145   2.842   2.371   1.739  0.0641  0.3369  0.5288
  177SAPS   HN120146   2.837   2.268   1.751 -0.1874  0.0440 -1.8115
  177SAPS   HN220147   2.812   2.391   1.642  0.7946 -2.9209 -0.4687
  177SAPS   HN320148   2.939   2.408   1.752  0.3297 -0.0341 -0.3522
  177SAPS   C1220149   2.756   2.451   1.833  0.2737 -0.0315 -0.1687
  177SAPS  H12A20150   2.775   2.552   1.798 -0.9249  0.6662  1.0759
  177SAPS   C1320151   2.609   2.421   1.843  0.2319  0.3594  0.1058
  177SAPS  O13A20152   2.562   2.347   1.757 -0.4866  0.2740  0.3471
  177SAPS  O13B20153   2.537   2.491   1.922  0.4093  0.2599 -0.7199
  177SAPS   C1120154   2.814   2.452   1.982 -0.3160 -0.5164 -0.3702
  177SAPS  H11A20155   2.812   2.347   2.019 -2.2652 -0.2541  0.4209
  177SAPS  H11B20156   2.741   2.494   2.056  0.4215 -1.4466  0.9344
  177SAPS     P20157   3.072   2.461   2.067  0.0405 -0.1900 -0.1580
  177SAPS   O1320158   3.059   2.317   2.058 -1.4491 -0.0638 -0.0652
  177SAPS   O1420159   3.189   2.522   2.001 -0.0765  0.6132 -0.1804
  177SAPS   O1220160   2.940   2.516   1.992  0.7573  0.7325 -0.1790
  177SAPS   O1120161   3.056   2.511   2.214  0.8088  0.1000 -0.1430
  177SAPS    C120162   2.934   2.501   2.291 -0.5128 -0.0031 -0.8157
  177SAPS    HA20163   2.892   2.603   2.298 -1.2368 -0.3457  0.0256
  177SAPS    HB20164   2.862   2.428   2.247 -0.9760 -0.5146  0.7183
  177SAPS    C220165   2.970   2.460   2.437  0.3481 -0.0077  0.2105
  177SAPS    HS20166   2.871   2.426   2.474 -1.0037  2.1354 -1.1908
  177SAPS   O2120167   3.014   2.580   2.499 -0.3386  0.6664  0.2535
  177SAPS   C2120168   2.985   2.588   2.628  0.1957  0.4611 -0.3995
  177SAPS   O2220169   2.908   2.515   2.686 -0.6136  0.2273  0.4348
  177SAPS   C2220170   3.056   2.699   2.687 -0.2226  0.2435  0.6573
  177SAPS   H2R20171   3.139   2.738   2.622 -0.1794  0.2248  0.7015
  177SAPS   H2S20172   2.984   2.778   2.716  1.5931  2.2355  0.0486
  177SAPS    C320173   3.065   2.341   2.438 -0.1961  0.5262 -0.4188
  177SAPS    HX20174   3.154   2.358   2.375 -0.5039 -3.2028 -2.1419
  177SAPS    HY20175   3.007   2.256   2.396 -0.0850  0.3950 -0.3076
  177SAPS   O3120176   3.107   2.308   2.572 -0.4662 -0.0595  0.2601
  177SAPS   C3120177   3.082   2.186   2.613 -0.2589  0.5948 -0.3181
  177SAPS   O3220178   3.035   2.091   2.546  0.6082 -0.2967  0.8486
  177SAPS   C3220179   3.124   2.161   2.760 -0.3312 -0.1829  0.6026
  177SAPS   H2X20180   3.146   2.266   2.792 -1.8976  1.0051 -1.9368
  177SAPS   H2Y20181   3.218   2.103   2.751 -0.4340 -0.4417  1.1596
  177SAPS   C2320182   3.123   2.664   2.824 -1.0360 -0.1405  0.4521
  177SAPS   H3R20183   3.197   2.581   2.816 -1.7461 -0.5585 -2.8067
  177SAPS   H3S20184   3.036   2.638   2.888 -3.5015  1.1604 -2.1567
  177SAPS   C2420185   3.178   2.793   2.897  0.0750 -0.6623  0.1114
  177SAPS   H4R20186   3.101   2.870   2.918  1.9172  1.3214 -0.0290
  177SAPS   H4S20187   3.242   2.844   2.822  0.4980  2.7005  2.5449
  177SAPS   C2520188   3.271   2.762   3.012  0.5514  0.3529  0.2100
  177SAPS   H5R20189   3.335   2.674   2.999  0.5378  0.2772  0.6479
  177SAPS   C2620190   3.284   2.839   3.127 -0.7292  0.2125 -0.1459
  177SAPS   H6R20191   3.368   2.825   3.195 -0.4339  0.3748 -0.4755
  177SAPS   C2720192   3.219   2.968   3.161  0.2948  0.4474  0.0768
  177SAPS   H7R20193   3.160   3.002   3.073 -2.9631  1.3908  2.4247
  177SAPS   H7S20194   3.291   3.053   3.168  1.3283 -0.2398 -1.6477
  177SAPS   C2820195   3.119   2.966   3.274  0.2183 -0.0344 -0.3440
  177SAPS   H8R20196   3.113   2.865   3.317 -1.4721 -0.2674 -1.0395
  177SAPS   C2920197   3.062   3.064   3.349 -0.3041 -0.3758 -0.0960
  177SAPS   H9R20198   3.011   3.020   3.435  1.0076 -1.7627  0.0237
  177SAPS  C21020199   3.064   3.216   3.328  0.5248  0.1576  0.0976
  177SAPS  H10R20200   3.145   3.233   3.255  1.3699 -2.0638  0.4309
  177SAPS  H10S20201   3.098   3.261   3.424  1.1818 -0.0318 -0.0417
  177SAPS  C21120202   2.938   3.274   3.272 -0.2212 -0.1102  0.4150
  177SAPS  H11R20203   2.874   3.212   3.209  0.6568 -0.8074  0.1892
  177SAPS  C21220204   2.899   3.403   3.288  0.0208 -0.1105 -0.0670
  177SAPS  H12R20205   2.812   3.445   3.235 -2.0942 -3.0018  0.8580
  177SAPS  C21320206   2.970   3.498   3.380 -0.0330  0.4070  0.2403
  177SAPS  H13R20207   3.079   3.489   3.359  0.3384  4.0472 -0.0271
  177SAPS  H13S20208   2.972   3.456   3.483  0.5968 -1.0817 -0.3425
  177SAPS  C21420209   2.921   3.640   3.369  0.0623  0.2517  1.1134
  177SAPS  H14R20210   2.976   3.690   3.288 -0.7444 -2.7193 -1.4558
  177SAPS  C21520211   2.828   3.707   3.445  0.6217  0.5792 -0.6034
  177SAPS  H15R20212   2.816   3.815   3.426  2.3162  1.0133  0.5524
  177SAPS  C21620213   2.747   3.644   3.559 -0.3039 -0.5990 -0.0437
  177SAPS  H16R20214   2.801   3.552   3.590  3.3123  0.6009 -2.1998
  177SAPS  H16S20215   2.649   3.600   3.527  0.4960 -1.1486 -1.9016
  177SAPS  C21720216   2.723   3.743   3.674 -0.3165  0.5369 -0.1864
  177SAPS  H17R20217   2.823   3.781   3.704  0.2351 -1.2066  0.2769
  177SAPS  H17S20218   2.685   3.684   3.760  0.1317  0.5777  0.0411
  177SAPS  C21820219   2.618   3.855   3.640 -0.1194 -0.6228  0.3384
  177SAPS  H18R20220   2.522   3.802   3.621 -1.8430  1.1194  3.3541
  177SAPS  H18S20221   2.656   3.914   3.554  0.2660 -1.7693 -0.3005
  177SAPS  C21920222   2.578   3.955   3.755  0.0740 -0.0116  0.2817
  177SAPS  H19R20223   2.485   4.002   3.717 -0.5129 -0.7193  0.8365
  177SAPS  H19S20224   2.658   4.033   3.758 -0.3329  0.5321 -1.7550
  177SAPS  C22020225   2.559   3.887   3.892 -0.0869 -0.2495  0.4160
  177SAPS  H20R20226   2.523   3.951   3.975 -0.6210 -0.4569  0.3498
  177SAPS  H20S20227   2.649   3.836   3.932 -0.4085 -2.1330 -1.1268
  177SAPS  H20T20228   2.480   3.811   3.880 -1.3351  1.2471 -1.5108
  177SAPS   C3320229   3.030   2.085   2.851  0.3069 -0.2688 -0.0365
  177SAPS   H3X20230   3.082   2.037   2.937  0.7486  1.2174  0.5549
  177SAPS   H3Y20231   3.000   1.996   2.791 -0.7550  0.9815 -1.4423
  177SAPS   C3420232   2.914   2.169   2.898  0.1365  0.5814 -0.3421
  177SAPS   H4X20233   2.854   2.119   2.976  0.1587  0.6253 -0.2973
  177SAPS   H4Y20234   2.845   2.195   2.815 -0.7401  1.2126  0.5592
  177SAPS   C3520235   2.954   2.296   2.976  0.6252  0.3068 -0.1314
  177SAPS   H5X20236   3.005   2.364   2.904  0.2391  0.0037 -0.6994
  177SAPS   H5Y20237   3.036   2.265   3.045 -2.0815 -2.5069  2.0941
  177SAPS   C3620238   2.841   2.377   3.055 -0.2739  0.0890 -0.1047
  177SAPS   H6X20239   2.795   2.308   3.128  0.6699 -1.3179 -0.7869
  177SAPS   H6Y20240   2.760   2.386   2.979 -1.8264 -0.6292  1.3956
  177SAPS   C3720241   2.886   2.503   3.133  0.1285  0.3977  0.0403
  177SAPS   H7X20242   2.800   2.536   3.196 -0.8964 -0.2259 -0.9987
  177SAPS   H7Y20243   2.909   2.576   3.053  1.0890  1.3128  1.1223
  177SAPS   C3820244   3.007   2.480   3.221  0.1160  0.1846  1.0011
  177SAPS   H8X20245   3.091   2.513   3.157 -2.2221  0.0051 -2.4207
  177SAPS   H8Y20246   3.018   2.375   3.257 -0.9747 -0.1642  0.3785
  177SAPS   C3920247   3.003   2.569   3.341 -0.1379  0.2849  0.0889
  177SAPS   H9X20248   2.906   2.542   3.387 -0.6594 -1.1355 -1.7352
  177SAPS   H9Y20249   3.002   2.674   3.304 -0.7383  0.0026 -0.7223
  177SAPS  C31020250   3.116   2.552   3.442  0.1469  0.6587 -0.0684
  177SAPS  H10X20251   3.205   2.591   3.387 -0.9056  1.0541 -1.5631
  177SAPS  H10Y20252   3.141   2.447   3.470 -2.1437 -0.2049 -0.9888
  177SAPS  C31120253   3.100   2.640   3.567 -0.6250 -0.0217 -0.6301
  177SAPS  H11X20254   3.110   2.747   3.541 -1.3115  0.2805  0.2829
  177SAPS  H11Y20255   3.179   2.612   3.641 -0.4233 -0.0178 -0.8403
  177SAPS  C31220256   2.961   2.625   3.633  0.0526 -0.7579 -0.1409
  177SAPS  H12X20257   2.930   2.526   3.673 -2.9999  0.5204  0.8907
  177SAPS  H12Y20258   2.880   2.659   3.566 -0.0639  1.7732  1.1450
  177SAPS  C31320259   2.946   2.699   3.763 -0.1290 -0.7061  0.4716
  177SAPS  H13X20260   2.844   2.676   3.800  0.3643 -1.8576  1.1801
  177SAPS  H13Y20261   2.946   2.810   3.753 -0.7145 -0.4401  2.8960
  177SAPS  C31420262   3.047   2.659   3.879  0.4971  0.8662 -0.3830
  177SAPS  H14X20263   3.095   2.561   3.857 -1.9753  0.3616 -4.7598
  177SAPS  H14Y20264   2.991   2.643   3.974 -0.3978  1.5684 -0.7796
  177SAPS  C31520265   3.160   2.748   3.929 -0.5586 -0.2347 -0.0755
  177SAPS  H15X20266   3.141   2.858   3.924  0.3173 -0.0962 -0.5722
  177SAPS  H15Y20267   3.239   2.728   3.853 -0.2762  0.8913 -0.0962
  177SAPS  C31620268   3.202   2.721   4.073  0.4859  0.1405 -1.1132
  177SAPS  H16X20269   3.313   2.727   4.085  0.5506  2.5685 -2.2131
  177SAPS  H16Y20270   3.176   2.617   4.098  0.4820  0.3550 -0.1980
  177SAPS  C31720271   3.139   2.818   4.172 -0.0462  0.0658  0.2961
  177SAPS  H17X20272   3.030   2.816   4.152  0.1296  1.1015 -0.8691
  177SAPS  H17Y20273   3.176   2.921   4.152 -1.6946  0.5238 -0.5366
  177SAPS  C31820274   3.176   2.783   4.316  0.4859 -0.1688  1.0805
  177SAPS  H18X20275   3.100   2.839   4.375 -1.7980  4.3286 -5.1042
  177SAPS  H18Y20276   3.282   2.815   4.327  1.0095 -1.9047  1.4885
  177SAPS  H18Z20277   3.178   2.673   4.329  2.3749 -0.2998  0.0483
  178SAPS     N20278   6.712   6.158   2.183  0.4588  0.5899 -0.3584
  178SAPS   HN120279   6.660   6.133   2.097  2.6290 -0.0450 -1.5790
  178SAPS   HN220280   6.805   6.196   2.155  1.2197 -1.2852 -0.5364
  178SAPS   HN320281   6.729   6.063   2.222 -4.5775 -0.8950 -1.1072
  178SAPS   C1220282   6.633   6.238   2.274  0.0319  0.0500 -0.2518
  178SAPS  H12A20283   6.677   6.336   2.285  2.6981 -1.1069  0.3395
  178SAPS   C1320284   6.484   6.258   2.242 -0.3614 -0.5233 -0.1808
  178SAPS  O13A20285   6.440   6.231   2.127  0.2658 -0.0280  0.0407
  178SAPS  O13B20286   6.427   6.349   2.306  0.2413  0.2441 -0.2515
  178SAPS   C1120287   6.638   6.172   2.419  0.0995  0.1713  0.3642
  178SAPS  H11A20288   6.584   6.243   2.484 -0.1637  0.5809 -0.2918
  178SAPS  H11B20289   6.746   6.174   2.443  0.2390 -0.3447 -0.1775
  178SAPS     P20290   6.494   5.986   2.528 -0.2540 -0.1423 -0.1336
  178SAPS   O1320291   6.376   6.078   2.545 -0.7215  0.0103 -0.4138
  178SAPS   O1420292   6.458   5.847   2.490  0.1363 -0.1878 -0.2754
  178SAPS   O1220293   6.609   6.034   2.427  0.3065 -0.3516 -0.0439
  178SAPS   O1120294   6.580   5.976   2.657 -0.2902  0.3364  0.1382
  178SAPS    C120295   6.717   5.936   2.658  0.3261 -0.1725  0.8427
  178SAPS    HA20296   6.773   5.995   2.582 -0.5193 -0.1207  0.2513
  178SAPS    HB20297   6.753   5.957   2.761 -2.3673  3.2488  1.2541
  178SAPS    C220298   6.733   5.781   2.626  0.4169 -0.1745  0.9869
  178SAPS    HS20299   6.687   5.766   2.526  1.2133 -2.9410  0.9487
  178SAPS   O2120300   6.654   5.715   2.723 -0.2849  0.0047  0.9159
  178SAPS   C2120301   6.610   5.600   2.683 -0.5640  0.4210 -0.0053
  178SAPS   O2220302   6.645   5.539   2.581  0.7663 -0.3480 -0.2979
  178SAPS   C2220303   6.527   5.538   2.794  0.0291  0.5141  0.0513
  178SAPS   H2R20304   6.590   5.509   2.881 -1.0038  0.1308  0.7063
  178SAPS   H2S20305   6.450   5.613   2.825 -1.9160 -1.8364  1.3133
  178SAPS    C320306   6.879   5.728   2.604  0.5700 -0.0591  0.5007
  178SAPS    HX20307   6.921   5.792   2.523  1.3517 -1.0038  0.1473
  178SAPS    HY20308   6.886   5.621   2.574 -1.6599 -0.2453  0.4823
  178SAPS   O3120309   6.951   5.756   2.720  0.7140  0.1167 -0.2238
  178SAPS   C3120310   6.966   5.656   2.800  0.0222  0.1159  0.3475
  178SAPS   O3220311   6.920   5.542   2.791 -0.5324  0.3931  0.0574
  178SAPS   C3220312   7.047   5.707   2.918  0.3186 -0.1863 -0.2572
  178SAPS   H2X20313   7.127   5.777   2.887  0.0271  1.6206  2.6679
  178SAPS   H2Y20314   7.091   5.620   2.970  2.7213  0.1495 -1.6183
  178SAPS   C2320315   6.437   5.416   2.766  0.2395  0.4215  1.1931
  178SAPS   H3R20316   6.515   5.344   2.733  1.0143  0.9750  1.7663
  178SAPS   H3S20317   6.367   5.452   2.688  0.5567 -2.0563 -0.3285
  178SAPS   C2420318   6.364   5.365   2.886 -0.7048 -0.6854  0.4359
  178SAPS   H4R20319   6.293   5.446   2.915 -1.6368 -1.6351  0.8875
  178SAPS   H4S20320   6.437   5.352   2.968  1.6249  2.0286 -1.0653
  178SAPS   C2520321   6.291   5.236   2.858  0.0464  0.7889 -0.1296
  178SAPS   H5R20322   6.210   5.241   2.784  1.0611 -1.8022 -1.5611
  178SAPS   C2620323   6.307   5.119   2.922 -0.3230 -0.0467 -0.6976
  178SAPS   H6R20324   6.260   5.025   2.890 -1.0191  0.2218 -0.4624
  178SAPS   C2720325   6.423   5.084   3.012  0.5794  0.2914 -0.1387
  178SAPS   H7R20326   6.513   5.148   2.999  0.8319 -0.0803 -0.2141
  178SAPS   H7S20327   6.458   4.984   2.981 -1.4537  0.1145 -2.1024
  178SAPS   C2820328   6.396   5.091   3.161 -0.1224  0.5760 -0.3989
  178SAPS   H8R20329   6.302   5.044   3.193 -0.6299  1.1966 -0.9301
  178SAPS   C2920330   6.465   5.149   3.259 -0.3223 -0.2774  0.2715
  178SAPS   H9R20331   6.425   5.143   3.361 -0.9466  0.5706  0.0862
  178SAPS  C21020332   6.589   5.243   3.255 -0.2407  0.2410 -0.2623
  178SAPS  H10R20333   6.662   5.213   3.177  0.0529 -3.0084  1.0989
  178SAPS  H10S20334   6.646   5.232   3.350  0.3341 -1.0749 -0.7344
  178SAPS  C21120335   6.558   5.390   3.249 -0.4196  0.3688 -0.0244
  178SAPS  H11R20336   6.520   5.423   3.151  0.7015  1.3069 -0.1660
  178SAPS  C21220337   6.545   5.479   3.348 -0.4803 -0.2571  0.9618
  178SAPS  H12R20338   6.517   5.582   3.320  0.6891 -0.1122  0.2631
  178SAPS  C21320339   6.566   5.456   3.494  0.3560  0.9846  0.0422
  178SAPS  H13R20340   6.657   5.510   3.529  0.6794  0.6359 -0.2574
  178SAPS  H13S20341   6.589   5.348   3.506 -1.1506  0.2219 -3.0473
  178SAPS  C21420342   6.446   5.486   3.577  0.1289 -0.7438  0.1406
  178SAPS  H14R20343   6.357   5.517   3.521  0.2242 -3.2782 -1.5723
  178SAPS  C21520344   6.435   5.490   3.710 -0.4262  0.4554 -0.0022
  178SAPS  H15R20345   6.343   5.528   3.756  0.0748  0.5009  0.9817
  178SAPS  C21620346   6.553   5.464   3.806 -0.0268  0.1796 -0.0640
  178SAPS  H16R20347   6.578   5.556   3.863 -1.1794  1.9064 -2.1926
  178SAPS  H16S20348   6.644   5.422   3.758  0.7186  0.1545  1.3062
  178SAPS  C21720349   6.522   5.337   3.896  0.0330 -0.1355  0.5799
  178SAPS  H17R20350   6.501   5.246   3.837 -0.6936  1.6165 -2.0308
  178SAPS  H17S20351   6.425   5.352   3.948  0.1327 -3.3563  1.9482
  178SAPS  C21820352   6.630   5.319   3.998  0.1061 -0.1300 -0.0245
  178SAPS  H18R20353   6.614   5.412   4.056  0.3512  0.2467 -0.5570
  178SAPS  H18S20354   6.729   5.304   3.951  0.0148 -1.4742  0.1712
  178SAPS  C21920355   6.591   5.205   4.089 -0.4503  0.5666 -0.3336
  178SAPS  H19R20356   6.549   5.124   4.025  1.8800  0.1850 -1.5029
  178SAPS  H19S20357   6.509   5.231   4.159 -0.5433 -1.2443  0.2719
  178SAPS  C22020358   6.712   5.141   4.156  0.1184  0.1385 -0.5716
  178SAPS  H20R20359   6.666   5.091   4.243 -0.0212 -1.6456 -1.6209
  178SAPS  H20S20360   6.790   5.209   4.196  1.5154 -0.7466 -1.6837
  178SAPS  H20T20361   6.759   5.057   4.102  0.7444  1.5024 -2.2548
  178SAPS   C3320362   6.960   5.785   3.020 -0.4023  0.3537  0.9205
  178SAPS   H3X20363   6.887   5.711   3.061  2.4221 -3.5423 -0.4262
  178SAPS   H3Y20364   6.913   5.872   2.971  0.3814  0.0619 -0.3801
  178SAPS   C3420365   7.045   5.851   3.129  0.4744  0.5345  0.0260
  178SAPS   H4X20366   7.119   5.925   3.091  0.7053  1.2940  1.8432
  178SAPS   H4Y20367   7.098   5.766   3.176  0.1138 -0.5667 -1.5169
  178SAPS   C3520368   6.963   5.914   3.242  0.3521 -0.3695 -0.7227
  178SAPS   H5X20369   6.904   5.837   3.296 -2.0885  0.5741 -1.8957
  178SAPS   H5Y20370   6.891   5.982   3.193 -1.2940 -1.5488 -0.0338
  178SAPS   C3620371   7.059   5.983   3.340  0.2379  0.2969 -0.5269
  178SAPS   H6X20372   7.116   6.056   3.278 -2.0403  0.7915 -2.1755
  178SAPS   H6Y20373   7.134   5.908   3.374 -0.5954 -0.0231  0.6711
  178SAPS   C3720374   6.979   6.039   3.468 -0.6269 -0.2206 -0.3590
  178SAPS   H7X20375   6.912   5.962   3.510  0.7142 -0.8174  0.7555
  178SAPS   H7Y20376   6.939   6.132   3.422  4.5601  1.4939 -2.1470
  178SAPS   C3820377   7.079   6.071   3.586  0.4860 -0.7339  0.4720
  178SAPS   H8X20378   7.150   6.151   3.556 -1.1583  1.3307  1.7884
  178SAPS   H8Y20379   7.130   5.975   3.612 -1.0338 -1.7110 -0.0374
  178SAPS   C3920380   7.014   6.118   3.721 -0.2009 -0.0526  0.7008
  178SAPS   H9X20381   6.923   6.058   3.739 -0.1946 -0.2256  0.1754
  178SAPS   H9Y20382   6.980   6.223   3.714 -2.3755 -0.8306 -2.5320
  178SAPS  C31020383   7.105   6.107   3.844  0.2865  0.2566 -0.1369
  178SAPS  H10X20384   7.196   6.162   3.812  0.6198 -0.1984  0.0150
  178SAPS  H10Y20385   7.137   6.003   3.864 -1.3755 -0.0941  0.9431
  178SAPS  C31120386   7.060   6.186   3.970 -0.1012  0.2072  0.1192
  178SAPS  H11X20387   6.978   6.125   4.015 -0.9840  1.5692  0.3986
  178SAPS  H11Y20388   7.012   6.279   3.933  0.9116  0.3800 -0.7982
  178SAPS  C31220389   7.169   6.211   4.073 -0.5704 -0.4074 -0.0407
  178SAPS  H12X20390   7.130   6.271   4.158  1.7741 -0.5573  1.2371
  178SAPS  H12Y20391   7.242   6.278   4.022 -0.9459 -0.4330 -0.6219
  178SAPS  C31320392   7.237   6.091   4.128 -0.5992  0.1530 -0.6015
  178SAPS  H13X20393   7.303   6.108   4.216 -1.2116  1.2969 -0.3397
  178SAPS  H13Y20394   7.306   6.055   4.048 -0.6471  2.2152 -1.6553
  178SAPS  C31420395   7.141   5.974   4.160  0.2655 -0.0362  0.3405
  178SAPS  H14X20396   7.081   5.954   4.068  0.2584 -0.4933  0.4433
  178SAPS  H14Y20397   7.070   6.007   4.238 -0.0260 -1.3945  0.6705
  178SAPS  C31520398   7.196   5.845   4.206 -1.0738  0.0876  0.0742
  178SAPS  H15X20399   7.232   5.851   4.311 -0.1772  1.1580 -0.2647
  178SAPS  H15Y20400   7.291   5.827   4.150 -1.6979  0.5569 -1.1899
  178SAPS  C31620401   7.099   5.722   4.177  0.3625 -0.1863 -0.1458
  178SAPS  H16X20402   6.992   5.749   4.191  0.7915  0.8432  1.3893
  178SAPS  H16Y20403   7.114   5.644   4.254 -1.6771  0.6463  1.1747
  178SAPS  C31720404   7.114   5.664   4.036 -0.3181  0.3885  0.8060
  178SAPS  H17X20405   7.220   5.634   4.024  0.0648  1.5759  1.0939
  178SAPS  H17Y20406   7.096   5.741   3.959  4.2365  1.0920  0.1751
  178SAPS  C31820407   7.031   5.530   4.003 -0.1529  0.4661  0.4475
  178SAPS  H18X20408   7.029   5.511   3.893  1.3434  0.7052  0.3550
  178SAPS  H18Y20409   6.930   5.554   4.040 -0.3695  0.2717 -0.0073
  178SAPS  H18Z20410   7.062   5.448   4.071 -4.2970  0.5955  2.8066
  179SAPS     N20411   4.489   1.644   1.985  0.1395  0.6297  0.0331
  179SAPS   HN120412   4.583   1.635   2.028  0.7189 -0.1682 -1.3489
  179SAPS   HN220413   4.421   1.651   2.064 -0.4939  0.5578 -0.5052
  179SAPS   HN320414   4.472   1.562   1.925  0.3597  1.5866 -1.3960
  179SAPS   C1220415   4.486   1.766   1.905  0.2800  0.5375  0.1046
  179SAPS  H12A20416   4.483   1.834   1.989  1.3660 -1.6926  2.0842
  179SAPS   C1320417   4.617   1.796   1.828 -0.4127  0.2716  0.2487
  179SAPS  O13A20418   4.704   1.705   1.818  0.1064 -0.0866 -0.5127
  179SAPS  O13B20419   4.624   1.900   1.752 -0.1907 -0.9969  0.8069
  179SAPS   C1120420   4.358   1.796   1.820 -1.2689 -0.5995  0.5209
  179SAPS  H11A20421   4.351   1.703   1.760 -1.8360 -1.3542  1.7132
  179SAPS  H11B20422   4.381   1.876   1.746 -0.3666 -1.6013 -0.3015
  179SAPS     P20423   4.159   1.954   1.883  0.3716 -0.0559  0.6064
  179SAPS   O1320424   4.261   2.056   1.896  0.0308 -0.4385 -0.5761
  179SAPS   O1420425   4.073   1.954   1.764  0.1414 -0.7932 -0.3767
  179SAPS   O1220426   4.232   1.815   1.892 -0.0773 -0.8913  1.0028
  179SAPS   O1120427   4.063   1.949   2.012 -0.3182 -0.4542  0.2763
  179SAPS    C120428   4.109   1.915   2.142  0.7324 -0.2529  0.2569
  179SAPS    HA20429   4.076   1.813   2.169  0.9101 -0.5769 -0.6926
  179SAPS    HB20430   4.220   1.925   2.151  0.6084  0.6779  0.8679
  179SAPS    C220431   4.042   2.011   2.249  0.8427 -0.5653 -0.6192
  179SAPS    HS20432   4.108   2.005   2.338 -0.7474 -0.2834  0.6240
  179SAPS   O2120433   3.904   1.969   2.272  0.1649  0.2624  0.0098
  179SAPS   C2120434   3.889   1.926   2.392  0.4047 -0.2325 -0.3030
  179SAPS   O2220435   3.975   1.905   2.476  0.6748 -0.5251 -0.4424
  179SAPS   C2220436   3.735   1.914   2.417 -0.3357 -1.1782  0.4445
  179SAPS   H2R20437   3.698   2.015   2.445 -1.2986 -0.7508 -2.0987
  179SAPS   H2S20438   3.699   1.877   2.319  3.5717  1.3823 -2.2127
  179SAPS    C320439   4.044   2.151   2.195  0.9990  0.2575  0.0606
  179SAPS    HX20440   3.979   2.162   2.106 -1.2171 -0.3679  1.5032
  179SAPS    HY20441   4.148   2.178   2.164  0.3126  1.5616 -1.2137
  179SAPS   O3120442   3.992   2.253   2.286  0.1727 -0.5915  0.5879
  179SAPS   C3120443   4.071   2.288   2.383 -0.2044  0.9871  0.0381
  179SAPS   O3220444   4.192   2.277   2.386 -0.6772 -0.1213  0.4051
  179SAPS   C3220445   3.987   2.346   2.498  0.3084  0.0492 -0.8086
  179SAPS   H2X20446   3.908   2.269   2.508  0.6246 -0.2511 -0.5718
  179SAPS   H2Y20447   3.942   2.443   2.467  0.7463  0.2868 -0.7192
  179SAPS   C2320448   3.705   1.807   2.528  0.3509 -0.0577 -0.1857
  179SAPS   H3R20449   3.711   1.848   2.631  0.6790  0.6342 -0.4752
  179SAPS   H3S20450   3.780   1.725   2.523 -0.7871 -1.0584 -1.5056
  179SAPS   C2420451   3.558   1.752   2.513  0.3853 -1.0532  0.5149
  179SAPS   H4R20452   3.549   1.666   2.584  0.8817 -0.6009  1.1392
  179SAPS   H4S20453   3.542   1.714   2.410 -2.1558 -2.2122  1.2576
  179SAPS   C2520454   3.463   1.865   2.543 -0.4542  0.6590 -0.4111
  179SAPS   H5R20455   3.432   1.932   2.462 -1.2053  2.0758  0.9968
  179SAPS   C2620456   3.391   1.863   2.659  0.3264 -0.4217  0.0693
  179SAPS   H6R20457   3.327   1.952   2.676  1.9106  0.6451  0.6312
  179SAPS   C2720458   3.407   1.764   2.772  0.6535 -0.1603 -1.4270
  179SAPS   H7R20459   3.514   1.743   2.794  0.4432  0.2128  0.1247
  179SAPS   H7S20460   3.365   1.663   2.755 -1.4850  0.2600  0.8028
  179SAPS   C2820461   3.339   1.812   2.907 -0.0462  0.0536 -0.2088
  179SAPS   H8R20462   3.233   1.844   2.910  0.2396  1.0244  2.5723
  179SAPS   C2920463   3.391   1.810   3.039 -0.4869  0.5634  0.5139
  179SAPS   H9R20464   3.323   1.845   3.119  0.8758  0.8427  1.6057
  179SAPS  C21020465   3.534   1.796   3.086 -0.2677  0.4533  0.0190
  179SAPS  H10R20466   3.580   1.897   3.089 -1.4834  1.1077 -1.8147
  179SAPS  H10S20467   3.598   1.746   3.011  0.2532  0.9971  0.0997
  179SAPS  C21120468   3.558   1.730   3.219 -0.1611  0.8410 -1.0405
  179SAPS  H11R20469   3.585   1.623   3.215  1.5186  1.0480  2.0402
  179SAPS  C21220470   3.567   1.785   3.342 -0.2005  0.4042  0.2009
  179SAPS  H12R20471   3.591   1.726   3.432  0.8328 -0.0361 -0.3427
  179SAPS  C21320472   3.560   1.930   3.366 -0.0401  0.4286  0.0452
  179SAPS  H13R20473   3.469   1.936   3.429  0.1270  0.6046  0.2721
  179SAPS  H13S20474   3.534   1.996   3.280 -0.4856 -1.1426 -1.0803
  179SAPS  C21420475   3.678   1.977   3.440 -0.5237 -0.4084 -0.1042
  179SAPS  H14R20476   3.760   2.014   3.375 -0.3036  0.8211  0.8204
  179SAPS  C21520477   3.695   1.993   3.577  0.7533 -0.2656 -0.1501
  179SAPS  H15R20478   3.786   2.043   3.611 -1.1900  3.3321  0.2384
  179SAPS  C21620479   3.606   1.973   3.693  0.4273 -0.1691 -0.2768
  179SAPS  H16R20480   3.519   1.912   3.660  1.4609 -1.3782 -0.8105
  179SAPS  H16S20481   3.580   2.074   3.731  0.3514  0.6146 -2.2902
  179SAPS  C21720482   3.681   1.889   3.798 -0.0990  0.5065 -0.5897
  179SAPS  H17R20483   3.612   1.879   3.884 -0.0691 -1.7157 -0.7593
  179SAPS  H17S20484   3.765   1.958   3.824 -2.0421  2.6909  0.2228
  179SAPS  C21820485   3.735   1.751   3.764  0.0714 -0.0280  0.7365
  179SAPS  H18R20486   3.825   1.763   3.700 -0.6415  1.4356 -0.0503
  179SAPS  H18S20487   3.654   1.700   3.708 -2.2139  0.8666  2.9993
  179SAPS  C21920488   3.765   1.659   3.885  0.5335  0.5459 -0.5575
  179SAPS  H19R20489   3.761   1.556   3.845 -0.8944  0.2809  0.2099
  179SAPS  H19S20490   3.684   1.666   3.961  0.7994 -0.8087 -0.1416
  179SAPS  C22020491   3.892   1.694   3.957 -0.3023 -0.2818  0.3541
  179SAPS  H20R20492   3.911   1.803   3.959  1.3475 -0.5192 -0.2939
  179SAPS  H20S20493   3.980   1.657   3.900 -0.1000  0.1244  0.4018
  179SAPS  H20T20494   3.913   1.661   4.061  3.8968 -1.2584 -0.5743
  179SAPS   C3320495   4.070   2.356   2.633  0.4164 -0.0387  0.6470
  179SAPS   H3X20496   4.140   2.442   2.626  0.8908 -0.4798 -0.0829
  179SAPS   H3Y20497   4.131   2.267   2.659  0.8389  0.5097  1.5756
  179SAPS   C3420498   3.979   2.379   2.760 -0.8512 -0.4089 -0.1160
  179SAPS   H4X20499   3.929   2.281   2.771  1.5235 -1.5593  1.2785
  179SAPS   H4Y20500   3.913   2.465   2.739  0.4760  0.3241 -1.5124
  179SAPS   C3520501   4.073   2.402   2.888  0.3875 -0.3348  0.7233
  179SAPS   H5X20502   4.114   2.504   2.871 -0.9556  0.3599  1.4390
  179SAPS   H5Y20503   4.162   2.336   2.892  1.1447  0.6920  1.1077
  179SAPS   C3620504   3.989   2.405   3.017  0.2230  0.0173 -0.2392
  179SAPS   H6X20505   3.890   2.454   3.018  1.0100  1.7122  2.0207
  179SAPS   H6Y20506   4.056   2.453   3.092 -1.3771 -0.0985  1.3028
  179SAPS   C3720507   3.947   2.260   3.060  0.0660  0.5117  0.0151
  179SAPS   H7X20508   4.046   2.210   3.073  1.4114  3.0171 -0.0333
  179SAPS   H7Y20509   3.885   2.215   2.979 -1.2226  2.1905  0.0251
  179SAPS   C3820510   3.874   2.256   3.193  0.4487  0.6143 -0.3709
  179SAPS   H8X20511   3.868   2.147   3.212  0.3981 -0.0302 -3.4490
  179SAPS   H8Y20512   3.768   2.289   3.182  0.9213  1.8718 -1.4547
  179SAPS   C3920513   3.947   2.327   3.316 -0.1030  0.3745  0.1749
  179SAPS   H9X20514   3.933   2.435   3.294 -1.3300  0.3202  0.6195
  179SAPS   H9Y20515   4.050   2.287   3.303 -0.9185 -0.9748 -3.0065
  179SAPS  C31020516   3.884   2.291   3.451 -0.4307 -0.3718 -0.2703
  179SAPS  H10X20517   3.896   2.182   3.467  1.3447 -0.0829  0.4810
  179SAPS  H10Y20518   3.777   2.322   3.458 -0.8176 -1.4390 -1.1519
  179SAPS  C31120519   3.956   2.356   3.564  0.2909  0.1024  0.5464
  179SAPS  H11X20520   3.974   2.465   3.551 -0.2358  0.1367  0.0644
  179SAPS  H11Y20521   4.060   2.316   3.571  0.1264 -0.3314  0.5696
  179SAPS  C31220522   3.885   2.326   3.692  0.7701  0.0739  0.4160
  179SAPS  H12X20523   3.861   2.219   3.704 -1.0726  0.3696 -0.3091
  179SAPS  H12Y20524   3.786   2.375   3.699 -0.3203 -2.0057  0.3151
  179SAPS  C31320525   3.968   2.370   3.809  0.3367 -0.3507  0.1043
  179SAPS  H13X20526   3.965   2.480   3.818  2.4070 -0.2901  0.5782
  179SAPS  H13Y20527   4.072   2.330   3.802 -0.2310 -1.5185 -3.1692
  179SAPS  C31420528   3.916   2.321   3.945  0.2092  0.8581  0.1572
  179SAPS  H14X20529   3.877   2.217   3.945  0.5715  0.7135  0.9378
  179SAPS  H14Y20530   3.827   2.376   3.984  0.2853 -0.2663  2.0547
  179SAPS  C31520531   4.028   2.331   4.061  0.0162  0.4415  0.3312
  179SAPS  H15X20532   4.070   2.433   4.072  0.3124  0.3169  0.3753
  179SAPS  H15Y20533   4.114   2.270   4.025  0.2747  1.2410 -0.4383
  179SAPS  C31620534   3.991   2.270   4.201  0.1417  0.2046  0.4123
  179SAPS  H16X20535   3.929   2.184   4.170 -0.5390  0.9559 -0.3675
  179SAPS  H16Y20536   3.924   2.354   4.229 -0.5323  0.4518 -1.7700
  179SAPS  C31720537   4.096   2.239   4.302  0.4977 -0.0267 -0.5076
  179SAPS  H17X20538   4.197   2.265   4.264  0.9711  1.5706  1.6813
  179SAPS  H17Y20539   4.101   2.131   4.325  0.3910  0.0262 -0.2430
  179SAPS  C31820540   4.078   2.318   4.439 -0.5206 -0.1145 -0.0761
  179SAPS  H18X20541   4.154   2.272   4.506 -0.6721 -1.5544 -0.8516
  179SAPS  H18Y20542   3.982   2.294   4.489  0.0545 -2.3914  0.0612
  179SAPS  H18Z20543   4.083   2.428   4.428  1.1377 -0.1532 -0.0462
  180SAPS     N20544   2.588   1.672   1.776  0.0694 -0.1701  0.3189
  180SAPS   HN120545   2.547   1.727   1.854 -0.5079  1.4978 -1.1103
  180SAPS   HN220546   2.515   1.601   1.753  0.1573  0.0611 -0.7186
  180SAPS   HN320547   2.675   1.631   1.816 -0.0602  0.0810  0.8668
  180SAPS   C1220548   2.599   1.765   1.659 -0.9571 -0.2833  0.1287
  180SAPS  H12A20549   2.658   1.850   1.689  2.2624 -3.2182  3.0700
  180SAPS   C1320550   2.665   1.714   1.531  0.4438  0.8808  0.8685
  180SAPS  O13A20551   2.721   1.603   1.542 -0.0693 -0.1820 -0.1980
  180SAPS  O13B20552   2.679   1.785   1.426  0.2752 -0.5303  0.1660
  180SAPS   C1120553   2.461   1.825   1.629  0.3172 -0.8193  0.8852
  180SAPS  H11A20554   2.400   1.756   1.566  0.9721  0.0740 -0.7986
  180SAPS  H11B20555   2.479   1.914   1.565  2.4870  0.1198  2.6691
  180SAPS     P20556   2.255   1.934   1.745  0.1078 -0.2223  0.6669
  180SAPS   O1320557   2.276   2.058   1.667 -0.3838  0.0452 -0.0919
  180SAPS   O1420558   2.138   1.851   1.711 -0.4132 -0.0068 -0.8936
  180SAPS   O1220559   2.384   1.853   1.747  0.4553  0.0030 -0.3318
  180SAPS   O1120560   2.225   1.976   1.894  0.7813 -0.1226  0.5027
  180SAPS    C120561   2.273   1.897   1.998 -0.4903  0.2103 -0.0444
  180SAPS    HA20562   2.279   1.790   1.970 -0.4822 -0.5921  2.7163
  180SAPS    HB20563   2.376   1.930   2.025  0.2305 -1.5943 -0.4402
  180SAPS    C220564   2.185   1.902   2.129 -0.6181 -0.6241  0.5567
  180SAPS    HS20565   2.076   1.884   2.111 -0.5314  0.3507 -1.2138
  180SAPS   O2120566   2.207   2.036   2.179  0.1772 -0.0189  0.6137
  180SAPS   C2120567   2.140   2.070   2.287 -0.4126  0.4170 -0.0101
  180SAPS   O2220568   2.040   2.014   2.328  0.2125 -0.1985  0.0320
  180SAPS   C2220569   2.206   2.184   2.361 -0.5342  0.5002  0.0777
  180SAPS   H2R20570   2.199   2.274   2.295  0.6151  0.2717 -0.3732
  180SAPS   H2S20571   2.154   2.192   2.459 -3.3484 -1.7308 -1.0885
  180SAPS    C320572   2.233   1.789   2.229  0.2289  0.1664 -0.0488
  180SAPS    HX20573   2.215   1.697   2.170 -1.8469  0.6567 -0.2566
  180SAPS    HY20574   2.172   1.793   2.322  0.9927 -0.5578  0.4931
  180SAPS   O3120575   2.368   1.812   2.258 -0.6092 -0.4725  0.3702
  180SAPS   C3120576   2.410   1.747   2.364  0.1933 -0.2918  0.2434
  180SAPS   O3220577   2.345   1.662   2.424 -0.0821 -0.8061  0.3639
  180SAPS   C3220578   2.549   1.782   2.377  0.1780  0.3994 -0.0701
  180SAPS   H2X20579   2.590   1.880   2.345  2.1241  0.0381  1.1586
  180SAPS   H2Y20580   2.606   1.714   2.310 -1.4599 -1.3853  0.2502
  180SAPS   C2320581   2.363   2.164   2.381 -0.8515  0.0706  0.4166
  180SAPS   H3R20582   2.420   2.193   2.290  0.6240 -1.3942  0.8099
  180SAPS   H3S20583   2.400   2.060   2.395  1.5826  0.8869  0.4212
  180SAPS   C2420584   2.418   2.248   2.494  0.1133 -0.9504 -0.4302
  180SAPS   H4R20585   2.398   2.354   2.469 -0.8496 -1.4269 -1.7721
  180SAPS   H4S20586   2.529   2.250   2.490  0.1242 -0.6185 -0.0726
  180SAPS   C2520587   2.357   2.202   2.626  0.6767  0.4870 -0.1208
  180SAPS   H5R20588   2.375   2.094   2.639 -0.2094  0.4825  1.2319
  180SAPS   C2620589   2.311   2.269   2.735 -0.2601  0.2735  0.9942
  180SAPS   H6R20590   2.279   2.210   2.823  0.6749  0.1377  1.2526
  180SAPS   C2720591   2.304   2.417   2.757  0.4232  0.4945  0.3803
  180SAPS   H7R20592   2.216   2.463   2.806 -0.5546 -0.1659 -0.6965
  180SAPS   H7S20593   2.292   2.468   2.659 -0.0253 -1.4734 -0.6574
  180SAPS   C2820594   2.430   2.460   2.817 -0.4506 -0.4781 -0.5423
  180SAPS   H8R20595   2.520   2.432   2.761  0.2817 -3.0791  1.7030
  180SAPS   C2920596   2.452   2.499   2.941 -1.0703 -0.2409  0.6285
  180SAPS   H9R20597   2.558   2.519   2.964 -0.3346 -0.9868 -1.7444
  180SAPS  C21020598   2.363   2.517   3.057  0.4353  0.3238 -0.6496
  180SAPS  H10R20599   2.413   2.459   3.136  0.9245  2.6379  0.8319
  180SAPS  H10S20600   2.270   2.461   3.035  0.5784  0.3419 -1.3243
  180SAPS  C21120601   2.344   2.655   3.097  0.0799  0.0390 -0.4102
  180SAPS  H11R20602   2.358   2.725   3.013 -3.4088 -0.4424 -1.5616
  180SAPS  C21220603   2.296   2.694   3.217 -0.0791  0.2100  0.7318
  180SAPS  H12R20604   2.276   2.802   3.231 -1.1260  0.6768 -3.1760
  180SAPS  C21320605   2.251   2.607   3.337 -0.2700 -0.6076  0.0244
  180SAPS  H13R20606   2.267   2.499   3.315  0.2044 -0.6389  0.5138
  180SAPS  H13S20607   2.140   2.615   3.347 -0.8781 -1.2671 -4.2867
  180SAPS  C21420608   2.339   2.646   3.452 -0.7905 -0.7321  0.9418
  180SAPS  H14R20609   2.449   2.641   3.446 -0.7760 -0.6385  1.1300
  180SAPS  C21520610   2.282   2.688   3.568  0.4096  0.1142 -1.1377
  180SAPS  H15R20611   2.346   2.732   3.645  0.5848 -1.0903 -0.5687
  180SAPS  C21620612   2.139   2.704   3.612 -0.1524  0.5662 -0.1222
  180SAPS  H16R20613   2.084   2.609   3.594  0.0497  0.1128  1.4498
  180SAPS  H16S20614   2.093   2.792   3.563 -1.0240  0.2605  0.1338
  180SAPS  C21720615   2.137   2.735   3.759  0.4547  0.4603  0.0778
  180SAPS  H17R20616   2.035   2.762   3.793 -0.1920 -0.0050 -1.4117
  180SAPS  H17S20617   2.205   2.822   3.765 -0.1957  1.1496 -1.7388
  180SAPS  C21820618   2.163   2.625   3.871 -0.2050  0.0606  0.4911
  180SAPS  H18R20619   2.165   2.667   3.973  0.5762  0.7048  0.2204
  180SAPS  H18S20620   2.268   2.597   3.851 -0.3344 -0.3058  0.3131
  180SAPS  C21920621   2.063   2.508   3.881  0.0741  0.0825  0.2446
  180SAPS  H19R20622   2.093   2.446   3.968  3.0630  1.0544  0.0103
  180SAPS  H19S20623   2.063   2.450   3.787  0.4451  0.8977 -0.2654
  180SAPS  C22020624   1.914   2.549   3.909 -0.5610 -0.0303 -0.4639
  180SAPS  H20R20625   1.842   2.466   3.924  0.1451 -0.1602  3.2550
  180SAPS  H20S20626   1.909   2.608   4.004  2.5823  0.0599 -0.2483
  180SAPS  H20T20627   1.889   2.604   3.816  2.7201 -1.1547 -2.1762
  180SAPS   C3320628   2.591   1.746   2.525 -0.2418 -0.8622  0.4450
  180SAPS   H3X20629   2.702   1.750   2.535 -0.0504 -0.9294 -1.3249
  180SAPS   H3Y20630   2.559   1.640   2.539 -0.3188 -1.3219 -2.5408
  180SAPS   C3420631   2.541   1.854   2.621 -0.2615  0.0282 -0.2807
  180SAPS   H4X20632   2.430   1.864   2.623 -0.1246  1.6920  1.5323
  180SAPS   H4Y20633   2.580   1.952   2.586  2.3445  0.0098  2.1999
  180SAPS   C3520634   2.582   1.845   2.767 -0.2027  0.0389 -0.0806
  180SAPS   H5X20635   2.692   1.863   2.775 -0.1939 -0.3631  0.7742
  180SAPS   H5Y20636   2.553   1.751   2.818 -0.2671  0.7543  1.2585
  180SAPS   C3620637   2.534   1.972   2.848  0.7485 -0.1973  0.2753
  180SAPS   H6X20638   2.428   1.998   2.824  1.2433  1.8389  0.1149
  180SAPS   H6Y20639   2.595   2.053   2.804  0.5626  0.3231  0.9614
  180SAPS   C3720640   2.559   1.953   3.002 -0.5347 -0.3550 -0.6265
  180SAPS   H7X20641   2.658   1.905   3.012  0.3729  1.4894 -0.3478
  180SAPS   H7Y20642   2.497   1.870   3.043  1.7048 -1.3400  0.9831
  180SAPS   C3820643   2.538   2.082   3.086  0.9549 -0.1757  0.5584
  180SAPS   H8X20644   2.428   2.090   3.092  0.6577  2.4471 -3.7356
  180SAPS   H8Y20645   2.578   2.169   3.029  0.5796 -1.2842 -1.4736
  180SAPS   C3920646   2.603   2.074   3.219  0.3583  0.3706 -0.5317
  180SAPS   H9X20647   2.713   2.068   3.205  0.8362  3.6406  0.9276
  180SAPS   H9Y20648   2.572   1.980   3.269  1.7573 -0.3324 -0.9275
  180SAPS  C31020649   2.571   2.193   3.306  0.2331 -0.2879  0.2699
  180SAPS  H10X20650   2.462   2.211   3.297  0.6195  1.9042 -0.7963
  180SAPS  H10Y20651   2.631   2.281   3.274  0.4352 -0.3083  0.5887
  180SAPS  C31120652   2.609   2.172   3.457  0.1612 -0.2503 -0.4937
  180SAPS  H11X20653   2.716   2.142   3.455  0.1203 -0.3841 -1.1612
  180SAPS  H11Y20654   2.560   2.085   3.505  1.2442 -0.4975  0.1874
  180SAPS  C31220655   2.594   2.306   3.531 -0.3120  0.0497  0.2812
  180SAPS  H12X20656   2.506   2.357   3.486  1.4913  0.7067 -2.8525
  180SAPS  H12Y20657   2.684   2.367   3.507 -1.1513  0.5839 -1.8135
  180SAPS  C31320658   2.594   2.301   3.689 -0.0080  0.0000 -0.5949
  180SAPS  H13X20659   2.679   2.240   3.726  0.1220  0.6857  0.2779
  180SAPS  H13Y20660   2.499   2.261   3.731  0.0113  0.9005  0.3263
  180SAPS  C31420661   2.621   2.437   3.759  0.6604  0.1910 -0.1515
  180SAPS  H14X20662   2.532   2.501   3.745  0.0032 -0.7669 -0.3975
  180SAPS  H14Y20663   2.705   2.480   3.701 -0.1695  1.5868 -0.3557
  180SAPS  C31520664   2.663   2.435   3.910  0.1888  0.4052 -0.6252
  180SAPS  H15X20665   2.578   2.379   3.953 -1.1394  1.9099 -1.1806
  180SAPS  H15Y20666   2.649   2.540   3.945 -3.7798  0.0027 -0.5571
  180SAPS  C31620667   2.797   2.380   3.931 -0.7123 -0.0824 -0.6693
  180SAPS  H16X20668   2.874   2.432   3.869 -1.1136  1.2623 -0.0612
  180SAPS  H16Y20669   2.805   2.271   3.912  1.9141 -0.3926  1.6825
  180SAPS  C31720670   2.838   2.404   4.075 -0.3650  0.0749  0.3509
  180SAPS  H17X20671   2.765   2.357   4.143 -0.7654  1.1086  0.6553
  180SAPS  H17Y20672   2.829   2.512   4.098 -0.1761  0.0804  0.3999
  180SAPS  C31820673   2.983   2.370   4.106 -0.0318  0.1085  0.6654
  180SAPS  H18X20674   3.060   2.435   4.060 -0.5603 -0.2354 -0.7610
  180SAPS  H18Y20675   3.005   2.270   4.061 -3.2996 -0.0844 -0.8573
  180SAPS  H18Z20676   3.010   2.379   4.213  1.1933  0.3947  0.3379
  181POPC     N20677   2.666   2.778   6.819  0.4089 -0.1324  0.0883
  181POPC   C1220678   2.644   2.651   6.883 -0.6586  0.1993  0.2793
  181POPC  H12A20679   2.568   2.604   6.823 -0.7525  2.3847 -1.4571
  181POPC  H12B20680   2.609   2.659   6.985  0.4138 -1.1311  0.7922
  181POPC   C1320681   2.537   2.855   6.834 -0.0674 -0.4396  0.2792
  181POPC  H13A20682   2.521   2.929   6.757 -1.3846  0.1443  1.0616
  181POPC  H13B20683   2.447   2.796   6.827 -0.1719 -0.2510 -0.0064
  181POPC  H13C20684   2.542   2.921   6.920  0.3794 -0.2560  0.1145
  181POPC   C1420685   2.770   2.861   6.888 -0.2624  0.3352  0.0919
  181POPC  H14A20686   2.760   2.964   6.857 -0.1513  0.3416  0.0785
  181POPC  H14B20687   2.755   2.841   6.993 -0.1937  1.3467  0.3048
  181POPC  H14C20688   2.859   2.815   6.848 -0.8406 -0.3482 -0.4415
  181POPC   C1520689   2.701   2.771   6.664  0.7761 -0.3998 -0.7335
  181POPC  H15A20690   2.789   2.710   6.645  1.6519 -0.5358  3.0094
  181POPC  H15B20691   2.723   2.873   6.634  3.2985 -0.6107  0.1179
  181POPC  H15C20692   2.607   2.745   6.619 -1.0653  2.6884  0.9548
  181POPC   C1120693   2.763   2.549   6.884 -0.7013  0.2045 -0.0958
  181POPC  H11A20694   2.736   2.459   6.945 -0.5844  2.0881  2.9321
  181POPC  H11B20695   2.852   2.598   6.928 -0.5508 -0.1118 -0.0386
  181POPC     P20696   2.928   2.438   6.702  0.1369 -0.1991  0.0001
  181POPC   O1320697   2.924   2.307   6.768 -0.1011 -0.2832  0.1217
  181POPC   O1420698   3.043   2.524   6.726  0.3222  0.1546 -0.1142
  181POPC   O1220699   2.797   2.513   6.747  0.6902  0.3554  0.0000
  181POPC   O1120700   2.910   2.422   6.551 -0.3188 -0.0293  0.5054
  181POPC    C120701   2.786   2.452   6.481 -0.8984 -0.3921  0.6348
  181POPC    HA20702   2.750   2.551   6.515  0.5826  0.3897 -0.0065
  181POPC    HB20703   2.711   2.373   6.504 -0.3209 -0.6328  1.7675
  181POPC    C220704   2.815   2.467   6.331 -0.3934  0.4362  0.5020
  181POPC    HS20705   2.716   2.478   6.281 -0.2280  0.7474  0.2418
  181POPC   O2120706   2.890   2.354   6.282  0.3508  0.0444  0.1344
  181POPC   C2120707   2.821   2.240   6.291  0.2667 -0.3429 -0.1212
  181POPC   O2220708   2.704   2.225   6.322 -0.4430  0.3295  0.4156
  181POPC   C2220709   2.911   2.121   6.275 -0.5760 -0.0551  0.4796
  181POPC   H2R20710   2.948   2.085   6.374 -1.3580 -0.2763  0.6921
  181POPC   H2S20711   3.000   2.158   6.219  0.9942 -0.3634  2.6172
  181POPC    C320712   2.899   2.594   6.304  0.0358 -0.2510  0.3779
  181POPC    HX20713   2.990   2.592   6.368  0.6339  0.2545 -0.4238
  181POPC    HY20714   2.836   2.683   6.327  2.5437  1.7499  0.0235
  181POPC   O3120715   2.950   2.592   6.168 -0.0309  0.2098  0.4690
  181POPC   C3120716   2.939   2.707   6.104  0.3696  0.1436 -0.1924
  181POPC   O3220717   2.889   2.809   6.143 -0.4534 -0.6271 -0.0833
  181POPC   C3220718   2.999   2.698   5.971 -0.0168 -0.4727 -0.1398
  181POPC   H2X20719   2.936   2.636   5.903 -0.9382 -1.0155  1.1722
  181POPC   H2Y20720   3.083   2.625   5.978  0.3088 -0.0283  0.6444
  181POPC   C2320721   2.850   1.996   6.209 -0.5637 -0.7583  0.6574
  181POPC   H3R20722   2.742   1.977   6.227 -0.9289  1.0984  0.6801
  181POPC   H3S20723   2.900   1.906   6.249 -0.2225 -0.5040  0.8138
  181POPC   C2420724   2.867   1.988   6.055 -0.2236  0.4856 -0.7045
  181POPC   H4R20725   2.830   1.886   6.030  0.9634 -0.3751  0.8299
  181POPC   H4S20726   2.976   1.991   6.033 -0.3399  2.4792 -1.2182
  181POPC   C2520727   2.790   2.090   5.976 -0.1498  0.4221 -0.2232
  181POPC   H5R20728   2.808   2.188   6.024  2.1161  0.1820 -0.4359
  181POPC   H5S20729   2.681   2.069   5.982  0.3172 -2.3666  0.1256
  181POPC   C2620730   2.827   2.119   5.837 -0.3987 -0.5465 -0.5916
  181POPC   H6R20731   2.794   2.037   5.769 -1.2606  0.4248 -1.3770
  181POPC   H6S20732   2.937   2.131   5.825 -0.6389  1.1534 -1.2640
  181POPC   C2720733   2.768   2.246   5.771 -0.5926  0.1452 -0.6110
  181POPC   H7R20734   2.800   2.339   5.823 -0.9924 -0.6686  1.1793
  181POPC   H7S20735   2.658   2.233   5.763 -0.6921 -1.0375  1.7648
  181POPC   C2820736   2.838   2.257   5.635 -0.0963  0.0289 -0.6767
  181POPC   H8R20737   2.809   2.158   5.593  1.0412 -0.7438  0.2693
  181POPC   H8S20738   2.949   2.257   5.646  0.0223 -1.1197 -1.6232
  181POPC   C2920739   2.784   2.365   5.553  0.2208  0.4587 -0.6230
  181POPC   H9120740   2.740   2.445   5.615  1.5503  0.0053  0.9679
  181POPC  C21020741   2.781   2.374   5.416  0.4427 -0.2288 -0.1160
  181POPC  H10120742   2.730   2.464   5.379  0.2222  0.8715  2.6309
  181POPC  C21120743   2.811   2.266   5.311 -0.4248 -0.5606 -0.7905
  181POPC  H11R20744   2.737   2.183   5.313 -1.6845  0.5159  0.8213
  181POPC  H11S20745   2.917   2.233   5.319 -0.6606 -1.4429 -1.1883
  181POPC  C21220746   2.808   2.334   5.168 -0.4859  0.8690 -0.3824
  181POPC  H12R20747   2.870   2.426   5.165  1.7149 -0.4104  2.2029
  181POPC  H12S20748   2.703   2.368   5.158 -0.6068  0.3333 -1.0168
  181POPC  C21320749   2.860   2.234   5.063 -0.8838  0.3734 -0.1409
  181POPC  H13R20750   2.815   2.132   5.065  2.0714 -1.0642 -0.5968
  181POPC  H13S20751   2.969   2.230   5.084 -0.6313  2.4229 -0.8270
  181POPC  C21420752   2.872   2.297   4.923 -0.3585  0.1424  0.5055
  181POPC  H14R20753   2.928   2.392   4.929  0.4444 -0.4108  2.7873
  181POPC  H14S20754   2.771   2.323   4.882  0.8051 -0.8463 -3.3919
  181POPC  C21520755   2.936   2.199   4.824  0.3360  0.2662 -0.5511
  181POPC  H15R20756   2.874   2.108   4.834 -0.1934  0.7184  0.3785
  181POPC  H15S20757   3.039   2.182   4.862 -0.2738 -0.6090  0.7893
  181POPC  C21620758   2.944   2.255   4.685  0.0610  0.2687 -0.2470
  181POPC  H16R20759   2.851   2.291   4.637  0.7169 -0.1520 -1.9297
  181POPC  H16S20760   2.975   2.173   4.616 -3.5620 -1.8230  0.3572
  181POPC  C21720761   3.047   2.374   4.675 -0.6070  0.6026 -0.1923
  181POPC  H17R20762   3.139   2.345   4.730 -0.7801 -1.5799 -0.9310
  181POPC  H17S20763   2.992   2.462   4.714 -2.9066 -0.0305 -1.7740
  181POPC  C21820764   3.083   2.388   4.533  0.1208  0.7436  0.2291
  181POPC  H18R20765   3.150   2.305   4.500  0.0579  0.5084  0.6755
  181POPC  H18S20766   3.144   2.481   4.532  3.0247 -1.0394  0.1136
  181POPC  H18T20767   2.992   2.386   4.470 -0.7514  0.2122  1.4546
  181POPC   C3320768   3.030   2.841   5.910 -0.4308  0.1339  0.1493
  181POPC   H3X20769   3.113   2.886   5.968 -0.8937 -0.4249  1.2842
  181POPC   H3Y20770   2.947   2.914   5.913 -0.4850  0.0680  0.2517
  181POPC   C3420771   3.068   2.838   5.753 -0.1411  0.6426 -0.3048
  181POPC   H4X20772   3.138   2.753   5.735 -0.3070  0.1115  1.3480
  181POPC   H4Y20773   3.122   2.933   5.733  2.4860 -0.0142  2.8775
  181POPC   C3520774   2.935   2.842   5.671  0.1188  0.1890 -0.0128
  181POPC   H5X20775   2.857   2.909   5.714 -0.4353  1.3390 -2.6358
  181POPC   H5Y20776   2.893   2.740   5.684  0.0209  0.3679  1.1718
  181POPC   C3620777   2.950   2.890   5.525  0.3246 -0.6872 -0.0617
  181POPC   H6X20778   3.029   2.829   5.477  1.4749  2.0790 -2.0140
  181POPC   H6Y20779   2.975   2.998   5.534  0.7193 -0.9036  1.6037
  181POPC   C3720780   2.823   2.887   5.435 -0.3089 -0.4606  0.3105
  181POPC   H7X20781   2.859   2.895   5.330  0.7824 -0.1219  0.7071
  181POPC   H7Y20782   2.757   2.970   5.466 -0.1624 -0.0481 -0.4439
  181POPC   C3820783   2.755   2.757   5.437  0.5583 -0.3552 -0.1326
  181POPC   H8X20784   2.711   2.742   5.538  0.0481  0.7913 -0.1652
  181POPC   H8Y20785   2.817   2.667   5.417 -0.8486 -1.7434  1.4488
  181POPC   C3920786   2.634   2.742   5.334 -0.6637  0.4860  0.1162
  181POPC   H9X20787   2.552   2.808   5.369  0.3110  2.7978 -1.6710
  181POPC   H9Y20788   2.601   2.637   5.345  3.0612 -0.8373  0.1548
  181POPC  C31020789   2.668   2.778   5.185 -0.3539 -0.2963 -0.3981
  181POPC  H10X20790   2.767   2.739   5.154 -0.0570 -0.3224  0.5426
  181POPC  H10Y20791   2.666   2.888   5.170 -0.6971  0.0534  1.8963
  181POPC  C31120792   2.555   2.714   5.094 -0.0742 -0.5781 -0.0347
  181POPC  H11X20793   2.456   2.735   5.141 -0.2735 -0.8725 -0.3219
  181POPC  H11Y20794   2.558   2.603   5.093 -2.9400 -0.7288 -0.8801
  181POPC  C31220795   2.557   2.781   4.953 -0.6382 -0.2634 -0.2559
  181POPC  H12X20796   2.588   2.887   4.965 -1.5758 -0.0489  0.3460
  181POPC  H12Y20797   2.459   2.786   4.901 -0.4082 -1.3119 -0.8268
  181POPC  C31320798   2.659   2.706   4.868  0.1016 -0.2410  0.4083
  181POPC  H13X20799   2.618   2.606   4.842 -1.8254  0.4718  0.5286
  181POPC  H13Y20800   2.757   2.698   4.919  0.3950  2.4577  0.4022
  181POPC  C31420801   2.670   2.767   4.726  0.1353 -0.2730 -0.6202
  181POPC  H14X20802   2.698   2.875   4.723  3.4104 -1.0121 -0.4037
  181POPC  H14Y20803   2.570   2.756   4.678 -0.1215 -1.7983  0.2088
  181POPC  C31520804   2.782   2.701   4.647 -0.3822 -0.0074  0.0933
  181POPC  H15X20805   2.774   2.590   4.645  0.7722 -0.1186  0.6593
  181POPC  H15Y20806   2.879   2.718   4.698 -0.6062  2.4962 -0.1649
  181POPC  C31620807   2.798   2.757   4.504  0.5238 -0.0299  0.4475
  181POPC  H16X20808   2.816   2.867   4.502  3.8215 -0.4658  1.1815
  181POPC  H16Y20809   2.705   2.750   4.444 -0.3063 -1.0220  1.7928
  181POPC  H16Z20810   2.881   2.710   4.448 -0.2570 -0.2834 -0.5259
  182POPC     N20811   0.638   2.477   6.892 -0.0159 -0.4266 -0.4834
  182POPC   C1220812   0.527   2.554   6.835  0.6132 -0.6159  0.5317
  182POPC  H12A20813   0.581   2.635   6.788 -0.6031 -0.2014 -0.2058
  182POPC  H12B20814   0.465   2.601   6.910  0.1648 -0.1623 -0.1130
  182POPC   C1320815   0.697   2.391   6.793 -0.2421 -0.1958 -0.1145
  182POPC  H13A20816   0.765   2.323   6.842  0.4776  0.1528 -0.6125
  182POPC  H13B20817   0.616   2.337   6.745  0.7862 -3.1035  1.1588
  182POPC  H13C20818   0.749   2.450   6.720  2.2832 -0.2932  1.4700
  182POPC   C1420819   0.747   2.577   6.941  0.4262  0.1884 -0.3459
  182POPC  H14A20820   0.806   2.623   6.862 -0.9104  1.5774 -0.5795
  182POPC  H14B20821   0.699   2.662   6.986 -0.4990 -0.1489 -0.6653
  182POPC  H14C20822   0.814   2.517   7.002  1.4884 -0.3404 -1.9528
  182POPC   C1520823   0.574   2.388   6.997  0.0188 -0.5501  0.1683
  182POPC  H15A20824   0.488   2.330   6.968 -0.5674 -0.0966  0.9735
  182POPC  H15B20825   0.538   2.450   7.078 -2.1816 -0.5739 -0.7419
  182POPC  H15C20826   0.652   2.321   7.032  0.6468  0.2812  0.4074
  182POPC   C1120827   0.432   2.494   6.728 -0.0966  0.5814 -0.2090
  182POPC  H11A20828   0.485   2.469   6.633 -1.0080 -2.4103 -0.0435
  182POPC  H11B20829   0.352   2.568   6.705 -2.2209 -1.3262  0.6626
  182POPC     P20830   0.330   2.247   6.701  0.1055 -0.4006  0.5222
  182POPC   O1320831   0.229   2.166   6.775  0.2946  0.3540 -0.1875
  182POPC   O1420832   0.454   2.175   6.667 -0.3166  0.3181 -0.1081
  182POPC   O1220833   0.363   2.381   6.782  0.3249 -0.1850 -0.0266
  182POPC   O1120834   0.267   2.324   6.576 -0.0767  0.8477 -0.2902
  182POPC    C120835   0.188   2.235   6.488  0.0338  0.0163  0.0985
  182POPC    HA20836   0.100   2.292   6.452  0.9142  0.7615 -0.9540
  182POPC    HB20837   0.132   2.162   6.550  0.2666  0.5754  0.9840
  182POPC    C220838   0.269   2.183   6.362 -0.4155 -0.0971 -1.5116
  182POPC    HS20839   0.342   2.110   6.402 -1.9202 -0.6402  0.4320
  182POPC   O2120840   0.335   2.298   6.300 -0.3170 -0.4660  0.3627
  182POPC   C2120841   0.436   2.268   6.214 -0.1342  1.0084 -0.3400
  182POPC   O2220842   0.475   2.154   6.198  0.2702 -0.2012  0.2666
  182POPC   C2220843   0.494   2.400   6.159 -0.5882  0.9159 -0.0046
  182POPC   H2R20844   0.563   2.440   6.236  0.7503 -1.3454  0.0635
  182POPC   H2S20845   0.415   2.474   6.134  2.2707  3.4276 -2.2540
  182POPC    C320846   0.164   2.118   6.264  0.2476  0.2516  0.0156
  182POPC    HX20847   0.079   2.190   6.258 -0.3859 -0.5876 -1.7609
  182POPC    HY20848   0.128   2.024   6.311  1.8998 -0.2767  0.2792
  182POPC   O3120849   0.209   2.099   6.130 -0.1922  0.0716  0.3946
  182POPC   C3120850   0.244   1.974   6.089  0.6654  0.1854  0.4988
  182POPC   O3220851   0.247   1.871   6.157 -0.3394 -0.6391  0.4306
  182POPC   C3220852   0.284   1.990   5.939 -0.0177  0.1619  0.0406
  182POPC   H2X20853   0.296   2.099   5.916  0.3083 -0.1456 -1.3240
  182POPC   H2Y20854   0.197   1.962   5.877  0.8098 -0.4481 -0.8723
  182POPC   C2320855   0.561   2.383   6.025 -1.4698 -0.3922  0.1529
  182POPC   H3R20856   0.496   2.320   5.962 -0.3576 -2.8359  1.3256
  182POPC   H3S20857   0.659   2.333   6.042 -1.8268 -0.8226  1.0085
  182POPC   C2420858   0.588   2.524   5.967 -0.5163  0.8466 -0.0053
  182POPC   H4R20859   0.646   2.577   6.045  0.6661 -0.4675  0.0427
  182POPC   H4S20860   0.497   2.588   5.957  0.0715  1.4880 -1.6763
  182POPC   C2520861   0.671   2.516   5.831 -0.0868  0.4338  0.8169
  182POPC   H5R20862   0.763   2.461   5.860  0.4058  0.5762 -0.4074
  182POPC   H5S20863   0.704   2.619   5.807  0.7063  0.5808  2.4115
  182POPC   C2620864   0.606   2.446   5.713 -0.0831 -0.9659 -0.2239
  182POPC   H6R20865   0.536   2.520   5.668  0.3101 -1.1069 -1.0753
  182POPC   H6S20866   0.554   2.353   5.744 -1.6458 -0.6290 -1.6842
  182POPC   C2720867   0.714   2.405   5.606  0.9417  0.7397 -0.0270
  182POPC   H7R20868   0.775   2.327   5.656 -0.3649  0.7230  1.6091
  182POPC   H7S20869   0.782   2.493   5.607  0.9289  0.7430  1.0693
  182POPC   C2820870   0.638   2.368   5.472 -0.2946  0.1600 -0.4399
  182POPC   H8R20871   0.576   2.454   5.441 -0.4775  0.1334 -0.1489
  182POPC   H8S20872   0.568   2.287   5.502  0.6625 -0.5021  0.0714
  182POPC   C2920873   0.733   2.315   5.370 -0.6633 -1.7906  0.9920
  182POPC   H9120874   0.777   2.219   5.401 -0.9839 -2.4981 -0.6506
  182POPC  C21020875   0.777   2.385   5.259  0.4157  0.7612  0.0550
  182POPC  H10120876   0.855   2.337   5.198 -0.8211 -0.3272 -0.7425
  182POPC  C21120877   0.729   2.520   5.210  0.0759 -0.2830 -0.5558
  182POPC  H11R20878   0.692   2.572   5.301 -2.5824 -2.5468 -0.1989
  182POPC  H11S20879   0.650   2.504   5.134  0.3146  1.5771 -1.2582
  182POPC  C21220880   0.834   2.614   5.146  0.3849 -0.4708  0.1831
  182POPC  H12R20881   0.905   2.649   5.223  0.7121  3.0809 -1.5212
  182POPC  H12S20882   0.772   2.701   5.115  0.9761  0.9460  2.7439
  182POPC  C21320883   0.907   2.548   5.036  0.2743 -0.5546 -0.6907
  182POPC  H13R20884   0.834   2.489   4.977  0.5675 -2.7447  1.0382
  182POPC  H13S20885   0.981   2.477   5.078 -1.2977 -1.5521  0.4887
  182POPC  C21420886   0.977   2.636   4.935  0.2405  0.1715 -0.1574
  182POPC  H14R20887   1.071   2.680   4.977 -0.2089 -0.0375  1.1059
  182POPC  H14S20888   0.905   2.716   4.909 -0.5825 -1.6273 -4.1103
  182POPC  C21520889   1.003   2.596   4.792  0.3790  0.1440 -0.3912
  182POPC  H15R20890   0.916   2.544   4.746  0.7177 -2.1794  1.4047
  182POPC  H15S20891   1.079   2.516   4.799  0.3064  0.2230  2.7303
  182POPC  C21620892   1.044   2.716   4.703  0.0549 -0.0373  0.0157
  182POPC  H16R20893   1.141   2.760   4.736 -0.5028  2.1358 -1.0962
  182POPC  H16S20894   0.979   2.804   4.717  1.1402  0.5093  1.9706
  182POPC  C21720895   1.051   2.683   4.556 -0.0843 -0.4969 -0.5727
  182POPC  H17R20896   0.960   2.629   4.524 -0.2934 -0.2076 -0.4645
  182POPC  H17S20897   1.138   2.615   4.539 -0.1248 -1.2176  1.6618
  182POPC  C21820898   1.068   2.807   4.460  0.3193  0.2306 -0.1549
  182POPC  H18R20899   1.146   2.878   4.496 -0.2252  0.9758 -0.4242
  182POPC  H18S20900   0.970   2.847   4.427 -0.6640 -0.9968  1.1486
  182POPC  H18T20901   1.107   2.766   4.365 -0.1010  0.6560 -0.5163
  182POPC   C3320902   0.411   1.904   5.902  1.5042 -0.2923  0.1536
  182POPC   H3X20903   0.388   1.798   5.928 -1.7756  0.3523  0.2956
  182POPC   H3Y20904   0.502   1.935   5.958  1.4078  0.7100 -0.2253
  182POPC   C3420905   0.429   1.899   5.749  0.0477 -0.3555 -0.1380
  182POPC   H4X20906   0.339   1.853   5.704  0.4654 -0.9093 -0.4231
  182POPC   H4Y20907   0.509   1.825   5.726  0.1956 -0.3015  0.1889
  182POPC   C3520908   0.445   2.032   5.667 -0.2928  0.2201  0.1284
  182POPC   H5X20909   0.530   2.092   5.708  1.2409 -0.6593 -1.5963
  182POPC   H5Y20910   0.354   2.093   5.683  0.0574  0.4820  1.1891
  182POPC   C3620911   0.477   1.996   5.520 -0.1245  0.9747 -0.1021
  182POPC   H6X20912   0.561   1.924   5.517 -0.0481  1.0864 -2.3121
  182POPC   H6Y20913   0.512   2.092   5.477  0.0028  0.1695 -1.8763
  182POPC   C3720914   0.366   1.957   5.420  0.0996  0.1792  0.5750
  182POPC   H7X20915   0.307   2.050   5.410 -3.3974 -2.0469 -2.3911
  182POPC   H7Y20916   0.310   1.869   5.459 -0.2604 -0.0832 -0.4893
  182POPC   C3820917   0.426   1.903   5.290 -0.4522 -0.0605 -0.5592
  182POPC   H8X20918   0.334   1.857   5.249  0.3929 -2.5824  0.1769
  182POPC   H8Y20919   0.491   1.817   5.316 -1.5964 -0.3647  1.5822
  182POPC   C3920920   0.491   2.013   5.206  0.0885 -0.2791  0.8540
  182POPC   H9X20921   0.592   2.053   5.229 -0.1226  0.6287  0.2483
  182POPC   H9Y20922   0.418   2.096   5.211 -1.2508 -1.3380 -0.4705
  182POPC  C31020923   0.498   1.971   5.059  0.5244  0.0055  0.4277
  182POPC  H10X20924   0.398   1.946   5.016  0.9229  1.1337 -1.3002
  182POPC  H10Y20925   0.555   1.876   5.062 -1.7851 -1.4813  0.3801
  182POPC  C31120926   0.564   2.070   4.968 -1.0494 -0.3425  0.1639
  182POPC  H11X20927   0.548   2.023   4.869  0.9696  0.4993 -0.6120
  182POPC  H11Y20928   0.673   2.078   4.988 -0.8634 -2.9603  0.5481
  182POPC  C31220929   0.497   2.208   4.961  0.9344 -0.1183  0.2510
  182POPC  H12X20930   0.563   2.281   4.909 -0.7786 -0.1374 -2.1532
  182POPC  H12Y20931   0.494   2.251   5.063  2.5220  1.3466 -0.2488
  182POPC  C31320932   0.352   2.222   4.911  0.5728  0.6820  0.3633
  182POPC  H13X20933   0.342   2.333   4.901 -2.4084  0.4639 -0.0173
  182POPC  H13Y20934   0.273   2.183   4.978  1.1564 -1.3885 -0.0995
  182POPC  C31420935   0.321   2.157   4.773  0.6086 -0.0422  0.0979
  182POPC  H14X20936   0.341   2.048   4.768  4.1688  0.5635 -2.3387
  182POPC  H14Y20937   0.379   2.195   4.687 -0.8613 -3.8728 -2.8545
  182POPC  C31520938   0.175   2.173   4.733 -0.2011 -0.2714 -0.3191
  182POPC  H15X20939   0.130   2.273   4.719  1.9622  0.5605 -1.8483
  182POPC  H15Y20940   0.115   2.128   4.815 -0.7824  0.1477 -0.5100
  182POPC  C31620941   0.150   2.090   4.606 -0.0574 -0.1390  0.3603
  182POPC  H16X20942   0.152   1.983   4.635  1.9004  0.0652  1.1332
  182POPC  H16Y20943   0.228   2.114   4.531 -0.4888 -1.1568 -0.4477
  182POPC  H16Z20944   0.045   2.110   4.576  0.3592  0.3340 -0.8381
  183POPC     N20945   2.444   5.973   6.991  0.5156  0.6572 -0.2879
  183POPC   C1220946   2.396   5.957   6.846  0.2421  0.7143  0.3357
  183POPC  H12A20947   2.289   5.957   6.856  0.3643 -1.5218  2.8606
  183POPC  H12B20948   2.421   5.858   6.809  0.3550 -0.2691  2.8378
  183POPC   C1320949   2.400   6.099   7.062  0.4797 -0.1842  0.4819
  183POPC  H13A20950   2.442   6.110   7.161 -1.4011  1.4320  1.1578
  183POPC  H13B20951   2.433   6.177   6.996  0.0808  0.6240  1.2210
  183POPC  H13C20952   2.293   6.109   7.066  0.1413 -2.4698 -0.9617
  183POPC   C1420953   2.396   5.855   7.064  1.1013 -0.3058 -0.0228
  183POPC  H14A20954   2.291   5.860   7.090  1.8340  2.1425  2.9655
  183POPC  H14B20955   2.396   5.762   7.007 -2.4710 -1.4074  1.4887
  183POPC  H14C20956   2.443   5.842   7.159  0.7792 -1.1967  0.0287
  183POPC   C1520957   2.594   5.970   6.998  0.9004 -0.4282  0.5430
  183POPC  H15A20958   2.629   5.874   6.963  1.1217  0.1354 -0.8715
  183POPC  H15B20959   2.631   5.969   7.099  0.6043 -1.6240  0.6509
  183POPC  H15C20960   2.629   6.054   6.938 -1.5338 -0.6294 -1.3161
  183POPC   C1120961   2.444   6.062   6.737 -0.8279  0.2001 -0.0700
  183POPC  H11A20962   2.388   6.042   6.643  1.3588  2.4853 -2.0011
  183POPC  H11B20963   2.547   6.030   6.710 -1.5485 -0.4380 -2.2994
  183POPC     P20964   2.546   6.302   6.764 -0.0673 -0.1171  0.0347
  183POPC   O1320965   2.672   6.248   6.815 -0.4578 -0.0323 -0.4073
  183POPC   O1420966   2.501   6.425   6.826  0.1183 -0.3900  0.2661
  183POPC   O1220967   2.427   6.200   6.779  0.2441 -0.0757 -0.5440
  183POPC   O1120968   2.551   6.318   6.603  0.5648  0.0437  0.3632
  183POPC    C120969   2.452   6.392   6.537  0.1409 -0.5435  0.0904
  183POPC    HA20970   2.447   6.495   6.578 -2.5513 -0.9203  0.8916
  183POPC    HB20971   2.348   6.352   6.539 -0.7037  1.5208  1.6449
  183POPC    C220972   2.468   6.407   6.385  0.0159  0.1380 -0.2906
  183POPC    HS20973   2.385   6.475   6.355 -0.9236 -0.0790  1.6731
  183POPC   O2120974   2.464   6.276   6.328  0.5058 -0.9163  0.4502
  183POPC   C2120975   2.343   6.233   6.296  0.6875  0.8056  0.2463
  183POPC   O2220976   2.236   6.287   6.320 -0.1049  0.2240 -0.1245
  183POPC   C2220977   2.358   6.107   6.209  0.3468  1.1862 -0.1569
  183POPC   H2R20978   2.307   6.021   6.258  1.4856  0.5600 -0.0325
  183POPC   H2S20979   2.465   6.086   6.188  0.6767  1.9222  0.7229
  183POPC    C320980   2.591   6.483   6.343 -0.2526 -0.5674  0.6444
  183POPC    HX20981   2.683   6.426   6.368  0.4216  0.1733 -0.0513
  183POPC    HY20982   2.597   6.571   6.411  2.0064 -1.4935  1.7307
  183POPC   O3120983   2.594   6.510   6.203 -0.1650  0.4499 -0.0214
  183POPC   C3120984   2.540   6.625   6.167 -0.3900 -0.5027 -0.3955
  183POPC   O3220985   2.517   6.722   6.241 -0.4245  0.0323 -0.5640
  183POPC   C3220986   2.543   6.633   6.010  0.4969  0.3667 -0.5391
  183POPC   H2X20987   2.632   6.696   5.990  1.0581 -0.5124 -0.8435
  183POPC   H2Y20988   2.456   6.690   5.971  0.3494  0.1983 -0.4606
  183POPC   C2320989   2.283   6.117   6.072 -0.2013  0.4024 -0.2150
  183POPC   H3R20990   2.196   6.186   6.083  0.3703  1.7526 -3.1515
  183POPC   H3S20991   2.252   6.015   6.040  0.9538 -0.3878  1.0921
  183POPC   C2420992   2.363   6.190   5.968  0.2469 -0.2148  0.9681
  183POPC   H4R20993   2.456   6.133   5.947 -0.4697 -0.3078 -2.5593
  183POPC   H4S20994   2.405   6.291   5.988  1.4348 -0.0439 -1.9329
  183POPC   C2520995   2.283   6.198   5.824 -0.3201  0.1264 -0.5332
  183POPC   H5R20996   2.184   6.244   5.842 -1.6183 -3.0327  1.3649
  183POPC   H5S20997   2.264   6.095   5.787  2.4881  0.3783 -3.0057
  183POPC   C2620998   2.353   6.263   5.704 -0.1856  0.4898 -0.5754
  183POPC   H6R20999   2.455   6.226   5.683 -0.1716  0.9813 -1.4316
  183POPC   H6S21000   2.363   6.370   5.734 -0.5197  0.9639 -2.0315
  183POPC   C2721001   2.263   6.252   5.578 -0.3297 -0.1453  0.0083
  183POPC   H7R21002   2.168   6.301   5.608  1.1028  1.3233  2.4683
  183POPC   H7S21003   2.253   6.144   5.554 -1.4028 -0.5127  1.9023
  183POPC   C2821004   2.329   6.327   5.461  0.7533 -0.2407 -0.0108
  183POPC   H8R21005   2.428   6.282   5.440  0.4177 -1.1967  0.3514
  183POPC   H8S21006   2.345   6.431   5.496 -0.4565 -0.4404  1.2283
  183POPC   C2921007   2.247   6.325   5.330  1.0382  0.8668  0.2827
  183POPC   H9121008   2.158   6.388   5.345 -1.7803 -2.3580 -1.6622
  183POPC  C21021009   2.263   6.261   5.209 -0.3710 -0.8276 -0.7730
  183POPC  H10121010   2.192   6.271   5.125 -0.6436  1.0422 -0.3699
  183POPC  C21121011   2.383   6.178   5.168  0.3599  0.1045 -0.8834
  183POPC  H11R21012   2.369   6.072   5.200  2.8976  0.4363  1.8211
  183POPC  H11S21013   2.475   6.215   5.218 -0.6352  0.6583  0.6131
  183POPC  C21221014   2.403   6.162   5.017  0.1953 -0.6544  0.5743
  183POPC  H12R21015   2.441   6.257   4.973  1.2419 -1.8024 -1.1459
  183POPC  H12S21016   2.309   6.138   4.964  0.7772  0.1047 -0.8868
  183POPC  C21321017   2.506   6.056   4.989 -0.5810 -0.1818  0.3521
  183POPC  H13R21018   2.480   5.964   5.045 -3.1232  0.1431 -0.1937
  183POPC  H13S21019   2.605   6.092   5.026 -1.7654  2.5442  1.0960
  183POPC  C21421020   2.532   6.027   4.841  0.0966 -0.2790 -0.4689
  183POPC  H14R21021   2.564   6.123   4.794 -0.3341  0.3976  0.5873
  183POPC  H14S21022   2.435   5.993   4.800 -0.3957 -1.2952  1.4334
  183POPC  C21521023   2.622   5.905   4.811 -0.0553  0.5640  0.3034
  183POPC  H15R21024   2.584   5.830   4.883 -2.6372 -0.7025 -2.1508
  183POPC  H15S21025   2.728   5.929   4.831  0.2305  1.7508 -2.2124
  183POPC  C21621026   2.612   5.850   4.660 -0.0779 -0.7959  0.0962
  183POPC  H16R21027   2.506   5.826   4.636 -0.4889 -0.3746  1.3896
  183POPC  H16S21028   2.670   5.755   4.663  0.3608 -0.5719 -1.0513
  183POPC  C21721029   2.664   5.947   4.558 -0.3196  0.2585  0.6765
  183POPC  H17R21030   2.606   6.041   4.556 -1.2708 -0.3215 -0.4631
  183POPC  H17S21031   2.642   5.914   4.454  0.3513 -0.3300  0.7129
  183POPC  C21821032   2.815   5.972   4.569 -0.7489  0.5460 -0.2311
  183POPC  H18R21033   2.858   6.024   4.480 -1.8547 -0.8559 -1.6479
  183POPC  H18S21034   2.869   5.876   4.582 -2.3068 -0.2501  0.6368
  183POPC  H18T21035   2.834   6.032   4.660 -1.9151  0.0083  0.3831
  183POPC   C3321036   2.566   6.503   5.926 -0.3520 -0.1642  0.2960
  183POPC   H3X21037   2.471   6.445   5.923 -0.0614 -0.6885 -3.3888
  183POPC   H3Y21038   2.645   6.438   5.970 -0.5265 -0.8426 -0.3673
  183POPC   C3421039   2.615   6.539   5.781  0.2645  0.0017 -0.5921
  183POPC   H4X21040   2.631   6.446   5.723  0.3683 -0.0141 -0.5386
  183POPC   H4Y21041   2.714   6.587   5.795 -0.3584  0.6103  2.8240
  183POPC   C3521042   2.519   6.638   5.713 -0.5101 -0.3450  0.2130
  183POPC   H5X21043   2.535   6.744   5.742 -3.8760  0.1447  0.6786
  183POPC   H5Y21044   2.414   6.611   5.735 -0.0643 -0.5936  2.1597
  183POPC   C3621045   2.536   6.639   5.555  0.4822 -0.2824 -0.2356
  183POPC   H6X21046   2.433   6.657   5.518  0.7508  0.6509 -0.5771
  183POPC   H6Y21047   2.567   6.534   5.536  0.4094 -0.6040  1.3024
  183POPC   C3721048   2.625   6.750   5.503  0.6920 -0.4140 -0.4212
  183POPC   H7X21049   2.728   6.753   5.543  0.2828 -0.4445  0.6532
  183POPC   H7Y21050   2.581   6.842   5.546  0.9122 -0.4693 -0.0739
  183POPC   C3821051   2.629   6.768   5.356 -0.5711  0.2189 -0.4401
  183POPC   H8X21052   2.526   6.776   5.315 -0.1102 -1.8063 -2.2235
  183POPC   H8Y21053   2.666   6.673   5.311 -0.1843 -0.4589  1.2137
  183POPC   C3921054   2.712   6.884   5.323  1.0059 -0.5879 -0.0738
  183POPC   H9X21055   2.807   6.877   5.379  1.9440  2.9748 -0.9768
  183POPC   H9Y21056   2.666   6.975   5.368 -0.1324 -1.6337  0.9432
  183POPC  C31021057   2.751   6.908   5.175 -0.5432  0.6086  0.0231
  183POPC  H10X21058   2.783   6.811   5.131 -1.3752 -0.5558  1.8702
  183POPC  H10Y21059   2.842   6.971   5.183 -1.0142  1.1900  0.9677
  183POPC  C31121060   2.650   6.973   5.089 -0.9032 -0.0130 -0.0388
  183POPC  H11X21061   2.619   7.068   5.137  0.1976  1.0165 -1.2687
  183POPC  H11Y21062   2.563   6.904   5.088  1.2188 -2.8930  0.9585
  183POPC  C31221063   2.699   6.998   4.948 -0.2943  0.5864  0.6711
  183POPC  H12X21064   2.610   6.999   4.881  0.2322  0.2151 -0.0582
  183POPC  H12Y21065   2.760   6.914   4.908 -0.1021  0.3380  1.4598
  183POPC  C31321066   2.781   7.126   4.917 -0.1536 -0.3180  0.3969
  183POPC  H13X21067   2.890   7.107   4.916  0.0971  1.0604 -1.0285
  183POPC  H13Y21068   2.757   7.205   4.992  2.1750  1.1172 -0.2655
  183POPC  C31421069   2.750   7.185   4.775  0.0711 -0.1061  0.6979
  183POPC  H14X21070   2.640   7.194   4.761  0.1848  1.2276  0.4410
  183POPC  H14Y21071   2.758   7.114   4.691 -0.8274  1.4880 -0.8071
  183POPC  C31521072   2.824   7.313   4.733 -0.2803  0.4551 -0.2966
  183POPC  H15X21073   2.791   7.345   4.632 -2.0965  0.9101  0.4187
  183POPC  H15Y21074   2.934   7.295   4.737  0.5455  4.1698 -2.4576
  183POPC  C31621075   2.790   7.436   4.818 -0.4468  0.8814  0.0638
  183POPC  H16X21076   2.818   7.425   4.925 -3.2108  0.7111  0.8515
  183POPC  H16Y21077   2.681   7.460   4.825 -0.4762  1.0120 -0.7581
  183POPC  H16Z21078   2.832   7.532   4.780  0.8702  0.2917 -0.0244
  184POPC     N21079   2.985   0.931   7.224 -0.2583  0.2992 -0.0314
  184POPC   C1221080   2.944   0.974   7.084  0.4197 -0.4460 -0.2464
  184POPC  H12A21081   3.008   1.051   7.045  2.0382 -3.0492 -3.2055
  184POPC  H12B21082   2.851   1.029   7.093  0.9390  0.3411  0.3621
  184POPC   C1321083   2.937   1.037   7.325 -0.1009  0.4585 -0.2867
  184POPC  H13A21084   2.998   1.126   7.327  0.0057  0.3789  0.0478
  184POPC  H13B21085   2.832   1.051   7.303 -0.2049  0.1724  0.0227
  184POPC  H13C21086   2.944   0.990   7.422 -0.2482 -0.1808 -0.5784
  184POPC   C1421087   2.906   0.810   7.253  0.0553  1.1270  0.3732
  184POPC  H14A21088   2.799   0.812   7.233 -0.2897 -1.7233  1.4324
  184POPC  H14B21089   2.938   0.743   7.174 -0.5488  2.3302 -0.9405
  184POPC  H14C21090   2.929   0.767   7.349 -0.6379 -0.7068 -0.2317
  184POPC   C1521091   3.132   0.902   7.229 -0.2114  0.4289 -0.4626
  184POPC  H15A21092   3.150   0.827   7.154 -4.4140 -1.3226  0.0002
  184POPC  H15B21093   3.166   0.867   7.326 -0.7401  0.9205 -0.0930
  184POPC  H15C21094   3.192   0.991   7.211 -1.7466  1.5604 -0.1822
  184POPC   C1121095   2.929   0.870   6.974  0.2887  0.1950 -0.5502
  184POPC  H11A21096   2.927   0.930   6.881 -2.6616 -0.6619 -1.1506
  184POPC  H11B21097   2.834   0.813   6.980 -0.1938  1.0619  0.2464
  184POPC     P21098   3.156   0.772   6.884  0.1041 -0.2813  0.4178
  184POPC   O1321099   3.224   0.644   6.899  0.1877 -0.5803 -0.4154
  184POPC   O1421100   3.227   0.895   6.905  0.3074 -0.1743 -0.0525
  184POPC   O1221101   3.030   0.769   6.979  0.4152 -0.7959 -0.2864
  184POPC   O1121102   3.091   0.770   6.740  0.2202  0.0866 -0.1310
  184POPC    C121103   2.972   0.692   6.713 -0.2405 -0.1773  0.9287
  184POPC    HA21104   2.901   0.759   6.660  2.1634  0.6834 -1.4774
  184POPC    HB21105   2.909   0.663   6.799  0.0170 -0.4933  1.0127
  184POPC    C221106   3.003   0.568   6.618  0.2731  0.7781 -0.0416
  184POPC    HS21107   3.066   0.500   6.679 -2.9643 -0.9201  1.6806
  184POPC   O2121108   3.073   0.611   6.501  0.6732 -0.1687  1.1311
  184POPC   C2121109   3.157   0.521   6.449  1.0093  0.0651  0.6698
  184POPC   O2221110   3.170   0.406   6.489 -0.2766 -0.5004 -0.0208
  184POPC   C2221111   3.235   0.582   6.338  0.4535  0.2427 -0.8682
  184POPC   H2R21112   3.329   0.610   6.390 -0.8621  3.0082  0.2048
  184POPC   H2S21113   3.192   0.676   6.297 -0.7596  0.6582  1.1897
  184POPC    C321114   2.877   0.481   6.578 -0.2929  0.2747  1.3348
  184POPC    HX21115   2.831   0.442   6.672  0.1667 -1.7846  0.7578
  184POPC    HY21116   2.914   0.396   6.516  1.7900  1.6672  0.5773
  184POPC   O3121117   2.775   0.562   6.507  0.2631  0.2037  0.2178
  184POPC   C3121118   2.700   0.491   6.420 -0.0297 -0.2084  0.2142
  184POPC   O3221119   2.701   0.366   6.405 -0.3249 -0.0995 -0.4776
  184POPC   C3221120   2.619   0.588   6.336 -0.3388 -0.4815 -0.3563
  184POPC   H2X21121   2.561   0.647   6.410  0.9492  0.7106 -0.2460
  184POPC   H2Y21122   2.554   0.539   6.261  1.7746 -0.3432 -2.3841
  184POPC   C2321123   3.271   0.479   6.231  0.1251  0.5073  0.6994
  184POPC   H3R21124   3.310   0.387   6.281  0.3615  0.4693  0.4442
  184POPC   H3S21125   3.351   0.523   6.168  0.3945 -0.3790  0.4039
  184POPC   C2421126   3.154   0.457   6.136  0.1754  0.4592 -0.1074
  184POPC   H4R21127   3.114   0.558   6.110  1.8513  1.3029  0.4718
  184POPC   H4S21128   3.072   0.398   6.183 -0.1956  1.3724  0.4286
  184POPC   C2521129   3.180   0.378   6.013 -0.1142  0.0400  0.0963
  184POPC   H5R21130   3.093   0.323   5.971  0.3744  1.9531 -3.8218
  184POPC   H5S21131   3.263   0.309   6.040  1.5161  1.5648 -0.8466
  184POPC   C2621132   3.221   0.474   5.898  0.4784 -0.0020 -0.0343
  184POPC   H6R21133   3.311   0.530   5.932  0.4196  0.5026 -0.6825
  184POPC   H6S21134   3.139   0.548   5.882  0.5751 -0.2693 -2.0526
  184POPC   C2721135   3.244   0.407   5.764 -0.7119  0.1714  0.2530
  184POPC   H7R21136   3.188   0.459   5.683  0.2619 -1.2585 -1.4045
  184POPC   H7S21137   3.211   0.302   5.745 -0.1194  0.2783 -1.5739
  184POPC   C2821138   3.394   0.412   5.726 -0.0860 -0.6058 -0.1007
  184POPC   H8R21139   3.453   0.349   5.797 -1.1933  0.0720  1.4705
  184POPC   H8S21140   3.434   0.514   5.744 -0.4324 -0.5699  0.4764
  184POPC   C2921141   3.415   0.373   5.582  0.1885  0.1397 -0.1911
  184POPC   H9121142   3.342   0.416   5.511 -0.5607 -0.0519  0.4467
  184POPC  C21021143   3.499   0.290   5.523  0.0100 -0.4598  0.5169
  184POPC  H10121144   3.468   0.263   5.421 -2.1309  0.5876  0.8258
  184POPC  C21121145   3.606   0.215   5.597 -0.4508  0.2198 -0.3358
  184POPC  H11R21146   3.620   0.261   5.697 -0.4888 -0.7075  0.0984
  184POPC  H11S21147   3.706   0.229   5.550 -0.1886 -0.0982  0.1306
  184POPC  C21221148   3.574   0.063   5.603  0.6059 -0.0927  0.4002
  184POPC  H12R21149   3.469   0.044   5.634  0.3334 -0.7472 -0.8638
  184POPC  H12S21150   3.633   0.013   5.683  0.1261 -1.1581  0.1000
  184POPC  C21321151   3.594  -0.006   5.470 -0.6229 -0.1013  0.4108
  184POPC  H13R21152   3.524   0.047   5.403 -2.9355 -1.9251  1.2491
  184POPC  H13S21153   3.547  -0.106   5.457 -0.1098  0.0765 -4.2312
  184POPC  C21421154   3.740  -0.001   5.414  0.4294  0.2907 -0.4505
  184POPC  H14R21155   3.821  -0.022   5.488  0.1132 -1.1832 -0.4834
  184POPC  H14S21156   3.745   0.105   5.381 -2.0374  1.4668  2.4347
  184POPC  C21521157   3.741  -0.095   5.295  0.4669  0.2366 -0.5059
  184POPC  H15R21158   3.652  -0.093   5.230  1.6555 -0.1111 -2.2072
  184POPC  H15S21159   3.749  -0.200   5.329 -0.8555 -0.1414 -1.2927
  184POPC  C21621160   3.854  -0.072   5.190  0.9440  0.9916 -0.4527
  184POPC  H16R21161   3.950  -0.073   5.246  1.2423  1.1759 -0.9538
  184POPC  H16S21162   3.834   0.027   5.144 -0.6417  0.5133 -0.8655
  184POPC  C21721163   3.857  -0.180   5.080  0.1012  0.0596  0.0509
  184POPC  H17R21164   3.761  -0.177   5.024 -0.4476  1.1224  1.0041
  184POPC  H17S21165   3.866  -0.286   5.111  2.2972  0.3253  0.4701
  184POPC  C21821166   3.969  -0.160   4.978  0.1043 -0.0285 -0.5658
  184POPC  H18R21167   3.968  -0.233   4.894  1.3732  0.7542 -1.2990
  184POPC  H18S21168   4.070  -0.147   5.023 -0.4616  1.3420  0.3871
  184POPC  H18T21169   3.954  -0.062   4.928  0.5993  0.7468  0.7579
  184POPC   C3321170   2.715   0.675   6.243 -0.8551 -0.7707  0.3769
  184POPC   H3X21171   2.804   0.706   6.302 -0.1212 -1.3283 -0.4084
  184POPC   H3Y21172   2.668   0.762   6.193  0.6899 -1.0533 -1.6777
  184POPC   C3421173   2.772   0.578   6.131  0.7580 -1.2283 -0.2662
  184POPC   H4X21174   2.686   0.533   6.076 -0.0077 -0.0787 -0.0514
  184POPC   H4Y21175   2.838   0.502   6.177  0.7977 -0.8134  0.3821
  184POPC   C3521176   2.851   0.662   6.034  0.2838 -0.5853 -0.0383
  184POPC   H5X21177   2.916   0.592   5.978  0.6641  0.7770 -1.3684
  184POPC   H5Y21178   2.923   0.735   6.076 -0.2399 -0.2023  0.1943
  184POPC   C3621179   2.769   0.729   5.927  0.2386 -0.0933 -0.5275
  184POPC   H6X21180   2.700   0.799   5.979  2.3356  0.6962  1.3142
  184POPC   H6Y21181   2.703   0.654   5.878 -0.1001  0.1227 -0.4047
  184POPC   C3721182   2.863   0.791   5.817 -0.5891  0.1796 -0.8282
  184POPC   H7X21183   2.932   0.714   5.776  0.4712  0.2192  0.7850
  184POPC   H7Y21184   2.926   0.863   5.873  1.4819 -1.1584 -1.3392
  184POPC   C3821185   2.800   0.859   5.700 -0.3930  0.2178  0.8398
  184POPC   H8X21186   2.730   0.933   5.745 -1.1351 -0.9561  1.7027
  184POPC   H8Y21187   2.731   0.789   5.647 -0.1144  0.2090  0.4897
  184POPC   C3921188   2.891   0.928   5.603 -0.1448 -0.2383  0.0937
  184POPC   H9X21189   2.964   0.992   5.659  2.3099 -0.9965 -2.0510
  184POPC   H9Y21190   2.823   0.995   5.547  2.8044  1.2445 -1.9554
  184POPC  C31021191   2.974   0.841   5.510 -0.5200  0.1707  0.2476
  184POPC  H10X21192   2.909   0.775   5.447 -1.4581 -0.0644  1.4234
  184POPC  H10Y21193   3.029   0.775   5.580 -1.8484 -0.5100  0.6938
  184POPC  C31121194   3.072   0.930   5.432  0.1914 -0.0327 -0.6264
  184POPC  H11X21195   3.130   0.992   5.503  0.0859  0.6252 -1.1110
  184POPC  H11Y21196   3.017   1.008   5.376 -1.6559 -1.2994 -0.6673
  184POPC  C31221197   3.168   0.850   5.346 -0.0673  0.7262  0.0931
  184POPC  H12X21198   3.186   0.763   5.413 -0.2675 -0.5403 -1.4241
  184POPC  H12Y21199   3.259   0.913   5.334  0.6340  0.4629  3.1443
  184POPC  C31321200   3.122   0.803   5.209 -0.0964  0.5677 -1.4013
  184POPC  H13X21201   3.031   0.739   5.201  0.1412  0.3079 -2.1124
  184POPC  H13Y21202   3.200   0.732   5.173  0.4065  0.2324  0.2505
  184POPC  C31421203   3.092   0.916   5.118 -0.4028  0.0316  0.2936
  184POPC  H14X21204   3.187   0.953   5.074  0.5411 -1.1954  1.2283
  184POPC  H14Y21205   3.020   0.988   5.163 -0.6072 -1.1737  2.0160
  184POPC  C31521206   3.030   0.871   4.988 -0.1004  0.4724  0.2939
  184POPC  H15X21207   2.938   0.815   5.017  1.5388 -1.2100  2.5534
  184POPC  H15Y21208   3.088   0.801   4.923  0.8476  2.7899 -1.4984
  184POPC  C31621209   3.003   0.990   4.901 -0.1115  0.5336 -0.3025
  184POPC  H16X21210   3.097   1.038   4.868 -0.4934  1.8770  0.5106
  184POPC  H16Y21211   2.933   1.064   4.946 -0.2938  1.0442 -1.4070
  184POPC  H16Z21212   2.952   0.948   4.812  1.1446  2.5697 -2.0667
  185POPC     N21213   5.483   4.535   1.992  0.1366  0.7445 -0.2937
  185POPC   C1221214   5.544   4.430   2.081 -0.0216 -0.1922 -0.2733
  185POPC  H12A21215   5.474   4.406   2.159  1.2243 -0.9646  0.6570
  185POPC  H12B21216   5.636   4.462   2.128  0.9896 -3.7020  0.5001
  185POPC   C1321217   5.454   4.655   2.075 -0.3474 -0.4692  0.2305
  185POPC  H13A21218   5.517   4.668   2.163 -0.4693  0.5018  0.1822
  185POPC  H13B21219   5.450   4.749   2.023 -0.3497  1.7971  3.9425
  185POPC  H13C21220   5.357   4.636   2.119  0.7591 -0.6019  2.8396
  185POPC   C1421221   5.567   4.583   1.875  0.3847  0.0392  0.1557
  185POPC  H14A21222   5.651   4.631   1.923 -0.1875 -0.3234  1.5571
  185POPC  H14B21223   5.597   4.502   1.810 -0.4867 -0.2846  0.1495
  185POPC  H14C21224   5.523   4.659   1.812  1.5266  0.1603 -0.5331
  185POPC   C1521225   5.358   4.481   1.931  0.3968  0.0782 -0.6905
  185POPC  H15A21226   5.315   4.549   1.859 -1.5183 -0.5753 -0.2328
  185POPC  H15B21227   5.285   4.455   2.006  0.1630 -1.0426 -1.2741
  185POPC  H15C21228   5.381   4.392   1.874 -2.2392 -1.2197  0.0757
  185POPC   C1121229   5.576   4.292   2.018  0.2334 -0.1697  0.2379
  185POPC  H11A21230   5.625   4.242   2.104 -0.8561 -0.1743  0.8728
  185POPC  H11B21231   5.647   4.296   1.933 -2.4426  0.1064 -2.1066
  185POPC     P21232   5.382   4.128   2.068  0.3670  0.2348  0.0292
  185POPC   O1321233   5.338   4.003   1.996 -0.2749 -0.0266 -0.3540
  185POPC   O1421234   5.280   4.205   2.141 -0.0179  0.5943 -0.4871
  185POPC   O1221235   5.459   4.224   1.966  0.4886  0.6058  0.2043
  185POPC   O1121236   5.493   4.090   2.167  0.0724  0.5972  0.4997
  185POPC    C121237   5.593   3.987   2.143  0.8346 -0.3297 -0.0336
  185POPC    HA21238   5.654   4.002   2.051 -0.0059 -0.9998 -0.7209
  185POPC    HB21239   5.550   3.884   2.148  1.6450 -0.6785 -0.1192
  185POPC    C221240   5.686   3.977   2.273 -0.1244  0.1323 -0.1091
  185POPC    HS21241   5.627   3.935   2.357 -1.0425 -0.0398 -0.8217
  185POPC   O2121242   5.745   4.108   2.303 -0.3502  0.5995  0.2614
  185POPC   C2121243   5.691   4.173   2.400  0.2520 -0.4130 -0.0338
  185POPC   O2221244   5.595   4.132   2.465 -0.1592 -0.0920 -0.0077
  185POPC   C2221245   5.756   4.324   2.406 -0.2330  0.2651  0.1881
  185POPC   H2R21246   5.707   4.361   2.314 -2.0745 -1.1180  0.5515
  185POPC   H2S21247   5.866   4.311   2.391 -0.2751  0.0065  0.0929
  185POPC    C321248   5.787   3.867   2.249  0.2470  0.8770  0.2810
  185POPC    HX21249   5.833   3.894   2.152  2.4334 -0.7459  0.7888
  185POPC    HY21250   5.740   3.767   2.240 -0.6881  1.3090  0.2391
  185POPC   O3121251   5.883   3.859   2.358 -0.4583  0.0532 -0.5641
  185POPC   C3121252   5.992   3.926   2.343 -0.0879 -0.3064 -0.4362
  185POPC   O3221253   6.016   3.994   2.242 -0.0656  0.2418 -0.3559
  185POPC   C3221254   6.059   3.949   2.473  0.4197  0.4519 -0.9089
  185POPC   H2X21255   6.135   4.029   2.463  0.6164  0.3309 -0.4090
  185POPC   H2Y21256   6.114   3.857   2.504 -1.0813 -0.4620 -0.8217
  185POPC   C2321257   5.732   4.410   2.533 -0.6375  0.2229 -0.4034
  185POPC   H3R21258   5.625   4.406   2.561 -0.3510 -1.8280  0.5479
  185POPC   H3S21259   5.754   4.517   2.510  2.8996 -0.3967 -0.4606
  185POPC   C2421260   5.814   4.374   2.650 -0.6249 -0.3619  0.1020
  185POPC   H4R21261   5.800   4.268   2.679 -1.4035 -0.2550  0.1425
  185POPC   H4S21262   5.776   4.434   2.735  1.9504  1.0574  0.3560
  185POPC   C2521263   5.964   4.394   2.632  0.1161  0.0072 -0.1186
  185POPC   H5R21264   5.990   4.486   2.576 -1.2397  0.6391  0.2465
  185POPC   H5S21265   6.009   4.306   2.580 -1.5208  0.2499 -2.0699
  185POPC   C2621266   6.035   4.389   2.768 -0.3388 -0.0071  0.8640
  185POPC   H6R21267   5.992   4.304   2.825  1.3031 -1.1426  0.4841
  185POPC   H6S21268   6.010   4.486   2.817  1.6913  0.9699  0.0756
  185POPC   C2721269   6.180   4.354   2.759 -0.0897 -0.9231 -0.1380
  185POPC   H7R21270   6.232   4.445   2.723 -0.4613  1.2502  4.1891
  185POPC   H7S21271   6.199   4.274   2.684  0.2375 -0.6289 -0.3754
  185POPC   C2821272   6.227   4.302   2.894  0.4345 -0.2683  0.4783
  185POPC   H8R21273   6.335   4.276   2.884  0.6765  1.1763 -0.8821
  185POPC   H8S21274   6.167   4.219   2.937  1.7410 -1.2188  0.5414
  185POPC   C2921275   6.206   4.405   2.997  0.5629  0.0855 -0.4102
  185POPC   H9121276   6.201   4.509   2.960  0.4804  0.0116 -0.6032
  185POPC  C21021277   6.188   4.386   3.127  0.0613  0.2538  0.1307
  185POPC  H10121278   6.177   4.475   3.191  1.4992  1.6089 -1.3941
  185POPC  C21121279   6.211   4.250   3.201  0.1234 -0.0182 -0.0171
  185POPC  H11R21280   6.267   4.179   3.137 -0.6695 -1.1638  0.5318
  185POPC  H11S21281   6.115   4.202   3.227  1.7877 -2.0811  3.0224
  185POPC  C21221282   6.288   4.269   3.337  0.0559 -0.1055 -0.1110
  185POPC  H12R21283   6.356   4.357   3.329 -0.4650  0.3980  0.8402
  185POPC  H12S21284   6.352   4.182   3.364  1.7289  0.9420 -0.5151
  185POPC  C21321285   6.193   4.311   3.450 -0.3356  0.7056 -0.6014
  185POPC  H13R21286   6.112   4.236   3.453 -1.1598  1.5964  1.2869
  185POPC  H13S21287   6.135   4.403   3.428 -0.5762  0.6432 -0.2296
  185POPC  C21421288   6.264   4.319   3.583 -0.3885  0.0452 -0.6118
  185POPC  H14R21289   6.345   4.394   3.569  1.0506 -1.2998  0.2236
  185POPC  H14S21290   6.313   4.221   3.597  1.0938  0.5357 -2.0259
  185POPC  C21521291   6.177   4.325   3.717 -0.5371  0.5503 -0.0883
  185POPC  H15R21292   6.067   4.315   3.706 -0.6989  0.6064  1.2892
  185POPC  H15S21293   6.196   4.430   3.750  1.5905  0.4227 -0.7473
  185POPC  C21621294   6.243   4.231   3.827  0.3315 -0.3339 -0.5003
  185POPC  H16R21295   6.351   4.219   3.803  0.6875 -0.8648  1.2292
  185POPC  H16S21296   6.196   4.132   3.810 -0.5126  0.1791 -1.2633
  185POPC  C21721297   6.239   4.260   3.973  0.7297 -0.0413 -0.1801
  185POPC  H17R21298   6.134   4.289   3.996  1.1837  0.2209  1.7175
  185POPC  H17S21299   6.296   4.353   3.990 -1.7232  1.7537 -1.2243
  185POPC  C21821300   6.292   4.141   4.057 -0.0447 -0.1768  0.3172
  185POPC  H18R21301   6.224   4.055   4.036 -1.8413  1.1712  0.3638
  185POPC  H18S21302   6.289   4.179   4.162  0.1161  1.4989 -0.2538
  185POPC  H18T21303   6.397   4.117   4.031  0.2603  0.4680  0.9333
  185POPC   C3321304   5.959   3.978   2.587  0.8153  0.9428  0.6774
  185POPC   H3X21305   5.875   3.906   2.590 -0.3475  2.2726  1.3184
  185POPC   H3Y21306   5.923   4.081   2.564 -1.4608  0.1236  0.3112
  185POPC   C3421307   6.009   3.983   2.730 -0.4361  0.4781  0.0610
  185POPC   H4X21308   6.055   4.084   2.736 -1.3398  1.0840 -2.2366
  185POPC   H4Y21309   6.093   3.915   2.756  1.5009  2.1355 -1.4025
  185POPC   C3521310   5.894   3.985   2.831 -0.4472 -0.3676 -0.0682
  185POPC   H5X21311   5.838   3.890   2.818 -2.5501  0.6412  0.9765
  185POPC   H5Y21312   5.824   4.066   2.801 -0.7878 -0.9548 -0.8861
  185POPC   C3621313   5.952   4.010   2.974  0.4054 -0.0235  0.0134
  185POPC   H6X21314   5.946   4.118   3.000  0.4021  0.3470 -1.4463
  185POPC   H6Y21315   6.056   3.974   2.990  0.3177  0.0612  0.7949
  185POPC   C3721316   5.871   3.939   3.083  0.8150  0.5294 -0.6195
  185POPC   H7X21317   5.898   3.832   3.070 -0.9244  0.0582 -0.6089
  185POPC   H7Y21318   5.761   3.949   3.073  0.7354  1.0604  0.6234
  185POPC   C3821319   5.906   3.991   3.223  1.0381  0.2399  0.3260
  185POPC   H8X21320   5.899   4.101   3.214  2.2067  0.2491 -0.7345
  185POPC   H8Y21321   6.010   3.951   3.226  0.4214 -1.7364 -1.6256
  185POPC   C3921322   5.828   3.929   3.345 -0.5716 -0.3411  1.2336
  185POPC   H9X21323   5.827   3.821   3.319  2.1349  0.0854 -1.2370
  185POPC   H9Y21324   5.729   3.976   3.357 -0.4875 -0.0500  0.8374
  185POPC  C31021325   5.899   3.943   3.480 -0.9159  0.2587  0.1450
  185POPC  H10X21326   5.921   4.052   3.486 -2.0609  0.4774  0.5354
  185POPC  H10Y21327   5.989   3.878   3.481 -0.6488  0.5838 -0.9301
  185POPC  C31121328   5.822   3.877   3.604 -0.0612 -0.4720  0.1038
  185POPC  H11X21329   5.838   3.768   3.590  0.5286 -0.2885 -0.7486
  185POPC  H11Y21330   5.716   3.911   3.610  0.4753  1.5450 -0.7068
  185POPC  C31221331   5.892   3.927   3.732 -0.0739  0.1760 -0.0407
  185POPC  H12X21332   5.867   4.033   3.754  2.0585  0.6561  0.2890
  185POPC  H12Y21333   6.003   3.925   3.732  0.0062  0.5983 -2.6633
  185POPC  C31321334   5.850   3.845   3.856  0.4305  0.9596  0.2917
  185POPC  H13X21335   5.941   3.814   3.911  0.7793  3.3869  1.2066
  185POPC  H13Y21336   5.808   3.748   3.824  1.0907  1.1209 -1.1369
  185POPC  C31421337   5.758   3.919   3.957 -0.1714 -0.5942 -0.3695
  185POPC  H14X21338   5.678   3.969   3.898  1.8167  0.2817 -2.4754
  185POPC  H14Y21339   5.809   4.005   4.005 -0.6293  1.2294 -2.9136
  185POPC  C31521340   5.694   3.829   4.070 -0.5534  0.6340  0.4708
  185POPC  H15X21341   5.778   3.777   4.122 -1.7977 -1.9072  0.1095
  185POPC  H15Y21342   5.628   3.748   4.033  0.4676  0.0000  0.0113
  185POPC  C31621343   5.608   3.921   4.160 -0.3151  0.6498 -0.1687
  185POPC  H16X21344   5.557   3.864   4.240  1.6069 -0.3255  0.3936
  185POPC  H16Y21345   5.541   3.973   4.087 -0.4546 -0.1052 -0.5853
  185POPC  H16Z21346   5.669   4.000   4.209 -0.7638  1.8362 -1.4140
  186POPC     N21347   1.391   6.562   2.372  0.1438 -0.2722  0.2795
  186POPC   C1221348   1.449   6.687   2.448  0.8466 -0.2907  0.7026
  186POPC  H12A21349   1.370   6.758   2.468 -0.7206 -1.6419 -0.3412
  186POPC  H12B21350   1.515   6.731   2.375  0.3395 -1.7085 -0.6829
  186POPC   C1321351   1.501   6.499   2.301  0.2064 -0.0701  0.7541
  186POPC  H13A21352   1.468   6.403   2.263 -1.6144  1.7202 -2.6438
  186POPC  H13B21353   1.536   6.559   2.218  0.3436 -1.2791 -0.0856
  186POPC  H13C21354   1.587   6.487   2.365  2.0810  1.7588 -1.2627
  186POPC   C1421355   1.332   6.468   2.473 -0.1166 -0.5001 -0.5206
  186POPC  H14A21356   1.407   6.444   2.546 -1.0445 -0.6690  0.3965
  186POPC  H14B21357   1.250   6.517   2.523 -0.3607  0.3846 -1.7535
  186POPC  H14C21358   1.290   6.379   2.428 -0.2786 -0.2521 -0.8643
  186POPC   C1521359   1.288   6.600   2.273 -0.3880  0.7741  0.1539
  186POPC  H15A21360   1.325   6.673   2.202 -1.7746  0.8177 -0.5652
  186POPC  H15B21361   1.195   6.632   2.318 -0.7403 -0.2065  0.1445
  186POPC  H15C21362   1.267   6.509   2.218  1.0757 -1.0006  2.3560
  186POPC   C1121363   1.537   6.674   2.569  0.2726 -0.1594 -0.4772
  186POPC  H11A21364   1.487   6.625   2.656  1.1643 -0.2336  0.0043
  186POPC  H11B21365   1.576   6.770   2.608  3.3097 -2.1794  1.9037
  186POPC     P21366   1.796   6.648   2.510  0.1579 -0.3383  0.0775
  186POPC   O1321367   1.795   6.714   2.376  0.9102  0.4025 -0.3988
  186POPC   O1421368   1.900   6.546   2.530  0.4696 -0.6486 -0.4915
  186POPC   O1221369   1.646   6.593   2.541  0.2980 -0.3928  0.4300
  186POPC   O1121370   1.809   6.766   2.617 -0.0093  0.2909  0.2820
  186POPC    C121371   1.831   6.720   2.751 -0.0187  0.2899 -0.8005
  186POPC    HA21372   1.924   6.660   2.761 -0.3674 -0.0032  0.9289
  186POPC    HB21373   1.746   6.657   2.784 -0.9117  0.9753 -1.7283
  186POPC    C221374   1.848   6.855   2.828  0.3115 -0.3381  0.3623
  186POPC    HS21375   1.934   6.908   2.782  0.4221 -0.4175  0.4735
  186POPC   O2121376   1.872   6.834   2.970  0.2131 -0.2778  0.1774
  186POPC   C2121377   1.986   6.781   3.008  0.1851 -0.7156  0.1311
  186POPC   O2221378   2.086   6.764   2.936 -0.3138  0.6489  0.3598
  186POPC   C2221379   1.984   6.737   3.155 -0.3569 -0.0954  0.2243
  186POPC   H2R21380   2.058   6.654   3.153  1.9375  1.8033  0.5071
  186POPC   H2S21381   1.877   6.720   3.180 -0.4411  0.8512  0.5615
  186POPC    C321382   1.720   6.940   2.805 -0.8588  0.7175 -0.1015
  186POPC    HX21383   1.636   6.869   2.817 -0.4066  0.3736  1.3694
  186POPC    HY21384   1.718   6.986   2.704  1.9027  0.2996 -0.4311
  186POPC   O3121385   1.706   7.042   2.908  0.8295 -0.2332  0.9681
  186POPC   C3121386   1.781   7.142   2.907 -0.0543  0.5783 -0.5539
  186POPC   O3221387   1.869   7.174   2.834  0.8165  1.1087  0.2137
  186POPC   C3221388   1.755   7.208   3.037  0.3652 -0.5730 -0.1589
  186POPC   H2X21389   1.671   7.163   3.094 -0.8311  1.7751  0.0962
  186POPC   H2Y21390   1.727   7.313   3.014  0.9598  0.1580  2.1454
  186POPC   C2321391   2.041   6.843   3.255  0.2092  0.3518  0.4093
  186POPC   H3R21392   1.971   6.930   3.255 -0.9650 -0.4890 -2.1046
  186POPC   H3S21393   2.142   6.877   3.221  0.1493 -1.5871 -1.9921
  186POPC   C2421394   2.049   6.785   3.393 -0.3170  0.5573  0.0804
  186POPC   H4R21395   2.142   6.724   3.405 -0.8476  0.2051  3.2570
  186POPC   H4S21396   1.960   6.725   3.421 -0.0866  0.9933  1.8607
  186POPC   C2521397   2.081   6.898   3.502  0.0447 -0.0128 -0.3628
  186POPC   H5R21398   2.012   6.980   3.471 -0.5990 -0.6306 -0.6101
  186POPC   H5S21399   2.187   6.928   3.510  0.1698 -0.4684 -0.3052
  186POPC   C2621400   2.038   6.864   3.645 -0.4186 -0.0552  0.4161
  186POPC   H6R21401   2.099   6.777   3.678  0.7248  1.2194  1.8706
  186POPC   H6S21402   1.938   6.818   3.631 -1.2769  2.1432 -1.0547
  186POPC   C2721403   2.042   6.977   3.746  0.2044 -0.5024 -0.2666
  186POPC   H7R21404   1.945   7.029   3.735 -0.2593 -1.6037 -1.6999
  186POPC   H7S21405   2.116   7.055   3.716  2.4074 -2.7681 -1.0735
  186POPC   C2821406   2.067   6.936   3.890 -0.3656  0.5609 -0.5012
  186POPC   H8R21407   2.061   7.029   3.951 -1.5392  1.1331 -1.4584
  186POPC   H8S21408   2.170   6.895   3.888 -0.5960 -0.0080 -0.9302
  186POPC   C2921409   1.958   6.844   3.938  0.3233 -0.5828  0.3473
  186POPC   H9121410   1.932   6.769   3.861  2.7338 -1.4768  0.3349
  186POPC  C21021411   1.892   6.843   4.052  0.1640  0.2010 -0.4394
  186POPC  H10121412   1.827   6.758   4.075 -0.6696  0.7981 -0.5259
  186POPC  C21121413   1.915   6.939   4.168 -0.8218  0.5022  0.2643
  186POPC  H11R21414   1.814   6.969   4.203 -0.4269  1.9022  0.2427
  186POPC  H11S21415   1.980   7.022   4.133 -0.1859  0.1399  0.5800
  186POPC  C21221416   2.004   6.857   4.270  0.8024 -0.9539 -0.3126
  186POPC  H12R21417   2.004   6.931   4.353 -0.3125 -1.5497  0.2441
  186POPC  H12S21418   2.109   6.846   4.236  1.2014 -1.6014  1.0599
  186POPC  C21321419   1.956   6.720   4.330 -0.5452  0.0765  0.2962
  186POPC  H13R21420   1.946   6.645   4.249 -2.1980 -0.5157  0.9970
  186POPC  H13S21421   1.865   6.738   4.392 -0.4429  0.4571  0.3372
  186POPC  C21421422   2.063   6.667   4.427 -0.4931  0.0997  0.1645
  186POPC  H14R21423   2.078   6.733   4.515 -0.1658 -2.2396  1.9397
  186POPC  H14S21424   2.152   6.668   4.360 -0.6722 -0.1145 -0.0778
  186POPC  C21521425   2.037   6.528   4.482 -0.5633  0.0155  0.2455
  186POPC  H15R21426   2.029   6.467   4.390  1.3955 -2.1288  1.3808
  186POPC  H15S21427   1.945   6.528   4.544  0.5082 -0.2524  1.9207
  186POPC  C21621428   2.158   6.472   4.563 -0.3589  0.6746  0.4678
  186POPC  H16R21429   2.144   6.517   4.663 -1.1437 -0.0792  0.7119
  186POPC  H16S21430   2.253   6.517   4.529  1.2426 -0.5530  3.0009
  186POPC  C21721431   2.153   6.321   4.571 -0.0265 -0.8815  0.7604
  186POPC  H17R21432   2.157   6.284   4.466 -2.3910  0.1228  0.2438
  186POPC  H17S21433   2.055   6.277   4.601 -0.2435 -1.2127 -0.3878
  186POPC  C21821434   2.260   6.263   4.665 -0.6911  0.0516 -0.0477
  186POPC  H18R21435   2.232   6.269   4.772 -2.5103 -1.2128 -0.3997
  186POPC  H18S21436   2.278   6.154   4.659 -0.4477  0.0924 -0.0597
  186POPC  H18T21437   2.353   6.321   4.647 -0.1780  0.1838  2.5967
  186POPC   C3321438   1.876   7.209   3.129 -0.5635  0.5279 -0.5492
  186POPC   H3X21439   1.939   7.297   3.108 -1.6139  0.7562 -3.1201
  186POPC   H3Y21440   1.940   7.122   3.104 -1.9584 -0.7491  0.1547
  186POPC   C3421441   1.857   7.211   3.282  0.5879  0.1873 -0.0849
  186POPC   H4X21442   1.951   7.242   3.333  1.2361  1.0645 -1.7037
  186POPC   H4Y21443   1.847   7.104   3.308 -0.5131  0.6507  1.4939
  186POPC   C3521444   1.745   7.290   3.351  0.1479 -0.1817 -0.1017
  186POPC   H5X21445   1.655   7.224   3.344 -0.1157  0.2075 -0.4216
  186POPC   H5Y21446   1.725   7.388   3.304 -0.8800 -0.2599  0.1429
  186POPC   C3621447   1.767   7.306   3.507 -0.0603  0.2097  0.6606
  186POPC   H6X21448   1.847   7.383   3.513  0.9284 -0.7447  0.1300
  186POPC   H6Y21449   1.802   7.210   3.550  1.2437  0.5189  0.3604
  186POPC   C3721450   1.640   7.373   3.571 -0.8518  0.5676 -0.9633
  186POPC   H7X21451   1.561   7.301   3.603  0.1773  0.2705  1.1236
  186POPC   H7Y21452   1.603   7.461   3.514 -2.1575 -0.3173 -1.5107
  186POPC   C3821453   1.688   7.450   3.698 -0.0533 -0.0312 -0.3268
  186POPC   H8X21454   1.594   7.492   3.740  0.2811  1.2139 -0.7822
  186POPC   H8Y21455   1.757   7.532   3.669  0.9691  0.1091  2.2858
  186POPC   C3921456   1.754   7.366   3.811 -0.3006 -0.1521  0.1058
  186POPC   H9X21457   1.852   7.329   3.772  0.9128  3.1610 -0.3324
  186POPC   H9Y21458   1.686   7.288   3.851 -0.1250 -0.6399 -0.5244
  186POPC  C31021459   1.794   7.459   3.928 -0.0163  0.0528  0.5830
  186POPC  H10X21460   1.708   7.504   3.981  1.2063  0.6881  2.1276
  186POPC  H10Y21461   1.846   7.550   3.894  0.2348 -0.6166 -0.8852
  186POPC  C31121462   1.869   7.391   4.039  0.4479 -0.1616  0.5373
  186POPC  H11X21463   1.973   7.382   4.000 -0.3450 -0.4410 -1.6594
  186POPC  H11Y21464   1.816   7.294   4.049  1.1115 -0.6129 -0.2245
  186POPC  C31221465   1.863   7.472   4.165  0.3345 -0.4449 -0.2629
  186POPC  H12X21466   1.754   7.491   4.174  0.2919 -0.6548 -0.3363
  186POPC  H12Y21467   1.908   7.573   4.157 -0.8833  0.1040 -0.4746
  186POPC  C31321468   1.908   7.398   4.296  0.2616  0.3977 -0.0426
  186POPC  H13X21469   2.016   7.426   4.295  0.4425 -0.3036 -0.4410
  186POPC  H13Y21470   1.901   7.289   4.278 -2.0867  0.5310 -0.1556
  186POPC  C31421471   1.845   7.436   4.430 -0.1452  0.1202 -0.2217
  186POPC  H14X21472   1.737   7.413   4.414  0.2012  0.0235 -2.9686
  186POPC  H14Y21473   1.861   7.544   4.449  0.7794 -0.4206  2.4459
  186POPC  C31521474   1.910   7.366   4.554 -0.4458 -0.1791 -0.4071
  186POPC  H15X21475   2.020   7.385   4.552 -0.7203  2.0370  1.3185
  186POPC  H15Y21476   1.893   7.257   4.542  0.0923 -0.7740  3.0891
  186POPC  C31621477   1.853   7.409   4.693  0.1874 -0.1180 -0.1977
  186POPC  H16X21478   1.929   7.388   4.771 -0.5759  0.2922  0.6772
  186POPC  H16Y21479   1.754   7.360   4.708  0.7138 -0.6084  1.9615
  186POPC  H16Z21480   1.842   7.520   4.692 -0.0702 -0.1439 -0.5644
  187POPC     N21481   6.695   4.552   2.086  0.1833 -1.0464 -0.0551
  187POPC   C1221482   6.568   4.488   2.038  0.4737  1.1654 -0.2903
  187POPC  H12A21483   6.525   4.556   1.966  0.1234  2.5614  1.1581
  187POPC  H12B21484   6.501   4.470   2.120  0.7694  0.5880 -0.1738
  187POPC   C1321485   6.819   4.550   2.003 -0.3837 -0.1491  0.2473
  187POPC  H13A21486   6.889   4.623   2.041 -0.2045 -0.3770  0.3535
  187POPC  H13B21487   6.859   4.450   1.990 -1.0478 -0.2137 -1.6656
  187POPC  H13C21488   6.795   4.571   1.899 -0.4083 -2.5855 -0.3068
  187POPC   C1421489   6.656   4.693   2.115 -0.5408 -0.2703  0.0381
  187POPC  H14A21490   6.655   4.745   2.020  2.9641 -2.5124 -1.4808
  187POPC  H14B21491   6.567   4.708   2.173  0.5540  0.7593  1.5020
  187POPC  H14C21492   6.735   4.744   2.168  0.1775 -0.5814 -0.7086
  187POPC   C1521493   6.729   4.483   2.218 -0.7874 -0.5227 -0.0520
  187POPC  H15A21494   6.645   4.489   2.284 -0.6406  1.3185  0.0040
  187POPC  H15B21495   6.814   4.529   2.267  0.1254 -1.6917 -0.4731
  187POPC  H15C21496   6.751   4.377   2.207  1.1479 -0.1712  0.0141
  187POPC   C1121497   6.585   4.348   1.967  0.0136  1.0386  0.3598
  187POPC  H11A21498   6.652   4.360   1.880 -0.2199 -1.3623 -0.2277
  187POPC  H11B21499   6.490   4.318   1.918  0.2050 -0.5446  0.9098
  187POPC     P21500   6.555   4.175   2.158  0.4068 -0.0067 -0.5018
  187POPC   O1321501   6.543   4.024   2.139 -0.5016 -0.3272 -0.2257
  187POPC   O1421502   6.424   4.246   2.167  0.4581  0.3087  0.1959
  187POPC   O1221503   6.635   4.230   2.040 -0.7751 -0.0203  0.2477
  187POPC   O1121504   6.638   4.208   2.287  0.1586 -0.4461  0.3275
  187POPC    C121505   6.763   4.143   2.328  0.0116 -0.0343 -0.3143
  187POPC    HA21506   6.828   4.220   2.374  0.8245 -0.3574 -0.8992
  187POPC    HB21507   6.812   4.112   2.233 -1.8915  0.9478 -1.7008
  187POPC    C221508   6.729   4.027   2.433 -0.0620 -0.5330  0.2510
  187POPC    HS21509   6.673   3.950   2.375 -0.6280  2.1574 -3.0114
  187POPC   O2121510   6.651   4.083   2.542 -0.6993 -0.1584 -0.0050
  187POPC   C2121511   6.556   4.005   2.596  0.2948 -0.3040  1.0214
  187POPC   O2221512   6.529   3.888   2.573  0.4657 -0.1353  0.4798
  187POPC   C2221513   6.473   4.086   2.694  0.0323 -0.4098  0.5064
  187POPC   H2R21514   6.410   4.157   2.636 -1.6835 -1.0843  1.4589
  187POPC   H2S21515   6.536   4.143   2.765  1.8860 -0.4946 -1.0167
  187POPC    C321516   6.868   3.982   2.489  0.6966 -0.0856  0.2665
  187POPC    HX21517   6.932   4.071   2.504  2.4348 -1.5168  1.8028
  187POPC    HY21518   6.911   3.923   2.405 -2.8422 -1.3158 -0.8894
  187POPC   O3121519   6.868   3.896   2.609 -0.4023  0.3563  0.2606
  187POPC   C3121520   6.865   3.764   2.600 -0.7949  0.2850  0.3727
  187POPC   O3221521   6.868   3.700   2.492  0.2554 -0.7712  0.1950
  187POPC   C3221522   6.833   3.703   2.739 -0.2412 -0.8568  0.2055
  187POPC   H2X21523   6.912   3.629   2.765 -0.2189 -1.0089 -0.3005
  187POPC   H2Y21524   6.732   3.659   2.729 -0.9366  0.8799 -0.8618
  187POPC   C2321525   6.377   4.002   2.782  0.2663 -0.3908  0.2989
  187POPC   H3R21526   6.325   3.931   2.714 -2.1775  0.0286  1.6373
  187POPC   H3S21527   6.304   4.072   2.827  0.7105  0.1752  0.1567
  187POPC   C2421528   6.444   3.933   2.900 -0.0377  0.1822  0.3006
  187POPC   H4R21529   6.493   4.012   2.961 -1.5211 -0.3855  2.3303
  187POPC   H4S21530   6.518   3.873   2.843  1.8397  2.2255  0.4624
  187POPC   C2521531   6.351   3.856   2.986  0.1623  0.4178  0.2590
  187POPC   H5R21532   6.363   3.747   2.968  1.3256  0.2344  1.8414
  187POPC   H5S21533   6.245   3.884   2.968  0.1769 -0.2398 -0.9003
  187POPC   C2621534   6.380   3.855   3.140  0.6914 -0.3339  0.0233
  187POPC   H6R21535   6.362   3.960   3.169 -1.8059 -0.8868  0.7438
  187POPC   H6S21536   6.482   3.822   3.168  0.8025 -0.3527 -0.3959
  187POPC   C2721537   6.292   3.770   3.225 -0.5091  0.4342  0.0665
  187POPC   H7R21538   6.292   3.669   3.178  2.8455  0.9195 -1.2427
  187POPC   H7S21539   6.188   3.807   3.214 -1.1093 -1.0456  0.4738
  187POPC   C2821540   6.334   3.769   3.375  0.8585  0.5352  0.1760
  187POPC   H8R21541   6.441   3.741   3.390  0.3187 -0.9978  1.4442
  187POPC   H8S21542   6.288   3.680   3.422 -0.2553  1.4800  0.9227
  187POPC   C2921543   6.305   3.891   3.446 -1.0923 -1.3484  0.5852
  187POPC   H9121544   6.287   3.982   3.386 -2.1414 -1.0623  1.2966
  187POPC  C21021545   6.279   3.909   3.577 -0.5521  0.9084  0.0598
  187POPC  H10121546   6.267   4.012   3.614  0.7608  1.4709 -0.9982
  187POPC  C21121547   6.283   3.800   3.681 -0.1490 -0.1218 -0.2912
  187POPC  H11R21548   6.357   3.723   3.650 -1.9503 -2.4396  0.8958
  187POPC  H11S21549   6.184   3.753   3.696 -0.2739  0.1938 -0.1067
  187POPC  C21221550   6.319   3.849   3.820  0.3652 -0.6502  1.0282
  187POPC  H12R21551   6.232   3.897   3.870  1.8693  2.7546  0.7213
  187POPC  H12S21552   6.401   3.923   3.807  0.2063 -0.5244  0.7291
  187POPC  C21321553   6.381   3.739   3.911  0.0129  0.0058  0.8544
  187POPC  H13R21554   6.480   3.714   3.866 -1.0643 -0.1425 -1.6098
  187POPC  H13S21555   6.323   3.644   3.904  1.9203 -1.2577  1.2031
  187POPC  C21421556   6.401   3.778   4.059 -0.1121  0.5163  0.4729
  187POPC  H14R21557   6.301   3.794   4.104  0.3069 -0.5684  1.9059
  187POPC  H14S21558   6.465   3.869   4.064 -0.9219  1.0843  0.5834
  187POPC  C21521559   6.481   3.679   4.147 -0.4865 -0.3210  0.3757
  187POPC  H15R21560   6.586   3.659   4.114 -0.0540  2.5858 -0.2642
  187POPC  H15S21561   6.415   3.590   4.148 -1.4856  0.2537 -3.1473
  187POPC  C21621562   6.485   3.724   4.296 -0.5423 -0.9237 -0.1211
  187POPC  H16R21563   6.377   3.732   4.320 -1.1671 -3.3847 -1.7448
  187POPC  H16S21564   6.516   3.831   4.298  1.5266 -1.4921  1.3029
  187POPC  C21721565   6.565   3.636   4.393 -0.6281  0.1698  0.3549
  187POPC  H17R21566   6.670   3.623   4.358 -0.8858 -1.3233  0.0881
  187POPC  H17S21567   6.524   3.533   4.393 -2.8070  0.9810  0.3719
  187POPC  C21821568   6.570   3.682   4.541  0.5401 -0.9333  0.6082
  187POPC  H18R21569   6.556   3.598   4.612  0.9400 -0.3384  1.4175
  187POPC  H18S21570   6.479   3.743   4.560 -0.8514 -2.3288 -1.2201
  187POPC  H18T21571   6.661   3.741   4.564 -0.5012  1.5706 -1.2453
  187POPC   C3321572   6.836   3.787   2.872  0.2588  0.5041 -0.9245
  187POPC   H3X21573   6.784   3.885   2.879  0.2245  0.4816 -0.8645
  187POPC   H3Y21574   6.943   3.811   2.889  0.2032  0.7896 -0.9664
  187POPC   C3421575   6.792   3.704   2.998  0.1353 -0.4470  0.7611
  187POPC   H4X21576   6.827   3.598   3.006 -2.7165 -1.5098  0.1524
  187POPC   H4Y21577   6.682   3.696   2.998  0.0770  0.2773  0.4244
  187POPC   C3521578   6.830   3.778   3.121  0.2824 -0.2025  0.2568
  187POPC   H5X21579   6.749   3.766   3.197 -0.1209  2.1732  0.2641
  187POPC   H5Y21580   6.854   3.883   3.097  1.4059 -0.4613  0.2121
  187POPC   C3621581   6.948   3.714   3.177 -0.6061  0.3099  0.5132
  187POPC   H6X21582   7.031   3.725   3.103 -1.0638  1.3171  0.1348
  187POPC   H6Y21583   6.932   3.604   3.182  0.8721  0.1203  2.2742
  187POPC   C3721584   7.001   3.760   3.315  0.0739 -0.3673 -0.1643
  187POPC   H7X21585   6.997   3.870   3.324 -1.0233 -0.4814  1.0494
  187POPC   H7Y21586   7.106   3.725   3.325 -0.1620 -0.9719  0.2765
  187POPC   C3821587   6.924   3.709   3.443 -0.8732 -0.0695  0.2270
  187POPC   H8X21588   6.918   3.599   3.454 -1.9808  0.1586  2.7622
  187POPC   H8Y21589   6.819   3.747   3.437 -1.4169 -1.5500  0.0873
  187POPC   C3921590   6.992   3.774   3.565 -0.2794  0.7130  0.0931
  187POPC   H9X21591   7.019   3.881   3.550  0.8932  0.1054 -2.6331
  187POPC   H9Y21592   7.088   3.719   3.573 -1.2368 -1.0246  0.1422
  187POPC  C31021593   6.917   3.751   3.699  0.0306  0.1634  0.3808
  187POPC  H10X21594   6.878   3.647   3.711 -3.5452  1.4742  1.2149
  187POPC  H10Y21595   6.826   3.814   3.701 -0.3285 -0.2969 -0.6000
  187POPC  C31121596   7.003   3.785   3.815  0.3485  0.8073 -0.1163
  187POPC  H11X21597   7.046   3.888   3.808  0.1161  0.8590 -0.8061
  187POPC  H11Y21598   7.093   3.720   3.817 -0.6970 -0.6672  0.8856
  187POPC  C31221599   6.922   3.780   3.951  0.4671  0.3335  1.1793
  187POPC  H12X21600   6.893   3.673   3.956 -0.9000  0.6846  1.1646
  187POPC  H12Y21601   6.823   3.828   3.941  0.0373 -0.8876 -1.1584
  187POPC  C31321602   6.993   3.829   4.078 -0.0435 -0.9536  0.7490
  187POPC  H13X21603   7.001   3.940   4.080  2.2273 -1.0767  0.9116
  187POPC  H13Y21604   7.091   3.776   4.072 -0.5657 -2.0156  1.2804
  187POPC  C31421605   6.935   3.778   4.213  0.3758  0.3901  0.7338
  187POPC  H14X21606   6.880   3.684   4.193 -0.8483  1.2419 -0.1224
  187POPC  H14Y21607   6.846   3.844   4.226 -1.1048 -0.9421 -1.7232
  187POPC  C31521608   7.026   3.781   4.335  0.9713 -0.1546  0.0976
  187POPC  H15X21609   7.076   3.879   4.328 -1.3995  1.1199 -0.1237
  187POPC  H15Y21610   7.102   3.700   4.342  2.5443  1.4032  3.2083
  187POPC  C31621611   6.945   3.785   4.465 -0.2179 -0.4927  0.7092
  187POPC  H16X21612   6.903   3.685   4.490 -2.3624  0.5527  1.5721
  187POPC  H16Y21613   6.868   3.865   4.467 -0.7323 -0.9846  2.2615
  187POPC  H16Z21614   7.012   3.828   4.543 -0.5420 -1.4205  1.5286
  188POPC     N21615   2.589   5.158   2.005 -0.0132  0.9889 -0.2635
  188POPC   C1221616   2.582   5.037   2.103  0.0672 -0.2391  0.1858
  188POPC  H12A21617   2.681   5.000   2.125  0.6568  0.0619 -1.8512
  188POPC  H12B21618   2.539   4.951   2.054 -0.3742  0.1972 -0.2009
  188POPC   C1321619   2.461   5.190   1.941  0.1417 -0.1604 -0.0432
  188POPC  H13A21620   2.388   5.201   2.020  0.4230 -2.4988  0.6137
  188POPC  H13B21621   2.475   5.280   1.883 -0.8748 -0.2435 -0.4346
  188POPC  H13C21622   2.419   5.121   1.869  1.6185  0.5393 -1.6847
  188POPC   C1421623   2.640   5.276   2.081  0.9362  0.5977 -0.1232
  188POPC  H14A21624   2.743   5.261   2.112  0.2530  0.6577  2.3676
  188POPC  H14B21625   2.636   5.369   2.027 -1.9377 -0.3635 -1.7603
  188POPC  H14C21626   2.584   5.301   2.170 -0.4417  2.4834 -1.4452
  188POPC   C1521627   2.689   5.132   1.898  0.0287 -0.9562  1.1041
  188POPC  H15A21628   2.788   5.102   1.930  1.0979 -1.1919 -2.0003
  188POPC  H15B21629   2.697   5.225   1.844 -0.6857 -0.6947  1.4388
  188POPC  H15C21630   2.651   5.060   1.827 -0.4109  1.8542 -1.7319
  188POPC   C1121631   2.499   5.065   2.237 -0.7010  0.4025 -0.1275
  188POPC  H11A21632   2.537   5.162   2.277 -2.8870  1.0668  0.5284
  188POPC  H11B21633   2.523   4.987   2.312  1.4346 -0.8673 -2.0109
  188POPC     P21634   2.272   4.938   2.188 -0.1336 -0.1173 -0.4591
  188POPC   O1321635   2.365   4.822   2.173  0.2584  0.1632  0.3206
  188POPC   O1421636   2.191   4.977   2.070  0.2962  0.1999  0.0278
  188POPC   O1221637   2.357   5.064   2.215  0.0483 -0.0394  0.4755
  188POPC   O1121638   2.184   4.917   2.322 -0.9952  0.1609  0.4502
  188POPC    C121639   2.151   5.027   2.408 -0.2152 -0.2702  0.6000
  188POPC    HA21640   2.055   5.073   2.377  0.9709  1.1048 -1.2426
  188POPC    HB21641   2.225   5.109   2.402 -0.5270  0.0164  0.6150
  188POPC    C221642   2.146   4.978   2.554  0.6372 -0.1137  0.0837
  188POPC    HS21643   2.078   4.890   2.550 -0.5481  0.7655  0.2526
  188POPC   O2121644   2.090   5.083   2.631  0.2575  0.1691  0.1988
  188POPC   C2121645   2.003   5.055   2.738  0.1478  0.1758  0.6537
  188POPC   O2221646   1.955   4.943   2.750 -0.4348 -0.6887 -0.2664
  188POPC   C2221647   1.974   5.178   2.818  0.0711 -0.0531 -0.1609
  188POPC   H2R21648   1.896   5.239   2.767  1.2063  1.5872 -0.0147
  188POPC   H2S21649   2.063   5.244   2.808  0.6931 -0.7674  0.4697
  188POPC    C321650   2.285   4.930   2.607  0.0347  0.1997  0.1049
  188POPC    HX21651   2.358   5.014   2.616  0.9012 -0.5949  0.7072
  188POPC    HY21652   2.328   4.861   2.531  0.3085  0.4788  0.0027
  188POPC   O3121653   2.273   4.873   2.740  0.2201 -0.5102  0.1977
  188POPC   C3121654   2.232   4.752   2.760  0.1547 -0.4409 -0.4422
  188POPC   O3221655   2.180   4.681   2.677  0.6684  0.8506 -0.3891
  188POPC   C3221656   2.250   4.723   2.906 -0.0249  0.1108 -0.8319
  188POPC   H2X21657   2.148   4.713   2.948  1.1085 -1.4191  1.8412
  188POPC   H2Y21658   2.292   4.809   2.963 -0.7259  1.2323 -1.9708
  188POPC   C2321659   1.937   5.155   2.962 -0.1830 -0.0163 -0.0956
  188POPC   H3R21660   2.027   5.120   3.016  0.4923  2.6872  0.6757
  188POPC   H3S21661   1.858   5.078   2.976 -0.0327 -0.1079  0.2569
  188POPC   C2421662   1.888   5.288   3.025 -0.2662 -0.3340  0.0562
  188POPC   H4R21663   1.815   5.329   2.951  1.2340  0.2608 -1.1324
  188POPC   H4S21664   1.967   5.367   3.026 -0.4771 -0.1186  0.0181
  188POPC   C2521665   1.822   5.287   3.169  0.3202 -0.1030  0.1946
  188POPC   H5R21666   1.722   5.240   3.162 -0.2309  1.1872 -1.1998
  188POPC   H5S21667   1.813   5.393   3.203 -0.6490 -0.6483  1.7512
  188POPC   C2621668   1.907   5.217   3.275  0.3046  0.3759 -0.3073
  188POPC   H6R21669   1.996   5.277   3.301 -0.4941  1.3573  0.2705
  188POPC   H6S21670   1.941   5.117   3.242 -0.6478 -0.7730  1.9591
  188POPC   C2721671   1.830   5.211   3.415 -0.1460  0.1289 -0.3871
  188POPC   H7R21672   1.740   5.147   3.407 -0.5238  0.6385 -0.2475
  188POPC   H7S21673   1.803   5.316   3.438 -0.9835 -0.1212 -0.2087
  188POPC   C2821674   1.928   5.155   3.522  0.2530  0.4131 -0.1756
  188POPC   H8R21675   1.882   5.152   3.623  0.0018  0.6763 -0.2828
  188POPC   H8S21676   2.008   5.232   3.533  2.3275 -1.6774  0.2986
  188POPC   C2921677   2.003   5.020   3.511 -0.2914  0.0433  0.8512
  188POPC   H9121678   1.988   4.973   3.413  0.7725  0.6179  0.3966
  188POPC  C21021679   2.085   4.958   3.594 -0.4473  0.1988 -0.0089
  188POPC  H10121680   2.133   4.865   3.559 -1.2665 -0.2458  0.0237
  188POPC  C21121681   2.133   5.005   3.728 -0.1877 -0.9115  0.2571
  188POPC  H11R21682   2.200   4.922   3.758 -0.1237 -1.2671 -0.8344
  188POPC  H11S21683   2.049   5.013   3.802 -0.2387  1.3947  0.0385
  188POPC  C21221684   2.203   5.141   3.733 -0.2120  0.2367  0.0162
  188POPC  H12R21685   2.148   5.221   3.679  0.4892 -0.3108 -1.6050
  188POPC  H12S21686   2.296   5.120   3.676 -0.5701 -0.1246 -0.4470
  188POPC  C21321687   2.245   5.184   3.873  0.3661 -0.6268 -0.4560
  188POPC  H13R21688   2.330   5.255   3.869  1.2492 -1.7164 -1.9597
  188POPC  H13S21689   2.285   5.100   3.934 -0.4570  0.2726  1.4336
  188POPC  C21421690   2.133   5.259   3.963 -0.5908 -0.3312  0.9140
  188POPC  H14R21691   2.054   5.183   3.978  0.6496 -1.9636 -0.5137
  188POPC  H14S21692   2.084   5.338   3.903 -2.1870  0.4059  3.0717
  188POPC  C21521693   2.189   5.308   4.096 -0.3506  0.3135  0.2680
  188POPC  H15R21694   2.292   5.351   4.090 -0.8535  1.4378 -0.7964
  188POPC  H15S21695   2.177   5.227   4.171 -2.2151  0.8520  0.6082
  188POPC  C21621696   2.100   5.416   4.161  0.7977 -0.0687 -0.7096
  188POPC  H16R21697   2.065   5.485   4.082 -0.9387 -0.8263 -0.6422
  188POPC  H16S21698   2.163   5.474   4.232 -1.3954  0.1902  1.1589
  188POPC  C21721699   1.979   5.362   4.241  0.6677  0.0396  0.2276
  188POPC  H17R21700   2.004   5.268   4.295 -0.0993 -0.9769 -1.1416
  188POPC  H17S21701   1.914   5.329   4.158 -2.3288 -1.7276  3.0270
  188POPC  C21821702   1.907   5.465   4.329 -0.4154  0.4204  0.2555
  188POPC  H18R21703   1.987   5.498   4.399 -0.5947  1.1798  0.1096
  188POPC  H18S21704   1.832   5.415   4.394  0.4231 -2.0326 -0.5575
  188POPC  H18T21705   1.883   5.553   4.265  3.2408  0.1818 -1.7196
  188POPC   C3321706   2.331   4.589   2.929  0.0339  0.0205 -0.4416
  188POPC   H3X21707   2.434   4.599   2.887 -0.2595  1.0656 -0.9535
  188POPC   H3Y21708   2.286   4.508   2.869 -2.1551  1.2476 -0.5831
  188POPC   C3421709   2.347   4.533   3.078 -0.5349 -0.6903  0.7672
  188POPC   H4X21710   2.437   4.468   3.077 -0.3600 -0.5445 -2.2410
  188POPC   H4Y21711   2.258   4.471   3.105  0.9192 -3.1117  0.2938
  188POPC   C3521712   2.385   4.649   3.178 -0.1821  0.0349  0.5443
  188POPC   H5X21713   2.296   4.711   3.202  0.7493  0.7197  2.4125
  188POPC   H5Y21714   2.461   4.718   3.135  0.5892 -1.1890 -0.1239
  188POPC   C3621715   2.445   4.595   3.304 -0.4115 -0.3657  0.2447
  188POPC   H6X21716   2.542   4.544   3.286 -0.0365  0.9964 -1.9026
  188POPC   H6Y21717   2.378   4.517   3.346 -1.1274  0.9944  1.7221
  188POPC   C3721718   2.483   4.694   3.409 -0.4288 -0.1802 -0.0313
  188POPC   H7X21719   2.388   4.707   3.465 -0.6015 -2.4618  0.3199
  188POPC   H7Y21720   2.517   4.791   3.368 -0.1162 -1.5927 -3.5583
  188POPC   C3821721   2.592   4.652   3.507  0.7108  0.5837  0.3232
  188POPC   H8X21722   2.686   4.640   3.449 -1.2184 -4.7238 -2.3013
  188POPC   H8Y21723   2.570   4.549   3.541  0.9608  0.2677 -0.4439
  188POPC   C3921724   2.619   4.748   3.630  0.0016  0.1478 -0.3963
  188POPC   H9X21725   2.668   4.840   3.592 -0.8034  0.8063  0.1441
  188POPC   H9Y21726   2.686   4.700   3.704 -1.5320 -0.4811  0.6331
  188POPC  C31021727   2.499   4.784   3.718  0.1755 -0.4584 -0.5040
  188POPC  H10X21728   2.430   4.697   3.724  1.5473 -1.5873 -0.5903
  188POPC  H10Y21729   2.448   4.864   3.661  0.2471 -0.1579 -0.1504
  188POPC  C31121730   2.528   4.830   3.858  0.4405  0.3880  0.0235
  188POPC  H11X21731   2.602   4.759   3.902 -1.0864 -0.5501  1.1801
  188POPC  H11Y21732   2.440   4.830   3.926  1.5850  0.5693  1.5536
  188POPC  C31221733   2.584   4.972   3.871  0.1320  0.3354 -0.3547
  188POPC  H12X21734   2.514   5.037   3.815 -0.3821 -0.7702 -1.0285
  188POPC  H12Y21735   2.676   4.989   3.811  0.6967  2.2079  0.9536
  188POPC  C31321736   2.613   5.010   4.013 -0.5561 -0.1808 -0.1585
  188POPC  H13X21737   2.520   5.006   4.072  0.9059  3.4847  2.7912
  188POPC  H13Y21738   2.648   5.116   4.012 -1.3067  0.0956 -2.2754
  188POPC  C31421739   2.718   4.931   4.092  0.4540  0.9606  0.1784
  188POPC  H14X21740   2.807   4.922   4.026 -0.8030  2.0251 -1.7493
  188POPC  H14Y21741   2.666   4.835   4.114 -0.7325  1.8952  1.6316
  188POPC  C31521742   2.742   5.003   4.225 -0.7955 -0.2078 -1.2114
  188POPC  H15X21743   2.649   5.022   4.283 -0.1170 -3.7578  1.3415
  188POPC  H15Y21744   2.788   5.103   4.216 -0.0912 -0.3115  0.8816
  188POPC  C31621745   2.841   4.924   4.309 -0.0574  0.7687 -0.1120
  188POPC  H16X21746   2.930   4.894   4.250 -1.2086 -1.6852 -0.7260
  188POPC  H16Y21747   2.797   4.822   4.321  0.5437  0.1373 -2.7515
  188POPC  H16Z21748   2.875   4.977   4.401 -1.9289  1.1723  0.3900
  189SAPI   C1221749   2.319   2.568   6.619  0.6870  0.0889  0.1747
  189SAPI    H221750   2.292   2.676   6.615 -1.1918 -0.3848 -2.3039
  189SAPI    O221751   2.418   2.547   6.715 -0.0380  0.0289 -0.1629
  189SAPI   HO221752   2.505   2.548   6.673  1.5457  2.1715  2.8139
  189SAPI   C1321753   2.188   2.493   6.654 -0.7339 -0.9646 -0.8136
  189SAPI    H321754   2.116   2.516   6.572 -1.4215  0.8399  0.2259
  189SAPI    O321755   2.127   2.541   6.775 -0.1972 -0.3977  0.0930
  189SAPI   HO321756   2.184   2.503   6.842 -2.0674  2.6006  3.8370
  189SAPI   C1421757   2.220   2.341   6.659  0.2978 -0.6893  0.6693
  189SAPI    H421758   2.267   2.316   6.757  0.5402 -0.8146  0.5221
  189SAPI    O421759   2.099   2.263   6.662  0.2723  0.4027 -0.1098
  189SAPI   HO421760   2.090   2.232   6.752 -1.8646  1.0909 -0.0217
  189SAPI   C1521761   2.319   2.295   6.551 -0.6806  0.1660  0.5955
  189SAPI    H521762   2.255   2.259   6.468  1.2220 -0.7851 -0.5225
  189SAPI    O521763   2.396   2.175   6.585 -0.0898  0.6928  0.0865
  189SAPI   HO521764   2.477   2.188   6.636 -1.2236  1.9630  1.6772
  189SAPI   C1621765   2.413   2.394   6.477 -0.3053 -0.2088  0.4976
  189SAPI    H621766   2.506   2.380   6.537  0.1654 -2.1833 -0.6231
  189SAPI    O621767   2.452   2.346   6.346 -0.1654 -0.7782  0.4639
  189SAPI   HO621768   2.533   2.296   6.356  0.3698 -0.0216  0.0001
  189SAPI   C1121769   2.373   2.539   6.478 -0.3497  0.7705 -0.1502
  189SAPI    H121770   2.287   2.547   6.408 -2.2813  0.1671  2.0022
  189SAPI     P21771   2.475   2.737   6.330 -0.0141 -0.3669 -0.1631
  189SAPI   O1321772   2.555   2.862   6.370 -0.3615  0.4334 -0.5942
  189SAPI   O1421773   2.335   2.754   6.297  0.6098  0.4115  0.3759
  189SAPI   O1221774   2.494   2.624   6.448  0.7446 -0.4951 -0.6869
  189SAPI   O1121775   2.548   2.673   6.210  0.0566 -0.2155 -0.1072
  189SAPI    C121776   2.563   2.745   6.086 -0.6645 -0.7004  0.1367
  189SAPI    HA21777   2.550   2.855   6.088  3.0291 -0.1086 -0.8645
  189SAPI    HB21778   2.671   2.738   6.061 -0.5546  1.6799 -0.2504
  189SAPI    C221779   2.482   2.690   5.966  0.2095  0.5095 -0.0483
  189SAPI    HS21780   2.514   2.753   5.880  1.5505 -1.4184 -1.0323
  189SAPI   O2121781   2.341   2.688   5.987 -0.4257  0.1270  0.1893
  189SAPI   C2121782   2.271   2.799   5.962 -0.1190  0.0271 -1.0296
  189SAPI   O2221783   2.322   2.908   5.948  0.6068  0.1620 -0.5110
  189SAPI   C2221784   2.128   2.764   5.956  0.8901 -0.5025 -0.2606
  189SAPI   H2R21785   2.120   2.654   5.946  1.7549 -0.5209 -0.8383
  189SAPI   H2S21786   2.085   2.801   6.052 -3.0607 -1.6219 -1.4250
  189SAPI    C321787   2.524   2.550   5.927 -0.4840  0.0864 -0.2529
  189SAPI    HX21788   2.526   2.496   6.024 -1.4826  2.1719  1.0039
  189SAPI    HY21789   2.629   2.561   5.893 -0.7039 -0.0001 -0.9858
  189SAPI   O3121790   2.438   2.502   5.821 -0.4422  0.0276  0.2007
  189SAPI   C3121791   2.465   2.535   5.697  0.5397 -0.4527  0.5948
  189SAPI   O3221792   2.550   2.616   5.662 -0.2087 -0.2249 -0.1632
  189SAPI   C3221793   2.367   2.457   5.607 -0.5172 -0.2988  0.0979
  189SAPI   H2X21794   2.263   2.489   5.629  0.3914  1.8966  1.6197
  189SAPI   H2Y21795   2.376   2.354   5.646  0.5544 -1.2654 -2.4698
  189SAPI   C2321796   2.052   2.835   5.844  0.1181 -1.3700  0.6969
  189SAPI   H3R21797   2.074   2.944   5.846 -1.5410 -0.9982  0.0108
  189SAPI   H3S21798   1.943   2.820   5.850  0.0406 -2.0695 -1.6392
  189SAPI   C2421799   2.113   2.792   5.708  0.1348 -0.0045  0.1335
  189SAPI   H4R21800   2.091   2.684   5.695 -0.0070 -0.1180  1.2634
  189SAPI   H4S21801   2.223   2.806   5.706  0.6170 -2.9717 -2.9868
  189SAPI   C2521802   2.043   2.876   5.604  0.4255  0.4794  0.5512
  189SAPI   H5R21803   1.985   2.956   5.650 -1.4717 -1.3472  1.5151
  189SAPI   C2621804   2.025   2.855   5.475 -0.7380 -0.4321 -0.6647
  189SAPI   H6R21805   1.967   2.934   5.425  0.6162  2.2326  1.7065
  189SAPI   C2721806   2.088   2.742   5.394  0.6345 -0.5273 -0.2127
  189SAPI   H7R21807   2.003   2.679   5.362 -0.4613  1.0144 -0.4419
  189SAPI   H7S21808   2.140   2.688   5.476  0.0974  0.5715  0.8696
  189SAPI   C2821809   2.179   2.779   5.281  0.5393 -0.1573  0.3095
  189SAPI   H8R21810   2.256   2.854   5.308  0.6975 -0.7810  1.6744
  189SAPI   C2921811   2.170   2.736   5.155  0.4871  0.2292 -0.5637
  189SAPI   H9R21812   2.237   2.780   5.080  0.5253  2.3795  0.6601
  189SAPI  C21021813   2.064   2.657   5.088  0.5163 -0.0027 -0.0488
  189SAPI  H10R21814   2.008   2.598   5.164  2.7734  1.3001  2.8355
  189SAPI  H10S21815   2.123   2.591   5.021 -1.4787  1.7412 -3.8005
  189SAPI  C21121816   1.966   2.743   5.009 -0.1983 -0.7161 -0.3123
  189SAPI  H11R21817   1.921   2.827   5.065 -2.2306 -0.6420 -1.9497
  189SAPI  C21221818   1.928   2.738   4.881 -0.2583  0.1581  0.5381
  189SAPI  H12R21819   1.852   2.810   4.849  1.8059  2.1463 -0.2255
  189SAPI  C21321820   1.977   2.639   4.776  0.0660  0.1765  0.1121
  189SAPI  H13R21821   2.004   2.546   4.830 -1.0181 -0.7237 -0.8336
  189SAPI  H13S21822   2.068   2.680   4.728  1.8408 -1.8558  1.5289
  189SAPI  C21421823   1.855   2.619   4.683  0.0368  0.8701 -0.6421
  189SAPI  H14R21824   1.757   2.598   4.729  1.3410 -1.0634  1.4801
  189SAPI  C21521825   1.854   2.623   4.552  0.1834 -0.3380 -0.1874
  189SAPI  H15R21826   1.760   2.622   4.494  0.0619  0.3963 -0.0083
  189SAPI  C21621827   1.969   2.659   4.464 -0.5109 -0.3295 -0.1384
  189SAPI  H16R21828   2.007   2.566   4.416 -2.2446 -0.9090 -0.4515
  189SAPI  H16S21829   2.051   2.707   4.521 -1.6448  1.4592  0.0366
  189SAPI  C21721830   1.923   2.755   4.357  0.4022 -0.8064  0.3462
  189SAPI  H17R21831   1.887   2.844   4.414  0.7332 -0.9029  0.7080
  189SAPI  H17S21832   1.836   2.727   4.294  0.3366  1.5245 -0.7341
  189SAPI  C21821833   2.036   2.799   4.260 -0.5473 -0.2639 -0.3827
  189SAPI  H18R21834   2.055   2.720   4.185  1.0219 -0.2991  0.0183
  189SAPI  H18S21835   2.128   2.819   4.318 -0.1721 -0.0021 -1.0652
  189SAPI  C21921836   1.992   2.928   4.180  0.4159  1.1109 -0.5114
  189SAPI  H19R21837   2.075   2.967   4.117  2.1844  0.0751  1.0553
  189SAPI  H19S21838   1.983   3.015   4.249  1.9805  0.5418  0.4658
  189SAPI  C22021839   1.859   2.914   4.109  0.5143  0.3977  0.2614
  189SAPI  H20R21840   1.780   2.884   4.182  0.9222 -1.2999  0.0361
  189SAPI  H20S21841   1.853   2.826   4.042 -0.2354 -0.3070  1.2064
  189SAPI  H20T21842   1.832   3.008   4.057 -0.5965 -0.2304 -0.3321
  189SAPI   C3321843   2.392   2.477   5.454 -0.2979  1.1172 -0.6593
  189SAPI   H3X21844   2.502   2.472   5.438 -0.4183 -2.5584 -1.2254
  189SAPI   H3Y21845   2.344   2.570   5.417 -0.7321  1.2627  0.2472
  189SAPI   C3421846   2.326   2.368   5.376 -0.1552 -0.4072  0.1825
  189SAPI   H4X21847   2.222   2.401   5.356  0.1154  0.1928 -0.2947
  189SAPI   H4Y21848   2.335   2.269   5.426  0.7771  1.1890  3.4645
  189SAPI   C3521849   2.392   2.376   5.231  1.1381  0.1784  0.1020
  189SAPI   H5X21850   2.499   2.345   5.233  1.0241 -0.2344 -0.1103
  189SAPI   H5Y21851   2.387   2.483   5.204 -0.0959  0.2548  0.5959
  189SAPI   C3621852   2.296   2.303   5.137 -0.0381  0.3453 -0.5724
  189SAPI   H6X21853   2.201   2.359   5.124 -1.6547 -1.8439  1.1658
  189SAPI   H6Y21854   2.274   2.201   5.175  0.7321  0.7719  1.0919
  189SAPI   C3721855   2.349   2.297   4.988  1.1152  0.0909 -0.6936
  189SAPI   H7X21856   2.294   2.209   4.947 -0.2760 -0.2353  1.6764
  189SAPI   H7Y21857   2.457   2.273   4.987  0.4441 -3.7887  0.8805
  189SAPI   C3821858   2.311   2.418   4.902 -0.2458  0.0112  0.2309
  189SAPI   H8X21859   2.357   2.511   4.940  0.4565  0.7322 -2.2009
  189SAPI   H8Y21860   2.200   2.428   4.909 -0.4490 -1.2253 -0.6830
  189SAPI   C3921861   2.359   2.400   4.761 -0.4251  0.1911 -0.2397
  189SAPI   H9X21862   2.342   2.299   4.717 -0.5391 -0.3085  0.9239
  189SAPI   H9Y21863   2.469   2.389   4.758 -0.4430 -0.2916  0.6175
  189SAPI  C31021864   2.316   2.520   4.668 -0.1331  0.4297 -0.2996
  189SAPI  H10X21865   2.361   2.616   4.701 -2.8566  1.1094  1.8197
  189SAPI  H10Y21866   2.206   2.533   4.656 -0.5204 -1.4026  0.7672
  189SAPI  C31121867   2.371   2.499   4.529 -0.3024  0.5175 -0.0949
  189SAPI  H11X21868   2.316   2.409   4.495 -0.8010  0.1407  1.6030
  189SAPI  H11Y21869   2.481   2.484   4.537 -0.0818  1.7215 -0.5752
  189SAPI  C31221870   2.344   2.609   4.431 -0.1343 -0.7391  0.6866
  189SAPI  H12X21871   2.413   2.692   4.456 -0.2052 -0.3370 -0.4051
  189SAPI  H12Y21872   2.242   2.651   4.430 -0.3155 -1.1734 -0.0953
  189SAPI  C31321873   2.383   2.573   4.289 -0.1223  0.3716  0.5723
  189SAPI  H13X21874   2.315   2.497   4.245  2.1855 -0.2197 -2.2737
  189SAPI  H13Y21875   2.476   2.512   4.293 -0.4796 -0.2875 -0.5353
  189SAPI  C31421876   2.399   2.681   4.178 -0.8441  0.3665  0.2699
  189SAPI  H14X21877   2.328   2.764   4.198 -0.1743  0.3372  3.2096
  189SAPI  H14Y21878   2.366   2.632   4.084 -0.9299 -1.7140  1.3258
  189SAPI  C31521879   2.549   2.725   4.165  0.2442  0.0719  0.0720
  189SAPI  H15X21880   2.611   2.634   4.174  0.0033 -0.2066 -1.0053
  189SAPI  H15Y21881   2.593   2.784   4.248  0.2545  1.2372 -0.7401
  189SAPI  C31621882   2.584   2.814   4.035  0.8231  0.6297  0.4469
  189SAPI  H16X21883   2.529   2.911   4.028  0.1280  0.1030 -2.9659
  189SAPI  H16Y21884   2.542   2.764   3.946 -1.8375  0.3641  1.7505
  189SAPI  C31721885   2.733   2.833   4.014 -0.6948 -0.5650 -0.1627
  189SAPI  H17X21886   2.749   2.871   3.911  0.1003  1.1388  0.5568
  189SAPI  H17Y21887   2.786   2.735   4.018 -0.3220 -0.3864 -0.6996
  189SAPI  C31821888   2.795   2.928   4.122 -0.2781 -0.2236  0.3555
  189SAPI  H18X21889   2.782   2.895   4.227  1.7492 -0.2049  0.6661
  189SAPI  H18Y21890   2.741   3.025   4.120  2.3019  1.4000  2.4952
  189SAPI  H18Z21891   2.900   2.947   4.091  0.2899 -3.2167  0.1709
  190SAPI   C1221892   1.966   1.345   7.090 -0.3206  0.6714 -0.4927
  190SAPI    H221893   2.014   1.444   7.109 -0.3542  0.4456  0.9274
  190SAPI    O221894   2.040   1.248   7.169  0.1929 -0.1950  0.6164
  190SAPI   HO221895   2.130   1.265   7.142  0.0957  2.0632  1.4152
  190SAPI   C1321896   1.820   1.366   7.138 -0.3252 -0.9584  0.9624
  190SAPI    H321897   1.773   1.431   7.061  1.5963  1.0593  1.4091
  190SAPI    O321898   1.810   1.441   7.260 -0.3541 -0.7030  0.3156
  190SAPI   HO321899   1.818   1.536   7.244 -2.1978 -0.6426 -0.4864
  190SAPI   C1421900   1.747   1.235   7.136  0.0833 -0.3637 -0.4742
  190SAPI    H421901   1.797   1.166   7.206 -0.2839 -1.5756 -1.3642
  190SAPI    O421902   1.614   1.258   7.187 -0.5251 -0.2579 -0.1531
  190SAPI   HO421903   1.621   1.327   7.253 -1.3998  0.8426 -1.1611
  190SAPI   C1521904   1.748   1.168   7.000  0.4711  0.0105  0.1155
  190SAPI    H521905   1.660   1.211   6.947  2.0484  1.1943 -1.6594
  190SAPI    O521906   1.720   1.026   7.009  0.2680 -0.1850  0.6050
  190SAPI   HO521907   1.675   1.005   6.927  2.1299 -1.4134 -0.1689
  190SAPI   C1621908   1.871   1.181   6.916 -0.5095 -0.4856 -0.0470
  190SAPI    H621909   1.942   1.104   6.952  0.7926  0.6504 -0.0875
  190SAPI    O621910   1.845   1.158   6.776 -0.4766  0.6638  0.0336
  190SAPI   HO621911   1.900   1.083   6.755  0.7394  1.4561  0.2788
  190SAPI   C1121912   1.962   1.303   6.944  0.5123 -0.9411  0.1332
  190SAPI    H121913   1.909   1.385   6.891  0.0273 -0.9532  0.5893
  190SAPI     P21914   2.172   1.364   6.787  0.1961  0.1063  0.2091
  190SAPI   O1321915   2.311   1.373   6.838 -0.2490  0.0524  0.3449
  190SAPI   O1421916   2.091   1.486   6.762  0.4371 -0.2935  0.1490
  190SAPI   O1221917   2.090   1.277   6.891 -0.0570 -0.1625  0.4775
  190SAPI   O1121918   2.174   1.271   6.656 -0.1848  0.2049  0.1626
  190SAPI    C121919   2.234   1.141   6.665 -0.0976  0.3326 -0.5473
  190SAPI    HA21920   2.337   1.137   6.707 -1.1742 -1.7393  2.2416
  190SAPI    HB21921   2.182   1.084   6.745  0.6303 -1.1832 -1.1095
  190SAPI    C221922   2.221   1.065   6.536  0.5315 -0.0129  0.7985
  190SAPI    HS21923   2.116   1.044   6.506  1.4512 -1.3208 -1.8601
  190SAPI   O2121924   2.293   0.941   6.553 -0.2084 -0.0940 -0.8684
  190SAPI   C2121925   2.218   0.831   6.568  0.0370 -0.9130 -0.6245
  190SAPI   O2221926   2.096   0.831   6.581  0.2364 -0.3209 -0.1004
  190SAPI   C2221927   2.311   0.712   6.594  0.6034 -0.6828 -0.0701
  190SAPI   H2R21928   2.371   0.689   6.504 -0.2205 -0.4765 -0.6864
  190SAPI   H2S21929   2.383   0.745   6.672  0.1739 -1.7792  0.8169
  190SAPI    C321930   2.277   1.152   6.422 -0.1025 -0.4378  0.0616
  190SAPI    HX21931   2.386   1.160   6.440 -0.3328  0.0125  1.3078
  190SAPI    HY21932   2.246   1.258   6.414  0.7083 -0.2084 -0.1727
  190SAPI   O3121933   2.250   1.092   6.295  0.2602 -0.3175  0.5517
  190SAPI   C3121934   2.127   1.119   6.239 -0.7158 -0.1972 -0.3112
  190SAPI   O3221935   2.042   1.191   6.289  0.0949  0.0092 -0.0040
  190SAPI   C3221936   2.103   1.025   6.118 -0.5617  0.0352 -0.0217
  190SAPI   H2X21937   2.069   0.927   6.156 -1.4646  0.0331 -0.7937
  190SAPI   H2Y21938   2.203   1.010   6.072 -0.9624 -0.3331 -0.7854
  190SAPI   C2321939   2.232   0.591   6.647  0.6093  0.6184 -0.9672
  190SAPI   H3R21940   2.177   0.607   6.742 -0.2367 -1.7578 -0.9827
  190SAPI   H3S21941   2.321   0.526   6.665 -2.0382 -3.3913 -1.0150
  190SAPI   C2421942   2.150   0.508   6.540  0.5641 -0.2472 -0.4264
  190SAPI   H4R21943   2.073   0.578   6.502  0.9628  1.6597  2.0166
  190SAPI   H4S21944   2.111   0.429   6.607  2.2999  0.9500  2.1722
  190SAPI   C2521945   2.242   0.461   6.428  0.0641 -0.2272  0.3224
  190SAPI   H5R21946   2.282   0.363   6.456 -0.8519 -0.1285  2.1530
  190SAPI   C2621947   2.269   0.513   6.304 -0.0262 -0.0735 -0.1538
  190SAPI   H6R21948   2.339   0.468   6.231 -1.0472  2.6912 -3.0575
  190SAPI   C2721949   2.219   0.642   6.249 -0.3588 -0.4036  0.4002
  190SAPI   H7R21950   2.183   0.706   6.333 -1.9313 -0.9401  0.1675
  190SAPI   H7S21951   2.123   0.616   6.199  0.7438 -1.5012 -1.2438
  190SAPI   C2821952   2.303   0.726   6.160  0.7370 -0.4697  1.2129
  190SAPI   H8R21953   2.354   0.814   6.201  1.3566 -0.2835  0.0848
  190SAPI   C2921954   2.336   0.691   6.027  0.1503 -0.3621  0.2161
  190SAPI   H9R21955   2.406   0.748   5.963 -0.8519  0.3577 -0.2808
  190SAPI  C21021956   2.281   0.564   5.970 -0.6843 -0.2626 -0.4727
  190SAPI  H10R21957   2.242   0.598   5.872  2.2740  2.6327 -0.8253
  190SAPI  H10S21958   2.198   0.519   6.027  1.4082 -2.3483  1.1218
  190SAPI  C21121959   2.393   0.467   5.951  0.3213 -0.0410 -0.1324
  190SAPI  H11R21960   2.448   0.428   6.037 -1.0639 -0.2418  0.6955
  190SAPI  C21221961   2.430   0.415   5.837  0.4164 -0.4309  0.0250
  190SAPI  H12R21962   2.512   0.342   5.842  0.6354 -0.3662 -1.8057
  190SAPI  C21321963   2.376   0.446   5.698  0.9343  0.0334  0.2991
  190SAPI  H13R21964   2.379   0.556   5.677 -2.4631  0.0302 -0.9018
  190SAPI  H13S21965   2.265   0.443   5.703  0.9800  0.5900  3.0221
  190SAPI  C21421966   2.429   0.368   5.579 -1.4083  0.4579 -0.4212
  190SAPI  H14R21967   2.450   0.262   5.598 -1.1118  0.6523  0.3813
  190SAPI  C21521968   2.458   0.419   5.459 -0.0779  0.0163 -0.0885
  190SAPI  H15R21969   2.486   0.355   5.374 -0.8602  0.0800 -0.4055
  190SAPI  C21621970   2.428   0.563   5.405 -0.7974 -0.0602 -0.1549
  190SAPI  H16R21971   2.385   0.633   5.480  0.2442 -1.4218  1.8118
  190SAPI  H16S21972   2.343   0.556   5.334 -1.1320  1.2351  0.1059
  190SAPI  C21721973   2.560   0.624   5.355 -0.4814  0.0567  0.2005
  190SAPI  H17R21974   2.601   0.549   5.283  0.2698 -0.2396  0.9274
  190SAPI  H17S21975   2.627   0.630   5.443 -1.8100  0.5719  1.2196
  190SAPI  C21821976   2.532   0.752   5.287 -0.6584 -0.6653  0.6009
  190SAPI  H18R21977   2.496   0.827   5.361 -2.7268 -0.7913 -0.1999
  190SAPI  H18S21978   2.455   0.736   5.209  0.5205  0.1959 -0.8049
  190SAPI  C21921979   2.652   0.806   5.199  0.2555 -0.2476  0.0895
  190SAPI  H19R21980   2.677   0.723   5.130 -1.3996 -0.1801 -0.6602
  190SAPI  H19S21981   2.736   0.826   5.268  0.4852 -2.3827  0.5203
  190SAPI  C22021982   2.620   0.931   5.118 -0.0002  0.8406  0.2046
  190SAPI  H20R21983   2.531   0.917   5.054 -1.1842  3.0809  1.2648
  190SAPI  H20S21984   2.697   0.965   5.046 -2.5002  1.8675 -2.1346
  190SAPI  H20T21985   2.601   1.017   5.186 -3.3476  0.3353  0.0499
  190SAPI   C3321986   2.003   1.082   6.019 -0.7930  0.3389 -0.3653
  190SAPI   H3X21987   2.064   1.151   5.957 -1.9728 -0.3652 -2.3866
  190SAPI   H3Y21988   1.931   1.146   6.073 -0.0363  2.4800 -1.7486
  190SAPI   C3421989   1.922   0.976   5.936  0.1410  0.1327  0.0451
  190SAPI   H4X21990   1.839   0.933   5.996  0.5815 -0.2129  0.4090
  190SAPI   H4Y21991   1.986   0.895   5.897 -0.2032  0.4957 -1.3607
  190SAPI   C3521992   1.876   1.038   5.802  0.2662  0.0358  0.2292
  190SAPI   H5X21993   1.845   0.952   5.738 -1.7169  1.8976 -1.4739
  190SAPI   H5Y21994   1.958   1.083   5.741 -2.7224  2.1115 -2.5746
  190SAPI   C3621995   1.762   1.133   5.810 -0.2371 -0.0574  0.2658
  190SAPI   H6X21996   1.796   1.214   5.878  2.8320 -0.4243 -0.6693
  190SAPI   H6Y21997   1.675   1.088   5.862 -2.5480  1.0313 -2.4100
  190SAPI   C3721998   1.716   1.169   5.670  0.5641 -0.5979  0.1351
  190SAPI   H7X21999   1.620   1.225   5.672  1.1174  0.4096 -0.4538
  190SAPI   H7Y22000   1.692   1.074   5.619  2.5672 -0.9090 -0.2956
  190SAPI   C3822001   1.804   1.253   5.567  0.2915 -0.4684 -0.6290
  190SAPI   H8X22002   1.907   1.213   5.575 -0.4105 -2.2337  0.0870
  190SAPI   H8Y22003   1.811   1.355   5.610  2.4131 -1.3601  1.3402
  190SAPI   C3922004   1.747   1.255   5.420  0.0674  0.0146 -0.1440
  190SAPI   H9X22005   1.820   1.315   5.364  0.4999  1.2978  1.6986
  190SAPI   H9Y22006   1.650   1.308   5.410 -0.0855 -0.1267  0.5357
  190SAPI  C31022007   1.734   1.120   5.350 -0.1411  0.5637 -0.2843
  190SAPI  H10X22008   1.672   1.052   5.413 -2.2769  2.9840  0.4170
  190SAPI  H10Y22009   1.832   1.070   5.339 -0.3666 -0.3356  1.4370
  190SAPI  C31122010   1.666   1.130   5.218  0.2824  0.3704 -0.1751
  190SAPI  H11X22011   1.595   1.216   5.222  1.7976  1.6132  1.2215
  190SAPI  H11Y22012   1.619   1.033   5.192  0.6264  0.0166  0.4864
  190SAPI  C31222013   1.760   1.149   5.097 -0.6375 -0.3337 -0.4324
  190SAPI  H12X22014   1.825   1.060   5.088  1.3945  1.1114 -0.7907
  190SAPI  H12Y22015   1.824   1.237   5.121 -1.8946  0.6267 -0.4511
  190SAPI  C31322016   1.687   1.175   4.966  0.0063 -0.2134 -0.3164
  190SAPI  H13X22017   1.662   1.283   4.973  2.1781  0.1949  2.7485
  190SAPI  H13Y22018   1.589   1.122   4.954 -1.6129  2.7966 -1.4013
  190SAPI  C31422019   1.787   1.156   4.848 -0.2379 -0.2785 -0.7331
  190SAPI  H14X22020   1.847   1.068   4.878 -0.0662  0.0274 -0.1756
  190SAPI  H14Y22021   1.836   1.255   4.839 -2.3446  0.7910 -0.9147
  190SAPI  C31522022   1.733   1.138   4.703 -0.2791  0.3433 -0.2451
  190SAPI  H15X22023   1.682   1.040   4.693 -0.0152 -0.0902  1.9573
  190SAPI  H15Y22024   1.818   1.117   4.635  1.5200  0.8918  1.7173
  190SAPI  C31622025   1.651   1.253   4.642 -0.3939  0.0898 -0.1766
  190SAPI  H16X22026   1.718   1.342   4.639  0.4268 -0.5239 -0.2497
  190SAPI  H16Y22027   1.575   1.271   4.720  0.3476 -0.4320  0.6819
  190SAPI  C31722028   1.601   1.232   4.495 -0.5234  0.9562 -0.8014
  190SAPI  H17X22029   1.546   1.138   4.473 -2.1189  2.2613 -2.6937
  190SAPI  H17Y22030   1.689   1.219   4.428 -1.1264  0.3006 -1.4910
  190SAPI  C31822031   1.522   1.357   4.448 -0.2404  0.4323 -1.0975
  190SAPI  H18X22032   1.423   1.348   4.497  0.4627 -0.9336  0.1476
  190SAPI  H18Y22033   1.509   1.353   4.337 -0.2776  0.8579 -1.1073
  190SAPI  H18Z22034   1.575   1.449   4.480 -1.4220  1.3323 -1.6459
  191SAPI   C1222035   6.161   1.011   1.950  0.0321  0.1364  0.1899
  191SAPI    H222036   6.128   0.911   1.916 -0.7288  0.0569  1.0964
  191SAPI    O222037   6.253   1.052   1.847 -0.3436 -0.2602  0.3618
  191SAPI   HO222038   6.315   0.980   1.836  0.0352 -0.5461  3.4397
  191SAPI   C1322039   6.042   1.108   1.949  0.4660 -0.5648 -0.5200
  191SAPI    H322040   5.982   1.065   2.031  0.5418  0.1875 -0.0653
  191SAPI    O322041   5.967   1.105   1.831  0.3367 -0.8404 -0.3362
  191SAPI   HO322042   6.011   1.169   1.775 -0.1753  1.3848  1.6821
  191SAPI   C1422043   6.096   1.245   1.982 -0.9236 -0.8293  0.4502
  191SAPI    H422044   6.151   1.291   1.897  0.8655 -1.3833  1.2616
  191SAPI    O422045   5.994   1.342   2.001  0.3103  0.0645  0.0229
  191SAPI   HO422046   5.932   1.300   2.061  2.0248 -1.2158  0.9708
  191SAPI   C1522047   6.194   1.255   2.098 -0.2114 -0.2157  0.3393
  191SAPI    H522048   6.121   1.238   2.180  0.4554 -1.7203  0.6548
  191SAPI    O522049   6.255   1.382   2.102  0.2954  0.5624 -0.6009
  191SAPI   HO522050   6.279   1.402   2.192 -2.2512  0.4237  0.1715
  191SAPI   C1622051   6.291   1.139   2.120 -0.3116  0.3837 -0.2343
  191SAPI    H622052   6.375   1.146   2.048 -1.2815 -2.2968 -1.7480
  191SAPI    O622053   6.340   1.143   2.260  0.1309 -1.0759  0.3959
  191SAPI   HO622054   6.434   1.128   2.266  0.2546 -0.2275  0.5601
  191SAPI   C1122055   6.233   1.001   2.086 -0.7168 -0.5630 -0.1612
  191SAPI    H122056   6.158   0.975   2.164 -0.9366  0.8134  0.1065
  191SAPI     P22057   6.325   0.748   2.099  0.2643 -0.3105  0.1314
  191SAPI   O1322058   6.423   0.684   2.008  0.7140  0.0975 -0.4269
  191SAPI   O1422059   6.180   0.712   2.080  0.3228  0.1014 -0.2423
  191SAPI   O1222060   6.345   0.909   2.081  1.0335  0.3060  0.0646
  191SAPI   O1122061   6.370   0.716   2.249  0.0482  0.6907  0.2524
  191SAPI    C122062   6.467   0.788   2.314  0.4598  0.1988 -0.1293
  191SAPI    HA22063   6.551   0.799   2.242 -1.1440  1.1465 -1.9269
  191SAPI    HB22064   6.415   0.883   2.337 -2.2582 -1.8555  3.0326
  191SAPI    C222065   6.511   0.724   2.451 -0.6092  0.1075 -0.5722
  191SAPI    HS22066   6.537   0.620   2.423  1.0117  0.4968 -0.6596
  191SAPI   O2122067   6.396   0.727   2.539 -0.1310  0.8415 -0.0267
  191SAPI   C2122068   6.401   0.640   2.637  0.1746  0.2627  0.4747
  191SAPI   O2222069   6.475   0.545   2.647  0.1352  0.3091  0.1560
  191SAPI   C2222070   6.281   0.676   2.724  0.5878 -0.0235  0.2749
  191SAPI   H2R22071   6.305   0.783   2.742  1.6096 -0.3675  1.0635
  191SAPI   H2S22072   6.188   0.665   2.664  0.8008 -1.9849  0.2362
  191SAPI    C322073   6.632   0.801   2.516  0.0625 -0.0698  0.6641
  191SAPI    HX22074   6.718   0.785   2.447 -0.6269  0.7938 -0.4331
  191SAPI    HY22075   6.659   0.746   2.609  0.5274 -1.7934 -0.4313
  191SAPI   O3122076   6.609   0.942   2.526  0.7307 -0.2566  0.1365
  191SAPI   C3122077   6.560   0.980   2.646 -0.2489  0.2156  0.4959
  191SAPI   O3222078   6.541   0.904   2.741 -0.4897  0.0900 -0.0461
  191SAPI   C3222079   6.522   1.131   2.636  0.7818  0.4652  0.4870
  191SAPI   H2X22080   6.466   1.140   2.541 -1.0999 -2.3962  1.1859
  191SAPI   H2Y22081   6.626   1.171   2.634  1.0190  0.1037  2.8551
  191SAPI   C2322082   6.272   0.599   2.854 -0.1723  0.2366 -0.5042
  191SAPI   H3R22083   6.371   0.603   2.904 -0.1846  0.4481 -0.4971
  191SAPI   H3S22084   6.251   0.490   2.840 -0.7441 -0.1686  2.8085
  191SAPI   C2422085   6.157   0.647   2.946 -1.1058  0.1898 -0.1644
  191SAPI   H4R22086   6.059   0.666   2.898 -1.6289 -1.9762 -0.0651
  191SAPI   H4S22087   6.184   0.751   2.974  0.3935 -0.9010  2.8320
  191SAPI   C2522088   6.133   0.565   3.068  1.1455  0.1440 -0.4394
  191SAPI   H5R22089   6.143   0.456   3.055 -2.2034 -0.3486 -0.0285
  191SAPI   C2622090   6.125   0.596   3.200 -0.6096 -0.0570  0.2592
  191SAPI   H6R22091   6.106   0.504   3.257 -0.7439 -1.7408 -2.3285
  191SAPI   C2722092   6.131   0.730   3.268  0.2531  0.3129  0.3559
  191SAPI   H7R22093   6.038   0.748   3.327 -1.0961  0.1907 -1.6324
  191SAPI   H7S22094   6.141   0.808   3.190  1.6543 -0.8862 -0.7231
  191SAPI   C2822095   6.263   0.737   3.345 -0.1428 -0.2808  0.2946
  191SAPI   H8R22096   6.345   0.769   3.279 -0.5456  0.5047  0.1600
  191SAPI   C2922097   6.288   0.738   3.481  0.1739 -0.6267  0.3692
  191SAPI   H9R22098   6.387   0.767   3.518  0.3721 -0.4198 -0.3080
  191SAPI  C21022099   6.187   0.692   3.580  0.1137  0.4969  0.9064
  191SAPI  H10R22100   6.153   0.589   3.555 -0.5879  0.9585 -0.0618
  191SAPI  H10S22101   6.096   0.754   3.565  0.1128  0.2524 -0.1335
  191SAPI  C21122102   6.229   0.695   3.725  0.4536  0.9445 -0.4970
  191SAPI  H11R22103   6.289   0.607   3.753  0.1487  0.7280 -0.5240
  191SAPI  C21222104   6.200   0.792   3.813 -0.7136  0.3090  0.4389
  191SAPI  H12R22105   6.246   0.781   3.912 -0.0892 -2.5627 -0.0860
  191SAPI  C21322106   6.145   0.930   3.789 -0.1151 -0.6520 -0.2341
  191SAPI  H13R22107   6.137   0.962   3.683 -1.8631  0.8726  0.2880
  191SAPI  H13S22108   6.204   1.010   3.839 -1.2295  1.5143 -2.1515
  191SAPI  C21422109   5.998   0.940   3.840 -0.2648 -0.2855  0.2946
  191SAPI  H14R22110   5.930   0.862   3.802 -0.9685  0.1896  0.5689
  191SAPI  C21522111   5.964   1.042   3.925  0.1000 -0.2547  0.7439
  191SAPI  H15R22112   5.855   1.049   3.936 -0.0083  1.5822 -0.9562
  191SAPI  C21622113   6.038   1.146   4.004  0.0412  0.7925 -0.0840
  191SAPI  H16R22114   6.021   1.243   3.952  1.9331  0.1996 -1.9700
  191SAPI  H16S22115   6.149   1.135   3.996 -0.1584 -1.8584  0.0762
  191SAPI  C21722116   5.995   1.137   4.154  0.3441  0.1228  0.0521
  191SAPI  H17R22117   6.004   1.030   4.180 -2.8623 -0.9756 -2.6923
  191SAPI  H17S22118   5.887   1.161   4.147 -0.6086 -3.6071 -0.1449
  191SAPI  C21822119   6.065   1.225   4.253  0.1679 -0.3296 -0.1512
  191SAPI  H18R22120   6.092   1.321   4.204  0.0034  0.1435  0.6707
  191SAPI  H18S22121   6.162   1.181   4.284 -1.2544 -1.9375  2.3644
  191SAPI  C21922122   5.969   1.264   4.369 -0.7485 -0.0606 -0.3023
  191SAPI  H19R22123   5.872   1.305   4.335 -3.2704 -3.3438  2.2254
  191SAPI  H19S22124   6.016   1.350   4.422  0.2651 -1.2387  0.7663
  191SAPI  C22022125   5.944   1.152   4.467  0.1574 -0.4702  0.3880
  191SAPI  H20R22126   6.042   1.107   4.492  0.2200 -0.5629 -0.0281
  191SAPI  H20S22127   5.876   1.074   4.429 -0.2031 -0.8405  1.7204
  191SAPI  H20T22128   5.902   1.190   4.563 -1.7918 -0.8858 -0.2473
  191SAPI   C3322129   6.448   1.175   2.760  0.3026 -0.6303 -0.8374
  191SAPI   H3X22130   6.476   1.109   2.844 -1.0453  0.8130  0.8311
  191SAPI   H3Y22131   6.338   1.176   2.745  0.0320  0.0310  0.9901
  191SAPI   C3422132   6.484   1.324   2.785 -0.4904  0.4795  0.0888
  191SAPI   H4X22133   6.428   1.389   2.714 -0.5803  0.2395 -0.0606
  191SAPI   H4Y22134   6.594   1.330   2.768 -0.1840 -1.1992  1.2263
  191SAPI   C3522135   6.446   1.369   2.932 -0.7535 -0.2576  0.4267
  191SAPI   H5X22136   6.509   1.299   2.991  1.6745 -0.6695 -2.3872
  191SAPI   H5Y22137   6.337   1.352   2.947 -1.0210 -1.5903 -2.3429
  191SAPI   C3622138   6.472   1.517   2.959  0.1856  0.0233 -0.0673
  191SAPI   H6X22139   6.401   1.587   2.910  1.7362  1.1244 -0.8493
  191SAPI   H6Y22140   6.573   1.547   2.922 -0.4029  1.2168 -0.7822
  191SAPI   C3722141   6.449   1.548   3.112 -0.0288 -0.4279 -0.5194
  191SAPI   H7X22142   6.349   1.520   3.149 -0.3115 -1.1553 -1.7671
  191SAPI   H7Y22143   6.460   1.659   3.116  0.2227 -0.4756  0.2133
  191SAPI   C3822144   6.551   1.490   3.215 -0.1555  0.2608  0.3873
  191SAPI   H8X22145   6.651   1.512   3.172 -0.4760 -0.5551 -0.8289
  191SAPI   H8Y22146   6.539   1.380   3.222  1.2797  0.0779  0.2343
  191SAPI   C3922147   6.535   1.548   3.353  0.5747 -0.5611 -0.1315
  191SAPI   H9X22148   6.430   1.528   3.381  0.6996 -2.3096 -0.7818
  191SAPI   H9Y22149   6.553   1.657   3.362 -2.4760  0.1086 -0.8884
  191SAPI  C31022150   6.624   1.476   3.470  0.1883  0.2552  0.0525
  191SAPI  H10X22151   6.730   1.490   3.443 -0.0777 -0.5128 -1.4855
  191SAPI  H10Y22152   6.592   1.370   3.469  0.7506  0.0851 -0.9524
  191SAPI  C31122153   6.585   1.527   3.604 -0.0781  0.0494 -0.5902
  191SAPI  H11X22154   6.480   1.507   3.633 -0.5755  1.1213 -1.6055
  191SAPI  H11Y22155   6.587   1.637   3.617  1.7695 -0.1203  0.9943
  191SAPI  C31222156   6.682   1.482   3.718  1.3390 -0.1180 -0.5435
  191SAPI  H12X22157   6.775   1.541   3.705 -0.0848  1.9874 -1.9226
  191SAPI  H12Y22158   6.709   1.376   3.699 -0.8926 -0.8002 -0.2961
  191SAPI  C31322159   6.629   1.488   3.862 -0.1333  0.2237 -1.2192
  191SAPI  H13X22160   6.532   1.434   3.867  0.2274 -0.3421 -0.1758
  191SAPI  H13Y22161   6.623   1.594   3.895  0.0226 -0.1930  0.1845
  191SAPI  C31422162   6.719   1.408   3.958 -0.1053  0.2002  0.0327
  191SAPI  H14X22163   6.822   1.450   3.968  0.3674 -1.2032  1.4915
  191SAPI  H14Y22164   6.750   1.314   3.907  2.1698  0.4216  0.8944
  191SAPI  C31522165   6.669   1.393   4.103  0.3877  0.8886 -0.0834
  191SAPI  H15X22166   6.566   1.353   4.096  0.7970 -0.1176 -0.6463
  191SAPI  H15Y22167   6.662   1.493   4.150 -1.4742  0.2140  1.2108
  191SAPI  C31622168   6.757   1.287   4.172 -0.3951 -0.7198 -0.6309
  191SAPI  H16X22169   6.863   1.322   4.172 -0.2578 -0.9808  1.7082
  191SAPI  H16Y22170   6.763   1.182   4.136 -0.0790 -1.5478  1.6491
  191SAPI  C31722171   6.726   1.281   4.321 -0.1787 -0.0001 -0.1612
  191SAPI  H17X22172   6.701   1.379   4.367  1.3131  0.2483  0.1588
  191SAPI  H17Y22173   6.818   1.252   4.377  1.3275  0.3794 -2.3031
  191SAPI  C31822174   6.613   1.184   4.358  0.2657 -0.2268 -0.3267
  191SAPI  H18X22175   6.627   1.081   4.318  1.5784 -0.2316  0.0897
  191SAPI  H18Y22176   6.513   1.225   4.334  1.3850  2.2287 -1.0647
  191SAPI  H18Z22177   6.596   1.175   4.468  1.8768  0.8992  0.0486
  192SAPI   C1222178   6.318   4.808   2.393 -0.5622  0.0769 -0.0650
  192SAPI    H222179   6.337   4.860   2.490  0.7642 -0.3577 -0.0684
  192SAPI    O222180   6.449   4.760   2.355 -0.2728  0.1306 -0.4359
  192SAPI   HO222181   6.514   4.829   2.369  0.0906 -0.5153  1.4767
  192SAPI   C1322182   6.224   4.693   2.427 -0.2052 -0.4359 -0.5247
  192SAPI    H322183   6.128   4.741   2.455  0.5310  1.4101 -0.9797
  192SAPI    O322184   6.268   4.614   2.541  0.2211 -0.0474 -0.2135
  192SAPI   HO322185   6.357   4.582   2.527 -0.6079 -1.8181 -1.9243
  192SAPI   C1422186   6.201   4.605   2.303  0.4916  0.3781 -0.4610
  192SAPI    H422187   6.292   4.544   2.289  0.4038  0.1086  0.1439
  192SAPI    O422188   6.098   4.511   2.327  0.0622  0.1598  0.2431
  192SAPI   HO422189   6.138   4.436   2.372 -0.5057  0.6190  1.5481
  192SAPI   C1522190   6.189   4.684   2.175 -0.4525 -0.3237  0.0927
  192SAPI    H522191   6.079   4.689   2.163 -0.3280 -2.2442 -2.8666
  192SAPI    O522192   6.236   4.608   2.066  0.1955  0.1209  0.0547
  192SAPI   HO522193   6.182   4.634   1.991 -0.1254 -0.1694  0.1874
  192SAPI   C1622194   6.237   4.832   2.170  0.3480  0.4400 -0.2045
  192SAPI    H622195   6.338   4.822   2.125  0.9104  1.2128  0.8537
  192SAPI    O622196   6.168   4.914   2.080 -0.0088 -0.0824  0.3779
  192SAPI   HO622197   6.120   4.984   2.126  0.8531  0.3247  0.6683
  192SAPI   C1122198   6.256   4.899   2.299 -0.0189 -0.2637 -0.4387
  192SAPI    H122199   6.158   4.917   2.347 -0.8236 -0.2598 -1.9982
  192SAPI     P22200   6.472   5.070   2.245  0.1557 -0.3558  0.0729
  192SAPI   O1322201   6.481   5.210   2.283 -0.6014  0.0970 -0.1556
  192SAPI   O1422202   6.501   5.042   2.103  0.8354  0.5574  0.4037
  192SAPI   O1222203   6.322   5.025   2.304 -0.0582 -0.2039 -0.1577
  192SAPI   O1122204   6.573   4.980   2.330  0.4515  0.5235  0.4939
  192SAPI    C122205   6.682   5.046   2.399  0.0353  0.2946 -0.1014
  192SAPI    HA22206   6.739   5.119   2.338  0.7962 -1.5955 -1.7307
  192SAPI    HB22207   6.646   5.110   2.483  0.8619  0.3158  0.2508
  192SAPI    C222208   6.783   4.941   2.464  0.3216  0.0282 -0.2288
  192SAPI    HS22209   6.819   4.878   2.380  2.5805  0.2022  0.5437
  192SAPI   O2122210   6.707   4.856   2.556 -0.3170  0.5234  0.2199
  192SAPI   C2122211   6.726   4.725   2.546  0.8630  0.7748  0.0788
  192SAPI   O2222212   6.813   4.666   2.482 -0.2798  0.5648  0.1050
  192SAPI   C2222213   6.632   4.661   2.659 -0.2102  0.1312 -0.2423
  192SAPI   H2R22214   6.523   4.680   2.642  0.4586  2.8514 -2.3356
  192SAPI   H2S22215   6.647   4.551   2.659  2.6865  0.4416 -0.5707
  192SAPI    C322216   6.904   5.005   2.530  0.4953  0.2629 -0.1893
  192SAPI    HX22217   6.951   5.069   2.452  3.8935  1.1148  2.3220
  192SAPI    HY22218   6.971   4.922   2.561 -0.8501 -0.4365  0.9862
  192SAPI   O3122219   6.868   5.088   2.647 -0.5227 -0.2880 -0.8084
  192SAPI   C3122220   6.911   5.048   2.771 -0.1793  0.2072  0.4874
  192SAPI   O3222221   6.945   4.935   2.800 -0.0010  0.1596 -0.1164
  192SAPI   C3222222   6.877   5.155   2.866  0.9892  0.4846 -0.0399
  192SAPI   H2X22223   6.803   5.124   2.943  1.5252  0.7027  0.5684
  192SAPI   H2Y22224   6.843   5.249   2.817 -0.6048  0.6827  1.3611
  192SAPI   C2322225   6.686   4.715   2.798 -0.0107 -0.2961  0.2081
  192SAPI   H3R22226   6.650   4.820   2.805 -2.3018 -0.9612 -0.4466
  192SAPI   H3S22227   6.796   4.709   2.809  0.1237  1.2809 -0.1222
  192SAPI   C2422228   6.617   4.630   2.914 -0.1544  0.9569  0.4603
  192SAPI   H4R22229   6.665   4.660   3.010  0.9303  0.3721  0.1169
  192SAPI   H4S22230   6.648   4.528   2.884  2.5852  2.3543 -1.9051
  192SAPI   C2522231   6.468   4.649   2.912  0.0416  0.3670 -0.1155
  192SAPI   H5R22232   6.424   4.638   2.812 -1.2848  4.3582 -0.1423
  192SAPI   C2622233   6.396   4.698   3.017 -0.5357 -0.1139  0.7163
  192SAPI   H6R22234   6.290   4.693   2.988  0.1243  1.1887 -2.2969
  192SAPI   C2722235   6.432   4.743   3.152 -0.3215  0.4058 -0.6452
  192SAPI   H7R22236   6.333   4.777   3.189  0.1523  1.3590 -0.2289
  192SAPI   H7S22237   6.492   4.835   3.142 -2.4174  2.1571  1.6595
  192SAPI   C2822238   6.495   4.634   3.238  0.2659  0.5161 -0.4457
  192SAPI   H8R22239   6.530   4.543   3.187  0.7744  0.2260  0.4025
  192SAPI   C2922240   6.491   4.630   3.376  0.1670 -0.5336 -0.0077
  192SAPI   H9R22241   6.538   4.543   3.425 -0.0019 -1.1948 -0.9676
  192SAPI  C21022242   6.458   4.752   3.468 -0.3291  0.5456 -0.3252
  192SAPI  H10R22243   6.353   4.734   3.498  0.5794  0.0750  2.9182
  192SAPI  H10S22244   6.458   4.849   3.413 -0.4130  1.3170  1.0037
  192SAPI  C21122245   6.548   4.758   3.588  0.1039  0.1609 -0.0985
  192SAPI  H11R22246   6.646   4.803   3.566 -1.0434  2.4457 -0.9016
  192SAPI  C21222247   6.520   4.747   3.721 -0.8947  0.1055 -0.6432
  192SAPI  H12R22248   6.611   4.762   3.781  2.1645 -0.4924 -4.7416
  192SAPI  C21322249   6.383   4.721   3.781  0.5328 -0.1025 -0.1063
  192SAPI  H13R22250   6.313   4.666   3.714 -2.5960 -0.3735  3.1005
  192SAPI  H13S22251   6.348   4.824   3.803  1.8325  0.2661  0.3282
  192SAPI  C21422252   6.382   4.636   3.902 -0.0512 -0.6096 -0.3864
  192SAPI  H14R22253   6.343   4.534   3.889 -0.0275 -0.5503 -0.9606
  192SAPI  C21522254   6.410   4.679   4.035 -0.1663 -0.2144  0.0214
  192SAPI  H15R22255   6.392   4.612   4.120 -0.5700  1.1866  1.0796
  192SAPI  C21622256   6.448   4.825   4.071 -0.1937  0.2015 -0.5190
  192SAPI  H16R22257   6.434   4.891   3.983 -1.8162  1.6547  0.7642
  192SAPI  H16S22258   6.549   4.838   4.114 -1.1017  1.1208  1.4754
  192SAPI  C21722259   6.366   4.884   4.183 -0.2097  0.7145  0.4297
  192SAPI  H17R22260   6.263   4.863   4.147  0.3174  1.0680 -1.3585
  192SAPI  H17S22261   6.376   4.994   4.194 -1.4037  0.6125  3.6349
  192SAPI  C21822262   6.382   4.822   4.324  0.2534  0.0666 -0.4705
  192SAPI  H18R22263   6.485   4.839   4.364  0.0954 -0.2253  0.0742
  192SAPI  H18S22264   6.358   4.714   4.311 -1.3351  0.4789 -1.1884
  192SAPI  C21922265   6.282   4.876   4.432  0.0747 -0.4012  0.0443
  192SAPI  H19R22266   6.249   4.792   4.498 -1.2647 -0.5535 -0.7808
  192SAPI  H19S22267   6.190   4.910   4.380  0.2882 -0.3444 -0.2926
  192SAPI  C22022268   6.318   5.003   4.513  0.0185  0.1770  0.2308
  192SAPI  H20R22269   6.413   4.996   4.570 -0.0658 -1.3968  0.2028
  192SAPI  H20S22270   6.242   5.032   4.589  0.1554  1.9991 -0.2616
  192SAPI  H20T22271   6.325   5.090   4.445 -2.5857  0.0791 -0.2571
  192SAPI   C3322272   7.009   5.186   2.944  0.3734  0.1876  0.0497
  192SAPI   H3X22273   7.089   5.230   2.880 -0.7142 -0.3142 -1.7268
  192SAPI   H3Y22274   7.054   5.093   2.985  0.7703 -0.5802 -2.0004
  192SAPI   C3422275   6.984   5.277   3.068  0.8671 -0.6525 -0.1626
  192SAPI   H4X22276   6.938   5.217   3.149  2.4123  0.5819  1.7477
  192SAPI   H4Y22277   6.925   5.368   3.045  0.2416 -1.1804 -0.6650
  192SAPI   C3522278   7.121   5.318   3.124  0.4251  0.1436  0.8308
  192SAPI   H5X22279   7.179   5.355   3.036  0.4481 -2.7357 -0.4700
  192SAPI   H5Y22280   7.163   5.223   3.162  0.5464  0.5119  1.6295
  192SAPI   C3622281   7.123   5.424   3.237  0.4392  0.0821 -0.1849
  192SAPI   H6X22282   7.112   5.521   3.184  0.7334  0.3554  0.2502
  192SAPI   H6Y22283   7.220   5.419   3.292  0.8849 -0.2097 -0.9644
  192SAPI   C3722284   7.008   5.411   3.341  0.8332  0.0250 -0.2864
  192SAPI   H7X22285   7.017   5.318   3.401  0.3465 -0.0697 -0.3566
  192SAPI   H7Y22286   6.903   5.407   3.305  1.0950  0.2462 -1.0902
  192SAPI   C3822287   7.011   5.534   3.439 -0.4024 -0.2172 -0.8506
  192SAPI   H8X22288   6.923   5.524   3.507 -0.3456  1.1337 -0.5416
  192SAPI   H8Y22289   6.983   5.624   3.379 -1.9042 -0.2934 -0.3261
  192SAPI   C3922290   7.129   5.545   3.533  0.6094  0.0542  0.0981
  192SAPI   H9X22291   7.224   5.529   3.478  1.4409 -3.2547  2.2084
  192SAPI   H9Y22292   7.127   5.460   3.604  0.0440  0.0130  0.0393
  192SAPI  C31022293   7.127   5.675   3.614 -0.5607  0.7797  0.2472
  192SAPI  H10X22294   7.053   5.662   3.696  0.1177  1.5315  1.0086
  192SAPI  H10Y22295   7.094   5.763   3.555  0.6713  0.5725 -0.8021
  192SAPI  C31122296   7.269   5.701   3.669 -0.4184 -0.0190 -0.2824
  192SAPI  H11X22297   7.265   5.787   3.739 -1.4134  0.4578 -0.9064
  192SAPI  H11Y22298   7.340   5.721   3.586 -0.2900  3.1510  0.4541
  192SAPI  C31222299   7.321   5.579   3.749 -0.4532 -0.0119 -0.8277
  192SAPI  H12X22300   7.355   5.504   3.674  2.6108 -0.8593  1.2022
  192SAPI  H12Y22301   7.238   5.530   3.804  0.2109  1.5833  1.7790
  192SAPI  C31322302   7.437   5.609   3.850 -0.2553 -0.0964  0.2160
  192SAPI  H13X22303   7.471   5.524   3.911 -0.8160  0.2203  0.9943
  192SAPI  H13Y22304   7.410   5.688   3.924 -0.9423  0.5423 -0.6854
  192SAPI  C31422305   7.572   5.640   3.783  0.4443 -0.3910 -0.3751
  192SAPI  H14X22306   7.556   5.750   3.773 -2.8194 -0.8386 -1.4452
  192SAPI  H14Y22307   7.582   5.586   3.687 -1.8317 -1.3866 -0.1232
  192SAPI  C31522308   7.699   5.597   3.858 -0.2491  0.1174  0.3698
  192SAPI  H15X22309   7.788   5.642   3.810 -0.2596  2.0941  2.0511
  192SAPI  H15Y22310   7.714   5.487   3.849  2.2120  0.2680  1.8327
  192SAPI  C31622311   7.700   5.642   4.011 -0.3235  0.1332 -0.2093
  192SAPI  H16X22312   7.781   5.596   4.072 -2.0401 -1.7718  0.7354
  192SAPI  H16Y22313   7.607   5.597   4.052 -0.0268 -0.3313 -0.0368
  192SAPI  C31722314   7.711   5.794   4.029 -0.3201  0.3849 -0.2896
  192SAPI  H17X22315   7.626   5.840   3.974 -0.8206  0.8183  0.8197
  192SAPI  H17Y22316   7.802   5.845   3.993  0.4085 -1.6863 -1.5574
  192SAPI  C31822317   7.670   5.834   4.174 -0.1082  0.2180  0.7176
  192SAPI  H18X22318   7.650   5.943   4.175 -0.7051  0.1516  2.8327
  192SAPI  H18Y22319   7.757   5.808   4.238 -0.5637 -1.9453  0.5476
  192SAPI  H18Z22320   7.585   5.774   4.214  0.1489 -0.9347 -0.4027
  193SOD    SOD22321   0.528   2.718   7.807  0.1707 -0.2478 -0.0979
  194SOD    SOD22322   4.412   0.313   0.807  0.1534 -0.2515 -0.4981
  195SOD    SOD22323   1.851   5.716   0.889 -0.4130  0.0189  0.2912
  196SOD    SOD22324   2.355   4.619   6.374 -0.0931 -0.4469 -0.1367
  197SOD    SOD22325   1.528   2.140   8.162 -0.7891  0.0849 -0.4033
  198SOD    SOD22326   0.117   6.706   7.449 -0.0800 -0.1841  0.2094
  199SOD    SOD22327   4.098   6.716   1.731  0.2334  0.1797  0.4163
  200SOD    SOD22328   2.544   0.224   7.597  0.2704  0.1898 -0.2879
  201SOD    SOD22329   4.257   6.723   7.178 -0.0757 -0.0719 -0.3509
  202SOD    SOD22330   4.175   1.224   7.089 -0.1105 -0.1664 -0.0437
  203SOD    SOD22331   4.574   3.591   1.689  0.3220 -0.0430  0.2714
  204SOD    SOD22332   6.391   0.243   1.649 -0.0024  0.4664  0.4924
  205SOD    SOD22333   0.294   4.037   6.787  0.2109  0.1650 -0.1644
  206SOD    SOD22334   0.749   0.534   6.522 -0.7132 -0.1130  0.2963
  207SOD    SOD22335   0.467   5.496   8.346 -0.3053 -0.0151 -0.1315
  208SOD    SOD22336   0.339   6.708   0.549  0.2934  0.4327 -0.3171
  209SOD    SOD22337   5.082   1.578   7.262  0.3189  0.2903 -0.3545
  210SOD    SOD22338   6.576   2.651   1.821  0.0206  0.3189 -0.4644
  211SOD    SOD22339   6.691   6.480   1.840 -0.4103 -0.2527  0.1798
  212SOD    SOD22340   2.558   0.303   2.336 -0.7791 -0.0457 -0.0309
  213SOD    SOD22341   3.716   2.677   7.329 -0.2458  0.1529  0.2632
  214SOD    SOD22342   0.085   1.541   7.123 -0.3285  0.1820  0.0303
  215SOD    SOD22343   6.664   0.650   0.720  0.3343 -0.5737 -0.0292
  216SOD    SOD22344   5.016   2.949   2.213 -0.2040 -0.3016  0.2263
  217SOD    SOD22345   2.585   3.784   7.507  0.2363 -0.5526 -0.4318
  218SOD    SOD22346   3.132   1.009   8.422  0.2610 -0.2452  0.3618
  219SOD    SOD22347   6.324   3.979   8.345  0.1084  0.2551  0.2131
  220SOD    SOD22348   1.620   3.263   1.956  0.3521 -0.0823  0.4355
  221SOD    SOD22349   3.275   4.792   8.596  0.0166  0.1876  0.3407
  222SOD    SOD22350   0.035   0.029   2.178 -0.1217 -0.3962  0.1501
  223SOD    SOD22351   3.689   1.799   1.568 -0.0097 -0.0148  0.5451
  224SOD    SOD22352   1.045   3.458   7.969  0.3334 -0.0752 -0.1587
  225SOD    SOD22353   6.156   3.346   7.090 -0.3235 -0.0383 -0.3186
  226SOD    SOD22354   4.841   6.033   7.779  0.5703  0.2757  0.2535
  227SOD    SOD22355   4.272   5.528   1.012 -0.0648  0.2432  0.2460
  228SOD    SOD22356   2.127   4.505   2.547  0.9778 -0.2200 -0.0262
  229SOD    SOD22357   0.200   0.462   8.432 -0.1409  0.0811  0.5447
  230CLA    CLA22358   1.458   5.137   0.313  0.0866  0.1990 -0.0910
  231CLA    CLA22359   0.025   3.568   8.762 -0.1035  0.1306 -0.1946
  232CLA    CLA22360   1.934   2.343   7.976  0.5170 -0.5478 -0.1413
  233CLA    CLA22361   3.255   2.623   7.395  0.2684  0.4913 -0.0878
  234CLA    CLA22362   6.296   5.778   1.310  0.1393 -0.0490  0.2094
  235CLA    CLA22363   6.326   2.419   0.914 -0.3321 -0.2523  0.0497
  236CLA    CLA22364   1.824   5.394   0.348 -0.3210 -0.3017  0.0865
  237CLA    CLA22365   3.716   5.333   0.052  0.0651 -0.1507  0.0357
  238CLA    CLA22366   3.523   2.947   8.376 -0.0791  0.1677  0.0104
  239CLA    CLA22367   4.288   0.341   8.027  0.1556 -0.3390  0.2179
  240CLA    CLA22368   6.655   0.067   1.186  0.3262  0.2509 -0.3723
  241CLA    CLA22369   5.298   1.797   8.921 -0.4606 -0.1577 -0.0710
  242CLA    CLA22370   6.268   3.729   7.315  0.0203 -0.1314  0.2976
  243CLA    CLA22371   4.777   4.768   7.633  0.1143  0.1459  0.0028
  244CLA    CLA22372   2.049   1.207   7.932 -0.5245  0.4432  0.2365
  245CLA    CLA22373   1.895   2.582   0.144  0.4789 -0.0676  0.3088
  246CLA    CLA22374   0.666   6.178   8.214 -0.3394  0.4888 -0.2867
  247TIP3   OH222375   4.629   4.918   7.270  0.2436  0.1619  0.5795
  247TIP3    H122376   4.651   4.943   7.181 -0.6621  1.3718  0.6588
  247TIP3    H222377   4.646   4.997   7.322  0.0237 -0.2788  1.3493
  248TIP3   OH222378   5.831   2.692   0.432 -0.3232  0.3190 -0.4191
  248TIP3    H122379   5.882   2.637   0.373  0.9032 -0.4871  1.3113
  248TIP3    H222380   5.740   2.676   0.407  0.1128 -0.8914 -1.3336
  249TIP3   OH222381   1.670   0.442   1.486  0.3391  0.0399 -0.2510
  249TIP3    H122382   1.631   0.392   1.558  1.4352 -1.0308 -0.3588
  249TIP3    H222383   1.706   0.520   1.527 -2.3152  1.3535 -0.2279
  250TIP3   OH222384   6.086   1.735   2.375  0.0916  0.4490  0.0068
  250TIP3    H122385   6.066   1.641   2.368 -0.0163  0.0636  3.6284
  250TIP3    H222386   6.013   1.778   2.331 -0.4596 -1.1111 -0.7045
  251TIP3   OH222387   5.219   0.007   0.075  0.2869  0.2684 -0.2945
  251TIP3    H122388   5.163  -0.068   0.054 -0.4437  0.0331  2.1452
  251TIP3    H222389   5.306  -0.019   0.047 -0.1038 -1.1639 -0.2543
  252TIP3   OH222390   3.115   3.895   0.107  0.2006  0.0010  0.1357
  252TIP3    H122391   3.095   3.923   0.017  0.3349 -0.8995 -0.1850
  252TIP3    H222392   3.031   3.867   0.143 -0.0496  1.3459  0.6730
  253TIP3   OH222393   2.716   2.124   1.552 -1.0778  0.0450  0.2927
  253TIP3    H122394   2.705   2.100   1.460 -2.8035  1.2285  0.1417
  253TIP3    H222395   2.635   2.170   1.575  0.6483  2.7897  1.4226
  254TIP3   OH222396   5.478   6.333   8.127  0.2500 -0.7515  0.5705
  254TIP3    H122397   5.474   6.366   8.037  0.3057 -2.5386 -0.1328
  254TIP3    H222398   5.439   6.403   8.180 -0.3842  0.0738 -0.9145
  255TIP3   OH222399   2.384   4.865   1.103 -0.3636  0.3806  0.1006
  255TIP3    H122400   2.448   4.822   1.046 -0.5243  0.0327  0.1788
  255TIP3    H222401   2.428   4.872   1.187 -0.8995 -1.0764  0.5231
  256TIP3   OH222402   0.472   0.065   1.165 -0.0738  0.5707  0.1133
  256TIP3    H122403   0.377   0.063   1.179 -0.4852  1.4023 -2.0697
  256TIP3    H222404   0.493  -0.022   1.131  0.0567  0.1859  1.1723
  257TIP3   OH222405   1.364   5.894   1.415 -0.3925  0.7083  0.2253
  257TIP3    H122406   1.434   5.937   1.465  1.3280 -1.4789 -0.1169
  257TIP3    H222407   1.292   5.886   1.477  0.7243  0.4353  1.5642
  258TIP3   OH222408   5.201   6.374   2.578 -0.1293 -0.1615  0.0794
  258TIP3    H122409   5.260   6.412   2.645 -1.4463 -1.7013  2.2428
  258TIP3    H222410   5.244   6.293   2.552  0.1229  0.1785 -0.5791
  259TIP3   OH222411   0.111   1.527   1.497 -0.3492 -0.3961  0.1085
  259TIP3    H122412   0.197   1.565   1.515 -1.2429  1.5923  0.5749
  259TIP3    H222413   0.124   1.473   1.419  1.4475 -0.7154  0.5887
  260TIP3   OH222414   1.560   1.523   0.444  0.3326 -0.3971  0.0833
  260TIP3    H122415   1.564   1.568   0.359 -0.9753 -1.2785 -0.4773
  260TIP3    H222416   1.637   1.554   0.491 -0.8018  2.9590 -0.0044
  261TIP3   OH222417   0.470   6.362   0.454  0.1206  0.2123  0.6112
  261TIP3    H122418   0.430   6.275   0.451  2.0542 -0.8788  3.3839
  261TIP3    H222419   0.555   6.351   0.412  1.0997  0.2681  2.4858
  262TIP3   OH222420   5.188   2.228   7.340  0.1943 -0.0794 -0.3244
  262TIP3    H122421   5.203   2.193   7.428 -0.9198  0.3912  0.0667
  262TIP3    H222422   5.206   2.321   7.347 -0.1808  0.0092 -0.5250
  263TIP3   OH222423   5.949   5.118   0.601  0.0965 -0.1666 -0.0105
  263TIP3    H122424   5.943   5.075   0.516 -1.7367  0.8669 -0.4788
  263TIP3    H222425   5.860   5.114   0.636  0.6317  0.1790  1.4819
  264TIP3   OH222426   3.753   3.269   1.816  0.0847  0.2091  0.2771
  264TIP3    H122427   3.796   3.185   1.832 -1.5216 -0.8355 -0.7025
  264TIP3    H222428   3.821   3.334   1.834  1.8806 -1.3431 -0.5714
  265TIP3   OH222429   2.081   4.051   6.097  0.6300  0.2548  0.2996
  265TIP3    H122430   2.111   4.140   6.081  1.2014 -0.1453 -0.9428
  265TIP3    H222431   2.158   4.005   6.130  0.6395 -0.0569 -0.1488
  266TIP3   OH222432   5.907   6.607   1.455 -0.0767  0.0513  0.0482
  266TIP3    H122433   5.869   6.670   1.517 -1.5842 -0.6283 -0.1350
  266TIP3    H222434   5.843   6.601   1.385 -0.4655 -2.4018  0.5280
  267TIP3   OH222435   2.932   3.878   8.504 -0.0234  0.5990 -0.5031
  267TIP3    H122436   2.855   3.821   8.507  1.0284 -0.8946 -0.6798
  267TIP3    H222437   2.899   3.963   8.533 -1.7254  0.0031 -0.5215
  268TIP3   OH222438   1.333   1.386   7.734  0.1336 -0.1364  0.2601
  268TIP3    H122439   1.261   1.340   7.691 -0.4307 -1.2918  2.2866
  268TIP3    H222440   1.410   1.365   7.682 -0.5796 -1.0891 -0.4367
  269TIP3   OH222441   3.804   4.459   0.931 -0.2641  0.1713 -0.3604
  269TIP3    H122442   3.769   4.517   0.864  0.8006  1.9231  0.5406
  269TIP3    H222443   3.806   4.373   0.890 -0.1781  1.0897 -2.3608
  270TIP3   OH222444   2.006   5.631   1.474 -0.6098 -0.1850  0.6437
  270TIP3    H122445   1.939   5.564   1.458 -1.0159  0.1878  0.7801
  270TIP3    H222446   2.087   5.581   1.484 -0.6854 -0.5777 -0.5181
  271TIP3   OH222447   4.985   5.899   8.650 -0.6063 -0.3836 -0.2679
  271TIP3    H122448   5.030   5.983   8.642 -1.5620  0.2676  0.8539
  271TIP3    H222449   4.896   5.915   8.620 -0.8859 -0.9120  0.2460
  272TIP3   OH222450   6.664   1.565   6.923 -0.3362  0.0203 -0.4030
  272TIP3    H122451   6.571   1.589   6.923  0.0692  1.7279 -0.8824
  272TIP3    H222452   6.703   1.623   6.858  1.2689  0.0985  0.5904
  273TIP3   OH222453   3.693   2.214   2.091  0.1593  0.2287  0.0470
  273TIP3    H122454   3.735   2.297   2.116 -0.2641  0.7881 -1.0486
  273TIP3    H222455   3.652   2.183   2.172  2.1269 -0.0399  1.0263
  274TIP3   OH222456   1.089   5.345   0.498  0.4459  0.1440 -1.0615
  274TIP3    H122457   1.013   5.382   0.453  0.8437 -1.0093 -2.7821
  274TIP3    H222458   1.085   5.252   0.478  2.0938  0.0010 -0.8399
  275TIP3   OH222459   2.706   2.339   2.680 -0.1557 -0.7840  0.4283
  275TIP3    H122460   2.781   2.397   2.692  1.3476 -2.2700 -1.2169
  275TIP3    H222461   2.636   2.398   2.650  0.3713  0.5998  1.7787
  276TIP3   OH222462   1.133   0.289   1.136 -0.7871  0.5034  0.5354
  276TIP3    H122463   1.131   0.380   1.105  0.0016 -0.4796 -2.7025
  276TIP3    H222464   1.048   0.253   1.110 -1.5832  0.5168  2.8433
  277TIP3   OH222465   3.528   5.451   0.733 -0.0298 -0.5779 -0.0367
  277TIP3    H122466   3.497   5.481   0.648 -0.8966 -2.2940 -0.3785
  277TIP3    H222467   3.449   5.441   0.786  0.5156  0.6534  1.0570
  278TIP3   OH222468   0.235   1.001   2.431  0.0907 -0.0590 -0.1514
  278TIP3    H122469   0.250   0.907   2.421 -0.4051 -0.2077  0.4274
  278TIP3    H222470   0.169   1.007   2.500 -2.0577  0.5986 -2.1529
  279TIP3   OH222471   6.324   0.284   0.996 -0.2738  0.1299 -0.0278
  279TIP3    H122472   6.340   0.353   1.061 -0.8934  0.7027 -0.4688
  279TIP3    H222473   6.231   0.289   0.977 -0.3692 -0.9865  0.0912
  280TIP3   OH222474   2.591   2.269   7.751  0.1974 -0.2925  0.0326
  280TIP3    H122475   2.546   2.310   7.824 -0.1671  0.0125 -0.3605
  280TIP3    H222476   2.645   2.201   7.791 -4.0387 -3.9917  0.2542
  281TIP3   OH222477   2.464   5.283   0.248  0.0621  0.0623 -0.1474
  281TIP3    H122478   2.388   5.337   0.268 -0.2926  0.9166 -3.3165
  281TIP3    H222479   2.438   5.194   0.274 -0.5172  0.8768  2.2712
  282TIP3   OH222480   3.174   1.600   6.342 -0.1773  0.1725 -0.6638
  282TIP3    H122481   3.169   1.678   6.286 -1.1098 -0.6193 -1.7249
  282TIP3    H222482   3.132   1.531   6.290 -0.2972 -0.7932  0.6847
  283TIP3   OH222483   4.449   0.940   2.006 -0.3595  0.3174  0.0761
  283TIP3    H122484   4.514   1.006   1.981  0.3325 -0.5847 -0.5293
  283TIP3    H222485   4.498   0.859   2.014 -1.1443 -0.0797  1.1745
  284TIP3   OH222486   3.731   6.337   8.503 -0.6124 -0.8532 -0.1435
  284TIP3    H122487   3.821   6.321   8.532 -1.2570 -1.4396  1.7433
  284TIP3    H222488   3.698   6.250   8.477 -0.2695 -0.4417 -2.1125
  285TIP3   OH222489   6.114   0.689   7.932 -0.0611 -0.1742 -0.1726
  285TIP3    H122490   6.022   0.702   7.909  0.5948  2.1555 -1.8365
  285TIP3    H222491   6.163   0.736   7.864  2.4190 -2.0585  0.1588
  286TIP3   OH222492   3.643   5.232   8.713  0.1144 -0.3803  0.1442
  286TIP3    H122493   3.620   5.139   8.723  0.3459 -0.5460 -0.8410
  286TIP3    H222494   3.668   5.259   8.802 -0.1722 -1.1942  0.4890
  287TIP3   OH222495   3.049   6.243   1.380 -0.3669 -0.4123  0.3530
  287TIP3    H122496   2.986   6.171   1.378 -2.1571  1.1001 -0.1837
  287TIP3    H222497   3.108   6.225   1.307 -1.4190 -0.8152 -0.4272
  288TIP3   OH222498   1.201   3.966   0.068  0.0233 -0.0274  0.2523
  288TIP3    H122499   1.252   3.890   0.040 -0.0916  0.0051 -0.0425
  288TIP3    H222500   1.267   4.032   0.090  0.1048  0.1597 -0.5360
  289TIP3   OH222501   5.232   2.885   8.340  0.3243 -0.1038  0.1136
  289TIP3    H122502   5.179   2.842   8.274  0.6196 -2.6224  1.3636
  289TIP3    H222503   5.301   2.930   8.291  0.1160 -1.2851 -1.3186
  290TIP3   OH222504   3.459   2.943   8.710 -1.0908  0.6984 -0.4847
  290TIP3    H122505   3.380   2.996   8.722 -2.0163 -0.9166  0.9634
  290TIP3    H222506   3.461   2.926   8.616 -2.0624  1.3503 -0.6516
  291TIP3   OH222507   1.437   3.529   1.055 -0.3896 -0.0603 -0.4780
  291TIP3    H122508   1.446   3.625   1.050 -0.1410 -0.0943 -0.7420
  291TIP3    H222509   1.351   3.515   1.092  0.1733  0.2869  1.0211
  292TIP3   OH222510   5.323   5.777   0.197 -0.2503  0.1600 -0.2476
  292TIP3    H122511   5.246   5.809   0.245 -0.0389  1.5522 -0.7849
  292TIP3    H222512   5.383   5.852   0.196 -0.4806  0.4154 -3.1682
  293TIP3   OH222513   0.284   6.464   0.663 -0.8106  0.5567  0.2299
  293TIP3    H122514   0.223   6.402   0.703 -0.7380  0.7916  0.7048
  293TIP3    H222515   0.350   6.408   0.621 -1.7194  0.2910 -0.8857
  294TIP3   OH222516   4.807   6.666   7.783 -0.5338 -0.0530  0.1297
  294TIP3    H122517   4.814   6.585   7.731 -0.8971  0.0799 -0.1290
  294TIP3    H222518   4.717   6.667   7.814 -0.1433 -0.4746  1.3539
  295TIP3   OH222519   5.531   5.435   1.720 -0.0239 -0.4824  0.0987
  295TIP3    H122520   5.587   5.474   1.788 -1.0073  0.0789  0.6120
  295TIP3    H222521   5.500   5.511   1.669 -0.8765 -0.7196  0.2603
  296TIP3   OH222522   5.009   1.710   8.108 -0.3568 -0.5126 -0.6389
  296TIP3    H122523   5.082   1.649   8.095 -1.1932 -1.5473 -0.6206
  296TIP3    H222524   4.942   1.658   8.151 -1.0600  0.4653 -0.5239
  297TIP3   OH222525   2.267   5.862   7.772  0.2245 -0.0238  0.3339
  297TIP3    H122526   2.266   5.848   7.867 -0.1396  1.5479  0.5938
  297TIP3    H222527   2.357   5.890   7.753  0.6444 -1.5398 -0.0010
  298TIP3   OH222528   5.785   3.974   8.203 -0.2633  0.0477  0.3061
  298TIP3    H122529   5.716   4.031   8.237 -0.0866  0.2045  0.4050
  298TIP3    H222530   5.854   4.034   8.175  0.1214 -0.1289  0.8413
  299TIP3   OH222531   6.476   1.930   8.622  0.4196  0.4990 -0.0944
  299TIP3    H122532   6.482   1.874   8.700 -0.0648  1.1397  0.4137
  299TIP3    H222533   6.555   1.983   8.625  0.4916  0.3952 -0.1429
  300TIP3   OH222534   2.808   6.522   7.473 -0.3871  0.1116  0.0823
  300TIP3    H122535   2.785   6.570   7.394  0.2000  0.1455 -0.0675
  300TIP3    H222536   2.738   6.457   7.483  0.4838 -1.1064 -1.4627
  301TIP3   OH222537   1.129   1.282   6.471  0.0349  0.8784  0.5854
  301TIP3    H122538   1.166   1.369   6.455  1.7105  0.1853  0.4885
  301TIP3    H222539   1.174   1.251   6.549  0.0060 -0.2004  0.1850
  302TIP3   OH222540   4.016   2.181   8.871 -0.0596 -0.1604  0.4907
  302TIP3    H122541   3.939   2.171   8.815 -0.0869  0.8774  0.3222
  302TIP3    H222542   4.026   2.275   8.880  0.0608 -0.3078  2.0878
  303TIP3   OH222543   1.595   1.838   2.136  0.2985  0.2951  0.2181
  303TIP3    H122544   1.518   1.832   2.192  0.4363  0.1814  0.4001
  303TIP3    H222545   1.666   1.864   2.195  0.2932  0.9334 -0.0482
  304TIP3   OH222546   3.503   5.491   7.494 -0.1023  0.6011  0.0890
  304TIP3    H122547   3.476   5.402   7.471  2.0899 -0.2873  0.6891
  304TIP3    H222548   3.547   5.523   7.416  0.5914  0.5031  0.4360
  305TIP3   OH222549   2.452   2.285   8.780 -0.1389 -0.1712  0.3468
  305TIP3    H122550   2.479   2.290   8.689 -1.5302 -0.6770 -0.1167
  305TIP3    H222551   2.508   2.347   8.825  1.9167 -1.3068 -0.4976
  306TIP3   OH222552   3.088   2.136   8.698  0.3810 -0.1375 -0.0138
  306TIP3    H122553   3.045   2.075   8.758  1.2261 -1.8336 -1.0562
  306TIP3    H222554   3.059   2.109   8.611  0.5621  1.1387 -0.4878
  307TIP3   OH222555   2.864   3.162   7.188  0.2440  0.1414  0.0297
  307TIP3    H122556   2.830   3.112   7.262 -1.5890  1.8285  0.4247
  307TIP3    H222557   2.959   3.152   7.193  0.1755  0.1420  2.5984
  308TIP3   OH222558   4.864   6.735   2.634 -0.0796  0.3203  0.5474
  308TIP3    H122559   4.789   6.754   2.690 -0.4211  0.6300  0.0031
  308TIP3    H222560   4.865   6.640   2.625  0.8719  0.1201  2.2636
  309TIP3   OH222561   5.389   3.507   1.470  0.1645 -0.2902  0.4794
  309TIP3    H122562   5.400   3.586   1.523 -1.7387 -0.0708  0.6229
  309TIP3    H222563   5.371   3.539   1.382 -2.5820 -0.4341  0.9158
  310TIP3   OH222564   2.589   4.654   7.701  0.2340 -0.3009  0.2922
  310TIP3    H122565   2.626   4.566   7.708 -0.6441 -0.7888 -0.9535
  310TIP3    H222566   2.647   4.700   7.642  0.3211 -0.2550  0.4143
  311TIP3   OH222567   5.163   5.124   7.595 -0.3762 -0.0228 -0.4015
  311TIP3    H122568   5.095   5.058   7.581  0.0025 -0.1220 -1.8848
  311TIP3    H222569   5.174   5.167   7.510  3.3010 -1.8681 -1.0930
  312TIP3   OH222570   0.199   6.153   1.307  0.2090 -0.2827  0.3677
  312TIP3    H122571   0.122   6.139   1.363  0.1909 -0.2607  0.3481
  312TIP3    H222572   0.165   6.193   1.228 -0.3167 -3.5221 -1.2204
  313TIP3   OH222573   2.063   3.891   7.883 -0.6409  0.2008  0.1641
  313TIP3    H122574   1.997   3.891   7.813 -1.6172  0.7056  1.0488
  313TIP3    H222575   2.016   3.925   7.960  0.1646 -1.0857  1.2817
  314TIP3   OH222576   1.784   3.109   1.879 -0.2900 -0.5539  0.0332
  314TIP3    H122577   1.768   3.025   1.920  0.1928 -1.3418 -1.3184
  314TIP3    H222578   1.879   3.112   1.865 -0.4250 -0.3103 -0.9506
  315TIP3   OH222579   6.686   6.298   7.867 -0.0854  0.3758  0.3657
  315TIP3    H122580   6.594   6.290   7.892 -0.5930 -0.5157 -1.6223
  315TIP3    H222581   6.727   6.219   7.901 -0.8020 -0.9031 -1.5917
  316TIP3   OH222582   6.173   2.694   8.402 -0.0747 -0.1794 -0.3032
  316TIP3    H122583   6.147   2.756   8.333 -0.7197 -0.6969 -0.5301
  316TIP3    H222584   6.094   2.643   8.420  0.0853 -0.0502  0.8324
  317TIP3   OH222585   3.019   3.716   1.237 -0.4961  0.2615  0.3040
  317TIP3    H122586   3.034   3.628   1.203 -1.2453  0.3769 -0.3451
  317TIP3    H222587   3.080   3.723   1.311 -1.5146 -1.3759  1.3784
  318TIP3   OH222588   1.172   0.118   8.132 -0.3397  0.2865 -0.2704
  318TIP3    H122589   1.081   0.113   8.160  0.3143  2.0500  2.5394
  318TIP3    H222590   1.185   0.210   8.108  0.8895  0.2586  0.1756
  319TIP3   OH222591   1.164   5.873   6.450  0.1919 -0.2049  0.2165
  319TIP3    H122592   1.093   5.928   6.417 -0.9342 -1.3939  0.5532
  319TIP3    H222593   1.238   5.892   6.392 -0.6199  0.5261 -0.6149
  320TIP3   OH222594   5.298   1.479   1.649  0.4169  0.3386  0.2429
  320TIP3    H122595   5.205   1.478   1.630 -0.2215 -0.5217  2.9782
  320TIP3    H222596   5.333   1.401   1.604 -0.1737  0.5949 -0.6802
  321TIP3   OH222597   3.932   0.600   8.190  0.6230  0.3339 -0.0342
  321TIP3    H122598   4.007   0.574   8.243  1.2271 -1.2186 -1.5473
  321TIP3    H222599   3.869   0.635   8.252  1.5789 -0.7409  1.6087
  322TIP3   OH222600   6.765   5.171   1.180  0.2776 -0.0772 -0.7038
  322TIP3    H122601   6.810   5.116   1.244  0.3992  1.6308  0.7821
  322TIP3    H222602   6.813   5.254   1.183  0.2366  0.0851 -3.0028
  323TIP3   OH222603   5.552   4.168   1.285 -0.3219 -0.1232  0.2566
  323TIP3    H122604   5.569   4.077   1.307  1.3768 -0.3667 -1.6922
  323TIP3    H222605   5.530   4.167   1.192 -3.5448  1.1614  0.8796
  324TIP3   OH222606   0.798   1.240   0.971 -0.4457 -0.2122 -0.0527
  324TIP3    H122607   0.730   1.294   1.010  0.4155  1.0896 -0.2778
  324TIP3    H222608   0.753   1.192   0.902 -1.0576  1.0344 -0.5664
  325TIP3   OH222609   0.304   3.744   8.160  0.4916 -0.2250  0.1040
  325TIP3    H122610   0.331   3.831   8.130 -0.8951 -0.0550 -0.7399
  325TIP3    H222611   0.325   3.686   8.088 -1.4905 -0.0515 -0.6833
  326TIP3   OH222612   1.187   0.516   0.448 -0.4984  0.1484 -0.1939
  326TIP3    H122613   1.159   0.580   0.514  0.4705 -0.8614  1.2679
  326TIP3    H222614   1.267   0.553   0.411  0.8750 -0.7704  1.6644
  327TIP3   OH222615   3.340   2.518   1.507  0.2318 -0.1057 -0.4978
  327TIP3    H122616   3.400   2.484   1.573  1.7683  1.5163 -0.9848
  327TIP3    H222617   3.282   2.444   1.487 -0.2906 -0.6673  2.6005
  328TIP3   OH222618   6.460   3.825   8.459  0.1624 -0.8635 -0.4423
  328TIP3    H122619   6.546   3.846   8.497  0.2852  0.6885 -1.4738
  328TIP3    H222620   6.470   3.738   8.422  1.0624 -1.0055  0.1021
  329TIP3   OH222621   6.481   0.016   7.930 -0.5228 -0.1167  0.0357
  329TIP3    H122622   6.518   0.076   7.995  0.5806  1.0502 -1.5888
  329TIP3    H222623   6.500  -0.071   7.964 -0.3519  0.4496  1.4731
  330TIP3   OH222624   5.056   4.347   0.172 -0.1038 -0.3383 -0.2059
  330TIP3    H122625   5.062   4.411   0.242 -0.7791 -0.3106 -0.1692
  330TIP3    H222626   5.146   4.338   0.140  0.6487 -2.0067  2.1187
  331TIP3   OH222627   0.835   1.030   7.112  0.3425 -0.0582  0.2635
  331TIP3    H122628   0.915   1.080   7.097  1.6322 -1.5320  1.8671
  331TIP3    H222629   0.808   1.054   7.201 -1.3004  0.7494 -0.4030
  332TIP3   OH222630   5.110   2.361   7.842  0.7803 -0.1997  0.1576
  332TIP3    H122631   5.109   2.366   7.937  1.7063 -0.1212  0.1747
  332TIP3    H222632   5.138   2.448   7.813  0.0572 -0.0789 -0.2096
  333TIP3   OH222633   3.155   6.203   0.637  0.6077  0.0155 -0.2366
  333TIP3    H122634   3.219   6.269   0.609  0.8120  0.3619  0.9712
  333TIP3    H222635   3.110   6.243   0.712  0.1939 -0.9214  0.0394
  334TIP3   OH222636   0.057   3.699   0.685 -0.1797 -0.1169 -0.0083
  334TIP3    H122637   0.030   3.607   0.684 -0.5061 -0.0940  2.4365
  334TIP3    H222638   0.147   3.698   0.715 -0.3739  0.3975  0.6034
  335TIP3   OH222639   1.235   1.195   0.245  0.5491 -0.2053  0.2015
  335TIP3    H122640   1.147   1.232   0.250  0.0044 -1.4138 -0.2601
  335TIP3    H222641   1.242   1.159   0.157  1.2548 -0.7299  0.4616
  336TIP3   OH222642   1.031   1.019   0.692  0.1038  0.0034 -0.0308
  336TIP3    H122643   1.039   1.088   0.758  0.3487  1.6694 -1.7289
  336TIP3    H222644   1.120   0.988   0.678  0.1924  0.3979 -0.3436
  337TIP3   OH222645   5.140   2.035   2.525  0.0846  0.7342  0.3411
  337TIP3    H122646   5.103   1.948   2.511 -1.3615  1.2528  0.6830
  337TIP3    H222647   5.228   2.019   2.557  0.0087 -0.5937 -0.0317
  338TIP3   OH222648   5.424   6.700   7.477  0.3907  0.3550  0.5797
  338TIP3    H122649   5.359   6.641   7.440  0.5205  0.1599  0.6624
  338TIP3    H222650   5.397   6.711   7.568  0.9290 -0.3688  0.8320
  339TIP3   OH222651   6.312   2.888   0.911 -0.1486 -0.3046 -0.4387
  339TIP3    H122652   6.382   2.931   0.863  1.2018 -2.9556 -1.0247
  339TIP3    H222653   6.248   2.863   0.843 -0.2354 -0.4589 -0.3007
  340TIP3   OH222654   2.313   4.046   8.341  0.3595  0.6547 -0.7006
  340TIP3    H122655   2.245   4.088   8.394 -0.4565 -1.2566 -0.1337
  340TIP3    H222656   2.393   4.056   8.393  0.4288  2.3271 -1.0576
  341TIP3   OH222657   0.077   4.735   8.326 -0.2072  0.0665 -0.6835
  341TIP3    H122658  -0.010   4.696   8.337 -0.9993  1.4625 -1.7137
  341TIP3    H222659   0.103   4.763   8.413 -1.3771  0.8020 -0.5511
  342TIP3   OH222660   0.972   4.265   0.432 -0.5655 -0.2447 -0.0488
  342TIP3    H122661   0.940   4.196   0.374 -2.4293 -1.2267  2.0257
  342TIP3    H222662   1.058   4.234   0.461  0.4565  0.3079 -2.2156
  343TIP3   OH222663   6.368   4.126   8.536 -0.4007 -0.4240  0.0516
  343TIP3    H122664   6.335   4.082   8.615  1.6937 -0.4334  0.9739
  343TIP3    H222665   6.421   4.198   8.569  0.3114 -0.2666 -1.3662
  344TIP3   OH222666   2.653   1.255   8.894 -0.5422 -0.5865  0.3970
  344TIP3    H122667   2.589   1.210   8.950 -1.8522 -1.2528 -1.5376
  344TIP3    H222668   2.661   1.342   8.933 -3.0887 -0.2755  0.4018
  345TIP3   OH222669   5.631   1.330   6.999 -0.3855  0.0046 -0.7220
  345TIP3    H122670   5.692   1.351   6.928  0.1202 -2.2014 -1.0425
  345TIP3    H222671   5.545   1.330   6.957 -0.1981 -0.3270 -1.1185
  346TIP3   OH222672   4.565   6.280   0.564 -0.0356  0.1330  0.0911
  346TIP3    H122673   4.639   6.337   0.543 -1.1125  1.2408 -0.8839
  346TIP3    H222674   4.573   6.206   0.504  1.3636 -0.7954  1.3544
  347TIP3   OH222675   3.741   5.407   0.495 -0.1571 -0.4189 -0.5874
  347TIP3    H122676   3.753   5.418   0.589  1.2917 -0.1357 -0.7852
  347TIP3    H222677   3.696   5.323   0.486  0.3463 -0.7948  0.3293
  348TIP3   OH222678   0.598   4.156   1.019 -0.0804  0.1428 -0.7076
  348TIP3    H122679   0.510   4.183   1.045  0.3652  1.3549 -0.3552
  348TIP3    H222680   0.634   4.233   0.975  0.5900 -0.5515 -1.4054
  349TIP3   OH222681   1.817   5.191   1.529 -0.1127 -0.5575  0.0742
  349TIP3    H122682   1.774   5.157   1.451  0.6825 -1.9508  0.2054
  349TIP3    H222683   1.851   5.113   1.573  2.3382  0.4255  0.0923
  350TIP3   OH222684   2.178   1.022   7.261  0.2224  0.2033  0.5251
  350TIP3    H122685   2.114   1.086   7.230  0.4029  0.3158  0.3855
  350TIP3    H222686   2.214   1.062   7.340  2.0326  1.3643 -0.8252
  351TIP3   OH222687   1.820   0.169   6.703 -0.3655 -0.6282 -0.4699
  351TIP3    H122688   1.766   0.176   6.781  0.4163  2.0486 -0.0739
  351TIP3    H222689   1.906   0.143   6.735 -0.7413 -2.4407 -0.8267
  352TIP3   OH222690   4.876   6.402   7.384  0.2617  0.0133  0.5178
  352TIP3    H122691   4.868   6.484   7.335  0.6873 -0.0795  0.2927
  352TIP3    H222692   4.796   6.354   7.364  0.8077 -0.3878 -0.7738
  353TIP3   OH222693   5.309   3.704   7.515  0.5645  0.5693 -0.6177
  353TIP3    H122694   5.227   3.654   7.513  1.1374 -0.5328  1.1859
  353TIP3    H222695   5.365   3.661   7.451  0.3750  0.1239 -0.4886
  354TIP3   OH222696   3.700   1.329   0.519  0.7602 -0.3856  0.3990
  354TIP3    H122697   3.641   1.256   0.503 -0.9448  1.2217 -1.0221
  354TIP3    H222698   3.653   1.406   0.488  3.0052  1.1796  0.6139
  355TIP3   OH222699   2.072   0.032   8.684 -0.2931 -0.4056 -0.1071
  355TIP3    H122700   2.137  -0.010   8.740  1.0382 -0.4979 -1.6368
  355TIP3    H222701   2.060  -0.029   8.611 -1.7369 -0.1491 -0.1228
  356TIP3   OH222702   2.908   6.447   8.921 -0.3135 -0.1599 -0.0547
  356TIP3    H122703   2.933   6.539   8.935 -0.3715 -0.1916  0.2574
  356TIP3    H222704   2.898   6.440   8.826 -0.7775  0.2778 -0.0412
  357TIP3   OH222705   3.344   6.199   1.916 -0.5904  0.5622  0.4705
  357TIP3    H122706   3.259   6.171   1.882 -0.3531  0.3313  0.0553
  357TIP3    H222707   3.395   6.118   1.921 -0.6644  0.5587  1.5270
  358TIP3   OH222708   3.319   3.262   7.793  0.4965  0.6302  0.0256
  358TIP3    H122709   3.241   3.311   7.766  0.7603  0.3689 -1.3048
  358TIP3    H222710   3.340   3.296   7.880 -0.4220  1.5310 -0.0826
  359TIP3   OH222711   3.561   3.230   2.054 -0.1415  0.2671 -0.4430
  359TIP3    H122712   3.600   3.253   1.970  1.0231 -1.1135 -0.3246
  359TIP3    H222713   3.500   3.159   2.034 -0.0142  0.0762 -0.1622
  360TIP3   OH222714   5.629   3.081   8.486  0.0926 -0.2019 -0.3807
  360TIP3    H122715   5.556   3.143   8.478 -1.4636 -1.9970 -0.6788
  360TIP3    H222716   5.588   2.995   8.489  2.1980 -1.2658 -0.1073
  361TIP3   OH222717   5.296   1.182   7.281  0.3648  0.0435 -0.0428
  361TIP3    H122718   5.360   1.126   7.239  2.0048  1.8728 -0.1274
  361TIP3    H222719   5.268   1.244   7.213  0.8101  1.1558  0.7543
  362TIP3   OH222720   4.094   5.749   1.355 -0.4234 -0.2355 -0.6457
  362TIP3    H122721   3.998   5.744   1.364 -0.4014  1.6013  1.7665
  362TIP3    H222722   4.109   5.833   1.311  0.0747 -0.2210 -0.4531
  363TIP3   OH222723   3.513   5.513   2.416  0.1287 -0.4527 -0.0407
  363TIP3    H122724   3.589   5.570   2.427 -1.5600  2.1965 -1.0558
  363TIP3    H222725   3.534   5.459   2.340  0.1911  1.7893 -1.6868
  364TIP3   OH222726   0.389   6.151   0.729  0.2430 -0.1568 -0.5650
  364TIP3    H122727   0.467   6.125   0.682 -0.1092 -0.1575 -1.1554
  364TIP3    H222728   0.417   6.225   0.784  0.7004 -0.2916 -0.6165
  365TIP3   OH222729   5.693   3.095   8.858  0.4499  0.1800  0.1122
  365TIP3    H122730   5.730   3.183   8.848  0.5307  0.0875 -0.4384
  365TIP3    H222731   5.724   3.065   8.944 -0.4253  1.0828  0.7550
  366TIP3   OH222732   0.165   5.946   7.695  0.7697  0.1958 -0.5672
  366TIP3    H122733   0.207   5.987   7.770 -0.1809 -3.1000  1.9832
  366TIP3    H222734   0.074   5.976   7.699  0.7457  0.1103 -0.4741
  367TIP3   OH222735   4.305   0.611   7.879 -0.3896  0.5345  0.4228
  367TIP3    H122736   4.219   0.643   7.906 -1.3015  0.6247 -2.2807
  367TIP3    H222737   4.317   0.529   7.927 -1.5011  1.0273  1.5986
  368TIP3   OH222738   2.449   5.978   1.138 -0.7090  0.0408  0.8199
  368TIP3    H122739   2.465   6.006   1.048 -1.2259  1.6197  1.1844
  368TIP3    H222740   2.511   6.027   1.191 -1.4858  0.3500  1.4714
  369TIP3   OH222741   5.669   2.583   1.846 -0.7672  0.4810  0.1891
  369TIP3    H122742   5.577   2.566   1.867 -1.0437 -0.5997 -1.6777
  369TIP3    H222743   5.715   2.564   1.927 -2.3152  2.8180  1.7313
  370TIP3   OH222744   5.614   5.999   1.482  0.0749 -0.2336  0.6446
  370TIP3    H122745   5.649   6.015   1.394 -0.3504  1.6266  0.7748
  370TIP3    H222746   5.675   6.045   1.541 -0.0702 -0.8252  1.2686
  371TIP3   OH222747   3.593   4.200   7.185  0.1017  0.3093  0.0753
  371TIP3    H122748   3.613   4.203   7.092 -0.3665 -1.1233 -0.0990
  371TIP3    H222749   3.527   4.268   7.198  0.3455  0.6824 -0.5898
  372TIP3   OH222750   4.451   0.808   7.756  0.5961 -0.2098  0.2583
  372TIP3    H122751   4.400   0.735   7.790  0.0252  0.2304  0.3529
  372TIP3    H222752   4.445   0.800   7.661 -1.1013  0.8218  0.2424
  373TIP3   OH222753   2.807   1.993   0.447 -0.5943  0.2220  0.0493
  373TIP3    H122754   2.837   1.913   0.490  0.7263  0.8799  0.3902
  373TIP3    H222755   2.723   2.012   0.488 -2.4118 -2.5283 -2.0094
  374TIP3   OH222756   5.199   4.565   1.687 -0.2317  0.0502 -0.2156
  374TIP3    H122757   5.158   4.489   1.728 -0.3326  0.2517  0.0602
  374TIP3    H222758   5.142   4.586   1.614 -0.4475  0.1315 -0.0268
  375TIP3   OH222759   2.986   0.299   0.634 -0.4259  0.0665 -0.5948
  375TIP3    H122760   3.010   0.243   0.708 -0.1838 -0.2646 -0.9214
  375TIP3    H222761   2.890   0.299   0.634 -0.4674  1.3805  0.7070
  376TIP3   OH222762   4.815   5.136   0.470  0.2717 -0.5814  0.4640
  376TIP3    H122763   4.908   5.118   0.460  0.5747  1.4164 -0.9163
  376TIP3    H222764   4.812   5.218   0.520 -0.7225 -0.4083  0.1435
  377TIP3   OH222765   1.303   6.186   7.313  0.4969  0.2496  0.1383
  377TIP3    H122766   1.223   6.142   7.341  0.7168 -0.5708 -0.4937
  377TIP3    H222767   1.309   6.169   7.220  1.5388  0.0829  0.2254
  378TIP3   OH222768   1.723   1.188   0.010 -0.9976 -0.2850  0.2274
  378TIP3    H122769   1.795   1.166   0.069 -0.0438  0.5170 -0.5800
  378TIP3    H222770   1.652   1.215   0.068 -0.4612 -0.5617  1.0338
  379TIP3   OH222771   1.704   6.769   8.382  0.1501 -0.1993  0.2773
  379TIP3    H122772   1.615   6.798   8.363 -0.6145 -1.2915  1.9728
  379TIP3    H222773   1.713   6.686   8.335 -0.4010 -1.0081  1.5677
  380TIP3   OH222774   2.158   6.175   6.686  0.1280 -0.4711  0.4881
  380TIP3    H122775   2.242   6.181   6.732 -0.4825 -1.3198  1.7835
  380TIP3    H222776   2.119   6.094   6.718 -0.9248 -0.3949 -0.5509
  381TIP3   OH222777   2.689   5.175   7.420  1.0547 -0.2752  0.0433
  381TIP3    H122778   2.693   5.116   7.345 -0.0381 -0.7123  0.3043
  381TIP3    H222779   2.678   5.262   7.382 -0.5393 -0.6015 -0.3290
  382TIP3   OH222780   4.250   2.046   1.276  0.1949 -0.5999 -0.0417
  382TIP3    H122781   4.213   2.053   1.188  1.7344 -2.1008 -0.8579
  382TIP3    H222782   4.316   2.116   1.280  1.1537 -1.4546 -0.6394
  383TIP3   OH222783   1.033   0.693   0.604 -0.6843 -0.1094  0.3876
  383TIP3    H122784   1.036   0.634   0.679 -1.8258 -0.7014 -0.0071
  383TIP3    H222785   0.941   0.693   0.577 -0.5085  1.0376 -0.2712
  384TIP3   OH222786   6.684   6.396   6.923  0.1021 -0.3465 -0.5781
  384TIP3    H122787   6.611   6.444   6.963 -0.5848 -1.6142 -0.2527
  384TIP3    H222788   6.760   6.451   6.938 -0.6628  0.6520 -0.2531
  385TIP3   OH222789   0.696   6.775   1.586  0.5634  0.3892  0.2507
  385TIP3    H122790   0.647   6.851   1.617 -1.4959 -0.8619  0.3153
  385TIP3    H222791   0.645   6.700   1.619  2.0353 -0.9994 -0.5335
  386TIP3   OH222792   1.290   1.252   2.149  0.6766  0.1799  0.3342
  386TIP3    H122793   1.236   1.299   2.213  1.7963  1.3431  0.4627
  386TIP3    H222794   1.299   1.313   2.076  0.1269 -0.8060 -0.5909
  387TIP3   OH222795   4.770   3.125   1.661  0.1629  0.0319 -0.0051
  387TIP3    H122796   4.746   3.098   1.573 -1.3704 -0.7660  0.6160
  387TIP3    H222797   4.837   3.064   1.688  0.6782  0.3146 -0.6284
  388TIP3   OH222798   1.515   6.000   8.768  0.2951 -0.2112  0.3245
  388TIP3    H122799   1.475   5.971   8.685  1.0121  0.5182 -0.2862
  388TIP3    H222800   1.570   6.074   8.744  0.6314 -0.0810  1.4423
  389TIP3   OH222801   2.540   4.650   2.256  0.5159 -0.2347  0.1637
  389TIP3    H122802   2.489   4.608   2.325  0.8435  1.2862  1.3868
  389TIP3    H222803   2.483   4.721   2.225  0.4168 -0.8379 -1.0719
  390TIP3   OH222804   2.641   4.121   7.197  0.0708  0.0640 -0.5980
  390TIP3    H122805   2.547   4.131   7.210  0.2941  2.2247 -0.2837
  390TIP3    H222806   2.666   4.053   7.260 -1.1803 -0.0890 -0.2362
  391TIP3   OH222807   4.968   4.286   7.559  0.3854  0.1379  0.2326
  391TIP3    H122808   4.938   4.364   7.513 -0.3638 -0.7508 -0.8715
  391TIP3    H222809   4.890   4.229   7.562  1.0152 -0.7264  0.6386
  392TIP3   OH222810   1.022   1.851   7.866 -0.5845  0.4277  0.3354
  392TIP3    H122811   1.012   1.868   7.959  0.3827  0.2203  0.4883
  392TIP3    H222812   0.937   1.874   7.828 -1.9695 -2.1322  1.6359
  393TIP3   OH222813   5.043   3.099   1.202 -0.0782 -0.2857  0.5577
  393TIP3    H122814   5.088   3.014   1.196  0.3070 -0.1293  1.1115
  393TIP3    H222815   5.115   3.163   1.200 -0.4586  0.2032 -2.5631
  394TIP3   OH222816   3.145   2.860   1.243  0.0613  0.2502 -0.1839
  394TIP3    H122817   3.182   2.866   1.156 -0.7895  0.2477 -0.5619
  394TIP3    H222818   3.206   2.909   1.299  1.8573 -1.7007 -0.3340
  395TIP3   OH222819   2.539   4.822   0.702 -0.4387 -0.0503 -0.3139
  395TIP3    H122820   2.578   4.799   0.786 -0.4357 -0.9706 -0.5537
  395TIP3    H222821   2.462   4.766   0.695  0.6356 -1.4545 -1.7736
  396TIP3   OH222822   4.417   5.818   0.225  0.5961 -0.6675 -0.0366
  396TIP3    H122823   4.482   5.751   0.243 -0.5288 -1.2411  2.2964
  396TIP3    H222824   4.367   5.784   0.151  0.5426 -2.0933  0.6110
  397TIP3   OH222825   6.720   6.383   1.247 -0.4138 -0.3148 -0.3443
  397TIP3    H122826   6.688   6.450   1.308  0.8227  0.2853 -0.3200
  397TIP3    H222827   6.704   6.300   1.292  1.2745  0.1582  1.2142
  398TIP3   OH222828   2.206   6.597   1.295  0.1029  0.3847  0.1555
  398TIP3    H122829   2.147   6.559   1.359 -0.4470 -1.2066 -1.2399
  398TIP3    H222830   2.273   6.530   1.281 -0.0377  0.5125 -1.2545
  399TIP3   OH222831   1.516   6.489   7.574 -0.0914  0.4423 -0.1588
  399TIP3    H122832   1.588   6.475   7.513 -1.1015 -0.2281 -1.2434
  399TIP3    H222833   1.437   6.489   7.519 -0.9284  1.2213  0.9752
  400TIP3   OH222834   4.128   6.298   7.607  0.4529  0.0848  0.1264
  400TIP3    H122835   4.196   6.278   7.543  0.1533 -1.3754  0.2301
  400TIP3    H222836   4.150   6.245   7.683 -1.3225 -1.2118 -0.1968
  401TIP3   OH222837   1.364   4.144   1.964 -0.0914  0.3918 -0.5116
  401TIP3    H122838   1.288   4.086   1.966  1.6461 -2.1263 -1.4409
  401TIP3    H222839   1.420   4.112   2.035  1.4254  0.1102 -1.7742
  402TIP3   OH222840   3.958   4.992   8.916 -0.2661 -0.0667  0.2444
  402TIP3    H122841   3.953   4.908   8.870 -0.2061  0.8781 -1.5624
  402TIP3    H222842   4.049   4.996   8.947 -0.2735 -0.6773  0.3554
  403TIP3   OH222843   3.747   2.739   8.740  0.5512 -0.0875  0.0774
  403TIP3    H122844   3.792   2.657   8.720  1.4280  0.3727  0.1432
  403TIP3    H222845   3.671   2.739   8.681  1.1422 -0.4338 -0.7087
  404TIP3   OH222846   6.662   4.902   0.883 -0.6018  0.2350  0.4437
  404TIP3    H122847   6.604   4.926   0.955  1.2089 -0.1249  2.0670
  404TIP3    H222848   6.657   4.806   0.880  1.3410  0.0337  1.9063
  405TIP3   OH222849   0.839   6.133   8.772  0.0867  0.1462 -0.1469
  405TIP3    H122850   0.840   6.037   8.771 -0.9980  0.1073 -1.5653
  405TIP3    H222851   0.756   6.156   8.729  1.1546  1.7237 -1.4909
  406TIP3   OH222852   4.464   2.707   8.723 -0.2777  0.0811 -0.3899
  406TIP3    H122853   4.511   2.784   8.691  0.6274 -0.0741  0.5322
  406TIP3    H222854   4.383   2.706   8.672 -1.0014  2.4737  0.5983
  407TIP3   OH222855   1.748   2.619   0.858  0.0752 -0.3136 -0.0893
  407TIP3    H122856   1.827   2.673   0.871 -0.8125  0.6800  1.5344
  407TIP3    H222857   1.755   2.550   0.924 -0.9407  0.4510  0.8464
  408TIP3   OH222858   3.484   0.958   1.409 -0.6451  0.1006  0.6463
  408TIP3    H122859   3.409   0.961   1.349 -0.6329  0.6036  0.6506
  408TIP3    H222860   3.513   1.049   1.416  0.3581 -0.1617  0.1602
  409TIP3   OH222861   3.079   5.072   2.183  0.8871  0.5132  0.0516
  409TIP3    H122862   3.138   4.997   2.173 -0.9998 -1.4282  2.0742
  409TIP3    H222863   3.077   5.113   2.097 -0.1052 -3.4725 -2.0770
  410TIP3   OH222864   1.147   1.996   6.376  0.1734  0.1380 -0.4001
  410TIP3    H122865   1.159   1.965   6.286 -1.1859 -1.4512 -0.0703
  410TIP3    H222866   1.053   1.991   6.391  0.5090 -1.3317  1.6770
  411TIP3   OH222867   0.405   4.203   8.958 -0.2267  0.0587  0.2045
  411TIP3    H122868   0.459   4.224   9.034  2.4119  0.2282 -1.5808
  411TIP3    H222869   0.376   4.113   8.975  0.2929  0.0926  1.4246
  412TIP3   OH222870   2.625   6.412   0.261 -0.0655 -0.3921 -0.1700
  412TIP3    H122871   2.667   6.458   0.334 -1.0615 -0.6285  0.5765
  412TIP3    H222872   2.543   6.460   0.247 -0.1632 -0.7143 -0.7336
  413TIP3   OH222873   4.090   3.301   8.199  0.0176 -0.4777  0.1709
  413TIP3    H122874   4.009   3.294   8.149  0.3271  3.0381 -1.1027
  413TIP3    H222875   4.064   3.349   8.278  0.7940  0.5824 -0.2019
  414TIP3   OH222876   2.832   5.232   2.296  0.3841  0.4890  0.0402
  414TIP3    H122877   2.912   5.187   2.273 -0.8634 -2.4210  0.9312
  414TIP3    H222878   2.791   5.177   2.363 -2.6813  1.4327 -0.8560
  415TIP3   OH222879   1.590   2.214   1.412  0.4218 -0.2340  0.0823
  415TIP3    H122880   1.567   2.300   1.446 -1.3883  0.1530 -1.9042
  415TIP3    H222881   1.538   2.205   1.332 -0.4321 -3.6825  0.8765
  416TIP3   OH222882   3.750   2.009   7.975 -0.1546  0.3571 -0.1447
  416TIP3    H122883   3.793   2.089   7.946  0.6849  0.2303  0.6824
  416TIP3    H222884   3.815   1.940   7.960 -0.6662 -0.0927 -0.3484
  417TIP3   OH222885   0.563   5.088   6.794 -0.0105 -0.0916  0.7491
  417TIP3    H122886   0.610   5.116   6.716  1.6542  0.0877  1.7528
  417TIP3    H222887   0.503   5.020   6.764  0.0317  0.5229 -0.7904
  418TIP3   OH222888   5.643   4.832   8.425  0.0525 -0.1335  0.1404
  418TIP3    H122889   5.579   4.818   8.356 -0.3828  1.5127  0.1822
  418TIP3    H222890   5.714   4.881   8.383 -0.6595  1.7692  1.0196
  419TIP3   OH222891   3.761   0.207   7.880 -0.3160 -0.1352 -0.0244
  419TIP3    H122892   3.772   0.294   7.918  3.3382 -0.3891 -0.1999
  419TIP3    H222893   3.728   0.224   7.791 -0.8852  0.9472  0.3757
  420TIP3   OH222894   3.637   4.637   7.973 -0.5888 -0.0833  0.2436
  420TIP3    H122895   3.590   4.676   7.899 -0.8086  0.1900  0.5273
  420TIP3    H222896   3.700   4.577   7.932 -0.0626  0.7606 -0.2135
  421TIP3   OH222897   0.002   6.078   8.675 -0.0316 -0.0304 -0.0753
  421TIP3    H122898   0.045   5.993   8.688  1.2973  0.7524  0.8799
  421TIP3    H222899  -0.084   6.055   8.640 -0.5943 -1.9345  2.2193
  422TIP3   OH222900   4.524   1.758   7.540 -0.1829 -0.4788  0.2305
  422TIP3    H122901   4.541   1.819   7.469  0.3454 -1.2896 -0.3442
  422TIP3    H222902   4.541   1.809   7.620  0.7575 -0.0319 -0.2476
  423TIP3   OH222903   4.234   2.793   7.381 -0.0529 -0.4392  0.1430
  423TIP3    H122904   4.228   2.700   7.401 -1.5436 -0.6800 -1.1914
  423TIP3    H222905   4.277   2.796   7.295  0.9501  0.1887  0.6465
  424TIP3   OH222906   3.578   1.572   0.398  0.7815 -0.1214 -0.3437
  424TIP3    H122907   3.517   1.628   0.447 -1.9766 -3.6566  0.6868
  424TIP3    H222908   3.536   1.560   0.313  1.5262 -0.3238 -0.6836
  425TIP3   OH222909   3.748   3.058   2.470  0.7260  1.0136 -0.6405
  425TIP3    H122910   3.662   3.026   2.442 -0.0181  1.4239  1.0467
  425TIP3    H222911   3.765   3.133   2.413 -1.1793  2.4170  0.5182
  426TIP3   OH222912   1.363   2.398   0.205  0.0007  0.5075  0.1280
  426TIP3    H122913   1.386   2.487   0.231 -1.8543  1.1306 -0.1625
  426TIP3    H222914   1.384   2.344   0.281  2.3942  0.9445 -0.1635
  427TIP3   OH222915   5.038   1.666   0.593 -0.2061 -0.4324  0.0293
  427TIP3    H122916   5.000   1.746   0.558 -2.6645 -1.0200  1.1827
  427TIP3    H222917   5.067   1.689   0.681 -2.0093 -1.0159  0.8280
  428TIP3   OH222918   6.041   1.839   1.059  0.1626  0.4680  0.3993
  428TIP3    H122919   6.132   1.849   1.085  0.3588 -1.2122  0.4175
  428TIP3    H222920   6.045   1.821   0.965 -0.0179 -1.1362  0.6712
  429TIP3   OH222921   1.684   4.222   0.141  0.2104  0.2886  0.1219
  429TIP3    H122922   1.751   4.157   0.120  0.4461  0.4989  0.2181
  429TIP3    H222923   1.603   4.171   0.150  0.7702 -0.3000  2.3230
  430TIP3   OH222924   3.135   5.256   6.389 -0.0065  0.0254  0.0072
  430TIP3    H122925   3.155   5.193   6.319 -0.5416  1.6963 -1.7403
  430TIP3    H222926   3.219   5.276   6.429  0.2106 -1.5413  0.3953
  431TIP3   OH222927   0.361   2.943   2.253 -0.5632  0.0432  0.5020
  431TIP3    H122928   0.325   2.869   2.301  1.5913 -0.3835  1.5508
  431TIP3    H222929   0.394   3.002   2.321 -0.5746  1.1018 -0.3748
  432TIP3   OH222930   6.488   4.560   8.786  0.2660  0.8138  0.1127
  432TIP3    H122931   6.409   4.558   8.732  1.0378  2.4754 -1.1496
  432TIP3    H222932   6.466   4.621   8.857  0.1408  0.6118  0.2501
  433TIP3   OH222933   6.571   1.930   7.260  0.5503  0.0059 -0.9771
  433TIP3    H122934   6.504   1.995   7.242 -0.3333 -0.5781  0.0781
  433TIP3    H222935   6.556   1.861   7.196  0.3021 -0.0050 -0.9077
  434TIP3   OH222936   5.541   4.785   1.069 -0.0366 -0.4320  0.0485
  434TIP3    H122937   5.563   4.714   1.130 -1.9293 -1.6067 -0.5320
  434TIP3    H222938   5.483   4.743   1.005 -0.9774  1.5767 -0.4729
  435TIP3   OH222939   2.672   0.376   1.380 -0.2312  0.3758 -0.0002
  435TIP3    H122940   2.731   0.300   1.372 -1.1860 -0.5926  1.6288
  435TIP3    H222941   2.713   0.431   1.447  0.1782  1.0725 -0.7976
  436TIP3   OH222942   1.246   6.336   7.042  0.3267 -0.4153  0.1799
  436TIP3    H122943   1.340   6.335   7.058  0.3889  1.4306  0.1509
  436TIP3    H222944   1.237   6.345   6.947  0.1272 -0.5422  0.1855
  437TIP3   OH222945   2.811   1.226   8.304  0.1252 -0.0727  0.3098
  437TIP3    H122946   2.794   1.227   8.398  0.7354 -0.1640  0.4221
  437TIP3    H222947   2.724   1.220   8.264 -0.0590 -1.4563  0.8961
  438TIP3   OH222948   6.371   2.396   8.687  0.5138 -0.1376  0.1995
  438TIP3    H122949   6.463   2.411   8.705  0.3806 -1.0005  1.7564
  438TIP3    H222950   6.325   2.452   8.750 -0.0769  1.3614 -1.4839
  439TIP3   OH222951   2.222   5.026   7.086 -0.1278  0.0013 -0.4026
  439TIP3    H122952   2.204   4.932   7.082 -1.5831  0.3003 -1.7651
  439TIP3    H222953   2.318   5.032   7.079  0.2739 -1.4512  2.4989
  440TIP3   OH222954   1.338   0.537   7.858  0.2901  0.1634  0.7686
  440TIP3    H122955   1.307   0.446   7.863 -1.2187  0.6978  2.3639
  440TIP3    H222956   1.262   0.586   7.825  0.9638  0.9097  0.2965
  441TIP3   OH222957   5.029   0.807   6.835  0.2465  0.6203 -0.3282
  441TIP3    H122958   5.039   0.862   6.758 -0.4009  0.1885 -0.7236
  441TIP3    H222959   5.065   0.722   6.809 -1.7366 -0.1104 -0.8271
  442TIP3   OH222960   4.488   2.165   2.004 -0.3537 -0.2389  0.6058
  442TIP3    H122961   4.413   2.127   1.958  1.2221 -0.2108 -2.1700
  442TIP3    H222962   4.514   2.097   2.067 -1.5185 -1.0263  0.2805
  443TIP3   OH222963   2.517   5.020   7.575 -0.0638 -0.0378  0.3499
  443TIP3    H122964   2.456   5.084   7.611 -0.9163  0.5545 -1.9434
  443TIP3    H222965   2.586   5.073   7.534 -0.1992 -0.5694 -0.6121
  444TIP3   OH222966   4.328   5.970   6.657  0.3702 -0.6580  0.0793
  444TIP3    H122967   4.421   5.978   6.636  0.2789  1.2936  0.2410
  444TIP3    H222968   4.285   5.956   6.573  0.5587  1.3903 -0.4093
  445TIP3   OH222969   3.911   6.531   1.097 -0.0500  0.1270 -0.1972
  445TIP3    H122970   3.816   6.541   1.089 -0.1592 -1.4223 -1.3953
  445TIP3    H222971   3.944   6.553   1.010  0.1934 -3.4840 -1.1807
  446TIP3   OH222972   3.543   1.394   7.533  0.2009 -0.0799  0.0813
  446TIP3    H122973   3.558   1.463   7.597  0.9835 -1.3389  1.3164
  446TIP3    H222974   3.630   1.376   7.496  0.8075 -2.8968  2.5005
  447TIP3   OH222975   6.602   3.666   1.834 -0.4129  0.0837 -0.3314
  447TIP3    H122976   6.597   3.694   1.743 -1.7468 -1.0911 -0.6510
  447TIP3    H222977   6.581   3.745   1.884 -0.7197  0.4856 -1.0742
  448TIP3   OH222978   6.595   2.734   8.604  0.1607 -0.0115  0.7485
  448TIP3    H122979   6.580   2.780   8.687  2.8844  1.4826  0.5470
  448TIP3    H222980   6.548   2.784   8.539 -0.5632 -0.1690  1.1439
  449TIP3   OH222981   4.176   3.849   2.604  0.3044 -0.1207  0.9320
  449TIP3    H122982   4.126   3.891   2.673 -0.8597  1.3057 -0.6917
  449TIP3    H222983   4.137   3.882   2.523  2.6465 -0.4576 -0.4127
  450TIP3   OH222984   4.124   1.460   7.458  0.7148  0.3816 -0.2130
  450TIP3    H122985   4.208   1.491   7.425  1.7226 -1.5349  0.4158
  450TIP3    H222986   4.146   1.406   7.534 -1.0658 -0.3092 -0.1408
  451TIP3   OH222987   0.392   3.109   7.720 -0.2315  0.3348  0.2697
  451TIP3    H122988   0.328   3.178   7.706  0.3873  0.5878 -1.5740
  451TIP3    H222989   0.473   3.143   7.681  0.2021 -1.2223 -0.2567
  452TIP3   OH222990   0.089   3.101   0.745  0.1504 -0.6701 -0.1382
  452TIP3    H122991   0.092   3.197   0.753  0.1915 -0.6117 -0.7583
  452TIP3    H222992   0.095   3.085   0.651 -2.3778 -1.1934 -0.2744
  453TIP3   OH222993   4.752   5.053   8.538  0.2687  0.9873 -0.1145
  453TIP3    H122994   4.788   5.006   8.463  0.4625  1.2920 -0.2133
  453TIP3    H222995   4.661   5.070   8.515  0.0272  0.1572  0.1632
  454TIP3   OH222996   4.312   6.308   1.802 -0.3711 -0.4456 -0.3903
  454TIP3    H122997   4.228   6.352   1.815  0.3801  0.5013  1.9130
  454TIP3    H222998   4.322   6.302   1.708 -1.4409  2.5697 -0.8064
  455TIP3   OH222999   5.671   2.143   1.061 -0.3671  1.2555  0.3507
  455TIP3    H123000   5.673   2.198   0.983  0.8084  0.2879 -0.3371
  455TIP3    H223001   5.582   2.153   1.096 -0.4711  2.7960 -0.3028
  456TIP3   OH223002   0.999   0.458   0.772 -0.1431  0.0215 -0.4175
  456TIP3    H123003   0.954   0.426   0.694 -0.5229  1.2731 -0.7325
  456TIP3    H223004   0.942   0.432   0.845 -0.5133  0.0920 -0.6809
  457TIP3   OH223005   5.245   4.711   0.000  0.5528 -0.5610  0.5059
  457TIP3    H123006   5.281   4.796  -0.024  0.4075 -0.2234  1.4314
  457TIP3    H223007   5.151   4.720  -0.014  0.6901 -1.1003 -0.9080
  458TIP3   OH223008   2.327   4.794   7.630 -0.0704  0.2303 -0.1075
  458TIP3    H123009   2.406   4.833   7.594  1.2776 -2.8216 -0.7475
  458TIP3    H223010   2.256   4.837   7.582  1.2290  2.0293 -0.5323
  459TIP3   OH223011   2.461   1.892   8.909 -0.4740 -0.6065  0.5857
  459TIP3    H123012   2.476   1.877   9.002 -2.6340 -0.3850  1.0199
  459TIP3    H223013   2.527   1.957   8.885  0.2033 -0.7604  1.9194
  460TIP3   OH223014   5.110   2.682   1.608 -0.7064  0.2339  0.0328
  460TIP3    H123015   5.183   2.704   1.665  0.1697  0.0517 -0.9770
  460TIP3    H223016   5.118   2.587   1.595 -2.7525 -0.3047  2.0738
  461TIP3   OH223017   5.087   3.363   1.574  0.1225  0.7038 -0.6855
  461TIP3    H123018   5.165   3.396   1.529  0.2063  1.5334  0.0608
  461TIP3    H223019   5.063   3.432   1.635 -1.2280  0.4743 -0.9322
  462TIP3   OH223020   2.828   5.979   7.676 -0.0433  0.3142  0.0320
  462TIP3    H123021   2.882   6.058   7.679 -4.7765  4.1276 -1.6949
  462TIP3    H223022   2.822   5.958   7.583 -1.0312 -0.3905  0.2431
  463TIP3   OH223023   0.851   3.717   7.741 -0.3490 -0.3073  0.1201
  463TIP3    H123024   0.773   3.679   7.779 -0.6478  1.0501  0.9218
  463TIP3    H223025   0.835   3.716   7.646 -0.2052 -2.3819  0.0673
  464TIP3   OH223026   0.078   6.556   8.888  0.1176 -0.0447 -0.1647
  464TIP3    H123027  -0.010   6.562   8.850  0.6072 -1.8491 -1.7369
  464TIP3    H223028   0.065   6.573   8.982 -1.7851  0.3746 -0.4650
  465TIP3   OH223029   4.743   1.244   8.119 -0.2700  0.3184 -0.6643
  465TIP3    H123030   4.675   1.227   8.183 -0.2941  1.2807 -0.4203
  465TIP3    H223031   4.795   1.164   8.117 -0.0380  0.4090  0.8526
  466TIP3   OH223032   5.223   2.979   7.291 -0.4784  0.0643  0.2427
  466TIP3    H123033   5.216   3.069   7.260 -1.8261 -0.6208 -1.6226
  466TIP3    H223034   5.136   2.960   7.327 -0.0414 -0.3425  1.1045
  467TIP3   OH223035   2.599   0.984   8.317 -0.2729 -0.1007  0.7073
  467TIP3    H123036   2.614   0.954   8.228 -4.1760 -0.2196 -0.0991
  467TIP3    H223037   2.571   1.074   8.308  0.2822  0.2276  1.9651
  468TIP3   OH223038   1.082   5.010   7.403  0.0991 -0.0561  0.2942
  468TIP3    H123039   1.006   4.965   7.366 -0.9641  0.8266  1.3104
  468TIP3    H223040   1.098   5.084   7.345 -1.1553  0.9534  1.1890
  469TIP3   OH223041   1.021   5.699   1.106 -0.1041  0.1147 -0.4492
  469TIP3    H123042   0.969   5.777   1.124 -0.0123  0.5408 -1.8972
  469TIP3    H223043   1.083   5.694   1.178 -1.5798  0.0612  0.8790
  470TIP3   OH223044   1.014   3.213   1.263  0.0156  0.4390  0.3506
  470TIP3    H123045   1.010   3.195   1.169 -0.0170  0.0090  0.4330
  470TIP3    H223046   1.106   3.196   1.287 -0.4549 -1.6908  0.8291
  471TIP3   OH223047   2.789   3.391   1.968 -0.3744 -0.2007  0.1907
  471TIP3    H123048   2.798   3.296   1.960 -0.7861 -0.4692  2.3837
  471TIP3    H223049   2.804   3.424   1.879 -0.6570 -2.3316 -0.7040
  472TIP3   OH223050   1.670   3.293   2.175 -0.1480  0.1059  0.0506
  472TIP3    H123051   1.599   3.267   2.234 -0.1844  1.5131  0.6787
  472TIP3    H223052   1.748   3.293   2.230  0.3677 -1.4163 -0.6328
  473TIP3   OH223053   4.037   3.485   7.632 -0.0425 -0.1880  0.5880
  473TIP3    H123054   4.132   3.493   7.636  0.2581 -1.4699 -1.9177
  473TIP3    H223055   4.021   3.393   7.654 -0.7554  0.0817  1.2387
  474TIP3   OH223056   3.484   5.562   1.602  0.4767  0.6733  0.0072
  474TIP3    H123057   3.559   5.619   1.586  0.1189  1.0968 -0.1583
  474TIP3    H223058   3.523   5.475   1.617  0.8928  0.2485 -2.9049
  475TIP3   OH223059   5.714   3.571   0.459  0.5483 -0.4353  0.2956
  475TIP3    H123060   5.703   3.503   0.526 -0.0372  0.2034  0.8709
  475TIP3    H223061   5.630   3.617   0.458  1.0276  0.4608  0.1269
  476TIP3   OH223062   4.389   4.308   1.186 -0.4900 -0.2810  0.5773
  476TIP3    H123063   4.307   4.277   1.225  0.9309 -1.1705  3.0343
  476TIP3    H223064   4.419   4.234   1.133  0.7856 -1.7054  3.1043
  477TIP3   OH223065   2.493   3.231   7.075  0.3174  0.1564  0.5726
  477TIP3    H123066   2.578   3.273   7.090 -0.0425  1.1751 -0.1512
  477TIP3    H223067   2.510   3.138   7.087  1.5592  0.3400  0.3413
  478TIP3   OH223068   3.425   0.829   7.053 -0.2467  1.0111  0.7565
  478TIP3    H123069   3.398   0.750   7.100  1.3889  0.1892  0.4161
  478TIP3    H223070   3.359   0.842   6.986  0.1484 -0.9003 -0.0636
  479TIP3   OH223071   6.336   4.603   1.691  0.1033 -0.1044 -0.0079
  479TIP3    H123072   6.426   4.575   1.704  0.8940  0.6684 -3.0376
  479TIP3    H223073   6.284   4.523   1.701  1.1273 -0.6307  1.3843
  480TIP3   OH223074   3.664   3.771   8.619 -0.2264  0.0356  0.1061
  480TIP3    H123075   3.730   3.777   8.549 -0.1638 -1.1978  0.0300
  480TIP3    H223076   3.596   3.715   8.581 -0.3117 -0.4305  0.9403
  481TIP3   OH223077   0.963   1.585   1.364 -0.7546 -0.2281 -0.3895
  481TIP3    H123078   1.050   1.622   1.354 -1.3928  1.2694 -0.7406
  481TIP3    H223079   0.935   1.564   1.275 -0.9716 -0.1765 -0.3348
  482TIP3   OH223080   1.826   3.260   7.723 -0.4388 -0.3352 -0.0716
  482TIP3    H123081   1.915   3.279   7.693 -0.8342 -0.6276 -1.5093
  482TIP3    H223082   1.787   3.346   7.738  0.7497 -0.1977  2.7806
  483TIP3   OH223083   2.617   0.521   6.934  0.0949 -0.1429  0.1051
  483TIP3    H123084   2.685   0.453   6.935 -0.5901 -0.9274 -1.7842
  483TIP3    H223085   2.545   0.484   6.985  0.1011 -0.4433 -0.0997
  484TIP3   OH223086   1.640   1.343   8.519 -0.1160  0.5992  0.2475
  484TIP3    H123087   1.690   1.380   8.593  0.5243  2.1061 -0.8680
  484TIP3    H223088   1.677   1.256   8.506  2.8521  1.9126 -0.9858
  485TIP3   OH223089   0.782   1.397   0.676 -0.2991  0.0078  0.2280
  485TIP3    H123090   0.870   1.418   0.706 -0.2236 -0.3734  0.2707
  485TIP3    H223091   0.758   1.471   0.619 -0.2919  0.5396  0.8939
  486TIP3   OH223092   3.307   0.740   7.978  0.0837 -0.0869 -0.2675
  486TIP3    H123093   3.327   0.647   7.972  0.8874  0.0521  0.1614
  486TIP3    H223094   3.380   0.783   7.934 -0.7425  0.3133 -1.3003
  487TIP3   OH223095   2.257   2.707   0.331 -0.3865  0.5740 -0.2682
  487TIP3    H123096   2.297   2.621   0.343 -0.0283  0.4181 -2.1682
  487TIP3    H223097   2.330   2.768   0.333 -0.5569  0.7606  0.3761
  488TIP3   OH223098   1.437   4.052   8.752  0.2611 -0.3146 -0.3212
  488TIP3    H123099   1.532   4.044   8.754  0.3450  0.6966  0.4990
  488TIP3    H223100   1.417   4.117   8.819 -1.0791 -1.1627  0.1428
  489TIP3   OH223101   0.343   1.368   7.813  0.8588  0.4230  0.3120
  489TIP3    H123102   0.339   1.463   7.807  0.2617  0.5970  2.5697
  489TIP3    H223103   0.435   1.349   7.832  1.1100  0.4613 -0.7779
  490TIP3   OH223104   0.229   3.123   8.810  0.1387  0.0193 -0.1651
  490TIP3    H123105   0.139   3.091   8.803  0.2667 -0.1902 -0.9848
  490TIP3    H223106   0.252   3.148   8.721  0.0656  2.4139  0.4202
  491TIP3   OH223107   2.269   4.768   6.233 -1.2842 -0.2465  0.1636
  491TIP3    H123108   2.324   4.830   6.185  1.0942 -2.2245  0.1401
  491TIP3    H223109   2.186   4.767   6.185 -0.0945  0.1726 -2.0464
  492TIP3   OH223110   6.371   2.773   1.840 -0.0051 -0.8158  0.5266
  492TIP3    H123111   6.319   2.726   1.906 -0.3908 -1.4451 -0.2178
  492TIP3    H223112   6.382   2.861   1.877 -1.8383 -0.5815  0.5796
  493TIP3   OH223113   5.741   6.305   0.545 -0.0780  0.4881 -0.0881
  493TIP3    H123114   5.667   6.244   0.554  0.1840  0.4588  2.4702
  493TIP3    H223115   5.701   6.385   0.512 -0.9218 -0.1389 -0.6506
  494TIP3   OH223116   1.804   3.643   6.514 -0.1802  0.6612  0.1385
  494TIP3    H123117   1.734   3.593   6.557  0.4083 -0.3810 -0.0876
  494TIP3    H223118   1.815   3.600   6.429 -0.9908  2.3883 -0.8884
  495TIP3   OH223119   2.057   6.527   7.268 -0.1481  0.3663 -0.0396
  495TIP3    H123120   1.966   6.510   7.243 -0.2967 -0.3455  0.9294
  495TIP3    H223121   2.063   6.499   7.359  0.8170  1.2692  0.1982
  496TIP3   OH223122   2.379   2.993   8.466 -0.4805 -0.2446  0.7490
  496TIP3    H123123   2.468   2.964   8.487 -1.1458 -0.8646  2.9047
  496TIP3    H223124   2.375   3.083   8.500 -0.2949  0.2551 -0.5128
  497TIP3   OH223125   3.231   0.098   2.056 -0.4405 -0.0207  0.0973
  497TIP3    H123126   3.204   0.104   2.147 -0.5634 -0.5311  0.0983
  497TIP3    H223127   3.317   0.139   2.053  0.4331 -1.7104  0.8295
  498TIP3   OH223128   0.681   3.053   1.231 -0.0401 -0.2887 -0.1638
  498TIP3    H123129   0.656   3.001   1.154 -0.7492 -0.0355 -0.1065
  498TIP3    H223130   0.600   3.092   1.261  0.5058  0.9853 -0.2878
  499TIP3   OH223131   5.234   3.249   7.271 -0.3444  0.4394 -0.3445
  499TIP3    H123132   5.264   3.309   7.340  1.4513  1.1496 -1.6619
  499TIP3    H223133   5.241   3.300   7.190 -1.8591 -0.5581 -1.1476
  500TIP3   OH223134   0.698   5.338   0.539 -0.1026 -0.1908  0.2153
  500TIP3    H123135   0.760   5.284   0.587 -0.1348 -0.4943 -0.0791
  500TIP3    H223136   0.749   5.374   0.466 -0.5469 -1.3871 -0.7125
  501TIP3   OH223137   4.604   4.189   0.810  0.1864  0.8371 -0.0002
  501TIP3    H123138   4.515   4.157   0.824 -1.3220  2.1904 -4.6830
  501TIP3    H223139   4.654   4.112   0.783 -0.4583  0.6146 -0.5703
  502TIP3   OH223140   5.406   2.162   1.055 -0.1068  0.1941  0.3074
  502TIP3    H123141   5.432   2.070   1.064  0.6484  0.2677 -0.9405
  502TIP3    H223142   5.313   2.158   1.032  0.2137 -0.3130 -0.9438
  503TIP3   OH223143   0.124   2.207   2.407  0.2227 -0.2891  0.2921
  503TIP3    H123144   0.145   2.118   2.379  0.5883  0.9149 -4.0126
  503TIP3    H223145   0.028   2.208   2.414  0.3231 -1.4272  2.3451
  504TIP3   OH223146   2.984   0.774   1.023 -0.3934  0.0132 -0.1997
  504TIP3    H123147   2.917   0.707   1.007  0.4766 -0.6911 -1.0503
  504TIP3    H223148   3.066   0.732   0.995  0.0533  1.7582 -1.6959
  505TIP3   OH223149   6.321   6.488   1.315  0.1657  0.0751  0.2536
  505TIP3    H123150   6.269   6.566   1.332  0.8266  0.5682  0.0439
  505TIP3    H223151   6.305   6.467   1.223 -0.6836 -0.5552  0.5269
  506TIP3   OH223152   3.246   1.490   1.760 -0.6211 -0.4562  0.3360
  506TIP3    H123153   3.286   1.421   1.708 -3.5245 -1.5682 -0.6309
  506TIP3    H223154   3.315   1.556   1.770  1.3110 -2.0928 -1.3561
  507TIP3   OH223155   3.346   0.580   0.498  0.6037 -0.3028  0.6206
  507TIP3    H123156   3.437   0.550   0.498  1.0727  1.0627 -0.2988
  507TIP3    H223157   3.313   0.558   0.411  0.1673 -0.4134  0.8079
  508TIP3   OH223158   5.641   1.619   0.127  0.3232  0.1395  0.5655
  508TIP3    H123159   5.638   1.709   0.094  2.8523  0.1089  0.1251
  508TIP3    H223160   5.733   1.603   0.147  0.3560 -3.0883 -1.4636
  509TIP3   OH223161   6.571   5.706   7.496 -0.0473 -0.2660  0.2199
  509TIP3    H123162   6.518   5.644   7.447  1.0905 -2.1286  1.2099
  509TIP3    H223163   6.632   5.742   7.431  0.3190 -1.4165 -0.1080
  510TIP3   OH223164   3.800   6.073   7.535  0.3413 -0.1914 -0.3051
  510TIP3    H123165   3.738   6.107   7.470  1.3100  1.0594 -0.6156
  510TIP3    H223166   3.829   6.150   7.583  1.3255 -0.8100  0.1172
  511TIP3   OH223167   3.237   5.131   0.811 -0.1104 -0.0498 -0.3619
  511TIP3    H123168   3.174   5.067   0.777 -1.3171 -0.1078  1.8162
  511TIP3    H223169   3.238   5.201   0.746 -1.4454 -0.6533 -1.0731
  512TIP3   OH223170   6.072   1.027   7.815 -0.0277 -0.0870  0.0088
  512TIP3    H123171   6.023   1.104   7.786  0.7429  0.1811 -0.6118
  512TIP3    H223172   6.136   1.012   7.746  0.7530 -0.4388  0.7834
  513TIP3   OH223173   5.208   2.764   8.066  0.0906  0.0175 -0.2446
  513TIP3    H123174   5.158   2.740   7.988 -1.1303  2.0098 -0.1394
  513TIP3    H223175   5.295   2.726   8.052 -0.8705 -1.9907 -1.2769
  514TIP3   OH223176   4.399   5.851   7.774 -0.3486  0.6810  0.6130
  514TIP3    H123177   4.325   5.824   7.829 -1.3615 -0.0025 -0.9981
  514TIP3    H223178   4.359   5.875   7.690  1.1213  1.8350  0.1965
  515TIP3   OH223179   6.700   2.191   7.212 -0.2989 -0.1803  0.3822
  515TIP3    H123180   6.717   2.177   7.119 -1.1337  0.1492  0.1703
  515TIP3    H223181   6.605   2.190   7.220 -0.2366 -2.4646  1.6112
  516TIP3   OH223182   2.241   6.208   1.732  0.3825 -0.1336 -0.4944
  516TIP3    H123183   2.328   6.223   1.771  0.8096  0.4521 -1.6384
  516TIP3    H223184   2.232   6.112   1.733 -0.0818 -0.1318  1.9588
  517TIP3   OH223185   0.687   4.382   0.888  0.3683 -0.0068 -0.2990
  517TIP3    H123186   0.688   4.478   0.885  1.8962 -0.0299 -1.4853
  517TIP3    H223187   0.738   4.355   0.813  1.2629 -1.7529  0.8720
  518TIP3   OH223188   2.610   5.277   8.986  0.7707  0.0702 -0.0008
  518TIP3    H123189   2.534   5.270   9.044  1.1296 -1.8365  0.2991
  518TIP3    H223190   2.625   5.371   8.979 -0.6483  0.4356  1.2022
  519TIP3   OH223191   6.702   2.452   7.778  0.0330  0.3943  0.0036
  519TIP3    H123192   6.715   2.364   7.744  0.0007  0.2774  0.2889
  519TIP3    H223193   6.785   2.474   7.822 -1.2004 -1.0718  3.4379
  520TIP3   OH223194   2.444   2.823   1.589  0.1934 -0.1826 -0.1467
  520TIP3    H123195   2.415   2.773   1.513  2.3749 -0.7483 -0.6747
  520TIP3    H223196   2.369   2.824   1.648 -0.5363 -2.4198 -0.9617
  521TIP3   OH223197   5.197   3.278   6.675 -0.0829  0.4670  0.6067
  521TIP3    H123198   5.171   3.356   6.627  1.6553  1.7541  1.6455
  521TIP3    H223199   5.289   3.265   6.652 -0.6389 -2.0594 -0.5232
  522TIP3   OH223200   1.503   2.478   1.485 -0.6335  0.2131  0.2151
  522TIP3    H123201   1.498   2.452   1.577  1.3011 -1.0943  0.0020
  522TIP3    H223202   1.517   2.573   1.488  0.0790  0.0956  1.3000
  523TIP3   OH223203   1.957   2.722   1.839  0.2511 -0.0464  0.3191
  523TIP3    H123204   1.950   2.663   1.915 -0.4591 -0.2791  0.0792
  523TIP3    H223205   1.999   2.800   1.874 -1.8119  0.6500  1.4609
  524TIP3   OH223206   0.857   6.756   0.373 -0.1204  0.5175 -0.0682
  524TIP3    H123207   0.788   6.698   0.342  0.0992  0.3407 -0.2226
  524TIP3    H223208   0.816   6.843   0.372 -0.5078  0.3462  0.3407
  525TIP3   OH223209   1.732   0.278   6.442 -0.1356  0.4459  0.2992
  525TIP3    H123210   1.774   0.364   6.441  0.5345  0.1354  1.0842
  525TIP3    H223211   1.763   0.237   6.523 -0.5584 -0.4814  0.0002
  526TIP3   OH223212   3.106   1.709   8.508  0.1901  0.3152  0.4293
  526TIP3    H123213   3.197   1.731   8.527  0.7084 -0.1029 -1.4447
  526TIP3    H223214   3.060   1.794   8.511  0.7142  0.5852  0.9367
  527TIP3   OH223215   6.704   6.406   2.684 -0.0475 -0.0113  0.4274
  527TIP3    H123216   6.750   6.383   2.603 -0.5069 -2.9701  0.8844
  527TIP3    H223217   6.623   6.448   2.656  0.6448  0.7271 -0.5341
  528TIP3   OH223218   2.849   4.133   8.583 -0.0563  0.0132  0.1289
  528TIP3    H123219   2.871   4.194   8.512  0.0497  0.5999  0.6551
  528TIP3    H223220   2.805   4.187   8.648  2.0739  0.0486  1.6501
  529TIP3   OH223221   3.491   4.304   7.468  0.1402  1.0331 -0.0390
  529TIP3    H123222   3.460   4.312   7.378 -1.1722 -1.4538  0.0999
  529TIP3    H223223   3.504   4.210   7.481  2.4410  1.4965  1.7262
  530TIP3   OH223224   4.556   3.067   0.743  0.6232 -0.2142  0.1164
  530TIP3    H123225   4.555   3.066   0.839  0.8989 -0.3789  0.1200
  530TIP3    H223226   4.531   2.978   0.718  0.1956 -0.0711  0.0293
  531TIP3   OH223227   0.244   4.193   8.515  0.3188 -0.1071  0.5003
  531TIP3    H123228   0.214   4.102   8.520  1.6914 -0.5284  2.9962
  531TIP3    H223229   0.167   4.246   8.532 -0.6580 -0.7259 -1.7406
  532TIP3   OH223230   5.834   0.512   7.019 -0.1523 -0.0400  0.8208
  532TIP3    H123231   5.820   0.479   6.930  0.6164  0.5094  0.4820
  532TIP3    H223232   5.763   0.475   7.070 -0.2572 -0.8614  0.0996
  533TIP3   OH223233   3.604   5.643   8.229 -0.1223  0.1181 -0.0994
  533TIP3    H123234   3.664   5.649   8.156  0.4091  0.4066  0.3517
  533TIP3    H223235   3.628   5.561   8.274  0.9229  0.9637  0.9246
  534TIP3   OH223236   6.523   5.005   0.300  0.1488 -0.4102  0.6151
  534TIP3    H123237   6.570   5.088   0.304  0.4196 -0.5002 -0.5445
  534TIP3    H223238   6.510   4.981   0.392 -0.5159  1.2294  0.9838
  535TIP3   OH223239   0.020   1.595   8.574  0.4499  0.2800 -0.0536
  535TIP3    H123240  -0.029   1.674   8.553  0.1863 -0.3710 -2.0234
  535TIP3    H223241  -0.004   1.532   8.507  2.5200 -0.6956  0.0205
  536TIP3   OH223242   3.737   4.217   0.755 -0.3948  0.0851 -0.1647
  536TIP3    H123243   3.687   4.218   0.673 -0.3481  1.6317 -0.2024
  536TIP3    H223244   3.677   4.181   0.820 -1.3891  1.3982 -0.3252
  537TIP3   OH223245   6.500   1.830   6.953 -0.1124 -0.0546  1.1008
  537TIP3    H123246   6.531   1.915   6.922  2.6102 -1.0005  0.9532
  537TIP3    H223247   6.465   1.787   6.874  1.5712 -0.2727  0.4119
  538TIP3   OH223248   2.590   4.112   2.522 -0.3333  0.1483 -0.8800
  538TIP3    H123249   2.682   4.113   2.545 -0.3778 -0.5794 -0.6611
  538TIP3    H223250   2.568   4.020   2.509 -1.4606  0.1240  0.8448
  539TIP3   OH223251   0.394   4.852   8.401  0.1802  0.5897 -0.0911
  539TIP3    H123252   0.306   4.847   8.438  0.3968 -1.7527  0.2445
  539TIP3    H223253   0.447   4.895   8.469 -0.1926 -0.3188  0.7992
  540TIP3   OH223254   2.212   5.764   8.039  0.3730 -0.3988 -0.5034
  540TIP3    H123255   2.130   5.785   8.083  0.4026 -2.1843  0.5168
  540TIP3    H223256   2.202   5.673   8.011  2.2856 -0.9526  0.3894
  541TIP3   OH223257   3.517   3.268   7.251  0.4732  0.4258 -0.6675
  541TIP3    H123258   3.476   3.322   7.183  0.9582  1.8367  0.1230
  541TIP3    H223259   3.552   3.330   7.314  0.1871 -0.8409  0.8174
  542TIP3   OH223260   4.056   1.272   7.273 -0.7350 -0.1575  0.4531
  542TIP3    H123261   4.071   1.338   7.341 -1.4790  0.1066  0.3688
  542TIP3    H223262   3.961   1.261   7.270 -0.7002 -0.3302 -0.3903
  543TIP3   OH223263   6.015   1.393   8.751  0.1073 -0.3551  0.3201
  543TIP3    H123264   5.989   1.473   8.797  0.3607 -0.6486  0.9834
  543TIP3    H223265   6.000   1.323   8.814  1.0132 -0.7013  0.1659
  544TIP3   OH223266   0.326   1.214   0.041  0.4776 -0.2353  0.3173
  544TIP3    H123267   0.399   1.160   0.008 -0.5803 -0.9687 -0.9151
  544TIP3    H223268   0.369   1.293   0.074  1.8882 -0.9052  0.1864
  545TIP3   OH223269   6.218   2.751   6.813  0.1883 -0.0740  0.1350
  545TIP3    H123270   6.178   2.829   6.776  0.4361 -0.5438 -1.1771
  545TIP3    H223271   6.158   2.680   6.791 -0.4445 -0.1864  2.0111
  546TIP3   OH223272   6.083   1.887   1.536 -0.2255  0.2870  0.1012
  546TIP3    H123273   6.001   1.840   1.525 -0.6315  0.9001  0.4569
  546TIP3    H223274   6.145   1.840   1.480 -1.0188  0.3342 -0.8540
  547TIP3   OH223275   1.384   1.236   1.699  0.0090 -0.6826  0.0214
  547TIP3    H123276   1.371   1.294   1.774 -1.5010 -0.6574 -0.2268
  547TIP3    H223277   1.402   1.295   1.626  0.3159 -0.6388  0.1314
  548TIP3   OH223278   5.061   0.780   6.377  0.0251  0.0073  0.1922
  548TIP3    H123279   5.064   0.688   6.351 -1.6424  0.1585 -0.6734
  548TIP3    H223280   4.984   0.815   6.333  2.0245  2.5059 -1.6270
  549TIP3   OH223281   5.049   3.163   8.309  0.3266  0.1373  0.2175
  549TIP3    H123282   4.989   3.095   8.341 -0.2635 -0.0315 -1.1672
  549TIP3    H223283   5.115   3.115   8.259 -0.7695  0.6357 -1.7909
  550TIP3   OH223284   4.252   0.625   1.862 -0.2715 -0.4700 -0.0267
  550TIP3    H123285   4.197   0.602   1.787  0.0138 -0.3325 -0.2808
  550TIP3    H223286   4.198   0.607   1.938 -0.4064 -1.0424 -0.2509
  551TIP3   OH223287   0.614   5.663   0.646 -0.4383  0.7891  0.5323
  551TIP3    H123288   0.700   5.664   0.689 -0.9771  1.5931  1.6330
  551TIP3    H223289   0.606   5.750   0.607 -0.2444  0.2922 -0.6698
  552TIP3   OH223290   3.195   3.461   8.801  0.3399  1.2306 -0.0119
  552TIP3    H123291   3.197   3.466   8.896  1.5916  2.4244 -0.0632
  552TIP3    H223292   3.106   3.488   8.777 -0.7083 -1.1802  0.8515
  553TIP3   OH223293   2.727   5.059   0.366  0.6728 -0.4354 -0.0635
  553TIP3    H123294   2.746   5.020   0.452  1.0529 -0.4062 -0.1336
  553TIP3    H223295   2.637   5.032   0.347 -0.5048  1.8881  1.6568
  554TIP3   OH223296   0.955   5.010   8.370  0.1267  0.7451 -0.3682
  554TIP3    H123297   0.980   4.924   8.337  0.8043  0.4461  0.8733
  554TIP3    H223298   1.031   5.065   8.353 -0.4554  1.2228 -1.5273
  555TIP3   OH223299   5.174   4.681   7.399 -0.0548 -0.6265 -0.4600
  555TIP3    H123300   5.192   4.754   7.459  0.3035 -1.6917  0.7676
  555TIP3    H223301   5.258   4.638   7.388 -0.2078 -0.6922 -1.4170
  556TIP3   OH223302   3.778   0.862   1.962 -0.2593 -0.0798 -0.1464
  556TIP3    H123303   3.807   0.786   2.013  0.5175  0.7030  0.6207
  556TIP3    H223304   3.789   0.835   1.871 -1.7326 -1.5325  0.0588
  557TIP3   OH223305   5.792   4.154   1.825 -0.0330 -0.1192 -0.3789
  557TIP3    H123306   5.842   4.091   1.773  3.3338  1.5805  0.4980
  557TIP3    H223307   5.829   4.146   1.913 -1.8609  0.7954  0.5179
  558TIP3   OH223308   2.724   1.126   1.686 -0.5353  0.3620  0.1576
  558TIP3    H123309   2.739   1.186   1.613 -1.4074  0.2201 -0.1459
  558TIP3    H223310   2.811   1.106   1.719 -0.1867  1.1676 -0.2482
  559TIP3   OH223311   4.293   2.758   1.028 -0.7296  0.5521 -0.0921
  559TIP3    H123312   4.236   2.834   1.041 -1.8596 -0.4760  1.3297
  559TIP3    H223313   4.293   2.743   0.934 -0.4124  2.3467 -0.4077
  560TIP3   OH223314   0.339   0.692   6.306 -0.2215 -0.1474 -0.7799
  560TIP3    H123315   0.352   0.602   6.337  0.4089  0.2276  0.0830
  560TIP3    H223316   0.350   0.746   6.384 -1.1294  0.6514 -1.1880
  561TIP3   OH223317   6.040   5.667   1.722 -0.2132  0.4868 -0.5172
  561TIP3    H123318   6.110   5.722   1.685  0.8909 -1.1780 -1.0505
  561TIP3    H223319   5.963   5.689   1.670  0.5710  0.4500 -1.7486
  562TIP3   OH223320   2.661   4.363   0.395  0.0765 -0.1473 -0.3775
  562TIP3    H123321   2.647   4.273   0.364  2.4518 -1.1254  1.1306
  562TIP3    H223322   2.634   4.361   0.487  0.5060  0.5810 -0.2279
  563TIP3   OH223323   2.295   3.039   6.381  0.0278  0.0297  0.1612
  563TIP3    H123324   2.279   2.961   6.329  1.7686 -0.0480 -0.3021
  563TIP3    H223325   2.342   3.098   6.323  0.3366  0.6993  1.0631
  564TIP3   OH223326   1.483   4.521   8.002  0.2367 -0.2331  0.3934
  564TIP3    H123327   1.397   4.529   7.960  0.4437 -0.0113  0.0051
  564TIP3    H223328   1.546   4.528   7.930  0.5748 -0.7134  0.6323
  565TIP3   OH223329   5.827   0.196   0.358  0.1077  0.0716 -0.1009
  565TIP3    H123330   5.847   0.272   0.413  1.1094  1.3292 -2.1032
  565TIP3    H223331   5.806   0.233   0.272 -1.6566 -1.8117 -0.5481
  566TIP3   OH223332   3.599   0.657   6.483 -0.1780  0.1139 -0.4155
  566TIP3    H123333   3.554   0.737   6.456 -2.2080 -0.1770  1.8224
  566TIP3    H223334   3.688   0.667   6.447 -0.4030  3.2622 -0.3719
  567TIP3   OH223335   2.668   2.301   7.482  0.7800  0.6663 -0.5711
  567TIP3    H123336   2.706   2.388   7.470 -0.6582  1.4693  0.4692
  567TIP3    H223337   2.639   2.300   7.573 -3.7304  0.9910 -1.7728
  568TIP3   OH223338   2.980   0.943   1.537 -0.2287  0.6882 -0.0918
  568TIP3    H123339   3.034   0.901   1.470 -1.9716 -0.5053 -0.8239
  568TIP3    H223340   2.902   0.971   1.490 -1.0484  0.7363  1.2598
  569TIP3   OH223341   2.852   2.631   0.743 -0.1757  0.3107  0.3537
  569TIP3    H123342   2.833   2.546   0.783 -1.8652  1.0321  1.1696
  569TIP3    H223343   2.896   2.681   0.812  1.2808 -0.0464 -0.2900
  570TIP3   OH223344   4.316   1.637   0.813  0.1074 -0.7457  0.4652
  570TIP3    H123345   4.327   1.639   0.908  0.6864  3.8612  0.5232
  570TIP3    H223346   4.239   1.692   0.797  0.1081 -1.3068 -1.7601
  571TIP3   OH223347   6.144   3.158   7.931 -1.0033  0.0224 -0.0446
  571TIP3    H123348   6.180   3.117   8.010 -1.4670  1.4621  0.9468
  571TIP3    H223349   6.057   3.189   7.956 -1.6056 -0.4388 -1.4449
  572TIP3   OH223350   6.193   6.163   0.954 -0.0101  0.0093  0.2535
  572TIP3    H123351   6.194   6.117   0.870 -2.5267  0.6129 -0.2230
  572TIP3    H223352   6.244   6.108   1.013 -0.6166 -1.9677 -0.9635
  573TIP3   OH223353   5.215   4.592   1.149 -0.2794 -0.2045  0.2045
  573TIP3    H123354   5.260   4.674   1.132 -0.8961 -0.1621 -1.4126
  573TIP3    H223355   5.123   4.617   1.159 -0.8887 -0.8720 -2.7937
  574TIP3   OH223356   3.881   5.890   6.769 -0.2527 -0.2106  0.6629
  574TIP3    H123357   3.947   5.903   6.838 -0.2331 -0.9792  0.8025
  574TIP3    H223358   3.818   5.960   6.782 -0.2003 -0.2975  1.4065
  575TIP3   OH223359   6.516   5.320   1.875 -0.3087  0.4928  0.4693
  575TIP3    H123360   6.423   5.301   1.875 -0.7367  2.3901  0.1090
  575TIP3    H223361   6.530   5.375   1.952  0.5690  0.0128  0.6703
  576TIP3   OH223362   2.780   1.804   8.867  0.2866 -0.0263 -0.8563
  576TIP3    H123363   2.731   1.883   8.891  1.1604  0.5386 -0.9050
  576TIP3    H223364   2.815   1.772   8.949  0.9274  0.3212 -0.9844
  577TIP3   OH223365   6.483   1.838   0.756 -0.0502 -0.2037  0.1422
  577TIP3    H123366   6.424   1.894   0.806  2.4087  1.4520  1.4394
  577TIP3    H223367   6.506   1.889   0.679 -0.6192 -1.0348 -0.6036
  578TIP3   OH223368   1.752   3.402   0.290 -0.8162 -0.2299  0.2765
  578TIP3    H123369   1.802   3.359   0.359 -0.4361 -1.1680 -0.5566
  578TIP3    H223370   1.791   3.489   0.281 -0.5958 -0.2612  0.9470
  579TIP3   OH223371   3.473   2.158   2.333  0.1948  0.0668 -0.1209
  579TIP3    H123372   3.439   2.155   2.423  1.2612  2.8383  0.4713
  579TIP3    H223373   3.425   2.230   2.292  2.3586  1.3705 -0.5181
  580TIP3   OH223374   3.471   2.154   8.207 -0.0235 -0.1234  0.4995
  580TIP3    H123375   3.550   2.206   8.192 -0.9431  1.7558  1.7884
  580TIP3    H223376   3.416   2.170   8.131 -0.7038  1.6384  1.3245
  581TIP3   OH223377   3.195   2.532   0.335  0.1109 -0.3958 -0.0722
  581TIP3    H123378   3.216   2.544   0.242 -0.2850 -1.7546 -0.3475
  581TIP3    H223379   3.221   2.615   0.375 -2.2450  1.3452 -1.8263
  582TIP3   OH223380   1.230   5.515   7.467  0.2244 -0.6330 -0.7829
  582TIP3    H123381   1.219   5.578   7.396 -0.8365 -0.5670 -0.5620
  582TIP3    H223382   1.273   5.440   7.425  1.0492  0.0278 -1.1465
  583TIP3   OH223383   2.877   4.644   6.308 -0.5544  0.1843  0.0663
  583TIP3    H123384   2.864   4.739   6.307  1.9151  0.5870 -0.6580
  583TIP3    H223385   2.845   4.614   6.223  0.4621  0.6970 -0.5184
  584TIP3   OH223386   0.394   6.380   1.367  0.3465 -0.4104  0.3596
  584TIP3    H123387   0.459   6.315   1.396 -1.2953 -2.2516  0.0788
  584TIP3    H223388   0.328   6.329   1.321 -1.4757  1.3701  0.8863
  585TIP3   OH223389   1.064   5.595   0.856  0.1316  0.1421  0.2645
  585TIP3    H123390   1.152   5.622   0.828 -0.5094  0.8336 -1.2446
  585TIP3    H223391   1.060   5.618   0.948  1.3173  0.6767  0.2076
  586TIP3   OH223392   5.469   3.512   0.849 -0.1716  0.6294 -0.5785
  586TIP3    H123393   5.430   3.599   0.860  0.8352  0.9624  0.6955
  586TIP3    H223394   5.396   3.456   0.822 -0.9464  1.7588 -0.9006
  587TIP3   OH223395   4.694   1.243   6.142 -0.0381  0.5637  0.7439
  587TIP3    H123396   4.622   1.184   6.119 -1.2815  2.6366 -1.1679
  587TIP3    H223397   4.695   1.244   6.238 -2.5011  0.3359  0.8370
  588TIP3   OH223398   6.244   5.925   0.331  0.4703  0.2526 -1.0986
  588TIP3    H123399   6.294   5.942   0.411 -2.3234  0.3539  0.7482
  588TIP3    H223400   6.305   5.876   0.276  2.6749  0.5853  0.8627
  589TIP3   OH223401   2.850   6.175   0.305 -0.2500 -0.5968 -0.8716
  589TIP3    H123402   2.780   6.156   0.244 -0.8949  0.4852 -0.5112
  589TIP3    H223403   2.890   6.256   0.272  0.1814 -0.6614 -0.5265
  590TIP3   OH223404   4.560   0.908   2.655 -0.2909  0.3781  0.4601
  590TIP3    H123405   4.600   0.995   2.646  0.6855 -0.1750 -0.9749
  590TIP3    H223406   4.628   0.855   2.696  0.4833 -0.5050 -1.7546
  591TIP3   OH223407   1.992   0.756   7.220 -0.5019  0.3199  0.4598
  591TIP3    H123408   1.919   0.782   7.164 -0.3213 -0.2838 -0.0634
  591TIP3    H223409   2.060   0.821   7.203 -0.0252 -0.5054 -0.8957
  592TIP3   OH223410   6.051   5.332   0.890  0.2166  0.1065 -0.5476
  592TIP3    H123411   6.104   5.354   0.966 -0.3219  1.6070 -0.5747
  592TIP3    H223412   5.991   5.265   0.921 -0.6662  1.4130  0.6562
  593TIP3   OH223413   4.939   5.386   1.122 -0.1570  0.1767 -0.3674
  593TIP3    H123414   4.943   5.478   1.150 -0.2985  0.1910 -0.3951
  593TIP3    H223415   4.861   5.351   1.165 -0.3612  0.1925 -0.7261
  594TIP3   OH223416   6.598   4.589   1.760  0.2628 -0.2508  0.2430
  594TIP3    H123417   6.583   4.676   1.797  0.4539 -0.9578  2.1129
  594TIP3    H223418   6.634   4.605   1.673 -2.0613  1.4992 -0.4843
  595TIP3   OH223419   3.251   1.146   6.999  0.0330  0.2433  0.0092
  595TIP3    H123420   3.254   1.052   6.981 -1.4900  0.0409  0.6079
  595TIP3    H223421   3.166   1.174   6.965  0.9437  1.6641 -1.2257
  596TIP3   OH223422   4.188   5.510   8.379 -0.0916 -0.1118  0.2098
  596TIP3    H123423   4.198   5.592   8.330 -1.5219  0.8543  1.4458
  596TIP3    H223424   4.170   5.444   8.312 -1.4767  1.0680 -0.6493
  597TIP3   OH223425   5.522   5.584   8.570 -0.0844  0.3598 -0.1581
  597TIP3    H123426   5.530   5.676   8.547  0.8524  0.0581 -1.0890
  597TIP3    H223427   5.472   5.584   8.652 -1.9153  1.5654 -1.1961
  598TIP3   OH223428   0.428   0.176   8.818  0.1715 -0.2403  0.0750
  598TIP3    H123429   0.366   0.125   8.870  0.3035  0.6058  1.0839
  598TIP3    H223430   0.498   0.114   8.797  0.2568 -0.5263  1.1454
  599TIP3   OH223431   6.183   6.564   8.895 -0.3679 -0.1950  0.3640
  599TIP3    H123432   6.220   6.490   8.943  2.6420 -1.0434 -2.8088
  599TIP3    H223433   6.248   6.634   8.907 -1.1066  0.5799 -0.0484
  600TIP3   OH223434   2.709   6.134   7.856  0.4545 -0.4338 -0.3239
  600TIP3    H123435   2.733   6.079   7.781 -1.3315 -1.2689 -0.3353
  600TIP3    H223436   2.618   6.158   7.839  0.3371  0.1981  1.0992
  601TIP3   OH223437   4.616   0.378   8.042 -0.2548 -0.0929 -0.1731
  601TIP3    H123438   4.644   0.300   8.091  0.4335  0.6839  0.6933
  601TIP3    H223439   4.521   0.371   8.040 -0.2848 -0.3005  1.0280
  602TIP3   OH223440   0.952   1.255   8.270 -0.3368 -0.1020 -0.6762
  602TIP3    H123441   0.933   1.237   8.178 -0.1521  3.0659 -1.4629
  602TIP3    H223442   1.047   1.270   8.272 -0.0993 -1.5348  0.3595
  603TIP3   OH223443   0.711   4.730   1.440  0.4113 -0.5311  0.1490
  603TIP3    H123444   0.694   4.789   1.366 -2.2376 -0.8067  0.4358
  603TIP3    H223445   0.724   4.788   1.515  0.9497 -0.2874 -0.1265
  604TIP3   OH223446   3.834   4.440   7.846 -0.0606 -0.1913 -0.0524
  604TIP3    H123447   3.922   4.405   7.835  0.0858  0.5116 -1.3346
  604TIP3    H223448   3.776   4.367   7.824  0.1731 -0.7648  1.1495
  605TIP3   OH223449   0.506   2.685   0.103 -0.6317  0.4072 -0.2429
  605TIP3    H123450   0.586   2.733   0.126 -0.3376 -0.3209  0.3023
  605TIP3    H223451   0.525   2.594   0.127 -2.0096  0.3817  0.8484
  606TIP3   OH223452   4.284   4.375   7.550  0.2040 -0.2748 -0.0316
  606TIP3    H123453   4.232   4.295   7.547 -0.1906 -0.0022 -0.5369
  606TIP3    H223454   4.244   4.427   7.620  0.1076 -0.2702 -0.0908
  607TIP3   OH223455   1.921   5.920   2.239  1.0757 -0.0278 -0.1331
  607TIP3    H123456   1.860   5.968   2.295  2.8903  0.5216  1.4707
  607TIP3    H223457   1.942   5.841   2.289  1.4808 -0.3488 -0.7964
  608TIP3   OH223458   2.491   6.321   0.626 -0.0499 -0.0811 -0.0057
  608TIP3    H123459   2.431   6.263   0.581 -0.9123 -1.2014  2.3988
  608TIP3    H223460   2.435   6.385   0.670  0.8198  1.7586 -1.4293
  609TIP3   OH223461   5.935   0.787   2.059  0.3653 -0.3647  0.0200
  609TIP3    H123462   5.942   0.825   2.147 -0.1118  3.7609 -1.4802
  609TIP3    H223463   6.023   0.757   2.039  0.9201  0.3516  1.2383
  610TIP3   OH223464   3.733   1.497   2.350 -0.4861  0.6212  0.0224
  610TIP3    H123465   3.663   1.449   2.394  0.1732 -1.1632 -0.7664
  610TIP3    H223466   3.688   1.565   2.300 -1.5231  0.4405  0.6901
  611TIP3   OH223467   4.070   4.387   0.630  0.1468 -0.2164  0.0536
  611TIP3    H123468   4.014   4.309   0.630 -1.1959  0.7095 -1.0213
  611TIP3    H223469   4.138   4.367   0.565 -0.3708 -0.3728 -0.4454
  612TIP3   OH223470   1.510   2.839   0.092  0.3287 -0.1801  0.4142
  612TIP3    H123471   1.547   2.844   0.004  1.1444 -0.6541  0.7108
  612TIP3    H223472   1.491   2.930   0.115 -4.8355 -0.2723 -2.1802
  613TIP3   OH223473   0.178   6.502   1.142 -0.4267  0.1603  0.1073
  613TIP3    H123474   0.180   6.597   1.149 -0.7652  0.1284  0.6160
  613TIP3    H223475   0.094   6.476   1.179 -0.3003 -0.3446  0.0529
  614TIP3   OH223476   3.683   2.104   0.632  0.0210  0.2436  0.4629
  614TIP3    H123477   3.723   2.109   0.718  2.6660  0.8310 -0.7153
  614TIP3    H223478   3.659   2.195   0.612  1.1642  0.4314 -0.1478
  615TIP3   OH223479   6.300   0.309   8.132  0.1277  0.2907 -0.2373
  615TIP3    H123480   6.239   0.275   8.066 -0.3260 -0.3331  0.4899
  615TIP3    H223481   6.291   0.404   8.126  0.3718  0.2612 -1.3283
  616TIP3   OH223482   6.068   6.743   2.515  0.7344  0.2081  0.1336
  616TIP3    H123483   6.002   6.800   2.554 -2.4924 -3.3952  0.6041
  616TIP3    H223484   6.139   6.740   2.579 -1.1943  0.0346  2.3821
  617TIP3   OH223485   0.619   6.137   0.956  0.3261 -0.3752 -0.2195
  617TIP3    H123486   0.563   6.078   1.007 -0.0460  0.1742  0.0125
  617TIP3    H223487   0.686   6.079   0.919 -0.5749 -1.0922 -0.7667
  618TIP3   OH223488   2.372   3.753   6.886  0.0603  0.2753 -0.0492
  618TIP3    H123489   2.377   3.665   6.849  3.4485  0.7260 -1.0147
  618TIP3    H223490   2.337   3.807   6.815 -0.4648 -0.0272 -0.0205
  619TIP3   OH223491   2.192   5.574   7.568 -0.5440  0.2975  0.5925
  619TIP3    H123492   2.264   5.632   7.541  0.2965 -0.8126  0.3933
  619TIP3    H223493   2.235   5.503   7.616 -1.4688 -0.5750  0.1676
  620TIP3   OH223494   3.481   2.740   8.928  0.7750  0.5077  0.0549
  620TIP3    H123495   3.503   2.792   8.851  1.6299 -1.3593 -1.0200
  620TIP3    H223496   3.558   2.748   8.985  2.1570 -1.7573 -1.3651
  621TIP3   OH223497   2.240   2.717   7.191 -1.1339 -0.1960 -0.5106
  621TIP3    H123498   2.308   2.757   7.244  0.3473 -0.4828 -2.0843
  621TIP3    H223499   2.222   2.780   7.121 -0.2080 -1.3694 -1.8715
  622TIP3   OH223500   0.534   4.043   7.626 -0.2747  0.0958 -0.3852
  622TIP3    H123501   0.448   4.011   7.650 -0.8428  0.9351 -1.2426
  622TIP3    H223502   0.582   4.048   7.709 -1.2440  0.1863  0.1768
  623TIP3   OH223503   0.406   5.777   1.750  0.1111 -0.0791  0.8014
  623TIP3    H123504   0.438   5.839   1.685 -1.1837 -0.2695 -0.0568
  623TIP3    H223505   0.357   5.712   1.700 -0.4781 -0.5292  1.9092
  624TIP3   OH223506   0.085   1.705   6.764 -0.7717  0.3788  0.2969
  624TIP3    H123507   0.167   1.724   6.810  0.0449  1.1461 -1.3634
  624TIP3    H223508   0.040   1.790   6.760 -0.8213  0.3299 -0.2951
  625TIP3   OH223509   5.585   1.947   2.053 -0.7098  0.1374  0.5557
  625TIP3    H123510   5.545   2.026   2.089 -0.2589  0.0738  1.2046
  625TIP3    H223511   5.675   1.973   2.030 -0.6609 -0.1027  0.4664
  626TIP3   OH223512   3.094   3.652   0.291 -0.1438 -0.1659 -0.0629
  626TIP3    H123513   3.017   3.704   0.268 -0.8500 -1.2514 -0.1984
  626TIP3    H223514   3.136   3.634   0.207 -0.5394 -0.7783 -0.1361
  627TIP3   OH223515   1.836   4.594   8.386  0.1225 -1.0133  0.6063
  627TIP3    H123516   1.776   4.581   8.459  1.6485  0.2399  2.1768
  627TIP3    H223517   1.903   4.654   8.420  0.4478  0.3070 -2.1001
  628TIP3   OH223518   6.397   5.899   7.556  0.0280 -0.0978  0.0752
  628TIP3    H123519   6.424   5.818   7.513 -0.4762  0.3799 -1.2223
  628TIP3    H223520   6.397   5.964   7.485 -1.5056  0.5841  0.6530
  629TIP3   OH223521   6.201   1.973   2.105  0.0563 -0.1994 -0.0231
  629TIP3    H123522   6.199   1.958   2.200 -1.6111  1.3116  0.2399
  629TIP3    H223523   6.132   1.916   2.070 -0.4906  0.4634 -0.0706
  630TIP3   OH223524   2.766   3.451   1.254  0.1751  0.2156 -0.2118
  630TIP3    H123525   2.809   3.413   1.178 -0.5465  0.5053 -0.7832
  630TIP3    H223526   2.689   3.396   1.268 -1.1356  1.6838 -1.3339
  631TIP3   OH223527   2.122   0.958   1.226  0.1045 -0.9549  0.2445
  631TIP3    H123528   2.128   1.036   1.172 -0.1339 -0.6082  0.7121
  631TIP3    H223529   2.073   0.986   1.304  1.4548 -1.1372  1.1879
  632TIP3   OH223530   6.691   3.683   0.211  0.1812 -0.6917 -0.4983
  632TIP3    H123531   6.679   3.607   0.267 -1.8068  0.1190  0.2722
  632TIP3    H223532   6.652   3.756   0.260  1.4172  0.7048 -1.4915
  633TIP3   OH223533   2.294   2.111   0.252  0.2048 -0.2184  0.0406
  633TIP3    H123534   2.316   2.202   0.270 -0.4968 -0.3131  1.5500
  633TIP3    H223535   2.350   2.060   0.311  1.0937 -0.8328 -1.2721
  634TIP3   OH223536   4.939   2.422   0.070 -0.5554 -0.5025 -0.4374
  634TIP3    H123537   4.956   2.454  -0.019 -0.8101 -1.5280 -0.8721
  634TIP3    H223538   4.862   2.366   0.061 -0.5312 -0.6885  0.4159
  635TIP3   OH223539   1.274   2.275   0.945 -0.2963  0.1650  0.0774
  635TIP3    H123540   1.343   2.230   0.895  0.1135 -0.6256  1.3269
  635TIP3    H223541   1.192   2.241   0.909 -0.0263  0.0685 -0.4646
  636TIP3   OH223542   4.490   2.761   6.880  0.2494  0.3724 -0.0449
  636TIP3    H123543   4.573   2.809   6.887 -0.4729  1.4548  1.7249
  636TIP3    H223544   4.514   2.679   6.836  1.9622  1.2976 -0.9593
  637TIP3   OH223545   2.319   0.144   0.517  0.0838  0.1892  0.0017
  637TIP3    H123546   2.358   0.069   0.472 -2.9615 -0.8202 -1.1563
  637TIP3    H223547   2.340   0.129   0.610  1.5577 -0.7848 -0.4487
  638TIP3   OH223548   0.177   2.206   1.518 -0.1397 -0.0165 -0.3753
  638TIP3    H123549   0.117   2.177   1.587  2.4029 -1.5608  1.3599
  638TIP3    H223550   0.220   2.126   1.488  3.1226  1.2024  0.6093
  639TIP3   OH223551   3.607   0.368   0.725 -0.2593 -0.5258 -0.0421
  639TIP3    H123552   3.629   0.279   0.752 -1.1449 -0.3971  1.1883
  639TIP3    H223553   3.529   0.390   0.777 -0.7987  0.5120 -1.2396
  640TIP3   OH223554   3.966   5.026   8.621 -0.1876  0.4395  0.0011
  640TIP3    H123555   3.927   5.053   8.704 -1.0394 -0.8107  0.0355
  640TIP3    H223556   3.904   5.055   8.554 -1.0972 -1.2974  0.0364
  641TIP3   OH223557   0.975   0.833   1.611 -0.9126  0.5128  0.3432
  641TIP3    H123558   0.914   0.906   1.619 -1.8549  0.0276 -1.6365
  641TIP3    H223559   0.975   0.813   1.517  1.3778 -0.3063  0.4654
  642TIP3   OH223560   0.206   2.080   7.812  0.0175  0.2048 -0.6745
  642TIP3    H123561   0.213   1.999   7.761 -2.5507 -0.8127  0.4064
  642TIP3    H223562   0.121   2.117   7.787 -1.1919 -0.1524  2.4375
  643TIP3   OH223563   3.369   6.435   7.489  0.9652 -0.2945  0.1256
  643TIP3    H123564   3.308   6.503   7.459  0.0323 -1.6920 -1.2696
  643TIP3    H223565   3.349   6.424   7.582 -1.9937 -1.6978 -0.5596
  644TIP3   OH223566   5.134   0.436   8.941 -0.0628 -0.7944 -0.1501
  644TIP3    H123567   5.166   0.352   8.908 -1.7154 -0.3249 -3.3071
  644TIP3    H223568   5.045   0.417   8.972 -0.1664 -0.3498 -0.1700
  645TIP3   OH223569   1.276   6.035   1.812  0.4279 -0.0854 -0.6949
  645TIP3    H123570   1.259   6.021   1.719  0.5165  1.9085 -1.0580
  645TIP3    H223571   1.252   6.127   1.827  0.1052 -0.4471  1.3281
  646TIP3   OH223572   1.685   5.108   8.867  0.1389 -0.0777 -1.0434
  646TIP3    H123573   1.616   5.067   8.918  2.9936 -1.0490  2.4021
  646TIP3    H223574   1.679   5.201   8.889 -0.1083 -0.1532 -0.7923
  647TIP3   OH223575   0.575   6.382   1.912 -0.6118  0.7542 -0.5032
  647TIP3    H123576   0.522   6.329   1.972 -0.3550 -0.0148 -0.9366
  647TIP3    H223577   0.512   6.435   1.864 -0.9025  0.6184 -0.2728
  648TIP3   OH223578   5.742   2.714   8.336 -0.4051 -0.1399  0.1156
  648TIP3    H123579   5.687   2.689   8.261  0.0731  0.3322 -0.4034
  648TIP3    H223580   5.681   2.755   8.397 -0.6816  0.1553 -0.3503
  649TIP3   OH223581   0.665   3.650   1.742 -0.1719  0.8000  0.0319
  649TIP3    H123582   0.713   3.567   1.740  1.5699  1.7720 -0.5732
  649TIP3    H223583   0.697   3.694   1.821 -1.5442  0.6783  0.6924
  650TIP3   OH223584   3.835   4.774   1.601  0.0020 -0.4581  0.4112
  650TIP3    H123585   3.785   4.809   1.527 -2.5134  1.1929  2.7241
  650TIP3    H223586   3.857   4.684   1.574 -0.2230  0.2705 -2.5567
  651TIP3   OH223587   6.084   5.715   0.257  0.5043  0.4764  0.0034
  651TIP3    H123588   6.112   5.802   0.286 -0.2477  0.1782  1.7160
  651TIP3    H223589   6.152   5.688   0.195  1.7070  1.5493  0.7857
  652TIP3   OH223590   0.963   5.922   0.303  0.1187  0.0628  0.7635
  652TIP3    H123591   0.975   5.830   0.324 -0.8861 -0.3143 -0.2598
  652TIP3    H223592   1.040   5.965   0.342  0.6101 -1.1894  1.2346
  653TIP3   OH223593   2.229   2.277   7.020  0.6311  0.3138 -0.0977
  653TIP3    H123594   2.176   2.326   7.083 -0.3572  0.0592 -0.7176
  653TIP3    H223595   2.167   2.220   6.975  1.6190 -0.8638 -0.0196
  654TIP3   OH223596   2.550   4.348   2.419 -0.3135  0.0323  0.1164
  654TIP3    H123597   2.640   4.369   2.394  0.1991 -1.1535  0.8419
  654TIP3    H223598   2.557   4.264   2.465 -1.6740  0.3476  0.9718
  655TIP3   OH223599   0.176   3.226   7.577 -0.1073  0.6607  0.2949
  655TIP3    H123600   0.113   3.167   7.535  0.0740  0.1984  0.6700
  655TIP3    H223601   0.151   3.313   7.546 -0.2387  0.3696 -0.4366
  656TIP3   OH223602   5.250   5.225   1.765  0.2061 -0.0570  0.8091
  656TIP3    H123603   5.295   5.266   1.839  2.1589  1.7600 -1.2402
  656TIP3    H223604   5.269   5.132   1.774 -1.0459 -0.1625  3.4336
  657TIP3   OH223605   5.941   6.602   0.721 -0.2545  0.1763 -0.2505
  657TIP3    H123606   5.961   6.527   0.664  1.9591  0.3791  0.1735
  657TIP3    H223607   5.945   6.678   0.663 -0.3805  0.1515 -0.2901
  658TIP3   OH223608   0.888   5.497   6.748 -0.6796  0.2191  0.3029
  658TIP3    H123609   0.897   5.428   6.813  0.6113  0.3771  0.3156
  658TIP3    H223610   0.920   5.576   6.791 -1.4814  0.6915  0.0541
  659TIP3   OH223611   5.696   3.725   0.755  0.1199 -0.0787 -0.2132
  659TIP3    H123612   5.788   3.743   0.735  0.3224 -0.6275  0.1994
  659TIP3    H223613   5.699   3.653   0.818 -0.6236 -0.7955 -0.9702
  660TIP3   OH223614   2.773   2.472   8.428 -0.3578 -0.3222  0.1690
  660TIP3    H123615   2.838   2.453   8.496 -0.4146 -1.4969 -0.0696
  660TIP3    H223616   2.803   2.421   8.352  0.5949  2.1835 -1.2552
  661TIP3   OH223617   0.617   1.399   7.542  0.3084  0.2355 -0.4304
  661TIP3    H123618   0.679   1.356   7.600  1.0623 -1.2178 -2.2171
  661TIP3    H223619   0.619   1.491   7.569 -0.2039 -0.5053  2.4914
  662TIP3   OH223620   3.645   4.183   1.068  0.1366 -0.3803 -0.0305
  662TIP3    H123621   3.598   4.172   0.985  1.9736 -1.3304 -0.9883
  662TIP3    H223622   3.648   4.095   1.106  0.8602 -0.2718  0.1775
  663TIP3   OH223623   4.934   4.659   1.104  0.1108  0.8495 -0.5813
  663TIP3    H123624   4.845   4.674   1.072  0.2647  0.7791 -1.0405
  663TIP3    H223625   4.934   4.696   1.192 -1.1249 -1.3357  0.4311
  664TIP3   OH223626   3.649   0.993   7.093 -0.2646  0.2924 -0.2130
  664TIP3    H123627   3.718   0.927   7.096  1.0095  1.5789 -0.1537
  664TIP3    H223628   3.570   0.946   7.121  0.5921 -1.1750 -0.1224
  665TIP3   OH223629   4.577   1.809   0.812 -0.4551  0.0691 -0.1122
  665TIP3    H123630   4.558   1.902   0.796 -1.0574  0.1544  0.9938
  665TIP3    H223631   4.532   1.763   0.741  0.0384  0.6310 -0.7994
  666TIP3   OH223632   3.000   6.389   0.249  0.4648  0.0997 -0.2366
  666TIP3    H123633   2.981   6.475   0.211 -0.9266  0.2829  0.8429
  666TIP3    H223634   3.091   6.371   0.221  0.4775  1.4977 -1.2117
  667TIP3   OH223635   3.065   6.725   7.081 -0.7950 -0.2628 -0.2031
  667TIP3    H123636   3.149   6.741   7.124 -0.7458  0.6746 -0.6270
  667TIP3    H223637   3.033   6.812   7.058 -1.0693 -0.7111 -1.5973
  668TIP3   OH223638   6.288   6.358   7.124 -0.3146  0.4170 -0.2544
  668TIP3    H123639   6.287   6.448   7.094 -0.7140 -0.1030 -1.9193
  668TIP3    H223640   6.242   6.309   7.055  1.7837 -1.3830 -0.4992
  669TIP3   OH223641   5.157   5.592   2.646  0.1927  0.1430 -0.3942
  669TIP3    H123642   5.130   5.590   2.554  1.7529  1.7663 -0.9383
  669TIP3    H223643   5.223   5.523   2.653  0.2584  0.1907 -0.5424
  670TIP3   OH223644   4.831   0.595   8.308 -0.6221 -0.0023  0.0268
  670TIP3    H123645   4.751   0.556   8.342 -0.6922 -0.8280 -1.0138
  670TIP3    H223646   4.887   0.519   8.288 -0.1031  0.5062 -0.4781
  671TIP3   OH223647   3.207   6.599   8.693  0.6748 -0.0123  0.5975
  671TIP3    H123648   3.146   6.570   8.625  0.0696 -0.1288  1.1854
  671TIP3    H223649   3.281   6.538   8.687 -0.1420 -1.0802  1.1654
  672TIP3   OH223650   3.934   0.826   0.793 -0.1190  0.5224  0.0729
  672TIP3    H123651   3.925   0.763   0.722  1.0849  0.1976  0.1867
  672TIP3    H223652   3.880   0.791   0.864  0.7885 -0.5703  0.2461
  673TIP3   OH223653   1.017   1.010   8.944 -0.0618 -0.0690 -0.0420
  673TIP3    H123654   1.044   1.080   8.886 -2.8404 -0.1679 -1.6174
  673TIP3    H223655   1.079   0.939   8.926  0.2977  0.5744 -1.4866
  674TIP3   OH223656   5.980   2.249   1.392  0.3476  0.3289 -0.5804
  674TIP3    H123657   5.919   2.183   1.361  0.6392 -0.4326  0.4237
  674TIP3    H223658   5.952   2.330   1.348 -0.1681 -0.3941 -1.6228
  675TIP3   OH223659   0.123   6.116   1.680  0.4060 -0.0053 -0.1317
  675TIP3    H123660   0.185   6.047   1.656 -0.5870 -2.0387  2.5725
  675TIP3    H223661   0.053   6.109   1.616  0.7665 -0.8683 -0.4485
  676TIP3   OH223662   3.281   0.483   7.910 -0.2912 -0.1095  0.0149
  676TIP3    H123663   3.210   0.474   7.973  0.3128 -0.2211  0.6835
  676TIP3    H223664   3.343   0.413   7.932  0.4806  0.5582  0.0296
  677TIP3   OH223665   4.340   1.386   8.382  0.0651 -0.6592 -0.5272
  677TIP3    H123666   4.316   1.300   8.414  0.2619 -0.6745 -0.4251
  677TIP3    H223667   4.266   1.412   8.326 -0.6873 -0.2608  0.6190
  678TIP3   OH223668   6.425   0.895   7.737 -0.3239 -0.0130  0.6041
  678TIP3    H123669   6.469   0.977   7.758 -0.7828  0.0059  1.5067
  678TIP3    H223670   6.355   0.920   7.675  1.6038 -0.2006 -1.8135
  679TIP3   OH223671   2.022   0.936   1.673  0.0235  0.6337 -0.6956
  679TIP3    H123672   2.077   0.859   1.687 -0.6914  0.3429  0.6598
  679TIP3    H223673   2.084   1.007   1.656  0.6921 -0.1928 -1.8541
  680TIP3   OH223674   5.214   2.870   0.713 -0.4502  0.0303 -0.4188
  680TIP3    H123675   5.279   2.926   0.670  0.5643 -1.4117 -0.8298
  680TIP3    H223676   5.265   2.799   0.752 -1.6165 -0.1361  0.9022
  681TIP3   OH223677   2.057   6.696   7.939  0.6368 -0.2859 -0.1119
  681TIP3    H123678   2.106   6.764   7.893  0.3336  0.6345  0.8667
  681TIP3    H223679   1.968   6.703   7.904  0.7752 -0.7100 -0.5615
  682TIP3   OH223680   3.216   6.404   7.721 -0.4259  0.6903 -0.2692
  682TIP3    H123681   3.223   6.481   7.777  1.0981 -1.2689  2.4660
  682TIP3    H223682   3.137   6.359   7.751  0.8523 -0.8031  1.0315
  683TIP3   OH223683   5.367   4.910   1.878 -0.1013 -0.1288  0.3310
  683TIP3    H123684   5.425   4.957   1.938  1.0457 -2.3096  1.0381
  683TIP3    H223685   5.280   4.946   1.896  0.4396  0.3566  2.2277
  684TIP3   OH223686   3.652   5.876   7.124  0.3820  0.8954  1.0925
  684TIP3    H123687   3.746   5.891   7.137  0.8978 -0.4714 -0.5932
  684TIP3    H223688   3.647   5.785   7.094 -1.0710  1.9427 -2.2419
  685TIP3   OH223689   4.617   1.011   8.298  0.6028 -0.2514 -0.0002
  685TIP3    H123690   4.712   1.005   8.284  0.3646 -2.3711 -0.9770
  685TIP3    H223691   4.607   1.000   8.393  1.3138 -0.0418  0.1108
  686TIP3   OH223692   0.942   1.555   1.102 -0.0475  0.1505  0.0512
  686TIP3    H123693   0.877   1.539   1.033 -0.5957 -0.5145  0.7142
  686TIP3    H223694   1.022   1.515   1.068 -0.8981 -2.3387  0.7896
  687TIP3   OH223695   2.740   0.670   2.545 -0.1071 -0.0237 -0.0073
  687TIP3    H123696   2.672   0.733   2.571 -2.0160 -2.7197  2.2215
  687TIP3    H223697   2.792   0.716   2.480 -3.8536  2.4077 -1.6449
  688TIP3   OH223698   5.824   3.929   7.832  0.2455  0.5052  0.3654
  688TIP3    H123699   5.774   3.934   7.751  1.2706  0.4840 -0.2894
  688TIP3    H223700   5.877   4.008   7.833 -0.3115  0.8934  1.4165
  689TIP3   OH223701   0.819   1.229   0.367  0.0347  0.3965 -0.0918
  689TIP3    H123702   0.868   1.176   0.305 -1.2946 -1.3722  0.2856
  689TIP3    H223703   0.819   1.317   0.329 -1.5347 -0.7869 -3.1426
  690TIP3   OH223704   3.991   6.445   0.521 -0.1792  0.3274  0.0593
  690TIP3    H123705   3.978   6.364   0.471  1.9320 -0.2494  0.3548
  690TIP3    H223706   3.994   6.514   0.454 -3.0071  0.3743 -0.1285
  691TIP3   OH223707   2.316   0.707   1.334  0.0598 -0.2523 -0.3715
  691TIP3    H123708   2.394   0.743   1.292  0.6319 -0.2686  0.6489
  691TIP3    H223709   2.290   0.634   1.278  0.6815 -0.1503 -0.8044
  692TIP3   OH223710   1.617   5.457   8.332 -0.2167 -0.1611  0.3157
  692TIP3    H123711   1.709   5.453   8.304  0.0208 -0.0498  1.0523
  692TIP3    H223712   1.571   5.497   8.259  0.0668 -1.5759 -0.6727
  693TIP3   OH223713   3.455   0.263   7.918 -0.0609 -0.5101  0.1826
  693TIP3    H123714   3.485   0.264   8.008  1.2019  0.5146 -0.2219
  693TIP3    H223715   3.395   0.188   7.913  1.1710 -1.6164  1.4267
  694TIP3   OH223716   3.865   3.505   7.406  0.5606 -0.7126  0.4381
  694TIP3    H123717   3.926   3.495   7.479  0.1047  1.4029  1.1944
  694TIP3    H223718   3.894   3.585   7.361 -1.4897  0.2701  0.7341
  695TIP3   OH223719   0.170   3.776   0.420  0.4918  0.4539 -0.1926
  695TIP3    H123720   0.141   3.713   0.486 -0.8660 -0.0467 -1.2397
  695TIP3    H223721   0.166   3.861   0.465 -0.1696  0.0918  0.4504
  696TIP3   OH223722   5.930   5.365   7.284  0.5567 -0.5146 -0.2401
  696TIP3    H123723   5.891   5.343   7.368 -0.0803  0.3395 -0.2930
  696TIP3    H223724   5.888   5.307   7.221 -0.9880  0.6467 -0.3587
  697TIP3   OH223725   4.433   4.464   0.644 -0.4541  0.2180  0.6049
  697TIP3    H123726   4.490   4.454   0.720  0.1027 -0.2214  0.1338
  697TIP3    H223727   4.453   4.389   0.589 -0.6831  0.6653 -0.0967
  698TIP3   OH223728   5.649   4.870   0.525 -0.1848  0.0968 -0.5814
  698TIP3    H123729   5.695   4.871   0.609  0.0565  0.3467 -0.7160
  698TIP3    H223730   5.681   4.791   0.481 -2.0755 -1.3889  0.5269
  699TIP3   OH223731   4.692   0.457   7.630 -0.4030  0.4338  0.1249
  699TIP3    H123732   4.751   0.393   7.671 -0.9815 -0.4115 -0.3550
  699TIP3    H223733   4.722   0.541   7.664  0.7261 -0.0337  0.3316
  700TIP3   OH223734   3.454   0.878   6.431 -0.6265  0.6630  0.2183
  700TIP3    H123735   3.397   0.920   6.366  0.0594  1.4815  0.1277
  700TIP3    H223736   3.436   0.924   6.513 -2.7743 -1.4989  1.0982
  701TIP3   OH223737   3.933   1.549   8.054 -0.1390  0.5064 -0.4882
  701TIP3    H123738   3.988   1.529   8.130  0.3620  2.0547 -0.4206
  701TIP3    H223739   3.895   1.464   8.030  1.7031 -0.4888 -0.0982
  702TIP3   OH223740   3.853   4.467   8.117  0.5767 -0.3169  0.3334
  702TIP3    H123741   3.880   4.549   8.159  0.3816 -0.7498  1.3051
  702TIP3    H223742   3.847   4.490   8.024  2.0203  0.3861  0.3815
  703TIP3   OH223743   5.263   5.064   1.442 -0.2462 -0.1591  0.4561
  703TIP3    H123744   5.319   5.024   1.374 -0.7658 -1.1923  0.6106
  703TIP3    H223745   5.317   5.133   1.479  0.5865 -0.5164 -0.0443
  704TIP3   OH223746   3.087   1.366   1.523  0.1913 -0.1608  0.4456
  704TIP3    H123747   2.994   1.358   1.541 -0.3445  0.5498 -1.6842
  704TIP3    H223748   3.092   1.397   1.432  2.5061 -0.5082  0.3732
  705TIP3   OH223749   0.977   1.114   1.957  0.4634 -0.4137  0.2338
  705TIP3    H123750   1.051   1.087   2.012  1.0957  0.3474 -0.2151
  705TIP3    H223751   0.991   1.067   1.874 -0.6003 -1.7183  0.7621
  706TIP3   OH223752   5.405   3.275   8.503 -0.1474 -0.6209 -0.2305
  706TIP3    H123753   5.344   3.244   8.570 -1.0133 -0.0223 -0.7203
  706TIP3    H223754   5.395   3.370   8.505  0.6672 -0.5311 -0.4223
  707TIP3   OH223755   3.279   3.095   1.309 -0.2636  0.1367  0.2549
  707TIP3    H123756   3.243   3.175   1.270  0.7030  0.9051  0.8856
  707TIP3    H223757   3.334   3.126   1.381  0.2334 -1.0951  0.4341
  708TIP3   OH223758   2.549   2.162   7.281  0.2802  0.3984  0.2655
  708TIP3    H123759   2.589   2.201   7.359  2.4440  0.5318 -0.8144
  708TIP3    H223760   2.609   2.090   7.258 -1.4444 -0.9868 -0.1048
  709TIP3   OH223761   2.150   4.847   0.937  0.1493  0.1234 -0.2836
  709TIP3    H123762   2.107   4.932   0.947 -0.1975 -0.0918  0.0944
  709TIP3    H223763   2.216   4.845   1.006  1.3347  0.7844 -1.3668
  710TIP3   OH223764   2.073   0.257   0.803  0.3321 -0.1298 -0.4666
  710TIP3    H123765   1.995   0.216   0.767 -0.3980 -0.9267  1.8475
  710TIP3    H223766   2.042   0.339   0.841  0.7395 -0.1061 -0.1756
  711TIP3   OH223767   1.484   1.518   8.148  0.0600 -0.2054 -0.1642
  711TIP3    H123768   1.458   1.597   8.196 -1.4517 -1.0595  0.4617
  711TIP3    H223769   1.442   1.527   8.063 -0.2002 -0.3880 -0.0545
  712TIP3   OH223770   1.810   1.158   8.426 -0.1776 -0.2312 -0.4289
  712TIP3    H123771   1.876   1.214   8.386 -0.7360  0.8541  0.1174
  712TIP3    H223772   1.836   1.069   8.402  1.8129  0.0988  0.2422
  713TIP3   OH223773   5.739   1.751   7.349 -0.0524 -0.6270 -0.1339
  713TIP3    H123774   5.738   1.656   7.349 -0.2155 -0.6251 -0.0489
  713TIP3    H223775   5.788   1.775   7.427 -1.9193 -0.6212  1.1035
  714TIP3   OH223776   4.324   0.761   2.560  0.0613 -0.1653 -0.2542
  714TIP3    H123777   4.371   0.704   2.499  0.1627 -0.5934  0.2149
  714TIP3    H223778   4.389   0.827   2.585  0.5181 -0.9082  0.5964
  715TIP3   OH223779   1.576   5.634   2.579 -0.3204 -0.1632  0.6508
  715TIP3    H123780   1.599   5.544   2.556  3.2748  1.1238 -1.8207
  715TIP3    H223781   1.622   5.650   2.661  1.0932  0.0053 -0.1303
  716TIP3   OH223782   4.055   3.563   6.813  0.2658 -0.1932 -0.3616
  716TIP3    H123783   3.985   3.601   6.760  0.6535  1.0662  0.0142
  716TIP3    H223784   4.018   3.555   6.900  0.4021 -0.0819 -0.2941
  717TIP3   OH223785   2.977   2.664   8.992  0.3450 -0.0263  0.3438
  717TIP3    H123786   3.058   2.613   8.995  0.2193 -0.1935  1.0621
  717TIP3    H223787   3.005   2.751   8.964  0.7177 -0.1862  0.2108
  718TIP3   OH223788   4.646   5.176   7.783 -0.4981  0.3542  0.1181
  718TIP3    H123789   4.621   5.225   7.705 -0.7865  1.6086  0.9669
  718TIP3    H223790   4.642   5.084   7.756  0.6098  0.7939 -1.6692
  719TIP3   OH223791   1.248   1.955   0.814 -0.4685  0.1659  0.1648
  719TIP3    H123792   1.170   1.909   0.844  0.5308 -0.8057  1.3866
  719TIP3    H223793   1.262   1.922   0.725 -2.3629  1.6315 -0.7683
  720TIP3   OH223794   0.605   2.235   8.360  0.8471 -0.3240  0.1884
  720TIP3    H123795   0.524   2.192   8.332  0.2375  1.2715 -0.6005
  720TIP3    H223796   0.615   2.210   8.452 -0.7665 -0.2389  0.4116
  721TIP3   OH223797   4.483   5.989   8.421  0.2582 -0.6471 -0.6197
  721TIP3    H123798   4.433   5.908   8.425 -0.2383 -0.4546 -2.0694
  721TIP3    H223799   4.558   5.969   8.364  0.8783 -0.4533  0.1133
  722TIP3   OH223800   2.645   5.555   7.594 -0.6152 -0.5089 -0.1666
  722TIP3    H123801   2.623   5.473   7.637 -2.2718 -0.9022 -1.6511
  722TIP3    H223802   2.564   5.606   7.598  0.3372  1.0340  0.5933
  723TIP3   OH223803   5.758   3.018   0.576  0.0801  0.2755 -0.3571
  723TIP3    H123804   5.841   3.066   0.583 -0.3917  0.9367  1.0310
  723TIP3    H223805   5.778   2.930   0.607 -0.0584  0.8591  1.4716
  724TIP3   OH223806   4.107   0.930   8.136  0.2680  0.0588  0.1327
  724TIP3    H123807   4.187   0.931   8.083  0.8001  0.8719  0.9273
  724TIP3    H223808   4.133   0.890   8.219 -0.8269 -2.2868 -0.5607
  725TIP3   OH223809   4.316   3.791   7.193 -0.6285  0.2530  0.2612
  725TIP3    H123810   4.309   3.739   7.113 -0.1183 -0.3922  0.6243
  725TIP3    H223811   4.340   3.879   7.162 -0.6723  0.0695 -0.3075
  726TIP3   OH223812   4.349   2.111   7.234 -0.6514 -0.0566 -0.1079
  726TIP3    H123813   4.367   2.189   7.182  1.4063 -0.3414  0.0625
  726TIP3    H223814   4.333   2.144   7.322  1.8073  0.1881  0.3317
  727TIP3   OH223815   4.036   3.878   0.477 -0.2763  0.1043  0.8904
  727TIP3    H123816   4.036   3.782   0.479  1.3843  0.0319 -0.2616
  727TIP3    H223817   4.076   3.900   0.393  0.4820  1.7960  1.6433
  728TIP3   OH223818   2.158   6.074   0.026  0.0022  0.9063  0.1372
  728TIP3    H123819   2.207   6.000   0.060 -0.1994  0.5291 -0.3688
  728TIP3    H223820   2.098   6.098   0.096  0.2705  0.7796  0.4125
  729TIP3   OH223821   0.793   5.112   8.154 -0.2045  0.0504  0.1833
  729TIP3    H123822   0.849   5.068   8.090 -0.0048  0.4326  0.0964
  729TIP3    H223823   0.825   5.081   8.239  1.3211  1.6096  0.2324
  730TIP3   OH223824   3.532   1.119   0.493 -0.2685 -0.3448  0.0362
  730TIP3    H123825   3.437   1.124   0.493 -0.5511 -3.1017  1.7643
  730TIP3    H223826   3.551   1.037   0.539  2.9641  0.3896  0.2521
  731TIP3   OH223827   3.738   5.423   7.224 -0.1010  0.5670 -0.3657
  731TIP3    H123828   3.665   5.474   7.188  0.6804  0.4468 -2.1981
  731TIP3    H223829   3.723   5.334   7.195 -0.2810  0.1444  0.9697
  732TIP3   OH223830   2.274   6.196   1.305 -0.2361 -0.1707 -0.3947
  732TIP3    H123831   2.182   6.202   1.331 -0.1301 -0.7960  0.1689
  732TIP3    H223832   2.273   6.156   1.218 -0.4283 -2.9539  0.7567
  733TIP3   OH223833   2.167   3.848   8.573  0.3201  0.1207  0.0110
  733TIP3    H123834   2.107   3.813   8.507 -1.0624 -0.2242  1.4006
  733TIP3    H223835   2.252   3.853   8.528 -0.9993  2.0402 -2.4856
  734TIP3   OH223836   5.688   0.089   1.134  0.6040  0.1541  0.0036
  734TIP3    H123837   5.721   0.149   1.201  0.7477  0.4798 -0.3509
  734TIP3    H223838   5.737   0.112   1.055 -0.5221  0.7202 -0.5618
  735TIP3   OH223839   1.338   5.497   8.686 -0.1438 -0.3722  0.2334
  735TIP3    H123840   1.291   5.444   8.621 -1.9913  0.7544  0.5606
  735TIP3    H223841   1.400   5.436   8.725 -0.7206 -1.7404 -0.8533
  736TIP3   OH223842   6.280   0.554   7.717  0.2237 -0.0872  0.0114
  736TIP3    H123843   6.367   0.550   7.677 -0.0231  0.3203 -0.5667
  736TIP3    H223844   6.241   0.634   7.683 -0.1412  0.0605  0.7640
  737TIP3   OH223845   4.499   0.236   1.857 -0.2220  0.1194  0.0783
  737TIP3    H123846   4.537   0.279   1.934  0.9850 -3.1268  1.4856
  737TIP3    H223847   4.409   0.215   1.883  0.6232 -2.3026  1.3363
  738TIP3   OH223848   3.151   2.263   8.983 -0.2509 -0.4345  0.1324
  738TIP3    H123849   3.164   2.255   8.888 -1.4357 -1.3250  0.0261
  738TIP3    H223850   3.231   2.306   9.014  0.3094 -0.4385 -1.2189
  739TIP3   OH223851   1.037   2.920   0.392 -0.3695  0.6622 -0.0230
  739TIP3    H123852   1.120   2.875   0.402 -0.2421  0.5760 -1.2345
  739TIP3    H223853   0.971   2.850   0.393 -0.2708  0.5474 -0.7275
  740TIP3   OH223854   5.940   6.472   0.024  0.1758  0.3739  0.3938
  740TIP3    H123855   6.007   6.414   0.060  1.7034  1.0670 -1.1559
  740TIP3    H223856   5.905   6.519   0.100  0.8283 -0.6220  1.3406
  741TIP3   OH223857   2.944   6.031   2.484 -0.8948  0.4484  0.5630
  741TIP3    H123858   2.878   6.089   2.448 -1.2294  0.7937  1.7103
  741TIP3    H223859   3.011   6.026   2.416 -2.0976  0.0636 -0.6365
  742TIP3   OH223860   1.568   1.600   0.167  0.2224  0.8702  0.0122
  742TIP3    H123861   1.485   1.553   0.160  0.5710 -0.5032  3.1121
  742TIP3    H223862   1.628   1.552   0.109 -0.0645 -1.0926  1.2218
  743TIP3   OH223863   4.636   6.534   1.991  0.5257 -0.2225 -0.1357
  743TIP3    H123864   4.540   6.536   1.993  0.5359  1.6400 -0.6572
  743TIP3    H223865   4.658   6.523   1.899  0.7975  2.8607 -0.5172
  744TIP3   OH223866   5.977   4.698   7.965  0.2434  0.3694  0.4631
  744TIP3    H123867   5.903   4.714   8.024 -1.4686 -0.1477 -1.4202
  744TIP3    H223868   5.963   4.609   7.933  1.6401  0.3022 -0.0221
  745TIP3   OH223869   2.663   4.215   1.755  0.1125  0.4247 -0.1560
  745TIP3    H123870   2.577   4.233   1.716  0.0384 -0.8828 -0.6398
  745TIP3    H223871   2.719   4.286   1.722 -0.4408  0.4766 -1.0176
  746TIP3   OH223872   4.338   3.939   7.789  0.1005  0.0798 -0.3696
  746TIP3    H123873   4.389   3.914   7.713  0.7174 -1.0937  0.4010
  746TIP3    H223874   4.353   3.869   7.853  0.5403  1.5636  1.2708
  747TIP3   OH223875   2.202   3.657   0.270  0.0452 -0.1755  0.2976
  747TIP3    H123876   2.155   3.574   0.275 -0.8515  0.3590  1.2685
  747TIP3    H223877   2.275   3.647   0.331  0.7113 -0.7000 -0.5647
  748TIP3   OH223878   5.548   2.123   0.678  0.2700  0.0588  0.1542
  748TIP3    H123879   5.530   2.214   0.702  2.5190  0.9454 -1.1452
  748TIP3    H223880   5.605   2.090   0.747  1.9044  0.6743 -0.8457
  749TIP3   OH223881   2.557   1.118   0.527 -0.0648  0.1167 -0.2981
  749TIP3    H123882   2.512   1.038   0.553 -0.5372  0.8104  1.1607
  749TIP3    H223883   2.509   1.149   0.450 -0.5246 -0.4690 -0.2520
  750TIP3   OH223884   3.468   1.518   7.081 -0.1399  0.6094  0.0843
  750TIP3    H123885   3.491   1.428   7.101 -2.7448  0.0726  1.0941
  750TIP3    H223886   3.394   1.511   7.021  0.6203  2.1313 -1.1066
  751TIP3   OH223887   4.138   4.156   7.464  0.1560 -0.0218 -0.5226
  751TIP3    H123888   4.139   4.194   7.376 -0.1231 -1.4595 -1.1681
  751TIP3    H223889   4.163   4.065   7.452 -0.9258 -0.5261  0.7572
  752TIP3   OH223890   2.371   5.273   8.493  0.0754 -0.5485 -0.0948
  752TIP3    H123891   2.320   5.272   8.574 -0.9684 -0.2826 -0.7294
  752TIP3    H223892   2.306   5.261   8.423  1.1422 -2.6452 -0.8261
  753TIP3   OH223893   1.901   0.056   1.589  0.3145 -0.4179 -0.1174
  753TIP3    H123894   1.807   0.076   1.595  0.0596 -1.7823  0.8566
  753TIP3    H223895   1.909  -0.033   1.624  1.8011 -0.8520 -1.4544
  754TIP3   OH223896   2.152   4.913   1.819 -0.7181  0.0647 -0.0784
  754TIP3    H123897   2.172   4.823   1.794  1.2218  0.7388 -1.2838
  754TIP3    H223898   2.194   4.925   1.904 -0.4728 -0.0096 -0.1890
  755TIP3   OH223899   3.620   4.961   1.200  0.4418 -0.4603 -0.0233
  755TIP3    H123900   3.715   4.971   1.198  0.4806 -0.3927  1.2177
  755TIP3    H223901   3.587   5.029   1.141  1.0946  0.7181  0.9327
  756TIP3   OH223902   4.263   2.015   0.523 -0.2174 -0.4125  0.0610
  756TIP3    H123903   4.293   2.059   0.443 -0.8848 -0.8746 -0.4618
  756TIP3    H223904   4.168   2.023   0.520 -0.3303 -1.5616  0.1297
  757TIP3   OH223905   2.961   2.090   8.409  0.0404  0.3290  0.2697
  757TIP3    H123906   3.041   2.072   8.360  1.0848  0.3921  1.8916
  757TIP3    H223907   2.925   2.004   8.430 -1.0028  0.3012 -1.4825
  758TIP3   OH223908   1.843   3.835   1.618 -0.3960  0.1981 -0.0248
  758TIP3    H123909   1.811   3.892   1.548 -3.7796 -1.6634 -0.2223
  758TIP3    H223910   1.886   3.894   1.680 -1.1874  2.5383 -1.5782
  759TIP3   OH223911   5.385   3.096   8.252 -0.0844  0.3579 -0.0672
  759TIP3    H123912   5.371   3.157   8.179  1.0820 -0.1026 -0.7031
  759TIP3    H223913   5.384   3.151   8.330 -0.0125  1.0590 -0.5501
  760TIP3   OH223914   1.108   2.459   7.717  0.0120 -0.1046  0.1098
  760TIP3    H123915   1.024   2.460   7.763  0.5706  1.3503  1.1602
  760TIP3    H223916   1.163   2.401   7.769  0.2167  0.4430  0.5190
  761TIP3   OH223917   4.836   6.279   1.676 -0.2753 -0.0341 -0.2679
  761TIP3    H123918   4.919   6.272   1.724  0.2135  0.2198 -1.0644
  761TIP3    H223919   4.793   6.355   1.714 -1.6357 -1.9428  2.3706
  762TIP3   OH223920   3.283   3.725   8.195  0.0855  0.2629  0.3185
  762TIP3    H123921   3.227   3.798   8.167  1.3831  1.4330  0.6582
  762TIP3    H223922   3.323   3.694   8.114 -0.0662  0.2638  0.2411
  763TIP3   OH223923   6.749   5.205   0.236 -0.1774  0.4739  0.3388
  763TIP3    H123924   6.761   5.162   0.152  1.2002 -0.4972  0.9868
  763TIP3    H223925   6.800   5.152   0.298 -1.0280  1.2440  1.7584
  764TIP3   OH223926   5.599   5.801   0.405  0.1203 -0.0646 -0.3200
  764TIP3    H123927   5.573   5.726   0.458 -0.8632  0.3247 -0.2401
  764TIP3    H223928   5.518   5.850   0.391  0.5873  0.4988 -1.1359
  765TIP3   OH223929   6.258   0.809   1.205  0.3913 -0.2228  0.2068
  765TIP3    H123930   6.215   0.864   1.138  1.1395  1.5484  1.1274
  765TIP3    H223931   6.205   0.822   1.283 -0.3923 -2.1764  0.0450
  766TIP3   OH223932   0.084   5.402   7.698  0.7601  0.1499 -0.6480
  766TIP3    H123933   0.048   5.373   7.781  1.9277 -0.3069 -0.2850
  766TIP3    H223934   0.023   5.369   7.632  1.8856 -3.0046 -0.2470
  767TIP3   OH223935   3.142   0.679   8.997  0.1349 -1.0708  0.1900
  767TIP3    H123936   3.135   0.773   9.012  2.9988 -1.0938  2.7094
  767TIP3    H223937   3.097   0.664   8.913 -1.8107  2.2087  0.4929
  768TIP3   OH223938   5.701   5.720   7.285  0.4859  0.5791 -0.1809
  768TIP3    H123939   5.628   5.778   7.307  0.5353  0.5034  0.1964
  768TIP3    H223940   5.771   5.779   7.257  0.3761  0.6694 -0.2651
  769TIP3   OH223941   0.702   3.475   0.705  0.0810 -0.1049  0.2128
  769TIP3    H123942   0.707   3.436   0.792  1.1169 -3.8783 -1.3463
  769TIP3    H223943   0.634   3.425   0.660  2.2097 -1.0137 -2.2522
  770TIP3   OH223944   2.049   0.631   8.660  0.3317  0.2579 -0.0520
  770TIP3    H123945   2.061   0.661   8.570 -2.5516 -0.0906 -0.6622
  770TIP3    H223946   1.986   0.559   8.653  0.6280 -0.3101  2.1928
  771TIP3   OH223947   2.544   4.647   7.123  0.0619 -0.1674  0.0006
  771TIP3    H123948   2.477   4.608   7.067  0.1526  0.3890 -0.5040
  771TIP3    H223949   2.570   4.576   7.182 -0.6152 -0.5262 -0.1266
  772TIP3   OH223950   3.891   2.398   0.209  0.4493 -0.4515  0.5085
  772TIP3    H123951   3.854   2.457   0.143  1.1792 -1.1606 -0.5718
  772TIP3    H223952   3.858   2.312   0.185 -0.8072 -0.4964  2.2197
  773TIP3   OH223953   2.102   5.629   1.942 -0.3905 -0.4209 -0.2329
  773TIP3    H123954   2.058   5.697   1.891  1.0332  1.5569  1.0241
  773TIP3    H223955   2.074   5.643   2.032  1.3958 -0.1937  0.3408
  774TIP3   OH223956   2.339   3.930   6.171 -0.1980 -0.8324  0.0771
  774TIP3    H123957   2.427   3.892   6.162  0.0798 -0.4764  1.1443
  774TIP3    H223958   2.304   3.891   6.251 -1.0813 -1.0740 -0.4141
  775TIP3   OH223959   6.231   5.155   0.041  0.0255 -0.2041  0.0176
  775TIP3    H123960   6.148   5.192   0.011 -0.5257 -0.5991  1.0104
  775TIP3    H223961   6.244   5.078  -0.015  0.0483  0.2088 -0.5567
  776TIP3   OH223962   0.960   1.264   7.979  0.2370  0.1505  0.3654
  776TIP3    H123963   0.889   1.215   7.938 -0.5506 -0.3142  2.2197
  776TIP3    H223964   1.040   1.222   7.946 -0.2676  0.9404 -2.0555
  777TIP3   OH223965   1.532   3.759   8.037  0.1760  0.0806 -0.1469
  777TIP3    H123966   1.512   3.701   8.109  3.1536 -0.6098  0.2626
  777TIP3    H223967   1.628   3.767   8.038  0.1905  1.6008 -2.8129
  778TIP3   OH223968   1.155   1.028   7.072  0.0390  0.1472  0.3273
  778TIP3    H123969   1.239   1.064   7.099 -0.1766  0.4119  0.6577
  778TIP3    H223970   1.139   1.065   6.985  0.6119 -0.4963 -0.0590
  779TIP3   OH223971   2.014   5.054   8.528  0.6702 -0.0838  0.3063
  779TIP3    H123972   2.005   5.121   8.597  2.9575 -0.1354  0.7246
  779TIP3    H223973   1.975   5.095   8.451  1.0956  1.3474  0.8049
  780TIP3   OH223974   2.091   2.035   7.861  0.0948 -0.2597 -0.0093
  780TIP3    H123975   2.092   2.119   7.908  0.1162 -0.6998  0.8044
  780TIP3    H223976   2.012   1.991   7.893  1.9730 -2.1265  2.4963
  781TIP3   OH223977   4.308   3.601   6.691 -0.1045 -0.0277  0.2404
  781TIP3    H123978   4.233   3.561   6.735 -0.8260  0.5549 -0.4291
  781TIP3    H223979   4.270   3.664   6.630  0.8265 -1.0832 -1.5326
  782TIP3   OH223980   5.583   4.395   0.509 -0.4107  0.4522  0.0426
  782TIP3    H123981   5.645   4.324   0.497 -0.2682  0.7225 -0.9307
  782TIP3    H223982   5.595   4.422   0.600  0.4381  0.0732  0.0562
  783TIP3   OH223983   4.900   3.803   8.675 -0.2588 -0.4365 -0.0575
  783TIP3    H123984   4.974   3.776   8.728  1.1726 -1.0464 -2.2091
  783TIP3    H223985   4.889   3.731   8.612 -0.5283  1.1103 -1.8496
  784TIP3   OH223986   6.104   4.157   8.759 -0.5694  0.8986  0.1454
  784TIP3    H123987   6.055   4.232   8.792 -1.0496  0.0554  1.4341
  784TIP3    H223988   6.186   4.159   8.809  0.4781  1.9368 -1.5471
  785TIP3   OH223989   2.882   0.917   2.119  0.2008 -0.5129 -0.5798
  785TIP3    H123990   2.964   0.962   2.097  0.3681 -0.3964  0.2437
  785TIP3    H223991   2.830   0.983   2.165 -0.8583 -0.2256 -2.1481
  786TIP3   OH223992   5.075   1.426   0.859 -0.1547  0.5201  0.2244
  786TIP3    H123993   5.059   1.383   0.775 -1.1901  1.0505  0.1295
  786TIP3    H223994   5.001   1.398   0.914  0.8795 -0.3878  1.2036
  787TIP3   OH223995   0.963   2.066   0.157  0.0169  0.5979  0.4623
  787TIP3    H123996   0.874   2.095   0.138 -0.1253 -0.1640 -0.1030
  787TIP3    H223997   1.008   2.144   0.189 -0.1047  1.6989 -1.8363
  788TIP3   OH223998   4.943   4.985   7.474 -0.4728 -0.1218 -0.4120
  788TIP3    H123999   4.925   4.909   7.529  1.0462 -0.7449 -0.7218
  788TIP3    H224000   4.857   5.024   7.457 -1.0981 -0.7017  1.2549
  789TIP3   OH224001   6.616   3.705   7.821 -1.0765  0.5268  0.0499
  789TIP3    H124002   6.590   3.620   7.857  1.0089 -0.5241 -0.7432
  789TIP3    H224003   6.630   3.761   7.897 -1.1023 -0.2743  0.6590
  790TIP3   OH224004   2.186   0.953   8.831  0.6402  0.0657 -0.6319
  790TIP3    H124005   2.174   1.010   8.755 -0.6701 -1.7215 -1.8769
  790TIP3    H224006   2.115   0.889   8.824  2.9521 -2.7894 -0.3679
  791TIP3   OH224007   4.071   6.018   0.232  0.5517 -0.0729 -0.4312
  791TIP3    H124008   4.075   5.922   0.230  2.1087 -0.0437 -0.3452
  791TIP3    H224009   4.125   6.045   0.157  0.9754  0.7383  0.1542
  792TIP3   OH224010   1.989   1.519   8.221  0.3316 -0.2203 -0.2926
  792TIP3    H124011   2.005   1.432   8.259 -0.1756  0.2356  1.0268
  792TIP3    H224012   1.895   1.531   8.228  0.4881  0.7511  0.2625
  793TIP3   OH224013   4.474   1.003   8.834 -0.3786  0.4659  0.1059
  793TIP3    H124014   4.473   0.992   8.929 -0.4683 -1.2368 -0.0693
  793TIP3    H224015   4.532   1.078   8.819  1.1741 -0.4247  1.4069
  794TIP3   OH224016   1.598   1.825   6.607  0.1386 -0.1883  0.0502
  794TIP3    H124017   1.519   1.772   6.603  0.6972 -0.9864 -1.1385
  794TIP3    H224018   1.642   1.809   6.523  0.3210  2.1948 -0.3734
  795TIP3   OH224019   0.511   1.965   7.596 -0.1153  0.2271  0.1993
  795TIP3    H124020   0.575   1.947   7.527  0.5530 -0.9152  1.0755
  795TIP3    H224021   0.437   1.908   7.576  0.4236 -0.7389  0.8536
  796TIP3   OH224022   1.717   0.583   7.412 -0.1821  0.0071 -0.0108
  796TIP3    H124023   1.713   0.657   7.352 -0.0818 -0.3035 -0.4064
  796TIP3    H224024   1.630   0.580   7.452 -0.8080 -0.7690 -1.3537
  797TIP3   OH224025   6.155   4.901   0.491 -0.1211  0.2653 -0.1309
  797TIP3    H124026   6.152   4.994   0.512  0.1158  0.3785 -0.5652
  797TIP3    H224027   6.189   4.898   0.401 -0.5567 -0.2173 -0.2850
  798TIP3   OH224028   2.687   2.997   7.395 -0.2434 -0.1940  0.4444
  798TIP3    H124029   2.682   3.055   7.471  1.0234  1.1027 -0.4000
  798TIP3    H224030   2.751   2.930   7.420 -1.2461 -0.9161  1.1893
  799TIP3   OH224031   0.757   4.778   8.487 -0.3789 -0.7078  0.0842
  799TIP3    H124032   0.807   4.697   8.496  0.9829 -0.3174 -2.8446
  799TIP3    H224033   0.781   4.812   8.401 -0.1094  3.3607  1.5546
  800TIP3   OH224034   0.318   0.900   1.402 -0.3278 -0.5615  0.0711
  800TIP3    H124035   0.352   0.954   1.331  0.4117 -1.1512 -0.0375
  800TIP3    H224036   0.225   0.893   1.384 -0.6761  1.6183  0.7232
  801TIP3   OH224037   6.263   4.947   0.247 -0.0796 -1.1108  0.2928
  801TIP3    H124038   6.356   4.967   0.256 -0.3876 -0.3117  2.5160
  801TIP3    H224039   6.224   5.030   0.219  0.0414 -1.9229 -2.5247
  802TIP3   OH224040   1.457   2.048   0.028  0.6950  0.1541 -0.2011
  802TIP3    H124041   1.458   2.141   0.009  3.0995  0.2185 -0.0658
  802TIP3    H224042   1.510   2.038   0.107 -0.5244 -1.2293  0.5113
  803TIP3   OH224043   3.169   5.328   2.304  0.5373  0.2014 -0.6265
  803TIP3    H124044   3.175   5.316   2.398 -1.3454  1.0797 -0.3621
  803TIP3    H224045   3.172   5.239   2.268  0.3292 -0.1977  0.3153
  804TIP3   OH224046   4.307   2.417   0.935  0.5455  0.1823  0.2820
  804TIP3    H124047   4.256   2.482   0.887  2.1776  0.5435 -1.0659
  804TIP3    H224048   4.329   2.460   1.018  0.8318  1.0054 -0.2082
  805TIP3   OH224049   5.793   3.755   6.729  0.0223 -0.2996  0.2695
  805TIP3    H124050   5.869   3.724   6.680 -0.2899 -0.0334 -0.3916
  805TIP3    H224051   5.813   3.845   6.751  0.2147 -0.4550  0.7461
  806TIP3   OH224052   4.953   5.737   2.424 -0.1547  0.0491  0.0737
  806TIP3    H124053   4.887   5.756   2.358  0.5304  1.8386 -0.1646
  806TIP3    H224054   4.961   5.642   2.424 -1.8086 -0.1258 -0.7745
  807TIP3   OH224055   5.940   2.543   8.431 -0.1399  0.4667 -0.2406
  807TIP3    H124056   5.856   2.571   8.394 -0.2377  1.8403  0.9330
  807TIP3    H224057   5.930   2.555   8.525  1.0899 -0.1761 -0.0052
  808TIP3   OH224058   3.888   4.922   2.476  0.4242  0.2406  0.2220
  808TIP3    H124059   3.883   4.827   2.478 -0.0156  0.2655  0.3503
  808TIP3    H224060   3.980   4.941   2.459  1.0224 -0.1784  2.6588
  809TIP3   OH224061   0.871   4.540   7.735 -0.2109  0.8768 -0.4657
  809TIP3    H124062   0.966   4.551   7.737 -0.2841  1.7339  1.6799
  809TIP3    H224063   0.838   4.611   7.790 -2.1491  0.9095 -1.5874
  810TIP3   OH224064   4.770   2.873   2.156 -0.0667  0.3161 -0.0045
  810TIP3    H124065   4.686   2.918   2.171  1.1956  2.4448  1.1167
  810TIP3    H224066   4.769   2.800   2.217 -0.5205  1.2115  1.1077
  811TIP3   OH224067   5.288   1.623   6.827 -0.1377  0.0011 -0.4526
  811TIP3    H124068   5.338   1.543   6.847  0.0452  0.2121 -0.0374
  811TIP3    H224069   5.230   1.598   6.755 -0.9491 -0.8473  0.4664
  812TIP3   OH224070   6.572   2.335   2.627  0.1454  0.5109  0.5452
  812TIP3    H124071   6.660   2.372   2.622  0.9510 -1.4041 -1.4866
  812TIP3    H224072   6.568   2.273   2.554 -1.5012 -2.4171  2.8684
  813TIP3   OH224073   5.425   2.419   1.145 -0.3017  0.1607  0.7191
  813TIP3    H124074   5.445   2.326   1.135 -1.1897  0.1164 -0.9857
  813TIP3    H224075   5.480   2.447   1.218  2.0214 -1.1219 -0.3852
  814TIP3   OH224076   1.544   5.480   0.817 -0.3047 -0.1177  0.0697
  814TIP3    H124077   1.637   5.479   0.792 -0.6829  0.1127 -1.4474
  814TIP3    H224078   1.544   5.453   0.909  1.2309 -0.5089 -0.0097
  815TIP3   OH224079   0.383   1.999   0.928  0.5053  0.2435  0.2981
  815TIP3    H124080   0.314   1.940   0.957  0.7251  0.1333  0.5899
  815TIP3    H224081   0.338   2.083   0.914  0.4955  0.4503  1.4924
  816TIP3   OH224082   1.517   6.532   0.445 -0.0366  0.4962 -0.1825
  816TIP3    H124083   1.473   6.448   0.460 -1.0962  1.0140 -0.3149
  816TIP3    H224084   1.446   6.596   0.440  0.7075  1.2960 -0.8566
  817TIP3   OH224085   2.187   1.908   1.082 -0.1849  0.2917 -0.6515
  817TIP3    H124086   2.190   1.969   1.009 -0.2081 -0.5835 -1.3992
  817TIP3    H224087   2.135   1.953   1.149 -1.4371  0.5152 -1.7354
  818TIP3   OH224088   1.451   5.022   0.016  0.3151 -0.0671 -0.1004
  818TIP3    H124089   1.453   5.082   0.091 -0.0095 -0.4310  0.2036
  818TIP3    H224090   1.367   5.038  -0.026  0.7102  0.4996 -0.6955
  819TIP3   OH224091   3.648   5.738   8.909 -0.3545 -0.2886  0.7789
  819TIP3    H124092   3.682   5.780   8.988  1.0017 -1.2710  0.7506
  819TIP3    H224093   3.572   5.689   8.939 -0.2206 -0.1497  1.3600
  820TIP3   OH224094   3.182   6.725   0.391 -0.2820 -0.2400 -0.0975
  820TIP3    H124095   3.086   6.725   0.382 -0.2612 -0.7291 -0.3388
  820TIP3    H224096   3.213   6.670   0.319  0.0744 -1.6224  1.0698
  821TIP3   OH224097   5.536   1.884   0.119  0.4794 -0.8133  1.2792
  821TIP3    H124098   5.530   1.917   0.209 -1.3129  1.5879  0.3738
  821TIP3    H224099   5.455   1.836   0.106  0.4860 -0.6932  0.7774
  822TIP3   OH224100   0.679   5.868   6.648  0.4977 -0.1222  0.5253
  822TIP3    H124101   0.617   5.933   6.616 -0.1310 -0.2180  1.4989
  822TIP3    H224102   0.745   5.862   6.579  0.1860  1.0167  0.0979
  823TIP3   OH224103   1.125   3.840   8.568 -0.3426 -0.0076  0.1072
  823TIP3    H124104   1.119   3.931   8.538 -1.7303 -0.7555 -2.1938
  823TIP3    H224105   1.036   3.807   8.561  0.2674 -1.7643  0.1718
  824TIP3   OH224106   5.673   5.608   1.439  0.1746 -0.1569  0.2452
  824TIP3    H124107   5.614   5.639   1.508  0.7783 -0.2897  0.8188
  824TIP3    H224108   5.617   5.555   1.383 -0.3677  0.1275  0.5066
  825TIP3   OH224109   5.056   4.569   0.311 -0.4123  0.4056 -0.2842
  825TIP3    H124110   5.114   4.644   0.296 -1.3535  0.7453 -2.6344
  825TIP3    H224111   4.976   4.608   0.346 -0.8305  0.4916 -1.3194
  826TIP3   OH224112   3.659   4.763   1.372 -0.2443 -0.5018  0.5249
  826TIP3    H124113   3.674   4.690   1.312  0.9320  0.0122  0.1557
  826TIP3    H224114   3.628   4.834   1.316 -0.9574 -0.5822  0.8146
  827TIP3   OH224115   2.644   6.703   0.021 -0.4323 -0.7960 -0.6502
  827TIP3    H124116   2.711   6.742   0.078 -0.7720 -0.9068 -0.1715
  827TIP3    H224117   2.635   6.613   0.053 -2.0011 -0.3088  0.3780
  828TIP3   OH224118   3.394   4.936   7.746 -0.0240  0.1417  0.2786
  828TIP3    H124119   3.395   5.029   7.721 -0.5718  0.2649  0.6992
  828TIP3    H224120   3.471   4.926   7.802 -0.7053  0.6770  1.3551
  829TIP3   OH224121   4.201   3.256   1.315  0.1637  0.2178  0.6614
  829TIP3    H124122   4.246   3.230   1.235  2.2100  0.2500  1.7218
  829TIP3    H224123   4.271   3.262   1.381 -1.5637 -0.7670  2.7008
  830TIP3   OH224124   3.197   2.204   7.481 -0.7195 -0.2123  0.1808
  830TIP3    H124125   3.250   2.230   7.405  2.3167  0.6091  2.4174
  830TIP3    H224126   3.116   2.169   7.442  0.7531 -0.0830 -3.4109
  831TIP3   OH224127   2.727   5.781   7.837  0.3079 -0.1982  0.1969
  831TIP3    H124128   2.762   5.834   7.765  1.5112  1.7113  2.0848
  831TIP3    H224129   2.678   5.711   7.793  1.3537  0.6087 -2.4633
  832TIP3   OH224130   6.471   2.602   0.409  0.1988  0.2861 -0.1678
  832TIP3    H124131   6.460   2.643   0.323  1.8250 -1.2230 -1.1921
  832TIP3    H224132   6.410   2.648   0.466 -1.5665  0.8051 -2.3096
  833TIP3   OH224133   5.619   5.100   0.439 -0.5440 -0.1623  0.1525
  833TIP3    H124134   5.688   5.141   0.387 -0.1063 -0.4040  0.5314
  833TIP3    H224135   5.640   5.006   0.435 -1.3089 -0.3247 -0.3871
  834TIP3   OH224136   0.317   2.520   1.788  0.4302 -0.3400  0.4873
  834TIP3    H124137   0.251   2.519   1.858 -0.4645 -0.5086 -0.3420
  834TIP3    H224138   0.330   2.428   1.767 -0.5320 -0.2317 -0.6796
  835TIP3   OH224139   1.751   1.230   1.612  0.0790  0.7994 -0.1646
  835TIP3    H124140   1.768   1.308   1.558  0.9863  1.3186  0.8312
  835TIP3    H224141   1.801   1.245   1.692 -0.3429 -0.4748  0.3630
  836TIP3   OH224142   5.565   0.561   0.015  0.2152 -0.2669  0.1875
  836TIP3    H124143   5.483   0.529   0.054 -0.0939  1.0358  0.6556
  836TIP3    H224144   5.537   0.601  -0.067  0.2834  0.6743  0.6081
  837TIP3   OH224145   4.724   1.003   1.331  0.0398 -0.1376 -0.3014
  837TIP3    H124146   4.634   0.983   1.359 -0.0612  1.2333  0.4498
  837TIP3    H224147   4.713   1.041   1.244 -0.3484  1.8236  0.5487
  838TIP3   OH224148   1.835   4.976   6.893 -0.2885 -0.6489  0.0657
  838TIP3    H124149   1.776   4.997   6.966  0.9569 -1.7682  1.4499
  838TIP3    H224150   1.782   4.992   6.815 -2.5351 -1.8659  1.2267
  839TIP3   OH224151   0.103   6.340   1.888  1.0053 -0.1642 -0.8464
  839TIP3    H124152   0.165   6.305   1.823  0.3690 -0.1770 -1.4642
  839TIP3    H224153   0.120   6.290   1.967  2.6185  0.6543 -0.6280
  840TIP3   OH224154   5.076   3.572   1.361  0.5167  0.2065  0.0308
  840TIP3    H124155   5.135   3.582   1.286  1.8522 -0.5323  0.9298
  840TIP3    H224156   5.081   3.656   1.407  2.0053 -0.2788  0.8460
  841TIP3   OH224157   2.574   1.362   6.410 -0.8826  0.1228 -0.4140
  841TIP3    H124158   2.612   1.276   6.429  1.4296  0.9816 -0.8629
  841TIP3    H224159   2.519   1.381   6.485  0.2772 -0.8275  0.7233
  842TIP3   OH224160   0.918   4.473   7.026 -0.5525 -1.2052  0.3256
  842TIP3    H124161   0.935   4.406   6.959 -0.8253 -1.0508  0.1032
  842TIP3    H224162   0.823   4.484   7.026 -0.4924 -0.6716  0.2230
  843TIP3   OH224163   4.268   3.922   7.439  0.6984  0.2453 -0.2776
  843TIP3    H124164   4.345   3.925   7.496  1.7994 -1.3646 -1.6014
  843TIP3    H224165   4.301   3.889   7.356 -1.3535 -0.0273 -1.0302
  844TIP3   OH224166   0.281   6.542   7.478 -0.1671 -0.2060  0.2595
  844TIP3    H124167   0.351   6.524   7.415 -1.0338 -1.0610 -0.5008
  844TIP3    H224168   0.246   6.455   7.499  0.5419 -0.0107  2.4700
  845TIP3   OH224169   2.655   3.957   7.647 -0.1208  0.6076 -0.0478
  845TIP3    H124170   2.734   3.986   7.691 -0.2421 -0.7783  1.1537
  845TIP3    H224171   2.600   4.035   7.642  0.9617  1.3808 -0.1368
  846TIP3   OH224172   1.611   5.702   1.516 -0.7401  0.3145  0.2394
  846TIP3    H124173   1.542   5.766   1.531 -1.7659 -0.2894 -1.5487
  846TIP3    H224174   1.677   5.722   1.582 -1.9141  1.9099  1.0104
  847TIP3   OH224175   5.175   6.454   8.464  0.0036  0.2254  0.8350
  847TIP3    H124176   5.259   6.409   8.469  0.2452  0.4041 -0.8303
  847TIP3    H224177   5.192   6.530   8.407 -1.5618 -0.4749 -0.6532
  848TIP3   OH224178   0.903   2.837   1.615 -0.0920  0.4992 -0.6094
  848TIP3    H124179   0.853   2.869   1.690  1.8111  1.6070  0.2817
  848TIP3    H224180   0.924   2.746   1.638 -0.3197  0.5400 -0.2357
  849TIP3   OH224181   5.243   6.138   0.720 -0.5291  0.3064  0.2350
  849TIP3    H124182   5.182   6.212   0.713 -0.3322  0.6229  1.6502
  849TIP3    H224183   5.283   6.148   0.806  2.5268  0.8520 -1.1439
  850TIP3   OH224184   6.595   4.600   1.414  0.6359 -0.0785  0.2565
  850TIP3    H124185   6.503   4.608   1.389  0.9419 -0.5065 -1.1015
  850TIP3    H224186   6.614   4.683   1.459 -0.1641  0.4284 -0.2937
  851TIP3   OH224187   0.688   0.528   0.274 -0.4292  0.0863  0.9323
  851TIP3    H124188   0.668   0.536   0.181  2.5695 -1.8215 -0.0118
  851TIP3    H224189   0.658   0.440   0.297  1.3676 -0.5470  0.9699
  852TIP3   OH224190   1.117   2.069   7.404 -0.0804 -0.0434  0.1827
  852TIP3    H124191   1.089   2.160   7.412  3.8652  1.3630  0.0991
  852TIP3    H224192   1.184   2.070   7.336 -0.1539 -3.1175 -0.0772
  853TIP3   OH224193   3.537   3.292   8.881 -0.0872 -0.6485 -0.3032
  853TIP3    H124194   3.575   3.309   8.795 -0.6555  0.7805 -0.2935
  853TIP3    H224195   3.533   3.378   8.923 -2.2364 -0.9170  0.1391
  854TIP3   OH224196   0.803   0.868   1.864  0.4147 -0.2713  0.1346
  854TIP3    H124197   0.765   0.850   1.778  1.5768  0.5254 -0.5729
  854TIP3    H224198   0.776   0.957   1.884  1.0923 -0.0340  0.0443
  855TIP3   OH224199   5.113   4.974   0.536 -0.3142 -0.2391 -0.0163
  855TIP3    H124200   5.183   4.910   0.528 -0.1804 -0.1255  0.2180
  855TIP3    H224201   5.134   5.023   0.616 -0.3818  0.1345 -0.2243
  856TIP3   OH224202   3.030   5.426   0.890  0.1064  0.7607 -0.4510
  856TIP3    H124203   2.999   5.511   0.920  0.5341  0.5795  0.5570
  856TIP3    H224204   3.000   5.364   0.956 -0.2303  0.1167 -1.1902
  857TIP3   OH224205   1.859   5.759   8.068 -0.7598 -0.0085 -0.8340
  857TIP3    H124206   1.841   5.846   8.106 -3.2570 -1.2608  1.2037
  857TIP3    H224207   1.784   5.741   8.012 -0.2285 -0.8247 -1.3051
  858TIP3   OH224208   5.219   5.473   1.585 -0.3968  0.2025 -0.1050
  858TIP3    H124209   5.202   5.557   1.628 -0.4957 -0.7026  1.6894
  858TIP3    H224210   5.231   5.411   1.656 -3.2096 -1.9353 -1.2937
  859TIP3   OH224211   3.452   5.973   1.141  0.1813 -0.2679 -0.3705
  859TIP3    H124212   3.421   5.963   1.051  0.6600  3.0991 -1.0567
  859TIP3    H224213   3.548   5.977   1.132  0.3795 -1.9178  0.6112
  860TIP3   OH224214   4.018   6.575   2.052  0.3688 -0.1590 -0.1875
  860TIP3    H124215   4.088   6.629   2.088 -1.0942  2.0893 -0.4717
  860TIP3    H224216   3.939   6.627   2.066 -0.8203 -1.1162 -2.7205
  861TIP3   OH224217   6.520   5.471   7.915 -0.0492  0.2183  0.0321
  861TIP3    H124218   6.585   5.449   7.981  0.2060  0.9889  0.0511
  861TIP3    H224219   6.544   5.560   7.886  0.7114 -0.5961 -2.0911
  862TIP3   OH224220   1.099   1.010   1.058  0.2218 -0.0851 -0.5994
  862TIP3    H124221   1.080   0.938   0.998 -0.4803 -1.4920  1.1996
  862TIP3    H224222   1.016   1.026   1.104  1.0453 -0.0629  0.9666
  863TIP3   OH224223   6.067   4.915   0.809 -0.6425  0.5790 -0.9652
  863TIP3    H124224   6.093   4.994   0.761 -0.7405  0.7269 -0.7748
  863TIP3    H224225   6.125   4.914   0.885 -1.8343  1.4393 -0.0217
  864TIP3   OH224226   1.373   1.174   7.072 -0.7836 -0.4252 -0.1027
  864TIP3    H124227   1.448   1.185   7.130 -1.1059  1.5861 -0.0225
  864TIP3    H224228   1.381   1.245   7.008 -1.7024 -1.2114 -1.1398
  865TIP3   OH224229   3.307   3.650   1.717 -0.4448  0.0153  0.0118
  865TIP3    H124230   3.370   3.587   1.752  0.4563  0.1375 -1.3001
  865TIP3    H224231   3.246   3.665   1.788  2.1091  1.3628  2.0873
  866TIP3   OH224232   4.364   6.487   2.024 -0.3138 -0.2516  0.0146
  866TIP3    H124233   4.341   6.448   2.108  2.2337  0.0023  0.9251
  866TIP3    H224234   4.358   6.415   1.961  1.0096 -1.3472  1.0671
  867TIP3   OH224235   1.316   0.122   7.890 -0.3801 -0.2572  0.1573
  867TIP3    H124236   1.265   0.112   7.970 -1.0544 -0.0379 -0.2419
  867TIP3    H224237   1.393   0.067   7.904  0.1010  0.6896  1.4383
  868TIP3   OH224238   1.248   6.299   1.216 -1.0363 -0.2037 -0.6136
  868TIP3    H124239   1.298   6.348   1.151  1.7459 -1.1681  0.6349
  868TIP3    H224240   1.240   6.359   1.290  0.1543 -0.7343 -0.0344
  869TIP3   OH224241   6.427   5.369   7.650 -0.0338 -0.2215 -0.1785
  869TIP3    H124242   6.474   5.402   7.727  1.1511  0.9690 -1.3521
  869TIP3    H224243   6.335   5.379   7.672  0.2790 -0.0183  1.1320
  870TIP3   OH224244   3.040   5.717   7.522 -0.3570  0.4070 -0.3053
  870TIP3    H124245   2.966   5.659   7.506 -1.4104  1.7841 -0.5418
  870TIP3    H224246   3.117   5.660   7.513 -1.3096 -0.7492 -1.4668
  871TIP3   OH224247   0.456   6.765   1.995  0.8784 -0.5438  0.6203
  871TIP3    H124248   0.427   6.851   2.024 -0.4569 -0.8549  0.2523
  871TIP3    H224249   0.447   6.709   2.072  0.1328 -0.7195  0.4115
  872TIP3   OH224250   6.062   6.322   1.130 -0.2055 -0.1186 -0.4576
  872TIP3    H124251   6.117   6.294   1.057 -3.3249 -0.5918 -2.8744
  872TIP3    H224252   6.074   6.416   1.136  1.1825 -0.2713 -0.5423
  873TIP3   OH224253   0.808   2.494   7.708  0.1808  0.1036 -0.3030
  873TIP3    H124254   0.806   2.408   7.751  1.2069  1.0555  1.8375
  873TIP3    H224255   0.748   2.547   7.760  0.7874  1.0893 -0.5827
  874TIP3   OH224256   0.359   6.257   8.298  0.0424 -0.2695 -0.4223
  874TIP3    H124257   0.339   6.332   8.243 -0.1458 -0.7338 -0.9940
  874TIP3    H224258   0.453   6.243   8.287  0.1860  0.2177  0.1218
  875TIP3   OH224259   6.162   2.158   0.384 -0.3539 -0.1652  0.1407
  875TIP3    H124260   6.219   2.138   0.310 -0.9110  0.6051 -0.5132
  875TIP3    H224261   6.212   2.220   0.437  0.0564 -0.7390  0.4389
  876TIP3   OH224262   5.461   5.552   0.856  0.1389 -0.1874  0.0183
  876TIP3    H124263   5.489   5.629   0.906  1.4365 -0.1899 -0.6745
  876TIP3    H224264   5.366   5.548   0.871 -0.2380  2.4120 -1.1032
  877TIP3   OH224265   2.702   4.250   0.071  0.1801  0.1565  0.2104
  877TIP3    H124266   2.664   4.192   0.137  2.8093 -0.7101  1.0949
  877TIP3    H224267   2.752   4.191   0.014 -0.0931  1.1866 -1.1472
  878TIP3   OH224268   0.140   4.526   8.061  0.0755 -0.3573  0.1396
  878TIP3    H124269   0.235   4.523   8.053 -0.0361  0.1393 -4.0602
  878TIP3    H224270   0.120   4.619   8.074  0.1620 -0.2518 -0.4428
  879TIP3   OH224271   0.907   6.079   8.393 -0.0261  0.5832  0.0593
  879TIP3    H124272   0.935   6.160   8.435  0.3550  1.6431 -2.0842
  879TIP3    H224273   0.834   6.106   8.336 -0.1652 -0.6522 -0.3733
  880TIP3   OH224274   2.350   3.489   0.480  0.0210 -0.1195 -0.7114
  880TIP3    H124275   2.308   3.442   0.553  0.8154  0.8752  0.4248
  880TIP3    H224276   2.406   3.423   0.439  0.0655 -0.5341 -0.0102
  881TIP3   OH224277   4.321   3.345   7.101 -0.2453 -0.4932 -0.5698
  881TIP3    H124278   4.351   3.292   7.028 -1.3011  0.7221 -1.9279
  881TIP3    H224279   4.321   3.434   7.068 -2.2721 -0.0804  0.3567
  882TIP3   OH224280   4.505   2.428   0.711 -0.1902  0.2544  0.1133
  882TIP3    H124281   4.470   2.397   0.794  0.3080 -0.3585  0.1015
  882TIP3    H224282   4.551   2.509   0.732 -1.1561  0.7910  0.2153
  883TIP3   OH224283   3.357   0.552   1.272 -0.2572 -0.4289 -0.3338
  883TIP3    H124284   3.292   0.513   1.330  0.3636 -1.1143 -0.0834
  883TIP3    H224285   3.405   0.614   1.328 -0.0373 -0.6642 -0.2609
  884TIP3   OH224286   5.298   3.270   0.439  0.1271 -0.2614  0.6940
  884TIP3    H124287   5.352   3.211   0.491  1.4694  0.4854  0.2193
  884TIP3    H224288   5.304   3.354   0.484  0.8869  0.2664 -0.3559
  885TIP3   OH224289   5.949   6.036   1.554 -0.4360  0.1661 -0.2121
  885TIP3    H124290   6.027   5.982   1.568  0.0853  0.9154 -0.1500
  885TIP3    H224291   5.984   6.124   1.535 -1.2687  0.8105  1.0979
  886TIP3   OH224292   1.440   3.802   1.051  0.4585  0.3008  0.0944
  886TIP3    H124293   1.434   3.895   1.074 -1.2024  0.0536  0.7943
  886TIP3    H224294   1.531   3.791   1.022  0.8091  2.0459  0.3767
  887TIP3   OH224295   2.705   2.305   0.900  0.1101  0.3873  0.1764
  887TIP3    H124296   2.774   2.303   0.966 -1.8572  0.0684  2.3592
  887TIP3    H224297   2.689   2.213   0.879  0.4411  0.4663 -0.4322
  888TIP3   OH224298   4.533   3.066   0.095 -0.6561 -0.6142 -0.1108
  888TIP3    H124299   4.472   3.119   0.146  0.5009 -0.3804  1.1008
  888TIP3    H224300   4.619   3.106   0.112 -0.0228 -1.6316 -0.8248
  889TIP3   OH224301   3.233   0.994   8.637  0.3608 -0.0120  0.5932
  889TIP3    H124302   3.309   0.945   8.669  0.7343 -0.5089 -0.9333
  889TIP3    H224303   3.215   1.058   8.705  1.9243 -0.1412  1.1694
  890TIP3   OH224304   6.649   2.825   8.004 -0.5475 -0.1621  0.2068
  890TIP3    H124305   6.619   2.891   7.942  2.3948 -0.8155 -2.1615
  890TIP3    H224306   6.585   2.754   7.996 -0.8682  0.2532 -1.2634
  891TIP3   OH224307   1.548   0.304   8.065 -0.6384 -0.3751 -0.4286
  891TIP3    H124308   1.590   0.331   7.983 -1.0775  0.1450 -0.4924
  891TIP3    H224309   1.494   0.379   8.090 -1.2774 -0.9003 -0.1857
  892TIP3   OH224310   6.165   3.985   0.542  0.1247 -0.2747 -0.4736
  892TIP3    H124311   6.102   3.973   0.614  0.2898 -1.1459 -0.4553
  892TIP3    H224312   6.113   3.970   0.463 -0.4960  2.4863 -0.6981
  893TIP3   OH224313   2.188   3.075   7.852 -0.8738 -0.2862 -0.3778
  893TIP3    H124314   2.128   3.112   7.917 -2.0829 -1.3966 -0.7959
  893TIP3    H224315   2.274   3.081   7.893 -1.3850  0.4920  0.6548
  894TIP3   OH224316   4.807   3.641   8.015  0.2471  0.8384  0.2787
  894TIP3    H124317   4.718   3.661   7.988  0.2012  2.4448  1.4586
  894TIP3    H224318   4.862   3.680   7.948  0.1067 -0.8968 -0.9144
  895TIP3   OH224319   2.024   6.293   6.485 -0.3444  0.3980 -0.1439
  895TIP3    H124320   2.082   6.303   6.410 -0.4201 -1.8836 -0.5760
  895TIP3    H224321   2.080   6.259   6.555 -0.2927  2.4244  0.8873
  896TIP3   OH224322   6.581   3.511   8.983 -0.1614 -0.4472 -0.0154
  896TIP3    H124323   6.642   3.518   8.909  1.1188 -0.3757  1.0078
  896TIP3    H224324   6.600   3.589   9.036 -1.0983 -0.4741  0.3777
  897TIP3   OH224325   0.195   4.336   7.486 -0.4599 -0.1244  0.2808
  897TIP3    H124326   0.188   4.426   7.520  0.9704  0.4914 -0.9158
  897TIP3    H224327   0.115   4.323   7.436 -1.3685 -0.0871  1.6596
  898TIP3   OH224328   0.743   0.372   7.967  0.5664  0.5701 -0.3611
  898TIP3    H124329   0.708   0.444   8.019 -0.0862 -1.1890  1.8384
  898TIP3    H224330   0.824   0.405   7.929  0.8050  2.1242  1.4079
  899TIP3   OH224331   3.772   5.802   0.149  0.5144  0.1172  0.1799
  899TIP3    H124332   3.755   5.720   0.196 -0.2653  0.5350  0.6409
  899TIP3    H224333   3.712   5.865   0.188  1.3032  0.9905  0.0169
  900TIP3   OH224334   6.438   2.630   6.926  0.1962  0.3126 -0.2448
  900TIP3    H124335   6.448   2.575   6.848  2.6937  1.6014 -0.9535
  900TIP3    H224336   6.354   2.675   6.913 -1.6859 -2.7902  0.1316
  901TIP3   OH224337   0.285   5.335   1.750 -0.2078 -0.1470  0.3410
  901TIP3    H124338   0.336   5.328   1.831 -0.5196  1.1471  0.6799
  901TIP3    H224339   0.234   5.254   1.746  0.3558 -0.5490  1.0516
  902TIP3   OH224340   2.262   1.014   7.538 -0.0344  0.2241  0.2859
  902TIP3    H124341   2.265   1.094   7.591 -1.1376  0.4183  0.0906
  902TIP3    H224342   2.172   0.982   7.548  0.4993 -1.2369  0.7007
  903TIP3   OH224343   0.423   0.518   0.374  0.4193 -0.0589  0.0924
  903TIP3    H124344   0.386   0.457   0.311  0.4192 -0.8082  0.8022
  903TIP3    H224345   0.494   0.562   0.327 -0.7312  0.6976 -0.9810
  904TIP3   OH224346   5.385   3.520   1.980  0.1366  0.3996 -0.0877
  904TIP3    H124347   5.425   3.477   1.903  0.8428  1.1227 -0.1315
  904TIP3    H224348   5.339   3.449   2.025  0.3596 -0.1888 -0.7615
  905TIP3   OH224349   5.078   1.983   8.127 -0.0059  0.4149 -0.1062
  905TIP3    H124350   4.996   1.996   8.174  0.3643  0.2121  0.6131
  905TIP3    H224351   5.078   1.891   8.102  0.3066  0.2480  0.4947
  906TIP3   OH224352   3.839   5.446   1.104 -0.1436  0.2162 -0.4827
  906TIP3    H124353   3.815   5.434   1.012  1.6322 -2.3035 -0.7138
  906TIP3    H224354   3.763   5.413   1.153  0.5511 -2.7315 -1.1621
  907TIP3   OH224355   5.011   4.073   0.265 -0.1147  0.0802 -0.3297
  907TIP3    H124356   5.102   4.078   0.296 -0.2499 -0.5626  0.1901
  907TIP3    H224357   4.985   4.164   0.255  0.5100  0.2767 -0.2420
  908TIP3   OH224358   5.193   2.617   2.594  0.0437 -0.8801  0.3856
  908TIP3    H124359   5.147   2.585   2.672 -0.2630 -1.3053  0.0304
  908TIP3    H224360   5.189   2.545   2.532 -0.9921 -0.0378 -0.5804
  909TIP3   OH224361   4.394   3.222   1.023  0.0524  0.5625 -0.3590
  909TIP3    H124362   4.477   3.270   1.019 -0.5180  1.5230 -0.9907
  909TIP3    H224363   4.343   3.256   0.950 -1.5092  1.1709  0.9633
  910TIP3   OH224364   2.546   6.379   7.517  0.0801 -0.1299 -0.0942
  910TIP3    H124365   2.467   6.331   7.542 -1.5383  2.6360  0.5542
  910TIP3    H224366   2.519   6.433   7.443  1.7765 -0.1162 -0.7414
  911TIP3   OH224367   1.506   1.956   7.226 -0.5070  0.3134  0.2445
  911TIP3    H124368   1.555   1.966   7.145 -2.3181  0.3048 -0.9211
  911TIP3    H224369   1.415   1.946   7.198 -1.2711  0.8468  2.3017
  912TIP3   OH224370   1.971   0.592   7.821 -0.5591  0.8932  0.2272
  912TIP3    H124371   1.998   0.683   7.807  0.1539  0.9011  1.5269
  912TIP3    H224372   1.899   0.597   7.884 -0.7532  0.5759  0.0363
  913TIP3   OH224373   0.061   5.027   6.407 -0.5120  0.2888  0.5289
  913TIP3    H124374   0.089   5.101   6.352 -3.0065  0.4038 -0.7668
  913TIP3    H224375   0.043   4.957   6.345  2.3564 -1.7530  1.7749
  914TIP3   OH224376   3.701   4.649   2.695 -0.1031  0.1299  0.2152
  914TIP3    H124377   3.632   4.617   2.636 -1.0267  2.2678  0.0602
  914TIP3    H224378   3.782   4.625   2.651 -0.7566 -0.6093 -0.6302
  915TIP3   OH224379   5.473   2.218   1.761 -0.6135 -0.4070 -0.4331
  915TIP3    H124380   5.455   2.124   1.764 -0.8050 -0.3837 -0.8984
  915TIP3    H224381   5.555   2.227   1.811 -0.5378 -0.8334 -0.4701
  916TIP3   OH224382   1.542   6.053   0.223  0.3102  0.1222 -0.5928
  916TIP3    H124383   1.473   6.079   0.163  0.6017  2.3899 -0.0487
  916TIP3    H224384   1.623   6.078   0.179  0.7618 -1.6189 -0.8112
  917TIP3   OH224385   3.019   2.619   1.346 -0.0001 -0.0794 -0.3892
  917TIP3    H124386   3.021   2.663   1.431 -0.9570 -3.3913  1.5715
  917TIP3    H224387   3.064   2.678   1.287  1.4313  2.0958  2.6025
  918TIP3   OH224388   1.506   5.539   8.105  0.0592  0.5004  0.0972
  918TIP3    H124389   1.558   5.534   8.024  0.7466 -0.7181  0.5871
  918TIP3    H224390   1.416   5.530   8.075  0.3901 -2.0320 -0.4447
  919TIP3   OH224391   1.215   2.872   2.305  0.0078 -0.6116 -0.8593
  919TIP3    H124392   1.236   2.916   2.223  1.4455 -0.7389 -0.5905
  919TIP3    H224393   1.213   2.779   2.282  0.3840 -0.6452 -0.7606
  920TIP3   OH224394   0.679   3.891   1.575  0.2046  0.2641 -0.3217
  920TIP3    H124395   0.714   3.816   1.623 -0.4593 -1.0792 -1.8251
  920TIP3    H224396   0.728   3.892   1.493 -1.1174  0.2458 -1.1407
  921TIP3   OH224397   5.357   4.952   8.640 -0.3578 -0.0350 -0.3184
  921TIP3    H124398   5.434   4.931   8.692 -1.4816  0.9390  1.8719
  921TIP3    H224399   5.304   4.872   8.643  0.2633 -0.4968 -1.3035
  922TIP3   OH224400   0.105   2.769   8.540  0.1529  0.1815 -0.5913
  922TIP3    H124401   0.017   2.735   8.559 -0.1574  0.3899 -1.6198
  922TIP3    H224402   0.162   2.721   8.599 -0.7653  0.7682  0.8590
  923TIP3   OH224403   0.544   3.748   2.242 -0.0029 -0.0704  0.2441
  923TIP3    H124404   0.520   3.815   2.306  1.5063 -0.3998  1.2190
  923TIP3    H224405   0.640   3.742   2.250 -0.0968 -2.3181  0.1629
  924TIP3   OH224406   1.572   1.457   8.912  0.3331 -0.2237 -0.0143
  924TIP3    H124407   1.503   1.392   8.927  0.5255 -0.1100  1.5677
  924TIP3    H224408   1.651   1.405   8.896  0.6554 -0.4461  2.0425
  925TIP3   OH224409   5.908   5.246   1.263 -0.4378 -0.0100 -0.1338
  925TIP3    H124410   5.978   5.253   1.198  0.0058  0.2428  0.3694
  925TIP3    H224411   5.861   5.166   1.238 -0.0767 -0.0917 -0.5731
  926TIP3   OH224412   4.229   1.986   8.514  0.5920 -0.2952 -0.5024
  926TIP3    H124413   4.140   1.977   8.548  1.5828 -0.2774  2.3454
  926TIP3    H224414   4.233   2.075   8.479 -0.5641 -0.3858 -0.8899
  927TIP3   OH224415   0.889   0.712   6.611  0.4282 -0.0397  0.3261
  927TIP3    H124416   0.926   0.794   6.579 -1.0016  0.0852 -1.0961
  927TIP3    H224417   0.870   0.729   6.703 -1.6139  1.9191 -0.3824
  928TIP3   OH224418   1.905   1.731   7.663  0.0964 -0.0470 -0.3907
  928TIP3    H124419   1.954   1.650   7.676  1.1990  0.5244 -0.8407
  928TIP3    H224420   1.877   1.757   7.750  0.7960 -0.2801 -0.0874
  929TIP3   OH224421   1.839   0.178   8.618  0.5370  0.0249  0.5495
  929TIP3    H124422   1.850   0.145   8.529 -0.1878 -1.0874  0.8438
  929TIP3    H224423   1.918   0.150   8.664  1.0715  0.8937  0.1999
  930TIP3   OH224424   1.315   4.822   6.411 -0.0746 -0.2003  0.6273
  930TIP3    H124425   1.248   4.754   6.414 -0.6105  0.3389  1.2792
  930TIP3    H224426   1.319   4.849   6.319 -0.4424 -0.5447  0.5103
  931TIP3   OH224427   5.467   1.342   1.235 -0.0282  0.3598  0.0669
  931TIP3    H124428   5.404   1.358   1.165  0.2641  2.9246  0.2964
  931TIP3    H224429   5.415   1.304   1.306 -0.7303 -0.2285 -0.7429
  932TIP3   OH224430   3.430   1.578   8.885 -0.3769 -0.4504  0.1430
  932TIP3    H124431   3.467   1.652   8.839 -0.1435  1.1781  2.7153
  932TIP3    H224432   3.344   1.564   8.845  0.4601 -0.2180 -1.7885
  933TIP3   OH224433   4.369   5.936   0.710 -0.1479 -0.2535 -0.2414
  933TIP3    H124434   4.317   5.946   0.631 -0.2219 -1.2021 -0.3225
  933TIP3    H224435   4.389   6.025   0.738  2.5354  0.1969 -3.0661
  934TIP3   OH224436   5.121   4.999   1.966 -0.0000 -0.3448 -0.1792
  934TIP3    H124437   5.051   5.063   1.980  2.3796  2.4351 -0.0515
  934TIP3    H224438   5.121   4.945   2.046 -1.7763 -0.2361 -0.0780
  935TIP3   OH224439   2.376   2.722   8.448  0.1491 -0.6543 -0.5974
  935TIP3    H124440   2.324   2.802   8.452 -1.7141 -1.7566 -1.3621
  935TIP3    H224441   2.442   2.733   8.517  0.7710  2.0320 -1.5017
  936TIP3   OH224442   1.897   2.858   0.882  0.3079 -0.4313 -0.0203
  936TIP3    H124443   1.813   2.859   0.929  1.2000  0.0206  1.6408
  936TIP3    H224444   1.915   2.950   0.865  1.5665 -0.2977  1.7663
  937TIP3   OH224445   2.649   5.781   0.173  0.6037 -0.0763  0.0921
  937TIP3    H124446   2.595   5.766   0.250 -0.2945 -0.9938 -0.6915
  937TIP3    H224447   2.594   5.835   0.115 -0.0585 -2.0606 -1.2532
  938TIP3   OH224448   3.959   5.199   7.779  0.3987 -0.0913  0.5745
  938TIP3    H124449   3.983   5.174   7.690 -0.7350 -0.6293  0.3996
  938TIP3    H224450   4.033   5.170   7.833  0.3379 -1.3390  0.0200
  939TIP3   OH224451   1.873   0.664   0.480  0.0451  0.3627  0.5740
  939TIP3    H124452   1.960   0.662   0.519  0.9302  1.2055 -1.2738
  939TIP3    H224453   1.888   0.673   0.386 -2.0388  0.2927  0.1803
  940TIP3   OH224454   5.563   2.004   0.415 -0.2550 -0.0894  0.3345
  940TIP3    H124455   5.612   1.921   0.418  2.6503  1.4177 -0.8581
  940TIP3    H224456   5.577   2.044   0.501  1.4965  0.7182 -0.2766
  941TIP3   OH224457   0.230   1.840   8.253 -0.2005  0.0465  0.1614
  941TIP3    H124458   0.302   1.806   8.199  0.3786  0.7726  0.4613
  941TIP3    H224459   0.178   1.892   8.192  0.5452  1.0021  0.3163
  942TIP3   OH224460   0.066   1.612   8.247 -0.2930  0.0134 -0.0080
  942TIP3    H124461   0.132   1.670   8.284  0.5647  0.0536 -1.4959
  942TIP3    H224462  -0.018   1.653   8.269  0.2606  1.2655 -0.1473
  943TIP3   OH224463   3.216   4.314   0.141  0.5081 -0.1619  0.7694
  943TIP3    H124464   3.266   4.234   0.158  1.1348  0.0902  0.1760
  943TIP3    H224465   3.135   4.304   0.191  0.1872 -1.5589  0.0101
  944TIP3   OH224466   3.829   2.847   7.664 -0.4033 -0.2956 -0.3211
  944TIP3    H124467   3.742   2.823   7.697 -0.6582 -1.2882 -1.6467
  944TIP3    H224468   3.853   2.924   7.715 -1.3578 -0.9511  1.2041
  945TIP3   OH224469   0.336   3.884   6.618 -0.5204 -0.1089 -0.0250
  945TIP3    H124470   0.419   3.877   6.571 -0.0993  0.4688  0.6130
  945TIP3    H224471   0.289   3.804   6.595  1.5741 -2.1476  2.2350
  946TIP3   OH224472   3.285   1.114   0.251 -0.1072  0.2369 -0.1185
  946TIP3    H124473   3.217   1.125   0.317  0.4620  1.6415  0.2730
  946TIP3    H224474   3.335   1.038   0.280 -1.1629 -0.4917 -0.1303
  947TIP3   OH224475   1.630   5.403   7.364 -0.6023 -0.7249 -0.2051
  947TIP3    H124476   1.706   5.393   7.422  1.3366  0.3949 -2.3753
  947TIP3    H224477   1.599   5.492   7.382  0.2083 -0.2508 -1.0225
  948TIP3   OH224478   0.843   1.030   1.156 -0.1689  0.0250 -0.6932
  948TIP3    H124479   0.795   1.071   1.227  1.3105  0.1091  0.3073
  948TIP3    H224480   0.827   1.086   1.080 -1.4227  0.1715 -0.3378
  949TIP3   OH224481   1.873   3.268   7.295  0.1172  0.7258  0.1936
  949TIP3    H124482   1.862   3.223   7.379 -1.4470  0.7729  0.0389
  949TIP3    H224483   1.920   3.205   7.241 -1.2645 -0.4283  0.2595
  950TIP3   OH224484   0.713   2.117   0.384 -0.0105  0.0926 -0.1740
  950TIP3    H124485   0.718   2.174   0.307 -0.9848  1.5601  0.8007
  950TIP3    H224486   0.634   2.146   0.430  0.2745 -1.0886  1.1171
  951TIP3   OH224487   3.327   0.189   0.022 -0.1007 -0.1461 -0.3624
  951TIP3    H124488   3.237   0.156   0.026 -1.2779  2.8426  1.8338
  951TIP3    H224489   3.358   0.185   0.112  0.3086  2.7916 -0.2934
  952TIP3   OH224490   5.435   0.918   7.306  0.5123 -0.1091 -0.6229
  952TIP3    H124491   5.398   0.863   7.376  0.1872  2.2819  1.2034
  952TIP3    H224492   5.505   0.865   7.269  0.3668 -1.6850  1.1753
  953TIP3   OH224493   2.930   2.318   8.256 -0.1688  0.1361  0.0057
  953TIP3    H124494   3.012   2.364   8.276  1.2521 -1.6335 -1.4373
  953TIP3    H224495   2.933   2.240   8.311 -0.0827 -0.7362 -1.2000
  954TIP3   OH224496   3.167   1.331   7.840  0.3451 -0.6559 -0.1162
  954TIP3    H124497   3.150   1.425   7.843  1.3900 -0.4781  1.4079
  954TIP3    H224498   3.243   1.318   7.896  0.9951 -2.2689 -1.2952
  955TIP3   OH224499   6.235   6.231   2.990 -1.1052 -0.3028 -0.2823
  955TIP3    H124500   6.317   6.225   2.942 -0.5144  1.4027  0.4408
  955TIP3    H224501   6.233   6.152   3.044  0.6861  0.2030  0.6070
  956TIP3   OH224502   6.524   3.041   0.791  0.0853 -0.2833 -0.0133
  956TIP3    H124503   6.567   2.956   0.778  2.7221  0.7433  1.2409
  956TIP3    H224504   6.545   3.091   0.712  0.1052 -0.2136  0.0360
  957TIP3   OH224505   1.262   4.315   7.351 -0.2372  0.4371 -0.0683
  957TIP3    H124506   1.217   4.388   7.308  0.8003  0.3066 -1.4297
  957TIP3    H224507   1.324   4.284   7.286 -0.1018 -1.1641  0.7909
  958TIP3   OH224508   5.916   4.206   0.496  0.6062 -0.4178 -0.3240
  958TIP3    H124509   5.952   4.207   0.407 -0.3688  2.6625 -0.8327
  958TIP3    H224510   5.967   4.273   0.542 -1.0189  0.3203  0.4514
  959TIP3   OH224511   6.142   0.138   0.021  0.4466  0.2234  0.5385
  959TIP3    H124512   6.048   0.122   0.026  0.7057 -1.1852  1.9768
  959TIP3    H224513   6.153   0.229   0.048 -0.3710 -0.2624  2.7485
  960TIP3   OH224514   6.385   0.897   1.581  0.1711  0.0044 -0.3638
  960TIP3    H124515   6.435   0.855   1.652 -0.3432  0.0729  0.0457
  960TIP3    H224516   6.413   0.989   1.583 -0.9433  0.3477  0.7577
  961TIP3   OH224517   0.207   0.653   8.557  0.6224  0.2414  0.3300
  961TIP3    H124518   0.133   0.684   8.609 -2.5692 -1.6602 -2.6745
  961TIP3    H224519   0.210   0.713   8.482 -0.6838 -1.9844 -1.6391
  962TIP3   OH224520   6.750   5.945   0.429  0.8365 -0.1081 -0.2022
  962TIP3    H124521   6.763   5.917   0.520  0.4900 -1.1976 -0.4710
  962TIP3    H224522   6.815   5.894   0.379 -0.5224 -1.2768 -0.8394
  963TIP3   OH224523   2.179   1.410   8.552  0.2983 -0.2569  0.1243
  963TIP3    H124524   2.249   1.415   8.487 -1.1869 -2.0298 -1.7495
  963TIP3    H224525   2.152   1.501   8.565  1.9971  0.3302 -0.1112
  964TIP3   OH224526   4.268   0.294   8.627  0.0075 -0.3825 -0.4805
  964TIP3    H124527   4.342   0.260   8.677  1.1116  0.2978 -1.5742
  964TIP3    H224528   4.219   0.217   8.599 -0.2304 -0.7980  1.0279
  965TIP3   OH224529   6.082   0.057   7.477 -0.4298  0.1929 -0.2508
  965TIP3    H124530   6.125  -0.029   7.469 -1.4192 -0.3178 -0.1802
  965TIP3    H224531   6.155   0.118   7.490  0.2564 -0.7177  0.3797
  966TIP3   OH224532   4.658   1.905   8.671  0.3144  0.2897  0.3487
  966TIP3    H124533   4.697   1.825   8.635 -1.0801 -0.4256  0.3914
  966TIP3    H224534   4.713   1.926   8.746  2.7573  1.3133 -1.5663
  967TIP3   OH224535   3.646   6.066   6.904 -0.7621 -0.0318 -0.1313
  967TIP3    H124536   3.655   6.031   6.993 -0.5887  1.0512  0.2929
  967TIP3    H224537   3.692   6.150   6.906 -0.0789 -0.3474 -1.4738
  968TIP3   OH224538   4.574   3.716   7.310 -0.4414 -0.4533  0.1946
  968TIP3    H124539   4.609   3.800   7.279 -0.6728 -0.2131  0.5831
  968TIP3    H224540   4.491   3.706   7.263 -0.6401 -0.2415  0.5065
  969TIP3   OH224541   3.776   3.349   0.776  0.2113 -0.4302  0.2591
  969TIP3    H124542   3.808   3.436   0.753  0.7001 -0.0026  2.3655
  969TIP3    H224543   3.691   3.342   0.733 -0.1200  1.3479  0.5735
  970TIP3   OH224544   2.612   1.526   8.152 -0.0459  0.4756  0.2477
  970TIP3    H124545   2.667   1.592   8.195 -0.9555  0.4478  1.5335
  970TIP3    H224546   2.588   1.565   8.069  1.3608  0.7603 -0.0440
  971TIP3   OH224547   0.401   2.111   8.759 -0.1934 -0.4889  0.5887
  971TIP3    H124548   0.318   2.159   8.761  1.9273  3.5892  1.5822
  971TIP3    H224549   0.426   2.103   8.851  1.9127  1.2743  0.2422
  972TIP3   OH224550   0.437   0.760   1.899  0.3792 -0.6477  0.5947
  972TIP3    H124551   0.505   0.802   1.952  1.0451  1.3051 -1.6152
  972TIP3    H224552   0.388   0.833   1.861  0.2994 -1.8676 -1.8733
  973TIP3   OH224553   4.192   3.093   1.612  0.1209  0.1274 -0.4286
  973TIP3    H124554   4.175   3.006   1.647 -0.4553  0.3522 -0.1327
  973TIP3    H224555   4.248   3.078   1.536  1.8939 -0.3415  0.8918
  974TIP3   OH224556   1.942   1.791   8.824 -0.2409  0.0030 -0.0709
  974TIP3    H124557   1.882   1.801   8.898 -0.2535  1.1921 -0.2303
  974TIP3    H224558   1.897   1.833   8.750  0.5316  0.3871 -0.3319
  975TIP3   OH224559   5.451   6.007   1.960 -0.0750 -0.3863  0.0022
  975TIP3    H124560   5.524   6.048   1.913  1.7139 -1.2166  1.9158
  975TIP3    H224561   5.474   5.914   1.964 -1.6944 -0.8234 -0.1017
  976TIP3   OH224562   3.852   6.446   8.777  0.2746 -0.1156  0.0033
  976TIP3    H124563   3.862   6.372   8.716 -0.8505 -1.0966  0.9744
  976TIP3    H224564   3.810   6.409   8.854  1.8409  1.0583  1.5055
  977TIP3   OH224565   5.784   5.997   0.391  0.4865  0.0403  0.1005
  977TIP3    H124566   5.700   5.951   0.395  1.2746 -1.4518  0.3914
  977TIP3    H224567   5.762   6.084   0.357 -0.9208 -0.9799 -1.8071
  978TIP3   OH224568   6.497   3.866   0.341  0.1966  0.1074  0.7683
  978TIP3    H124569   6.439   3.914   0.281 -1.4492 -1.6238  0.9005
  978TIP3    H224570   6.479   3.904   0.427  0.1025  0.3163  0.6587
  979TIP3   OH224571   0.688   6.221   1.451  0.9335  0.3913  0.1158
  979TIP3    H124572   0.724   6.237   1.538 -0.2798  1.8124  0.3790
  979TIP3    H224573   0.681   6.308   1.411  2.1029 -0.2716 -1.6964
  980TIP3   OH224574   4.474   2.053   0.711 -0.6273 -0.0374 -0.4003
  980TIP3    H124575   4.392   2.032   0.668 -1.2183  1.6686 -0.1917
  980TIP3    H224576   4.448   2.097   0.792  0.4933 -0.4718  0.2183
  981TIP3   OH224577   4.397   0.399   7.618 -0.2045 -0.5922 -0.0274
  981TIP3    H124578   4.491   0.413   7.627 -0.2352 -0.5740  0.2968
  981TIP3    H224579   4.361   0.426   7.703 -0.5554 -0.1338 -0.3138
  982TIP3   OH224580   6.655   0.906   7.580  0.7969  0.1308 -0.0895
  982TIP3    H124581   6.619   0.828   7.540  1.5095 -0.4073  0.3012
  982TIP3    H224582   6.579   0.962   7.596  0.1047 -1.0444  0.8625
  983TIP3   OH224583   0.954   2.579   1.694  0.2510 -0.4452 -0.2424
  983TIP3    H124584   0.938   2.620   1.779 -2.2997  1.8576 -1.6629
  983TIP3    H224585   1.032   2.526   1.707  0.7533  0.8842  3.1599
  984TIP3   OH224586   4.939   6.186   6.999 -0.2685 -0.1416 -0.1980
  984TIP3    H124587   4.872   6.121   7.018 -0.2902 -0.0959 -0.1153
  984TIP3    H224588   4.933   6.200   6.904 -0.1003 -0.4345 -0.2532
  985TIP3   OH224589   5.394   1.921   0.851  0.1202  0.4146  0.1051
  985TIP3    H124590   5.316   1.968   0.881 -1.6874 -0.4999 -2.8349
  985TIP3    H224591   5.426   1.973   0.777  0.6243 -0.6928 -0.4725
  986TIP3   OH224592   3.574   3.526   0.205  0.0373  0.3859 -0.0084
  986TIP3    H124593   3.618   3.498   0.285  1.5795 -0.3875 -1.0853
  986TIP3    H224594   3.568   3.621   0.212  1.3922  0.4587  0.4329
  987TIP3   OH224595   6.585   0.534   0.172 -0.0480 -0.4438 -0.3493
  987TIP3    H124596   6.568   0.556   0.080  0.7834 -1.8118 -0.8799
  987TIP3    H224597   6.506   0.489   0.201  0.4410 -1.8215 -1.0588
  988TIP3   OH224598   6.420   2.479   8.435  0.1897  0.0613 -0.2486
  988TIP3    H124599   6.353   2.542   8.410  0.7016  0.8733  0.3557
  988TIP3    H224600   6.400   2.457   8.526  1.4742  1.3481  0.3955
  989TIP3   OH224601   2.971   0.788   0.548 -0.3364 -0.1831 -0.0569
  989TIP3    H124602   3.029   0.727   0.593 -0.3792 -1.0283 -1.1013
  989TIP3    H224603   2.993   0.778   0.455 -3.1686 -1.7152 -0.6795
  990TIP3   OH224604   0.967   4.742   7.060 -0.0883  0.2981  0.1858
  990TIP3    H124605   0.903   4.774   6.996 -0.4185  0.1993  0.4623
  990TIP3    H224606   0.961   4.646   7.054  1.8764  0.2107 -1.6298
  991TIP3   OH224607   2.615   0.862   8.558 -0.4224  0.1533  0.0428
  991TIP3    H124608   2.589   0.918   8.485 -0.3400  1.2226  0.8154
  991TIP3    H224609   2.663   0.920   8.617  1.7428 -1.2415 -0.2300
  992TIP3   OH224610   0.142   2.560   1.980  0.0224 -0.4661 -0.7801
  992TIP3    H124611   0.164   2.481   2.028 -0.9527 -0.9325 -1.0837
  992TIP3    H224612   0.121   2.625   2.048  0.1222 -0.6748 -0.5508
  993TIP3   OH224613   5.336   0.544   1.490  0.3701 -0.4502 -0.6233
  993TIP3    H124614   5.355   0.506   1.576 -1.5336 -0.1343 -0.0236
  993TIP3    H224615   5.417   0.590   1.466  0.1601  1.7103  2.2317
  994TIP3   OH224616   1.889   6.008   0.620 -0.1891 -0.0901 -0.3533
  994TIP3    H124617   1.837   6.089   0.622 -0.9101 -0.5698  1.5652
  994TIP3    H224618   1.913   5.993   0.711  0.7862 -1.5160 -0.8293
  995TIP3   OH224619   3.478   5.426   8.605 -0.3179  0.0110 -0.2076
  995TIP3    H124620   3.550   5.486   8.586 -0.2088 -0.6734 -2.1687
  995TIP3    H224621   3.519   5.353   8.651  0.0194  0.1387 -0.3042
  996TIP3   OH224622   6.172   6.311   2.164  0.3095 -0.5796  0.1053
  996TIP3    H124623   6.267   6.310   2.177  0.4089 -0.3418 -0.5652
  996TIP3    H224624   6.137   6.264   2.240  0.9278 -0.2402  0.6126
  997TIP3   OH224625   0.126   1.684   6.348 -0.1194 -0.3332  0.6213
  997TIP3    H124626   0.048   1.732   6.377 -0.8764 -1.5641  0.7194
  997TIP3    H224627   0.173   1.745   6.292 -0.4906  0.8768  1.5707
  998TIP3   OH224628   3.093   1.967   1.180 -0.1816 -0.4755  0.1004
  998TIP3    H124629   3.135   1.884   1.200  1.1569  0.1062 -0.1624
  998TIP3    H224630   3.013   1.968   1.233 -0.2806 -1.9676 -0.0023
  999TIP3   OH224631   4.722   4.969   1.435  0.2074 -0.2257 -0.2921
  999TIP3    H124632   4.733   4.907   1.363  0.4099 -0.3000 -0.1969
  999TIP3    H224633   4.630   4.997   1.429  0.4103  0.3249 -1.0237
 1000TIP3   OH224634   1.678   3.402   6.867 -0.5890 -0.4196  0.3440
 1000TIP3    H124635   1.728   3.428   6.944 -0.1750 -0.8755  0.2308
 1000TIP3    H224636   1.662   3.308   6.880  0.2269 -0.6900 -0.5373
 1001TIP3   OH224637   5.473   5.235   1.513  0.0919 -0.4630 -0.2770
 1001TIP3    H124638   5.506   5.290   1.584  0.4242 -0.0185 -0.7706
 1001TIP3    H224639   5.506   5.148   1.533  0.1687 -0.3446  0.1232
 1002TIP3   OH224640   5.375   6.556   0.881 -0.0629  0.3579  0.3687
 1002TIP3    H124641   5.333   6.560   0.795 -0.3185  3.6373  0.5112
 1002TIP3    H224642   5.452   6.612   0.873  2.5841 -2.8359  1.0986
 1003TIP3   OH224643   2.868   3.760   0.176 -0.1337 -0.3708 -0.2290
 1003TIP3    H124644   2.776   3.762   0.202  0.0904  0.4734  0.5171
 1003TIP3    H224645   2.871   3.692   0.108 -1.5039  0.3417 -1.0555
 1004TIP3   OH224646   2.420   5.703   7.517 -0.5924  0.0438  0.0337
 1004TIP3    H124647   2.435   5.794   7.543  2.1791 -0.8456  1.9628
 1004TIP3    H224648   2.463   5.696   7.431 -0.8347  0.5251 -0.1343
 1005TIP3   OH224649   3.284   5.535   6.362  0.3249  0.1883 -0.0918
 1005TIP3    H124650   3.305   5.452   6.404  0.7628  0.8889  1.1184
 1005TIP3    H224651   3.314   5.602   6.423  0.1800  1.2540 -1.1354
 1006TIP3   OH224652   2.971   4.283   0.788 -0.4972 -0.0558 -0.5727
 1006TIP3    H124653   2.957   4.378   0.790  0.4280  0.0907 -0.1153
 1006TIP3    H224654   3.066   4.273   0.798 -0.7149 -1.0742  0.8019
 1007TIP3   OH224655   1.513   3.943   7.549  0.0050  0.5958  0.0715
 1007TIP3    H124656   1.501   3.969   7.640  0.9347  1.5577 -0.0596
 1007TIP3    H224657   1.573   3.869   7.552 -1.0038 -0.2451  0.3053
 1008TIP3   OH224658   3.229   2.793   0.390  0.7835 -0.1756 -0.2181
 1008TIP3    H124659   3.152   2.848   0.405  0.7322 -0.2525 -0.2019
 1008TIP3    H224660   3.286   2.811   0.465  0.1079 -1.2915  0.5784
 1009TIP3   OH224661   3.482   6.397   8.684 -0.0007 -0.1358 -0.2917
 1009TIP3    H124662   3.423   6.326   8.660  0.4935 -0.7763  0.3457
 1009TIP3    H224663   3.560   6.382   8.631 -0.0946  0.2367 -0.5380
 1010TIP3   OH224664   1.564   3.082   8.614  0.1809  0.6653 -1.5024
 1010TIP3    H124665   1.592   3.002   8.658 -1.7620  0.3725 -0.7074
 1010TIP3    H224666   1.564   3.059   8.521 -0.0752 -0.1637 -1.3052
 1011TIP3   OH224667   3.196   3.358   1.213 -0.2782 -0.2684  0.0969
 1011TIP3    H124668   3.178   3.394   1.300  1.8922 -0.9415  0.8809
 1011TIP3    H224669   3.138   3.408   1.154 -0.9560  1.0013  1.7534
 1012TIP3   OH224670   4.638   3.692   0.363  0.0363  0.1196 -0.2920
 1012TIP3    H124671   4.550   3.715   0.333 -0.2257 -0.7371 -0.2254
 1012TIP3    H224672   4.679   3.650   0.287  1.2780  2.6114 -1.1207
 1013TIP3   OH224673   5.616   5.810   1.078  0.0988 -0.1505 -0.2329
 1013TIP3    H124674   5.622   5.866   1.156 -0.3224 -0.9072  0.3533
 1013TIP3    H224675   5.693   5.835   1.026  1.4027 -0.8504  1.2429
 1014TIP3   OH224676   4.570   0.915   1.575  0.3724  0.3217  0.5960
 1014TIP3    H124677   4.611   0.831   1.554  1.8138  0.9916  0.6325
 1014TIP3    H224678   4.483   0.891   1.607  0.3009 -1.0832 -0.5063
 1015TIP3   OH224679   6.747   5.456   1.463  0.3645  0.3660 -0.3596
 1015TIP3    H124680   6.742   5.450   1.559  2.0622  1.3007 -0.1667
 1015TIP3    H224681   6.660   5.487   1.437 -0.2344 -0.2240  0.8398
 1016TIP3   OH224682   3.048   2.557   7.161  0.0499  0.6602  0.3467
 1016TIP3    H124683   3.109   2.564   7.234 -1.2635 -1.5255  1.7542
 1016TIP3    H224684   2.965   2.590   7.195 -0.5711 -0.3257 -0.1462
 1017TIP3   OH224685   5.643   0.478   7.208 -0.1563 -0.0358 -0.4052
 1017TIP3    H124686   5.707   0.437   7.268 -0.9566  0.1000  0.5620
 1017TIP3    H224687   5.561   0.433   7.228 -0.7381  1.0218 -0.3713
 1018TIP3   OH224688   1.459   3.285   1.780 -0.0916 -0.2945 -0.1338
 1018TIP3    H124689   1.416   3.366   1.752  0.8714  0.5451  0.7051
 1018TIP3    H224690   1.396   3.216   1.760 -0.9088  0.6496 -0.9443
 1019TIP3   OH224691   0.695   3.980   0.383 -0.0845 -0.2282  0.3280
 1019TIP3    H124692   0.628   3.912   0.373  0.0786 -0.1333 -1.7736
 1019TIP3    H224693   0.770   3.946   0.333  0.8174  0.4737  1.1757
 1020TIP3   OH224694   5.525   0.637   8.081 -0.3393  0.2862  0.1902
 1020TIP3    H124695   5.515   0.596   7.995 -1.9556 -0.1912  0.5736
 1020TIP3    H224696   5.560   0.568   8.137  0.8869  0.6467 -0.0820
 1021TIP3   OH224697   6.695   2.074   1.359  0.1038  0.2777 -0.5132
 1021TIP3    H124698   6.736   2.004   1.309 -0.5695 -0.2459 -0.3400
 1021TIP3    H224699   6.762   2.142   1.363  1.0243 -0.6222 -0.0854
 1022TIP3   OH224700   2.581   4.685   6.351  0.7406 -0.0757  0.2789
 1022TIP3    H124701   2.622   4.644   6.275  0.3288  0.3939 -0.2076
 1022TIP3    H224702   2.650   4.686   6.418  1.4830  0.5656 -0.4690
 1023TIP3   OH224703   3.799   2.983   1.566 -0.3816 -0.2350  0.5720
 1023TIP3    H124704   3.816   3.014   1.654  0.7309 -2.0979  1.0761
 1023TIP3    H224705   3.735   2.912   1.577 -1.5784  0.6559 -0.3376
 1024TIP3   OH224706   3.995   1.390   0.182 -0.3190  0.5315 -0.3597
 1024TIP3    H124707   4.088   1.379   0.167 -0.3567 -0.6093  0.1509
 1024TIP3    H224708   3.958   1.407   0.095  0.1796 -0.4680 -0.7783
 1025TIP3   OH224709   1.920   3.153   1.438  0.1287  0.1128  0.7858
 1025TIP3    H124710   1.897   3.063   1.459  0.4543  0.3232  2.1711
 1025TIP3    H224711   1.930   3.154   1.343 -0.5776 -1.1350  0.6764
 1026TIP3   OH224712   4.620   5.891   1.405 -0.0747  0.9591  0.2314
 1026TIP3    H124713   4.537   5.868   1.364  0.7456 -0.0838 -0.9220
 1026TIP3    H224714   4.600   5.894   1.499 -1.3838  0.6044 -0.0096
 1027TIP3   OH224715   5.383   5.496   0.251 -0.1664  0.1596  0.1787
 1027TIP3    H124716   5.352   5.584   0.232  0.5148  0.5351  0.7598
 1027TIP3    H224717   5.467   5.490   0.206 -0.7413 -0.6040 -0.8127
 1028TIP3   OH224718   3.593   6.039   1.577  0.3849 -0.0469  0.7504
 1028TIP3    H124719   3.662   6.073   1.521  0.2868 -2.1275 -0.7637
 1028TIP3    H224720   3.551   6.117   1.613  2.8627  1.2897  0.9566
 1029TIP3   OH224721   2.586   1.852   8.147 -0.3741  0.0967  0.1909
 1029TIP3    H124722   2.522   1.922   8.153  0.0135  0.4902 -0.2746
 1029TIP3    H224723   2.610   1.834   8.238 -1.5157 -0.4051  0.4054
 1030TIP3   OH224724   5.496   1.785   6.920 -0.1247  0.3271  0.7110
 1030TIP3    H124725   5.579   1.741   6.902  0.2069  0.5209  1.7102
 1030TIP3    H224726   5.431   1.733   6.873  0.4871 -0.1380  0.3546
 1031TIP3   OH224727   2.075   4.448   6.972 -0.0020 -0.0296  0.8187
 1031TIP3    H124728   2.151   4.468   7.027  0.5092  0.4244 -0.0270
 1031TIP3    H224729   2.071   4.521   6.911  0.1907 -1.1353 -0.5502
 1032TIP3   OH224730   0.862   6.773   6.790 -0.4816 -0.5740 -0.1282
 1032TIP3    H124731   0.940   6.787   6.844  0.3228  0.4920 -1.4978
 1032TIP3    H224732   0.867   6.681   6.763 -0.3136 -0.8148  0.7116
 1033TIP3   OH224733   0.831   4.000   8.666  0.6333  0.6631  0.2620
 1033TIP3    H124734   0.856   4.073   8.609 -1.0741  1.3296  0.3070
 1033TIP3    H224735   0.909   3.983   8.719  2.2290  0.1363 -2.1013
 1034TIP3   OH224736   5.189   2.334   1.707  0.3007 -0.6583 -0.2514
 1034TIP3    H124737   5.196   2.370   1.618 -0.1462 -2.2830 -0.9703
 1034TIP3    H224738   5.278   2.304   1.728  0.5836  0.4278  0.1897
 1035TIP3   OH224739   1.506   6.393   0.129  0.4145 -0.3716  0.1427
 1035TIP3    H124740   1.553   6.470   0.158 -0.4907 -0.6095  2.4571
 1035TIP3    H224741   1.451   6.368   0.204 -0.9933 -1.9457 -1.3023
 1036TIP3   OH224742   3.096   1.737   7.733  0.2201 -0.6471  0.0722
 1036TIP3    H124743   3.028   1.717   7.796  0.3398  0.8199  0.6871
 1036TIP3    H224744   3.050   1.751   7.650 -0.0066 -1.7332 -0.0032
 1037TIP3   OH224745   1.325   2.449   6.605 -0.0884  0.6014 -0.6258
 1037TIP3    H124746   1.355   2.504   6.533 -0.7692 -0.1669 -1.5341
 1037TIP3    H224747   1.393   2.383   6.614 -0.6432 -0.1294 -1.5373
 1038TIP3   OH224748   6.630   5.792   0.175 -0.1663 -0.4475  0.1331
 1038TIP3    H124749   6.536   5.794   0.161 -0.3365  0.9509  1.2459
 1038TIP3    H224750   6.657   5.704   0.146 -1.7307 -0.7335 -0.5458
 1039TIP3   OH224751   0.544   1.380   8.621  0.2854 -0.3753 -0.4132
 1039TIP3    H124752   0.581   1.292   8.624  0.0861 -0.4493  0.0574
 1039TIP3    H224753   0.614   1.437   8.653 -0.0105 -0.5250  0.5610
 1040TIP3   OH224754   2.990   2.268   7.022 -0.1182  0.1661  0.9071
 1040TIP3    H124755   2.961   2.345   7.071  1.4652  0.7643  0.9862
 1040TIP3    H224756   2.968   2.287   6.931 -1.1114  0.0195  1.1098
 1041TIP3   OH224757   0.891   3.351   1.497 -0.0247  0.5211 -0.2254
 1041TIP3    H124758   0.820   3.379   1.440  0.3894  0.9224 -0.5532
 1041TIP3    H224759   0.940   3.287   1.445 -0.3453 -0.0198  0.1286
 1042TIP3   OH224760   1.600   5.788   0.211 -0.3259 -0.3814 -0.1773
 1042TIP3    H124761   1.605   5.883   0.206 -1.5728 -0.2403  0.7292
 1042TIP3    H224762   1.595   5.759   0.121  0.3074  0.3835 -0.4754
 1043TIP3   OH224763   5.012   3.495   2.148 -0.2396  0.0584  0.0619
 1043TIP3    H124764   5.063   3.419   2.120 -0.4968  0.2072 -0.8550
 1043TIP3    H224765   5.028   3.502   2.242  0.0892 -0.8998  0.0859
 1044TIP3   OH224766   4.420   1.355   0.433  0.2161  0.4776  0.1580
 1044TIP3    H124767   4.405   1.448   0.451  1.7458  0.3164  2.8714
 1044TIP3    H224768   4.503   1.335   0.477  0.0073 -2.1565 -0.4499
 1045TIP3   OH224769   5.727   2.491   0.229  0.1187 -0.3555 -0.6362
 1045TIP3    H124770   5.652   2.492   0.287  0.8304 -2.2622  0.4306
 1045TIP3    H224771   5.721   2.572   0.179 -2.3897 -0.2643 -0.2981
 1046TIP3   OH224772   4.811   5.032   1.108  0.0945  0.1262 -0.0982
 1046TIP3    H124773   4.764   4.958   1.146  0.6630 -0.9233 -1.3782
 1046TIP3    H224774   4.886   5.046   1.165  0.7464 -1.2086 -0.5895
 1047TIP3   OH224775   5.017   4.629   7.803  0.0606 -0.3495 -0.0691
 1047TIP3    H124776   4.947   4.674   7.756  0.7670  1.6898  0.7116
 1047TIP3    H224777   5.003   4.653   7.895  0.4824 -1.7705  0.3930
 1048TIP3   OH224778   5.772   3.496   0.096 -0.4236  0.3030  0.4228
 1048TIP3    H124779   5.806   3.515   0.184  1.4546  0.6020 -0.3179
 1048TIP3    H224780   5.725   3.575   0.071 -0.2017  0.5636  0.8152
 1049TIP3   OH224781   2.641   4.402   7.248  0.0633  0.7324  0.3780
 1049TIP3    H124782   2.693   4.322   7.245  0.2775  0.8334  1.1446
 1049TIP3    H224783   2.559   4.376   7.291 -0.3579  0.6712 -0.4337
 1050TIP3   OH224784   3.016   3.893   8.831  0.6200  0.5477 -0.4315
 1050TIP3    H124785   3.070   3.966   8.802 -0.0799  0.8288 -1.0773
 1050TIP3    H224786   3.023   3.829   8.760  0.4375  0.4146 -0.3305
 1051TIP3   OH224787   3.301   5.655   7.602 -0.1925 -0.2238  0.5723
 1051TIP3    H124788   3.382   5.609   7.579 -0.1291  0.5067 -0.7077
 1051TIP3    H224789   3.310   5.674   7.695  1.4253  0.4485  0.3051
 1052TIP3   OH224790   5.478   2.511   2.248 -0.0667 -0.0979  0.2653
 1052TIP3    H124791   5.421   2.435   2.243 -1.5099  0.9577  0.1511
 1052TIP3    H224792   5.459   2.549   2.334 -0.0356  0.6299 -0.0401
 1053TIP3   OH224793   4.813   2.009   8.882  1.0958 -0.2435 -0.2319
 1053TIP3    H124794   4.903   1.980   8.868  0.9093 -0.2994 -1.5065
 1053TIP3    H224795   4.814   2.102   8.858  0.8953 -0.1416  0.1450
 1054TIP3   OH224796   5.935   6.080   1.852 -0.3884  0.2242  0.0337
 1054TIP3    H124797   5.998   6.143   1.888 -0.0010  0.5575 -1.1724
 1054TIP3    H224798   5.974   6.053   1.769 -1.2935 -0.4616 -0.1762
 1055TIP3   OH224799   1.528   1.125   1.506 -0.3542  0.3321 -0.6192
 1055TIP3    H124800   1.616   1.140   1.539 -0.1356 -3.4861  1.1249
 1055TIP3    H224801   1.471   1.140   1.581 -0.6329 -1.4544 -0.4149
 1056TIP3   OH224802   0.738   3.070   1.567  0.0548 -0.5596 -0.1682
 1056TIP3    H124803   0.647   3.098   1.571  0.0276 -0.6515 -0.1554
 1056TIP3    H224804   0.768   3.099   1.481 -0.4615 -1.9862 -0.8571
 1057TIP3   OH224805   3.647   5.161   0.451  0.1940 -0.5537  0.2025
 1057TIP3    H124806   3.690   5.080   0.479 -1.0268 -0.9601  1.0394
 1057TIP3    H224807   3.613   5.141   0.364 -0.0950 -0.9644  0.4024
 1058TIP3   OH224808   1.645   2.043   0.244 -0.7566 -0.1926 -0.1689
 1058TIP3    H124809   1.685   2.129   0.260 -0.6488 -0.2754  0.0201
 1058TIP3    H224810   1.700   1.982   0.295 -0.1207 -0.5347 -1.2377
 1059TIP3   OH224811   3.000   3.556   2.041  0.1593  0.3949 -0.0211
 1059TIP3    H124812   2.935   3.502   1.997 -2.3318  2.0129  1.4035
 1059TIP3    H224813   3.082   3.508   2.031 -1.2928 -1.9714 -1.5739
 1060TIP3   OH224814   0.266   5.776   2.117 -0.0418 -0.5304  0.0010
 1060TIP3    H124815   0.192   5.719   2.097 -1.1949  1.1684 -0.8397
 1060TIP3    H224816   0.343   5.724   2.095 -0.9915 -2.0774  0.1777
 1061TIP3   OH224817   4.951   4.418   1.475  0.0818 -0.3837  0.4448
 1061TIP3    H124818   5.044   4.435   1.460 -0.3788  1.8257 -0.2471
 1061TIP3    H224819   4.949   4.334   1.522  2.5027  0.1790  1.6895
 1062TIP3   OH224820   0.036   1.321   7.114  0.5400 -0.0157  0.3812
 1062TIP3    H124821   0.092   1.263   7.167  0.3833 -0.5302 -0.0055
 1062TIP3    H224822  -0.024   1.261   7.069 -2.3624  0.6443  3.0372
 1063TIP3   OH224823   4.385   1.209   8.095 -0.2437 -0.1851 -0.6864
 1063TIP3    H124824   4.316   1.212   8.161  1.4410 -1.3079  1.2342
 1063TIP3    H224825   4.440   1.135   8.121  0.4223 -0.7666 -3.4599
 1064TIP3   OH224826   5.045   1.340   7.215 -0.3178 -0.1559 -0.0072
 1064TIP3    H124827   5.026   1.303   7.301  0.5182  0.4121  0.4358
 1064TIP3    H224828   5.083   1.267   7.166 -0.9469 -0.5264  0.0331
 1065TIP3   OH224829   0.528   3.959   8.283  0.0756 -0.1843  0.0966
 1065TIP3    H124830   0.533   3.931   8.375  1.1786 -0.8248 -0.1388
 1065TIP3    H224831   0.437   3.942   8.258 -0.4888  0.8548  1.3239
 1066TIP3   OH224832   4.330   1.667   2.222 -0.5739 -0.5219 -0.1616
 1066TIP3    H124833   4.237   1.646   2.236 -0.8728  1.0754  0.4238
 1066TIP3    H224834   4.363   1.687   2.310  0.4504 -1.4832 -0.3082
 1067TIP3   OH224835   2.571   5.564   7.052  0.2978 -0.2358 -0.4354
 1067TIP3    H124836   2.578   5.615   6.971 -2.2118  0.2345 -0.4590
 1067TIP3    H224837   2.565   5.473   7.023 -0.0523 -0.1121 -0.7630
 1068TIP3   OH224838   4.172   6.336   1.122 -0.3002 -0.0089  0.5527
 1068TIP3    H124839   4.110   6.376   1.062 -0.0154  1.6664  1.2999
 1068TIP3    H224840   4.213   6.266   1.072 -2.4699 -0.8906 -0.0775
 1069TIP3   OH224841   5.346   0.459   0.633 -0.3036 -0.2030 -0.0454
 1069TIP3    H124842   5.267   0.492   0.590 -0.2278  0.8854  0.5977
 1069TIP3    H224843   5.388   0.405   0.567 -1.8761 -1.2989 -0.2162
 1070TIP3   OH224844   3.076   1.325   7.226 -0.3119  0.4060 -0.0427
 1070TIP3    H124845   2.995   1.344   7.179  0.9718  1.4482 -1.9735
 1070TIP3    H224846   3.067   1.371   7.310 -2.1757 -0.5380  0.3290
 1071TIP3   OH224847   2.093   2.841   0.089 -0.4380 -0.6095  0.3646
 1071TIP3    H124848   2.112   2.799   0.172  1.7566 -0.5982 -0.0641
 1071TIP3    H224849   2.023   2.789   0.050 -1.3302 -0.7481  2.0740
 1072TIP3   OH224850   0.905   0.100   8.185 -0.1605  0.5245  0.3316
 1072TIP3    H124851   0.827   0.047   8.202 -0.0760  0.9893  2.4208
 1072TIP3    H224852   0.870   0.185   8.157 -0.4352  0.6750  1.0892
 1073TIP3   OH224853   2.371   0.629   7.374  0.8068  0.1267 -0.7529
 1073TIP3    H124854   2.363   0.714   7.331 -0.2153  0.2186 -0.4103
 1073TIP3    H224855   2.286   0.615   7.415  0.7716 -1.3198 -1.2711
 1074TIP3   OH224856   2.805   0.830   1.315 -0.0165  0.1052  0.1225
 1074TIP3    H124857   2.880   0.879   1.282 -0.6174  0.4495 -0.7725
 1074TIP3    H224858   2.730   0.867   1.268 -0.4509 -1.9095 -0.8847
 1075TIP3   OH224859   3.070   3.123   8.427 -0.1492 -0.1941 -0.1921
 1075TIP3    H124860   3.008   3.186   8.390  0.7633 -0.5600 -2.4759
 1075TIP3    H224861   3.155   3.154   8.398  0.4007 -1.8987 -0.4988
 1076TIP3   OH224862   5.841   0.143   8.945  0.1619 -0.3946  0.2704
 1076TIP3    H124863   5.749   0.132   8.921  0.7363 -0.2584 -2.2351
 1076TIP3    H224864   5.843   0.226   8.994 -0.8453  0.4089 -0.9949
 1077TIP3   OH224865   5.818   2.041   0.733 -0.0851 -0.0718 -0.1765
 1077TIP3    H124866   5.911   2.033   0.711  0.0814 -0.4629  0.6365
 1077TIP3    H224867   5.781   2.090   0.660  0.5885 -0.6847 -0.9626
 1078TIP3   OH224868   3.894   3.382   8.589 -0.1243  0.4262  0.2732
 1078TIP3    H124869   3.935   3.297   8.568  0.5579  0.2912  1.9517
 1078TIP3    H224870   3.933   3.443   8.526  1.1792 -0.0832  0.5400
 1079TIP3   OH224871   0.527   1.050   8.863  0.1234 -0.5766  0.1905
 1079TIP3    H124872   0.593   0.985   8.884  0.1374 -0.5754  0.1509
 1079TIP3    H224873   0.575   1.133   8.860  0.0287 -0.4989  0.6835
 1080TIP3   OH224874   1.118   2.770   6.845  0.3765  0.4057  0.6437
 1080TIP3    H124875   1.073   2.810   6.920 -0.9859 -1.4984  0.9200
 1080TIP3    H224876   1.078   2.812   6.768  0.8923  1.4638  0.9323
 1081TIP3   OH224877   0.436   1.693   1.327 -0.1459 -0.7494 -0.1433
 1081TIP3    H124878   0.431   1.636   1.404 -1.8862 -1.1564 -0.5243
 1081TIP3    H224879   0.362   1.752   1.337 -1.6200 -2.0641 -2.4528
 1082TIP3   OH224880   5.472   2.954   0.539  0.1603 -0.4402 -1.1123
 1082TIP3    H124881   5.566   2.974   0.545  0.2336 -1.0683  2.8253
 1082TIP3    H224882   5.431   3.019   0.596 -1.5343 -1.3586 -1.2344
 1083TIP3   OH224883   1.434   1.065   7.406 -0.3141  0.2203  0.2580
 1083TIP3    H124884   1.453   0.975   7.378 -0.4620  0.3376 -0.2396
 1083TIP3    H224885   1.341   1.077   7.384  0.1545  1.1078 -1.4338
 1084TIP3   OH224886   5.682   4.285   8.778  0.2110 -0.5100  0.0366
 1084TIP3    H124887   5.744   4.318   8.714  0.7495 -1.8007 -0.1448
 1084TIP3    H224888   5.702   4.334   8.858 -1.1443  1.8530 -0.9735
 1085TIP3   OH224889   3.140   1.280   7.582  0.5229 -0.7882 -0.0191
 1085TIP3    H124890   3.100   1.194   7.598  0.0302 -0.3104  1.5368
 1085TIP3    H224891   3.175   1.306   7.667  0.8723  0.4568 -0.5228
 1086TIP3   OH224892   3.845   1.058   0.645 -0.2450 -0.7426 -0.0212
 1086TIP3    H124893   3.876   0.998   0.713 -1.0781 -0.4175  0.6573
 1086TIP3    H224894   3.779   1.112   0.689  1.4091  1.5910 -0.2283
 1087TIP3   OH224895   3.597   3.481   7.402  0.8419  0.0797 -0.3729
 1087TIP3    H124896   3.576   3.426   7.478  0.0347  1.3018  0.3396
 1087TIP3    H224897   3.689   3.504   7.414  1.0152 -0.6070 -0.3487
 1088TIP3   OH224898   4.314   5.320   7.685 -0.2325 -0.6382  0.2219
 1088TIP3    H124899   4.275   5.406   7.699 -0.6668 -0.4902 -1.6156
 1088TIP3    H224900   4.269   5.262   7.747  1.4002  0.7522  2.8528
 1089TIP3   OH224901   2.137   6.003   2.712  0.0427  0.1970 -0.0794
 1089TIP3    H124902   2.050   5.976   2.682 -0.4378  1.1608  0.3936
 1089TIP3    H224903   2.167   6.066   2.647 -0.0414  0.6057  0.2718
 1090TIP3   OH224904   2.674   5.224   1.547  0.1412 -0.5226 -0.0874
 1090TIP3    H124905   2.639   5.310   1.571  0.1258 -0.6044  0.1796
 1090TIP3    H224906   2.598   5.172   1.525  0.0790 -0.7409  0.6217
 1091TIP3   OH224907   4.736   1.818   1.043 -0.0802  0.1382  0.1785
 1091TIP3    H124908   4.820   1.848   1.007 -0.1001 -0.5002 -0.4088
 1091TIP3    H224909   4.675   1.824   0.971 -0.4524  0.1996  0.4951
 1092TIP3   OH224910   1.240   5.007   8.769  0.1579 -0.3347 -0.2976
 1092TIP3    H124911   1.178   4.936   8.753  2.6908 -3.3276  1.8496
 1092TIP3    H224912   1.325   4.970   8.743  1.5259  2.2431  0.1559
 1093TIP3   OH224913   4.219   6.287   8.798  0.2103  0.5658  0.3411
 1093TIP3    H124914   4.307   6.317   8.820  0.1235  0.4471  0.8660
 1093TIP3    H224915   4.204   6.211   8.855  0.2111 -0.1297 -0.5780
 1094TIP3   OH224916   6.342   0.013   8.904  0.1900 -0.1420  0.4605
 1094TIP3    H124917   6.414   0.063   8.942  0.5195  1.8304 -2.4532
 1094TIP3    H224918   6.263   0.057   8.936  0.4113  0.4897  0.1521
 1095TIP3   OH224919   6.502   4.423   7.394  0.0513 -0.1503 -0.3367
 1095TIP3    H124920   6.450   4.385   7.324  1.1664  0.4131 -1.4977
 1095TIP3    H224921   6.451   4.500   7.421 -0.0115  0.0657 -1.0510
 1096TIP3   OH224922   2.690   6.291   8.619 -0.3067  0.5704 -0.3284
 1096TIP3    H124923   2.766   6.344   8.646  0.0420 -0.8969  1.8038
 1096TIP3    H224924   2.723   6.236   8.549 -0.0747  1.5753 -1.0354
 1097TIP3   OH224925   6.668   5.300   7.524  0.1998  0.1415  0.0057
 1097TIP3    H124926   6.660   5.208   7.500 -0.9578 -0.3772  2.1113
 1097TIP3    H224927   6.580   5.325   7.553  0.9168  1.3300  1.2771
 1098TIP3   OH224928   2.454   4.791   1.907  0.3291  0.2176  0.5495
 1098TIP3    H124929   2.449   4.781   2.002 -0.5816  0.2402  0.5099
 1098TIP3    H224930   2.483   4.705   1.876 -1.8022 -0.5904  0.6695
 1099TIP3   OH224931   1.866   3.134   6.878  0.0370 -0.1192 -0.3430
 1099TIP3    H124932   1.773   3.140   6.901  0.6316  2.5074  1.9390
 1099TIP3    H224933   1.873   3.182   6.795 -0.6709 -0.5502 -0.6611
 1100TIP3   OH224934   3.734   6.148   7.917 -0.3539 -0.5552 -0.3292
 1100TIP3    H124935   3.776   6.182   7.838 -2.3231  0.5197 -0.9845
 1100TIP3    H224936   3.657   6.102   7.885 -2.5544  1.9266  0.9609
 1101TIP3   OH224937   3.592   4.515   6.812  0.1675  0.0318  0.0323
 1101TIP3    H124938   3.595   4.430   6.767 -2.3390  0.3803 -0.9224
 1101TIP3    H224939   3.515   4.559   6.776  0.2693  1.9290  1.9380
 1102TIP3   OH224940   1.763   2.902   1.462 -0.6446  0.5180 -0.2009
 1102TIP3    H124941   1.738   2.972   1.522  1.8114  0.6069  0.8704
 1102TIP3    H224942   1.786   2.829   1.519  1.4810  0.5064 -0.9516
 1103TIP3   OH224943   2.436   6.143   8.637  0.0860  0.1435  0.2199
 1103TIP3    H124944   2.510   6.201   8.618  0.0550  0.6819  1.6543
 1103TIP3    H224945   2.447   6.070   8.576  0.6200  1.2269 -1.0259
 1104TIP3   OH224946   2.880   1.576   0.405  0.3595 -0.5048  0.0923
 1104TIP3    H124947   2.975   1.565   0.406  0.4435  0.1511 -0.2605
 1104TIP3    H224948   2.855   1.579   0.498  0.7166 -0.4254  0.1871
 1105TIP3   OH224949   6.584   1.031   0.430 -0.0421  0.0384  0.2569
 1105TIP3    H124950   6.639   0.954   0.412 -2.0043 -1.6412  1.0323
 1105TIP3    H224951   6.627   1.073   0.504 -0.2683 -1.8265  1.5326
 1106TIP3   OH224952   2.794   4.895   1.653 -0.3996  0.1056 -0.2025
 1106TIP3    H124953   2.759   4.981   1.629 -1.6062 -0.4948 -0.6641
 1106TIP3    H224954   2.867   4.881   1.593  0.0052  0.9316  0.0778
 1107TIP3   OH224955   3.894   5.412   1.813 -0.6571  0.4013 -0.3914
 1107TIP3    H124956   3.956   5.446   1.749  0.2035 -1.3677 -0.5813
 1107TIP3    H224957   3.891   5.478   1.882  1.1654  0.7087 -0.5570
 1108TIP3   OH224958   0.411   4.180   6.358 -0.5322  0.4333  0.5633
 1108TIP3    H124959   0.362   4.259   6.379 -0.1070  0.0950  3.1443
 1108TIP3    H224960   0.487   4.183   6.416  0.8446 -0.6400 -1.0931
 1109TIP3   OH224961   2.041   4.301   1.246  0.1453 -0.4004  0.3554
 1109TIP3    H124962   2.090   4.220   1.260 -0.5220 -0.5998  1.7589
 1109TIP3    H224963   2.018   4.300   1.153  1.9370 -0.7667 -0.1202
 1110TIP3   OH224964   2.363   4.504   8.029 -0.1243 -0.1559  0.2619
 1110TIP3    H124965   2.382   4.480   7.939 -2.0007  2.1694 -0.8577
 1110TIP3    H224966   2.438   4.556   8.057  0.0016 -0.0401 -0.2967
 1111TIP3   OH224967   4.453   5.203   2.269  0.0508 -0.2338  0.0197
 1111TIP3    H124968   4.357   5.206   2.264 -0.0670  0.8029  1.9190
 1111TIP3    H224969   4.471   5.169   2.356  1.3813  1.5550  0.4937
 1112TIP3   OH224970   0.614   3.932   1.177 -0.8017  0.6842 -0.4649
 1112TIP3    H124971   0.521   3.914   1.191 -0.8859  1.8018  0.5859
 1112TIP3    H224972   0.617   4.017   1.132 -0.2828  1.7748  1.5037
 1113TIP3   OH224973   0.067   1.359   0.064 -0.5954  0.1557  0.0889
 1113TIP3    H124974   0.059   1.401   0.149  1.5114 -1.0318  0.9519
 1113TIP3    H224975   0.148   1.308   0.070 -1.1063 -1.0537 -2.1582
 1114TIP3   OH224976   5.130   4.225   0.904  1.0085  1.1362  0.2623
 1114TIP3    H124977   5.207   4.184   0.945  0.4336  0.5589  0.7980
 1114TIP3    H224978   5.162   4.309   0.871  1.8616  0.9184  0.4984
 1115TIP3   OH224979   3.272   5.072   8.032 -0.4890 -0.1147 -0.1608
 1115TIP3    H124980   3.287   5.131   7.958  1.8978 -0.4214  0.0135
 1115TIP3    H224981   3.201   5.113   8.081 -0.3157  1.4877 -1.1741
 1116TIP3   OH224982   4.060   3.721   1.541  0.1076  0.3066 -0.0248
 1116TIP3    H124983   4.026   3.805   1.510  1.7769  0.5686 -1.2856
 1116TIP3    H224984   4.030   3.658   1.475  0.9278  0.3335 -0.4357
 1117TIP3   OH224985   5.879   2.520   7.084  0.2944 -0.0549 -0.0270
 1117TIP3    H124986   5.901   2.607   7.050  0.9939 -1.0363 -2.2871
 1117TIP3    H224987   5.841   2.474   7.009 -1.8602 -1.1298  1.6156
 1118TIP3   OH224988   4.068   3.989   1.419  0.1353 -0.8791 -0.0657
 1118TIP3    H124989   4.012   4.050   1.468  0.1341 -0.9461  0.0145
 1118TIP3    H224990   4.055   4.015   1.327  1.0152 -0.0081  0.0407
 1119TIP3   OH224991   0.846   4.358   1.587 -0.0728 -0.1870  0.1294
 1119TIP3    H124992   0.772   4.346   1.527 -0.5331  1.5434  0.2823
 1119TIP3    H224993   0.883   4.443   1.561  1.5056 -0.7518  0.4455
 1120TIP3   OH224994   6.538   5.702   8.407 -0.2196 -0.8831 -0.0803
 1120TIP3    H124995   6.575   5.618   8.435  1.4314 -0.0002  0.5336
 1120TIP3    H224996   6.595   5.730   8.335 -0.9558 -0.4291 -0.4995
 1121TIP3   OH224997   0.388   4.556   7.394  0.5651  0.6883  0.0185
 1121TIP3    H124998   0.440   4.562   7.474 -0.8634 -0.2996  1.0638
 1121TIP3    H224999   0.314   4.616   7.408  0.1040  0.2323 -0.3956
 1122TIP3   OH225000   4.400   2.323   7.042 -0.0783 -0.4083  0.3077
 1122TIP3    H125001   4.387   2.401   6.988 -2.1824 -1.9734 -1.6740
 1122TIP3    H225002   4.448   2.263   6.986 -1.2074 -1.6343  0.5985
 1123TIP3   OH225003   2.347   3.773   8.270  0.3305 -0.8147 -0.3610
 1123TIP3    H125004   2.273   3.763   8.210  1.8315  1.1175 -2.7356
 1123TIP3    H225005   2.348   3.865   8.293  1.0623 -1.1221  0.9312
 1124TIP3   OH225006   2.833   0.009   0.194 -0.0498  0.2493  0.1404
 1124TIP3    H125007   2.857  -0.045   0.270  0.9425  0.7210  0.1728
 1124TIP3    H225008   2.912   0.059   0.174 -0.4476  0.4747 -0.9238
 1125TIP3   OH225009   5.205   5.840   2.487 -0.4613  0.2689 -0.0946
 1125TIP3    H125010   5.127   5.794   2.458 -0.1285  0.1825 -0.8677
 1125TIP3    H225011   5.250   5.778   2.544 -0.4565 -0.0440 -0.4390
 1126TIP3   OH225012   5.594   3.228   2.733 -0.9912  0.2186  0.5153
 1126TIP3    H125013   5.509   3.186   2.747 -1.1770  1.0331  2.0798
 1126TIP3    H225014   5.574   3.320   2.717 -0.4524  0.2482 -0.0183
 1127TIP3   OH225015   3.304   0.001   7.605 -0.5742  0.5415 -0.5087
 1127TIP3    H125016   3.305  -0.020   7.699 -1.1706 -1.1081 -0.8409
 1127TIP3    H225017   3.287   0.095   7.602 -0.0886  0.7149  1.0424
 1128TIP3   OH225018   0.393   0.572   8.336  0.0644  0.4697 -0.1334
 1128TIP3    H125019   0.471   0.542   8.289  0.2658 -1.8551  1.5256
 1128TIP3    H225020   0.427   0.630   8.404  0.3510 -0.2224  0.3316
 1129TIP3   OH225021   3.550   6.493   7.920  0.3606  0.1908  0.1158
 1129TIP3    H125022   3.498   6.464   7.845 -0.0513 -0.3830  0.6178
 1129TIP3    H225023   3.561   6.587   7.906  0.4904  0.0531 -0.7878
 1130TIP3   OH225024   0.680   2.592   7.923 -0.2652  0.6026  0.2773
 1130TIP3    H125025   0.752   2.632   7.971  1.2968 -2.1753  0.4971
 1130TIP3    H225026   0.643   2.528   7.984  0.3940 -1.5182 -1.4199
 1131TIP3   OH225027   6.654   3.549   7.576  0.0113  0.4406 -0.2240
 1131TIP3    H125028   6.591   3.478   7.565 -1.4782  1.8853 -1.5350
 1131TIP3    H225029   6.635   3.585   7.662 -0.3999  0.3284 -0.2646
 1132TIP3   OH225030   4.501   2.499   7.548 -0.1265  0.4747 -0.0123
 1132TIP3    H125031   4.569   2.536   7.603 -0.3002 -0.2935  0.7443
 1132TIP3    H225032   4.528   2.408   7.534 -0.7406  0.3036 -0.1186
 1133TIP3   OH225033   4.370   5.639   0.814  0.2739  0.4612  0.6643
 1133TIP3    H125034   4.396   5.731   0.809  0.1451  0.5889  1.9288
 1133TIP3    H225035   4.403   5.600   0.733  0.9922  1.4576  0.4567
 1134TIP3   OH225036   2.165   2.264   8.834  0.2727  0.6583  0.3339
 1134TIP3    H125037   2.159   2.173   8.863  1.1410  0.8284  1.0928
 1134TIP3    H225038   2.256   2.276   8.808 -0.2839  0.7572 -1.7753
 1135TIP3   OH225039   4.268   2.541   6.501  0.1359 -0.2663 -0.0459
 1135TIP3    H125040   4.188   2.551   6.552 -0.9142 -1.7845 -1.2765
 1135TIP3    H225041   4.333   2.510   6.564 -0.7577 -0.7887  0.6412
 1136TIP3   OH225042   2.238   2.712   8.768 -0.3047  0.1652  0.1932
 1136TIP3    H125043   2.232   2.627   8.813  0.1605 -0.7032 -1.2954
 1136TIP3    H225044   2.161   2.714   8.711  2.0829 -1.6181 -3.4979
 1137TIP3   OH225045   2.050   2.780   0.645 -0.5439 -0.5663  0.0371
 1137TIP3    H125046   2.002   2.779   0.562  1.0285 -1.0263 -0.9121
 1137TIP3    H225047   1.989   2.818   0.708 -1.3656  0.9172 -1.5785
 1138TIP3   OH225048   2.637   0.030   0.863  0.7735  0.0500 -0.0733
 1138TIP3    H125049   2.703   0.019   0.931 -0.9030 -1.2200  1.4444
 1138TIP3    H225050   2.597   0.115   0.882  1.1209  0.2466 -0.2190
 1139TIP3   OH225051   6.543   0.647   7.757  0.0660  1.1920  0.0640
 1139TIP3    H125052   6.487   0.722   7.775  0.6057  1.2951  1.4658
 1139TIP3    H225053   6.631   0.677   7.782  0.1224 -0.2335  1.8031
 1140TIP3   OH225054   1.388   2.159   0.587  0.1721 -0.1134  0.0092
 1140TIP3    H125055   1.413   2.134   0.676  0.9699 -0.9705 -0.4413
 1140TIP3    H225056   1.364   2.077   0.545 -3.1759  0.6053  0.2831
 1141TIP3   OH225057   1.493   6.296   1.815  0.5177  0.5908 -0.9929
 1141TIP3    H125058   1.411   6.309   1.861  0.2266  0.9924 -1.6107
 1141TIP3    H225059   1.534   6.221   1.858 -1.0244 -0.8097 -1.8656
 1142TIP3   OH225060   1.215   0.534   8.858 -0.7067  0.1887  0.1057
 1142TIP3    H125061   1.301   0.524   8.897 -0.5946  0.6806 -0.0036
 1142TIP3    H225062   1.163   0.463   8.895  0.2122 -1.1859 -1.1698
 1143TIP3   OH225063   1.276   5.868   7.598 -0.2762  0.4853  0.1790
 1143TIP3    H125064   1.209   5.880   7.531 -0.1484 -1.3551 -0.3155
 1143TIP3    H225065   1.359   5.870   7.550 -0.0627  0.9993  0.5527
 1144TIP3   OH225066   5.702   4.069   0.592 -0.4555  0.4426 -0.2253
 1144TIP3    H125067   5.688   4.000   0.527 -3.3897  1.2659 -0.6085
 1144TIP3    H225068   5.766   4.127   0.552  1.4400 -1.5287 -0.2430
 1145TIP3   OH225069   6.312   5.011   8.823  0.0012  0.2176  0.0200
 1145TIP3    H125070   6.241   5.051   8.773  0.2305  0.1840 -0.3338
 1145TIP3    H225071   6.384   5.002   8.760 -0.1966 -1.1926 -0.0348
 1146TIP3   OH225072   4.946   4.907   1.630  0.3372 -0.1264  0.2869
 1146TIP3    H125073   5.017   4.871   1.577  1.6106  0.0892  1.7862
 1146TIP3    H225074   4.875   4.921   1.568  1.8118  0.2631 -1.3968
 1147TIP3   OH225075   4.102   4.514   7.708 -0.3753 -0.4112 -0.1040
 1147TIP3    H125076   4.042   4.531   7.635  0.1056 -0.6474 -0.5646
 1147TIP3    H225077   4.083   4.583   7.771 -1.6777 -0.9370  0.1187
 1148TIP3   OH225078   6.120   6.032   7.613 -0.1888  0.3427 -0.3715
 1148TIP3    H125079   6.192   5.970   7.602  0.3910  1.0785 -0.7575
 1148TIP3    H225080   6.158   6.104   7.663 -0.5452  0.9321 -0.9485
 1149TIP3   OH225081   2.814   0.828   0.181 -0.2263 -0.1618  0.2920
 1149TIP3    H125082   2.762   0.750   0.201  0.5629 -0.9298 -0.5505
 1149TIP3    H225083   2.904   0.804   0.205 -0.2605  1.2778  2.0949
 1150TIP3   OH225084   5.948   3.336   8.355 -0.4927 -0.0555  0.1724
 1150TIP3    H125085   5.858   3.306   8.344 -0.2188  0.0704 -4.0950
 1150TIP3    H225086   5.993   3.263   8.398 -1.8705 -1.6874 -1.0446
 1151TIP3   OH225087   3.547   2.845   0.998  0.7091 -0.1775 -0.0625
 1151TIP3    H125088   3.534   2.840   1.093  0.3336 -0.0812 -0.1081
 1151TIP3    H225089   3.589   2.929   0.984 -2.2587  1.3805 -0.2997
 1152TIP3   OH225090   2.283   2.655   2.408 -0.0010  0.3668 -0.0817
 1152TIP3    H125091   2.264   2.741   2.445 -1.4629  0.5668 -1.2452
 1152TIP3    H225092   2.209   2.600   2.433  1.7300 -1.1584  2.2325
 1153TIP3   OH225093   5.750   6.265   1.604  0.6665 -0.6986  0.0181
 1153TIP3    H125094   5.835   6.288   1.567  1.3426 -4.0479 -0.7939
 1153TIP3    H225095   5.687   6.301   1.542  1.6447 -1.3323 -1.4035
 1154TIP3   OH225096   2.281   3.264   0.275  0.0186 -0.4095  0.3322
 1154TIP3    H125097   2.315   3.203   0.340 -2.7298 -1.0602  1.2790
 1154TIP3    H225098   2.275   3.214   0.194  0.4036 -0.5528  0.3927
 1155TIP3   OH225099   4.116   5.229   0.691 -0.0781 -0.2849 -0.6021
 1155TIP3    H125100   4.157   5.247   0.606  1.6461 -0.9918  0.0323
 1155TIP3    H225101   4.139   5.139   0.710 -0.4519 -0.1404  0.6257
 1156TIP3   OH225102   0.383   2.888   7.865 -0.7618 -0.6010  0.6716
 1156TIP3    H125103   0.379   2.965   7.809 -0.7326 -0.4037  0.9363
 1156TIP3    H225104   0.318   2.904   7.933 -0.3163 -0.5187  1.0879
 1157TIP3   OH225105   6.338   3.357   0.791 -0.2502 -0.1262 -0.0599
 1157TIP3    H125106   6.277   3.426   0.816  0.5743  0.5493  0.1299
 1157TIP3    H225107   6.425   3.395   0.804  0.2260 -1.2974  0.3219
 1158TIP3   OH225108   4.321   1.902   7.040 -0.2593 -1.0224  0.4100
 1158TIP3    H125109   4.363   1.913   7.126  0.8326 -2.9019  0.1730
 1158TIP3    H225110   4.228   1.911   7.058  0.0569  2.0077  1.1673
 1159TIP3   OH225111   2.284   3.056   0.072  0.2836 -0.8508  0.3577
 1159TIP3    H125112   2.210   2.997   0.085  0.5748 -0.8666  2.1003
 1159TIP3    H225113   2.340   3.009   0.009 -1.3695 -0.6008 -1.3988
 1160TIP3   OH225114   5.921   1.349   8.476 -0.1664 -0.6932 -0.1552
 1160TIP3    H125115   5.970   1.389   8.548 -0.4977 -0.8195  0.1417
 1160TIP3    H225116   5.851   1.300   8.518 -0.6483 -0.3858 -0.5868
 1161TIP3   OH225117   1.703   4.067   8.790 -0.4916  0.2291  0.1576
 1161TIP3    H125118   1.761   4.120   8.845 -0.6499 -0.2504  0.8018
 1161TIP3    H225119   1.750   4.059   8.707  0.9058 -1.0840  1.0216
 1162TIP3   OH225120   6.352   6.344   1.530 -0.3683 -0.0850  0.2508
 1162TIP3    H125121   6.324   6.401   1.458  0.1922  1.9654  1.5560
 1162TIP3    H225122   6.342   6.399   1.608 -0.6827 -2.1319  1.7280
 1163TIP3   OH225123   3.098   1.826   0.214 -0.0234 -0.4873 -0.2075
 1163TIP3    H125124   3.011   1.801   0.184  0.1097  0.4886 -1.4718
 1163TIP3    H225125   3.124   1.899   0.157  1.1688 -0.0308  0.8545
 1164TIP3   OH225126   1.663   3.893   6.603  0.1220  0.2209  0.3042
 1164TIP3    H125127   1.636   3.939   6.523 -0.1206 -0.7134 -0.1699
 1164TIP3    H225128   1.718   3.821   6.571 -2.4949 -2.1024  0.6450
 1165TIP3   OH225129   0.298   5.095   6.552  0.2663 -0.1695 -0.0488
 1165TIP3    H125130   0.329   5.008   6.577  1.7622 -0.7885 -3.4828
 1165TIP3    H225131   0.205   5.082   6.532 -0.4695 -0.0577  2.8114
 1166TIP3   OH225132   5.559   4.274   7.316  0.2973  0.6544  0.0324
 1166TIP3    H125133   5.537   4.225   7.237  0.4754  0.8017 -0.1108
 1166TIP3    H225134   5.480   4.268   7.371  1.0213 -1.5377  0.9348
 1167TIP3   OH225135   1.470   4.253   1.708 -0.6800 -0.4323 -0.2384
 1167TIP3    H125136   1.455   4.214   1.794 -0.8135 -1.2322 -0.6101
 1167TIP3    H225137   1.393   4.229   1.657 -1.0005  0.7643 -0.3457
 1168TIP3   OH225138   5.223   6.328   7.779 -0.4496 -0.4052 -0.2016
 1168TIP3    H125139   5.311   6.327   7.816 -0.5504  3.1931  0.4957
 1168TIP3    H225140   5.184   6.247   7.809  2.8323 -2.6052 -1.2743
 1169TIP3   OH225141   3.433   6.710   0.816 -0.4391 -0.0098  0.5103
 1169TIP3    H125142   3.410   6.625   0.853 -0.2890 -0.4746 -0.4271
 1169TIP3    H225143   3.427   6.698   0.721  0.5178  0.7466  0.3290
 1170TIP3   OH225144   1.428   4.995   0.577  0.2167  0.0922 -0.6826
 1170TIP3    H125145   1.424   5.015   0.484 -2.4996 -1.1417 -0.9246
 1170TIP3    H225146   1.413   5.078   0.621  1.3269  0.6481 -1.3151
 1171TIP3   OH225147   6.609   0.198   0.306  0.9419  0.2533  0.4324
 1171TIP3    H125148   6.675   0.261   0.275  0.8112 -0.7288 -2.0443
 1171TIP3    H225149   6.533   0.213   0.250  1.1519 -2.5352 -0.7454
 1172TIP3   OH225150   3.860   4.465   1.618  0.0260 -0.0201  0.0805
 1172TIP3    H125151   3.858   4.446   1.712  1.1239 -0.9474 -0.0672
 1172TIP3    H225152   3.771   4.447   1.588  0.0228 -1.0922  0.6958
 1173TIP3   OH225153   5.641   5.482   7.158 -0.6991  0.0897 -0.1123
 1173TIP3    H125154   5.607   5.441   7.237  1.7302 -1.0732  0.4185
 1173TIP3    H225155   5.654   5.574   7.182 -1.6883  0.1437  0.2344
 1174TIP3   OH225156   1.982   5.625   0.221 -0.3264 -0.8709  0.0102
 1174TIP3    H125157   1.990   5.690   0.292 -2.9520  1.3719 -1.5395
 1174TIP3    H225158   1.940   5.550   0.262 -1.1713  0.1182  1.0165
 1175TIP3   OH225159   1.798   6.391   7.329 -0.5172 -0.1555 -0.4831
 1175TIP3    H125160   1.771   6.370   7.239 -0.8878 -0.4772 -0.2992
 1175TIP3    H225161   1.822   6.307   7.367  0.0323  0.0320 -0.4060
 1176TIP3   OH225162   4.952   0.976   8.732  0.3205 -0.0833  0.3972
 1176TIP3    H125163   4.978   1.059   8.692  2.0327 -0.7800 -0.0235
 1176TIP3    H225164   4.941   0.916   8.659  0.0360 -0.4842  0.7590
 1177TIP3   OH225165   5.430   4.063   8.916 -0.0532  0.0374  0.4041
 1177TIP3    H125166   5.409   4.108   8.835  1.7804 -1.4800 -1.0074
 1177TIP3    H225167   5.525   4.054   8.915  0.1485  0.9052  3.2834
 1178TIP3   OH225168   5.696   1.512   0.705 -0.3105  0.1289 -0.0140
 1178TIP3    H125169   5.654   1.581   0.756 -0.2841  0.5656 -0.5775
 1178TIP3    H225170   5.785   1.507   0.740 -0.1969  0.6445 -0.2274
 1179TIP3   OH225171   3.852   6.323   7.688 -0.2513 -0.1263  0.3347
 1179TIP3    H125172   3.942   6.302   7.663 -0.2186  0.0790  0.2824
 1179TIP3    H225173   3.842   6.416   7.667 -0.5830 -0.2317  0.0132
 1180TIP3   OH225174   3.163   5.083   0.443  0.1843 -0.1242 -0.7097
 1180TIP3    H125175   3.246   5.068   0.489  0.3174  0.5440 -0.7068
 1180TIP3    H225176   3.101   5.105   0.513 -1.1048 -4.5665 -0.1972
 1181TIP3   OH225177   4.556   4.508   8.124  0.2335 -0.0462 -0.0117
 1181TIP3    H125178   4.568   4.586   8.070  2.1315 -0.9311 -0.9996
 1181TIP3    H225179   4.479   4.526   8.177  0.0445  2.0757 -0.9216
 1182TIP3   OH225180   1.287   3.247   7.449  0.3659 -0.0922 -0.0532
 1182TIP3    H125181   1.226   3.206   7.511 -1.0499 -1.5165 -2.2586
 1182TIP3    H225182   1.363   3.188   7.447 -0.7893 -1.6338 -1.6738
 1183TIP3   OH225183   4.515   1.564   7.084  0.3705  0.1130 -0.4400
 1183TIP3    H125184   4.576   1.495   7.111  1.0049  1.1943  0.9659
 1183TIP3    H225185   4.457   1.520   7.021  3.5000 -0.6238 -3.1346
 1184TIP3   OH225186   4.859   5.705   0.440  0.4439  0.4211 -0.4363
 1184TIP3    H125187   4.895   5.770   0.500 -0.6891 -0.2529  1.0406
 1184TIP3    H225188   4.932   5.647   0.419  0.2582 -1.3412  3.0616
 1185TIP3   OH225189   6.405   1.356   8.130  0.3052 -0.1137 -0.3030
 1185TIP3    H125190   6.378   1.437   8.172 -0.0605 -0.1039 -0.5550
 1185TIP3    H225191   6.466   1.383   8.062 -0.7587  0.0705 -1.2081
 1186TIP3   OH225192   2.732   3.428   7.716 -0.0976 -0.0560  0.2229
 1186TIP3    H125193   2.744   3.506   7.661  2.0188  0.0908  0.8166
 1186TIP3    H225194   2.714   3.463   7.803  0.9124 -0.2181  0.5023
 1187TIP3   OH225195   4.973   0.350   0.167  0.0857  0.2211  0.1036
 1187TIP3    H125196   5.016   0.428   0.202  0.0013 -0.4377  1.7548
 1187TIP3    H225197   4.964   0.291   0.243 -3.2494  0.1044 -0.2627
 1188TIP3   OH225198   3.204   3.037   8.152 -0.1560 -0.0181 -0.0595
 1188TIP3    H125199   3.278   3.011   8.097 -0.9723 -0.0619 -1.1881
 1188TIP3    H225200   3.243   3.083   8.226  0.9204  1.0786 -1.2758
 1189TIP3   OH225201   2.519   5.854   8.697 -0.3677  0.9051  0.1502
 1189TIP3    H125202   2.452   5.788   8.677 -1.0800  1.2754  1.2483
 1189TIP3    H225203   2.493   5.889   8.782  1.1551  1.1597  0.5261
 1190TIP3   OH225204   3.787   0.579   1.806 -0.4346 -0.3872  0.1334
 1190TIP3    H125205   3.718   0.528   1.850 -0.4669  0.5963  1.2476
 1190TIP3    H225206   3.865   0.563   1.859 -0.1601 -0.2652 -0.2389
 1191TIP3   OH225207   2.274   0.104   8.478  0.8340  0.3969  0.0288
 1191TIP3    H125208   2.355   0.115   8.427  0.9296  0.3757  0.1739
 1191TIP3    H225209   2.300   0.126   8.568  0.8585 -0.3049  0.2013
 1192TIP3   OH225210   4.419   5.159   0.380  0.0798  0.1739 -0.2979
 1192TIP3    H125211   4.354   5.216   0.340  0.7254  0.9518 -0.2537
 1192TIP3    H225212   4.479   5.136   0.309  0.5882  0.6489 -0.0321
 1193TIP3   OH225213   1.677   6.739   7.227 -0.3039  0.2489  0.9339
 1193TIP3    H125214   1.600   6.683   7.241 -0.7937  0.6949  0.1023
 1193TIP3    H225215   1.744   6.680   7.193 -0.3918 -0.0731  1.3104
 1194TIP3   OH225216   5.950   2.353   0.138 -0.0422 -0.5045 -0.4679
 1194TIP3    H125217   5.963   2.289   0.208  0.8182 -1.3813 -1.4044
 1194TIP3    H225218   5.871   2.401   0.163  1.0654  0.2344  1.8786
 1195TIP3   OH225219   6.354   5.439   0.073 -0.0971  0.5400  0.1108
 1195TIP3    H125220   6.397   5.431   0.158 -0.5401  0.0534  0.3023
 1195TIP3    H225221   6.284   5.373   0.076  0.4669 -0.1525 -0.9857
 1196TIP3   OH225222   3.944   2.158   1.621 -0.2387 -0.1796  0.1657
 1196TIP3    H125223   3.971   2.172   1.530 -1.0534  0.3024 -0.0053
 1196TIP3    H225224   4.022   2.120   1.663  0.8095  1.4198 -0.2427
 1197TIP3   OH225225   1.763   5.980   1.206  0.6304  0.4150  0.2938
 1197TIP3    H125226   1.727   6.046   1.266  1.6926  0.0547  1.3657
 1197TIP3    H225227   1.834   5.939   1.255  0.9797 -0.4898 -0.9170
 1198TIP3   OH225228   2.279   2.475   1.826 -0.2918 -0.5999 -0.9345
 1198TIP3    H125229   2.245   2.476   1.916 -1.1392 -0.6851 -1.2465
 1198TIP3    H225230   2.373   2.461   1.836 -0.2900 -0.0302 -0.0301
 1199TIP3   OH225231   0.641   6.609   8.551  0.5658  0.2336 -0.2821
 1199TIP3    H125232   0.683   6.532   8.514  1.1923  0.7838 -0.7390
 1199TIP3    H225233   0.643   6.674   8.481  0.6106  0.8690  0.2875
 1200TIP3   OH225234   6.518   6.143   8.044 -0.0962  0.3978 -0.3310
 1200TIP3    H125235   6.432   6.173   8.013 -0.2022  0.4023 -0.0307
 1200TIP3    H225236   6.511   6.142   8.139 -1.0540 -3.2998 -0.2908
 1201TIP3   OH225237   3.252   2.776   1.875  0.0361  0.2520 -0.1551
 1201TIP3    H125238   3.284   2.692   1.909  1.4245 -0.1069 -2.2234
 1201TIP3    H225239   3.157   2.770   1.885  0.1256 -1.4120  0.0974
 1202TIP3   OH225240   1.262   3.530   0.711 -0.0028 -0.2619 -0.0022
 1202TIP3    H125241   1.269   3.588   0.636 -1.3065 -0.4372 -0.2802
 1202TIP3    H225242   1.186   3.561   0.759 -0.6192 -1.6211 -0.0620
 1203TIP3   OH225243   3.951   5.256   8.269  0.1387 -0.1033  0.7697
 1203TIP3    H125244   3.926   5.336   8.222  1.9055  1.2892  2.0584
 1203TIP3    H225245   3.940   5.277   8.361 -0.7946 -1.9115  1.1245
 1204TIP3   OH225246   0.041   2.005   7.420  0.0842  0.1449 -0.1695
 1204TIP3    H125247   0.033   2.100   7.413 -2.3597  0.3692  3.1395
 1204TIP3    H225248  -0.002   1.971   7.342  0.9736  1.6693 -1.3961
 1205TIP3   OH225249   6.283   0.907   8.869 -0.0812  0.5772 -0.5676
 1205TIP3    H125250   6.240   0.886   8.952  1.7278 -0.1656  0.2403
 1205TIP3    H225251   6.223   0.874   8.802 -0.6456 -0.6685  0.5075
 1206TIP3   OH225252   6.674   2.078   2.176 -0.6420  0.5028  0.4542
 1206TIP3    H125253   6.671   2.163   2.130  0.7410  0.5003  0.2908
 1206TIP3    H225254   6.724   2.022   2.116  0.1563  0.1536  1.4200
 1207TIP3   OH225255   4.709   0.763   0.053  0.4011 -0.2460 -0.4130
 1207TIP3    H125256   4.734   0.802   0.136 -1.7304 -2.1524  1.2310
 1207TIP3    H225257   4.685   0.838  -0.002  2.5005  1.1038  0.3546
 1208TIP3   OH225258   4.628   1.798   8.363  0.1056  0.1751 -0.3106
 1208TIP3    H125259   4.571   1.794   8.439  0.6590  0.6513  0.1378
 1208TIP3    H225260   4.617   1.713   8.320 -0.6739  0.1329 -0.0475
 1209TIP3   OH225261   4.688   4.977   7.994 -0.5160 -0.4761  0.0934
 1209TIP3    H125262   4.684   5.053   7.937 -1.6544  0.1740  0.9936
 1209TIP3    H225263   4.744   4.915   7.947 -0.9440  0.2446 -1.4469
 1210TIP3   OH225264   1.458   3.037   1.258 -0.3080 -0.2724  0.0039
 1210TIP3    H125265   1.395   3.065   1.192  1.8375  1.7241 -1.3815
 1210TIP3    H225266   1.430   3.080   1.338 -0.0960  1.5895 -0.8750
 1211TIP3   OH225267   4.349   6.611   0.134  0.1916 -0.5417 -0.4756
 1211TIP3    H125268   4.266   6.659   0.126  0.7273  0.2304 -1.7219
 1211TIP3    H225269   4.410   6.676   0.170  0.4153 -0.9129 -0.1813
 1212TIP3   OH225270   6.012   3.738   0.616  0.3058  0.2036  0.5753
 1212TIP3    H125271   5.985   3.646   0.607  0.2100  0.1727  1.1217
 1212TIP3    H225272   6.107   3.734   0.627  0.2885  0.1610  0.7103
 1213TIP3   OH225273   0.926   1.861   8.363 -0.0829  0.3941  0.0695
 1213TIP3    H125274   0.898   1.922   8.431 -0.0488 -0.6460  1.0559
 1213TIP3    H225275   0.903   1.775   8.398  0.0828 -0.1759 -1.1780
 1214TIP3   OH225276   3.387   2.128   1.248 -0.0018  0.0976  0.0974
 1214TIP3    H125277   3.348   2.080   1.320  2.5060 -1.3544  0.6092
 1214TIP3    H225278   3.313   2.152   1.192 -1.9771  0.8877  2.8465
 1215TIP3   OH225279   1.063   5.697   6.869 -0.7516  0.1731  0.0979
 1215TIP3    H125280   1.148   5.682   6.828 -1.8643 -0.1867 -2.2148
 1215TIP3    H225281   1.049   5.791   6.862 -0.9108  0.1209 -0.2929
 1216TIP3   OH225282   4.818   2.730   0.503 -0.0468  0.3388 -0.0194
 1216TIP3    H125283   4.821   2.764   0.414 -3.1744 -1.9832 -1.1850
 1216TIP3    H225284   4.736   2.764   0.539  0.3550 -0.1044  1.3928
 1217TIP3   OH225285   0.374   5.781   0.374  0.1405  0.6689  0.4134
 1217TIP3    H125286   0.319   5.825   0.438  0.8285 -0.2865  1.6957
 1217TIP3    H225287   0.380   5.843   0.301 -1.7999  1.1934  0.6427
 1218TIP3   OH225288   3.999   1.618   1.810  0.0220  0.3203  0.1844
 1218TIP3    H125289   3.986   1.601   1.904  0.7223 -1.6864 -0.0548
 1218TIP3    H225290   4.034   1.708   1.808  0.1650  0.3492  1.8517
 1219TIP3   OH225291   5.129   5.270   8.810 -0.4687 -0.1947 -0.1574
 1219TIP3    H125292   5.101   5.355   8.775 -5.6767 -1.8949 -1.0481
 1219TIP3    H225293   5.172   5.227   8.736 -0.2199  0.7205 -0.5538
 1220TIP3   OH225294   6.364   5.931   2.823  0.3780  0.2795 -0.5861
 1220TIP3    H125295   6.448   5.954   2.785 -0.3198  2.2538 -1.0591
 1220TIP3    H225296   6.377   5.939   2.917  1.1305 -1.0701 -0.5449
 1221TIP3   OH225297   4.407   1.701   2.480  0.0636  0.0186  0.3584
 1221TIP3    H125298   4.491   1.740   2.503 -0.1926  1.0554 -0.3545
 1221TIP3    H225299   4.342   1.761   2.517 -0.3635 -0.6100  0.6385
 1222TIP3   OH225300   2.587   2.536   2.529  0.1398 -0.0841  0.4288
 1222TIP3    H125301   2.520   2.600   2.505  1.4401  1.2390  0.2251
 1222TIP3    H225302   2.618   2.501   2.445  1.6619  1.4050  0.3105
 1223TIP3   OH225303   2.313   0.289   7.615  0.6186  0.3135  0.2528
 1223TIP3    H125304   2.273   0.366   7.656  0.1422 -0.1085  0.5934
 1223TIP3    H225305   2.252   0.264   7.546  2.0717  1.8495 -1.7090
 1224TIP3   OH225306   5.799   2.640   8.653 -0.3518  0.0524 -0.0743
 1224TIP3    H125307   5.745   2.714   8.680 -0.1569 -0.0464  0.5919
 1224TIP3    H225308   5.835   2.605   8.734 -0.4024 -0.7469 -0.3876
 1225TIP3   OH225309   2.972   3.815   6.349  0.5746 -0.0948  0.3872
 1225TIP3    H125310   2.908   3.760   6.303 -1.4657  1.0110  1.7206
 1225TIP3    H225311   2.963   3.791   6.441  2.9990 -0.7131  0.5236
 1226TIP3   OH225312   2.878   3.532   1.757  0.5498  0.7287 -0.0468
 1226TIP3    H125313   2.875   3.488   1.672 -0.6669 -1.2222  0.9235
 1226TIP3    H225314   2.939   3.605   1.745  0.7573  0.2210 -2.4413
 1227TIP3   OH225315   1.346   1.917   0.417 -0.1170  0.3098 -0.0324
 1227TIP3    H125316   1.341   1.825   0.392 -0.1971  0.0157  1.0110
 1227TIP3    H225317   1.326   1.965   0.337 -3.5698 -0.6024  0.1133
 1228TIP3   OH225318   1.784   2.817   6.928 -0.7253  0.2111 -0.1323
 1228TIP3    H125319   1.861   2.820   6.872 -1.1178  0.3925 -0.6680
 1228TIP3    H225320   1.802   2.881   6.997  0.4946 -1.1931  0.9362
 1229TIP3   OH225321   0.994   6.621   6.512 -0.2121 -0.0569 -0.7808
 1229TIP3    H125322   0.926   6.595   6.575  0.1621  3.0977  1.1513
 1229TIP3    H225323   1.037   6.539   6.489 -0.8011 -1.5150  2.6165
 1230TIP3   OH225324   1.481   0.305   8.552 -0.7205 -0.3994  0.5500
 1230TIP3    H125325   1.487   0.213   8.578 -0.9768 -0.3531  0.7771
 1230TIP3    H225326   1.512   0.354   8.627 -0.1655 -0.3142  0.2672
 1231TIP3   OH225327   1.041   4.840   0.517  0.3672 -0.4509 -0.4248
 1231TIP3    H125328   1.069   4.931   0.514 -0.8562 -0.0283  0.5907
 1231TIP3    H225329   1.121   4.791   0.537  2.0713 -0.1614 -5.2554
 1232TIP3   OH225330   3.603   2.222   7.305  0.4291 -0.3228  0.2265
 1232TIP3    H125331   3.539   2.157   7.275 -1.5719  1.6878 -0.1593
 1232TIP3    H225332   3.564   2.259   7.384  1.3877  0.5733  0.3087
 1233TIP3   OH225333   3.262   5.344   1.144  0.2029 -0.0812 -0.2917
 1233TIP3    H125334   3.167   5.348   1.149  0.2495 -0.5199  1.7601
 1233TIP3    H225335   3.282   5.252   1.128  0.2970 -0.7556  3.0183
 1234TIP3   OH225336   3.322   2.637   8.310 -0.5237  0.5708  0.2130
 1234TIP3    H125337   3.303   2.729   8.326  1.4032  1.4016 -1.7175
 1234TIP3    H225338   3.378   2.610   8.384  3.1042  2.5197 -1.5417
 1235TIP3   OH225339   0.226   4.222   6.902  0.0841 -0.4921  0.7190
 1235TIP3    H125340   0.207   4.284   6.833  0.5672 -2.0335 -0.8819
 1235TIP3    H225341   0.197   4.265   6.983  3.6624  3.4013  0.3064
 1236TIP3   OH225342   5.482   2.089   1.367 -0.2442  0.3722  0.0484
 1236TIP3    H125343   5.509   1.998   1.377 -0.1583  0.0575 -2.4945
 1236TIP3    H225344   5.562   2.139   1.382  0.0733 -0.0790 -0.1092
 1237TIP3   OH225345   5.284   1.815   1.364 -0.4360  0.1294  0.1927
 1237TIP3    H125346   5.281   1.901   1.408 -0.0664  0.8362 -1.1072
 1237TIP3    H225347   5.208   1.768   1.399 -1.4892  1.5243 -0.1109
 1238TIP3   OH225348   3.147   2.263   6.546 -0.2713 -0.0123 -0.8518
 1238TIP3    H125349   3.056   2.279   6.568 -0.5253 -1.3394 -0.8342
 1238TIP3    H225350   3.186   2.350   6.537 -1.5012  0.5640 -0.7404
 1239TIP3   OH225351   5.046   3.720   1.938 -0.2853  0.0024 -0.2445
 1239TIP3    H125352   4.974   3.719   2.001 -1.3136  0.2572 -1.4027
 1239TIP3    H225353   5.122   3.748   1.990 -0.9005 -0.7053  1.0879
 1240TIP3   OH225354   3.927   3.264   0.417 -0.7638  0.2550 -0.0330
 1240TIP3    H125355   4.018   3.271   0.448 -1.1318  0.9513  0.9406
 1240TIP3    H225356   3.934   3.266   0.322  0.5403 -3.3905 -0.1852
 1241TIP3   OH225357   4.998   6.317   0.578 -0.4046 -0.0362  0.2620
 1241TIP3    H125358   4.928   6.377   0.553  1.8910  2.2923 -1.0262
 1241TIP3    H225359   5.030   6.351   0.662  0.2406 -0.0554  0.0323
 1242TIP3   OH225360   6.568   2.261   1.746  0.4029 -0.3171  0.1457
 1242TIP3    H125361   6.530   2.326   1.686  2.7775 -0.0166 -1.1714
 1242TIP3    H225362   6.524   2.179   1.723 -0.9092  0.3761  0.1327
 1243TIP3   OH225363   3.837   1.953   6.930  0.5388 -0.0525  0.2911
 1243TIP3    H125364   3.758   1.902   6.913  1.7325 -2.5423  1.5933
 1243TIP3    H225365   3.896   1.931   6.858  1.0097 -0.4548  0.7878
 1244TIP3   OH225366   1.464   4.297   8.601 -0.1365 -0.1116 -0.3697
 1244TIP3    H125367   1.419   4.264   8.523 -0.7479 -0.0410 -0.0492
 1244TIP3    H225368   1.452   4.229   8.667 -1.8882  0.9446  0.4677
 1245TIP3   OH225369   2.672   3.628   2.428  0.3487  0.4753 -0.0495
 1245TIP3    H125370   2.664   3.583   2.344  1.1337  0.3451 -0.0622
 1245TIP3    H225371   2.606   3.697   2.424  1.2939  1.3584 -1.3552
 1246TIP3   OH225372   1.382   0.999   0.539  0.1911  0.0905 -0.8152
 1246TIP3    H125373   1.359   0.963   0.625  2.1820 -2.2219 -1.1236
 1246TIP3    H225374   1.403   1.091   0.556 -1.7121  0.3060  0.6954
 1247TIP3   OH225375   5.146   1.917   1.685  0.7664  0.3950 -0.5326
 1247TIP3    H125376   5.150   1.993   1.627  0.3063  0.0690 -1.0034
 1247TIP3    H225377   5.056   1.886   1.676  0.7609  0.1975  0.1778
 1248TIP3   OH225378   0.278   6.213   8.682  0.1919 -0.7062  0.1893
 1248TIP3    H125379   0.295   6.157   8.757  0.6418 -0.7604  0.0500
 1248TIP3    H225380   0.185   6.201   8.663 -0.2846  0.3829  1.6127
 1249TIP3   OH225381   1.218   2.796   1.921 -0.9465 -0.0648  1.0214
 1249TIP3    H125382   1.184   2.864   1.980 -3.0146 -0.3664  0.2579
 1249TIP3    H225383   1.203   2.714   1.968  0.0693 -0.1102  1.2723
 1250TIP3   OH225384   0.782   0.745   0.806 -0.4214 -0.3998 -0.2785
 1250TIP3    H125385   0.759   0.664   0.761  0.0088 -0.3722 -0.5584
 1250TIP3    H225386   0.777   0.812   0.738 -0.2915 -0.2723 -0.1638
 1251TIP3   OH225387   5.304   2.155   7.728  0.1337  0.1917  0.0958
 1251TIP3    H125388   5.285   2.159   7.822 -0.1198  1.3067  0.0085
 1251TIP3    H225389   5.222   2.179   7.685  0.2625 -0.2600 -0.4175
 1252TIP3   OH225390   5.471   0.779   7.769  0.4603 -0.5615 -0.2762
 1252TIP3    H125391   5.539   0.733   7.818  1.3489  1.1251  0.1824
 1252TIP3    H225392   5.490   0.759   7.678 -0.4943 -2.7891 -0.0473
 1253TIP3   OH225393   0.919   6.039   7.631  0.0046  0.1397 -0.3911
 1253TIP3    H125394   0.840   6.031   7.684 -1.2395  1.5862 -1.9116
 1253TIP3    H225395   0.973   6.104   7.677  0.5992 -1.2235  0.9200
 1254TIP3   OH225396   0.279   1.094   0.615 -0.3511 -0.1869  0.4342
 1254TIP3    H125397   0.328   1.061   0.690 -1.6161  0.5438  1.6261
 1254TIP3    H225398   0.341   1.088   0.541  0.8448 -1.1137  1.4742
 1255TIP3   OH225399   5.924   0.810   1.228  0.0720  0.1157 -0.5578
 1255TIP3    H125400   5.962   0.724   1.209  0.3885  0.2550 -0.5750
 1255TIP3    H225401   5.982   0.847   1.295 -0.8717 -0.2521  0.4923
 1256TIP3   OH225402   0.621   4.276   6.566  0.2423  0.5116  0.1239
 1256TIP3    H125403   0.655   4.231   6.643 -1.8967  0.2740  1.0141
 1256TIP3    H225404   0.693   4.277   6.504  2.0832  0.8019  2.1629
 1257TIP3   OH225405   6.144   1.292   8.088  0.1633  0.0472  0.7097
 1257TIP3    H125406   6.236   1.307   8.113  1.1817 -1.1420 -1.9505
 1257TIP3    H225407   6.101   1.376   8.104  1.5168  0.4678  2.5921
 1258TIP3   OH225408   0.061   2.608   0.255  0.1445 -0.0500  0.0789
 1258TIP3    H125409   0.106   2.625   0.173  0.1921  0.5632  0.2273
 1258TIP3    H225410   0.008   2.686   0.271  1.0117  0.3508  1.1977
 1259TIP3   OH225411   2.897   2.887   1.172 -0.6940 -0.2997  0.1675
 1259TIP3    H125412   2.982   2.867   1.210 -0.7562 -0.0824  0.4299
 1259TIP3    H225413   2.912   2.888   1.077 -0.3026  0.1837  0.2270
 1260TIP3   OH225414   6.623   5.056   7.993 -0.4378  0.2915  0.2558
 1260TIP3    H125415   6.636   4.972   8.037 -3.1107 -0.0646  0.5420
 1260TIP3    H225416   6.624   5.035   7.900 -0.4884  0.0195  0.3141
 1261TIP3   OH225417   5.956   1.102   0.682  0.2115  0.1223  0.2874
 1261TIP3    H125418   5.902   1.080   0.758  0.5156  0.0842  0.4913
 1261TIP3    H225419   5.907   1.172   0.638 -0.0677  0.0003  0.4028
 1262TIP3   OH225420   0.466   2.142   0.027 -0.4913 -0.7882 -0.6519
 1262TIP3    H125421   0.446   2.077   0.095  0.5817  0.5981  1.0611
 1262TIP3    H225422   0.404   2.213   0.043  0.8692  0.3011  0.0348
 1263TIP3   OH225423   3.503   5.747   1.322 -0.4495  0.2296  0.0249
 1263TIP3    H125424   3.490   5.832   1.278  1.2949  1.7119  2.1325
 1263TIP3    H225425   3.505   5.769   1.415  0.6832 -2.0504  0.5943
 1264TIP3   OH225426   1.887   1.646   0.128  0.4968  0.6038  0.5636
 1264TIP3    H125427   1.887   1.575   0.193 -0.5322  0.1977  0.1375
 1264TIP3    H225428   1.962   1.626   0.071  0.3242 -0.0488  0.5556
 1265TIP3   OH225429   3.155   3.777   1.914 -0.1413  0.3863 -0.5407
 1265TIP3    H125430   3.105   3.786   1.833  0.1769  1.1029 -0.6618
 1265TIP3    H225431   3.093   3.737   1.975 -0.5326  0.2810 -0.9945
 1266TIP3   OH225432   1.420   5.906   6.297 -0.0861 -0.3620 -0.0372
 1266TIP3    H125433   1.419   5.817   6.261  2.5302 -0.7644  0.7260
 1266TIP3    H225434   1.464   5.898   6.381 -1.3321  1.4294  0.8728
 1267TIP3   OH225435   2.727   6.125   8.407 -0.2791 -0.4827 -0.3958
 1267TIP3    H125436   2.693   6.107   8.319 -0.5966  0.5428 -0.4943
 1267TIP3    H225437   2.819   6.148   8.392 -0.8354  1.7026 -0.7210
 1268TIP3   OH225438   5.988   5.530   7.058 -0.5895  0.0874 -0.1664
 1268TIP3    H125439   6.043   5.604   7.084 -0.7460 -0.1480  0.8829
 1268TIP3    H225440   5.966   5.486   7.140 -1.4833 -0.4334 -0.6623
 1269TIP3   OH225441   6.684   1.065   1.185 -0.2173 -0.5223 -0.3745
 1269TIP3    H125442   6.759   1.100   1.233 -0.8336  0.4895 -0.1107
 1269TIP3    H225443   6.610   1.075   1.245 -0.7601 -0.4448 -1.0409
 1270TIP3   OH225444   1.215   5.989   0.248 -0.0764  0.1812  0.8593
 1270TIP3    H125445   1.291   5.966   0.301 -0.4498 -0.9348  0.9486
 1270TIP3    H225446   1.215   5.923   0.178 -0.8835  0.2489  0.7883
 1271TIP3   OH225447   0.145   5.217   6.809  0.2400 -0.1868 -0.0496
 1271TIP3    H125448   0.081   5.218   6.737 -0.2155  2.2815  0.3012
 1271TIP3    H225449   0.093   5.239   6.886  1.2965  0.5028  0.4765
 1272TIP3   OH225450   3.727   3.177   7.456  0.6661 -0.2544  0.4891
 1272TIP3    H125451   3.727   3.207   7.546  0.3361 -0.5048  0.5769
 1272TIP3    H225452   3.634   3.171   7.433  0.7544  0.1571  0.0164
 1273TIP3   OH225453   4.170   5.156   0.100  0.5762 -0.1532  0.2238
 1273TIP3    H125454   4.096   5.196   0.146  0.4213 -0.5919  0.3590
 1273TIP3    H225455   4.193   5.220   0.032 -0.2555 -0.2424 -0.1516
 1274TIP3   OH225456   0.252   0.599   1.520  0.0839  0.3396 -0.4341
 1274TIP3    H125457   0.185   0.533   1.536 -0.5064  0.4802 -2.1496
 1274TIP3    H225458   0.323   0.551   1.477  1.0350  0.2278  1.2061
 1275TIP3   OH225459   2.110   5.878   6.773 -0.3918 -0.5011  0.1157
 1275TIP3    H125460   2.095   5.793   6.814 -1.4338 -0.3123  0.1494
 1275TIP3    H225461   2.080   5.868   6.683 -1.6426  0.1477  0.4361
 1276TIP3   OH225462   5.704   2.220   7.497  0.3907  0.4240 -0.4499
 1276TIP3    H125463   5.743   2.167   7.566  0.2138  0.8475 -0.0130
 1276TIP3    H225464   5.726   2.175   7.416  0.6302 -0.0635 -0.1172
 1277TIP3   OH225465   2.772   2.776   8.139  0.3300 -0.4489  0.2385
 1277TIP3    H125466   2.772   2.717   8.063  2.0225 -3.0747  2.0845
 1277TIP3    H225467   2.717   2.732   8.203 -2.8213  2.7546 -0.0096
 1278TIP3   OH225468   3.305   5.384   2.556  0.1311  0.3018  0.9982
 1278TIP3    H125469   3.347   5.436   2.488  0.8633 -1.0955  0.3386
 1278TIP3    H225470   3.365   5.310   2.571 -2.1145 -1.9097 -0.1282
 1279TIP3   OH225471   2.790   6.170   0.816 -0.2580  0.7661 -0.6565
 1279TIP3    H125472   2.807   6.264   0.816  0.5588  0.6617  1.2117
 1279TIP3    H225473   2.788   6.146   0.723  0.6148  2.4244 -1.1410
 1280TIP3   OH225474   2.796   0.507   7.271  0.7355  0.7848 -0.6022
 1280TIP3    H125475   2.772   0.415   7.259  0.5417  0.8928 -1.1016
 1280TIP3    H225476   2.852   0.527   7.196 -0.6229  1.5338 -1.4746
 1281TIP3   OH225477   1.283   6.246   8.570 -0.1791 -0.2742 -0.2985
 1281TIP3    H125478   1.369   6.261   8.609  1.1569 -0.4442 -2.9925
 1281TIP3    H225479   1.297   6.176   8.507 -2.8505 -1.9299  0.7622
 1282TIP3   OH225480   0.507   6.232   7.961 -0.0500 -0.1190 -0.1929
 1282TIP3    H125481   0.487   6.322   7.935 -0.6295 -0.1275  0.2286
 1282TIP3    H225482   0.552   6.240   8.045  0.4394 -0.1920 -0.4405
 1283TIP3   OH225483   4.797   3.902   1.695  0.2528 -0.9276  0.0918
 1283TIP3    H125484   4.863   3.893   1.627  0.1056  0.4238 -0.2613
 1283TIP3    H225485   4.830   3.971   1.752 -0.0334 -1.4497  0.9153
 1284TIP3   OH225486   3.830   6.082   0.080  0.0648  0.3192  0.3521
 1284TIP3    H125487   3.893   6.109   0.146  2.8388  1.9001 -2.6574
 1284TIP3    H225488   3.826   5.987   0.087  0.5342  0.4276  2.4829
 1285TIP3   OH225489   3.808   1.361   7.132 -0.1131  0.2727  0.7852
 1285TIP3    H125490   3.872   1.297   7.099 -0.3813  1.0688 -1.4497
 1285TIP3    H225491   3.734   1.308   7.161  0.6468 -0.5363  1.3059
 1286TIP3   OH225492   6.315   3.901   0.120 -0.2485 -0.3761 -0.9534
 1286TIP3    H125493   6.317   3.828   0.058  0.0103  0.9307 -2.5464
 1286TIP3    H225494   6.228   3.939   0.108 -0.0536  0.1177 -0.7869
 1287TIP3   OH225495   6.489   0.753   0.510  0.4866  0.1337  0.3026
 1287TIP3    H125496   6.577   0.780   0.485  0.5343 -0.1454  0.1601
 1287TIP3    H225497   6.443   0.741   0.427 -0.1277  1.6990  0.3979
 1288TIP3   OH225498   2.286   0.077   6.599 -0.1672  0.7176 -0.0872
 1288TIP3    H125499   2.331   0.105   6.679 -0.3551  0.2195  0.1979
 1288TIP3    H225500   2.353   0.083   6.531  1.5388 -3.5246  0.9300
 1289TIP3   OH225501   0.263   0.765   0.466 -0.5782  0.3090  0.3051
 1289TIP3    H125502   0.293   0.795   0.381 -0.7220 -2.3348 -0.7742
 1289TIP3    H225503   0.342   0.740   0.513 -0.6260 -0.5400 -0.0400
 1290TIP3   OH225504   0.519   3.629   0.578  0.2714  0.3479  0.4937
 1290TIP3    H125505   0.589   3.619   0.642  0.4015 -2.3853  0.0465
 1290TIP3    H225506   0.509   3.542   0.540 -1.7835  1.2158 -1.1415
 1291TIP3   OH225507   1.570   6.332   1.131 -0.1372 -0.4730  0.0820
 1291TIP3    H125508   1.578   6.264   1.065  1.0974 -2.3276  2.0348
 1291TIP3    H225509   1.511   6.397   1.091 -0.7815 -2.2863 -2.1380
 1292TIP3   OH225510   3.788   2.652   2.417 -0.3878 -0.1840  0.5605
 1292TIP3    H125511   3.786   2.576   2.360  3.4055 -0.0713 -0.0118
 1292TIP3    H225512   3.705   2.649   2.464 -0.2497 -5.0471  1.0456
 1293TIP3   OH225513   2.072   1.875   8.440 -0.0839 -0.3423  0.0395
 1293TIP3    H125514   1.989   1.923   8.432  0.2690  0.1269 -0.9576
 1293TIP3    H225515   2.137   1.943   8.460  0.2774 -0.5227 -0.5112
 1294TIP3   OH225516   4.636   5.599   8.662 -0.1213 -0.1587  0.3054
 1294TIP3    H125517   4.717   5.619   8.616 -1.2893 -0.7278 -2.1926
 1294TIP3    H225518   4.632   5.503   8.663 -0.8750 -0.1340  0.1381
 1295TIP3   OH225519   4.654   1.156   1.957 -0.1968  0.5906 -0.5440
 1295TIP3    H125520   4.590   1.187   1.893 -0.6269  1.1658  0.1423
 1295TIP3    H225521   4.646   1.217   2.031  0.5371  0.1586 -0.0884
 1296TIP3   OH225522   0.603   4.216   0.607 -0.3135 -0.3257  0.1506
 1296TIP3    H125523   0.630   4.252   0.522  0.1622 -0.0494  0.4197
 1296TIP3    H225524   0.583   4.124   0.587 -0.7411 -0.1252 -0.3710
 1297TIP3   OH225525   0.012   4.341   8.581 -0.2783 -0.3101 -0.3948
 1297TIP3    H125526  -0.048   4.300   8.643  0.9531  0.0208  1.0615
 1297TIP3    H225527  -0.013   4.433   8.579 -0.9664 -0.4965 -1.2061
 1298TIP3   OH225528   3.887   1.628   7.221 -0.1827  0.2962  0.0968
 1298TIP3    H125529   3.958   1.674   7.175 -0.0256 -0.0078  0.0311
 1298TIP3    H225530   3.900   1.536   7.198  0.5282 -0.0067  1.5903
 1299TIP3   OH225531   4.311   6.548   6.756 -0.0675 -0.2229 -0.7280
 1299TIP3    H125532   4.401   6.522   6.737  0.6952 -0.0040  2.1377
 1299TIP3    H225533   4.283   6.487   6.824 -0.3451  2.5375  1.8249
 1300TIP3   OH225534   4.387   4.537   0.291  0.8385  0.0599  0.3690
 1300TIP3    H125535   4.393   4.522   0.196  1.4673  1.8422  0.0758
 1300TIP3    H225536   4.473   4.512   0.324  1.2227  1.0437  0.1712
 1301TIP3   OH225537   5.390   2.946   8.935  0.3824 -0.6605 -0.7769
 1301TIP3    H125538   5.407   3.039   8.946 -0.6193 -0.3426 -1.7621
 1301TIP3    H225539   5.420   2.906   9.017 -1.0670  0.7888  0.5259
 1302TIP3   OH225540   3.392   5.686   0.992 -0.3200 -0.4548 -0.5686
 1302TIP3    H125541   3.405   5.591   0.980  0.4043 -0.5614  0.8375
 1302TIP3    H225542   3.337   5.693   1.070  2.0800  0.2872  1.1730
 1303TIP3   OH225543   0.471   4.696   1.674 -0.9020  0.1197 -0.0795
 1303TIP3    H125544   0.486   4.786   1.702 -0.8572  0.1961 -0.3450
 1303TIP3    H225545   0.557   4.654   1.682 -1.2545 -0.3649  1.6709
 1304TIP3   OH225546   4.883   2.450   2.243 -0.2870  0.2193 -0.9481
 1304TIP3    H125547   4.854   2.534   2.277  1.3854  0.2555  0.5698
 1304TIP3    H225548   4.838   2.385   2.296  0.6942  0.2443 -0.0445
 1305TIP3   OH225549   3.832   1.882   1.738  0.3571 -0.1944  0.2934
 1305TIP3    H125550   3.810   1.883   1.831 -0.0999 -0.2303  0.1847
 1305TIP3    H225551   3.921   1.918   1.734  0.4938 -0.4677  0.7726
 1306TIP3   OH225552   3.616   3.937   7.263  0.2510 -0.0416  0.4454
 1306TIP3    H125553   3.597   4.029   7.246 -1.4388 -0.1763  1.3841
 1306TIP3    H225554   3.648   3.903   7.180 -3.1659  0.4137 -1.1967
 1307TIP3   OH225555   5.999   6.361   1.537  0.2377  0.1104  0.0367
 1307TIP3    H125556   6.050   6.338   1.459  0.2960  0.1208  0.0716
 1307TIP3    H225557   5.961   6.446   1.517 -0.0100 -0.0346 -0.1085
 1308TIP3   OH225558   0.322   0.236   7.873  0.5121  0.1879  0.7982
 1308TIP3    H125559   0.371   0.225   7.955 -0.2941 -0.5991  1.1788
 1308TIP3    H225560   0.247   0.178   7.881  1.6084 -1.7358 -1.4612
 1309TIP3   OH225561   1.311   1.828   2.243 -0.6114 -0.4570  0.0801
 1309TIP3    H125562   1.240   1.772   2.211 -0.0391  0.1164 -2.3374
 1309TIP3    H225563   1.272   1.916   2.246 -0.0697 -0.1730 -1.0660
 1310TIP3   OH225564   2.267   0.321   8.006 -1.2339  0.1454 -0.0493
 1310TIP3    H125565   2.248   0.415   8.008 -0.5342  0.2777  0.5403
 1310TIP3    H225566   2.181   0.280   7.990 -2.0323  0.7332  2.3636
 1311TIP3   OH225567   0.025   6.773   0.429  0.0793 -0.2883  0.3050
 1311TIP3    H125568  -0.000   6.695   0.479 -1.8044  0.3937  0.5197
 1311TIP3    H225569  -0.058   6.808   0.398  1.0872  0.2924 -1.8575
 1312TIP3   OH225570   5.551   2.548   8.523  0.2584  0.0066  0.0947
 1312TIP3    H125571   5.545   2.484   8.451 -1.8338  1.6197 -1.2932
 1312TIP3    H225572   5.645   2.560   8.537  0.7015 -1.5052 -1.3279
 1313TIP3   OH225573   0.939   1.937   0.522  0.0786  0.3306  0.4433
 1313TIP3    H125574   0.871   1.898   0.577 -1.8010 -1.2424 -2.7097
 1313TIP3    H225575   0.891   1.984   0.454  2.2539  1.6951 -0.2534
 1314TIP3   OH225576   4.733   3.459   2.090 -0.4208 -0.5185 -0.2447
 1314TIP3    H125577   4.825   3.478   2.108 -0.4650 -0.3333 -0.2145
 1314TIP3    H225578   4.698   3.425   2.172  0.1224 -2.5344 -0.7680
 1315TIP3   OH225579   1.890   0.766   6.328  0.1063  0.1722  0.1337
 1315TIP3    H125580   1.887   0.836   6.393 -1.8574 -0.9392  1.3553
 1315TIP3    H225581   1.825   0.792   6.262  1.1413  0.6542 -0.7168
 1316TIP3   OH225582   2.597   5.815   7.329  0.2768  0.1018 -0.7023
 1316TIP3    H125583   2.626   5.906   7.334  0.5719  0.0190 -0.8458
 1316TIP3    H225584   2.675   5.764   7.350  0.2107 -0.1232 -0.9956
 1317TIP3   OH225585   0.867   2.158   7.288  0.8842 -0.0832  0.5192
 1317TIP3    H125586   0.940   2.120   7.337  1.6577  0.8857  0.1445
 1317TIP3    H225587   0.908   2.205   7.215 -0.1050  0.4955  0.3132
 1318TIP3   OH225588   5.264   2.687   1.832  0.0779  0.0895  0.0892
 1318TIP3    H125589   5.315   2.766   1.849  1.2214 -0.5784 -0.1640
 1318TIP3    H225590   5.318   2.615   1.865 -1.0591 -0.5905  0.5649
 1319TIP3   OH225591   2.379   1.388   8.943  0.0929  0.0992  0.3920
 1319TIP3    H125592   2.286   1.390   8.968  0.0485 -1.2399  0.4394
 1319TIP3    H225593   2.426   1.392   9.026  0.0185 -0.9343  0.5035
 1320TIP3   OH225594   2.301   4.768   6.534  0.0413  0.2379  0.0441
 1320TIP3    H125595   2.281   4.861   6.524 -0.3212  0.2251  0.5916
 1320TIP3    H225596   2.300   4.754   6.629 -0.7345 -0.4981 -0.0602
 1321TIP3   OH225597   3.772   3.830   1.542 -0.0552  0.5403 -0.0953
 1321TIP3    H125598   3.739   3.810   1.454  0.9428  1.6815 -0.7723
 1321TIP3    H225599   3.797   3.746   1.578 -1.9453 -0.1321 -0.2720
 1322TIP3   OH225600   0.402   4.777   1.411 -0.0765  0.3143  0.6339
 1322TIP3    H125601   0.429   4.867   1.396  1.1406  0.0610  1.1585
 1322TIP3    H225602   0.469   4.741   1.470 -2.1215 -0.0569  2.8961
 1323TIP3   OH225603   4.010   1.968   6.675 -0.2363  0.4030 -0.1580
 1323TIP3    H125604   4.087   1.912   6.669  0.1576  0.7922  1.0195
 1323TIP3    H225605   3.945   1.925   6.619 -0.1322 -1.5366  1.1026
 1324TIP3   OH225606   3.947   0.694   0.519  0.7434 -0.1496 -0.5372
 1324TIP3    H125607   3.961   0.786   0.497 -0.4598  0.0709 -0.4226
 1324TIP3    H225608   3.906   0.656   0.442 -0.9730 -0.0066  0.2547
 1325TIP3   OH225609   3.575   4.109   6.354  0.1417 -0.7509 -0.2201
 1325TIP3    H125610   3.592   4.203   6.357  0.0013 -0.7301 -0.0380
 1325TIP3    H225611   3.656   4.068   6.385 -0.7937 -0.5871  2.7264
 1326TIP3   OH225612   5.497   2.876   0.204 -0.0683  0.2129 -0.8168
 1326TIP3    H125613   5.577   2.910   0.244  0.4505  0.0215 -1.6753
 1326TIP3    H225614   5.449   2.836   0.277 -0.3220  2.0385  0.0739
 1327TIP3   OH225615   3.488   0.215   7.203 -0.2257  0.1620 -0.3963
 1327TIP3    H125616   3.579   0.191   7.217 -0.6295 -1.6257 -0.6171
 1327TIP3    H225617   3.439   0.135   7.222 -1.7957  1.2029  0.1327
 1328TIP3   OH225618   3.859   6.099   7.140 -0.2190  0.1628  0.2085
 1328TIP3    H125619   3.844   6.161   7.069  1.7764 -0.0768 -0.4829
 1328TIP3    H225620   3.918   6.033   7.102  0.0673 -0.5287  1.7884
 1329TIP3   OH225621   4.142   5.797   8.351  0.4505 -0.3529 -0.2688
 1329TIP3    H125622   4.075   5.848   8.397  0.8544 -0.5678  0.5882
 1329TIP3    H225623   4.148   5.837   8.264  0.5802  0.9059  0.2972
 1330TIP3   OH225624   3.372   6.503   7.193 -0.1308 -0.6222 -0.3349
 1330TIP3    H125625   3.338   6.496   7.104 -1.3834  1.4247 -0.0955
 1330TIP3    H225626   3.356   6.417   7.232 -0.2067 -1.3289 -1.8659
 1331TIP3   OH225627   6.645   2.524   7.508  0.0811 -0.3275  0.0316
 1331TIP3    H125628   6.675   2.564   7.589 -0.2185 -1.1206  0.5493
 1331TIP3    H225629   6.552   2.547   7.502 -0.2754 -1.4746  0.6951
 1332TIP3   OH225630   0.013   3.021   8.671 -0.3666  0.5686  0.0806
 1332TIP3    H125631   0.064   2.941   8.654  1.5386  1.7772 -0.1936
 1332TIP3    H225632   0.020   3.071   8.590 -2.2009  0.7161 -0.0213
 1333TIP3   OH225633   1.621   3.167   8.067  0.3133  0.0845  0.1838
 1333TIP3    H125634   1.660   3.105   8.006 -0.1133 -1.2708  1.2173
 1333TIP3    H225635   1.626   3.252   8.023 -0.1807 -0.8658 -1.8152
 1334TIP3   OH225636   0.076   0.109   8.586 -0.7261  0.4925 -0.0245
 1334TIP3    H125637   0.059   0.198   8.557  1.3214  0.2392 -2.2625
 1334TIP3    H225638   0.140   0.074   8.524 -0.9882 -2.3528  1.1199
 1335TIP3   OH225639   1.658   6.214   0.539  0.6785  0.2601 -0.4847
 1335TIP3    H125640   1.582   6.155   0.537  0.3252  0.5313  1.8334
 1335TIP3    H225641   1.709   6.190   0.462 -0.7134 -1.3668 -0.9653
 1336TIP3   OH225642   5.393   5.713   1.988 -0.3725 -0.3885 -0.4746
 1336TIP3    H125643   5.318   5.657   1.967 -1.2756  0.0245  1.4292
 1336TIP3    H225644   5.409   5.698   2.082 -0.9336  2.7873  0.2467
 1337TIP3   OH225645   4.786   0.322   7.838 -0.1254 -0.1891 -0.0878
 1337TIP3    H125646   4.718   0.359   7.893  0.4083  0.5455  0.0890
 1337TIP3    H225647   4.818   0.246   7.887  0.9338  0.9419  1.0539
 1338TIP3   OH225648   1.354   3.138   8.128  0.3980  0.3294  0.0494
 1338TIP3    H125649   1.340   3.045   8.146 -1.1983  0.5088 -0.1229
 1338TIP3    H225650   1.448   3.152   8.143  0.2070 -0.7426  2.6118
 1339TIP3   OH225651   4.742   3.736   0.620  0.3607 -0.0300  0.4504
 1339TIP3    H125652   4.783   3.649   0.619 -1.8563 -1.1958 -1.4320
 1339TIP3    H225653   4.719   3.752   0.528 -0.1827  2.1180  0.9019
 1340TIP3   OH225654   5.689   4.633   8.613 -0.0267  0.5810  0.2892
 1340TIP3    H125655   5.596   4.632   8.588  0.5499  2.3673 -2.2983
 1340TIP3    H225656   5.721   4.719   8.584  1.9738  0.9558  3.1721
 1341TIP3   OH225657   4.450   0.682   8.765  0.3038  0.2893  0.6709
 1341TIP3    H125658   4.435   0.776   8.765  0.6259  0.3465  0.1651
 1341TIP3    H225659   4.535   0.672   8.722 -1.1859 -0.4452 -2.3801
 1342TIP3   OH225660   2.484   4.973   8.564  0.5520 -0.0442  0.3125
 1342TIP3    H125661   2.532   5.023   8.630  2.2199  0.1363 -0.9618
 1342TIP3    H225662   2.538   4.980   8.485  0.5003 -3.2725 -0.1235
 1343TIP3   OH225663   1.824   0.681   1.228 -0.0676 -0.3014  0.5995
 1343TIP3    H125664   1.892   0.732   1.184 -1.5684 -0.8285 -2.5766
 1343TIP3    H225665   1.866   0.597   1.248  0.8407  0.2023  0.8938
 1344TIP3   OH225666   4.440   0.453   1.169  0.1580 -0.1710  0.5292
 1344TIP3    H125667   4.370   0.397   1.202  1.0880 -1.5911  0.1834
 1344TIP3    H225668   4.409   0.482   1.083 -1.0207  1.1874  1.3872
 1345TIP3   OH225669   1.916   4.827   7.141  0.1285 -0.2003  0.2379
 1345TIP3    H125670   1.908   4.911   7.186  0.4370 -0.1302  0.1648
 1345TIP3    H225671   1.945   4.849   7.053 -0.4380 -0.3406  0.0072
 1346TIP3   OH225672   3.499   2.963   2.645  0.6153 -0.0285 -0.6665
 1346TIP3    H125673   3.507   2.952   2.550  0.5791 -2.6381 -0.4213
 1346TIP3    H225674   3.581   3.007   2.671  0.7173  0.5184 -1.8515
 1347TIP3   OH225675   0.904   5.071   7.165 -0.5940  0.0452  0.4018
 1347TIP3    H125676   0.878   4.981   7.142 -0.3778  0.6196 -2.4211
 1347TIP3    H225677   0.821   5.119   7.171 -0.6154  0.3188 -1.4313
 1348TIP3   OH225678   6.551   0.332   7.501  0.3005 -0.6861 -0.0905
 1348TIP3    H125679   6.617   0.383   7.548 -0.5571 -0.1109  0.5077
 1348TIP3    H225680   6.520   0.392   7.433  1.3808 -1.4365 -1.3107
 1349TIP3   OH225681   0.901   6.738   0.919 -0.1939 -0.7105 -0.0760
 1349TIP3    H125682   0.859   6.787   0.847 -2.2228 -0.6098  1.0927
 1349TIP3    H225683   0.990   6.723   0.889  0.2684  2.8292 -0.9518
 1350TIP3   OH225684   1.259   4.142   7.872 -0.0651 -0.0587  0.3627
 1350TIP3    H125685   1.168   4.169   7.883 -0.2408 -0.7459  0.6212
 1350TIP3    H225686   1.306   4.186   7.943 -0.4484 -0.8910  1.1490
 1351TIP3   OH225687   3.875   0.381   7.106 -0.3870 -0.4797  0.4546
 1351TIP3    H125688   3.872   0.344   7.017 -0.9517  0.0030  0.2692
 1351TIP3    H225689   3.892   0.474   7.092 -2.3517 -0.0328  0.7407
 1352TIP3   OH225690   1.637   1.653   6.967 -0.4960  0.1199 -0.3185
 1352TIP3    H125691   1.729   1.673   6.948 -0.4185 -0.1873 -0.2782
 1352TIP3    H225692   1.598   1.738   6.987 -0.7496  0.5559 -2.4636
 1353TIP3   OH225693   1.560   3.456   1.324  0.0657  0.2036 -0.0139
 1353TIP3    H125694   1.557   3.552   1.322 -0.6467  0.2537  1.7557
 1353TIP3    H225695   1.591   3.431   1.237 -0.4452  2.0120 -0.7563
 1354TIP3   OH225696   5.788   2.199   8.586  0.2813 -0.3458  0.4074
 1354TIP3    H125697   5.815   2.122   8.635 -0.7122 -1.3416 -0.5504
 1354TIP3    H225698   5.767   2.264   8.652 -0.4332 -1.4459  1.2851
 1355TIP3   OH225699   5.976   4.059   0.759  0.6366  0.0946  0.4436
 1355TIP3    H125700   6.017   4.146   0.752  0.2430  0.1773 -1.8091
 1355TIP3    H225701   5.900   4.065   0.701  1.1612 -2.0521 -0.5361
 1356TIP3   OH225702   6.253   5.738   0.688 -0.2232 -0.0879 -0.7376
 1356TIP3    H125703   6.310   5.679   0.640  0.1971  0.2439 -0.6532
 1356TIP3    H225704   6.190   5.680   0.731 -0.9380 -0.3605 -2.0881
 1357TIP3   OH225705   2.745   4.023   1.216 -0.2660 -0.1874  0.2978
 1357TIP3    H125706   2.711   3.934   1.223 -0.0800 -0.2711  0.1510
 1357TIP3    H225707   2.805   4.020   1.141 -0.4951  0.1343  0.0961
 1358TIP3   OH225708   1.136   0.894   7.556  0.2278  0.1061  0.5493
 1358TIP3    H125709   1.123   0.966   7.494  2.6044  1.6092  1.6437
 1358TIP3    H225710   1.229   0.871   7.547 -0.2133 -2.1369  1.0212
 1359TIP3   OH225711   1.626   4.648   0.460  0.2978  0.3602  0.4102
 1359TIP3    H125712   1.587   4.602   0.386  2.4409  0.3435 -0.7942
 1359TIP3    H225713   1.629   4.740   0.433 -0.8712  0.7107  1.3994
 1360TIP3   OH225714   0.261   2.926   0.021 -0.6083  0.0412 -0.0274
 1360TIP3    H125715   0.239   3.014  -0.011 -0.0420 -0.0232 -0.6090
 1360TIP3    H225716   0.275   2.939   0.115 -1.9650  0.2887  0.1594
 1361TIP3   OH225717   1.136   2.125   7.721 -0.0793  0.0695  0.0554
 1361TIP3    H125718   1.173   2.084   7.799 -0.2861 -0.2990 -0.0388
 1361TIP3    H225719   1.209   2.128   7.659 -0.2371 -0.8130 -0.1916
 1362TIP3   OH225720   2.830   3.031   0.911 -0.1549  0.2412  0.1145
 1362TIP3    H125721   2.903   3.016   0.851  0.1114  0.2705  0.4297
 1362TIP3    H225722   2.772   2.956   0.898  0.6772 -0.5676  0.9651
 1363TIP3   OH225723   1.987   0.494   0.949  0.4689 -0.2447  0.1292
 1363TIP3    H125724   1.922   0.558   0.922  1.1985  0.5255  0.1638
 1363TIP3    H225725   2.015   0.523   1.036 -0.9373 -1.9807  1.2234
 1364TIP3   OH225726   1.680   0.164   1.706 -0.4105 -0.0926  0.6604
 1364TIP3    H125727   1.661   0.254   1.734  2.1839  0.6452  0.3036
 1364TIP3    H225728   1.724   0.124   1.781 -0.0807 -0.5313  0.2421
 1365TIP3   OH225729   3.702   0.242   1.739 -0.5424  0.2526 -0.2910
 1365TIP3    H125730   3.666   0.311   1.795  1.0024  1.0125 -0.1790
 1365TIP3    H225731   3.688   0.161   1.789  2.8055  1.0935  2.4338
 1366TIP3   OH225732   5.209   2.482   8.862 -0.5843 -0.4847  0.4927
 1366TIP3    H125733   5.259   2.540   8.919 -0.0867  0.6874 -1.0667
 1366TIP3    H225734   5.126   2.526   8.849 -1.2024 -1.3681  1.2993
 1367TIP3   OH225735   3.514   6.630   8.835  0.0774 -0.2443  0.0745
 1367TIP3    H125736   3.554   6.671   8.759 -0.6253  0.3868  0.0304
 1367TIP3    H225737   3.480   6.547   8.803  0.0307 -0.1048 -0.2356
 1368TIP3   OH225738   0.909   2.192   8.234  0.4978 -0.1929 -0.2164
 1368TIP3    H125739   0.832   2.188   8.177 -0.0042  1.6522  0.2854
 1368TIP3    H225740   0.876   2.165   8.320  0.4528  0.3715 -0.0528
 1369TIP3   OH225741   2.623   5.164   2.526  0.0961 -0.0079  0.1655
 1369TIP3    H125742   2.692   5.223   2.557  1.7076 -0.3457 -2.4882
 1369TIP3    H225743   2.555   5.223   2.495  0.2323  0.3818  0.5826
 1370TIP3   OH225744   0.827   5.047   7.719 -0.7085 -0.7408 -0.0941
 1370TIP3    H125745   0.770   5.070   7.646 -0.2451  0.0418 -0.2190
 1370TIP3    H225746   0.772   4.994   7.777 -1.3247 -0.6571 -0.5974
 1371TIP3   OH225747   3.155   2.911   7.341 -0.3898 -0.3854 -0.4039
 1371TIP3    H125748   3.141   2.893   7.248 -1.6965 -0.3035 -0.2422
 1371TIP3    H225749   3.198   2.832   7.375  0.8434 -0.1003 -1.2189
 1372TIP3   OH225750   1.340   1.887   1.339 -0.8089  0.4127 -0.2960
 1372TIP3    H125751   1.308   1.941   1.411 -2.9876 -0.7214 -0.3425
 1372TIP3    H225752   1.313   1.933   1.260  0.7126  1.1441 -0.4410
 1373TIP3   OH225753   1.126   4.378   7.597 -0.9092 -0.1239  0.4047
 1373TIP3    H125754   1.184   4.380   7.521 -0.6923 -2.8132  0.3815
 1373TIP3    H225755   1.116   4.469   7.622 -0.4766  0.8192 -2.4472
 1374TIP3   OH225756   2.239   0.497   6.987 -0.1420  0.2259  0.6022
 1374TIP3    H125757   2.305   0.454   7.042  2.1063  1.4752 -0.9581
 1374TIP3    H225758   2.235   0.442   6.909  0.8696  1.3838 -0.3098
 1375TIP3   OH225759   4.539   1.600   1.313 -0.1256  0.1679 -0.1931
 1375TIP3    H125760   4.457   1.582   1.359 -1.4403  0.9328 -2.1051
 1375TIP3    H225761   4.533   1.693   1.289  1.0984  0.1199 -0.7613
 1376TIP3   OH225762   3.143   5.977   8.483  0.6331  0.3415  0.6124
 1376TIP3    H125763   3.131   5.926   8.403  1.4871  1.1694 -0.0734
 1376TIP3    H225764   3.085   5.937   8.547 -0.2396 -0.1900 -0.4949
 1377TIP3   OH225765   1.970   3.540   8.135 -0.1981 -0.0460 -0.0198
 1377TIP3    H125766   2.051   3.546   8.186 -0.3302  1.9812  0.0279
 1377TIP3    H225767   1.903   3.513   8.198  0.5099 -2.5181 -0.2110
 1378TIP3   OH225768   0.074   3.589   1.516 -0.2174 -0.4916  0.4702
 1378TIP3    H125769   0.082   3.538   1.596 -0.9889  0.3928  1.1355
 1378TIP3    H225770   0.003   3.651   1.534 -1.1112 -0.9294 -1.2367
 1379TIP3   OH225771   5.019   4.802   2.899 -0.1755  0.1538 -0.3019
 1379TIP3    H125772   4.950   4.868   2.892 -0.4138  0.2075  1.9766
 1379TIP3    H225773   5.099   4.852   2.908 -0.5324  0.3270  3.3495
 1380TIP3   OH225774   3.391   4.930   1.604  0.4724  0.2256 -0.0335
 1380TIP3    H125775   3.388   4.997   1.537  0.7432  0.9962  0.7064
 1380TIP3    H225776   3.379   4.977   1.687 -1.0680 -0.8344  0.3986
 1381TIP3   OH225777   3.025   3.013   1.652  0.0740 -0.2928 -0.0596
 1381TIP3    H125778   2.943   3.025   1.700  0.0796 -1.1070  0.1702
 1381TIP3    H225779   3.083   3.081   1.685 -1.1799  1.7509 -1.7964
 1382TIP3   OH225780   5.999   2.350   0.924  0.3179  0.1020  0.6943
 1382TIP3    H125781   5.969   2.268   0.963  1.3129  0.3972  2.1719
 1382TIP3    H225782   6.093   2.337   0.910 -0.0318 -0.0884 -1.9590
 1383TIP3   OH225783   4.154   3.622   1.776 -0.5520  0.5271 -0.0611
 1383TIP3    H125784   4.182   3.532   1.759  2.0266  1.2091  0.1618
 1383TIP3    H225785   4.121   3.653   1.692 -3.0057 -1.0186  0.1974
 1384TIP3   OH225786   0.183   5.348   0.625 -0.1421 -0.6868 -0.2206
 1384TIP3    H125787   0.271   5.318   0.602 -0.5478 -1.3064 -1.0412
 1384TIP3    H225788   0.176   5.334   0.719  0.3544 -1.3978 -0.2796
 1385TIP3   OH225789   5.220   4.710   8.691 -0.4082  0.4203  0.2605
 1385TIP3    H125790   5.146   4.650   8.695 -0.9506  0.7463 -2.8471
 1385TIP3    H225791   5.286   4.672   8.750 -1.7225 -1.7370  0.4146
 1386TIP3   OH225792   5.640   6.634   8.225 -0.3399  0.2388  0.2661
 1386TIP3    H125793   5.627   6.726   8.200  0.2114  0.1851 -0.2369
 1386TIP3    H225794   5.572   6.587   8.177 -0.4252  0.3464  0.2809
 1387TIP3   OH225795   1.933   6.592   0.218  0.0974  0.1939 -0.6064
 1387TIP3    H125796   1.847   6.635   0.220 -0.2316 -0.2853 -2.3453
 1387TIP3    H225797   1.923   6.523   0.153  1.3768 -0.8695  0.2769
 1388TIP3   OH225798   6.331   2.041   0.845  0.4476  0.0773  0.5101
 1388TIP3    H125799   6.312   2.101   0.773 -1.2068 -0.6988  0.2640
 1388TIP3    H225800   6.349   2.099   0.919  1.3314  0.8815 -0.3004
 1389TIP3   OH225801   3.004   0.027   7.497  0.9560  0.0073 -0.1242
 1389TIP3    H125802   3.089  -0.015   7.513  0.7832 -0.2282  0.1852
 1389TIP3    H225803   2.941  -0.027   7.544  0.6631  0.3230 -0.1461
 1390TIP3   OH225804   4.153   3.913   0.018 -0.4151 -0.4677 -0.0526
 1390TIP3    H125805   4.137   3.940   0.108 -0.3149 -0.8376  0.0808
 1390TIP3    H225806   4.092   3.965  -0.034 -0.9313 -0.7124  0.2941
 1391TIP3   OH225807   5.296   4.295   7.064  0.6937 -0.1232  0.5243
 1391TIP3    H125808   5.379   4.340   7.078 -0.1432  0.9603  2.3416
 1391TIP3    H225809   5.251   4.348   6.998  1.7795 -1.2580 -1.2070
 1392TIP3   OH225810   1.683   5.618   1.258 -0.3217  0.1874 -0.7720
 1392TIP3    H125811   1.677   5.630   1.352  0.8329 -0.6857 -0.5572
 1392TIP3    H225812   1.623   5.682   1.221 -0.7539  0.5685  0.5531
 1393TIP3   OH225813   2.073   4.054   8.775 -0.5916 -0.1473 -0.6837
 1393TIP3    H125814   2.097   4.012   8.858  0.6508 -0.1329 -1.0116
 1393TIP3    H225815   2.111   3.998   8.708 -0.4232  0.5580 -1.1894
 1394TIP3   OH225816   0.090   5.570   0.146  0.0334  0.3976  0.2119
 1394TIP3    H125817   0.126   5.488   0.182  1.3178  0.4498 -0.8830
 1394TIP3    H225818   0.093   5.631   0.220  0.3255 -0.1666  0.6824
 1395TIP3   OH225819   2.443   4.159   7.633  0.5518  0.7394 -0.5724
 1395TIP3    H125820   2.450   4.155   7.728 -0.7419 -1.5793 -0.5132
 1395TIP3    H225821   2.360   4.203   7.617  0.2479  0.1488 -0.6122
 1396TIP3   OH225822   4.668   4.807   1.183  0.2065 -0.3172  0.0509
 1396TIP3    H125823   4.664   4.741   1.252 -1.4904 -0.9915 -0.6496
 1396TIP3    H225824   4.652   4.758   1.102  1.4840  0.5633 -0.7749
 1397TIP3   OH225825   5.251   5.480   8.962  0.6830  0.0694  0.3807
 1397TIP3    H125826   5.189   5.415   8.928 -0.0167  0.2011  1.3694
 1397TIP3    H225827   5.199   5.534   9.021  1.5542  0.7342  0.5596
 1398TIP3   OH225828   3.124   0.316   8.086  0.1636  0.2026 -0.2142
 1398TIP3    H125829   3.058   0.385   8.094  0.3372  0.3620 -0.1331
 1398TIP3    H225830   3.110   0.260   8.162 -1.1938 -0.9273 -1.2532
 1399TIP3   OH225831   1.487   4.343   1.081 -1.2551 -0.3179  0.2952
 1399TIP3    H125832   1.560   4.358   1.141 -1.4131 -1.5535  0.8318
 1399TIP3    H225833   1.518   4.376   0.997  0.0317 -1.0442  0.4568
 1400TIP3   OH225834   0.294   5.117   8.064  0.2101 -0.0712 -1.0002
 1400TIP3    H125835   0.350   5.040   8.073 -0.5458 -0.5035  0.1619
 1400TIP3    H225836   0.215   5.096   8.114 -0.2153  1.2675 -1.0678
 1401TIP3   OH225837   1.597   4.776   8.989  0.0324  0.6452  1.0237
 1401TIP3    H125838   1.527   4.842   8.998 -0.2065  0.5513 -0.0390
 1401TIP3    H225839   1.633   4.791   8.902 -0.0588 -0.6605  0.7437
 1402TIP3   OH225840   4.378   2.219   8.419  0.2473  0.5860  0.0169
 1402TIP3    H125841   4.424   2.184   8.495 -1.5795  1.1721  1.4672
 1402TIP3    H225842   4.349   2.306   8.446 -2.0119  0.0989 -0.6286
 1403TIP3   OH225843   1.924   0.089   2.157 -0.0545 -0.2110 -0.0596
 1403TIP3    H125844   1.865   0.036   2.211 -2.6177  2.0331 -0.4483
 1403TIP3    H225845   1.988   0.125   2.219  0.7331 -2.3063  0.4441
 1404TIP3   OH225846   2.341   4.182   7.147  0.0231 -0.0481  0.2769
 1404TIP3    H125847   2.355   4.158   7.055 -1.4562 -0.2261  0.0683
 1404TIP3    H225848   2.292   4.108   7.183 -0.9929  0.8152  0.7138
 1405TIP3   OH225849   5.170   1.840   7.022  0.2111 -0.0440  0.0773
 1405TIP3    H125850   5.170   1.886   6.938 -0.9950  1.3024  0.7732
 1405TIP3    H225851   5.222   1.762   7.007 -0.0128  0.1609 -1.9265
 1406TIP3   OH225852   4.290   0.180   2.015 -0.1937 -0.0554 -0.2122
 1406TIP3    H125853   4.209   0.224   1.991  1.0639  2.2156 -0.5692
 1406TIP3    H225854   4.303   0.202   2.107  0.5140  0.4625 -0.4284
 1407TIP3   OH225855   3.054   6.695   8.897  0.4858  0.2552  0.6579
 1407TIP3    H125856   3.101   6.653   8.824 -0.2178 -0.6717  0.7221
 1407TIP3    H225857   3.023   6.778   8.860 -0.7832 -0.6720 -0.4634
 1408TIP3   OH225858   1.924   5.214   8.755 -0.0990  0.1894 -0.5713
 1408TIP3    H125859   1.840   5.178   8.780 -0.9721  1.0726 -2.0743
 1408TIP3    H225860   1.968   5.233   8.838 -0.0393 -3.1107  0.3028
 1409TIP3   OH225861   5.492   2.302   0.040  0.2668 -0.4720 -0.2727
 1409TIP3    H125862   5.487   2.242  -0.034 -0.1222 -0.6933 -0.0726
 1409TIP3    H225863   5.440   2.378   0.013  0.7090 -0.2530 -0.5029
 1410TIP3   OH225864   4.911   6.191   2.796 -0.5290  0.4133 -0.4481
 1410TIP3    H125865   4.887   6.133   2.723 -1.1195  0.9741 -0.7026
 1410TIP3    H225866   4.975   6.140   2.846 -3.3014 -1.8583  1.1634
 1411TIP3   OH225867   4.423   1.831   0.407  0.3011  0.5352  0.8516
 1411TIP3    H125868   4.408   1.740   0.431 -0.1765  0.2055 -0.6011
 1411TIP3    H225869   4.360   1.880   0.459 -0.0119 -0.0472  1.0288
 1412TIP3   OH225870   0.751   4.784   0.124  0.1510  0.7210  0.1257
 1412TIP3    H125871   0.841   4.791   0.093  1.1018  0.0884  2.5428
 1412TIP3    H225872   0.704   4.855   0.078  2.8827  4.1516  2.1252
 1413TIP3   OH225873   6.156   2.830   7.498 -0.4208 -0.0601  0.1401
 1413TIP3    H125874   6.247   2.811   7.519 -0.3135 -0.3449 -0.5684
 1413TIP3    H225875   6.123   2.877   7.575  0.4095  0.3367  0.2623
 1414TIP3   OH225876   3.276   3.605   7.805  0.5691 -0.3806  0.1879
 1414TIP3    H125877   3.204   3.560   7.849  0.3451  1.3711  1.7784
 1414TIP3    H225878   3.319   3.655   7.875  0.4840  2.2013 -1.4608
 1415TIP3   OH225879   0.983   1.579   0.716 -0.3461  0.5103  0.1498
 1415TIP3    H125880   0.991   1.575   0.811  0.9656 -1.7915  0.0075
 1415TIP3    H225881   1.062   1.625   0.687  0.4993 -0.9629  0.0636
 1416TIP3   OH225882   4.553   3.095   7.824  0.8257 -0.4609 -0.3427
 1416TIP3    H125883   4.609   3.172   7.837  1.7734 -0.8144 -2.0736
 1416TIP3    H225884   4.609   3.020   7.844  0.5535 -0.7755 -0.7443
 1417TIP3   OH225885   3.882   1.674   2.060  0.7915  0.1391  0.3086
 1417TIP3    H125886   3.797   1.650   2.098  1.2932  0.5524  1.7940
 1417TIP3    H225887   3.863   1.752   2.007  0.2535  0.3043  0.7321
 1418TIP3   OH225888   0.671   6.329   0.286 -0.1037 -0.4599  0.4669
 1418TIP3    H125889   0.691   6.235   0.280  0.5288 -0.3638  0.9230
 1418TIP3    H225890   0.688   6.362   0.198 -2.7793 -1.1940 -0.4279
 1419TIP3   OH225891   3.334   3.856   8.625 -0.0972  0.1650 -0.3987
 1419TIP3    H125892   3.371   3.826   8.708 -0.9383  0.3142  0.0398
 1419TIP3    H225893   3.263   3.795   8.607 -1.0836  1.1761 -0.0778
 1420TIP3   OH225894   1.102   1.950   8.863 -0.5035  0.7640  0.1519
 1420TIP3    H125895   1.017   1.931   8.824 -0.9464  1.2742  0.8561
 1420TIP3    H225896   1.104   2.045   8.873  0.0257  0.7307  0.4220
 1421TIP3   OH225897   1.939   6.103   0.191 -0.7000  0.1172 -0.0937
 1421TIP3    H125898   1.874   6.168   0.218 -0.5344  0.3864 -0.3406
 1421TIP3    H225899   1.888   6.028   0.163 -0.9090  0.3938 -0.4577
 1422TIP3   OH225900   2.764   5.346   6.531  0.1673  0.3173 -0.3857
 1422TIP3    H125901   2.799   5.425   6.570  1.3560 -1.0773  1.5598
 1422TIP3    H225902   2.813   5.336   6.449  0.9766  0.8686  0.0180
 1423TIP3   OH225903   6.049   6.358   0.597  0.3545  0.0593 -0.4681
 1423TIP3    H125904   5.986   6.293   0.630  3.7142 -1.6943  3.3342
 1423TIP3    H225905   6.085   6.318   0.518 -1.6578  0.1273 -1.4898
 1424TIP3   OH225906   1.296   6.018   1.170  0.1043 -0.1971 -0.1693
 1424TIP3    H125907   1.325   5.976   1.251  2.0674  1.7279  0.2351
 1424TIP3    H225908   1.283   6.110   1.194 -1.0579  0.0686 -1.6613
 1425TIP3   OH225909   2.060   4.888   8.238 -0.0181  0.3233 -0.1282
 1425TIP3    H125910   2.033   4.867   8.327  1.2832 -1.2301 -0.0451
 1425TIP3    H225911   2.085   4.804   8.200  2.1161  1.2681 -1.0135
 1426TIP3   OH225912   0.357   6.584   8.462  0.1235  0.2996  0.2919
 1426TIP3    H125913   0.333   6.518   8.527  0.8620  1.3098  1.6318
 1426TIP3    H225914   0.453   6.587   8.465  0.1295  0.9567 -0.2503
 1427TIP3   OH225915   2.739   4.188   7.489  0.2829 -0.2370 -0.6586
 1427TIP3    H125916   2.828   4.224   7.488  0.3795 -0.3586  0.8029
 1427TIP3    H225917   2.696   4.234   7.561  0.2215 -2.4883  0.8554
 1428TIP3   OH225918   0.033   6.470   8.550 -0.1647  0.0232  0.0128
 1428TIP3    H125919   0.068   6.455   8.638  0.5449  1.9447  0.1198
 1428TIP3    H225920  -0.021   6.548   8.559  0.7255  0.8689 -1.4173
 1429TIP3   OH225921   3.326   1.218   7.256  0.2527 -0.0479 -0.0706
 1429TIP3    H125922   3.301   1.201   7.165 -1.6467  1.1067  0.1688
 1429TIP3    H225923   3.283   1.301   7.277  2.4005  0.8084  1.2612
 1430TIP3   OH225924   1.515   4.632   0.209  0.1990  0.9396  0.1814
 1430TIP3    H125925   1.534   4.681   0.129 -0.6294  1.5853  0.3687
 1430TIP3    H225926   1.467   4.693   0.264 -1.0983 -0.1484  0.3103
 1431TIP3   OH225927   5.220   5.930   7.213 -0.2800 -0.0032 -0.7247
 1431TIP3    H125928   5.242   6.022   7.203  2.0092 -0.4208 -0.1521
 1431TIP3    H225929   5.304   5.886   7.220 -1.3317 -2.0052  0.2730
 1432TIP3   OH225930   4.196   5.773   7.570 -0.3223 -0.3013  0.0118
 1432TIP3    H125931   4.111   5.795   7.533 -1.1032 -0.7100  1.5031
 1432TIP3    H225932   4.244   5.733   7.497  0.1394  3.4745 -2.0510
 1433TIP3   OH225933   3.034   1.326   8.729  0.5503  0.0808  0.1187
 1433TIP3    H125934   3.123   1.292   8.742  0.9313  1.2872  0.7029
 1433TIP3    H225935   3.033   1.410   8.773 -0.7552  0.2987 -0.2878
 1434TIP3   OH225936   0.470   4.205   8.671  0.2116 -0.8647 -0.2806
 1434TIP3    H125937   0.398   4.216   8.610 -0.0637  2.5666  0.4522
 1434TIP3    H225938   0.429   4.181   8.754  0.0723 -0.4781 -0.2384
 1435TIP3   OH225939   4.789   0.735   1.444  0.4786  0.4045 -0.5419
 1435TIP3    H125940   4.743   0.688   1.373 -2.9105  1.6516  0.6238
 1435TIP3    H225941   4.786   0.827   1.417 -0.1564  0.7954  0.8016
 1436TIP3   OH225942   3.912   4.331   1.860  0.0370  0.2317 -0.1402
 1436TIP3    H125943   4.001   4.317   1.891  0.4920  0.1534 -1.4368
 1436TIP3    H225944   3.859   4.270   1.911  0.4010  1.6326  2.0352
 1437TIP3   OH225945   1.653   4.515   8.645  0.3166 -0.2956 -0.4154
 1437TIP3    H125946   1.614   4.430   8.625  1.5591 -1.2074  0.8566
 1437TIP3    H225947   1.747   4.498   8.651  0.4748  0.9220  1.0241
 1438TIP3   OH225948   1.485   3.087   8.913 -0.5560  0.4960  0.2388
 1438TIP3    H125949   1.528   3.155   8.964  1.0361 -0.2629 -0.0463
 1438TIP3    H225950   1.500   3.112   8.822 -0.0007 -0.2010  0.1333
 1439TIP3   OH225951   1.613   0.121   2.311 -0.6005 -0.4715 -0.3272
 1439TIP3    H125952   1.671   0.049   2.335 -0.3228 -0.3254 -0.5607
 1439TIP3    H225953   1.670   0.197   2.302 -1.1140  0.2268  1.7475
 1440TIP3   OH225954   6.063   2.767   2.367  0.1997  0.3494 -0.0277
 1440TIP3    H125955   6.093   2.837   2.308  1.5847 -1.7271 -1.9637
 1440TIP3    H225956   5.993   2.723   2.318  0.9432 -1.0250  0.0974
 1441TIP3   OH225957   3.787   1.383   1.788 -0.0964  0.5079 -0.0756
 1441TIP3    H125958   3.855   1.414   1.848  0.0101 -2.1695  1.3758
 1441TIP3    H225959   3.708   1.379   1.842 -0.7762  1.0359 -1.0084
 1442TIP3   OH225960   3.482   4.657   1.555 -0.3664 -0.2471  0.2561
 1442TIP3    H125961   3.425   4.729   1.583 -0.8357 -0.0940 -0.9989
 1442TIP3    H225962   3.547   4.699   1.498  1.1196 -0.3993  1.7727
 1443TIP3   OH225963   1.299   1.503   0.160 -0.2232 -0.0290  0.0021
 1443TIP3    H125964   1.286   1.580   0.104  0.1931  0.3249  0.3819
 1443TIP3    H225965   1.223   1.448   0.143 -1.2657  1.1039  0.7526
 1444TIP3   OH225966   4.375   0.633   1.453 -0.8725  0.0469  0.5291
 1444TIP3    H125967   4.373   0.669   1.364  0.1694  0.0441  0.4938
 1444TIP3    H225968   4.325   0.552   1.447 -0.4140 -0.1955 -0.1784
 1445TIP3   OH225969   1.354   4.010   2.283  0.0876  0.2830 -0.5728
 1445TIP3    H125970   1.299   3.983   2.357 -0.8391 -1.4658 -1.8441
 1445TIP3    H225971   1.293   4.023   2.211  1.1945 -0.4982 -1.6978
 1446TIP3   OH225972   4.166   3.001   1.099  0.0126  0.1648 -0.8150
 1446TIP3    H125973   4.079   3.038   1.114  0.7415  1.7862 -0.3663
 1446TIP3    H225974   4.223   3.078   1.088  1.3314 -0.8671 -1.3908
 1447TIP3   OH225975   6.558   3.604   8.330  0.5238 -0.5483 -0.2872
 1447TIP3    H125976   6.599   3.618   8.245  1.1973 -2.3644 -0.3171
 1447TIP3    H225977   6.620   3.548   8.377  0.0572  0.2404  1.3208
 1448TIP3   OH225978   0.951   4.611   1.539 -0.6000 -1.2310  0.0518
 1448TIP3    H125979   1.017   4.678   1.558  0.2766 -1.9191 -0.4625
 1448TIP3    H225980   0.890   4.653   1.479  0.1968 -1.0172 -0.6250
 1449TIP3   OH225981   1.849   3.835   6.243  0.2750 -0.0355  0.2686
 1449TIP3    H125982   1.937   3.866   6.265 -0.1276  0.3169  1.4097
 1449TIP3    H225983   1.849   3.743   6.269 -0.0989  0.2989  1.4770
 1450TIP3   OH225984   3.775   6.362   0.024 -0.1479  0.2116  0.3869
 1450TIP3    H125985   3.860   6.354   0.069  0.5528  1.5615 -0.6252
 1450TIP3    H225986   3.721   6.294   0.064  1.2539 -0.3664  1.4103
 1451TIP3   OH225987   3.294   6.171   2.290 -0.3119  0.1234 -0.2326
 1451TIP3    H125988   3.223   6.113   2.265 -0.3018  0.0174 -0.0202
 1451TIP3    H225989   3.373   6.130   2.255 -0.5496  1.3065 -2.3247
 1452TIP3   OH225990   2.196   1.516   7.287 -0.5665  0.4251 -0.0922
 1452TIP3    H125991   2.142   1.592   7.267 -0.7306  0.0332 -1.1860
 1452TIP3    H225992   2.281   1.553   7.313 -0.6264  0.9758 -0.6645
 1453TIP3   OH225993   2.799   5.335   7.188  0.5871  0.0669  0.7029
 1453TIP3    H125994   2.890   5.305   7.185  1.0174  1.4436 -0.7350
 1453TIP3    H225995   2.805   5.430   7.186 -0.9070  0.1739  0.5425
 1454TIP3   OH225996   3.156   6.168   1.000  0.0552  0.2984 -0.6606
 1454TIP3    H125997   3.145   6.082   0.960 -1.5535  0.0698  0.1711
 1454TIP3    H225998   3.167   6.149   1.093 -3.1794  1.0224 -0.0231
 1455TIP3   OH225999   1.785   1.257   6.240  0.0883  0.4141  0.4554
 1455TIP3    H126000   1.877   1.231   6.247 -0.2648 -1.3000 -0.6112
 1455TIP3    H226001   1.737   1.175   6.237 -1.3394  1.2317 -0.6867
 1456TIP3   OH226002   5.090   1.594   1.338 -0.4058 -0.7028  0.1662
 1456TIP3    H126003   5.075   1.515   1.285  0.0448 -0.6544 -0.0340
 1456TIP3    H226004   5.019   1.654   1.312  0.3795 -0.2954 -1.1160
 1457TIP3   OH226005   4.236   5.573   7.746  0.9821  0.0278 -0.0207
 1457TIP3    H126006   4.144   5.546   7.745  1.1148 -0.5064  0.8806
 1457TIP3    H226007   4.239   5.648   7.687 -0.0328  0.0423 -0.0817
 1458TIP3   OH226008   3.411   3.713   8.856 -0.4571  0.3716  0.6272
 1458TIP3    H126009   3.496   3.672   8.873 -0.8817  0.0136  2.0919
 1458TIP3    H226010   3.351   3.639   8.846 -0.6508  0.6261 -0.1524
 1459TIP3   OH226011   1.388   3.393   6.802  0.5360 -0.5131  0.4214
 1459TIP3    H126012   1.428   3.330   6.741  3.0308  2.6865 -1.5461
 1459TIP3    H226013   1.302   3.412   6.764  0.8530 -0.7391 -0.4279
 1460TIP3   OH226014   0.306   3.141   8.047 -0.3431 -0.5022  0.0008
 1460TIP3    H126015   0.247   3.147   7.972 -0.2546 -3.4063 -0.4300
 1460TIP3    H226016   0.260   3.085   8.110  1.2092 -1.4266  0.3786
 1461TIP3   OH226017   0.048   3.085   1.483 -0.2564  0.4003  0.3509
 1461TIP3    H126018   0.098   3.162   1.507 -1.3905  2.2042 -2.4908
 1461TIP3    H226019  -0.042   3.104   1.511 -0.1933 -0.9093  1.5692
 1462TIP3   OH226020   2.933   3.535   0.593  0.0674  0.1662 -0.1834
 1462TIP3    H126021   2.934   3.481   0.514 -0.6818  1.7267 -1.3244
 1462TIP3    H226022   2.841   3.561   0.603  0.4384  1.4301  0.1499
 1463TIP3   OH226023   6.018   1.338   1.627  0.2366 -0.2130 -0.1033
 1463TIP3    H126024   6.067   1.278   1.570  0.4115 -0.0916 -0.0817
 1463TIP3    H226025   5.930   1.302   1.629  0.7219 -1.4331  1.2427
 1464TIP3   OH226026   0.723   3.378   1.721  0.1915 -0.2134 -0.1324
 1464TIP3    H126027   0.787   3.350   1.656 -0.5661 -1.1845 -0.4693
 1464TIP3    H226028   0.638   3.369   1.678 -0.1509  2.6580 -0.3026
 1465TIP3   OH226029   1.328   5.743   7.051 -0.1700  0.4137 -0.1122
 1465TIP3    H126030   1.319   5.837   7.038  1.1126  0.3660 -1.5578
 1465TIP3    H226031   1.346   5.708   6.964  1.2386 -0.9201  0.6669
 1466TIP3   OH226032   1.760   0.587   0.847  0.7216 -0.4531  0.2182
 1466TIP3    H126033   1.697   0.550   0.908  1.2479 -1.3499  0.2330
 1466TIP3    H226034   1.732   0.555   0.761 -0.3846  1.3029 -0.1355
 1467TIP3   OH226035   1.066   5.145   1.248 -0.0725  0.7206 -0.1844
 1467TIP3    H126036   1.065   5.184   1.160  1.3264 -0.9266 -0.9827
 1467TIP3    H226037   1.014   5.065   1.240  1.2756 -0.2105  0.0623
 1468TIP3   OH226038   2.096   4.297   7.995  0.2790  0.1674 -0.4793
 1468TIP3    H126039   2.154   4.343   7.935  1.4162 -1.8054 -0.9746
 1468TIP3    H226040   2.018   4.278   7.943  0.7958 -0.5359 -1.0177
 1469TIP3   OH226041   4.673   2.085   0.543 -0.0974 -0.1654  0.5351
 1469TIP3    H126042   4.631   2.091   0.457 -0.8952  0.7171  0.9619
 1469TIP3    H226043   4.601   2.064   0.603  0.3317 -0.0979  1.0766
 1470TIP3   OH226044   0.961   3.119   0.947  0.0869 -0.3387  0.9056
 1470TIP3    H126045   1.033   3.151   0.892  2.5953 -2.1385  2.8984
 1470TIP3    H226046   0.933   3.038   0.905 -0.2129 -0.0767  0.5920
 1471TIP3   OH226047   1.005   6.385   7.513 -0.4579 -0.7399 -0.0645
 1471TIP3    H126048   0.985   6.296   7.541 -1.2684 -0.5769 -0.0959
 1471TIP3    H226049   0.928   6.436   7.538 -0.0248 -0.0534 -0.0894
 1472TIP3   OH226050   4.662   4.663   0.959 -0.1752  0.0822  0.3377
 1472TIP3    H126051   4.604   4.588   0.973 -2.0342  1.1025 -1.3194
 1472TIP3    H226052   4.708   4.643   0.877 -0.3881  0.5435  0.0991
 1473TIP3   OH226053   6.455   6.519   0.560 -0.3017  0.3252  0.0213
 1473TIP3    H126054   6.533   6.516   0.616  0.4775 -0.2668 -1.0729
 1473TIP3    H226055   6.392   6.462   0.605  0.1836  0.1420  0.4835
 1474TIP3   OH226056   1.957   1.903   8.148  0.3635  0.0260  0.0708
 1474TIP3    H126057   1.891   1.865   8.205 -0.7345  0.6011 -0.7759
 1474TIP3    H226058   1.984   1.831   8.091 -1.2568  0.3012 -1.1185
 1475TIP3   OH226059   0.184   4.102   7.274  0.0908  0.6050  0.1032
 1475TIP3    H126060   0.244   4.031   7.298  1.3556  1.0026 -1.6821
 1475TIP3    H226061   0.108   4.057   7.237 -0.0529  0.1527  0.9042
 1476TIP3   OH226062   0.864   4.728   7.918  0.3284 -0.0141  0.4727
 1476TIP3    H126063   0.905   4.703   8.001 -0.2630 -0.1609  0.7205
 1476TIP3    H226064   0.810   4.804   7.939  0.4103  0.1350  0.1563
 1477TIP3   OH226065   6.734   0.953   1.596 -0.5506  0.2152  0.5901
 1477TIP3    H126066   6.776   0.907   1.524 -1.2797  1.4204 -0.6396
 1477TIP3    H226067   6.667   0.892   1.628  0.5091 -0.7634  1.0215
 1478TIP3   OH226068   1.491   5.461   0.352  0.6366  0.1094  0.4040
 1478TIP3    H126069   1.482   5.365   0.347 -0.5592  0.2526 -0.9739
 1478TIP3    H226070   1.584   5.477   0.336  0.7234 -0.8053 -0.0897
 1479TIP3   OH226071   5.071   5.801   8.032  0.3023  0.6520  0.0087
 1479TIP3    H126072   5.142   5.765   7.979 -0.9241  1.6640 -2.4494
 1479TIP3    H226073   5.008   5.835   7.969 -2.0646  0.4514  2.1087
 1480TIP3   OH226074   3.554   1.506   6.229 -0.5305  0.2529 -0.7643
 1480TIP3    H126075   3.643   1.478   6.252 -0.8791  0.1563  0.4957
 1480TIP3    H226076   3.507   1.511   6.312 -1.9419 -0.4744 -1.4756
 1481TIP3   OH226077   3.295   4.128   0.539  0.0865 -0.2628  0.0368
 1481TIP3    H126078   3.210   4.109   0.577  0.6869  2.0290  2.8707
 1481TIP3    H226079   3.358   4.102   0.606  1.3723  1.3907 -0.4522
 1482TIP3   OH226080   3.211   0.124   2.328 -0.2005 -0.2824  0.0830
 1482TIP3    H126081   3.290   0.119   2.381  0.1859  0.3964 -0.4092
 1482TIP3    H226082   3.141   0.146   2.389  0.0049 -0.8017  0.5068
 1483TIP3   OH226083   4.200   0.510   8.285 -0.2381  0.1741  0.1315
 1483TIP3    H126084   4.218   0.455   8.360 -0.2970  1.0868  0.8330
 1483TIP3    H226085   4.229   0.459   8.209  1.0079 -0.2415  0.8749
 1484TIP3   OH226086   0.715   2.551   7.433  0.5459  0.1192  0.1732
 1484TIP3    H126087   0.739   2.638   7.402  1.7538 -0.5048 -0.7255
 1484TIP3    H226088   0.780   2.531   7.501  0.1805 -0.0168  0.4842
 1485TIP3   OH226089   2.190   6.567   1.735  0.3131  0.1976  0.6670
 1485TIP3    H126090   2.192   6.492   1.675 -0.9344 -0.6396  1.6145
 1485TIP3    H226091   2.171   6.642   1.679 -3.2904 -0.8765  0.1662
 1486TIP3   OH226092   4.258   6.242   8.049  0.4826  0.4143 -0.0074
 1486TIP3    H126093   4.210   6.324   8.035  0.8864  0.8277  0.9017
 1486TIP3    H226094   4.236   6.216   8.138  0.1050 -0.6561 -0.3987
 1487TIP3   OH226095   4.891   1.868   1.645 -0.2016  0.5150 -0.2759
 1487TIP3    H126096   4.848   1.883   1.561  0.5297  0.1733 -0.7263
 1487TIP3    H226097   4.820   1.854   1.707 -0.7874  1.6948 -0.6417
 1488TIP3   OH226098   1.295   3.393   0.011 -0.1794  0.1470 -0.5125
 1488TIP3    H126099   1.356   3.427   0.076 -1.5570  0.4473  0.6545
 1488TIP3    H226100   1.313   3.444  -0.068  3.1101 -1.7572 -1.2104
 1489TIP3   OH226101   3.647   2.533   7.563  0.1697 -0.5443  0.3459
 1489TIP3    H126102   3.582   2.464   7.550  0.6589 -0.7690 -1.2252
 1489TIP3    H226103   3.615   2.584   7.637 -2.8144  0.5047 -1.4974
 1490TIP3   OH226104   0.898   5.801   7.497 -0.4964  0.2176 -0.0442
 1490TIP3    H126105   0.897   5.868   7.566 -1.0533  1.1839 -0.9706
 1490TIP3    H226106   0.843   5.730   7.532 -2.7887  1.6955 -0.4264
 1491TIP3   OH226107   1.785   2.596   8.689 -0.0115  0.0580  0.2844
 1491TIP3    H126108   1.878   2.616   8.691 -0.2230  1.2437 -0.6254
 1491TIP3    H226109   1.778   2.519   8.631  0.2882  0.7631 -0.7165
 1492TIP3   OH226110   2.609   2.397   1.165 -0.4335 -0.1564  0.2530
 1492TIP3    H126111   2.652   2.482   1.169  1.0998 -0.9410  1.3748
 1492TIP3    H226112   2.543   2.407   1.096  0.9604  1.3615 -0.9522
 1493TIP3   OH226113   2.869   5.363   7.956 -0.1552 -0.3997  0.0471
 1493TIP3    H126114   2.946   5.415   7.932 -1.7770  2.2185  0.1414
 1493TIP3    H226115   2.904   5.277   7.978  2.6815  0.5708 -0.2809
 1494TIP3   OH226116   3.745   1.326   8.195 -0.2562 -0.4715 -0.3011
 1494TIP3    H126117   3.809   1.261   8.224  0.2620  0.7452  1.4239
 1494TIP3    H226118   3.694   1.281   8.127  0.7896 -2.2872  0.0598
 1495TIP3   OH226119   2.632   5.376   7.806 -0.3864 -0.0807  0.5056
 1495TIP3    H126120   2.566   5.315   7.837  1.7656 -4.4190 -2.4369
 1495TIP3    H226121   2.708   5.360   7.862  0.9462 -2.0849 -1.7098
 1496TIP3   OH226122   6.526   1.256   0.279 -0.1554  0.5157 -0.5391
 1496TIP3    H126123   6.586   1.261   0.204  0.2158  1.1692 -0.2106
 1496TIP3    H226124   6.548   1.174   0.322  0.6738  0.8599 -0.2867
 1497TIP3   OH226125   4.940   4.038   0.927  0.4247  0.0259  0.3039
 1497TIP3    H126126   5.009   4.104   0.923  1.0933 -0.6217  0.7801
 1497TIP3    H226127   4.882   4.060   0.854  1.4863  0.2042 -0.5273
 1498TIP3   OH226128   6.198   2.134   2.360 -0.3417 -0.1003 -0.1141
 1498TIP3    H126129   6.114   2.174   2.336 -0.3022  0.3316  0.4505
 1498TIP3    H226130   6.242   2.200   2.413 -0.5721 -1.1468  1.4283
 1499TIP3   OH226131   2.758   6.622   7.869  0.0364 -0.0062 -0.4151
 1499TIP3    H126132   2.690   6.561   7.841  1.5397 -1.7259 -0.4692
 1499TIP3    H226133   2.755   6.618   7.965  1.9060 -2.3691 -0.3588
 1500TIP3   OH226134   0.705   2.246   0.804 -0.2682 -0.8171 -0.5422
 1500TIP3    H126135   0.781   2.227   0.750  0.3513 -0.7177  0.2679
 1500TIP3    H226136   0.705   2.176   0.870 -0.8995 -0.8336 -0.5541
 1501TIP3   OH226137   0.125   5.394   8.629  0.1511  0.0712  0.3970
 1501TIP3    H126138   0.042   5.381   8.582  0.6794  0.7067 -0.7592
 1501TIP3    H226139   0.175   5.315   8.612  0.9217  0.8740 -1.4361
 1502TIP3   OH226140   1.135   1.075   7.353 -0.4146 -0.3777  0.3723
 1502TIP3    H126141   1.120   1.169   7.361 -0.2396 -0.4355  1.6205
 1502TIP3    H226142   1.137   1.058   7.259  3.4056  1.5098 -0.0712
 1503TIP3   OH226143   1.456   1.791   7.720  0.0833  0.0559  0.0734
 1503TIP3    H126144   1.507   1.810   7.641  0.3334 -0.5464  0.0869
 1503TIP3    H226145   1.381   1.741   7.689  0.5044 -0.7235  0.2831
 1504TIP3   OH226146   2.855   3.386   7.353  0.3263 -0.2814  0.0492
 1504TIP3    H126147   2.912   3.374   7.429 -0.8925 -1.2712  0.8570
 1504TIP3    H226148   2.869   3.308   7.300 -1.1921 -1.1989  0.9198
 1505TIP3   OH226149   1.401   0.260   8.923 -0.0095  0.1894 -0.4127
 1505TIP3    H126150   1.439   0.292   9.004  0.2404  0.3148 -0.5761
 1505TIP3    H226151   1.461   0.291   8.855  1.0722 -1.8423 -0.4772
 1506TIP3   OH226152   3.362   6.175   8.276 -0.1435  0.2319  0.0168
 1506TIP3    H126153   3.421   6.194   8.204  1.7495 -2.3713  0.7283
 1506TIP3    H226154   3.283   6.141   8.234  0.6605 -0.5996 -0.8645
 1507TIP3   OH226155   2.971   3.329   7.600 -0.2794  0.3857 -0.0257
 1507TIP3    H126156   2.892   3.333   7.654 -0.3801  0.7509 -0.1964
 1507TIP3    H226157   2.997   3.237   7.602  0.8019  0.6868  2.2111
 1508TIP3   OH226158   6.288   6.370   0.708  0.0071 -0.0259 -0.1868
 1508TIP3    H126159   6.208   6.381   0.658  0.4975 -0.0661 -0.9962
 1508TIP3    H226160   6.261   6.323   0.787 -0.8171  0.2596 -0.2931
 1509TIP3   OH226161   4.998   4.187   7.907 -0.1270 -0.3125  0.1987
 1509TIP3    H126162   4.912   4.196   7.865 -0.9149 -0.9784  1.5844
 1509TIP3    H226163   4.992   4.241   7.985  0.1694 -1.5334  1.0888
 1510TIP3   OH226164   6.586   0.340   2.767 -0.6244  0.0140 -0.1115
 1510TIP3    H126165   6.667   0.390   2.774 -0.6194 -0.0322  0.1705
 1510TIP3    H226166   6.519   0.406   2.749 -0.4535 -0.0024 -0.8473
 1511TIP3   OH226167   4.276   2.073   8.901 -0.5618  0.5994 -0.1183
 1511TIP3    H126168   4.180   2.078   8.895 -0.5172  1.5062 -0.1684
 1511TIP3    H226169   4.308   2.121   8.825 -0.0654  0.9166  0.2852
 1512TIP3   OH226170   0.858   2.863   1.328 -0.3181  0.3060  0.2640
 1512TIP3    H126171   0.810   2.938   1.294 -1.4949 -0.5912 -0.1690
 1512TIP3    H226172   0.861   2.877   1.423  1.2281  1.8453  0.0262
 1513TIP3   OH226173   4.497   6.678   7.861 -0.3117  1.0043  0.0104
 1513TIP3    H126174   4.410   6.705   7.833 -0.2724  1.5379  0.3895
 1513TIP3    H226175   4.512   6.726   7.942 -0.0933  0.1075  0.5150
 1514TIP3   OH226176   5.065   6.590   8.979 -0.5697  0.1188  0.4946
 1514TIP3    H126177   5.072   6.540   8.898 -0.5106  0.7604  0.0970
 1514TIP3    H226178   4.995   6.547   9.028 -0.6907 -0.1962  0.0483
 1515TIP3   OH226179   5.741   3.441   2.477 -0.0472  0.4120  0.4533
 1515TIP3    H126180   5.823   3.392   2.483 -0.6985 -0.7970 -0.2150
 1515TIP3    H226181   5.716   3.458   2.568 -0.3795 -1.5062  0.7535
 1516TIP3   OH226182   3.464   4.228   8.950  0.1913 -0.0198 -0.1313
 1516TIP3    H126183   3.486   4.155   9.007  0.3826  0.1585  0.0241
 1516TIP3    H226184   3.480   4.196   8.861 -0.2923 -0.3628 -0.0983
 1517TIP3   OH226185   3.933   4.630   2.539 -0.1282 -0.3354  0.1363
 1517TIP3    H126186   3.958   4.539   2.520  2.6877  0.1665  0.9382
 1517TIP3    H226187   3.990   4.655   2.612 -1.0556  1.9916  0.1178
 1518TIP3   OH226188   1.349   1.581   0.727  0.1576  0.1955  0.3845
 1518TIP3    H126189   1.282   1.643   0.698 -0.5814 -0.4456  0.6785
 1518TIP3    H226190   1.340   1.507   0.668  1.7723  0.7805 -0.6633
 1519TIP3   OH226191   0.549   5.205   7.924 -0.2003 -0.2198 -0.3124
 1519TIP3    H126192   0.548   5.241   7.835  0.6127 -0.3083 -0.3596
 1519TIP3    H226193   0.457   5.202   7.949 -0.3635  1.0105 -0.6703
 1520TIP3   OH226194   1.956   0.902   6.798  0.2857 -0.3026  0.1138
 1520TIP3    H126195   2.018   0.911   6.870 -1.5968 -1.5290  2.0302
 1520TIP3    H226196   2.008   0.867   6.726  2.0145 -0.3315  1.3024
 1521TIP3   OH226197   2.084   3.253   7.558  0.3628  0.1927 -0.2122
 1521TIP3    H126198   2.086   3.162   7.528  0.1838  0.3085 -0.5816
 1521TIP3    H226199   2.169   3.289   7.532 -0.0179  0.4618 -1.1343
 1522TIP3   OH226200   6.337   4.032   7.212  0.2964  0.0824  0.1017
 1522TIP3    H126201   6.314   4.046   7.120 -0.0471  0.8111  0.2860
 1522TIP3    H226202   6.298   3.948   7.235  0.6165 -0.2339 -0.4879
 1523TIP3   OH226203   4.637   1.201   8.722 -0.0254  0.2574 -0.0254
 1523TIP3    H126204   4.582   1.274   8.749  1.1984  1.8244 -1.5134
 1523TIP3    H226205   4.723   1.241   8.705  0.9974 -1.7269  0.1799
 1524TIP3   OH226206   2.744   2.174   1.260 -0.1552  0.6900 -0.2765
 1524TIP3    H126207   2.700   2.252   1.225 -0.8066  0.8798  0.9090
 1524TIP3    H226208   2.820   2.209   1.307  0.1463  0.5161 -0.6278
 1525TIP3   OH226209   1.068   4.113   8.528 -0.4145  0.6249 -1.0423
 1525TIP3    H126210   1.035   4.181   8.471 -3.3370  0.0122 -0.2523
 1525TIP3    H226211   1.095   4.159   8.608  1.3428  1.2007 -1.9222
 1526TIP3   OH226212   4.222   1.157   2.460  0.3228  0.0964  0.4113
 1526TIP3    H126213   4.308   1.121   2.482 -0.1381 -1.6215 -0.4431
 1526TIP3    H226214   4.229   1.250   2.482  3.3469  0.6396 -2.0890
 1527TIP3   OH226215   2.380   4.673   8.719  0.1953 -0.1829  0.3296
 1527TIP3    H126216   2.422   4.731   8.656 -0.3536 -0.4732 -0.3078
 1527TIP3    H226217   2.416   4.586   8.699 -0.5453 -0.4003 -0.0886
 1528TIP3   OH226218   5.131   1.804   7.299  0.4997 -0.5786 -0.1145
 1528TIP3    H126219   5.143   1.828   7.207  0.3928 -1.8114 -0.4686
 1528TIP3    H226220   5.197   1.855   7.346 -0.0206  0.7278 -0.7576
 1529TIP3   OH226221   1.385   6.642   1.131  0.0620  0.5575 -0.0719
 1529TIP3    H126222   1.408   6.589   1.055  2.1427 -2.5528  2.4932
 1529TIP3    H226223   1.455   6.707   1.137  1.1615 -0.6355  0.4063
 1530TIP3   OH226224   1.704   5.690   1.795 -0.1405 -0.7468 -0.0391
 1530TIP3    H126225   1.712   5.685   1.890 -1.0744 -0.6788  0.0479
 1530TIP3    H226226   1.674   5.602   1.769 -0.9850 -0.4316 -0.1497
 1531TIP3   OH226227   4.855   3.849   0.153 -0.2058  0.0086  0.0947
 1531TIP3    H126228   4.782   3.888   0.202  0.6655  0.8849  0.7502
 1531TIP3    H226229   4.901   3.925   0.115  0.5574 -0.4954 -0.0147
 1532TIP3   OH226230   6.185   1.815   7.783 -0.1175 -0.4058 -0.0083
 1532TIP3    H126231   6.235   1.896   7.772  0.3993 -0.7444 -0.2182
 1532TIP3    H226232   6.103   1.831   7.737 -0.5075  0.4160  0.9470
 1533TIP3   OH226233   5.785   6.392   1.863  0.3064 -0.1893 -0.1285
 1533TIP3    H126234   5.797   6.340   1.784  0.3970 -0.3974  0.0234
 1533TIP3    H226235   5.711   6.352   1.909 -0.5124  0.6370 -0.6865
 1534TIP3   OH226236   3.551   6.354   1.990 -0.0381  0.5168 -0.6716
 1534TIP3    H126237   3.502   6.294   1.935 -0.7970  0.8704 -0.3946
 1534TIP3    H226238   3.488   6.385   2.055  0.9345 -0.2365  0.7026
 1535TIP3   OH226239   3.442   0.575   6.753  0.0466  0.2800 -0.0433
 1535TIP3    H126240   3.426   0.522   6.675 -1.4254 -1.1994  1.1654
 1535TIP3    H226241   3.355   0.596   6.786  0.3941 -2.4954  3.2953
 1536TIP3   OH226242   3.994   0.419   1.183 -0.5629  0.2382 -0.0201
 1536TIP3    H126243   3.959   0.457   1.102  1.2560  0.0368 -0.9476
 1536TIP3    H226244   4.021   0.494   1.235 -1.0372  0.3434  0.0803
 1537TIP3   OH226245   2.402   5.982   0.233 -1.1879  0.2085 -0.2779
 1537TIP3    H126246   2.443   6.057   0.275 -3.1487  1.5552 -0.6179
 1537TIP3    H226247   2.422   5.908   0.290 -1.7437  1.5350  1.7416
 1538TIP3   OH226248   3.367   1.465   1.315 -0.5930 -0.0020 -0.2869
 1538TIP3    H126249   3.392   1.539   1.372  1.1223 -0.2243 -0.6955
 1538TIP3    H226250   3.425   1.472   1.239 -0.1551 -1.9286 -0.1971
 1539TIP3   OH226251   2.923   1.469   8.981 -0.2605  0.8000  0.1567
 1539TIP3    H126252   2.885   1.412   9.048  0.2679 -0.0211 -0.2244
 1539TIP3    H226253   2.848   1.496   8.927 -0.4893  0.3229  0.2338
 1540TIP3   OH226254   1.377   1.472   1.507  0.4451 -0.1012 -0.0328
 1540TIP3    H126255   1.336   1.531   1.444  1.4282 -0.5196 -1.1017
 1540TIP3    H226256   1.463   1.512   1.524  0.2180 -0.0375  0.9885
 1541TIP3   OH226257   2.104   4.690   8.780 -0.1765  0.0381 -0.1416
 1541TIP3    H126258   2.188   4.659   8.746 -0.1565  0.3832 -0.4096
 1541TIP3    H226259   2.086   4.633   8.855 -0.2863 -0.8204 -0.8077
 1542TIP3   OH226260   3.090   5.187   8.197 -0.0727 -0.2487  0.1536
 1542TIP3    H126261   3.001   5.173   8.229 -0.1522 -1.0140 -0.3928
 1542TIP3    H226262   3.137   5.221   8.273 -0.6899 -0.3752  0.6046
 1543TIP3   OH226263   1.787   1.469   1.448 -0.5126 -0.3730  0.0342
 1543TIP3    H126264   1.878   1.476   1.420 -1.0387 -0.7174 -1.9623
 1543TIP3    H226265   1.739   1.520   1.382 -1.7251  0.1778  1.3047
 1544TIP3   OH226266   3.112   4.060   1.468  0.3255  0.3122 -0.0285
 1544TIP3    H126267   3.106   4.123   1.541 -0.7211 -1.3331  1.3984
 1544TIP3    H226268   3.022   4.032   1.453  0.8883 -2.1451  0.6296
 1545TIP3   OH226269   6.402   4.753   0.697  0.1724  0.2877 -0.0334
 1545TIP3    H126270   6.481   4.783   0.650 -0.4564  1.4219 -0.3997
 1545TIP3    H226271   6.363   4.833   0.731 -1.7791 -0.0366 -1.3502
 1546TIP3   OH226272   5.961   3.471   0.618  0.1749 -0.2560  0.7000
 1546TIP3    H126273   5.898   3.432   0.678  0.5711  0.0230  1.3064
 1546TIP3    H226274   5.955   3.418   0.538 -0.6343 -0.3833  0.8440
 1547TIP3   OH226275   5.510   4.424   6.741 -0.2521 -0.2063  0.7752
 1547TIP3    H126276   5.425   4.445   6.701 -0.6555 -0.6570  1.3749
 1547TIP3    H226277   5.559   4.506   6.739 -1.2199  0.4101  1.6933
 1548TIP3   OH226278   0.305   2.497   8.635  0.3009 -0.1736  0.5077
 1548TIP3    H126279   0.265   2.473   8.718 -1.3014 -0.9283 -0.4404
 1548TIP3    H226280   0.234   2.492   8.571  0.6038  3.6914 -0.4058
 1549TIP3   OH226281   2.811   6.357   7.994  0.0379 -0.1445  0.4463
 1549TIP3    H126282   2.784   6.284   7.938 -1.1188 -0.2902  1.1434
 1549TIP3    H226283   2.742   6.361   8.061  1.2116  0.2159  1.6636
 1550TIP3   OH226284   0.942   0.084   0.669 -0.8113  0.0081 -0.0853
 1550TIP3    H126285   0.946   0.175   0.641 -0.6862  0.1812  0.4677
 1550TIP3    H226286   0.971   0.034   0.593  0.5648  0.5281  0.0612
 1551TIP3   OH226287   6.174   6.693   1.436 -0.4580 -0.6992 -0.2685
 1551TIP3    H126288   6.108   6.631   1.469 -1.9302 -0.4585 -2.5440
 1551TIP3    H226289   6.124   6.763   1.395  1.1537 -0.7343 -2.5278
 1552TIP3   OH226290   1.828   6.417   1.915 -0.1546  0.2963 -0.1965
 1552TIP3    H126291   1.885   6.345   1.890 -0.4392 -0.0726  0.2214
 1552TIP3    H226292   1.741   6.391   1.884 -0.0213  1.0908 -1.3093
 1553TIP3   OH226293   0.196   6.592   2.798 -0.1436  0.4022  0.2386
 1553TIP3    H126294   0.184   6.518   2.739 -0.4760 -0.7092  1.6382
 1553TIP3    H226295   0.110   6.605   2.838  0.2741  0.5634  1.0998
 1554TIP3   OH226296   2.621   3.291   0.108 -0.1950 -0.2305  0.3912
 1554TIP3    H126297   2.644   3.217   0.164  0.3498 -0.3675  0.0051
 1554TIP3    H226298   2.676   3.279   0.030 -0.9271 -0.0481 -0.1703
 1555TIP3   OH226299   5.940   1.722   8.550  0.3093  0.1181  0.0859
 1555TIP3    H126300   6.032   1.709   8.572  0.4037 -1.7575 -1.1765
 1555TIP3    H226301   5.941   1.769   8.467  0.0887  0.5791  0.3344
 1556TIP3   OH226302   4.009   2.175   7.356 -0.0283  0.6842  0.1263
 1556TIP3    H126303   4.085   2.198   7.408 -0.3752 -0.3441  1.1186
 1556TIP3    H226304   3.936   2.176   7.418 -0.7857  1.3019 -0.7332
 1557TIP3   OH226305   5.274   0.769   8.557 -0.1389 -0.7932  0.0365
 1557TIP3    H126306   5.307   0.858   8.568 -3.4021  0.4416  0.8047
 1557TIP3    H226307   5.234   0.768   8.470  0.0534 -1.5968 -0.0546
 1558TIP3   OH226308   1.348   1.069   7.679 -0.2249 -0.3096  0.4283
 1558TIP3    H126309   1.403   1.011   7.731  1.6705  1.7080  0.8296
 1558TIP3    H226310   1.390   1.073   7.593  0.1918  1.0904  0.6701
 1559TIP3   OH226311   3.290   3.475   0.088 -0.5700  0.5884  0.8288
 1559TIP3    H126312   3.363   3.526   0.122 -0.5187  1.2305 -0.1778
 1559TIP3    H226313   3.287   3.397   0.142  0.5648  0.7764  1.1847
 1560TIP3   OH226314   1.397   4.586   7.144 -0.0108  0.3814 -0.2092
 1560TIP3    H126315   1.442   4.547   7.220 -1.3613 -0.0721  0.3906
 1560TIP3    H226316   1.347   4.513   7.107 -4.2207  1.7638  2.1169
 1561TIP3   OH226317   3.103   4.496   8.210 -0.4408  0.0531 -0.1883
 1561TIP3    H126318   3.162   4.569   8.194  0.2936 -0.6602 -0.7938
 1561TIP3    H226319   3.019   4.537   8.232  0.5423  1.1121  1.8757
 1562TIP3   OH226320   1.019   4.287   7.835  0.2968  0.4185  0.0619
 1562TIP3    H126321   1.062   4.294   7.749  1.4300 -2.3263  0.3031
 1562TIP3    H226322   0.931   4.322   7.820  0.4642  0.0273 -2.2321
 1563TIP3   OH226323   6.644   4.013   0.947 -0.1114  0.1999  0.0302
 1563TIP3    H126324   6.610   3.948   0.886  0.5954 -1.3735  1.2126
 1563TIP3    H226325   6.575   4.023   1.012  0.0963 -0.0079  0.2885
 1564TIP3   OH226326   0.047   3.422   1.285 -0.6693 -0.0179  0.1831
 1564TIP3    H126327  -0.016   3.359   1.319  1.2730 -2.0465  0.2433
 1564TIP3    H226328   0.053   3.490   1.352 -1.6609 -0.5671  0.8466
 1565TIP3   OH226329   0.391   2.235   7.417 -0.4865  0.4029  0.1254
 1565TIP3    H126330   0.341   2.239   7.498  0.1314 -1.1123  0.6144
 1565TIP3    H226331   0.482   2.232   7.445 -0.1382  1.7918 -0.7165
 1566TIP3   OH226332   2.871   6.623   1.560  0.0269  0.4302  0.7115
 1566TIP3    H126333   2.794   6.675   1.583  1.7239  2.5740  1.9829
 1566TIP3    H226334   2.901   6.586   1.643 -0.1465 -1.2121  0.0783
 1567TIP3   OH226335   4.270   0.416   6.583 -0.1121  0.7882  1.2245
 1567TIP3    H126336   4.341   0.478   6.567 -1.8229  1.9562 -3.6018
 1567TIP3    H226337   4.195   0.472   6.605 -0.9452  0.2460 -0.1187
 1568TIP3   OH226338   4.199   0.604   0.605 -0.3199  0.2091 -0.4207
 1568TIP3    H126339   4.231   0.666   0.670 -3.0107 -0.7551  2.0127
 1568TIP3    H226340   4.105   0.619   0.601 -0.8283 -2.5410 -1.0164
 1569TIP3   OH226341   3.614   0.717   1.316 -0.6098  0.2005 -0.0426
 1569TIP3    H126342   3.703   0.718   1.353 -0.0115 -1.6781 -1.2631
 1569TIP3    H226343   3.575   0.800   1.344  0.6160 -0.0366  2.7062
 1570TIP3   OH226344   4.347   4.508   8.626 -0.3274  0.4050 -0.2187
 1570TIP3    H126345   4.441   4.494   8.611 -0.2969  1.7130 -1.4631
 1570TIP3    H226346   4.343   4.584   8.685 -0.6007  0.1808  0.0529
 1571TIP3   OH226347   6.418   5.658   0.489  0.0161 -0.4856 -0.0414
 1571TIP3    H126348   6.411   5.753   0.475  0.4545 -0.8531 -3.6865
 1571TIP3    H226349   6.486   5.649   0.555  0.0586  1.7446  0.3193
 1572TIP3   OH226350   0.663   2.810   6.693  0.3487 -0.2617 -0.3511
 1572TIP3    H126351   0.714   2.827   6.772  0.3799 -0.1746 -0.3896
 1572TIP3    H226352   0.582   2.859   6.706  0.7333  0.5111 -0.7742
 1573TIP3   OH226353   3.375   2.965   0.214  0.5252  0.2644  0.1590
 1573TIP3    H126354   3.343   2.881   0.248  1.0270  0.5036  1.2747
 1573TIP3    H226355   3.465   2.947   0.188  0.1465  0.0818 -1.1342
 1574TIP3   OH226356   5.799   6.027   2.095 -0.3295 -0.2560 -0.7470
 1574TIP3    H126357   5.836   6.062   2.014 -0.8294 -0.4250 -1.0524
 1574TIP3    H226358   5.770   6.104   2.144 -0.9881 -0.2010 -1.2031
 1575TIP3   OH226359   5.652   2.817   8.787 -0.5141  0.0712 -0.2251
 1575TIP3    H126360   5.578   2.850   8.838 -0.2250  0.0837  0.1902
 1575TIP3    H226361   5.691   2.895   8.748 -0.8395  0.0452 -0.6190
 1576TIP3   OH226362   1.313   1.069   8.622 -0.0337 -0.1008  0.2567
 1576TIP3    H126363   1.361   1.008   8.567 -0.5442  0.2011 -0.5279
 1576TIP3    H226364   1.355   1.060   8.708  0.0394 -1.3826  0.1118
 1577TIP3   OH226365   2.412   1.646   7.396  0.1242  0.0682 -0.8724
 1577TIP3    H126366   2.428   1.605   7.481 -1.9469  0.1570 -0.3858
 1577TIP3    H226367   2.377   1.733   7.418 -0.1597  0.1969 -1.8070
 1578TIP3   OH226368   4.415   0.472   0.178 -0.1559 -0.0612 -0.0135
 1578TIP3    H126369   4.398   0.493   0.086 -1.5729 -1.2798 -0.0654
 1578TIP3    H226370   4.329   0.458   0.216  0.3993  0.5178  1.5511
 1579TIP3   OH226371   5.641   0.529   1.245  0.2940 -0.5551  0.2350
 1579TIP3    H126372   5.701   0.602   1.260  1.2554 -1.3417  0.2343
 1579TIP3    H226373   5.620   0.534   1.152 -1.2771  0.9316  0.5902
 1580TIP3   OH226374   2.345   5.225   7.550 -0.1544  0.6945  0.0907
 1580TIP3    H126375   2.283   5.167   7.507 -1.9957  2.4444  0.2137
 1580TIP3    H226376   2.397   5.262   7.479  1.6950 -1.6910  0.0841
 1581TIP3   OH226377   3.696   2.500   8.911  0.6449 -0.3491 -0.1850
 1581TIP3    H126378   3.753   2.478   8.838  0.8785  0.7073 -0.3436
 1581TIP3    H226379   3.722   2.589   8.936 -1.5087  0.5259 -0.8558
 1582TIP3   OH226380   1.949   4.593   0.352  0.4971  0.2509  0.4172
 1582TIP3    H126381   1.953   4.504   0.388  0.6708  0.2113  0.3029
 1582TIP3    H226382   1.896   4.584   0.273 -1.0745  0.5874  1.3829
 1583TIP3   OH226383   5.376   2.519   7.454  0.3862 -0.0963 -0.0847
 1583TIP3    H126384   5.382   2.609   7.484  0.0921 -0.3201  0.6517
 1583TIP3    H226385   5.425   2.518   7.371  1.6405  0.4161  0.6317
 1584TIP3   OH226386   5.924   4.577   1.246 -0.1240  0.1800  0.1037
 1584TIP3    H126387   5.955   4.495   1.283  0.9369 -0.2224 -1.5694
 1584TIP3    H226388   6.003   4.623   1.220 -0.7692  1.0227 -0.4410
 1585TIP3   OH226389   0.592   5.709   7.822  0.1006  0.3122  0.3431
 1585TIP3    H126390   0.526   5.749   7.878 -0.9165 -1.3601  0.4068
 1585TIP3    H226391   0.675   5.721   7.869 -0.7480 -1.1996  2.3321
 1586TIP3   OH226392   3.385   1.862   8.113  0.2124  0.2170  0.1125
 1586TIP3    H126393   3.392   1.956   8.099  1.1694 -0.0383 -1.3918
 1586TIP3    H226394   3.456   1.824   8.060  0.1115 -1.3190  1.0153
 1587TIP3   OH226395   1.899   2.307   7.479 -0.1141  0.5026  0.0713
 1587TIP3    H126396   1.835   2.327   7.411  0.7204 -0.5197 -1.0770
 1587TIP3    H226397   1.952   2.236   7.442  0.4617 -0.0010  1.7505
 1588TIP3   OH226398   5.088   5.284   2.067  0.0387 -0.2081 -0.2306
 1588TIP3    H126399   5.176   5.251   2.087  0.9487  2.2154  0.0494
 1588TIP3    H226400   5.047   5.295   2.153  0.2219  0.5815 -0.2389
 1589TIP3   OH226401   3.962   5.186   0.951  0.3455 -0.5038  0.3587
 1589TIP3    H126402   3.938   5.250   0.884  1.6501 -0.3455  0.0089
 1589TIP3    H226403   4.017   5.236   1.012  1.1187 -1.2033  0.2527
 1590TIP3   OH226404   2.043   2.980   7.308  0.4232  0.0252 -0.1280
 1590TIP3    H126405   2.054   3.033   7.229  0.2332  0.1045 -0.1026
 1590TIP3    H226406   2.094   2.900   7.292  4.1829  1.8356  1.4108
 1591TIP3   OH226407   6.761   5.932   0.746  0.4328  0.0415 -0.3125
 1591TIP3    H126408   6.685   5.987   0.767 -1.1607 -2.3965  0.8086
 1591TIP3    H226409   6.830   5.964   0.804 -0.1880  1.3271 -0.2383
 1592TIP3   OH226410   1.978   6.380   0.711  0.0598  0.0995  0.3974
 1592TIP3    H126411   2.010   6.333   0.634 -0.9369 -1.3129  0.8029
 1592TIP3    H226412   1.915   6.443   0.676  0.7915  0.5750 -0.0799
 1593TIP3   OH226413   0.040   1.127   0.744 -0.3824  0.1098  0.3268
 1593TIP3    H126414   0.130   1.146   0.718 -0.5749  0.7114  0.1031
 1593TIP3    H226415  -0.010   1.205   0.719 -0.6974  0.4226  1.8627
 1594TIP3   OH226416   1.142   2.548   0.839 -0.5768 -0.5349 -0.3366
 1594TIP3    H126417   1.205   2.480   0.864 -0.6656 -0.6791 -0.5043
 1594TIP3    H226418   1.184   2.593   0.765 -0.6536 -0.6071 -0.4244
 1595TIP3   OH226419   6.119   6.035   6.632 -0.1649 -0.0415 -0.0561
 1595TIP3    H126420   6.070   6.117   6.636  1.4585  1.0403 -1.3889
 1595TIP3    H226421   6.058   5.973   6.591 -1.1864  0.6334  0.3810
 1596TIP3   OH226422   3.319   0.959   1.202 -0.0978  0.2685 -0.2778
 1596TIP3    H126423   3.302   1.050   1.178 -1.7022 -0.5903 -2.8272
 1596TIP3    H226424   3.381   0.928   1.136 -0.0383 -0.6617  0.1990
 1597TIP3   OH226425   1.150   5.237   8.370 -0.3474 -0.4626  0.2067
 1597TIP3    H126426   1.148   5.258   8.464 -0.9613 -1.4386  0.4235
 1597TIP3    H226427   1.243   5.237   8.347 -0.2562  2.7943  0.0888
 1598TIP3   OH226428   6.028   0.412   1.818 -0.0945 -0.0796  0.3597
 1598TIP3    H126429   5.953   0.465   1.789 -0.3069 -0.5821 -0.0338
 1598TIP3    H226430   6.033   0.428   1.912  0.0636  0.9074  0.1950
 1599TIP3   OH226431   4.996   5.311   1.475  0.1066  0.1347  0.1423
 1599TIP3    H126432   5.076   5.361   1.491  0.9411 -0.9790 -0.4253
 1599TIP3    H226433   4.994   5.245   1.544  1.0007 -1.3839 -1.2080
 1600TIP3   OH226434   2.133   4.236   8.545 -0.1233  0.3659  0.0051
 1600TIP3    H126435   2.070   4.201   8.609 -0.6565  0.3250 -0.5300
 1600TIP3    H226436   2.082   4.243   8.464  0.2931  1.3020 -0.1767
 1601TIP3   OH226437   5.867   3.577   8.634  0.1436 -0.3329 -0.2004
 1601TIP3    H126438   5.831   3.662   8.608  0.0004  0.0280  1.1079
 1601TIP3    H226439   5.905   3.541   8.553  0.1794  0.9514 -0.7780
 1602TIP3   OH226440   0.655   6.023   1.250 -0.5484  0.6483  0.0851
 1602TIP3    H126441   0.581   5.970   1.278  1.0128 -1.0788  1.2302
 1602TIP3    H226442   0.652   6.100   1.306 -0.5349 -0.2458  1.3749
 1603TIP3   OH226443   4.788   1.498   8.464  0.2035  0.1850  0.3211
 1603TIP3    H126444   4.790   1.456   8.550  1.3260 -1.6808 -0.5718
 1603TIP3    H226445   4.817   1.588   8.481 -0.8477  0.2398  2.0563
 1604TIP3   OH226446   3.488   5.021   8.826  0.0528 -0.4515  0.2182
 1604TIP3    H126447   3.559   5.016   8.890 -0.5694  1.9949  1.2274
 1604TIP3    H226448   3.418   5.068   8.871 -0.9214  0.1940 -1.8311
 1605TIP3   OH226449   3.872   3.859   0.201 -0.2294  0.0444 -0.7076
 1605TIP3    H126450   3.961   3.894   0.210 -0.3460  0.2515 -0.3184
 1605TIP3    H226451   3.818   3.936   0.183 -0.3150 -0.0954 -1.0468
 1606TIP3   OH226452   5.407   3.785   1.386  0.0603 -0.2916 -0.1799
 1606TIP3    H126453   5.413   3.864   1.440 -1.7666 -0.5102  0.3996
 1606TIP3    H226454   5.396   3.818   1.297 -0.1638  0.1045 -0.0084
 1607TIP3   OH226455   2.425   5.425   6.838 -0.3198  0.5286 -0.3919
 1607TIP3    H126456   2.348   5.406   6.893 -0.3195 -1.1417 -0.9160
 1607TIP3    H226457   2.499   5.395   6.890 -0.3231 -1.1301 -1.2465
 1608TIP3   OH226458   6.542   0.112   7.670  0.1691  0.3165 -0.5064
 1608TIP3    H126459   6.516   0.179   7.607 -0.7835 -1.3612 -1.9927
 1608TIP3    H226460   6.490   0.130   7.748  0.4055  1.6658 -0.6428
 1609TIP3   OH226461   6.583   0.794   8.011 -0.0024  0.1486  0.3175
 1609TIP3    H126462   6.617   0.876   7.974 -3.1340  0.8949 -1.2843
 1609TIP3    H226463   6.517   0.822   8.074 -1.7128 -1.0302 -0.8400
 1610TIP3   OH226464   1.556   3.079   5.925  0.0229 -0.5768 -0.4619
 1610TIP3    H126465   1.510   3.027   5.991  1.0271 -1.8366 -0.7026
 1610TIP3    H226466   1.551   3.169   5.956  0.3127 -1.1250  1.2498
 1611TIP3   OH226467   4.639   3.866   6.748  0.5046 -0.2232  0.2470
 1611TIP3    H126468   4.554   3.910   6.740  0.3728 -0.7377 -1.3884
 1611TIP3    H226469   4.698   3.935   6.778  0.0025  0.7373 -0.8785
 1612TIP3   OH226470   1.929   5.727   7.438 -0.5600  0.1086 -0.4996
 1612TIP3    H126471   1.901   5.784   7.366 -0.8670  0.2246 -0.2895
 1612TIP3    H226472   1.991   5.781   7.487 -0.9696  0.3246 -0.2099
 1613TIP3   OH226473   2.782   4.481   1.679 -0.2154  0.4668 -0.1057
 1613TIP3    H126474   2.818   4.438   1.602  0.2633  0.3105  0.1972
 1613TIP3    H226475   2.857   4.520   1.723 -0.2105 -0.7974  1.1233
 1614TIP3   OH226476   4.788   3.627   8.969  0.3817  0.8223 -0.2046
 1614TIP3    H126477   4.880   3.646   8.949  1.0067 -0.4973  1.2464
 1614TIP3    H226478   4.772   3.672   9.052 -0.3453  1.1429 -0.5065
 1615TIP3   OH226479   3.720   3.017   8.764  0.1940 -0.2659 -0.0948
 1615TIP3    H126480   3.732   2.928   8.731 -1.2999 -0.2897 -0.6479
 1615TIP3    H226481   3.635   3.044   8.729  1.0218  1.7158 -0.6982
 1616TIP3   OH226482   2.253   6.042   0.549 -0.0576  0.0194 -0.1633
 1616TIP3    H126483   2.307   5.975   0.591 -0.5571 -0.9762 -1.0759
 1616TIP3    H226484   2.278   6.039   0.457  1.1015  2.2576  0.0109
 1617TIP3   OH226485   1.341   1.095   0.955  0.9002 -0.6138  0.4368
 1617TIP3    H126486   1.386   1.098   1.039  0.0049 -1.5962  0.9822
 1617TIP3    H226487   1.252   1.066   0.976  1.1014 -2.5419 -0.9813
 1618TIP3   OH226488   6.014   5.291   8.225 -0.3044 -0.2365  0.7960
 1618TIP3    H126489   6.059   5.216   8.186  0.1058  0.0585  0.6854
 1618TIP3    H226490   6.082   5.358   8.232 -1.1867  0.9929 -1.4056
 1619TIP3   OH226491   1.642   0.023   0.594  0.2519  0.2268 -0.4489
 1619TIP3    H126492   1.657  -0.049   0.532 -1.1113  0.3355 -0.9270
 1619TIP3    H226493   1.561  -0.001   0.639  1.4443 -0.0884  1.6738
 1620TIP3   OH226494   6.610   1.808   0.136  0.0243  0.0538 -0.1296
 1620TIP3    H126495   6.584   1.766   0.218 -1.1173 -0.1343 -0.5801
 1620TIP3    H226496   6.561   1.762   0.068 -1.4900  2.2401 -0.6146
 1621TIP3   OH226497   3.061   1.379   1.040  0.1174  0.1861  0.2150
 1621TIP3    H126498   3.059   1.297   0.990 -0.0310  0.0787  0.3948
 1621TIP3    H226499   3.084   1.446   0.976 -0.9695  0.1866 -0.1807
 1622TIP3   OH226500   6.058   1.056   8.268  0.1106 -0.5392 -0.1168
 1622TIP3    H126501   6.125   1.093   8.325  1.5111 -2.4471 -0.4423
 1622TIP3    H226502   6.051   1.118   8.196  2.1156 -0.6676 -0.4698
 1623TIP3   OH226503   0.862   1.879   8.733  0.4655  0.0755 -0.5093
 1623TIP3    H126504   0.853   1.813   8.665  1.3996 -0.1974 -0.3957
 1623TIP3    H226505   0.870   1.962   8.686 -0.3243  0.0681 -0.6680
 1624TIP3   OH226506   1.357   4.721   7.830 -0.1338  0.1121  1.2963
 1624TIP3    H126507   1.313   4.767   7.901 -0.8855  3.0688 -0.8932
 1624TIP3    H226508   1.425   4.781   7.801  0.5793 -1.2954 -0.0791
 1625TIP3   OH226509   0.289   1.683   0.700  0.2480 -0.1048 -0.3841
 1625TIP3    H126510   0.278   1.604   0.648 -1.0050 -0.8385  0.9198
 1625TIP3    H226511   0.282   1.755   0.637 -0.0096 -0.9821 -1.3830
 1626TIP3   OH226512   0.940   5.294   8.781  0.2837 -0.5422 -0.3197
 1626TIP3    H126513   0.974   5.378   8.810  0.0615 -0.4001 -0.4667
 1626TIP3    H226514   0.845   5.307   8.776  0.3259 -0.5387 -1.1914
 1627TIP3   OH226515   3.768   0.093   7.284 -0.1677  0.6109  0.1477
 1627TIP3    H126516   3.703   0.081   7.353 -0.9679  0.0648 -0.6780
 1627TIP3    H226517   3.838   0.031   7.306 -0.6280  0.1128  0.2231
 1628TIP3   OH226518   1.654   2.263   8.672 -0.0213 -0.6486  0.1238
 1628TIP3    H126519   1.565   2.261   8.708 -1.5247 -1.6254 -3.1486
 1628TIP3    H226520   1.700   2.193   8.718 -0.8472 -0.0274  1.9918
 1629TIP3   OH226521   0.139   1.543   0.869 -0.6746  0.0362  0.9143
 1629TIP3    H126522   0.176   1.455   0.863 -0.3995  0.1620  0.7415
 1629TIP3    H226523   0.196   1.597   0.813 -1.0954  0.2373  0.6749
 1630TIP3   OH226524   4.825   0.496   1.582 -0.3454  0.5503 -0.4255
 1630TIP3    H126525   4.795   0.516   1.671  0.8284 -0.9038  0.3579
 1630TIP3    H226526   4.830   0.581   1.539 -1.4079  1.2415  0.7504
 1631TIP3   OH226527   1.222   3.060   2.043  0.0325  0.3616  0.3142
 1631TIP3    H126528   1.205   3.153   2.055  3.0849  1.1284 -0.5208
 1631TIP3    H226529   1.135   3.019   2.043 -1.5292  3.4053 -1.1105
 1632TIP3   OH226530   1.940   0.150   8.948 -0.3854  0.0883  0.0129
 1632TIP3    H126531   2.020   0.152   9.000  0.2410 -1.1653 -0.8447
 1632TIP3    H226532   1.968   0.115   8.863 -1.3015  2.3335 -1.2950
 1633TIP3   OH226533   6.664   0.521   8.051 -0.3735  0.1660  0.2469
 1633TIP3    H126534   6.677   0.490   7.961 -2.7027  0.4052 -0.2227
 1633TIP3    H226535   6.644   0.614   8.042 -0.1329  0.3060  1.0754
 1634TIP3   OH226536   6.156   6.757   0.438 -0.0336  0.2004 -0.4586
 1634TIP3    H126537   6.216   6.761   0.513 -1.4586 -1.6822  0.9018
 1634TIP3    H226538   6.212   6.767   0.361  1.8133 -0.0823  0.7844
 1635TIP3   OH226539   5.361   6.694   7.804  0.0694 -0.2714  0.4040
 1635TIP3    H126540   5.309   6.641   7.744  0.2511 -0.2071  0.1892
 1635TIP3    H226541   5.297   6.748   7.850  0.0495  0.8415 -0.8803
 1636TIP3   OH226542   3.027   1.487   1.272  0.3988  0.0159 -0.1485
 1636TIP3    H126543   3.028   1.458   1.180 -0.3268 -0.1875 -0.0951
 1636TIP3    H226544   2.953   1.547   1.277 -1.3679 -2.1089  0.9334
 1637TIP3   OH226545   3.504   1.146   8.157 -0.4021  0.2231 -0.5550
 1637TIP3    H126546   3.434   1.195   8.114 -0.3782  0.1487 -0.6778
 1637TIP3    H226547   3.565   1.124   8.087 -0.0368  0.6607 -0.3786
 1638TIP3   OH226548   1.462   3.443   7.059 -0.6625 -0.2335 -0.0636
 1638TIP3    H126549   1.457   3.538   7.067  1.1760  0.1128 -2.1468
 1638TIP3    H226550   1.437   3.425   6.969 -1.9058 -1.8746  0.5541
 1639TIP3   OH226551   4.125   1.881   1.495  0.0690  0.1000  0.1466
 1639TIP3    H126552   4.189   1.950   1.479  1.3008 -0.9677  0.3275
 1639TIP3    H226553   4.100   1.893   1.587 -0.4151  0.8481 -0.0724
 1640TIP3   OH226554   5.757   3.878   1.201  0.0874  0.0856  0.2830
 1640TIP3    H126555   5.740   3.859   1.109  0.3799 -0.6461  0.3720
 1640TIP3    H226556   5.847   3.848   1.216  0.4048  1.1440  0.5580
 1641TIP3   OH226557   5.753   1.125   2.159 -0.7009  0.0531 -0.0286
 1641TIP3    H126558   5.768   1.113   2.253  1.5264  0.9306 -0.2006
 1641TIP3    H226559   5.672   1.175   2.154 -0.0408  1.3668  1.5451
 1642TIP3   OH226560   1.267   6.487   1.397  0.5278 -0.6726  0.3726
 1642TIP3    H126561   1.256   6.581   1.387  0.1058 -0.7895 -0.3855
 1642TIP3    H226562   1.202   6.462   1.463 -0.2000 -0.6016 -0.3023
 1643TIP3   OH226563   4.545   0.566   8.353  0.3954 -0.7120 -0.1161
 1643TIP3    H126564   4.496   0.484   8.351 -0.5963 -0.3078  3.1321
 1643TIP3    H226565   4.544   0.596   8.262 -5.2372 -0.8842 -0.4502
 1644TIP3   OH226566   2.908   3.734   7.821  0.0145  0.4636 -0.2706
 1644TIP3    H126567   2.880   3.826   7.813  0.5306  0.5167 -1.5257
 1644TIP3    H226568   3.003   3.738   7.822  0.0619 -0.1233 -1.2648
 1645TIP3   OH226569   1.666   2.896   1.031  0.2803  0.1580 -0.3903
 1645TIP3    H126570   1.605   2.837   1.075  1.3474 -1.6767 -1.2118
 1645TIP3    H226571   1.618   2.977   1.020 -0.6905  0.0378  2.3015
 1646TIP3   OH226572   0.381   3.034   1.278  0.2875  0.0496 -0.4878
 1646TIP3    H126573   0.313   2.982   1.235 -1.7673  1.7364  0.4838
 1646TIP3    H226574   0.386   3.114   1.226  0.2691  0.6613  0.4217
 1647TIP3   OH226575   3.631   4.156   8.716 -0.6545 -0.0503 -0.1615
 1647TIP3    H126576   3.666   4.091   8.777 -1.6027 -0.8325 -0.4253
 1647TIP3    H226577   3.687   4.148   8.639 -1.7147 -1.7437 -0.8287
 1648TIP3   OH226578   1.292   5.185   6.236  0.2833 -0.5585  0.2255
 1648TIP3    H126579   1.285   5.269   6.190  1.2622 -0.3494  0.4122
 1648TIP3    H226580   1.386   5.165   6.233  0.0749 -1.5731  0.3199
 1649TIP3   OH226581   1.280   3.719   0.028  0.4617 -0.1976 -0.1975
 1649TIP3    H126582   1.330   3.651   0.072  0.5549 -0.8124 -1.2280
 1649TIP3    H226583   1.189   3.699   0.049  0.4943 -0.6103 -0.4305
 1650TIP3   OH226584   0.801   3.799   8.245 -0.1405  0.1321 -0.3708
 1650TIP3    H126585   0.860   3.779   8.318  0.3426  2.3796 -0.0868
 1650TIP3    H226586   0.737   3.859   8.282 -1.3248 -0.5442 -1.2444
 1651TIP3   OH226587   1.651   6.524   7.899 -0.0716 -0.1634  0.0418
 1651TIP3    H126588   1.616   6.593   7.955  0.3314  1.2259 -1.3519
 1651TIP3    H226589   1.579   6.500   7.841  0.2135  0.1205 -0.4335
 1652TIP3   OH226590   2.420   5.101   6.295  0.0890 -0.0833  0.7324
 1652TIP3    H126591   2.445   5.018   6.255 -0.5292 -0.2961  0.7768
 1652TIP3    H226592   2.327   5.091   6.315 -0.7373  1.5686 -1.7447
 1653TIP3   OH226593   6.026   0.516   1.496 -0.4275  0.4053 -0.4201
 1653TIP3    H126594   5.931   0.520   1.495 -0.4312  0.4318 -0.1788
 1653TIP3    H226595   6.052   0.578   1.565 -0.3937 -2.0170  1.8783
 1654TIP3   OH226596   3.957   1.194   8.447 -0.0650  0.4133 -0.0800
 1654TIP3    H126597   3.956   1.241   8.530 -0.4700 -1.9589  1.3775
 1654TIP3    H226598   3.865   1.169   8.433 -0.1155  1.3589 -1.6266
 1655TIP3   OH226599   5.741   0.070   7.105  0.0208 -0.0750  0.2106
 1655TIP3    H126600   5.702   0.125   7.037  0.7937  0.1472 -0.0677
 1655TIP3    H226601   5.710   0.107   7.187  1.5329  1.6146  0.0829
 1656TIP3   OH226602   1.319   2.039   8.196  0.1387 -0.2480 -0.2167
 1656TIP3    H126603   1.274   1.991   8.266 -0.4931 -1.1730 -1.2132
 1656TIP3    H226604   1.252   2.053   8.130  0.8363  0.1990 -0.8450
 1657TIP3   OH226605   4.504   3.875   1.411 -0.3283  0.1072  0.1567
 1657TIP3    H126606   4.456   3.799   1.380 -1.3790  1.2826 -1.2244
 1657TIP3    H226607   4.589   3.869   1.366  0.1274 -0.9235  1.0936
 1658TIP3   OH226608   3.484   5.113   8.458 -0.9156  0.4310  0.9702
 1658TIP3    H126609   3.535   5.188   8.488  0.2605 -0.0996  0.3892
 1658TIP3    H226610   3.484   5.053   8.533 -2.0261  1.0626  1.5057
 1659TIP3   OH226611   0.353   5.431   7.778 -0.1591  0.7010 -0.0739
 1659TIP3    H126612   0.403   5.403   7.701  0.3060 -1.3556  0.8940
 1659TIP3    H226613   0.263   5.436   7.747 -0.0426 -0.5342 -0.6881
 1660TIP3   OH226614   5.350   3.953   7.628 -0.1309 -0.0412 -0.3735
 1660TIP3    H126615   5.400   3.993   7.556  0.1964 -1.6655 -1.0847
 1660TIP3    H226616   5.336   3.862   7.600  0.3826 -0.8402  1.8298
 1661TIP3   OH226617   0.701   2.708   8.835  0.0211  0.2176 -0.7471
 1661TIP3    H126618   0.614   2.711   8.796 -0.6550  1.2564  0.7760
 1661TIP3    H226619   0.750   2.648   8.779 -2.1578 -1.7953 -0.6297
 1662TIP3   OH226620   0.728   2.981   0.324 -0.5597  0.1184 -0.0171
 1662TIP3    H126621   0.793   3.047   0.345 -1.7443  1.1713  0.4913
 1662TIP3    H226622   0.750   2.952   0.235  0.1078  1.0346 -0.1563
 1663TIP3   OH226623   4.963   0.813   0.690 -0.3701  0.2666  0.2506
 1663TIP3    H126624   4.895   0.839   0.751 -2.7281  0.7475 -2.3799
 1663TIP3    H226625   4.981   0.892   0.639  0.9331 -0.3106 -0.2321
 1664TIP3   OH226626   4.625   0.949   8.573  0.2786 -0.0487 -0.6128
 1664TIP3    H126627   4.713   0.916   8.594  0.6054  0.3780 -1.2577
 1664TIP3    H226628   4.617   1.030   8.624  1.1339  1.0723 -2.1589
 1665TIP3   OH226629   3.321   1.774   7.591 -0.3059  0.7547  0.6411
 1665TIP3    H126630   3.304   1.703   7.529  0.0462  0.9755  0.2802
 1665TIP3    H226631   3.257   1.762   7.660  0.4261 -0.5548  1.1348
 1666TIP3   OH226632   5.051   1.773   2.467  0.4910 -1.0789 -0.2495
 1666TIP3    H126633   5.128   1.717   2.452  0.6338 -1.5878  2.0482
 1666TIP3    H226634   4.984   1.736   2.410  1.4086 -1.8049 -0.9109
 1667TIP3   OH226635   4.196   0.194   2.515  0.2347  0.1677  0.1517
 1667TIP3    H126636   4.107   0.163   2.496 -0.7752  2.0779  1.4882
 1667TIP3    H226637   4.240   0.119   2.555 -1.7199 -0.0024  2.1455
 1668TIP3   OH226638   2.121   3.322   0.601  0.6126 -0.3232 -0.4435
 1668TIP3    H126639   2.089   3.352   0.686 -0.8452 -0.8294 -0.7894
 1668TIP3    H226640   2.180   3.250   0.621  0.5793 -0.1859  0.1514
 1669TIP3   OH226641   1.198   0.042   2.554 -0.1174 -0.6858 -0.1531
 1669TIP3    H126642   1.142  -0.034   2.566  0.6129 -1.1721  0.3098
 1669TIP3    H226643   1.224   0.067   2.643  1.5263 -1.3593 -0.3931
 1670TIP3   OH226644   0.126   2.454   0.823 -0.2446  0.0689 -0.1007
 1670TIP3    H126645   0.149   2.465   0.731  0.0249 -0.3375 -0.0824
 1670TIP3    H226646   0.069   2.529   0.842  0.2593  0.5427 -0.4097
 1671TIP3   OH226647   6.287   1.959   6.616  0.7447  0.3536 -0.1722
 1671TIP3    H126648   6.355   1.963   6.548  1.9800 -1.4705  0.8766
 1671TIP3    H226649   6.321   2.014   6.687  0.8503 -0.0469  0.0941
 1672TIP3   OH226650   6.721   3.862   2.024  0.6573  0.1818 -0.0657
 1672TIP3    H126651   6.663   3.936   2.039  0.3305 -0.2926  1.1453
 1672TIP3    H226652   6.722   3.815   2.108  1.6616 -0.6100 -0.4993
 1673TIP3   OH226653   4.566   1.975   7.743  0.0027  0.1231 -0.2059
 1673TIP3    H126654   4.590   1.954   7.834 -0.0890 -0.3824 -0.2966
 1673TIP3    H226655   4.475   2.002   7.748 -0.1015 -0.2287 -0.1937
 1674TIP3   OH226656   1.023   4.393   8.957  0.1204 -0.2222  0.0872
 1674TIP3    H126657   1.047   4.423   9.045 -0.5351 -0.8514  0.4895
 1674TIP3    H226658   0.997   4.473   8.911  2.9046  0.5115 -0.3878
 1675TIP3   OH226659   3.770   5.727   7.396  0.8799  0.2577  0.3083
 1675TIP3    H126660   3.814   5.733   7.311  3.8545  0.2710  1.7581
 1675TIP3    H226661   3.741   5.636   7.402  1.5719 -0.0139 -0.3062
 1676TIP3   OH226662   0.514   1.777   0.442  0.0146  0.2154 -0.9050
 1676TIP3    H126663   0.452   1.724   0.393  1.4720 -0.9534 -1.5596
 1676TIP3    H226664   0.464   1.854   0.469 -1.5621 -0.4475 -1.8213
 1677TIP3   OH226665   1.965   4.060   0.416 -0.0775 -0.2604 -0.0544
 1677TIP3    H126666   1.969   4.065   0.512 -1.2941 -1.9119  0.1320
 1677TIP3    H226667   1.932   4.145   0.389  1.8108  0.8236  0.8379
 1678TIP3   OH226668   2.009   3.733   1.884  0.3014 -0.2665 -0.3244
 1678TIP3    H126669   2.022   3.828   1.878  2.1295 -0.3610  1.4367
 1678TIP3    H226670   1.914   3.724   1.897 -0.0316  1.2280 -1.3075
 1679TIP3   OH226671   4.124   2.068   0.872  1.3005 -0.2431 -0.0506
 1679TIP3    H126672   4.216   2.093   0.863  0.9576  1.5793  1.0885
 1679TIP3    H226673   4.124   1.972   0.861  3.0575 -0.0932 -1.9045
 1680TIP3   OH226674   0.876   3.143   8.329  0.0596 -0.0761  0.3615
 1680TIP3    H126675   0.898   3.225   8.375  3.7755 -0.9157  0.4172
 1680TIP3    H226676   0.866   3.079   8.399  2.8614 -0.7508  0.2562
 1681TIP3   OH226677   1.272   6.611   0.767 -0.0141 -0.0810 -0.3133
 1681TIP3    H126678   1.262   6.616   0.672  1.6385 -2.4290 -0.6896
 1681TIP3    H226679   1.345   6.670   0.786 -0.3517  0.3994 -0.4800
 1682TIP3   OH226680   2.182   5.394   0.950 -0.1332  0.7056 -0.0091
 1682TIP3    H126681   2.220   5.347   0.876 -1.8400  0.2781 -0.6677
 1682TIP3    H226682   2.185   5.332   1.023  0.3597  0.6661 -0.0613
 1683TIP3   OH226683   3.415   1.405   8.622  0.2413  0.2017 -0.4376
 1683TIP3    H126684   3.502   1.380   8.590  0.5007  1.0971 -0.4667
 1683TIP3    H226685   3.384   1.471   8.560  0.1105  0.8626  0.3037
 1684TIP3   OH226686   4.828   4.335   6.638 -0.2068  0.0860 -0.4034
 1684TIP3    H126687   4.861   4.308   6.552  0.4254 -0.7869  0.0945
 1684TIP3    H226688   4.889   4.404   6.666  0.9232 -1.1437  0.2747
 1685TIP3   OH226689   6.000   6.212   8.306 -0.4562 -0.1678 -0.3214
 1685TIP3    H126690   6.063   6.140   8.309  1.2574  1.2755  0.3645
 1685TIP3    H226691   6.030   6.273   8.373 -1.4883  1.4644 -1.2707
 1686TIP3   OH226692   3.599   5.764   6.696 -0.4560 -0.2459  0.0282
 1686TIP3    H126693   3.640   5.815   6.766 -0.3487  1.3853 -1.1536
 1686TIP3    H226694   3.663   5.695   6.677  0.6205  0.7434 -0.0741
 1687TIP3   OH226695   1.707   5.666   0.442  0.4580  0.1740  0.6523
 1687TIP3    H126696   1.663   5.692   0.361 -0.3861 -0.5362  0.8696
 1687TIP3    H226697   1.752   5.585   0.420  0.9294  0.4188  0.6820
 1688TIP3   OH226698   4.751   0.236   1.551  0.2600 -0.1631  0.4105
 1688TIP3    H126699   4.657   0.249   1.534  0.1303 -0.5224  0.8274
 1688TIP3    H226700   4.791   0.320   1.532 -0.2743  0.2606  1.1077
 1689TIP3   OH226701   4.604   6.424   7.556 -0.1941  0.2009  0.3987
 1689TIP3    H126702   4.627   6.410   7.648  0.8840  0.0324  0.1105
 1689TIP3    H226703   4.632   6.513   7.538  1.1671 -0.3330 -0.2227
 1690TIP3   OH226704   4.758   1.843   1.413  0.5582  0.5662  0.0666
 1690TIP3    H126705   4.789   1.904   1.346 -0.0477 -0.6036 -1.3433
 1690TIP3    H226706   4.676   1.881   1.444  0.0251  0.3340 -1.0241
 1691TIP3   OH226707   3.754   4.617   7.219  0.0559 -0.0463 -0.0104
 1691TIP3    H126708   3.828   4.675   7.236 -1.5775  1.8746  1.0954
 1691TIP3    H226709   3.755   4.555   7.291  1.1796 -0.7356 -0.5951
 1692TIP3   OH226710   0.928   0.416   6.992 -1.1355 -0.1534 -0.3049
 1692TIP3    H126711   0.998   0.476   7.016 -0.5964 -1.3321  1.2585
 1692TIP3    H226712   0.965   0.362   6.922  0.2372 -1.9347  1.6853
 1693TIP3   OH226713   4.145   4.026   8.635 -0.1144 -0.4858  0.0260
 1693TIP3    H126714   4.157   4.120   8.627  0.1694 -0.5979 -1.0243
 1693TIP3    H226715   4.072   4.016   8.695  1.3271  0.3373  2.0238
 1694TIP3   OH226716   1.894   5.929   2.610  0.4075  0.5458 -0.7934
 1694TIP3    H126717   1.905   5.836   2.592  0.8314  0.2604  0.7511
 1694TIP3    H226718   1.825   5.957   2.550 -0.7652 -1.1016 -0.2976
 1695TIP3   OH226719   1.693   6.068   1.868  0.1466 -0.5501  0.0183
 1695TIP3    H126720   1.696   6.089   1.961  0.3886 -1.8680  0.3293
 1695TIP3    H226721   1.782   6.042   1.846 -0.1797 -1.4945 -0.2542
 1696TIP3   OH226722   5.931   2.692   1.102 -0.3547  0.3809 -0.1433
 1696TIP3    H126723   5.959   2.688   1.011  0.7766  0.2342  0.1916
 1696TIP3    H226724   6.009   2.722   1.150 -1.3924  2.1170  0.5790
 1697TIP3   OH226725   0.069   5.805   1.098  0.2483  0.3252 -0.6491
 1697TIP3    H126726   0.010   5.730   1.090 -0.3858  0.6933  0.4176
 1697TIP3    H226727   0.154   5.766   1.118 -0.2942 -0.1062  1.0344
 1698TIP3   OH226728   0.140   6.605   1.686 -0.2342  0.0170  0.2992
 1698TIP3    H126729   0.118   6.520   1.649  0.4046 -0.8332  1.7854
 1698TIP3    H226730   0.151   6.662   1.610 -1.4459 -1.0215 -0.6958
 1699TIP3   OH226731   5.072   3.108   0.356 -0.0074  0.1049 -0.2640
 1699TIP3    H126732   5.102   3.118   0.266  1.0177  0.4421  0.0947
 1699TIP3    H226733   5.136   3.158   0.408 -0.5435 -0.1345  0.6510
 1700TIP3   OH226734   4.947   1.591   1.819  0.5871 -0.1643 -0.1011
 1700TIP3    H126735   4.961   1.610   1.911  0.5869  1.5139 -0.4287
 1700TIP3    H226736   4.870   1.643   1.795  0.2483 -1.0148 -0.9190
 1701TIP3   OH226737   0.152   4.906   2.089 -0.1255 -0.1235 -0.2070
 1701TIP3    H126738   0.204   4.909   2.009 -1.4054  1.4315 -1.0188
 1701TIP3    H226739   0.215   4.928   2.158  0.5829  0.4607 -1.0138
 1702TIP3   OH226740   1.173   1.705   8.158 -0.0785  0.1516 -0.5952
 1702TIP3    H126741   1.202   1.787   8.116 -1.0423  0.6341 -0.3416
 1702TIP3    H226742   1.187   1.638   8.091 -0.9896  0.8122 -1.4792
 1703TIP3   OH226743   3.848   3.570   8.827 -0.1013  0.1116 -0.1213
 1703TIP3    H126744   3.856   3.502   8.760 -2.2886 -1.5333  1.1315
 1703TIP3    H226745   3.814   3.646   8.781 -0.3143 -0.5666 -1.0999
 1704TIP3   OH226746   3.119   3.445   8.470 -0.0913 -0.2251  0.0687
 1704TIP3    H126747   3.127   3.540   8.465  1.9522 -0.4344 -1.9622
 1704TIP3    H226748   3.202   3.416   8.509 -0.2258 -1.2389 -0.3678
 1705TIP3   OH226749   3.577   2.405   8.391  0.0265 -0.3357  0.2226
 1705TIP3    H126750   3.594   2.360   8.308 -2.1035  2.0551 -1.6874
 1705TIP3    H226751   3.627   2.486   8.385 -0.1838 -0.1169  1.2690
 1706TIP3   OH226752   1.724   3.505   0.666  0.2772  0.2032  0.3907
 1706TIP3    H126753   1.652   3.483   0.726 -0.6312 -2.8064 -1.5558
 1706TIP3    H226754   1.785   3.432   0.674  0.8009  0.4040 -1.2984
 1707TIP3   OH226755   6.645   0.751   8.330 -0.2307  0.4851 -0.2867
 1707TIP3    H126756   6.641   0.656   8.328  2.8818  0.2562 -0.3676
 1707TIP3    H226757   6.589   0.779   8.258 -0.9494 -1.2783 -0.4561
 1708TIP3   OH226758   4.884   5.418   8.510 -0.9334  0.2638 -1.0349
 1708TIP3    H126759   4.798   5.378   8.494 -0.5305 -1.6432  1.0444
 1708TIP3    H226760   4.940   5.381   8.442 -0.8807 -1.8338  0.0600
 1709TIP3   OH226761   6.755   1.359   0.570  0.4673  0.7723 -0.3833
 1709TIP3    H126762   6.689   1.426   0.588 -1.0664 -0.7779  0.0975
 1709TIP3    H226763   6.809   1.396   0.500 -0.5630  2.3163 -0.4196
 1710TIP3   OH226764   4.379   5.521   0.136  0.7642 -0.0341 -0.3849
 1710TIP3    H126765   4.329   5.592   0.095  2.6952 -0.3021 -3.5447
 1710TIP3    H226766   4.335   5.441   0.108  0.7568 -0.2017  0.0858
 1711TIP3   OH226767   3.412   2.001   0.885 -0.4513  0.2112  0.1903
 1711TIP3    H126768   3.320   1.977   0.893 -0.4369 -1.5046 -3.2121
 1711TIP3    H226769   3.411   2.086   0.842 -0.4472 -0.0238 -0.2755
 1712TIP3   OH226770   5.698   3.199   1.843 -0.6526  0.0088  0.1758
 1712TIP3    H126771   5.610   3.218   1.875 -1.2046  2.1429 -2.2328
 1712TIP3    H226772   5.684   3.135   1.773 -0.4576  1.0952 -0.8819
 1713TIP3   OH226773   1.121   2.880   1.187  0.2806 -0.2298 -0.5831
 1713TIP3    H126774   1.033   2.874   1.224  0.0044  2.3611 -0.5929
 1713TIP3    H226775   1.110   2.936   1.110  1.9062 -0.0194 -0.6963
 1714TIP3   OH226776   0.121   5.045   0.463  0.1708 -0.6067  0.4522
 1714TIP3    H126777   0.205   5.007   0.487  0.2862 -0.2942  0.5405
 1714TIP3    H226778   0.080   5.069   0.546  0.6964  0.7458  0.3396
 1715TIP3   OH226779   3.892   5.596   8.437 -0.5180 -0.2102  0.0018
 1715TIP3    H126780   3.892   5.605   8.342  0.3019  0.8671  0.0864
 1715TIP3    H226781   3.908   5.503   8.452 -0.5186 -0.3693 -0.9062
 1716TIP3   OH226782   5.723   2.105   7.237  0.3763  0.8498 -0.0307
 1716TIP3    H126783   5.787   2.050   7.193 -1.1290 -1.1504  0.1245
 1716TIP3    H226784   5.642   2.053   7.235 -0.6383  2.2509  1.8648
 1717TIP3   OH226785   5.075   0.823   8.022  0.6344  0.1175  0.5553
 1717TIP3    H126786   5.057   0.731   8.039  0.3770 -0.4373 -2.2470
 1717TIP3    H226787   5.171   0.829   8.022  0.6522  0.1472  1.9235
 1718TIP3   OH226788   4.126   1.699   7.082 -1.2404  0.1025 -0.0709
 1718TIP3    H126789   4.112   1.774   7.139 -0.7865 -0.5238  0.9047
 1718TIP3    H226790   4.205   1.721   7.032 -0.5569 -0.0932  0.8848
 1719TIP3   OH226791   2.480   0.419   8.868  0.2311  0.8733  0.1955
 1719TIP3    H126792   2.452   0.432   8.959 -2.0833 -0.8040 -0.1750
 1719TIP3    H226793   2.572   0.445   8.867  0.2268  1.2828  2.9290
 1720TIP3   OH226794   0.049   0.408   7.580  0.4997 -0.3938  0.0062
 1720TIP3    H126795   0.031   0.499   7.556 -0.0444 -0.1307  1.2824
 1720TIP3    H226796   0.123   0.382   7.526  0.6025  0.7835 -0.4427
 1721TIP3   OH226797   2.804   2.687   7.219  0.5380 -0.0606 -0.4046
 1721TIP3    H126798   2.793   2.721   7.308  0.3855  3.9399 -1.7742
 1721TIP3    H226799   2.723   2.640   7.201  0.5960 -1.0005  1.5302
 1722TIP3   OH226800   2.461   5.099   7.219 -0.6060 -0.0193 -0.2782
 1722TIP3    H126801   2.499   5.184   7.241  1.9183 -0.7900 -1.2422
 1722TIP3    H226802   2.398   5.082   7.288 -0.5941  2.2618  0.3706
 1723TIP3   OH226803   3.962   4.211   8.171  0.6213  0.2593 -0.4558
 1723TIP3    H126804   3.968   4.290   8.116 -0.6763  0.2554 -0.6235
 1723TIP3    H226805   3.876   4.175   8.153 -0.2265  0.7236  2.1877
 1724TIP3   OH226806   6.336   0.424   7.277  0.1465 -0.5675  0.3632
 1724TIP3    H126807   6.422   0.407   7.239  0.2663 -0.8282  0.7449
 1724TIP3    H226808   6.304   0.502   7.231 -0.3069 -1.6583 -1.2480
 1725TIP3   OH226809   4.051   0.432   7.847 -0.0321 -0.5137 -0.0899
 1725TIP3    H126810   3.975   0.453   7.901 -0.5539  1.1719 -1.3762
 1725TIP3    H226811   4.122   0.417   7.910 -0.6281  1.2737  1.0967
 1726TIP3   OH226812   2.933   4.267   8.345  0.0009 -0.0483  0.0594
 1726TIP3    H126813   2.915   4.359   8.328 -0.3164 -0.5401 -2.7564
 1726TIP3    H226814   3.015   4.268   8.395 -1.0204  1.7595  1.8485
 1727TIP3   OH226815   6.262   6.171   7.925 -0.7176 -0.5140  0.2986
 1727TIP3    H126816   6.285   6.202   7.838  0.1741 -1.4934  0.1686
 1727TIP3    H226817   6.189   6.227   7.952 -0.8378 -0.0339 -0.9645
 1728TIP3   OH226818   0.349   6.318   0.120 -0.1083 -0.5110 -0.1126
 1728TIP3    H126819   0.307   6.267   0.051 -2.0630 -0.3299  0.8677
 1728TIP3    H226820   0.425   6.358   0.078  0.3045 -2.5404 -1.4384
 1729TIP3   OH226821   5.662   6.207   6.618 -0.4539  0.4635 -0.0830
 1729TIP3    H126822   5.725   6.278   6.615 -0.6594  0.6121 -1.2357
 1729TIP3    H226823   5.577   6.250   6.610 -0.7058  0.2513  1.2732
 1730TIP3   OH226824   6.754   0.097   7.426 -0.6005  0.3006  0.1471
 1730TIP3    H126825   6.738   0.150   7.348 -1.6059 -0.5772 -0.2720
 1730TIP3    H226826   6.695   0.133   7.492 -2.3443 -1.1009 -0.5462
 1731TIP3   OH226827   3.897   4.313   0.287  0.6018  0.2104 -0.1395
 1731TIP3    H126828   3.890   4.274   0.374 -0.5200 -0.1997 -0.3921
 1731TIP3    H226829   3.859   4.400   0.297 -0.0267 -0.0384 -0.3339
 1732TIP3   OH226830   6.585   6.568   1.398 -0.2582  0.6885  0.0852
 1732TIP3    H126831   6.499   6.527   1.387  0.3769 -0.6347 -0.1960
 1732TIP3    H226832   6.594   6.625   1.322 -0.7683  0.6042 -0.0426
 1733TIP3   OH226833   1.066   0.857   1.890 -0.2060  0.2488  0.2287
 1733TIP3    H126834   1.085   0.820   1.804 -0.7800 -0.8716  0.5660
 1733TIP3    H226835   0.971   0.858   1.895 -0.3834  4.0472 -0.6959
 1734TIP3   OH226836   6.478   2.596   1.135 -0.2844  0.2361  0.0095
 1734TIP3    H126837   6.562   2.621   1.097 -0.4887  1.7029  0.4595
 1734TIP3    H226838   6.434   2.546   1.065  0.6713  0.0323 -0.4647
 1735TIP3   OH226839   3.177   0.171   8.310 -0.3089  0.3322 -0.5095
 1735TIP3    H126840   3.237   0.242   8.329 -0.4912  1.0135 -2.3135
 1735TIP3    H226841   3.227   0.110   8.256 -0.7443  0.0642 -0.6219
 1736TIP3   OH226842   1.877   1.535   0.578 -0.5479 -0.3316  0.0699
 1736TIP3    H126843   1.813   1.471   0.608 -0.4704 -1.0028 -1.1371
 1736TIP3    H226844   1.957   1.512   0.626 -0.4600 -1.3063 -0.5003
 1737TIP3   OH226845   6.326   1.589   8.229 -0.1853 -0.1716  0.5372
 1737TIP3    H126846   6.257   1.644   8.266  0.0384 -1.8565  3.7954
 1737TIP3    H226847   6.407   1.637   8.248 -0.2528  1.1052 -1.9930
 1738TIP3   OH226848   0.907   4.941   6.743  0.7326 -0.4107 -0.7977
 1738TIP3    H126849   0.851   4.988   6.682  0.7350  2.2751  1.1174
 1738TIP3    H226850   0.850   4.875   6.782  0.0814 -0.5026 -1.8674
 1739TIP3   OH226851   5.318   2.254   0.556  0.8938 -0.3089  0.1426
 1739TIP3    H126852   5.335   2.160   0.565 -1.4858 -0.7695  0.4842
 1739TIP3    H226853   5.224   2.260   0.537  1.0244  1.9991 -0.0771
 1740TIP3   OH226854   2.134   2.508   8.938  0.3751 -0.3362 -0.5687
 1740TIP3    H126855   2.055   2.525   8.989  1.0288 -1.7814  0.9951
 1740TIP3    H226856   2.135   2.414   8.925  2.1880 -0.4405  0.0613
 1741TIP3   OH226857   3.714   2.230   8.579  0.2929  0.1042 -0.1437
 1741TIP3    H126858   3.686   2.138   8.586  0.9815 -0.1770 -0.8919
 1741TIP3    H226859   3.647   2.271   8.525 -0.1514  0.1131  0.3965
 1742TIP3   OH226860   1.870   6.434   7.707 -0.1397 -0.4136 -0.2801
 1742TIP3    H126861   1.832   6.476   7.784 -0.7249 -2.1882  0.4595
 1742TIP3    H226862   1.804   6.371   7.679 -0.1143  0.4641 -2.5133
 1743TIP3   OH226863   5.591   4.388   0.191  0.0001 -1.2252  0.1871
 1743TIP3    H126864   5.543   4.338   0.258  0.1640 -0.0014  1.2676
 1743TIP3    H226865   5.523   4.438   0.146 -0.1152 -2.0833 -0.6245
 1744TIP3   OH226866   3.855   0.518   0.336 -0.1984 -0.2341 -0.4117
 1744TIP3    H126867   3.810   0.480   0.261 -1.7553  1.1769 -0.2313
 1744TIP3    H226868   3.847   0.452   0.405 -1.5671 -0.2214 -0.5388
 1745TIP3   OH226869   4.458   2.786   7.630  0.1290  0.0502  0.1444
 1745TIP3    H126870   4.538   2.791   7.683 -0.3895  0.1472  0.9378
 1745TIP3    H226871   4.393   2.747   7.689 -0.8526  1.5043  0.0786
 1746TIP3   OH226872   1.839   1.009   8.654  0.2197 -0.1259  0.0616
 1746TIP3    H126873   1.929   0.976   8.655  0.5547  0.7119  1.7430
 1746TIP3    H226874   1.838   1.077   8.587  1.0963  0.4654  0.6329
 1747TIP3   OH226875   0.291   3.890   7.595 -0.0158  0.1459  0.4079
 1747TIP3    H126876   0.196   3.879   7.606 -0.2531 -2.4025 -2.5569
 1747TIP3    H226877   0.326   3.801   7.600  1.8418  0.7243 -0.9777
 1748TIP3   OH226878   2.569   5.609   2.013  0.4001 -0.4279  0.5120
 1748TIP3    H126879   2.483   5.566   2.009  0.7720 -1.2269  0.8125
 1748TIP3    H226880   2.572   5.646   2.102  0.7724 -1.2975  0.8727
 1749TIP3   OH226881   6.253   0.640   0.928  0.3695  0.2887  0.1131
 1749TIP3    H126882   6.341   0.603   0.940  0.0923 -0.4978 -0.2081
 1749TIP3    H226883   6.264   0.704   0.858  0.5977 -0.1803 -0.2952
 1750TIP3   OH226884   4.834   6.617   1.467 -0.3315  0.7812 -0.7282
 1750TIP3    H126885   4.897   6.550   1.439  1.6644  2.1507  0.2216
 1750TIP3    H226886   4.820   6.670   1.390  1.5428  1.8117 -0.4220
 1751TIP3   OH226887   4.296   4.681   1.893  0.1083 -0.0992 -0.0585
 1751TIP3    H126888   4.239   4.647   1.823  0.8845 -0.1090 -0.6971
 1751TIP3    H226889   4.370   4.720   1.846  1.6037 -1.7960  0.7793
 1752TIP3   OH226890   3.827   1.367   0.813 -0.1624 -0.3613 -0.3084
 1752TIP3    H126891   3.759   1.430   0.837 -1.6340 -2.1593  0.5208
 1752TIP3    H226892   3.817   1.356   0.718  0.0228  0.5171 -0.4401
 1753TIP3   OH226893   0.119   3.221   7.859  0.1773 -0.0664 -0.4568
 1753TIP3    H126894   0.029   3.192   7.846 -0.6590  1.4023  1.5364
 1753TIP3    H226895   0.148   3.249   7.772 -1.8653  0.9458 -0.8641
 1754TIP3   OH226896   5.782   4.890   0.766  0.5916  0.4619  0.4963
 1754TIP3    H126897   5.728   4.969   0.769  1.2230  0.9119  0.2214
 1754TIP3    H226898   5.868   4.918   0.797  1.9071  0.8108 -2.9821
 1755TIP3   OH226899   6.743   6.482   0.732 -0.5559 -0.1236  0.3974
 1755TIP3    H126900   6.758   6.408   0.790 -0.4653  0.8949  1.7354
 1755TIP3    H226901   6.720   6.554   0.791  0.2343  1.1400 -0.7709
 1756TIP3   OH226902   6.595   5.700   0.960 -0.1088 -0.6883 -0.5281
 1756TIP3    H126903   6.603   5.795   0.975 -0.3195 -0.3294 -2.4592
 1756TIP3    H226904   6.512   5.677   1.002 -0.6346  0.2368 -1.0103
 1757TIP3   OH226905   0.121   3.470   2.077  0.1038  0.0153 -0.1153
 1757TIP3    H126906   0.105   3.400   2.139  0.3598 -0.7061 -0.8513
 1757TIP3    H226907   0.203   3.510   2.105  1.2790 -1.5957 -1.1253
 1758TIP3   OH226908   0.412   5.302   1.983 -0.3565  0.4393  0.2725
 1758TIP3    H126909   0.472   5.368   2.017 -0.9452  0.5567  1.1063
 1758TIP3    H226910   0.418   5.230   2.046 -0.2396 -0.0317 -0.2603
 1759TIP3   OH226911   6.142   5.706   8.577  0.3120 -0.4377 -0.3277
 1759TIP3    H126912   6.162   5.723   8.485 -1.3498  3.2022 -0.1734
 1759TIP3    H226913   6.047   5.695   8.579  0.5826 -3.4917  0.6909
 1760TIP3   OH226914   3.016   4.513   8.605 -0.3903 -0.1901  0.4850
 1760TIP3    H126915   2.988   4.532   8.515  1.8906  0.0335 -0.2385
 1760TIP3    H226916   3.051   4.424   8.601 -1.5252 -0.7099  1.5032
 1761TIP3   OH226917   4.429   5.711   8.455 -0.8622 -0.4311  0.0127
 1761TIP3    H126918   4.346   5.669   8.431  0.3612 -2.4075 -1.0380
 1761TIP3    H226919   4.493   5.673   8.395  1.2798 -0.8575  2.3978
 1762TIP3   OH226920   2.765   3.728   1.115  0.4507  0.0129  0.2932
 1762TIP3    H126921   2.824   3.728   1.191  0.0480 -2.8639  0.7267
 1762TIP3    H226922   2.732   3.639   1.111  0.0152  0.2029 -2.9704
 1763TIP3   OH226923   3.453   3.041   1.639  0.4091  0.1409  0.1443
 1763TIP3    H126924   3.390   2.978   1.604 -0.5747  1.3550 -0.3795
 1763TIP3    H226925   3.472   3.010   1.727 -0.9954 -0.2322  0.3383
 1764TIP3   OH226926   4.034   4.689   1.744  0.0483 -0.1641  0.1825
 1764TIP3    H126927   4.063   4.624   1.680  1.2917  1.1304 -0.6145
 1764TIP3    H226928   3.969   4.742   1.697  0.8075  0.6565  0.0303
 1765TIP3   OH226929   5.408   4.165   1.027 -0.1220 -0.0204  0.8692
 1765TIP3    H126930   5.409   4.244   1.082 -2.7338 -0.8367  2.2626
 1765TIP3    H226931   5.470   4.184   0.956 -1.1367  3.5324  0.7545
 1766TIP3   OH226932   1.831   0.884   8.363 -0.5650 -0.4465 -0.8414
 1766TIP3    H126933   1.812   0.799   8.403  0.9055 -1.0496 -1.3710
 1766TIP3    H226934   1.903   0.867   8.302 -0.1505  1.2035 -0.8659
 1767TIP3   OH226935   1.650   2.059   6.738 -0.0550 -0.1282 -0.0943
 1767TIP3    H126936   1.630   1.979   6.690  1.0564  0.7906 -2.2361
 1767TIP3    H226937   1.733   2.041   6.782 -0.0333 -0.3023 -0.2080
 1768TIP3   OH226938   1.674   5.680   6.301 -0.0473  0.1246  0.7981
 1768TIP3    H126939   1.711   5.609   6.354  0.5394  0.6454  1.1037
 1768TIP3    H226940   1.679   5.757   6.358  1.3003  0.8642 -0.2733
 1769TIP3   OH226941   1.486   3.053   0.274  0.4739  0.3745 -0.6271
 1769TIP3    H126942   1.488   3.148   0.277 -0.3995  0.3701  0.9737
 1769TIP3    H226943   1.538   3.025   0.349 -0.7169 -0.3773 -0.0473
 1770TIP3   OH226944   1.995   2.473   0.537 -0.6732  0.4083 -0.0581
 1770TIP3    H126945   1.972   2.407   0.603  2.2908  0.1643  0.8491
 1770TIP3    H226946   1.997   2.556   0.586  0.3084  0.4226 -0.1171
 1771TIP3   OH226947   6.149   0.308   6.949  0.2429  0.2348 -0.2481
 1771TIP3    H126948   6.184   0.397   6.944 -1.0658  0.7943  0.1822
 1771TIP3    H226949   6.225   0.255   6.975  1.5383  0.8591 -2.4408
 1772TIP3   OH226950   5.519   2.353   7.803 -0.6393 -0.5164  0.1694
 1772TIP3    H126951   5.442   2.299   7.784 -0.4664 -0.8525  0.4194
 1772TIP3    H226952   5.593   2.302   7.771 -0.5876  0.2064 -0.9013
 1773TIP3   OH226953   4.694   2.298   8.927 -0.2478  0.3831 -0.7422
 1773TIP3    H126954   4.642   2.371   8.893 -1.3562 -0.3649 -0.7214
 1773TIP3    H226955   4.642   2.264   9.000  0.7933  0.2683 -0.0406
 1774TIP3   OH226956   2.657   0.607   1.195  0.3726 -0.4886  0.6985
 1774TIP3    H126957   2.719   0.643   1.259  2.0526  0.8120 -1.4994
 1774TIP3    H226958   2.648   0.515   1.219  1.9550 -0.3361  2.0337
 1775TIP3   OH226959   2.374   3.047   7.620  0.5417 -0.5189 -0.4075
 1775TIP3    H126960   2.417   3.023   7.702  2.1637  1.2538 -0.6452
 1775TIP3    H226961   2.298   3.099   7.647  0.9075 -0.1812 -0.0087
 1776TIP3   OH226962   5.879   1.320   8.004  0.1186  0.3173 -0.5037
 1776TIP3    H126963   5.875   1.397   8.060  0.0790  0.0915 -0.1972
 1776TIP3    H226964   5.962   1.278   8.025  0.5970  0.7960 -1.3633
 1777TIP3   OH226965   1.748   0.680   1.608  0.2957 -0.6704  0.2882
 1777TIP3    H126966   1.729   0.773   1.592  1.2184 -0.7556 -1.5610
 1777TIP3    H226967   1.748   0.671   1.703  1.3329  1.4790  0.5402
 1778TIP3   OH226968   5.278   3.564   7.749  0.4894  0.8251  0.3557
 1778TIP3    H126969   5.355   3.593   7.799 -0.3372  1.9239  1.0522
 1778TIP3    H226970   5.278   3.620   7.671  0.3942  0.8472  0.3709
 1779TIP3   OH226971   4.735   2.763   1.834 -0.5001 -0.1771 -0.1849
 1779TIP3    H126972   4.690   2.824   1.892  0.7931 -0.5264  1.2284
 1779TIP3    H226973   4.735   2.680   1.881  3.1011  0.1773  0.7643
 1780TIP3   OH226974   5.717   5.394   8.571 -0.2054  1.0462  0.2207
 1780TIP3    H126975   5.646   5.457   8.557  0.0865  0.9580 -2.1183
 1780TIP3    H226976   5.705   5.330   8.501  1.1716  0.0550  0.8571
 1781TIP3   OH226977   1.669   5.013   7.438  0.0457  0.2285 -0.2088
 1781TIP3    H126978   1.589   4.981   7.397  1.1396 -0.8713 -1.5801
 1781TIP3    H226979   1.678   4.962   7.518 -0.4622  0.1774 -0.1796
 1782TIP3   OH226980   6.228   6.019   0.719 -0.1050  0.0124  0.1849
 1782TIP3    H126981   6.164   6.005   0.650  0.0240  0.7593 -0.0963
 1782TIP3    H226982   6.253   5.931   0.747 -1.6079 -0.2981  0.6389
 1783TIP3   OH226983   1.279   3.187   1.081  0.1774  0.9684 -0.0283
 1783TIP3    H126984   1.236   3.173   0.997 -3.5961  1.3108  1.6271
 1783TIP3    H226985   1.257   3.277   1.105  1.8361  1.1453  1.0166
 1784TIP3   OH226986   1.199   0.815   8.141  0.1146 -0.1550  0.0563
 1784TIP3    H126987   1.259   0.775   8.205 -0.1823  0.0489  0.4644
 1784TIP3    H226988   1.146   0.876   8.193  1.7178  2.0943 -0.8317
 1785TIP3   OH226989   5.472   1.370   7.388 -0.2074  0.4009  0.1260
 1785TIP3    H126990   5.469   1.412   7.474  1.7032 -2.7276  1.9122
 1785TIP3    H226991   5.409   1.298   7.393 -0.9308  0.8509 -1.5942
 1786TIP3   OH226992   4.237   0.283   1.280  0.4916 -0.6266 -0.7065
 1786TIP3    H126993   4.225   0.215   1.213 -1.8347 -1.3932  0.3853
 1786TIP3    H226994   4.164   0.343   1.265  0.9381  0.1216  0.0705
 1787TIP3   OH226995   4.154   3.345   8.850 -0.2020  0.2914  0.3111
 1787TIP3    H126996   4.123   3.271   8.797  0.7928  0.3675 -0.4079
 1787TIP3    H226997   4.215   3.391   8.793  0.2846  0.8483  1.2602
 1788TIP3   OH226998   6.770   4.509   1.223  0.0042 -0.5196 -0.4583
 1788TIP3    H126999   6.716   4.555   1.287  3.2154 -0.5018  2.5259
 1788TIP3    H227000   6.729   4.422   1.215 -1.3091 -0.0140  0.4442
 1789TIP3   OH227001   0.910   0.652   1.377 -0.2519 -0.4694  0.4876
 1789TIP3    H127002   0.864   0.674   1.296 -0.6536 -2.4032  0.1463
 1789TIP3    H227003   0.842   0.620   1.436  0.1765 -0.0074  1.2540
 1790TIP3   OH227004   3.747   6.600   8.395  0.2675  0.2765  0.3980
 1790TIP3    H127005   3.772   6.522   8.444  1.8889 -0.0878 -0.8826
 1790TIP3    H227006   3.668   6.575   8.348 -0.0319 -0.1032  1.0861
 1791TIP3   OH227007   4.162   6.684   7.383  0.3475 -0.5459  0.4277
 1791TIP3    H127008   4.067   6.682   7.389  0.3156  0.1461  0.2710
 1791TIP3    H227009   4.192   6.691   7.474  0.2081  0.2691  0.4176
 1792TIP3   OH227010   5.378   5.033   0.331  0.3086 -0.1433  0.2298
 1792TIP3    H127011   5.345   5.113   0.290  1.1748 -0.5262 -1.3091
 1792TIP3    H227012   5.448   5.062   0.389  1.0580  0.1876 -0.8121
 1793TIP3   OH227013   0.179   0.926   7.155  0.2440 -0.0151  0.9594
 1793TIP3    H127014   0.257   0.929   7.211  0.3661  1.0149  0.7596
 1793TIP3    H227015   0.105   0.932   7.217  0.3813  1.2822  1.0436
 1794TIP3   OH227016   4.753   6.692   8.260 -0.1816  0.3569  0.3354
 1794TIP3    H127017   4.667   6.650   8.258  0.5861 -1.2661 -0.4677
 1794TIP3    H227018   4.807   6.632   8.311  0.7098  0.9045  0.0521
 1795TIP3   OH227019   2.524   2.703   8.002 -0.2497 -0.1279 -0.4082
 1795TIP3    H127020   2.550   2.695   8.094  1.2318  1.4892 -0.6449
 1795TIP3    H227021   2.523   2.613   7.970 -0.8035 -0.7301  1.1652
 1796TIP3   OH227022   4.254   3.628   0.847  0.4155  0.4342 -0.5272
 1796TIP3    H127023   4.217   3.707   0.807 -0.3110  0.6237  0.4739
 1796TIP3    H227024   4.349   3.636   0.834  0.2315  0.7460 -1.7129
 1797TIP3   OH227025   4.670   6.731   0.539  0.1090  0.2162 -0.1646
 1797TIP3    H127026   4.696   6.790   0.609 -1.1360  0.4186  0.1594
 1797TIP3    H227027   4.607   6.781   0.487 -1.1718 -0.8865  0.2659
 1798TIP3   OH227028   0.867   0.179   1.121  0.1759 -0.2502  0.1849
 1798TIP3    H127029   0.804   0.157   1.189  0.8435 -2.0695  0.2536
 1798TIP3    H227030   0.883   0.097   1.075  1.3246  0.5031 -0.8293
 1799TIP3   OH227031   0.942   2.743   0.075  0.3459  0.3033 -0.1999
 1799TIP3    H127032   0.980   2.831   0.079 -0.7676  0.7796  0.8919
 1799TIP3    H227033   0.851   2.758   0.049  0.6760 -0.7382 -2.0891
 1800TIP3   OH227034   4.150   1.731   8.804  0.1466 -0.4002 -0.0379
 1800TIP3    H127035   4.234   1.731   8.850 -0.6002 -2.0435  1.4219
 1800TIP3    H227036   4.174   1.742   8.712  1.9655 -0.8786  0.3286
 1801TIP3   OH227037   5.472   3.631   7.918  0.0475  0.1201  0.1656
 1801TIP3    H127038   5.519   3.697   7.970 -0.6181  0.3848  0.4508
 1801TIP3    H227039   5.503   3.547   7.952  1.0410  0.2839 -0.3271
 1802TIP3   OH227040   3.813   4.604   7.633 -0.0856 -0.2363  0.1348
 1802TIP3    H127041   3.841   4.554   7.710  3.4229 -0.3698 -1.0377
 1802TIP3    H227042   3.784   4.538   7.571 -2.4515 -0.1621  1.0694
 1803TIP3   OH227043   5.215   2.057   1.446 -0.5216 -0.1571 -0.7160
 1803TIP3    H127044   5.299   2.088   1.410  0.4889  1.0656  2.3610
 1803TIP3    H227045   5.150   2.116   1.409  0.6263  1.8792  0.3013
 1804TIP3   OH227046   4.683   1.338   6.426 -0.4600 -0.7609  0.3237
 1804TIP3    H127047   4.591   1.334   6.449 -0.5110 -3.4532 -0.0865
 1804TIP3    H227048   4.692   1.421   6.377 -2.4420 -0.0587  1.0720
 1805TIP3   OH227049   6.758   5.433   7.282  0.0760  0.0852 -0.5055
 1805TIP3    H127050   6.826   5.490   7.318 -0.0857  0.2249 -0.4160
 1805TIP3    H227051   6.734   5.376   7.356 -0.1799  0.2993 -0.4193
 1806TIP3   OH227052   1.987   5.771   1.748 -0.1848  0.1607  0.8346
 1806TIP3    H127053   1.893   5.759   1.759 -0.5871  0.7271 -1.4315
 1806TIP3    H227054   2.005   5.742   1.659  1.7085  0.5331  1.0430
 1807TIP3   OH227055   3.728   2.283   8.206  0.0362 -0.0087 -0.6252
 1807TIP3    H127056   3.810   2.257   8.247 -0.1165 -0.1020 -0.3772
 1807TIP3    H227057   3.753   2.311   8.118  0.4426  0.7174 -0.2911
 1808TIP3   OH227058   2.307   4.850   0.467 -0.1857 -0.4664  0.1808
 1808TIP3    H127059   2.231   4.827   0.520 -1.0439 -0.9048 -1.1687
 1808TIP3    H227060   2.369   4.777   0.481  0.8557  0.7831  2.7405
 1809TIP3   OH227061   3.395   3.450   8.616 -0.1005  0.8590 -0.2136
 1809TIP3    H127062   3.338   3.430   8.690 -0.1293 -0.0386 -0.4578
 1809TIP3    H227063   3.473   3.397   8.630 -0.1147  0.6576 -0.8241
 1810TIP3   OH227064   4.932   5.925   0.585  0.0897  0.8253  0.3711
 1810TIP3    H127065   4.912   5.903   0.676  0.8665 -1.0150  0.1395
 1810TIP3    H227066   5.025   5.907   0.576  0.1405  1.5136 -0.6562
 1811TIP3   OH227067   3.704   6.568   0.379  0.0390 -0.2711  0.1725
 1811TIP3    H127068   3.764   6.584   0.306  0.7031 -0.4598  0.6659
 1811TIP3    H227069   3.749   6.605   0.455 -0.3374 -0.6869  0.6014
 1812TIP3   OH227070   6.499   5.452   0.298 -0.5624 -0.2496 -0.0821
 1812TIP3    H127071   6.580   5.418   0.334 -0.8605 -1.0511 -0.1468
 1812TIP3    H227072   6.474   5.523   0.357 -0.2226 -0.5088  0.3794
 1813TIP3   OH227073   1.426   5.433   1.436 -0.4126 -0.0068 -0.3582
 1813TIP3    H127074   1.430   5.454   1.530  2.5615  1.1353 -0.6156
 1813TIP3    H227075   1.383   5.509   1.396  0.5187  0.6651 -0.1280
 1814TIP3   OH227076   1.524   3.713   0.439 -0.0692 -0.1269  0.3181
 1814TIP3    H127077   1.526   3.795   0.489 -1.3322 -0.3676  0.8004
 1814TIP3    H227078   1.587   3.656   0.484 -1.4368 -0.4650  1.8942
 1815TIP3   OH227079   6.489   2.624   7.793 -0.4733 -0.2589 -0.2735
 1815TIP3    H127080   6.424   2.572   7.746 -0.7193  0.6228 -0.9515
 1815TIP3    H227081   6.565   2.567   7.801 -1.1438 -1.1304  0.0775
 1816TIP3   OH227082   4.822   2.164   0.204  0.2918  0.0823  0.1230
 1816TIP3    H127083   4.786   2.108   0.273 -0.2934  1.2231  0.7851
 1816TIP3    H227084   4.905   2.123   0.180 -0.4031 -1.4029  0.1229
 1817TIP3   OH227085   2.484   0.214   7.380 -0.8247 -0.1360  0.3697
 1817TIP3    H127086   2.552   0.188   7.318  0.2407  1.2522  0.8941
 1817TIP3    H227087   2.405   0.222   7.327 -0.2254 -0.2376 -0.5604
 1818TIP3   OH227088   4.450   4.937   8.378 -0.3391 -0.3036  0.0010
 1818TIP3    H127089   4.367   4.929   8.425 -0.4879 -0.8634 -0.3501
 1818TIP3    H227090   4.436   5.009   8.317 -0.7128 -0.6653 -0.3462
 1819TIP3   OH227091   5.621   2.955   1.962 -0.5758 -0.5773 -0.1605
 1819TIP3    H127092   5.682   2.943   2.034 -1.4905 -0.0725  0.7131
 1819TIP3    H227093   5.675   2.941   1.883  0.4460 -1.0507  0.5954
 1820TIP3   OH227094   4.413   1.861   8.821 -0.5819  0.4719 -0.4266
 1820TIP3    H127095   4.458   1.839   8.902 -1.1376  0.3235 -0.1537
 1820TIP3    H227096   4.344   1.923   8.848 -1.0061  0.1323 -0.7252
 1821TIP3   OH227097   0.237   2.893   1.098  0.5431  0.3341  0.5026
 1821TIP3    H127098   0.233   2.982   1.064  0.5791  0.6138  1.1984
 1821TIP3    H227099   0.297   2.847   1.039 -0.2544  0.4951 -0.4471
 1822TIP3   OH227100   2.217   5.174   1.112  0.6456 -0.3573  0.6549
 1822TIP3    H127101   2.143   5.121   1.142  1.2469 -0.4546  2.0760
 1822TIP3    H227102   2.293   5.117   1.124  1.2024  0.5056  1.3662
 1823TIP3   OH227103   3.951   1.787   7.427 -0.4156 -0.2245 -0.1192
 1823TIP3    H127104   3.866   1.830   7.429 -0.2245  0.4030 -2.6574
 1823TIP3    H227105   3.945   1.725   7.355  1.5301  0.4425 -0.9233
 1824TIP3   OH227106   1.814   5.734   2.040 -0.3357  0.1364  0.8022
 1824TIP3    H127107   1.870   5.687   2.102  1.8593 -0.0037 -1.1970
 1824TIP3    H227108   1.835   5.827   2.054  0.2746  0.0946  0.1585
 1825TIP3   OH227109   3.812   4.196   7.500  0.3165  0.6779 -0.3938
 1825TIP3    H127110   3.857   4.147   7.569  1.2522  0.6453 -1.0066
 1825TIP3    H227111   3.742   4.138   7.471 -0.8128  1.1248  1.2608
 1826TIP3   OH227112   3.772   3.210   7.744 -0.1518 -0.0570 -0.3481
 1826TIP3    H127113   3.858   3.169   7.746 -1.0718 -2.4066 -3.1226
 1826TIP3    H227114   3.726   3.174   7.820  0.5358 -0.5862 -0.1790
 1827TIP3   OH227115   3.471   0.912   8.958  0.0775 -0.6414 -0.0059
 1827TIP3    H127116   3.451   0.819   8.961 -0.5341 -0.5587 -1.2330
 1827TIP3    H227117   3.463   0.936   8.866  1.0010  0.4654  0.1749
 1828TIP3   OH227118   5.094   0.770   1.504  0.0749 -0.0597  0.4099
 1828TIP3    H127119   5.081   0.700   1.440 -0.2170  0.3920 -0.0390
 1828TIP3    H227120   5.019   0.828   1.491  1.2287  1.3149 -0.5249
 1829TIP3   OH227121   4.867   5.543   8.917  0.7158 -0.2797 -0.6161
 1829TIP3    H127122   4.914   5.536   8.835  0.8046  1.8165 -0.8010
 1829TIP3    H227123   4.925   5.592   8.975 -0.1694  0.0795  0.0051
 1830TIP3   OH227124   2.552   5.437   1.171  0.1772 -0.2204  0.0786
 1830TIP3    H127125   2.562   5.355   1.123  0.4264 -1.0300  1.4619
 1830TIP3    H227126   2.629   5.442   1.227 -1.5087 -0.9137  2.6768
 1831TIP3   OH227127   4.717   5.854   7.394 -0.2984 -0.5465  0.2101
 1831TIP3    H127128   4.631   5.852   7.435 -0.0011  0.0800  0.8800
 1831TIP3    H227129   4.777   5.825   7.463  0.2282  0.6754  0.2922
 1832TIP3   OH227130   3.000   4.178   0.229  0.1104 -0.4293 -0.6324
 1832TIP3    H127131   2.946   4.185   0.150 -0.6921  0.4288 -0.0249
 1832TIP3    H227132   3.027   4.086   0.231 -1.5609 -0.9733 -0.8269
 1833TIP3   OH227133   0.288   5.879   7.443 -0.1328  0.2238 -0.0786
 1833TIP3    H127134   0.372   5.833   7.447  0.5156  1.0579 -2.3340
 1833TIP3    H227135   0.261   5.890   7.534  2.4241  0.3128  0.7253
 1834TIP3   OH227136   3.666   3.231   8.339  0.5573  0.1850  0.5359
 1834TIP3    H127137   3.626   3.147   8.320 -0.6153  0.8839 -0.1964
 1834TIP3    H227138   3.750   3.229   8.292  0.1775 -0.2694 -0.1329
 1835TIP3   OH227139   0.773   0.232   6.688  0.0387  0.2528  0.4989
 1835TIP3    H127140   0.684   0.199   6.677  0.3547 -0.5839  0.3432
 1835TIP3    H227141   0.825   0.154   6.706  0.9076  0.5976 -0.4082
 1836TIP3   OH227142   2.472   3.081   0.395 -0.2558  0.4423  0.2457
 1836TIP3    H127143   2.395   3.068   0.451 -0.4384 -0.2878 -0.1759
 1836TIP3    H227144   2.479   3.001   0.344  1.0020  0.3548  0.5376
 1837TIP3   OH227145   4.950   5.583   6.699  0.2481  0.2483  0.0644
 1837TIP3    H127146   4.890   5.652   6.673  2.0388  1.2100 -1.8029
 1837TIP3    H227147   4.965   5.597   6.792 -2.7086 -0.3491  0.7318
 1838TIP3   OH227148   0.235   4.355   7.184  0.6116  0.1068  0.0462
 1838TIP3    H127149   0.241   4.400   7.269  2.4684  0.5101 -0.2705
 1838TIP3    H227150   0.220   4.264   7.207 -0.8690  0.4791  0.7395
 1839TIP3   OH227151   0.645   2.268   7.470 -0.1556 -0.0964 -0.5382
 1839TIP3    H127152   0.662   2.360   7.449 -0.0451  0.0722  0.2312
 1839TIP3    H227153   0.732   2.230   7.483 -0.2461  0.2402  1.2972
 1840TIP3   OH227154   4.824   4.497   0.100 -0.0335 -0.6732  0.1012
 1840TIP3    H127155   4.876   4.577   0.098 -0.4735 -0.3953 -0.6118
 1840TIP3    H227156   4.884   4.430   0.133  0.9586 -0.4791 -1.2135
 1841TIP3   OH227157   6.397   4.343   0.163 -0.1932  0.5126 -0.1175
 1841TIP3    H127158   6.401   4.361   0.257  1.9264  0.6739 -0.1929
 1841TIP3    H227159   6.363   4.424   0.124  1.0867  1.2802  0.3176
 1842TIP3   OH227160   1.615   3.189   0.720 -0.2072  0.0790 -0.2047
 1842TIP3    H127161   1.570   3.261   0.765 -2.1295 -0.6296 -0.8589
 1842TIP3    H227162   1.591   3.111   0.769  1.7189 -0.1857  0.3931
 1843TIP3   OH227163   1.690   1.878   1.870 -0.2264  0.0515  0.2740
 1843TIP3    H127164   1.780   1.846   1.868  0.6342  2.2199  0.8939
 1843TIP3    H227165   1.653   1.842   1.950 -0.6534 -2.4801 -0.9464
 1844TIP3   OH227166   2.672   1.882   7.428 -0.7191 -0.1282 -0.0621
 1844TIP3    H127167   2.665   1.829   7.348  0.0280  1.2740 -1.1012
 1844TIP3    H227168   2.584   1.917   7.442 -0.1626  2.6665 -2.5255
 1845TIP3   OH227169   3.554   0.079   1.366 -0.4588 -0.0274 -0.1587
 1845TIP3    H127170   3.568   0.015   1.296  0.6590  1.0639 -0.9789
 1845TIP3    H227171   3.494   0.143   1.329 -1.0740 -0.2516  0.4350
 1846TIP3   OH227172   0.976   3.033   7.624  0.0795 -0.4028 -0.0422
 1846TIP3    H127173   0.933   3.034   7.709  0.3826  1.6495  0.1306
 1846TIP3    H227174   1.070   3.037   7.645  0.1675 -0.1898 -0.4727
 1847TIP3   OH227175   0.779   2.347   8.827  1.0687 -0.1356  0.0968
 1847TIP3    H127176   0.686   2.324   8.817  0.4013  2.0189  0.7238
 1847TIP3    H227177   0.790   2.426   8.775  1.7684  1.3226  2.2883
 1848TIP3   OH227178   4.267   1.666   1.407  0.1346 -0.4167  0.1061
 1848TIP3    H127179   4.209   1.730   1.449 -1.7083 -2.8566  1.6312
 1848TIP3    H227180   4.229   1.653   1.320  1.4316  1.5710 -0.8149
 1849TIP3   OH227181   3.223   4.413   0.777 -0.3217  0.5255  0.3777
 1849TIP3    H127182   3.295   4.465   0.814 -1.2171  1.4539  0.8662
 1849TIP3    H227183   3.208   4.452   0.691  1.1467 -1.0474 -0.6755
 1850TIP3   OH227184   3.069   2.753   1.591  0.1537  0.3528 -0.0351
 1850TIP3    H127185   3.040   2.844   1.603 -0.5199 -0.1378  3.0191
 1850TIP3    H227186   3.160   2.760   1.563 -0.1449  1.9566 -0.7264
 1851TIP3   OH227187   4.051   1.673   0.400  0.8320 -0.1766  0.6709
 1851TIP3    H127188   4.012   1.592   0.367  0.0349  0.1487  0.7832
 1851TIP3    H227189   3.976   1.730   0.419  1.3574  0.4038  1.0666
 1852TIP3   OH227190   2.630   2.111   8.347 -0.3073  0.1061 -0.0213
 1852TIP3    H127191   2.697   2.130   8.282 -0.5254 -0.5514 -0.4455
 1852TIP3    H227192   2.552   2.156   8.315 -0.3303  0.0491 -0.0447
 1853TIP3   OH227193   5.964   1.811   6.840  0.0476  0.3659 -0.0478
 1853TIP3    H127194   5.872   1.797   6.818  0.7091  0.7751 -3.7192
 1853TIP3    H227195   5.980   1.754   6.915 -2.8394 -0.7728 -0.1824
 1854TIP3   OH227196   6.153   5.496   1.350  0.6757 -0.5074  0.0395
 1854TIP3    H127197   6.203   5.577   1.339 -0.0709 -0.3121 -2.5828
 1854TIP3    H227198   6.063   5.521   1.334  0.6544 -2.1759 -3.1135
 1855TIP3   OH227199   1.624   2.641   7.300 -0.3693 -0.2518 -0.1675
 1855TIP3    H127200   1.711   2.636   7.339 -0.5899  2.0143  0.7842
 1855TIP3    H227201   1.637   2.616   7.209  1.4880  0.9372 -0.2815
 1856TIP3   OH227202   5.044   0.912   0.094  0.3831 -0.4893 -0.6667
 1856TIP3    H127203   4.953   0.941   0.085  0.6936  1.1810  0.8157
 1856TIP3    H227204   5.067   0.937   0.184  3.1122  1.6164 -1.8359
 1857TIP3   OH227205   5.567   1.883   7.195  0.1208  0.7814  0.0360
 1857TIP3    H127206   5.573   1.831   7.115 -1.4342  1.6406 -0.6778
 1857TIP3    H227207   5.636   1.848   7.251 -0.7380 -1.9265 -0.4595
 1858TIP3   OH227208   5.056   5.778   7.504  0.2314 -0.2019 -0.1582
 1858TIP3    H127209   5.064   5.833   7.426  0.3826 -0.1013 -0.0711
 1858TIP3    H227210   5.032   5.692   7.470  1.7876 -0.5550 -0.4319
 1859TIP3   OH227211   0.178   5.129   7.661  0.0771 -0.0858  0.3302
 1859TIP3    H127212   0.242   5.166   7.601  0.3598 -1.3771 -0.1969
 1859TIP3    H227213   0.124   5.204   7.688  2.6177  1.3248  1.8966
 1860TIP3   OH227214   2.785   0.065   8.266  0.2418  0.1796 -0.5840
 1860TIP3    H127215   2.866   0.025   8.235 -0.4321  0.3503 -2.7634
 1860TIP3    H227216   2.808   0.156   8.283  0.7941 -0.0876  0.1297
 1861TIP3   OH227217   0.317   3.625   7.276 -0.1282  0.0369 -0.8651
 1861TIP3    H127218   0.281   3.636   7.364 -1.7506  0.5103 -1.5412
 1861TIP3    H227219   0.403   3.586   7.290 -0.7295 -0.7765  0.8833
 1862TIP3   OH227220   2.857   4.185   2.087 -0.6174  0.3338 -0.3503
 1862TIP3    H127221   2.861   4.203   2.181  2.3464 -0.7219 -0.1775
 1862TIP3    H227222   2.919   4.246   2.048 -0.7645 -0.1852 -1.4437
 1863TIP3   OH227223   5.400   6.350   2.292  0.6683 -0.1654  0.2884
 1863TIP3    H127224   5.307   6.333   2.300  0.5671  0.2901  0.1028
 1863TIP3    H227225   5.408   6.445   2.299  0.7328  0.1906 -2.9977
 1864TIP3   OH227226   1.341   0.713   8.419 -0.2421 -0.2633  0.4658
 1864TIP3    H127227   1.436   0.718   8.434 -0.2146  1.1597 -0.0019
 1864TIP3    H227228   1.319   0.622   8.438  1.1470 -0.5264  0.9895
 1865TIP3   OH227229   5.328   0.403   7.537 -0.2246  0.8536  0.3544
 1865TIP3    H127230   5.380   0.414   7.458 -0.6292  0.6385  0.0559
 1865TIP3    H227231   5.242   0.373   7.506 -1.1963  3.1198  0.6625
 1866TIP3   OH227232   0.247   5.494   6.490  0.4004  0.1969  0.1462
 1866TIP3    H127233   0.308   5.461   6.424 -0.5136  0.6733 -0.9684
 1866TIP3    H227234   0.215   5.577   6.454 -0.0777  0.5061  1.2260
 1867TIP3   OH227235   2.812   5.235   8.217  0.4737  0.0624 -0.2179
 1867TIP3    H127236   2.749   5.219   8.288 -0.7793 -0.4649 -1.4075
 1867TIP3    H227237   2.829   5.329   8.220  1.3544 -0.1129  1.4960
 1868TIP3   OH227238   2.338   3.943   7.922 -0.4705  0.0971  0.5937
 1868TIP3    H127239   2.248   3.928   7.894 -0.4633 -0.6141  0.9224
 1868TIP3    H227240   2.332   4.009   7.991 -0.7470 -0.0212  0.6806
 1869TIP3   OH227241   3.284   2.366   7.838 -0.3020  0.2124  0.3060
 1869TIP3    H127242   3.189   2.365   7.848 -0.3043 -2.7394  1.0533
 1869TIP3    H227243   3.315   2.300   7.900  2.2486  1.0323  0.0287
 1870TIP3   OH227244   6.730   1.281   8.177  0.6781 -0.0568 -0.2168
 1870TIP3    H127245   6.790   1.230   8.233  0.5153  0.7312  0.7045
 1870TIP3    H227246   6.767   1.273   8.090  0.5564 -1.9055 -0.1478
 1871TIP3   OH227247   5.098   2.492   7.560  0.2616  0.1257 -0.6681
 1871TIP3    H127248   5.192   2.508   7.549  0.6671 -1.0557  0.7900
 1871TIP3    H227249   5.068   2.564   7.617  0.2649  0.5033 -1.1357
 1872TIP3   OH227250   1.409   5.210   7.080  0.3503  0.9373  0.0442
 1872TIP3    H127251   1.401   5.263   7.001  1.8113  0.7363 -0.2783
 1872TIP3    H227252   1.322   5.174   7.094 -0.3683  2.3929 -0.4490
 1873TIP3   OH227253   2.774   5.389   2.607 -0.4818 -0.1330  0.3598
 1873TIP3    H127254   2.730   5.449   2.546 -0.0398 -1.9030 -1.8319
 1873TIP3    H227255   2.868   5.408   2.594 -0.4167  0.4917  1.6314
 1874TIP3   OH227256   4.991   2.777   2.403 -0.4914 -0.4609  0.3000
 1874TIP3    H127257   4.918   2.716   2.400  0.1520 -1.2210 -1.2116
 1874TIP3    H227258   5.043   2.749   2.479  0.0671 -2.1689 -0.6670
 1875TIP3   OH227259   3.136   5.776   7.859 -0.0577 -0.9355  0.1850
 1875TIP3    H127260   3.165   5.836   7.790 -3.6200  0.0061 -0.7005
 1875TIP3    H227261   3.217   5.747   7.901  2.0455  1.7152 -1.6703
 1876TIP3   OH227262   5.060   6.351   8.098  0.0631 -0.5442  0.3399
 1876TIP3    H127263   5.152   6.375   8.103 -0.0010 -0.1528 -0.3099
 1876TIP3    H227264   5.052   6.276   8.157  0.5902  0.0179  1.1583
 1877TIP3   OH227265   0.965   2.184   8.752  0.5813 -0.7386  0.1938
 1877TIP3    H127266   1.052   2.221   8.769 -0.3481  1.5832  0.2747
 1877TIP3    H227267   0.905   2.242   8.797 -1.1955 -0.7379 -1.9885
 1878TIP3   OH227268   2.869   1.544   6.973 -0.3537 -0.1213  0.2372
 1878TIP3    H127269   2.870   1.486   6.897 -2.3323 -0.4492  0.4222
 1878TIP3    H227270   2.954   1.589   6.969  1.6115 -3.4397  0.4503
 1879TIP3   OH227271   1.128   5.704   8.693 -1.1446 -0.2739  0.1947
 1879TIP3    H127272   1.220   5.709   8.666 -1.3367 -1.0901 -0.6538
 1879TIP3    H227273   1.079   5.717   8.612 -1.7671 -0.4900  0.5359
 1880TIP3   OH227274   0.758   1.005   1.607  0.0119 -0.2507 -0.0213
 1880TIP3    H127275   0.667   1.022   1.629  0.2674  0.9540  0.2017
 1880TIP3    H227276   0.805   1.082   1.640  1.2321 -1.2644  0.6811
 1881TIP3   OH227277   3.186   1.449   6.779 -0.3752  0.2402 -0.0765
 1881TIP3    H127278   3.254   1.408   6.726 -1.4789  0.0987 -1.4404
 1881TIP3    H227279   3.148   1.377   6.829  0.0737  0.2248  0.2504
 1882TIP3   OH227280   2.889   4.357   2.684 -0.0116  0.1527  0.1531
 1882TIP3    H127281   2.908   4.269   2.717 -1.7140 -0.5889 -0.7487
 1882TIP3    H227282   2.968   4.381   2.635  0.3958 -0.9739  0.2147
 1883TIP3   OH227283   6.068   0.117   1.273  0.1785 -0.7233  0.2017
 1883TIP3    H127284   5.978   0.136   1.300 -0.1958 -0.2688 -1.2361
 1883TIP3    H227285   6.107   0.203   1.258 -0.7409 -0.7989 -3.9425
 1884TIP3   OH227286   2.704   0.854   0.480  0.2426  0.2464 -0.5351
 1884TIP3    H127287   2.795   0.835   0.500 -0.3718 -1.4824  0.8075
 1884TIP3    H227288   2.693   0.947   0.501  1.6037  0.3946 -0.4347
 1885TIP3   OH227289   2.396   2.883   7.352 -0.5265  0.3441 -0.4059
 1885TIP3    H127290   2.367   2.908   7.440 -0.8389 -1.3209 -0.0017
 1885TIP3    H227291   2.482   2.924   7.343 -1.0015  1.5142  0.2105
 1886TIP3   OH227292   3.893   6.572   7.402  0.2722 -0.1686  0.0527
 1886TIP3    H127293   3.938   6.489   7.388  3.1489  1.2735 -0.1392
 1886TIP3    H227294   3.801   6.554   7.381  0.5428 -3.5296  1.1835
 1887TIP3   OH227295   5.764   5.565   6.866  0.5411  0.1856 -0.3201
 1887TIP3    H127296   5.828   5.581   6.797 -0.5848  2.8078 -0.8900
 1887TIP3    H227297   5.815   5.574   6.947  1.4887 -1.0183 -0.7519
 1888TIP3   OH227298   4.946   0.066   0.088  0.1251 -0.2585  0.2628
 1888TIP3    H127299   5.040   0.063   0.074 -0.0945  0.2169 -1.4736
 1888TIP3    H227300   4.926  -0.016   0.134  1.5815  0.4063  2.2444
 1889TIP3   OH227301   2.863   1.729   2.222 -0.3761  0.1861  0.1230
 1889TIP3    H127302   2.950   1.694   2.240 -0.6868 -0.6477  0.0314
 1889TIP3    H227303   2.862   1.814   2.267  0.8694  0.7223 -0.8158
 1890TIP3   OH227304   1.446   5.482   1.844  0.2476 -0.1697 -0.1602
 1890TIP3    H127305   1.522   5.443   1.800 -1.2692 -3.0170 -0.5021
 1890TIP3    H227306   1.453   5.449   1.934  0.6829  1.5850  0.4816
 1891TIP3   OH227307   2.099   6.439   7.519  0.0023 -0.5162  0.1171
 1891TIP3    H127308   2.188   6.411   7.538  0.2707 -0.1514 -0.5836
 1891TIP3    H227309   2.053   6.431   7.602  1.1225  0.9869  0.9140
 1892TIP3   OH227310   2.432   4.443   6.895  0.6381 -0.6326  0.4903
 1892TIP3    H127311   2.456   4.366   6.843  0.7193  0.5869 -1.3993
 1892TIP3    H227312   2.456   4.517   6.839 -0.3030  0.7595  1.8552
 1893TIP3   OH227313   0.639   2.492   1.439  0.4798  0.4682 -0.0416
 1893TIP3    H127314   0.617   2.573   1.393 -0.6009  0.4449  0.4176
 1893TIP3    H227315   0.735   2.489   1.437  0.7157  3.1655  2.3213
 1894TIP3   OH227316   2.504   2.430   8.005  0.4067  0.0935 -0.1161
 1894TIP3    H127317   2.417   2.443   7.970  1.0467  2.5762 -1.0366
 1894TIP3    H227318   2.490   2.386   8.089 -1.6171 -0.4182 -0.6716
 1895TIP3   OH227319   2.596   2.067   1.843  0.2817 -0.3710 -0.2734
 1895TIP3    H127320   2.589   2.157   1.811  0.6969 -0.2360  0.0076
 1895TIP3    H227321   2.524   2.021   1.800 -0.7024  0.3696  0.5274
 1896TIP3   OH227322   0.240   3.383   8.252  0.6508  0.2770 -0.0067
 1896TIP3    H127323   0.311   3.365   8.313  2.6313  2.6259 -1.4480
 1896TIP3    H227324   0.266   3.340   8.170 -1.0128 -1.1924  0.1857
 1897TIP3   OH227325   1.969   0.363   7.997  0.0186  0.3937 -0.4002
 1897TIP3    H127326   1.891   0.343   7.944 -0.9784 -1.2778  1.5495
 1897TIP3    H227327   2.013   0.433   7.949 -1.6647  0.0879 -2.5674
 1898TIP3   OH227328   0.002   1.707   1.864  0.5290 -0.3704 -0.5440
 1898TIP3    H127329   0.047   1.772   1.918 -1.2393  2.8685 -2.6190
 1898TIP3    H227330   0.047   1.625   1.882  2.3644  1.1857  2.9619
 1899TIP3   OH227331   4.617   4.724   2.231 -0.5013  0.0154 -0.1459
 1899TIP3    H127332   4.705   4.743   2.263  0.0930 -1.0524 -1.0631
 1899TIP3    H227333   4.559   4.750   2.302  0.5653  0.5697  0.5429
 1900TIP3   OH227334   0.952   3.097   8.856 -0.8070  0.2223 -0.0884
 1900TIP3    H127335   0.959   3.010   8.817  0.8540  0.2795 -0.0063
 1900TIP3    H227336   1.043   3.125   8.867 -1.3039  1.5480  0.8360
 1901TIP3   OH227337   3.719   4.690   0.802  0.1693  0.1808 -0.3174
 1901TIP3    H127338   3.797   4.692   0.745  0.8625  0.1041  0.6087
 1901TIP3    H227339   3.738   4.755   0.870  0.8251 -2.0128  1.7076
 1902TIP3   OH227340   3.610   4.751   6.544  0.1589  0.5510  0.1267
 1902TIP3    H127341   3.676   4.812   6.512 -0.4196  0.9841 -0.2625
 1902TIP3    H227342   3.541   4.753   6.478  0.6835 -1.5026 -0.5547
 1903TIP3   OH227343   2.060   5.197   7.529 -0.1609  0.3843 -0.4898
 1903TIP3    H127344   2.047   5.102   7.523  1.0123  0.1118  0.8155
 1903TIP3    H227345   1.983   5.229   7.576  0.4988 -0.2530  1.0769
 1904TIP3   OH227346   1.330   2.850   8.604 -0.1090 -0.0798 -0.2869
 1904TIP3    H127347   1.398   2.843   8.671  1.7079  1.4828 -1.8197
 1904TIP3    H227348   1.364   2.799   8.531  0.2209  1.8853 -1.5986
 1905TIP3   OH227349   1.164   2.397   6.922 -0.2145 -0.2494 -0.1336
 1905TIP3    H127350   1.223   2.472   6.924  0.7129 -0.9787  1.1525
 1905TIP3    H227351   1.161   2.372   6.829  0.1806  0.7973 -0.4482
 1906TIP3   OH227352   1.446   1.069   1.262 -0.5035  0.0749  0.8119
 1906TIP3    H127353   1.483   0.982   1.275 -1.5114 -0.4634  0.2595
 1906TIP3    H227354   1.495   1.125   1.321  1.6948 -0.4280 -0.4239
 1907TIP3   OH227355   2.970   3.286   6.716 -0.2443  0.3041  0.4111
 1907TIP3    H127356   2.950   3.215   6.655 -0.4076  0.3097  0.4574
 1907TIP3    H227357   3.062   3.308   6.699  0.1759 -0.7256  1.2043
 1908TIP3   OH227358   0.409   5.941   1.011 -0.3951  0.0716  0.8653
 1908TIP3    H127359   0.434   5.917   0.921  0.9411 -1.0610  1.5041
 1908TIP3    H227360   0.422   5.861   1.062  2.5903  1.6172  2.7798
 1909TIP3   OH227361   6.021   2.966   8.876 -0.2649  0.5748  0.0423
 1909TIP3    H127362   6.031   2.891   8.819  0.8687 -0.7266  1.8390
 1909TIP3    H227363   6.027   3.042   8.818 -0.3859 -0.6800 -1.6771
 1910TIP3   OH227364   3.124   6.121   0.368  0.1984 -0.0543  0.1636
 1910TIP3    H127365   3.149   6.132   0.460  0.5572  0.9619 -0.0400
 1910TIP3    H227366   3.029   6.130   0.369  0.2949  1.2238  0.2973
 1911TIP3   OH227367   6.731   0.800   0.407  0.0746  0.3193  0.0399
 1911TIP3    H127368   6.811   0.773   0.453 -1.1143 -2.8585  0.4954
 1911TIP3    H227369   6.759   0.812   0.317  1.2168  0.1187  0.3445
 1912TIP3   OH227370   4.688   3.028   1.411  0.2766 -0.2972  0.3551
 1912TIP3    H127371   4.645   2.953   1.372  0.0445  0.2368 -0.4337
 1912TIP3    H227372   4.700   3.090   1.339 -2.0598  1.6031  1.4361
 1913TIP3   OH227373   0.366   0.102   1.732  0.3182 -0.2447  0.1258
 1913TIP3    H127374   0.408   0.187   1.718 -0.2655  0.0277 -0.0144
 1913TIP3    H227375   0.424   0.056   1.793  0.2545  0.5448  0.7866
 1914TIP3   OH227376   4.699   4.930   8.277 -0.2270  0.3861  0.3052
 1914TIP3    H127377   4.615   4.953   8.317  0.4987  0.8967  1.5752
 1914TIP3    H227378   4.685   4.946   8.183 -1.3728  0.9979  0.5584
 1915TIP3   OH227379   5.744   2.142   0.212 -0.0949  0.0573  0.3744
 1915TIP3    H127380   5.652   2.118   0.225 -0.1970  0.1423 -0.1896
 1915TIP3    H227381   5.752   2.159   0.118  0.0855  1.6991  0.6477
 1916TIP3   OH227382   1.857   2.415   7.002  0.4297 -0.3369 -0.2216
 1916TIP3    H127383   1.809   2.484   6.956 -0.4968 -0.6617  0.2237
 1916TIP3    H227384   1.942   2.453   7.022 -0.8596  1.5581  2.1313
 1917TIP3   OH227385   0.648   5.339   1.204 -0.0201  0.3125  0.4442
 1917TIP3    H127386   0.592   5.377   1.272  0.1785 -0.8182  1.2673
 1917TIP3    H227387   0.706   5.411   1.178 -1.9628  1.5797 -0.5910
 1918TIP3   OH227388   0.951   6.668   7.629 -0.7895  0.2557  0.0902
 1918TIP3    H127389   0.910   6.647   7.545 -0.1473  0.4387 -0.2864
 1918TIP3    H227390   0.924   6.758   7.647  0.7997  1.0233 -1.0396
 1919TIP3   OH227391   3.630   5.328   1.686 -0.1516  0.2322 -0.4975
 1919TIP3    H127392   3.705   5.373   1.726  0.4135  0.4096 -1.7152
 1919TIP3    H227393   3.634   5.240   1.722 -0.4576  0.7344  0.8545
 1920TIP3   OH227394   1.230   3.356   0.467  0.0649  0.0443 -0.4919
 1920TIP3    H127395   1.221   3.371   0.561 -0.8975  1.9559 -0.8356
 1920TIP3    H227396   1.312   3.308   0.458 -0.0691 -0.6235  1.3457
 1921TIP3   OH227397   1.849   4.337   1.433 -0.1620 -0.1540 -0.4338
 1921TIP3    H127398   1.928   4.322   1.382  0.1930  1.7468 -0.5035
 1921TIP3    H227399   1.786   4.374   1.371 -0.5660 -0.1350 -0.0232
 1922TIP3   OH227400   5.642   1.708   7.793 -0.0566 -0.1758 -0.4307
 1922TIP3    H127401   5.711   1.687   7.855 -0.4035  1.0065  0.3858
 1922TIP3    H227402   5.565   1.724   7.847 -0.5428  0.1885 -1.2155
 1923TIP3   OH227403   6.476   0.788   0.216  0.4530 -0.1892 -0.3498
 1923TIP3    H127404   6.565   0.756   0.231 -0.0563 -1.2010  0.6853
 1923TIP3    H227405   6.487   0.864   0.160  1.7783 -1.8286 -2.4520
 1924TIP3   OH227406   3.959   3.947   1.108  0.8750 -0.0774  0.5617
 1924TIP3    H127407   3.867   3.966   1.126  1.0665  0.0136  1.4881
 1924TIP3    H227408   3.958   3.859   1.069  0.5054 -0.6542  1.8441
 1925TIP3   OH227409   0.982   3.402   8.201 -0.4512  0.9069  0.0606
 1925TIP3    H127410   1.059   3.383   8.254 -0.9681  1.0672  0.8857
 1925TIP3    H227411   0.909   3.398   8.263 -0.9850  1.8463 -0.4952
 1926TIP3   OH227412   0.543   4.221   7.920  0.7814 -0.3788  0.4639
 1926TIP3    H127413   0.615   4.252   7.866 -0.9610 -0.6643 -2.2335
 1926TIP3    H227414   0.476   4.289   7.913  1.0642  0.4435  3.8516
 1927TIP3   OH227415   3.623   1.538   0.867 -0.4081 -0.3126 -0.1845
 1927TIP3    H127416   3.608   1.632   0.874  1.8059  0.3548 -2.6453
 1927TIP3    H227417   3.546   1.505   0.821  0.0182  0.8646 -1.8487
 1928TIP3   OH227418   3.075   1.086   0.443 -0.2093 -0.2201 -0.8203
 1928TIP3    H127419   3.064   1.004   0.491  1.2496  1.2842  2.3366
 1928TIP3    H227420   2.992   1.131   0.453  0.7659  1.0927  2.6070
 1929TIP3   OH227421   0.305   5.561   8.772  0.1616  0.3732 -0.2152
 1929TIP3    H127422   0.235   5.618   8.803 -0.6586  0.1605 -1.5666
 1929TIP3    H227423   0.261   5.498   8.714  1.1009 -1.3737  0.8685
 1930TIP3   OH227424   5.287   3.535   1.162 -0.0824 -0.2294 -0.6430
 1930TIP3    H127425   5.276   3.505   1.072 -0.5300 -2.1254 -0.0035
 1930TIP3    H227426   5.373   3.577   1.163  0.6142 -1.5536 -1.6129
 1931TIP3   OH227427   6.655   2.828   1.703  0.2560 -0.4274 -0.3318
 1931TIP3    H127428   6.657   2.919   1.673 -0.6645 -0.0640  0.6351
 1931TIP3    H227429   6.745   2.810   1.730  0.5961 -0.0382 -1.1430
 1932TIP3   OH227430   2.695   3.474   8.768 -0.2486  0.4498 -0.1874
 1932TIP3    H127431   2.771   3.516   8.727 -0.0568  0.7762  0.4959
 1932TIP3    H227432   2.721   3.382   8.778 -0.3537  0.3341 -0.9272
 1933TIP3   OH227433   5.694   0.960   0.433 -0.0691 -0.1902  0.1195
 1933TIP3    H127434   5.696   1.046   0.393  0.3728 -0.3594 -0.2238
 1933TIP3    H227435   5.627   0.912   0.384  1.1265 -0.7004 -1.0576
 1934TIP3   OH227436   1.924   2.094   8.476 -0.9467 -0.4846 -0.7413
 1934TIP3    H127437   1.904   2.155   8.405  0.9534 -0.2839 -1.1663
 1934TIP3    H227438   1.937   2.150   8.553 -0.0399 -0.4019 -0.9411
 1935TIP3   OH227439   2.884   0.902   0.793 -0.0500  0.4083  0.0148
 1935TIP3    H127440   2.957   0.855   0.835 -0.6348 -0.2389  0.3377
 1935TIP3    H227441   2.898   0.888   0.699 -0.1084 -0.2709  0.0988
 1936TIP3   OH227442   1.377   6.461   7.808 -0.6891  0.4111 -0.1203
 1936TIP3    H127443   1.291   6.490   7.777 -0.2608  0.0494 -1.6893
 1936TIP3    H227444   1.434   6.469   7.732  0.0582 -1.9340  0.1379
 1937TIP3   OH227445   0.454   5.356   8.857 -0.2445 -0.1942  0.0624
 1937TIP3    H127446   0.401   5.327   8.931 -3.0467 -4.4374 -3.0911
 1937TIP3    H227447   0.401   5.425   8.816 -0.6819 -0.5876 -0.0542
 1938TIP3   OH227448   2.465   0.796   7.704  0.2466  0.1210 -0.1385
 1938TIP3    H127449   2.447   0.863   7.770 -0.9382 -0.0730 -0.2382
 1938TIP3    H227450   2.412   0.823   7.628 -0.1804 -0.8667 -0.2065
 1939TIP3   OH227451   5.116   0.451   2.347  0.0429  0.3641  0.3642
 1939TIP3    H127452   5.120   0.359   2.320  1.5780  0.3114  0.6692
 1939TIP3    H227453   5.127   0.500   2.266  0.4539  0.2648  0.3604
 1940TIP3   OH227454   6.774   3.353   8.080  0.6002 -0.1408  0.1547
 1940TIP3    H127455   6.813   3.327   7.996  1.0871 -0.4465  0.4730
 1940TIP3    H227456   6.838   3.413   8.118  1.1368 -1.2117  1.0167
 1941TIP3   OH227457   5.577   1.539   7.189  0.4063  0.0322 -0.2274
 1941TIP3    H127458   5.594   1.469   7.126  1.2248 -0.9769  1.0558
 1941TIP3    H227459   5.536   1.494   7.264 -1.6968  1.3903 -0.4948
 1942TIP3   OH227460   0.573   3.935   8.535  0.2969 -0.1514  0.0599
 1942TIP3    H127461   0.661   3.954   8.569 -0.9901  1.5012  2.8394
 1942TIP3    H227462   0.519   3.923   8.614 -2.5149  1.6186 -1.4407
 1943TIP3   OH227463   0.982   0.476   8.466 -0.0087 -0.7223 -0.2080
 1943TIP3    H127464   0.980   0.463   8.371 -0.4441  0.6108 -0.4033
 1943TIP3    H227465   1.061   0.431   8.495 -0.3765 -1.9752 -1.0575
 1944TIP3   OH227466   4.982   5.828   7.232 -0.0408  0.1753  0.5074
 1944TIP3    H127467   4.910   5.882   7.201  1.1532  0.7232 -1.5581
 1944TIP3    H227468   5.061   5.880   7.215  1.1566 -1.9963 -1.3750
 1945TIP3   OH227469   1.416   4.512   6.179  0.8143  0.3306  0.0528
 1945TIP3    H127470   1.444   4.599   6.152  1.7057 -0.2091 -0.8380
 1945TIP3    H227471   1.457   4.499   6.264  0.1736  1.0070  0.4777
 1946TIP3   OH227472   0.222   2.251   8.265  0.0107 -0.1481  0.1860
 1946TIP3    H127473   0.291   2.197   8.226  1.0762  0.0266  1.7618
 1946TIP3    H227474   0.266   2.331   8.293 -0.0682 -1.2405  3.9846
 1947TIP3   OH227475   2.098   1.943   7.581  0.8562 -0.4537  0.0901
 1947TIP3    H127476   2.049   1.862   7.594 -0.6855  0.3271 -0.6361
 1947TIP3    H227477   2.102   1.983   7.668 -1.7789  0.5271 -0.1640
 1948TIP3   OH227478   6.540   1.028   8.722  0.2282 -0.0043 -0.6394
 1948TIP3    H127479   6.564   0.983   8.803 -0.4397 -0.2370 -0.5688
 1948TIP3    H227480   6.553   0.964   8.653  1.2975  0.3526 -0.7889
 1949TIP3   OH227481   2.368   0.527   1.066 -0.4207  0.0547 -0.1538
 1949TIP3    H127482   2.340   0.442   1.032 -1.0783 -0.1234  0.8025
 1949TIP3    H227483   2.462   0.517   1.082  0.1003  0.3885 -2.5882
 1950TIP3   OH227484   0.487   4.296   1.558 -0.2976 -0.8286 -0.2636
 1950TIP3    H127485   0.563   4.322   1.507 -0.2226  0.4254  0.4576
 1950TIP3    H227486   0.441   4.233   1.502 -0.2630  0.5496 -1.9051
 1951TIP3   OH227487   5.673   4.631   6.717  0.1523  0.0332 -0.1101
 1951TIP3    H127488   5.768   4.626   6.728  0.0372 -1.3135  0.3623
 1951TIP3    H227489   5.661   4.701   6.652  1.5033 -0.3264 -0.7922
 1952TIP3   OH227490   4.767   6.138   8.244  0.1345 -0.4481 -0.0681
 1952TIP3    H127491   4.832   6.100   8.302  1.2508  1.0976 -0.2451
 1952TIP3    H227492   4.753   6.226   8.278 -2.7289 -1.0641  0.6193
 1953TIP3   OH227493   3.277   2.581   0.092 -0.9176 -1.0436  0.0846
 1953TIP3    H127494   3.337   2.510   0.069 -2.3390 -1.8316 -1.4133
 1953TIP3    H227495   3.327   2.661   0.076 -0.1093 -1.6794 -0.6872
 1954TIP3   OH227496   3.080   2.495   1.721 -0.5953 -0.1959 -1.1553
 1954TIP3    H127497   3.087   2.590   1.713 -0.6033  0.0365  0.9377
 1954TIP3    H227498   3.171   2.465   1.730 -0.6764 -0.1770 -0.1693
 1955TIP3   OH227499   5.568   6.307   7.665  0.3645 -0.2475  0.0893
 1955TIP3    H127500   5.595   6.284   7.754 -0.3431 -2.4829 -0.2139
 1955TIP3    H227501   5.634   6.267   7.608 -0.9000 -1.6211 -0.4736
 1956TIP3   OH227502   3.496   2.886   6.514 -0.4465 -0.0827  0.3571
 1956TIP3    H127503   3.536   2.839   6.441 -0.6051  0.7636 -0.2879
 1956TIP3    H227504   3.558   2.956   6.535 -1.1695  0.7058 -0.0750
 1957TIP3   OH227505   1.889   6.454   1.418 -0.4981  0.1918  0.4514
 1957TIP3    H127506   1.819   6.490   1.363 -0.2880 -0.1202 -0.0277
 1957TIP3    H227507   1.855   6.460   1.507 -1.3424 -0.4188  0.1851
 1958TIP3   OH227508   4.188   6.239   2.145  0.3475  0.2968 -0.0561
 1958TIP3    H127509   4.253   6.264   2.210  1.5850  0.7500 -1.4158
 1958TIP3    H227510   4.208   6.147   2.124  0.0548  0.1997  0.0853
 1959TIP3   OH227511   0.382   2.695   1.580  0.1128  0.0097 -0.4599
 1959TIP3    H127512   0.368   2.623   1.641  0.4184  0.4304  0.1241
 1959TIP3    H227513   0.440   2.659   1.513  1.7337  0.1746  0.7719
 1960TIP3   OH227514   6.391   1.098   8.007  0.2189  0.8201  0.0264
 1960TIP3    H127515   6.372   1.134   7.921 -0.9972  1.5006  0.5662
 1960TIP3    H227516   6.353   1.160   8.069  0.5918  0.0664  1.0427
 1961TIP3   OH227517   4.546   4.929   0.777 -0.1475 -0.2328 -0.3894
 1961TIP3    H127518   4.635   4.907   0.804 -0.8655  0.3538  2.7214
 1961TIP3    H227519   4.507   4.844   0.756 -0.1362 -1.0727  2.6043
 1962TIP3   OH227520   3.649   6.739   8.623 -0.2904 -0.6656 -0.0600
 1962TIP3    H127521   3.594   6.786   8.561  1.2630  0.2370 -0.8171
 1962TIP3    H227522   3.688   6.668   8.572 -1.0683 -1.5845  0.5837
 1963TIP3   OH227523   0.797   1.031   7.898 -0.0091  0.0302  0.2701
 1963TIP3    H127524   0.710   1.008   7.866  0.8658 -0.7747 -1.6837
 1963TIP3    H227525   0.793   1.015   7.992 -1.9972  0.1336  0.2432
 1964TIP3   OH227526   2.379   1.913   7.490 -0.5877 -0.2273  0.2580
 1964TIP3    H127527   2.353   1.921   7.399  0.4304 -0.6587 -0.0810
 1964TIP3    H227528   2.334   1.986   7.534 -0.9268  0.1017 -0.6067
 1965TIP3   OH227529   5.849   0.208   0.809 -0.2446 -0.3636 -0.2321
 1965TIP3    H127530   5.758   0.206   0.839  0.1151 -1.6489  0.8938
 1965TIP3    H227531   5.852   0.146   0.736 -0.3209 -0.1367 -0.4282
 1966TIP3   OH227532   1.358   3.082   1.503  0.4056  0.3923 -0.0423
 1966TIP3    H127533   1.388   2.991   1.498 -2.0788 -0.3901 -2.4874
 1966TIP3    H227534   1.307   3.085   1.584  0.8815 -0.2459  0.2978
 1967TIP3   OH227535   4.302   0.999   7.917 -0.2822  0.3539  0.0176
 1967TIP3    H127536   4.311   1.092   7.940  1.6765  0.1093  0.3463
 1967TIP3    H227537   4.376   0.956   7.960 -1.1007 -1.3594 -0.2197
 1968TIP3   OH227538   6.321   6.428   6.773  0.4199  0.0249  0.1699
 1968TIP3    H127539   6.268   6.494   6.729  1.6333  0.7367 -0.2767
 1968TIP3    H227540   6.261   6.385   6.834 -0.6339  0.8395 -0.2703
 1969TIP3   OH227541   4.658   2.646   0.888 -0.3573  0.4660  0.0856
 1969TIP3    H127542   4.753   2.653   0.899 -0.4597  0.4904  1.0520
 1969TIP3    H227543   4.630   2.733   0.860 -0.2500  0.8697  1.1638
 1970TIP3   OH227544   0.377   5.274   6.940 -0.5156 -0.1163  0.4794
 1970TIP3    H127545   0.444   5.212   6.912  1.5517  2.4726 -0.8319
 1970TIP3    H227546   0.308   5.267   6.874 -0.3805 -1.0626  0.4263
 1971TIP3   OH227547   4.289   1.362   0.177 -0.0911  0.4079 -0.0514
 1971TIP3    H127548   4.334   1.389   0.257  1.1532 -0.9460 -0.2347
 1971TIP3    H227549   4.241   1.282   0.202 -0.2994  0.3945 -0.4765
 1972TIP3   OH227550   1.175   4.503   8.024 -0.4341 -0.3913  0.1196
 1972TIP3    H127551   1.204   4.593   8.035  1.3020 -0.4903 -2.6570
 1972TIP3    H227552   1.156   4.495   7.930 -1.7436 -2.5767  0.5092
 1973TIP3   OH227553   0.954   2.262   1.041  0.0418  0.0646 -0.2163
 1973TIP3    H127554   0.987   2.350   1.060 -2.1426  0.8670  0.1067
 1973TIP3    H227555   0.865   2.261   1.075 -0.4190 -1.8972 -1.2902
 1974TIP3   OH227556   4.265   4.160   7.913  0.5101  0.0537  0.8082
 1974TIP3    H127557   4.295   4.076   7.878  0.1778  0.5819 -0.7769
 1974TIP3    H227558   4.344   4.215   7.913  0.4809  0.0948  0.8127
 1975TIP3   OH227559   6.514   5.872   1.531 -0.1261 -0.2560  0.0896
 1975TIP3    H127560   6.471   5.938   1.585 -0.6538 -1.0958  0.7118
 1975TIP3    H227561   6.451   5.853   1.462 -0.4583 -0.9415  0.5735
 1976TIP3   OH227562   5.722   2.405   1.600 -0.1198  0.2175  0.1880
 1976TIP3    H127563   5.669   2.438   1.673 -0.1991 -0.7606  0.6013
 1976TIP3    H227564   5.726   2.310   1.615  0.5022  0.0946 -0.6674
 1977TIP3   OH227565   4.077   5.585   1.670 -0.4365  0.3213 -0.2174
 1977TIP3    H127566   4.045   5.674   1.687  1.7204  1.0459  0.3597
 1977TIP3    H227567   4.109   5.588   1.580 -0.8763 -0.0425 -0.3876
 1978TIP3   OH227568   5.790   6.327   1.077  0.2713  0.1234  0.7007
 1978TIP3    H127569   5.882   6.340   1.052  0.0284  0.8787  0.1658
 1978TIP3    H227570   5.768   6.404   1.128 -0.7885  1.2569 -1.3292
 1979TIP3   OH227571   3.279   4.299   1.504 -0.1939  0.2299 -0.7966
 1979TIP3    H127572   3.213   4.265   1.444  1.8419 -1.9383 -1.9987
 1979TIP3    H227573   3.354   4.240   1.493  0.6804  0.2903  3.1978
 1980TIP3   OH227574   4.967   5.408   7.707  0.8776  0.1183 -0.3149
 1980TIP3    H127575   4.950   5.325   7.750  1.2376  0.8854  1.4036
 1980TIP3    H227576   4.935   5.474   7.769  0.5297  1.2649 -1.6676
 1981TIP3   OH227577   5.887   5.543   0.008  0.4989 -0.3975  0.0908
 1981TIP3    H127578   5.851   5.554   0.096 -0.6197 -0.5636 -0.3361
 1981TIP3    H227579   5.823   5.583  -0.050  0.0378 -2.3790 -0.8565
 1982TIP3   OH227580   3.066   3.244   0.027 -0.3362  0.1201  0.6306
 1982TIP3    H127581   3.071   3.266   0.120 -0.5574  0.2811  0.6063
 1982TIP3    H227582   3.135   3.180   0.013 -0.8127 -0.5046  1.0767
 1983TIP3   OH227583   5.450   4.344   1.471 -0.1432  0.1540 -0.1816
 1983TIP3    H127584   5.459   4.281   1.399 -1.5021 -0.2900  0.0132
 1983TIP3    H227585   5.463   4.292   1.550 -0.7020  0.2149 -0.0438
 1984TIP3   OH227586   0.488   6.342   7.354 -0.0433  0.0939 -0.1609
 1984TIP3    H127587   0.486   6.278   7.283 -2.8462 -0.3750  0.2086
 1984TIP3    H227588   0.497   6.289   7.434 -0.8192  0.2497  0.0437
 1985TIP3   OH227589   1.961   1.152   1.354 -0.6524  0.3009  0.1328
 1985TIP3    H127590   1.889   1.171   1.294 -0.4402  0.7237  0.0103
 1985TIP3    H227591   2.002   1.236   1.370  1.0902 -0.1710 -1.4190
 1986TIP3   OH227592   1.729   4.050   1.957 -0.1895 -0.4160 -0.3286
 1986TIP3    H127593   1.676   4.027   2.033  1.6622 -1.0223  0.8335
 1986TIP3    H227594   1.765   4.136   1.978 -2.1552  0.9152 -1.9708
 1987TIP3   OH227595   3.197   3.385   7.411  0.2760 -0.4927  0.3106
 1987TIP3    H127596   3.259   3.458   7.425 -0.0318 -0.3017  0.6916
 1987TIP3    H227597   3.122   3.406   7.467  0.1586 -1.0770  0.3771
 1988TIP3   OH227598   4.498   5.204   7.244 -0.5647  0.2079 -0.2456
 1988TIP3    H127599   4.482   5.277   7.184  0.1544  0.7135  0.1686
 1988TIP3    H227600   4.443   5.133   7.210 -0.7590  0.7254 -1.0465
 1989TIP3   OH227601   6.198   1.410   2.377 -0.3626  0.6201 -0.0781
 1989TIP3    H127602   6.222   1.327   2.419  0.1436  0.3407 -0.9044
 1989TIP3    H227603   6.102   1.407   2.374 -0.3447  0.0067 -0.2153
 1990TIP3   OH227604   4.238   3.147   8.359 -0.3405 -0.5066 -0.2946
 1990TIP3    H127605   4.200   3.216   8.305  1.0972 -0.0285 -0.7456
 1990TIP3    H227606   4.330   3.171   8.367 -0.0960 -1.6709  0.6664
 1991TIP3   OH227607   6.419   1.591   2.444 -0.0151 -0.1765  0.0408
 1991TIP3    H127608   6.491   1.541   2.404  0.7113 -0.1962  1.3101
 1991TIP3    H227609   6.340   1.554   2.404  0.6485 -0.3908 -1.1342
 1992TIP3   OH227610   6.513   0.969   0.018 -0.0544  0.2167  0.3637
 1992TIP3    H127611   6.549   1.055  -0.002  0.0091  0.0563 -0.2252
 1992TIP3    H227612   6.440   0.959  -0.044  1.1893 -0.9867 -0.9570
 1993TIP3   OH227613   3.507   6.505   8.275 -0.1391  0.0338 -0.3698
 1993TIP3    H127614   3.419   6.538   8.291  0.2469  1.1379 -0.3666
 1993TIP3    H227615   3.495   6.417   8.242 -1.1539 -1.0507  2.5575
 1994TIP3   OH227616   2.641   0.108   2.274 -0.0935  0.2865 -0.0152
 1994TIP3    H127617   2.730   0.082   2.297 -0.5704 -1.5200 -0.0646
 1994TIP3    H227618   2.633   0.085   2.181 -1.3407 -1.8635  0.5624
 1995TIP3   OH227619   1.823   1.933   7.845 -0.1184  0.0706  0.2300
 1995TIP3    H127620   1.786   2.001   7.790 -1.6087 -0.6767  0.2526
 1995TIP3    H227621   1.785   1.948   7.932  1.4082  0.6182  0.8465
 1996TIP3   OH227622   6.025   6.083   7.324 -0.5690 -0.7568  0.0642
 1996TIP3    H127623   6.093   6.141   7.358 -0.5094  0.8931 -2.5803
 1996TIP3    H227624   5.951   6.142   7.305 -0.8527 -1.6430 -1.8283
 1997TIP3   OH227625   5.223   4.975   2.859 -0.0998 -0.1959 -0.4863
 1997TIP3    H127626   5.219   5.013   2.771 -1.5738  0.2925 -0.2329
 1997TIP3    H227627   5.300   5.016   2.899  0.1965  0.0796 -1.3278
 1998TIP3   OH227628   1.066   2.883   8.720 -0.0662 -0.3833 -0.0535
 1998TIP3    H127629   1.141   2.852   8.670  0.7540  0.7183  0.4416
 1998TIP3    H227630   1.087   2.859   8.811 -0.8143 -0.9993 -0.0361
 1999TIP3   OH227631   6.065   0.526   6.708 -0.6294 -0.1751 -0.0542
 1999TIP3    H127632   6.153   0.548   6.741 -0.0303 -1.4173 -0.7716
 1999TIP3    H227633   6.054   0.434   6.730 -1.7145 -0.0591 -0.0887
 2000TIP3   OH227634   3.015   5.442   8.553 -0.2682  0.2478 -0.0189
 2000TIP3    H127635   3.000   5.525   8.598  0.7426  1.2324 -1.4362
 2000TIP3    H227636   2.932   5.395   8.563 -0.9450  1.5137  0.6069
 2001TIP3   OH227637   4.111   4.057   0.258 -0.5499 -0.4559 -0.3865
 2001TIP3    H127638   4.063   4.133   0.291 -0.4946 -0.3075 -0.6388
 2001TIP3    H227639   4.201   4.088   0.247  0.3542 -1.5045  2.8427
 2002TIP3   OH227640   0.663   1.899   0.201  0.0931 -0.4135  0.5037
 2002TIP3    H127641   0.692   1.975   0.252 -3.2443  0.3750  1.5028
 2002TIP3    H227642   0.650   1.830   0.265 -2.0657 -0.0746  0.5170
 2003TIP3   OH227643   0.041   3.890   1.225  0.1863  0.1727  1.0220
 2003TIP3    H127644  -0.029   3.948   1.256 -0.4739  0.0615 -0.2160
 2003TIP3    H227645   0.107   3.950   1.191 -0.7099  0.2391 -0.7100
 2004TIP3   OH227646   3.685   3.123   0.972  0.2568  0.0363  0.2452
 2004TIP3    H127647   3.728   3.198   0.930 -0.1658  0.8813  1.2559
 2004TIP3    H227648   3.629   3.163   1.039 -1.2144 -1.0971 -0.2703
 2005TIP3   OH227649   5.763   0.275   6.866  0.4790 -0.6377 -0.1758
 2005TIP3    H127650   5.803   0.258   6.780  1.6495  0.5322  0.1163
 2005TIP3    H227651   5.682   0.322   6.846  1.1020  0.2732 -0.6301
 2006TIP3   OH227652   0.528   4.613   1.188  0.0713  0.0123 -0.2103
 2006TIP3    H127653   0.468   4.659   1.246 -1.4312 -0.4455 -1.3600
 2006TIP3    H227654   0.612   4.658   1.201 -0.5793  0.9157  1.1325
 2007TIP3   OH227655   0.460   5.189   6.311 -0.5153 -0.1781 -0.5284
 2007TIP3    H127656   0.491   5.269   6.355  3.2524 -0.0050 -2.9448
 2007TIP3    H227657   0.447   5.126   6.381 -1.8464  2.0009  1.3173
 2008TIP3   OH227658   5.901   6.293   0.265 -0.2711 -0.0710  0.0093
 2008TIP3    H127659   5.980   6.346   0.257  0.8828 -1.5451  0.9871
 2008TIP3    H227660   5.859   6.324   0.345  0.3151 -0.4681  0.4890
 2009TIP3   OH227661   4.440   1.266   1.004 -0.0759  0.3657 -0.4620
 2009TIP3    H127662   4.454   1.316   0.924  1.0478 -1.6337 -1.6110
 2009TIP3    H227663   4.505   1.301   1.066  1.1230 -0.0471 -1.4469
 2010TIP3   OH227664   2.281   6.288   8.101 -1.1347  0.5549 -0.0303
 2010TIP3    H127665   2.331   6.264   8.179 -1.0274 -0.8083 -0.4976
 2010TIP3    H227666   2.289   6.383   8.096  0.9600  0.4352  0.2244
 2011TIP3   OH227667   1.824   3.077   8.981  0.5389 -0.6517 -0.0583
 2011TIP3    H127668   1.766   3.139   9.025  0.9433 -0.0964 -0.2873
 2011TIP3    H227669   1.809   2.994   9.026 -0.6945 -0.6107 -0.3506
 2012TIP3   OH227670   0.576   5.679   7.542  0.0681  0.3744  0.0801
 2012TIP3    H127671   0.600   5.770   7.526  1.0360  0.0095 -0.5863
 2012TIP3    H227672   0.588   5.667   7.636 -0.0499  0.9252  0.1691
 2013TIP3   OH227673   5.359   0.881   8.000  0.8315 -0.4442  0.1161
 2013TIP3    H127674   5.390   0.835   7.922  1.5538 -0.7514  0.5686
 2013TIP3    H227675   5.366   0.816   8.070  0.9760  0.0685  0.5900
 2014TIP3   OH227676   0.495   3.176   2.385 -0.5903  0.5623 -0.0461
 2014TIP3    H127677   0.582   3.138   2.394  0.0631  1.6619 -1.2579
 2014TIP3    H227678   0.509   3.256   2.333 -2.5371 -0.2220 -1.9635
 2015TIP3   OH227679   1.682   4.908   0.458 -0.1029  0.7000  0.0736
 2015TIP3    H127680   1.741   4.959   0.402 -0.0569 -0.3289 -0.8614
 2015TIP3    H227681   1.617   4.971   0.487 -0.2114  1.2545 -1.2762
 2016TIP3   OH227682   1.891   2.897   1.203  0.2101  0.7111 -0.5978
 2016TIP3    H127683   1.835   2.891   1.281  1.8888 -1.4617  0.5420
 2016TIP3    H227684   1.829   2.905   1.130 -1.4667  1.0611  0.7982
 2017TIP3   OH227685   0.740   5.465   0.040  0.1172  0.1025 -0.3530
 2017TIP3    H127686   0.791   5.518   0.100  2.0839 -0.4089 -1.4728
 2017TIP3    H227687   0.709   5.392   0.093  2.0315 -0.4803  0.0425
 2018TIP3   OH227688   1.461   2.006   8.575  0.7198  0.3105 -0.2899
 2018TIP3    H127689   1.516   1.984   8.650  1.9476 -0.7871 -1.4571
 2018TIP3    H227690   1.432   2.096   8.592  0.3918 -0.1314  1.7937
 2019TIP3   OH227691   0.615   1.015   0.191 -0.0667 -0.3038  0.8983
 2019TIP3    H127692   0.590   1.097   0.148  0.5249 -1.3531 -1.6565
 2019TIP3    H227693   0.697   0.990   0.148 -0.6189 -2.5906  1.0625
 2020TIP3   OH227694   0.395   6.564   1.806  0.2087  0.0506  0.6881
 2020TIP3    H127695   0.420   6.616   1.882  0.2389  0.4755  0.3918
 2020TIP3    H227696   0.309   6.599   1.781 -0.4962 -1.0862  1.4198
 2021TIP3   OH227697   5.264   5.929   8.435 -0.6207 -0.2400  0.5978
 2021TIP3    H127698   5.352   5.903   8.408 -0.4459  1.1683 -0.3074
 2021TIP3    H227699   5.207   5.860   8.401  0.0016 -0.4284 -0.0947
 2022TIP3   OH227700   4.430   6.145   1.314 -0.2056  0.0731  0.8848
 2022TIP3    H127701   4.398   6.207   1.250  0.3428  0.5267  1.0457
 2022TIP3    H227702   4.466   6.073   1.263  0.4094  0.5245  0.6804
 2023TIP3   OH227703   6.618   0.543   1.546  0.1935 -0.1419  0.0478
 2023TIP3    H127704   6.564   0.545   1.624  0.2290 -1.0107  0.0944
 2023TIP3    H227705   6.702   0.507   1.574 -0.3721 -2.2148 -0.7177
 2024TIP3   OH227706   5.737   5.054   6.902  0.3277  0.5158 -0.5175
 2024TIP3    H127707   5.722   4.982   6.963  0.6119 -0.4076 -1.5069
 2024TIP3    H227708   5.809   5.024   6.846  0.9920  1.8983 -0.4466
 2025TIP3   OH227709   2.271   3.399   0.980 -0.3418  0.0101 -0.3819
 2025TIP3    H127710   2.294   3.325   1.036 -1.0366  0.5154  0.5844
 2025TIP3    H227711   2.267   3.474   1.039 -2.7190  0.2708 -0.7845
 2026TIP3   OH227712   6.006   0.024   7.159  0.7425  0.4696  0.1204
 2026TIP3    H127713   5.920   0.025   7.118  1.1636  0.0243 -0.8160
 2026TIP3    H227714   6.031   0.116   7.166  1.3835  0.5600 -2.2880
 2027TIP3   OH227715   3.947   6.609   7.683 -0.0673 -0.3320 -0.2032
 2027TIP3    H127716   3.937   6.598   7.588 -0.1671 -1.2204 -0.0994
 2027TIP3    H227717   4.040   6.591   7.699 -0.0232 -0.0567 -0.1455
 2028TIP3   OH227718   2.531   0.623   0.428  0.4308 -0.5515  0.3899
 2028TIP3    H127719   2.548   0.716   0.443 -0.2553 -0.1956 -0.9315
 2028TIP3    H227720   2.470   0.598   0.498 -1.5738  0.7033 -0.8340
 2029TIP3   OH227721   6.439   3.893   1.934  0.6513  0.7644  0.2413
 2029TIP3    H127722   6.348   3.868   1.949  0.1174  1.3307 -1.6953
 2029TIP3    H227723   6.457   3.960   1.999 -0.4468  0.9091  0.4145
 2030TIP3   OH227724   4.944   1.189   7.426  0.1381 -0.0408 -0.1516
 2030TIP3    H127725   4.872   1.204   7.487  0.1324  1.6922 -0.5534
 2030TIP3    H227726   4.962   1.095   7.434 -3.6360 -1.0802 -1.7195
 2031TIP3   OH227727   3.423   4.611   8.149 -0.0592 -0.2058 -0.1395
 2031TIP3    H127728   3.483   4.602   8.223 -0.3839  0.6867  0.2433
 2031TIP3    H227729   3.477   4.593   8.072  1.1088  2.0860  0.0760
 2032TIP3   OH227730   2.896   4.208   2.352  0.7598 -0.4320  0.0927
 2032TIP3    H127731   2.881   4.294   2.391 -0.0061  0.0920 -1.3265
 2032TIP3    H227732   2.989   4.192   2.367  0.5592 -0.1465  1.8921
 2033TIP3   OH227733   1.201   0.860   0.126 -0.0936 -0.0131  0.1567
 2033TIP3    H127734   1.169   0.835   0.213  2.4256 -0.9867  0.9073
 2033TIP3    H227735   1.131   0.836   0.067 -1.4080 -0.4390  1.8003
 2034TIP3   OH227736   0.660   0.576   1.437 -0.2762 -0.0468  0.2868
 2034TIP3    H127737   0.583   0.521   1.431 -0.6187  0.5114 -0.6582
 2034TIP3    H227738   0.626   0.666   1.441  0.3098  0.2244 -0.4616
 2035TIP3   OH227739   2.037   0.474   7.178  0.3463 -0.2834  0.2628
 2035TIP3    H127740   2.035   0.565   7.206  0.4848 -0.6203  1.3911
 2035TIP3    H227741   2.115   0.468   7.123 -0.0056  0.4102 -0.3368
 2036TIP3   OH227742   1.385   0.733   0.418  0.0475  0.3212  0.3422
 2036TIP3    H127743   1.402   0.820   0.453 -0.4499  0.7670 -0.4862
 2036TIP3    H227744   1.415   0.737   0.327 -1.9966  0.3415 -0.3914
 2037TIP3   OH227745   3.332   4.281   6.320 -0.5128 -0.5637  0.2859
 2037TIP3    H127746   3.406   4.222   6.327 -0.1228 -0.4284 -2.0410
 2037TIP3    H227747   3.364   4.365   6.353  0.6665 -0.2905 -1.4771
 2038TIP3   OH227748   2.673   3.174   7.626 -0.0306 -0.1800 -0.8941
 2038TIP3    H127749   2.758   3.149   7.662  0.2487  0.4599 -1.0840
 2038TIP3    H227750   2.658   3.262   7.659 -0.9808 -0.5707 -0.2485
 2039TIP3   OH227751   5.234   0.804   0.399  0.2072 -0.6501  0.2035
 2039TIP3    H127752   5.201   0.894   0.402 -0.6984 -0.8697 -2.0464
 2039TIP3    H227753   5.173   0.754   0.453 -0.7015 -0.3213 -0.5061
 2040TIP3   OH227754   6.680   5.912   7.291 -0.1483  0.2274  0.0312
 2040TIP3    H127755   6.716   5.898   7.203 -2.1208  0.4189 -0.8694
 2040TIP3    H227756   6.609   5.975   7.278 -1.0605 -0.4087  1.6156
 2041TIP3   OH227757   3.963   5.835   1.685  0.1181  0.4199 -0.1987
 2041TIP3    H127758   4.001   5.921   1.669 -1.1598  0.6658 -2.3180
 2041TIP3    H227759   3.878   5.853   1.725 -0.5508  0.2351 -1.4832
 2042TIP3   OH227760   2.169   3.584   8.357  0.5538  0.2492  0.1052
 2042TIP3    H127761   2.250   3.573   8.306  0.3706 -2.5757  0.3103
 2042TIP3    H227762   2.195   3.562   8.447 -0.0957  0.9786  0.4802
 2043TIP3   OH227763   5.807   2.959   1.424  0.4518 -1.2176  0.7799
 2043TIP3    H127764   5.895   2.979   1.394 -0.3424  0.3773 -0.7159
 2043TIP3    H227765   5.770   2.901   1.357  0.0277 -0.9973  0.8138
 2044TIP3   OH227766   6.597   1.550   1.686 -0.2198  0.7859  0.4606
 2044TIP3    H127767   6.595   1.494   1.764 -1.2996  0.3164  0.1109
 2044TIP3    H227768   6.640   1.496   1.620 -2.8351 -0.4051 -0.4032
 2045TIP3   OH227769   4.986   2.259   8.455  0.0608 -0.1009 -0.1512
 2045TIP3    H127770   4.999   2.165   8.465 -0.9326 -0.4880 -1.9783
 2045TIP3    H227771   5.057   2.299   8.505  1.0156 -1.8466 -0.0504
 2046TIP3   OH227772   1.949   6.737   0.727  0.4280  0.2165  0.1259
 2046TIP3    H127773   1.862   6.697   0.717  1.2989 -1.4547 -1.2987
 2046TIP3    H227774   1.977   6.711   0.815  0.8279 -2.1503 -0.6358
 2047TIP3   OH227775   2.232   5.587   0.378 -0.4315  0.2468 -0.1769
 2047TIP3    H127776   2.187   5.631   0.450  2.6813  0.2193  1.9950
 2047TIP3    H227777   2.209   5.495   0.388  0.1673  0.2068  0.9946
 2048TIP3   OH227778   2.575   3.738   6.518  0.3516 -0.3256 -0.1900
 2048TIP3    H127779   2.539   3.687   6.591 -1.4999  0.3679 -0.5643
 2048TIP3    H227780   2.498   3.774   6.474  1.5651  2.1633 -0.4192
 2049TIP3   OH227781   2.734   3.146   8.421  0.0310  0.1926  0.0902
 2049TIP3    H127782   2.791   3.108   8.355 -0.9521 -0.3694 -0.4524
 2049TIP3    H227783   2.693   3.071   8.464 -0.4457  0.5943  0.3461
 2050TIP3   OH227784   5.282   5.497   8.431 -0.2487  0.0360 -0.2091
 2050TIP3    H127785   5.370   5.533   8.445 -1.0706  1.5190  1.5711
 2050TIP3    H227786   5.277   5.422   8.490 -0.5812  0.7357  0.6808
 2051TIP3   OH227787   3.043   6.230   7.883  0.4663  0.5939  0.8270
 2051TIP3    H127788   2.992   6.225   7.802  1.0875  1.5691  0.3511
 2051TIP3    H227789   2.997   6.296   7.936  0.3788  0.3681  1.0342
 2052TIP3   OH227790   2.050   0.219   1.172 -0.0588  0.1729  0.0289
 2052TIP3    H127791   1.976   0.215   1.111 -2.0434 -2.6927  2.3703
 2052TIP3    H227792   2.010   0.242   1.256  1.5680 -1.9228  1.4713
 2053TIP3   OH227793   2.799   2.552   8.794 -0.2962 -0.2530 -0.2082
 2053TIP3    H127794   2.845   2.484   8.744 -1.7877 -1.9592  0.6176
 2053TIP3    H227795   2.845   2.558   8.877 -0.2363 -0.3429 -0.2358
 2054TIP3   OH227796   0.091   5.412   1.228  0.1985  0.2993 -0.0909
 2054TIP3    H127797   0.058   5.411   1.318  1.9346 -0.3334  0.5776
 2054TIP3    H227798   0.167   5.469   1.230  1.7763 -1.6673 -0.5324
 2055TIP3   OH227799   6.058   1.260   0.329 -0.2255  0.9240 -0.4795
 2055TIP3    H127800   6.122   1.211   0.277  1.0433  0.5185  1.3610
 2055TIP3    H227801   5.978   1.207   0.325  0.9585 -1.1210  1.0233
 2056TIP3   OH227802   3.306   5.087   7.200  0.6832 -0.4743  0.9108
 2056TIP3    H127803   3.259   5.014   7.160 -0.0132  0.0467  0.7552
 2056TIP3    H227804   3.354   5.048   7.273  0.8763 -1.2031  0.4092
 2057TIP3   OH227805   3.620   1.087   6.827  0.0620 -0.0433  0.2031
 2057TIP3    H127806   3.687   1.030   6.789  0.8747  0.5258  0.7533
 2057TIP3    H227807   3.590   1.040   6.904 -1.6714 -1.2543 -1.1197
 2058TIP3   OH227808   2.019   3.609   0.535 -0.3484 -0.2163  0.3533
 2058TIP3    H127809   2.075   3.531   0.533  0.3045  0.2486 -1.5208
 2058TIP3    H227810   1.938   3.580   0.491 -1.0295 -0.4666  1.7311
 2059TIP3   OH227811   5.729   3.186   8.253 -0.1073  0.1994 -0.5508
 2059TIP3    H127812   5.650   3.168   8.202 -0.5221  0.1925  0.0821
 2059TIP3    H227813   5.717   3.138   8.335  1.1379 -0.8513 -0.9392
 2060TIP3   OH227814   1.934   0.825   8.869 -0.7418 -0.8921  0.2385
 2060TIP3    H127815   1.961   0.738   8.841  0.5691 -0.2821 -0.4610
 2060TIP3    H227816   1.856   0.843   8.817 -0.7092 -1.4276 -0.0028
 2061TIP3   OH227817   0.557   2.942   8.343 -0.3293  0.2420 -0.2849
 2061TIP3    H127818   0.621   2.911   8.408 -1.0389 -0.3513  0.1422
 2061TIP3    H227819   0.570   2.885   8.268  0.9735  1.3683 -0.9704
 2062TIP3   OH227820   4.019   3.573   0.480 -0.6700 -0.0512  0.9180
 2062TIP3    H127821   4.071   3.494   0.472  0.7378  0.9065  0.0915
 2062TIP3    H227822   3.944   3.559   0.423  0.0669 -0.4105  0.0168
 2063TIP3   OH227823   0.745   4.275   8.672  0.3214  0.0693 -0.4482
 2063TIP3    H127824   0.790   4.335   8.732  0.0005 -0.4137  0.3002
 2063TIP3    H227825   0.706   4.209   8.730  1.7735 -1.6316 -1.2994
 2064TIP3   OH227826   4.924   2.643   0.995  0.1458  0.4217 -0.4278
 2064TIP3    H127827   4.967   2.573   1.045 -0.9541  0.4438  0.5863
 2064TIP3    H227828   4.922   2.718   1.055  1.1508  1.2997 -1.4419
 2065TIP3   OH227829   5.995   0.726   0.327  0.2720  0.4465 -0.6361
 2065TIP3    H127830   5.920   0.739   0.386  1.6790  0.9825  1.1031
 2065TIP3    H227831   5.955   0.717   0.240 -1.7424  1.7942  0.0704
 2066TIP3   OH227832   2.944   2.052   8.914  0.2070 -0.4243  0.6756
 2066TIP3    H127833   2.853   2.043   8.887  0.2850  0.8796 -0.1149
 2066TIP3    H227834   2.940   2.061   9.009 -0.3949 -1.3220  0.7486
 2067TIP3   OH227835   4.079   2.310   0.388 -0.2298 -0.3332  0.1213
 2067TIP3    H127836   4.040   2.345   0.309 -0.8430 -2.8335 -0.7840
 2067TIP3    H227837   4.004   2.285   0.443  0.1432 -1.3297  0.1934
 2068TIP3   OH227838   5.060   5.570   0.168  0.2896  0.3219  0.0516
 2068TIP3    H127839   5.084   5.643   0.226 -0.7809  1.1507 -0.4955
 2068TIP3    H227840   5.037   5.499   0.228 -1.2986  1.3207  0.7152
 2069TIP3   OH227841   5.146   1.223   8.712 -0.5367  0.1740 -0.2614
 2069TIP3    H127842   5.230   1.178   8.723 -0.8511 -0.6416 -1.0607
 2069TIP3    H227843   5.123   1.252   8.800  1.2922  1.7638 -0.2364
 2070TIP3   OH227844   0.732   4.520   8.345 -0.2223 -0.0731  0.4706
 2070TIP3    H127845   0.667   4.496   8.411 -2.3981  2.5804 -0.5440
 2070TIP3    H227846   0.748   4.439   8.297 -1.9911 -1.0523  1.4195
 2071TIP3   OH227847   5.859   3.144   0.872 -0.1108 -0.3612  0.6890
 2071TIP3    H127848   5.955   3.137   0.865 -0.1112  1.0125 -1.5378
 2071TIP3    H227849   5.830   3.053   0.885  1.4595 -0.8519  1.0430
 2072TIP3   OH227850   0.631   4.785   0.875  0.1156 -0.4505 -0.1794
 2072TIP3    H127851   0.540   4.807   0.897 -0.1025 -0.1768 -1.2948
 2072TIP3    H227852   0.624   4.703   0.826  0.3757  0.0886 -1.1253
 2073TIP3   OH227853   2.451   6.030   8.951 -0.0976  1.0308  0.0187
 2073TIP3    H127854   2.422   6.044   9.041 -2.0108 -0.9270 -0.1923
 2073TIP3    H227855   2.420   6.107   8.903 -1.8246  0.7021  0.5292
 2074TIP3   OH227856   3.014   3.157   0.664 -0.1602  0.2727  0.7137
 2074TIP3    H127857   3.005   3.223   0.733  0.0109  1.1003 -0.0490
 2074TIP3    H227858   2.941   3.175   0.605 -0.1428 -0.2598  0.5291
 2075TIP3   OH227859   0.769   5.107   1.344  0.1488 -0.4430  0.3515
 2075TIP3    H127860   0.720   5.174   1.296 -0.8174 -1.8234 -0.6776
 2075TIP3    H227861   0.721   5.098   1.427  0.1437 -0.0420  0.3966
 2076TIP3   OH227862   3.061   6.558   1.085  1.0528 -0.1781  0.4962
 2076TIP3    H127863   3.079   6.558   1.179  0.8620 -0.8901  0.5382
 2076TIP3    H227864   3.148   6.563   1.044  1.1270  0.3358  0.7032
 2077TIP3   OH227865   5.700   1.313   0.940 -0.5889 -0.1621 -0.3866
 2077TIP3    H127866   5.655   1.235   0.970 -0.0657 -0.1001  0.5732
 2077TIP3    H227867   5.777   1.281   0.894  0.3055 -0.1976  1.1054
 2078TIP3   OH227868   5.772   0.710   0.544 -0.4436  0.1515 -0.3922
 2078TIP3    H127869   5.836   0.743   0.607 -0.5914  0.4868 -0.4128
 2078TIP3    H227870   5.746   0.787   0.494 -0.6491 -0.0348 -0.5751
 2079TIP3   OH227871   5.744   6.656   8.647  0.1761  0.1924  0.6699
 2079TIP3    H127872   5.726   6.744   8.615 -3.4817  0.2936  2.4828
 2079TIP3    H227873   5.815   6.668   8.710  0.5818  1.6013 -0.0054
 2080TIP3   OH227874   5.186   5.502   0.948 -0.2857 -0.0356 -0.3671
 2080TIP3    H127875   5.107   5.447   0.940  1.2990 -2.3583 -1.1539
 2080TIP3    H227876   5.249   5.447   0.995  1.6480  0.8258 -1.8097
 2081TIP3   OH227877   5.785   4.085   6.638  0.1555 -0.3172  0.6788
 2081TIP3    H127878   5.838   4.068   6.716  1.1527  0.2625  0.1569
 2081TIP3    H227879   5.849   4.110   6.571 -0.9297  2.9145  0.6696
 2082TIP3   OH227880   4.977   5.274   0.874  0.0071 -0.6542  0.4138
 2082TIP3    H127881   4.883   5.263   0.856  0.4020 -0.9651 -1.7816
 2082TIP3    H227882   4.983   5.275   0.969 -1.9731 -2.9904  0.6631
 2083TIP3   OH227883   2.889   5.829   8.058 -0.1329 -0.1966  0.1765
 2083TIP3    H127884   2.826   5.800   7.992 -0.7794  0.9354  0.2615
 2083TIP3    H227885   2.974   5.826   8.014 -0.5493  0.5116 -0.7161
 2084TIP3   OH227886   1.159   0.745   7.274 -0.3314 -0.3620 -0.3033
 2084TIP3    H127887   1.156   0.768   7.367  1.3128 -1.8995  0.1810
 2084TIP3    H227888   1.225   0.802   7.237 -1.5378  0.8044 -0.7498
 2085TIP3   OH227889   3.362   3.197   8.340  0.1223 -0.6759  0.1690
 2085TIP3    H127890   3.421   3.126   8.317  1.0248  0.2869 -0.6138
 2085TIP3    H227891   3.419   3.263   8.380 -0.4010  0.2578 -0.5773
 2086TIP3   OH227892   3.135   4.361   2.507 -0.0895  0.1346 -0.1178
 2086TIP3    H127893   3.182   4.278   2.512  0.6933  0.6118  0.7781
 2086TIP3    H227894   3.176   4.408   2.435  0.0643  0.0965 -0.0561
 2087TIP3   OH227895   4.124   0.132   1.604 -0.2906  0.2039  0.8691
 2087TIP3    H127896   4.054   0.175   1.553  0.5812  0.1985 -0.3846
 2087TIP3    H227897   4.189   0.201   1.617  0.5771 -0.4095 -0.1243
 2088TIP3   OH227898   3.012   3.924   7.425  0.4616 -0.1394  0.8495
 2088TIP3    H127899   2.987   3.844   7.379  0.8781  0.5289 -0.5952
 2088TIP3    H227900   3.085   3.898   7.480  0.9899 -0.6396 -0.0702
 2089TIP3   OH227901   6.557   0.382   7.830 -0.1106 -0.3070 -0.2692
 2089TIP3    H127902   6.474   0.334   7.829  0.3536 -1.1463  0.4010
 2089TIP3    H227903   6.532   0.473   7.819 -1.2861 -0.3207  1.9035
 2090TIP3   OH227904   3.284   5.072   1.096 -0.3341  0.2215  0.2013
 2090TIP3    H127905   3.289   5.095   1.004  1.5144  2.2751  0.7249
 2090TIP3    H227906   3.296   4.977   1.099  1.8955  0.3919 -1.5371
 2091TIP3   OH227907   4.527   1.906   7.295  0.1156 -0.0768  0.1906
 2091TIP3    H127908   4.490   1.984   7.254 -0.6814 -0.6275 -0.1687
 2091TIP3    H227909   4.621   1.914   7.280 -0.0654  0.1933 -0.9602
 2092TIP3   OH227910   4.851   2.462   0.562 -0.1730  0.1201 -0.0947
 2092TIP3    H127911   4.878   2.552   0.544  1.4153 -0.3191 -0.0489
 2092TIP3    H227912   4.808   2.433   0.482 -0.5207  0.8547 -0.1755
 2093TIP3   OH227913   4.367   2.833   7.131 -0.1578  0.3953  0.0777
 2093TIP3    H127914   4.396   2.759   7.184 -2.1126 -0.1455  0.4596
 2093TIP3    H227915   4.416   2.825   7.049 -0.2258 -1.2361  0.1723
 2094TIP3   OH227916   4.615   0.638   8.085 -0.0031  0.1204 -0.4872
 2094TIP3    H127917   4.695   0.633   8.137  0.0043  2.0452 -0.2282
 2094TIP3    H227918   4.609   0.553   8.042  2.3856  0.0370 -0.8163
 2095TIP3   OH227919   1.783   1.146   0.434 -0.2258  0.6734 -0.2721
 2095TIP3    H127920   1.767   1.069   0.489 -1.8020 -0.6845 -2.4339
 2095TIP3    H227921   1.697   1.187   0.425  0.1367  1.2999 -1.0383
 2096TIP3   OH227922   1.598   5.486   2.142 -0.3258 -0.0243  0.1821
 2096TIP3    H127923   1.515   5.494   2.190 -0.2306 -0.0040  0.3465
 2096TIP3    H227924   1.642   5.411   2.183 -1.4956 -1.8708 -1.7665
 2097TIP3   OH227925   0.576   1.295   1.136  0.2120 -0.3370 -0.1284
 2097TIP3    H127926   0.592   1.290   1.230 -0.2846 -2.7867 -0.1090
 2097TIP3    H227927   0.525   1.376   1.125  1.9744  1.0699  1.3850
 2098TIP3   OH227928   6.760   6.081   1.452  0.9125  0.4152  0.3172
 2098TIP3    H127929   6.682   6.126   1.419  1.0386  0.6707  0.3631
 2098TIP3    H227930   6.760   5.997   1.407 -0.1826 -0.1913  1.4025
 2099TIP3   OH227931   2.660   4.966   1.239 -0.2740  0.4582 -0.2272
 2099TIP3    H127932   2.587   5.017   1.274  1.0606  2.1014  0.2861
 2099TIP3    H227933   2.694   5.019   1.167 -0.6735 -1.1517 -1.6914
 2100TIP3   OH227934   2.504   6.536   1.792  1.0286 -0.4513  0.2548
 2100TIP3    H127935   2.436   6.603   1.792 -2.0854 -3.3388  1.8742
 2100TIP3    H227936   2.549   6.546   1.876  0.8354 -0.1898  0.3256
 2101TIP3   OH227937   3.079   2.768   7.625  0.2832 -0.0214 -0.4525
 2101TIP3    H127938   3.132   2.703   7.579 -0.6167  0.9650 -3.0809
 2101TIP3    H227939   3.142   2.821   7.673  1.2260 -1.5096 -0.0010
 2102TIP3   OH227940   1.749   3.667   7.278  0.1338 -0.1861  0.2224
 2102TIP3    H127941   1.772   3.608   7.206  2.7165  1.0407 -0.0690
 2102TIP3    H227942   1.718   3.746   7.234 -0.2962 -0.1850  0.5259
 2103TIP3   OH227943   3.878   4.322   1.172 -0.1981 -0.7090  0.8819
 2103TIP3    H127944   3.820   4.323   1.096  0.3105 -0.9769  0.4838
 2103TIP3    H227945   3.819   4.328   1.247 -0.8046 -1.9165  0.5172
 2104TIP3   OH227946   2.741   6.020   8.894 -0.0422 -0.4349  0.1541
 2104TIP3    H127947   2.648   5.996   8.892 -0.5414  1.4043 -0.7599
 2104TIP3    H227948   2.742   6.110   8.926  1.2487  0.1841 -1.4775
 2105TIP3   OH227949   0.986   5.303   7.730  0.1800 -0.2294  0.2566
 2105TIP3    H127950   0.954   5.213   7.719  0.1465 -0.2349  0.3993
 2105TIP3    H227951   0.939   5.336   7.807 -1.1488  0.5151 -0.8280
 2106TIP3   OH227952   2.649   3.389   0.809 -0.1350  0.2345  0.4375
 2106TIP3    H127953   2.573   3.339   0.781  0.8883 -1.3494  0.3911
 2106TIP3    H227954   2.637   3.475   0.769 -1.7771 -0.0502  0.2537
 2107TIP3   OH227955   5.888   3.820   1.922  0.6625  0.6222 -0.1526
 2107TIP3    H127956   5.824   3.779   1.863 -0.8616  2.7238 -0.0499
 2107TIP3    H227957   5.904   3.753   1.989  0.6752 -0.9444 -1.6262
 2108TIP3   OH227958   2.910   0.739   2.329  0.5075  0.4011 -0.2510
 2108TIP3    H127959   2.924   0.759   2.236  0.3893  1.6341 -0.0314
 2108TIP3    H227960   2.996   0.748   2.368  0.5079  0.1496 -0.1934
 2109TIP3   OH227961   0.204   5.563   1.574  0.2389 -0.2817  0.1980
 2109TIP3    H127962   0.112   5.555   1.551  0.3300  0.6601 -0.5569
 2109TIP3    H227963   0.221   5.490   1.634 -1.0619 -0.2736  0.5902
 2110TIP3   OH227964   1.589   0.097   8.699 -0.3370 -0.0552 -0.1154
 2110TIP3    H127965   1.671   0.141   8.676 -0.5457 -0.1343 -1.0282
 2110TIP3    H227966   1.582   0.024   8.637 -0.7963 -0.4148  0.3471
 2111TIP3   OH227967   2.671   2.900   7.700  0.4696 -0.2980 -0.1839
 2111TIP3    H127968   2.627   2.960   7.638 -0.8704  0.7662  1.6809
 2111TIP3    H227969   2.642   2.813   7.673  1.2736 -0.0241 -2.0649
 2112TIP3   OH227970   0.265   4.278   7.771  0.3118 -0.6083 -0.3130
 2112TIP3    H127971   0.174   4.293   7.794  0.4413  0.7200 -0.6007
 2112TIP3    H227972   0.262   4.211   7.702 -0.3186 -1.7327  0.7654
 2113TIP3   OH227973   1.309   0.457   6.161 -0.4831 -0.5443 -0.7908
 2113TIP3    H127974   1.310   0.553   6.157 -1.3888 -0.5546 -1.4685
 2113TIP3    H227975   1.402   0.433   6.158 -0.2697  0.2872 -1.3101
 2114TIP3   OH227976   4.971   2.894   7.378 -0.0073 -0.2413 -0.8138
 2114TIP3    H127977   4.968   2.819   7.437  1.0996 -1.1309 -1.8225
 2114TIP3    H227978   4.906   2.875   7.310 -0.0776 -0.0420 -0.8041
 2115TIP3   OH227979   0.689   4.562   1.792 -0.3976  0.0453 -0.2775
 2115TIP3    H127980   0.665   4.507   1.866  0.7012  1.1674  0.9767
 2115TIP3    H227981   0.767   4.520   1.755  0.0264  0.3533  0.2464
 2116TIP3   OH227982   5.866   6.601   8.375 -0.0652 -0.6469 -1.0181
 2116TIP3    H127983   5.858   6.692   8.404  0.5427 -0.6958 -0.6829
 2116TIP3    H227984   5.777   6.577   8.348 -0.8860 -0.8153  1.5044
 2117TIP3   OH227985   6.399   5.727   7.815  0.2589  0.3284  0.0235
 2117TIP3    H127986   6.461   5.785   7.859 -2.2080  3.4400 -0.2121
 2117TIP3    H227987   6.417   5.738   7.722  1.8751 -1.9461 -0.0028
 2118TIP3   OH227988   5.869   0.734   0.074  0.3089  0.6460  0.8991
 2118TIP3    H127989   5.810   0.796   0.029 -0.4780 -0.2874  0.6203
 2118TIP3    H227990   5.900   0.676   0.004  1.7520  1.2532  1.0047
 2119TIP3   OH227991   1.454   3.771   6.729  0.4815 -0.1243  0.0107
 2119TIP3    H127992   1.483   3.683   6.706  0.7689 -0.2493  0.8402
 2119TIP3    H227993   1.531   3.826   6.712  0.8849 -0.3025  1.2087
 2120TIP3   OH227994   1.030   4.210   7.096 -0.5863 -0.4167 -0.0343
 2120TIP3    H127995   1.043   4.116   7.079 -0.9533 -0.2561 -1.3705
 2120TIP3    H227996   0.937   4.218   7.116 -1.2207 -0.0398 -2.6908
 2121TIP3   OH227997   6.263   6.302   8.736  0.4795  0.1554  0.1001
 2121TIP3    H127998   6.208   6.373   8.768 -0.6121 -0.3593 -0.5987
 2121TIP3    H227999   6.306   6.339   8.658  0.1851  0.1665 -0.0584
 2122TIP3   OH228000   5.244   6.713   1.806 -0.1863 -0.2149 -0.0578
 2122TIP3    H128001   5.318   6.657   1.783 -2.4842 -4.0515  0.9037
 2122TIP3    H228002   5.225   6.692   1.897 -1.5044  1.8847  0.2210
 2123TIP3   OH228003   3.786   3.580   8.082 -0.5045  0.8552 -0.6005
 2123TIP3    H128004   3.712   3.532   8.118  1.5428 -1.6233  0.6534
 2123TIP3    H228005   3.810   3.531   8.003  1.8601 -0.6446  0.9112
 2124TIP3   OH228006   2.860   4.537   0.822 -0.5494  0.3058  0.6429
 2124TIP3    H128007   2.873   4.620   0.776 -0.5752  0.0387  0.1478
 2124TIP3    H228008   2.858   4.561   0.915  1.9021  0.5829  0.6887
 2125TIP3   OH228009   4.617   1.317   7.376 -0.5082  0.3344  0.8523
 2125TIP3    H128010   4.687   1.275   7.426 -1.4276 -0.8508  1.2039
 2125TIP3    H228011   4.570   1.370   7.441  0.0744  1.1645  0.6077
 2126TIP3   OH228012   5.851   5.052   7.339  0.2283 -0.4929  0.2759
 2126TIP3    H128013   5.858   4.985   7.271  0.4227 -0.3932  0.1997
 2126TIP3    H228014   5.805   5.125   7.297  0.5063 -0.3613  0.1990
 2127TIP3   OH228015   0.074   4.045   0.322 -0.2597 -0.8238 -0.4329
 2127TIP3    H128016   0.031   4.019   0.403  0.2807 -3.6154 -0.9180
 2127TIP3    H228017   0.113   3.964   0.289  1.7136  0.7229 -2.1892
 2128TIP3   OH228018   5.415   1.683   2.662  0.1934 -0.0651 -0.6426
 2128TIP3    H128019   5.373   1.669   2.578 -0.8301  0.2223 -0.1972
 2128TIP3    H228020   5.386   1.770   2.690  2.5259  0.9377 -1.1241
 2129TIP3   OH228021   5.430   1.142   7.593 -0.6037 -0.0991  0.3897
 2129TIP3    H128022   5.341   1.150   7.628 -1.4534  1.2744 -1.8048
 2129TIP3    H228023   5.421   1.084   7.518  0.4783 -0.3758  0.4590
 2130TIP3   OH228024   2.355   5.813   0.735 -0.5202 -0.1113 -0.4477
 2130TIP3    H128025   2.436   5.833   0.688  0.9019 -0.9917  1.5135
 2130TIP3    H228026   2.382   5.801   0.826 -2.8824 -0.3309  0.2867
 2131TIP3   OH228027   0.440   1.755   8.100 -0.3767  0.0990  0.0505
 2131TIP3    H128028   0.476   1.669   8.079  0.8769  0.7463 -0.6079
 2131TIP3    H228029   0.462   1.809   8.024  0.2777  1.3888  1.1153
 2132TIP3   OH228030   0.661   0.260   0.440 -0.3442  0.7711 -0.3159
 2132TIP3    H128031   0.575   0.245   0.400 -0.4942  1.1054 -0.1218
 2132TIP3    H228032   0.643   0.262   0.534 -0.0025  0.0496 -0.2301
 2133TIP3   OH228033   2.994   5.156   0.667 -0.4301  0.3335  0.2011
 2133TIP3    H128034   2.952   5.232   0.707 -1.7534 -0.2119 -0.0806
 2133TIP3    H228035   2.921   5.100   0.641  0.5203 -1.0891  0.5031
 2134TIP3   OH228036   3.163   5.790   6.819  0.2180 -0.3677  0.1522
 2134TIP3    H128037   3.073   5.769   6.843  0.0152 -0.5744 -0.7577
 2134TIP3    H228038   3.156   5.834   6.734  0.9749 -0.3922  0.0656
 2135TIP3   OH228039   6.486   4.408   2.532  0.4267 -0.0554 -0.3988
 2135TIP3    H128040   6.546   4.350   2.486 -0.2237 -0.0547 -1.2655
 2135TIP3    H228041   6.403   4.360   2.533 -0.4466  1.3502 -2.2065
 2136TIP3   OH228042   1.903   1.153   0.200 -0.1900  0.3302  0.0034
 2136TIP3    H128043   1.851   1.114   0.269  1.3784 -0.4240  0.8054
 2136TIP3    H228044   1.978   1.094   0.189  0.4874  1.3394 -1.1314
 2137TIP3   OH228045   2.615   1.663   7.231 -0.6607 -0.5146 -0.1781
 2137TIP3    H128046   2.671   1.616   7.292 -1.1073  2.3242  2.6947
 2137TIP3    H228047   2.526   1.649   7.263 -0.7967  2.2664  0.9617
 2138TIP3   OH228048   0.870   2.425   0.444 -0.1471 -0.3505 -0.4429
 2138TIP3    H128049   0.872   2.450   0.536 -1.0006  0.2323 -0.5641
 2138TIP3    H228050   0.817   2.345   0.442 -1.9055  0.7585 -0.6298
 2139TIP3   OH228051   2.007   6.179   7.709  0.1975 -0.0245  0.3675
 2139TIP3    H128052   1.973   6.147   7.792 -1.0937 -1.9466 -0.8084
 2139TIP3    H228053   1.956   6.258   7.690  0.1300  0.1191  1.1345
 2140TIP3   OH228054   2.877   3.733   6.613 -0.6433 -0.1664 -0.0726
 2140TIP3    H128055   2.794   3.771   6.644 -0.6758 -1.1720  1.1424
 2140TIP3    H228056   2.856   3.642   6.594  0.2372 -0.5005  0.4942
 2141TIP3   OH228057   5.304   3.196   7.621  0.4448  0.0617 -0.1492
 2141TIP3    H128058   5.292   3.116   7.672  0.8078  0.2561  0.2484
 2141TIP3    H228059   5.235   3.256   7.652 -1.1497 -0.7738 -1.8760
 2142TIP3   OH228060   1.015   0.065   8.640  0.1087  0.6554  0.4238
 2142TIP3    H128061   1.074   0.073   8.564 -0.5858  1.9248 -0.0144
 2142TIP3    H228062   1.072   0.082   8.715  0.5034  0.9162  0.0780
 2143TIP3   OH228063   2.293   5.144   1.678  0.1571  0.2702 -0.1168
 2143TIP3    H128064   2.370   5.093   1.654  0.4528 -1.0718  3.1002
 2143TIP3    H228065   2.230   5.079   1.711 -0.4763  1.7003  1.7033
 2144TIP3   OH228066   3.689   4.676   8.728  0.3977  0.5811 -0.2279
 2144TIP3    H128067   3.774   4.702   8.763  0.0236  0.8239  0.5290
 2144TIP3    H228068   3.682   4.583   8.749  1.3070  0.0534 -2.0514
 2145TIP3   OH228069   5.744   5.714   7.573  0.5352  0.6501  0.0789
 2145TIP3    H128070   5.719   5.732   7.482  0.5172  0.4108  0.0362
 2145TIP3    H228071   5.777   5.798   7.605 -2.3240  1.6246  0.8137
 2146TIP3   OH228072   5.745   1.073   2.422 -0.7330 -0.1921  0.7546
 2146TIP3    H128073   5.791   1.087   2.505  0.0972 -0.6279  0.3827
 2146TIP3    H228074   5.655   1.054   2.448 -0.9574  1.6171  1.4637
 2147TIP3   OH228075   1.929   4.464   8.664  0.5242 -0.1026  0.2280
 2147TIP3    H128076   1.934   4.423   8.751  0.9934 -0.1598  0.1738
 2147TIP3    H228077   2.004   4.522   8.660  0.3931  0.0476 -0.0683
 2148TIP3   OH228078   5.573   5.255   2.238  0.0138 -0.0236 -0.5887
 2148TIP3    H128079   5.632   5.181   2.253 -1.7052 -1.6147 -1.2521
 2148TIP3    H228080   5.575   5.304   2.320 -0.6536 -2.2184  0.8316
 2149TIP3   OH228081   1.814   2.664   1.606  0.0656  0.1850 -0.2442
 2149TIP3    H128082   1.879   2.694   1.670  1.1771  1.6194 -1.9722
 2149TIP3    H228083   1.733   2.656   1.657  1.0876  0.3930  1.5150
 2150TIP3   OH228084   2.642   2.975   8.819 -0.1926 -0.0685  0.1608
 2150TIP3    H128085   2.571   2.936   8.871  0.0848  2.3971  2.6338
 2150TIP3    H228086   2.708   2.906   8.815 -1.2455 -1.1813  0.9883
 2151TIP3   OH228087   0.846   1.333   7.136 -0.0857 -0.4430  0.1934
 2151TIP3    H128088   0.762   1.286   7.141 -0.0007 -0.7019 -0.6403
 2151TIP3    H228089   0.868   1.333   7.043  0.7675 -0.2387  0.3859
 2152TIP3   OH228090   1.146   5.704   7.311 -0.0216  0.0808  0.0340
 2152TIP3    H128091   1.057   5.732   7.335  0.0821  0.1416  0.3544
 2152TIP3    H228092   1.174   5.766   7.245 -1.2776 -1.5609 -2.1752
 2153TIP3   OH228093   3.489   1.223   1.449  0.1430 -0.4723 -0.0415
 2153TIP3    H128094   3.406   1.213   1.496 -1.0400  0.8616 -1.7276
 2153TIP3    H228095   3.483   1.309   1.407  1.2784 -1.4170 -2.3088
 2154TIP3   OH228096   0.245   2.645   0.048 -0.0381  0.2124  0.0076
 2154TIP3    H128097   0.261   2.738   0.064  0.0524  0.6763 -2.3478
 2154TIP3    H228098   0.332   2.610   0.027 -0.1184 -0.3636  0.6073
 2155TIP3   OH228099   3.372   0.155   0.279  0.2445 -0.1960 -0.0175
 2155TIP3    H128100   3.357   0.235   0.330 -1.6826 -0.9446  0.6815
 2155TIP3    H228101   3.298   0.099   0.300  0.8050 -1.6198 -1.6027
 2156TIP3   OH228102   1.722   2.675   5.984  0.1440  0.5582  0.2427
 2156TIP3    H128103   1.680   2.723   5.913 -0.7216 -1.2042 -0.4976
 2156TIP3    H228104   1.651   2.656   6.045  0.0101 -1.5131 -0.4896
 2157TIP3   OH228105   5.576   0.062   8.819 -0.4544 -0.2684  0.3435
 2157TIP3    H128106   5.555  -0.029   8.798 -1.9824  0.2809 -0.7091
 2157TIP3    H228107   5.494   0.109   8.803 -0.3767  0.9810  3.0838
 2158TIP3   OH228108   1.178   1.702   7.645  0.2639 -0.2617 -0.8857
 2158TIP3    H128109   1.161   1.643   7.572  0.3052  0.7198 -1.7134
 2158TIP3    H228110   1.110   1.768   7.639  1.1983  0.7203 -1.0158
 2159TIP3   OH228111   0.278   4.262   2.168  0.1293 -0.2369  0.0182
 2159TIP3    H128112   0.356   4.253   2.114  0.5255 -0.5571  0.6358
 2159TIP3    H228113   0.311   4.279   2.256 -0.5027 -0.0791  0.2324
 2160TIP3   OH228114   3.040   4.787   8.623 -0.2296  0.1375  0.4286
 2160TIP3    H128115   3.034   4.691   8.620  0.6831  0.0402  1.1115
 2160TIP3    H228116   3.028   4.808   8.716  2.3289  0.4377  0.7696
 2161TIP3   OH228117   0.094   6.558   2.224 -0.1278  0.5761 -0.1018
 2161TIP3    H128118   0.098   6.500   2.300 -3.0137  1.5720  0.9278
 2161TIP3    H228119   0.084   6.499   2.150 -1.7898 -0.3619  0.8014
 2162TIP3   OH228120   3.397   0.242   6.730  0.4076  0.4289  0.2611
 2162TIP3    H128121   3.479   0.196   6.711  0.0911  0.3048 -0.8270
 2162TIP3    H228122   3.385   0.303   6.657 -0.1390  0.9196  0.7455
 2163TIP3   OH228123   4.844   6.131   7.565  0.0911  0.0079  0.6889
 2163TIP3    H128124   4.774   6.112   7.502  1.1999  0.1142 -0.6375
 2163TIP3    H228125   4.865   6.223   7.550  1.0165 -0.2183  0.5270
 2164TIP3   OH228126   1.324   2.710   1.146  0.0082  0.2077 -0.2164
 2164TIP3    H128127   1.244   2.762   1.154 -0.2248 -0.1207 -0.3810
 2164TIP3    H228128   1.355   2.698   1.235 -1.8613 -2.3422  0.1983
 2165TIP3   OH228129   0.763   1.656   1.551 -0.0114 -0.2418  0.3060
 2165TIP3    H128130   0.688   1.622   1.502  0.3529 -0.3340 -0.2075
 2165TIP3    H228131   0.839   1.628   1.499  0.3763 -0.1675  0.8269
 2166TIP3   OH228132   0.403   3.520   0.880  0.5226  0.7005 -0.2376
 2166TIP3    H128133   0.438   3.456   0.818 -0.0926 -0.4883  0.6063
 2166TIP3    H228134   0.310   3.499   0.886  0.1357  2.2491 -0.5944
 2167TIP3   OH228135   3.080   1.231   8.445 -0.0691 -0.0495 -0.5840
 2167TIP3    H128136   3.087   1.292   8.517 -0.1237  1.1576 -1.5692
 2167TIP3    H228137   3.035   1.280   8.376 -0.2561 -1.2459 -1.3510
 2168TIP3   OH228138   6.232   5.203   0.635  0.0762  0.1964 -0.0968
 2168TIP3    H128139   6.241   5.256   0.555  1.8952  0.4641  0.2376
 2168TIP3    H228140   6.139   5.183   0.640  0.0588 -0.9317 -3.0059
 2169TIP3   OH228141   0.608   1.839   1.173  0.3598 -0.1109 -0.3347
 2169TIP3    H128142   0.547   1.785   1.223 -1.6152  2.4637  0.2431
 2169TIP3    H228143   0.669   1.873   1.238 -0.0426  0.4565 -0.2526
 2170TIP3   OH228144   2.717   3.929   8.200  0.1802 -0.1129  0.2963
 2170TIP3    H128145   2.659   3.860   8.169 -1.6715  1.4423  0.1251
 2170TIP3    H228146   2.775   3.885   8.263 -0.8520 -1.8199  0.1229
 2171TIP3   OH228147   2.735   6.339   1.345  0.1001  0.2209 -0.1563
 2171TIP3    H128148   2.713   6.329   1.437  0.0993  0.9499 -0.0748
 2171TIP3    H228149   2.738   6.433   1.330  1.1012  0.1308 -0.6612
 2172TIP3   OH228150   0.478   3.827   0.368 -0.3937  0.2018  0.1297
 2172TIP3    H128151   0.446   3.900   0.421 -0.8470 -0.7722  1.2352
 2172TIP3    H228152   0.492   3.756   0.430 -0.7062 -0.9091 -1.0287
 2173TIP3   OH228153   5.125   4.453   8.654  0.2273  0.3380 -0.2614
 2173TIP3    H128154   5.101   4.362   8.669 -0.8337  0.7070  0.3935
 2173TIP3    H228155   5.075   4.502   8.720  0.2201  1.4550 -1.0759
 2174TIP3   OH228156   2.565   4.895   8.953 -0.6142  0.2820 -0.0146
 2174TIP3    H128157   2.590   4.987   8.943 -1.4582  0.4450 -0.8359
 2174TIP3    H228158   2.478   4.898   8.993 -1.4424 -0.0550 -1.6732
 2175TIP3   OH228159   3.962   5.256   8.769  0.2324  0.3093 -0.2316
 2175TIP3    H128160   3.894   5.290   8.828  0.7388 -1.3434  1.3709
 2175TIP3    H228161   4.042   5.259   8.820  0.8211 -0.5462 -1.0751
 2176TIP3   OH228162   6.585   1.239   7.349 -0.4694 -0.7815 -0.1280
 2176TIP3    H128163   6.574   1.328   7.314  1.7713 -0.7809 -1.0256
 2176TIP3    H228164   6.558   1.182   7.277 -0.4138 -0.8055 -0.1295
 2177TIP3   OH228165   2.122   4.376   0.723 -0.0402  0.3775  0.1689
 2177TIP3    H128166   2.068   4.452   0.744 -1.0397 -0.1298 -0.4955
 2177TIP3    H228167   2.205   4.413   0.693 -1.2199  1.2942 -2.1588
 2178TIP3   OH228168   0.188   0.623   7.199  0.5351  0.2479 -0.0682
 2178TIP3    H128169   0.265   0.647   7.146  1.1121 -1.9522 -0.3133
 2178TIP3    H228170   0.130   0.578   7.138  0.3606 -0.6635  0.7485
 2179TIP3   OH228171   4.193   2.851   0.271  0.0990 -0.5787  0.1381
 2179TIP3    H128172   4.179   2.875   0.180  0.7619  2.2498  0.6897
 2179TIP3    H228173   4.225   2.761   0.268 -0.3194 -0.6995 -2.3653
 2180TIP3   OH228174   5.740   4.093   0.128 -0.4559  0.0015  0.1531
 2180TIP3    H128175   5.713   4.034   0.058 -0.4173 -0.0170  0.1539
 2180TIP3    H228176   5.788   4.163   0.082 -0.9315  0.2945  0.0921
 2181TIP3   OH228177   2.764   2.433   0.347  0.2631 -0.1082 -0.6357
 2181TIP3    H128178   2.817   2.423   0.268  0.2859 -1.6086 -0.4569
 2181TIP3    H228179   2.736   2.524   0.346  0.2043 -0.1193 -2.4047
 2182TIP3   OH228180   5.069   1.027   1.878 -0.1122 -0.0536 -0.0210
 2182TIP3    H128181   5.102   1.091   1.815 -0.2784  1.6474  1.5413
 2182TIP3    H228182   5.136   1.022   1.945 -0.9816  0.0065  0.8804
 2183TIP3   OH228183   1.244   5.722   7.965  0.0365  0.2526 -0.0492
 2183TIP3    H128184   1.224   5.675   7.885 -0.3412  2.4242 -1.2997
 2183TIP3    H228185   1.208   5.809   7.952 -2.8438 -0.0999  3.7134
 2184TIP3   OH228186   4.117   1.209   2.200  0.8198 -0.4484 -0.4388
 2184TIP3    H128187   4.160   1.123   2.207 -0.2242 -0.9015  0.8822
 2184TIP3    H228188   4.073   1.220   2.284 -0.1569  0.8069 -1.0854
 2185TIP3   OH228189   2.292   4.147   0.551 -0.3823  0.0373 -0.6368
 2185TIP3    H128190   2.253   4.063   0.525 -0.4800 -0.5241  1.1758
 2185TIP3    H228191   2.296   4.198   0.470  2.7076 -2.8414 -2.5426
 2186TIP3   OH228192   5.476   4.761   7.959  0.3943  0.4025  0.0596
 2186TIP3    H128193   5.531   4.756   7.881  1.2832 -2.0847  0.7311
 2186TIP3    H228194   5.421   4.682   7.955 -0.1027  0.6367  1.5248
 2187TIP3   OH228195   1.498   1.322   7.486  0.0133 -0.0291  0.0339
 2187TIP3    H128196   1.593   1.310   7.488  0.0507  0.1925 -0.3435
 2187TIP3    H228197   1.467   1.254   7.425  0.2281  1.7068 -2.1476
 2188TIP3   OH228198   2.992   4.374   1.885  0.5187 -0.4215  0.0590
 2188TIP3    H128199   3.031   4.446   1.835  0.4424  0.3606  1.0990
 2188TIP3    H228200   3.027   4.384   1.973 -1.0674 -0.4280  0.7279
 2189TIP3   OH228201   6.625   6.334   0.981 -0.5716 -0.1828  0.5592
 2189TIP3    H128202   6.652   6.343   1.072  1.7337  2.2222 -0.2591
 2189TIP3    H228203   6.538   6.374   0.977 -0.4228  0.2499  1.5802
 2190TIP3   OH228204   0.254   4.583   0.307  0.4070 -0.0121  0.3141
 2190TIP3    H128205   0.227   4.494   0.285  1.9761 -0.1610 -1.2321
 2190TIP3    H228206   0.277   4.623   0.223  1.4016  1.2604  1.1462
 2191TIP3   OH228207   4.632   3.887   8.304 -0.5009  0.3550 -0.2197
 2191TIP3    H128208   4.550   3.878   8.355 -0.7392  0.1674 -0.6311
 2191TIP3    H228209   4.694   3.829   8.349 -0.1092  1.7134  1.0519
 2192TIP3   OH228210   4.680   3.349   8.226  0.1738 -0.0506 -0.6504
 2192TIP3    H128211   4.739   3.306   8.165  0.8492  0.5328 -0.4244
 2192TIP3    H228212   4.723   3.433   8.245  0.8202 -0.8653  1.8523
 2193TIP3   OH228213   1.039   2.735   7.749 -0.0302 -0.1952 -0.4830
 2193TIP3    H128214   1.134   2.742   7.744 -0.0429 -0.2670 -0.8249
 2193TIP3    H228215   1.021   2.644   7.725 -0.1892 -0.1711 -0.4539
 2194TIP3   OH228216   4.392   2.158   0.956  0.1831 -0.1793 -0.6622
 2194TIP3    H128217   4.483   2.185   0.966 -0.1540  0.8615 -0.2706
 2194TIP3    H228218   4.343   2.240   0.951 -0.9195 -0.6852  0.9500
 2195TIP3   OH228219   6.037   2.315   8.306  0.4217 -0.0079 -0.5262
 2195TIP3    H128220   6.095   2.292   8.379 -1.1591 -0.7544  0.5568
 2195TIP3    H228221   6.008   2.404   8.327  0.8021  0.1942 -0.8359
 2196TIP3   OH228222   6.014   5.881   1.243  0.3981  0.6763 -0.1170
 2196TIP3    H128223   6.099   5.890   1.288  2.3501 -1.1476 -3.0753
 2196TIP3    H228224   5.995   5.788   1.247 -0.1870  0.7126 -1.5832
 2197TIP3   OH228225   5.303   3.513   0.588  0.0256 -0.0448 -0.0895
 2197TIP3    H128226   5.224   3.557   0.555 -0.5686 -0.3359  0.9121
 2197TIP3    H228227   5.371   3.579   0.582 -0.6559  0.7362  0.5499
 2198TIP3   OH228228   6.198   5.143   2.522  0.2895 -0.0099  0.2465
 2198TIP3    H128229   6.255   5.220   2.527 -0.5220  0.9029 -2.6400
 2198TIP3    H228230   6.240   5.086   2.457  0.0398 -1.2802  1.1675
 2199TIP3   OH228231   2.620   1.077   6.579 -0.6220 -0.3467  0.1744
 2199TIP3    H128232   2.584   0.991   6.599  1.1041 -1.2585 -0.4293
 2199TIP3    H228233   2.685   1.093   6.647 -2.9497  1.9093  2.0938
 2200TIP3   OH228234   4.206   1.748   7.575  0.9366 -0.3513  0.1400
 2200TIP3    H128235   4.254   1.679   7.530  1.0193  1.2308 -2.3836
 2200TIP3    H228236   4.142   1.780   7.510 -0.2735  0.7866  1.7931
 2201TIP3   OH228237   2.252   3.638   7.879  0.1219 -0.4099 -0.5017
 2201TIP3    H128238   2.333   3.688   7.885  0.1579 -0.5330  0.0675
 2201TIP3    H228239   2.183   3.704   7.869  0.0319 -0.1584  1.5235
 2202TIP3   OH228240   1.926   1.910   0.303  0.0298 -0.3422  0.0468
 2202TIP3    H128241   1.974   1.956   0.234 -0.7456 -1.5966 -1.3987
 2202TIP3    H228242   1.971   1.827   0.312 -2.3655 -2.0491 -2.1666
 2203TIP3   OH228243   3.982   2.142   8.535  0.5244  0.3719  0.2030
 2203TIP3    H128244   4.023   2.226   8.551  0.2367  0.3669  1.0002
 2203TIP3    H228245   3.888   2.161   8.533  0.4883  0.1686 -0.2673
 2204TIP3   OH228246   1.695   1.790   6.342  0.2008 -0.4345 -0.1016
 2204TIP3    H128247   1.637   1.749   6.279  1.1634 -1.7757 -0.1636
 2204TIP3    H228248   1.763   1.832   6.289 -1.0952  1.8639 -0.0666
 2205TIP3   OH228249   2.482   4.042   1.337  0.3989  0.0053  0.1499
 2205TIP3    H128250   2.566   4.063   1.297 -0.6293  2.8021 -0.7838
 2205TIP3    H228251   2.494   4.064   1.430  0.8895 -0.3991  0.1933
 2206TIP3   OH228252   4.014   4.125   0.783 -0.1430  0.4920 -0.4042
 2206TIP3    H128253   3.945   4.176   0.741 -1.2331  0.0557  0.8027
 2206TIP3    H228254   4.026   4.166   0.869  0.9586  0.4262 -0.5064
 2207TIP3   OH228255   3.389   3.358   0.921  0.0614 -0.2104 -0.2135
 2207TIP3    H128256   3.414   3.349   1.013  1.3270  1.6538 -0.3270
 2207TIP3    H228257   3.293   3.356   0.922 -0.0034  1.5650  1.3907
 2208TIP3   OH228258   5.595   4.102   8.338 -0.1022  0.0149 -0.2707
 2208TIP3    H128259   5.515   4.071   8.296  1.2289 -1.2511 -2.0342
 2208TIP3    H228260   5.592   4.197   8.328 -1.0690 -0.0644 -0.9033
 2209TIP3   OH228261   0.073   6.625   1.953 -0.4134  0.6416 -0.0646
 2209TIP3    H128262   0.097   6.714   1.928  1.1845  0.2346 -0.0314
 2209TIP3    H228263   0.138   6.569   1.911  1.0305 -0.2382  3.0698
 2210TIP3   OH228264   0.417   3.241   1.090 -0.3900  0.0331  0.8973
 2210TIP3    H128265   0.424   3.336   1.094 -1.9056  0.6748 -4.4145
 2210TIP3    H228266   0.334   3.225   1.045 -0.0529 -3.8422  1.3350
 2211TIP3   OH228267   6.280   0.598   8.779 -0.1394  0.0085  0.1805
 2211TIP3    H128268   6.221   0.670   8.758  1.9602  2.0162  0.8039
 2211TIP3    H228269   6.280   0.544   8.700 -0.3936  1.6892 -1.0265
 2212TIP3   OH228270   1.510   0.281   0.807 -0.3042  0.1352  0.5671
 2212TIP3    H128271   1.548   0.354   0.855  0.0169 -0.0989  0.6737
 2212TIP3    H228272   1.415   0.293   0.815 -0.2945 -0.7157  2.5479
 2213TIP3   OH228273   6.024   3.026   0.169 -0.2066  0.2622  0.0310
 2213TIP3    H128274   5.952   3.089   0.170 -0.5100 -0.0790 -0.3993
 2213TIP3    H228275   6.041   3.010   0.077  1.7345  1.8301  0.0219
 2214TIP3   OH228276   6.051   0.604   1.101  0.0286 -0.4470 -0.3366
 2214TIP3    H128277   6.128   0.635   1.053  0.0816 -2.4821 -1.6549
 2214TIP3    H228278   6.011   0.539   1.044 -1.5209 -0.9294  1.2112
 2215TIP3   OH228279   6.396   4.710   7.770 -0.0339 -0.3743  0.4881
 2215TIP3    H128280   6.310   4.749   7.756  0.6760  0.4386 -2.3324
 2215TIP3    H228281   6.382   4.616   7.758 -0.7762 -0.4569  1.7783
 2216TIP3   OH228282   0.693   5.784   7.245  0.2030  0.2995 -0.6255
 2216TIP3    H128283   0.754   5.731   7.193 -0.4506  0.5004 -1.6308
 2216TIP3    H228284   0.737   5.796   7.329  0.5166 -1.5291 -0.5032
 2217TIP3   OH228285   5.671   0.706   8.566  1.0387 -0.1794 -0.4021
 2217TIP3    H128286   5.611   0.726   8.494  1.8924  0.7394 -0.9005
 2217TIP3    H228287   5.751   0.755   8.544  1.0602  0.7587  1.5616
 2218TIP3   OH228288   5.744   4.939   7.800  0.3598  0.4213 -0.2738
 2218TIP3    H128289   5.768   4.846   7.795  1.4788  0.5548  1.6596
 2218TIP3    H228290   5.802   4.983   7.739 -0.6124 -0.1830 -1.6896
 2219TIP3   OH228291   5.338   0.465   7.835  0.3430  0.1396 -0.1154
 2219TIP3    H128292   5.384   0.548   7.835  0.0092  0.3375  0.7595
 2219TIP3    H228293   5.272   0.473   7.767 -0.2455  0.9067  0.5458
 2220TIP3   OH228294   2.671   3.698   0.792  0.1567  0.2816  0.2181
 2220TIP3    H128295   2.666   3.695   0.696  0.2786  0.8317  0.1910
 2220TIP3    H228296   2.580   3.690   0.821  0.1261  0.0400  0.0612
 2221TIP3   OH228297   4.750   1.210   7.607 -0.1050  1.0279 -0.6719
 2221TIP3    H128298   4.795   1.156   7.671 -1.4742 -0.9096 -1.2416
 2221TIP3    H228299   4.711   1.281   7.659 -0.5503 -0.0659  0.5399
 2222TIP3   OH228300   6.725   3.856   8.939  0.0425 -0.1973 -0.0555
 2222TIP3    H128301   6.701   3.804   9.015  0.4651 -0.1572  0.1074
 2222TIP3    H228302   6.747   3.791   8.872 -0.8954 -0.2403 -0.3369
 2223TIP3   OH228303   5.899   3.288   1.225  0.7411 -0.3342 -0.1661
 2223TIP3    H128304   5.858   3.204   1.208 -0.6636  0.5445 -1.3296
 2223TIP3    H228305   5.857   3.320   1.305  2.6525 -1.5194  1.4319
 2224TIP3   OH228306   1.744   0.911   0.547  0.0197  0.1547  0.2020
 2224TIP3    H128307   1.809   0.844   0.524  0.2148  0.3006  0.3325
 2224TIP3    H228308   1.701   0.876   0.625  2.0156  1.4390  1.9753
 2225TIP3   OH228309   4.509   6.625   8.299  0.2817 -0.2231 -0.4634
 2225TIP3    H128310   4.445   6.554   8.305 -0.3344  0.1672 -1.9949
 2225TIP3    H228311   4.494   6.677   8.377  0.6364 -1.6620  0.6128
 2226TIP3   OH228312   4.941   1.040   2.160 -0.4281  0.2509 -0.1873
 2226TIP3    H128313   5.006   0.971   2.175 -0.3164  0.3512 -0.2041
 2226TIP3    H228314   4.941   1.052   2.065 -1.2362 -0.4816 -0.2829
 2227TIP3   OH228315   3.466   4.168   0.860  0.0942 -0.3535 -0.1275
 2227TIP3    H128316   3.391   4.163   0.920 -0.4293  1.9992 -0.5088
 2227TIP3    H228317   3.451   4.247   0.809  2.3557 -0.3744 -0.9125
 2228TIP3   OH228318   3.185   1.803   0.455  0.1802  0.1510  0.1905
 2228TIP3    H128319   3.142   1.878   0.497  1.0014 -0.1241  1.6229
 2228TIP3    H228320   3.159   1.807   0.364 -2.6526  0.1445  0.9208
 2229TIP3   OH228321   5.906   6.016   8.597  0.9588  0.2564 -0.2576
 2229TIP3    H128322   5.996   6.000   8.625  0.5865  0.4304  1.0921
 2229TIP3    H228323   5.888   6.107   8.622 -0.1051 -0.2646  0.9979
 2230TIP3   OH228324   0.462   0.121   6.894  0.5215  0.2184  0.1271
 2230TIP3    H128325   0.425   0.141   6.979 -3.5426 -1.9434 -0.8662
 2230TIP3    H228326   0.513   0.041   6.908  0.7067  0.4340  0.6940
 2231TIP3   OH228327   2.304   6.160   2.165  0.4009 -0.2924  0.4910
 2231TIP3    H128328   2.361   6.171   2.241 -0.3330 -0.6457  1.1009
 2231TIP3    H228329   2.360   6.118   2.099  1.9750  2.8441 -0.3354
 2232TIP3   OH228330   2.564   5.433   1.680 -0.1654 -0.6214  0.3170
 2232TIP3    H128331   2.607   5.505   1.634 -1.4253 -0.8631 -1.3240
 2232TIP3    H228332   2.506   5.475   1.743 -1.5755 -0.0966 -1.2501
 2233TIP3   OH228333   6.021   0.556   0.740  0.2423  0.5866  0.4471
 2233TIP3    H128334   6.007   0.647   0.715 -2.8688  0.0600 -0.1012
 2233TIP3    H228335   6.098   0.528   0.690 -1.1604  1.7828 -2.5851
 2234TIP3   OH228336   6.602   5.960   1.058 -0.5603  0.3280  0.1564
 2234TIP3    H128337   6.616   6.013   0.980 -0.6780 -0.5302 -0.4708
 2234TIP3    H228338   6.691   5.934   1.085 -0.5927 -1.9617 -1.5778
 2235TIP3   OH228339   5.119   6.622   8.028  0.2363 -0.6748 -0.1272
 2235TIP3    H128340   5.087   6.606   7.939  0.7899 -0.3080 -0.4020
 2235TIP3    H228341   5.079   6.553   8.081 -0.8248 -0.3513 -0.4908
 2236TIP3   OH228342   5.653   6.657   0.868  0.0315  0.3885 -0.3377
 2236TIP3    H128343   5.749   6.656   0.869  0.0211 -0.0573  0.2645
 2236TIP3    H228344   5.631   6.742   0.829  0.6770  1.0434  0.6614
 2237TIP3   OH228345   0.719   1.514   8.777  0.4732 -0.3347  0.0063
 2237TIP3    H128346   0.698   1.587   8.836  0.7034  0.7207 -1.1808
 2237TIP3    H228347   0.807   1.487   8.804  0.4380 -0.0912  0.3711
 2238TIP3   OH228348   5.855   0.931   8.669 -0.1432  0.1940 -0.3494
 2238TIP3    H128349   5.796   0.960   8.599 -1.1079 -1.7155 -0.3989
 2238TIP3    H228350   5.797   0.911   8.742  0.4438 -1.2821 -0.2452
 2239TIP3   OH228351   0.986   5.057   7.970 -0.0651 -0.5245  0.0660
 2239TIP3    H128352   0.947   5.060   7.883 -0.1364 -2.0115  0.0238
 2239TIP3    H228353   1.029   5.142   7.980  0.5710 -0.5879 -1.7136
 2240TIP3   OH228354   1.848   2.235   0.230 -0.0211 -0.2169  0.0379
 2240TIP3    H128355   1.859   2.319   0.185  0.0291  0.9092  2.0099
 2240TIP3    H228356   1.932   2.191   0.219 -0.1665 -0.2009 -1.3253
 2241TIP3   OH228357   2.387   2.359   0.272 -0.3214  0.0624  0.1710
 2241TIP3    H128358   2.422   2.409   0.345 -1.6799 -1.4731  1.9644
 2241TIP3    H228359   2.297   2.391   0.262 -0.2525  0.0271 -0.6513
 2242TIP3   OH228360   2.355   4.264   1.314  0.3976  0.0165 -0.1844
 2242TIP3    H128361   2.288   4.256   1.246 -0.7590  0.3557  0.8834
 2242TIP3    H228362   2.401   4.180   1.313 -1.1401 -0.8543  0.1806
 2243TIP3   OH228363   3.952   6.201   0.387 -0.4262 -0.0317  0.0259
 2243TIP3    H128364   4.006   6.144   0.333 -1.6551 -0.5334 -0.7114
 2243TIP3    H228365   3.878   6.146   0.414  0.3360  0.0792  2.5804
 2244TIP3   OH228366   4.819   2.841   8.945  0.5023  0.0101  0.3003
 2244TIP3    H128367   4.900   2.885   8.973  0.2785  0.6289  0.0106
 2244TIP3    H228368   4.765   2.838   9.024  0.5079  0.2966  0.3193
 2245TIP3   OH228369   0.237   2.866   7.593 -0.0793 -0.8025 -0.0737
 2245TIP3    H128370   0.309   2.871   7.530 -0.4894  1.5174 -0.4330
 2245TIP3    H228371   0.253   2.937   7.655 -2.8821  0.9538 -1.1534
 2246TIP3   OH228372   2.983   2.421   8.641  0.8543 -0.0147  0.5509
 2246TIP3    H128373   3.056   2.444   8.699  1.6407  0.0149 -0.4309
 2246TIP3    H228374   3.024   2.376   8.567  0.1175  1.7737 -1.0211
 2247TIP3   OH228375   6.667   2.822   0.695 -0.0278 -0.2989  0.3439
 2247TIP3    H128376   6.635   2.731   0.694 -0.2099 -0.3293  2.7029
 2247TIP3    H228377   6.756   2.815   0.731  0.5338  0.3299 -0.8898
 2248TIP3   OH228378   3.945   4.721   0.468  0.6244 -0.8730  0.3637
 2248TIP3    H128379   3.998   4.762   0.401 -0.9822  0.5108 -0.1406
 2248TIP3    H228380   4.005   4.705   0.541  1.6288  1.1336  0.0354
 2249TIP3   OH228381   5.031   3.567   7.432  0.3290  0.4545  0.2093
 2249TIP3    H128382   5.041   3.662   7.440  0.8445  0.5850 -1.6277
 2249TIP3    H228383   5.000   3.553   7.343  0.6188 -1.1340  0.3201
 2250TIP3   OH228384   1.887   2.008   7.237  0.1039  0.6127 -0.1643
 2250TIP3    H128385   1.824   2.075   7.209  0.6510  0.7609 -1.0766
 2250TIP3    H228386   1.921   1.971   7.156  0.3232 -0.2986  0.3269
 2251TIP3   OH228387   0.288   4.456   1.316  0.5492 -0.0697 -0.1175
 2251TIP3    H128388   0.263   4.416   1.400  1.1394  0.6401  0.4047
 2251TIP3    H228389   0.226   4.528   1.305  0.8915  0.2534  0.0445
 2252TIP3   OH228390   1.267   5.535   0.489  0.1858 -0.5637 -0.3067
 2252TIP3    H128391   1.350   5.494   0.465  1.5115 -0.5585  3.6406
 2252TIP3    H228392   1.207   5.461   0.502  0.4581 -0.7780 -0.2505
 2253TIP3   OH228393   4.960   3.006   8.615  0.2711  0.1293 -0.5892
 2253TIP3    H128394   5.016   2.951   8.670 -0.3090  1.0006  0.9421
 2253TIP3    H228395   5.007   3.089   8.608 -0.8189  0.8960  0.7751
 2254TIP3   OH228396   4.253   5.314   1.661  0.0447 -0.5385  0.1854
 2254TIP3    H128397   4.217   5.309   1.572  1.4780 -1.3543 -0.3783
 2254TIP3    H228398   4.186   5.274   1.716 -0.4494 -0.9055 -0.6579
 2255TIP3   OH228399   2.581   1.576   0.584 -0.3133  0.2027 -0.6564
 2255TIP3    H128400   2.535   1.494   0.604 -1.5156  1.0700  0.2819
 2255TIP3    H228401   2.672   1.559   0.609 -0.7962 -0.4511  0.7476
 2256TIP3   OH228402   0.399   4.008   8.011 -0.4129 -0.0825 -0.0629
 2256TIP3    H128403   0.322   4.055   8.039  1.2411  1.0174  3.0547
 2256TIP3    H228404   0.470   4.072   8.015  1.1341 -1.6925 -0.1493
 2257TIP3   OH228405   1.932   2.293   8.675 -0.1165 -0.1170 -0.0067
 2257TIP3    H128406   2.009   2.295   8.733  0.2211  0.8987 -0.4700
 2257TIP3    H228407   1.862   2.259   8.731  0.9878 -2.6383 -0.0142
 2258TIP3   OH228408   6.480   0.111   7.283  0.3473  0.5214 -0.3367
 2258TIP3    H128409   6.563   0.158   7.270 -0.3391  1.3251 -2.0688
 2258TIP3    H228410   6.505   0.033   7.333  1.6659  2.2248  1.8739
 2259TIP3   OH228411   4.103   6.130   7.833  0.4481  0.4851 -0.0483
 2259TIP3    H128412   4.154   6.159   7.908  0.1771  0.2845  0.2169
 2259TIP3    H228413   4.038   6.070   7.870  0.2156  0.5028 -0.4217
 2260TIP3   OH228414   4.519   3.544   8.483 -0.4193 -0.4334 -0.3887
 2260TIP3    H128415   4.475   3.484   8.422  0.3293 -1.5729  0.1603
 2260TIP3    H228416   4.477   3.629   8.467 -0.5535 -0.7889 -2.1624
 2261TIP3   OH228417   1.364   3.101   0.587  0.1595  0.0675  0.0603
 2261TIP3    H128418   1.278   3.090   0.629  0.8258  0.6373  1.6402
 2261TIP3    H228419   1.415   3.026   0.619  0.2789 -0.2607 -0.8655
 2262TIP3   OH228420   6.560   3.440   0.398 -0.4273 -0.8530 -0.5885
 2262TIP3    H128421   6.499   3.485   0.339 -0.6999 -1.6716 -0.9442
 2262TIP3    H228422   6.570   3.500   0.472  0.5353  0.5609 -1.8133
 2263TIP3   OH228423   1.029   0.853   7.913  0.3220 -0.3703 -0.6091
 2263TIP3    H128424   1.028   0.949   7.904 -1.4778 -0.4260 -1.2034
 2263TIP3    H228425   1.046   0.839   8.006 -2.5469  0.6320  0.1652
 2264TIP3   OH228426   0.948   0.566   7.901  0.7928  0.3131  0.1059
 2264TIP3    H128427   0.893   0.639   7.872  0.9576  0.0608 -0.8709
 2264TIP3    H228428   1.016   0.559   7.834  0.8270 -0.6876  0.2284
 2265TIP3   OH228429   1.380   5.277   7.378 -0.4791 -0.8959  0.0428
 2265TIP3    H128430   1.370   5.241   7.290 -0.6132 -1.1382  0.1563
 2265TIP3    H228431   1.473   5.297   7.385 -0.4122 -1.1675 -0.0434
 2266TIP3   OH228432   3.238   1.665   8.195  0.0904 -0.1612 -0.2847
 2266TIP3    H128433   3.286   1.748   8.187  0.4159 -0.4294 -1.2371
 2266TIP3    H228434   3.231   1.632   8.106 -1.2919 -0.4759 -0.0839
 2267TIP3   OH228435   4.978   5.089   7.024  0.2787 -0.1696 -0.1676
 2267TIP3    H128436   5.023   5.168   6.995  0.4410  0.6429  2.0778
 2267TIP3    H228437   4.982   5.093   7.120 -1.5841 -1.8286  0.0490
 2268TIP3   OH228438   6.278   2.275   2.613 -0.7333  0.0791 -0.0106
 2268TIP3    H128439   6.360   2.287   2.661  0.6724 -1.1182 -1.9480
 2268TIP3    H228440   6.276   2.347   2.550 -0.1169 -0.9477 -1.2654
 2269TIP3   OH228441   2.553   6.069   0.892  0.4216  0.7925  1.0241
 2269TIP3    H128442   2.629   6.127   0.893  0.1366  1.1843  0.7091
 2269TIP3    H228443   2.559   6.023   0.809  0.0892  1.1391  0.8039
 2270TIP3   OH228444   6.244   3.234   1.776  0.5372 -0.0997 -0.1994
 2270TIP3    H128445   6.289   3.150   1.783 -0.8617 -0.8548  0.3395
 2270TIP3    H228446   6.151   3.211   1.784  0.1135  1.4738 -0.3367
 2271TIP3   OH228447   0.496   5.544   0.375 -0.0164  0.1642 -0.6422
 2271TIP3    H128448   0.543   5.539   0.459 -0.0075  0.7424 -0.6108
 2271TIP3    H228449   0.476   5.637   0.365  1.7890  0.4378 -2.2753
 2272TIP3   OH228450   3.974   1.844   8.574 -0.4347 -0.7468 -0.2538
 2272TIP3    H128451   3.929   1.914   8.529  0.4160  0.0667  0.1246
 2272TIP3    H228452   3.976   1.871   8.666  1.3129 -0.4617 -0.3396
 2273TIP3   OH228453   3.495   0.907   7.813  0.1349 -0.5173  0.1586
 2273TIP3    H128454   3.505   1.001   7.826  0.8924 -0.4685 -0.6914
 2273TIP3    H228455   3.513   0.894   7.720 -2.2506 -1.2059 -0.2685
 2274TIP3   OH228456   4.465   2.173   8.696 -0.4004  0.3233 -0.1374
 2274TIP3    H128457   4.507   2.091   8.720 -0.0593  0.0249 -1.6294
 2274TIP3    H228458   4.535   2.239   8.705  0.0581  0.0320 -1.3593
 2275TIP3   OH228459   1.509   5.996   1.656 -0.1206 -0.7462 -0.0347
 2275TIP3    H128460   1.579   6.017   1.719  0.3412  1.4157 -1.1545
 2275TIP3    H228461   1.429   5.998   1.708 -0.0383  3.2698  0.2982
 2276TIP3   OH228462   2.406   1.767   8.649  0.2342 -0.5848  0.5190
 2276TIP3    H128463   2.312   1.750   8.640 -0.1985  0.8109  2.0004
 2276TIP3    H228464   2.420   1.779   8.743  1.6385  0.5452  0.2082
 2277TIP3   OH228465   3.942   2.864   2.485  0.0680 -0.2606 -0.4346
 2277TIP3    H128466   3.883   2.789   2.482  2.4542 -2.2430 -1.8751
 2277TIP3    H228467   3.885   2.940   2.481 -2.5489 -1.8979  2.0574
 2278TIP3   OH228468   6.083   0.785   8.720 -0.2036 -0.2709 -0.2158
 2278TIP3    H128469   6.047   0.698   8.737  0.1356 -0.8596 -2.1937
 2278TIP3    H228470   6.008   0.838   8.694 -0.0917 -0.7791 -1.7272
 2279TIP3   OH228471   3.833   2.864   7.391  0.4783  0.1127  0.4829
 2279TIP3    H128472   3.899   2.915   7.344  0.6341 -0.4828  0.0449
 2279TIP3    H228473   3.855   2.875   7.483  0.3764  1.0164  0.4059
 2280TIP3   OH228474   3.882   3.320   1.187  0.6270 -0.2377  0.2314
 2280TIP3    H128475   3.908   3.298   1.097  1.6168  0.0168  0.4481
 2280TIP3    H228476   3.816   3.254   1.209  1.5152 -1.2757 -0.1333
 2281TIP3   OH228477   3.827   4.941   0.851  0.4482  1.0607 -0.1149
 2281TIP3    H128478   3.736   4.969   0.842  0.0547 -0.2104 -0.2463
 2281TIP3    H228479   3.871   5.016   0.890 -0.3671  2.1841 -1.2741
 2282TIP3   OH228480   6.423   6.507   0.983 -0.0617 -0.1325 -0.4359
 2282TIP3    H128481   6.457   6.596   0.974 -0.4268 -0.0788 -1.4362
 2282TIP3    H228482   6.332   6.512   0.954  0.0275 -0.8969 -0.9060
 2283TIP3   OH228483   6.538   6.223   1.369 -0.0535  0.4776 -0.4465
 2283TIP3    H128484   6.496   6.254   1.449  0.8810 -0.5793  0.4995
 2283TIP3    H228485   6.468   6.183   1.318 -0.8353  2.0181 -0.6289
 2284TIP3   OH228486   0.829   5.302   7.939 -0.0562 -0.1081  0.1341
 2284TIP3    H128487   0.800   5.237   8.003 -0.3014 -2.5022 -2.1969
 2284TIP3    H228488   0.748   5.335   7.900  0.0860  1.4160  1.0246
 2285TIP3   OH228489   3.012   0.230   2.439  0.5535 -0.2216 -0.4769
 2285TIP3    H128490   2.941   0.261   2.495  0.1110 -1.0394 -0.5707
 2285TIP3    H228491   3.012   0.290   2.364  0.0858 -0.1084 -0.3878
 2286TIP3   OH228492   0.190   2.934   0.319 -0.3290  0.4405  0.0767
 2286TIP3    H128493   0.098   2.918   0.300 -0.3591  0.5447  0.1301
 2286TIP3    H228494   0.209   2.880   0.395 -0.6433  1.2632  0.7515
 2287TIP3   OH228495   3.946   1.241   1.031  0.7645  0.4344  0.3731
 2287TIP3    H128496   3.902   1.310   0.981  1.1148  0.9337  0.7367
 2287TIP3    H228497   4.034   1.238   0.994  0.3426 -0.8042 -0.5903
 2288TIP3   OH228498   2.946   1.906   8.143 -0.4642 -0.2862 -0.1059
 2288TIP3    H128499   3.020   1.855   8.110  0.6837 -1.0652  3.2703
 2288TIP3    H228500   2.869   1.861   8.109  0.5482 -0.7342 -1.9608
 2289TIP3   OH228501   5.490   5.287   0.607 -0.1501 -0.0036 -0.3953
 2289TIP3    H128502   5.557   5.259   0.546  1.8992  0.7414  1.3664
 2289TIP3    H228503   5.511   5.240   0.688  0.0682  2.3965  1.0253
 2290TIP3   OH228504   0.191   4.045   0.842 -0.0222 -0.0008  0.1959
 2290TIP3    H128505   0.265   3.987   0.858  0.1734  0.2404  0.1585
 2290TIP3    H228506   0.150   4.055   0.928 -0.4225 -0.6840  0.1005
 2291TIP3   OH228507   3.708   5.987   1.179 -0.8238 -0.8062 -0.8255
 2291TIP3    H128508   3.753   6.004   1.262 -1.6945  3.0844 -0.9705
 2291TIP3    H228509   3.778   5.983   1.114 -0.2962 -1.5200 -0.2292
 2292TIP3   OH228510   0.854   0.758   0.191 -0.4058  0.0509  0.2726
 2292TIP3    H128511   0.926   0.699   0.212 -0.2317  0.1398 -0.0697
 2292TIP3    H228512   0.783   0.730   0.249 -1.0056 -1.8171 -1.2856
 2293TIP3   OH228513   4.426   0.648   6.587  0.1829  0.7499  0.0091
 2293TIP3    H128514   4.516   0.621   6.569 -0.1319 -0.3160 -0.0152
 2293TIP3    H228515   4.434   0.738   6.619  1.4192  0.1068  1.6468
 2294TIP3   OH228516   1.223   4.895   0.798 -0.0483 -0.3072  0.3908
 2294TIP3    H128517   1.267   4.901   0.883  1.5303  1.4948 -0.4828
 2294TIP3    H228518   1.154   4.962   0.802  0.5841  0.3854 -0.0215
 2295TIP3   OH228519   4.607   1.048   2.358 -0.5949  0.8982 -0.4479
 2295TIP3    H128520   4.586   1.083   2.445  0.3573  0.3775  0.0042
 2295TIP3    H228521   4.671   1.109   2.323  0.3079  0.1768 -0.0745
 2296TIP3   OH228522   2.363   2.726   0.618  0.5625 -0.4962  0.2312
 2296TIP3    H128523   2.359   2.730   0.713  0.9524 -1.9891  0.3296
 2296TIP3    H228524   2.271   2.728   0.590  0.4238 -0.6691  0.6704
 2297TIP3   OH228525   3.410   1.351   0.815  0.1939  0.1028  0.2528
 2297TIP3    H128526   3.419   1.256   0.810  1.5423  0.1813  0.6004
 2297TIP3    H228527   3.358   1.375   0.739 -3.2077 -1.2181  1.9486
 2298TIP3   OH228528   3.221   1.749   1.230 -0.0150  0.2416  0.2449
 2298TIP3    H128529   3.190   1.658   1.231  0.0816  0.1832 -0.6702
 2298TIP3    H228530   3.303   1.745   1.181 -0.2760  0.8874 -0.2631
 2299TIP3   OH228531   4.218   4.309   0.417  0.0266  0.1764 -0.1426
 2299TIP3    H128532   4.224   4.405   0.415  2.5028  0.1156  0.2831
 2299TIP3    H228533   4.310   4.280   0.417 -0.6650 -2.2264 -0.9824
 2300TIP3   OH228534   2.633   2.367   2.310  0.3794 -0.2752 -0.0171
 2300TIP3    H128535   2.568   2.359   2.241  0.0559  0.3299  0.2096
 2300TIP3    H228536   2.656   2.276   2.332 -1.8855 -0.5984  1.3032
 2301TIP3   OH228537   5.628   2.314   0.865  0.0400  0.1354 -0.3667
 2301TIP3    H128538   5.672   2.392   0.831 -0.6825  1.2731  1.1675
 2301TIP3    H228539   5.570   2.348   0.934  0.6428 -1.8951  1.2270
 2302TIP3   OH228540   0.258   0.130   7.395 -0.4757  0.2361  0.3941
 2302TIP3    H128541   0.341   0.106   7.437 -0.3038 -0.6962 -0.4285
 2302TIP3    H228542   0.247   0.223   7.414  0.2727  0.1490  1.3298
 2303TIP3   OH228543   4.417   1.119   1.720 -0.2245  0.1301  0.2707
 2303TIP3    H128544   4.352   1.060   1.758 -0.4024  0.1219 -0.0440
 2303TIP3    H228545   4.454   1.070   1.647 -1.5592  1.0106 -1.0624
 2304TIP3   OH228546   3.809   5.555   7.921 -0.1163  0.3524  0.1946
 2304TIP3    H128547   3.750   5.484   7.897 -0.4372 -0.7071  3.5620
 2304TIP3    H228548   3.896   5.522   7.900 -0.4160  0.0695 -0.6474
 2305TIP3   OH228549   0.680   5.083   6.537 -0.2229 -0.0410  0.3039
 2305TIP3    H128550   0.655   5.164   6.494  1.3895  0.8184  0.8714
 2305TIP3    H228551   0.704   5.024   6.466  3.0723  1.5846 -0.1465
 2306TIP3   OH228552   2.148   2.122   8.164 -0.3149 -0.3879 -0.0259
 2306TIP3    H128553   2.090   2.185   8.208  0.4882  1.3977 -1.4131
 2306TIP3    H228554   2.100   2.040   8.168 -1.6275  0.3808  1.4346
 2307TIP3   OH228555   4.538   0.020   8.087  0.1637 -0.0676  0.4162
 2307TIP3    H128556   4.625   0.032   8.124  0.0299  1.0618  0.3877
 2307TIP3    H228557   4.496  -0.045   8.145  0.3073  0.9029  1.6440
 2308TIP3   OH228558   6.034   2.951   1.251  0.0834  0.6467  0.0781
 2308TIP3    H128559   6.094   2.877   1.249 -0.0242  0.5305  0.8202
 2308TIP3    H228560   6.070   3.014   1.188  1.2099  0.7575  0.8144
 2309TIP3   OH228561   5.956   6.642   0.319  0.2579 -0.1570 -0.3639
 2309TIP3    H128562   6.011   6.703   0.367 -1.0796 -0.9593  2.3708
 2309TIP3    H228563   6.011   6.565   0.306  0.8625  0.3405 -0.8623
 2310TIP3   OH228564   4.511   5.003   1.900  0.4447 -0.1804 -0.0128
 2310TIP3    H128565   4.441   4.999   1.965  1.2972  1.8021  1.1308
 2310TIP3    H228566   4.469   4.979   1.817 -1.1336 -0.7971  0.9251
 2311TIP3   OH228567   0.238   0.855   8.282 -1.0186  0.1537  0.3480
 2311TIP3    H128568   0.254   0.821   8.194 -0.1913  0.4936  0.3612
 2311TIP3    H228569   0.218   0.948   8.269 -0.9371  0.1947  0.5124
 2312TIP3   OH228570   2.390   0.276   1.986 -0.1122  0.4894 -0.0953
 2312TIP3    H128571   2.381   0.258   2.080 -0.1018 -0.5168 -0.2736
 2312TIP3    H228572   2.445   0.354   1.982  2.2786 -1.0191  0.7233
 2313TIP3   OH228573   3.452   5.391   1.947 -0.0329 -0.0317  0.2424
 2313TIP3    H128574   3.443   5.476   1.988  2.2938 -1.0622  3.2596
 2313TIP3    H228575   3.518   5.403   1.879  0.2457  0.5610  0.6210
 2314TIP3   OH228576   1.462   1.545   8.525  0.4918 -0.1113 -0.4805
 2314TIP3    H128577   1.522   1.471   8.532  2.3127  1.3204 -0.3083
 2314TIP3    H228578   1.469   1.590   8.610 -1.3262 -0.2381 -0.2139
 2315TIP3   OH228579   0.440   4.230   7.394  0.0772 -0.0185  0.5292
 2315TIP3    H128580   0.363   4.275   7.429 -0.8002 -0.7744 -0.3519
 2315TIP3    H228581   0.412   4.139   7.385  1.4187 -0.5166  1.1243
 2316TIP3   OH228582   4.815   0.858   0.991 -0.5826 -0.2325 -0.3471
 2316TIP3    H128583   4.741   0.906   1.028 -0.7349 -0.6298 -0.1160
 2316TIP3    H228584   4.882   0.862   1.059 -0.1997  0.5545 -0.7588
 2317TIP3   OH228585   3.097   5.476   2.041  0.2082  0.0857 -0.1890
 2317TIP3    H128586   3.182   5.460   2.081  0.1303 -1.4177 -0.5735
 2317TIP3    H228587   3.111   5.552   1.985  0.4568  1.9179  2.2051
 2318TIP3   OH228588   0.677   0.616   8.093 -0.2458  0.0683 -0.1258
 2318TIP3    H128589   0.635   0.685   8.041 -0.7245 -0.3798 -0.3478
 2318TIP3    H228590   0.736   0.663   8.152  1.1769  0.5288 -1.8257
 2319TIP3   OH228591   0.779   0.383   0.916 -0.0448 -0.5809 -0.6418
 2319TIP3    H128592   0.819   0.322   0.979  2.6574  1.4276 -0.2176
 2319TIP3    H228593   0.685   0.374   0.930  0.3014 -3.4935  0.4439
 2320TIP3   OH228594   0.611   0.850   1.423  0.2518 -0.0744  0.0578
 2320TIP3    H128595   0.519   0.873   1.414  0.0870 -0.7221  0.0262
 2320TIP3    H228596   0.648   0.920   1.477 -0.0894  0.5789 -0.5324
 2321TIP3   OH228597   0.428   2.096   8.130  0.1635 -0.3122  0.0622
 2321TIP3    H128598   0.378   2.020   8.098 -2.1046  0.9989  0.3046
 2321TIP3    H228599   0.510   2.058   8.162 -0.9497 -2.6935  0.3513
 2322TIP3   OH228600   2.241   2.372   1.083  0.1221  0.3800  0.0054
 2322TIP3    H128601   2.199   2.287   1.098 -0.1114  0.7537  1.6533
 2322TIP3    H228602   2.185   2.435   1.128  1.1298  1.2135  0.1333
 2323TIP3   OH228603   0.074   2.553   8.841  0.1038 -0.5384  0.6240
 2323TIP3    H128604   0.128   2.555   8.920  0.4789  1.2921  0.3476
 2323TIP3    H228605  -0.005   2.601   8.865  0.0802 -0.2587 -0.0248
 2324TIP3   OH228606   5.069   1.639   6.607 -0.0673  0.1184 -0.5409
 2324TIP3    H128607   5.071   1.618   6.513 -0.4393 -0.7034 -0.3709
 2324TIP3    H228608   5.084   1.734   6.610 -0.0732  0.1621 -1.4311
 2325TIP3   OH228609   5.804   5.235   0.241 -0.7218 -0.0456 -0.5942
 2325TIP3    H128610   5.777   5.324   0.266 -2.1775 -0.3697 -0.9097
 2325TIP3    H228611   5.735   5.205   0.183 -1.2544 -2.0882  1.0035
 2326TIP3   OH228612   6.759   4.737   7.487  0.1016 -0.1951  0.2714
 2326TIP3    H128613   6.830   4.785   7.444 -0.0997  1.9305  2.0916
 2326TIP3    H228614   6.681   4.791   7.474 -0.4574 -0.7355  1.2104
 2327TIP3   OH228615   1.953   2.792   0.401 -0.4348  0.1893 -0.5511
 2327TIP3    H128616   1.973   2.724   0.337  1.7535  1.4488 -1.3246
 2327TIP3    H228617   1.917   2.864   0.349  2.4333  1.6782 -0.7124
 2328TIP3   OH228618   1.568   2.725   2.322  0.1096  0.2832 -0.0432
 2328TIP3    H128619   1.645   2.726   2.264  1.0610 -1.3475  1.1122
 2328TIP3    H228620   1.495   2.747   2.264  1.0117 -1.2189 -1.8759
 2329TIP3   OH228621   3.644   3.295   8.618  0.2532 -0.2367 -0.0663
 2329TIP3    H128622   3.636   3.266   8.527  0.9610 -0.9334  0.0859
 2329TIP3    H228623   3.727   3.341   8.622  0.8347 -1.2910  0.4941
 2330TIP3   OH228624   4.518   6.025   7.534  0.1594  0.1432 -0.1004
 2330TIP3    H128625   4.495   6.069   7.616  0.9679  0.4437 -0.0252
 2330TIP3    H228626   4.560   6.092   7.481  1.1227 -0.4422 -0.1132
 2331TIP3   OH228627   3.454   1.979   7.239 -0.3723  0.2532 -0.3246
 2331TIP3    H128628   3.359   1.986   7.250 -0.4673  0.7053 -1.2889
 2331TIP3    H228629   3.468   1.890   7.208 -0.2351 -0.5671  1.9587
 2332TIP3   OH228630   4.203   5.874   8.086 -0.4143  0.1742  0.4912
 2332TIP3    H128631   4.132   5.938   8.074  0.3681  0.6515 -2.4075
 2332TIP3    H228632   4.170   5.794   8.045  0.7483  0.4873 -1.1698
 2333TIP3   OH228633   4.458   4.900   1.648 -0.7894 -0.4735 -0.5356
 2333TIP3    H128634   4.365   4.917   1.633 -0.5791 -0.2518 -1.6501
 2333TIP3    H228635   4.503   4.961   1.590  0.0741 -0.1981  0.3871
 2334TIP3   OH228636   2.978   2.743   8.402 -0.1613  0.4763 -0.0399
 2334TIP3    H128637   3.063   2.737   8.446  0.2692 -0.6798 -0.9985
 2334TIP3    H228638   2.970   2.662   8.353 -0.3505  1.9686 -2.6253
 2335TIP3   OH228639   6.468   1.897   7.511  0.3121  0.5889 -0.6013
 2335TIP3    H128640   6.394   1.842   7.486  0.1633  0.6397 -0.2781
 2335TIP3    H228641   6.500   1.934   7.429  0.2306  0.2507 -0.7876
 2336TIP3   OH228642   1.639   0.183   7.697 -0.0690 -0.5673 -0.4244
 2336TIP3    H128643   1.641   0.198   7.602 -0.0388 -0.8385 -0.4655
 2336TIP3    H228644   1.550   0.153   7.715 -0.8809  1.8650 -0.0094
 2337TIP3   OH228645   4.568   6.168   1.590  0.3705 -0.0992 -0.7524
 2337TIP3    H128646   4.521   6.168   1.507  1.4164 -0.8487 -1.3682
 2337TIP3    H228647   4.647   6.218   1.573 -0.2152  1.2716  0.3138
 2338TIP3   OH228648   0.752   6.292   1.700 -0.2068 -0.0668  0.4705
 2338TIP3    H128649   0.817   6.266   1.766 -0.0267 -0.5108  0.1211
 2338TIP3    H228650   0.683   6.335   1.751  0.5736  0.8446  0.7983
 2339TIP3   OH228651   5.982   3.401   1.969 -0.7694 -0.9635 -0.0495
 2339TIP3    H128652   5.999   3.334   2.036 -0.4135 -0.5673  0.2628
 2339TIP3    H228653   5.913   3.455   2.008  2.0857  1.6732  1.8061
 2340TIP3   OH228654   1.064   0.934   8.343 -0.3538  0.0673  0.0727
 2340TIP3    H128655   1.093   0.887   8.421 -0.2426  0.5238  0.3044
 2340TIP3    H228656   1.012   1.007   8.375  1.9570  1.9314 -0.0799
 2341TIP3   OH228657   4.564   2.492   1.460  0.3431  0.1147 -0.3058
 2341TIP3    H128658   4.638   2.464   1.513  0.5910  1.5036  0.1102
 2341TIP3    H228659   4.556   2.586   1.476 -1.4923  0.0175 -0.3564
 2342TIP3   OH228660   6.676   0.574   8.703  0.0046 -0.0129  0.4391
 2342TIP3    H128661   6.669   0.668   8.685  2.0518  0.2451  0.7712
 2342TIP3    H228662   6.609   0.558   8.770  0.7437  1.5816  1.6239
 2343TIP3   OH228663   2.205   4.729   1.563 -0.0338  0.1418  0.2972
 2343TIP3    H128664   2.119   4.698   1.536  0.9713 -1.3638 -1.2939
 2343TIP3    H228665   2.214   4.814   1.519 -1.8339  1.8130  2.8340
 2344TIP3   OH228666   1.528   5.999   7.750  0.3439  0.5823  0.0462
 2344TIP3    H128667   1.450   6.044   7.782  0.2509  1.6795 -1.5785
 2344TIP3    H228668   1.527   5.914   7.794 -1.0045  1.1055  1.0912
 2345TIP3   OH228669   2.130   6.761   0.293  0.4633 -0.7334 -0.0655
 2345TIP3    H128670   2.122   6.781   0.387 -1.4110  1.8738 -0.6690
 2345TIP3    H228671   2.048   6.718   0.271 -0.4694  1.4148 -1.0378
 2346TIP3   OH228672   3.106   5.041   0.146 -0.1484  0.0133 -0.0186
 2346TIP3    H128673   3.179   5.062   0.087 -0.2917 -1.9130 -0.9720
 2346TIP3    H228674   3.143   5.050   0.234  0.7837  0.5586 -0.4519
 2347TIP3   OH228675   2.286   4.011   1.579  0.1613  0.1150 -0.5857
 2347TIP3    H128676   2.195   4.039   1.584  0.3931  0.9608 -0.9292
 2347TIP3    H228677   2.282   3.915   1.581 -0.7663  0.1324 -1.0937
 2348TIP3   OH228678   5.689   5.135   1.941  0.0801  0.1413  0.2833
 2348TIP3    H128679   5.645   5.213   1.975 -0.9476 -1.6175  3.3158
 2348TIP3    H228680   5.635   5.062   1.970  2.4567 -1.8698 -0.0188
 2349TIP3   OH228681   0.545   3.614   8.260 -0.1525 -0.1971  0.5588
 2349TIP3    H128682   0.464   3.665   8.258 -0.7745 -1.1304  1.3503
 2349TIP3    H228683   0.539   3.562   8.340  1.2508 -0.2565  0.6509
 2350TIP3   OH228684   5.992   5.362   8.511  0.3710 -0.3016 -0.6482
 2350TIP3    H128685   6.001   5.396   8.422  0.3018  1.2726 -0.0878
 2350TIP3    H228686   5.899   5.371   8.531  0.5543  0.3186 -0.0594
 2351TIP3   OH228687   6.739   5.719   7.989 -0.9834  0.4073 -0.2635
 2351TIP3    H128688   6.769   5.675   7.910  0.2160  1.0340 -0.1809
 2351TIP3    H228689   6.689   5.794   7.957 -1.5355 -0.0121 -0.4071
 2352TIP3   OH228690   0.916   5.363   1.445  0.7324 -0.3160  0.0481
 2352TIP3    H128691   0.823   5.365   1.466  0.7518  0.1628  0.1009
 2352TIP3    H228692   0.929   5.279   1.401  0.1790 -0.1646 -0.4155
 2353TIP3   OH228693   4.572   0.185   0.933 -0.1125  0.1435 -0.1420
 2353TIP3    H128694   4.580   0.107   0.988 -0.3491  0.2545  0.0486
 2353TIP3    H228695   4.658   0.226   0.937 -0.3864  0.6394  0.8662
 2354TIP3   OH228696   5.024   6.329   1.895  0.2174 -0.6802 -0.6265
 2354TIP3    H128697   5.074   6.399   1.853  0.9234 -0.4978  0.4858
 2354TIP3    H228698   5.083   6.254   1.897 -0.5304 -1.3442 -1.8021
 2355TIP3   OH228699   6.462   3.393   1.696 -0.1604 -0.6753 -0.6311
 2355TIP3    H128700   6.392   3.349   1.745  0.0996 -1.8957 -1.2991
 2355TIP3    H228701   6.528   3.324   1.684  0.3170 -0.0508 -1.6259
 2356TIP3   OH228702   1.453   1.671   8.765  0.2323  0.0960  0.1607
 2356TIP3    H128703   1.469   1.586   8.807 -0.0864 -0.5633 -1.0132
 2356TIP3    H228704   1.508   1.732   8.815  1.6588 -1.0574  0.0955
 2357TIP3   OH228705   2.496   5.762   0.986  0.0663  0.0368 -0.1238
 2357TIP3    H128706   2.550   5.688   1.014 -0.3401 -0.2785 -0.1588
 2357TIP3    H228707   2.516   5.832   1.048 -2.8681 -1.4676  2.7893
 2358TIP3   OH228708   4.173   5.535   0.579  0.4793  0.2067  0.0559
 2358TIP3    H128709   4.214   5.469   0.523 -0.6518 -0.3393 -0.1702
 2358TIP3    H228710   4.215   5.617   0.555  1.7226 -0.3895  0.1498
 2359TIP3   OH228711   4.816   6.659   7.341  0.3116 -0.3246  0.3280
 2359TIP3    H128712   4.757   6.668   7.416  1.8397  0.8859  1.4643
 2359TIP3    H228713   4.762   6.676   7.265 -0.8475  0.5194  1.3156
 2360TIP3   OH228714   0.792   0.588   0.546  0.1113  0.5031 -0.3888
 2360TIP3    H128715   0.745   0.615   0.467  0.3153  1.3177 -0.2347
 2360TIP3    H228716   0.784   0.492   0.546 -3.4267  0.6606  0.7960
 2361TIP3   OH228717   4.914   4.560   7.470 -0.6650  0.4571  0.3190
 2361TIP3    H128718   4.858   4.621   7.517  0.2201  0.0058  2.0552
 2361TIP3    H228719   4.991   4.611   7.446  0.0891  0.0757  1.7981
 2362TIP3   OH228720   3.772   1.595   0.029 -0.1492 -0.4951 -0.4137
 2362TIP3    H128721   3.849   1.557  -0.012 -1.3907 -0.4845 -2.9681
 2362TIP3    H228722   3.707   1.525   0.029 -0.9390  0.2137 -0.7161
 2363TIP3   OH228723   4.487   2.839   1.946  0.0387  0.1230  0.3911
 2363TIP3    H128724   4.485   2.926   1.906 -0.3075  0.7802  1.7797
 2363TIP3    H228725   4.487   2.856   2.041 -0.7366 -1.4015  0.6910
 2364TIP3   OH228726   5.583   2.101   8.165  0.0164  0.3012  0.0663
 2364TIP3    H128727   5.521   2.036   8.197  0.8850 -1.0767 -0.9026
 2364TIP3    H228728   5.653   2.102   8.230  0.1065  0.0853 -0.0256
 2365TIP3   OH228729   4.785   0.108   0.738 -0.2438 -0.4727  0.0569
 2365TIP3    H128730   4.870   0.137   0.771 -0.0746 -1.8548  0.8925
 2365TIP3    H228731   4.756   0.041   0.800 -2.5352  0.8065  0.4943
 2366TIP3   OH228732   6.679   0.460   0.855 -0.1439  0.1983 -0.2917
 2366TIP3    H128733   6.648   0.420   0.936 -1.0309  0.7183 -0.3624
 2366TIP3    H228734   6.751   0.403   0.826  1.0097  0.6592  1.4788
 2367TIP3   OH228735   0.343   2.520   7.262  0.1381  0.0055  0.2387
 2367TIP3    H128736   0.320   2.440   7.215 -1.3378 -0.7197  2.0548
 2367TIP3    H228737   0.300   2.511   7.347  1.6919  1.7772  1.3037
 2368TIP3   OH228738   0.642   6.027   7.789 -0.4034  0.5359 -0.2938
 2368TIP3    H128739   0.591   5.957   7.830 -0.2018  0.2590 -0.5117
 2368TIP3    H228740   0.611   6.107   7.830  0.2083  0.2118  0.8254
 2369TIP3   OH228741   6.121   1.373   0.982  0.2018 -0.0061  0.1808
 2369TIP3    H128742   6.182   1.432   1.025 -1.0981  0.3931  1.5674
 2369TIP3    H228743   6.063   1.430   0.932 -0.4062 -0.1629  0.6846
 2370TIP3   OH228744   2.374   1.235   7.241  0.5543 -0.2491 -0.5771
 2370TIP3    H128745   2.304   1.234   7.307 -0.7176  0.5705 -1.8553
 2370TIP3    H228746   2.404   1.326   7.240  1.6185 -0.5764 -0.1055
 2371TIP3   OH228747   2.183   0.634   8.085 -0.4227  0.6797 -0.3030
 2371TIP3    H128748   2.203   0.726   8.068  0.4639  0.6693  0.5979
 2371TIP3    H228749   2.210   0.620   8.176  0.7461 -0.8259 -0.8463
 2372TIP3   OH228750   5.189   6.564   7.644  0.0231 -0.5337  0.2666
 2372TIP3    H128751   5.215   6.485   7.692 -0.2680 -0.0236  1.2956
 2372TIP3    H228752   5.203   6.542   7.552  2.6930 -0.8237  0.6589
 2373TIP3   OH228753   2.776   5.622   7.229  0.8075 -0.3439 -0.2613
 2373TIP3    H128754   2.855   5.630   7.175  0.4476 -1.0528 -0.9299
 2373TIP3    H228755   2.704   5.630   7.166  0.3730 -0.9875  0.1371
 2374TIP3   OH228756   5.662   1.286   8.585 -0.4291  0.3005 -0.1827
 2374TIP3    H128757   5.607   1.295   8.507 -0.5758  1.7185  0.0634
 2374TIP3    H228758   5.603   1.301   8.658  0.1095  1.0948  0.1108
 2375TIP3   OH228759   3.417   3.577   7.221 -0.8710 -0.2160 -0.3025
 2375TIP3    H128760   3.437   3.531   7.140  0.4425 -0.0419 -0.1030
 2375TIP3    H228761   3.487   3.552   7.281 -0.7960  1.0734  0.1948
 2376TIP3   OH228762   5.212   0.470   1.022  0.0262 -0.5336 -0.0229
 2376TIP3    H128763   5.276   0.423   0.969 -1.0461 -0.9857 -0.9630
 2376TIP3    H228764   5.212   0.559   0.986  0.1141 -0.5341 -0.0246
 2377TIP3   OH228765   5.053   0.348   8.289  0.6599  0.4386  0.1060
 2377TIP3    H128766   5.060   0.256   8.261  2.6008  0.7615 -0.6353
 2377TIP3    H228767   5.033   0.343   8.382  1.6939 -0.7897  0.3024
 2378TIP3   OH228768   6.398   6.609   2.223 -0.6886 -0.0555 -0.2630
 2378TIP3    H128769   6.403   6.519   2.254  0.0844 -0.0698 -0.4020
 2378TIP3    H228770   6.393   6.662   2.302 -2.1830 -0.2615 -0.1936
 2379TIP3   OH228771   0.297   4.432   8.864 -0.0666  0.1966 -0.2392
 2379TIP3    H128772   0.341   4.348   8.881  1.4843  1.4280  2.5236
 2379TIP3    H228773   0.205   4.416   8.884  0.2046 -0.8728  0.2118
 2380TIP3   OH228774   0.379   4.000   0.578 -0.0174 -0.3341  0.1487
 2380TIP3    H128775   0.304   4.058   0.593  1.1247  0.7284  2.1811
 2380TIP3    H228776   0.387   3.949   0.658  2.6691  1.1467  0.9726
 2381TIP3   OH228777   5.733   0.923   8.930  0.2557  0.3463 -0.0440
 2381TIP3    H128778   5.739   0.975   9.009 -1.6490 -0.0067  0.3913
 2381TIP3    H228779   5.649   0.947   8.891  0.6714 -0.2581 -1.3980
 2382TIP3   OH228780   6.294   5.087   1.631  0.3720 -0.0520  0.1163
 2382TIP3    H128781   6.274   5.082   1.724  0.9294 -0.0777  0.2395
 2382TIP3    H228782   6.214   5.121   1.591 -0.4735 -1.6053  0.3845
 2383TIP3   OH228783   0.407   1.672   0.210  0.2387  0.1040  0.1445
 2383TIP3    H128784   0.409   1.667   0.114 -0.5322  0.4224  0.1033
 2383TIP3    H228785   0.427   1.583   0.239 -2.0520 -0.6532 -0.3733
 2384TIP3   OH228786   0.941   2.659   0.338 -0.0927  0.3723  0.1173
 2384TIP3    H128787   0.966   2.656   0.245 -0.9303  2.1716 -0.2010
 2384TIP3    H228788   0.947   2.568   0.367  1.5679 -0.0264 -1.3214
 2385TIP3   OH228789   0.141   2.478   1.525  0.4772  0.5446  0.5569
 2385TIP3    H128790   0.146   2.523   1.441  2.5545 -0.9146 -0.1768
 2385TIP3    H228791   0.160   2.386   1.506 -0.0456 -0.0243  2.4790
 2386TIP3   OH228792   4.210   5.328   1.374  0.3848  0.4623 -0.0620
 2386TIP3    H128793   4.305   5.343   1.373  0.5116 -0.2746 -1.1740
 2386TIP3    H228794   4.179   5.367   1.292  0.0140 -0.9092 -0.6084
 2387TIP3   OH228795   2.666   0.080   1.604  0.1181  0.0241 -0.0724
 2387TIP3    H128796   2.711   0.118   1.679 -0.1054  0.3514 -0.1024
 2387TIP3    H228797   2.574   0.103   1.616  0.0977  0.1851 -0.5084
 2388TIP3   OH228798   5.121   1.078   0.854 -0.4424 -0.2746  0.0974
 2388TIP3    H128799   5.083   1.060   0.940  0.9561 -2.5305  0.3324
 2388TIP3    H228800   5.216   1.075   0.869 -0.1496 -1.7443 -1.6492
 2389TIP3   OH228801   3.453   3.878   1.620  0.0283 -0.0782 -0.3997
 2389TIP3    H128802   3.525   3.835   1.574  0.6442  0.4598  0.0460
 2389TIP3    H228803   3.402   3.806   1.658  2.3699 -0.4367  2.3540
 2390TIP3   OH228804   6.482   6.538   0.292  0.3191  0.4531 -0.0196
 2390TIP3    H128805   6.433   6.619   0.277  0.7476  1.0882  1.7768
 2390TIP3    H228806   6.491   6.532   0.387  0.9626 -1.3192 -0.1502
 2391TIP3   OH228807   3.517   3.250   0.707  0.2080 -0.3907  0.0119
 2391TIP3    H128808   3.442   3.191   0.697  1.5959 -2.2229 -0.0722
 2391TIP3    H228809   3.498   3.300   0.786 -1.5899 -0.0045 -0.6016
 2392TIP3   OH228810   1.436   5.757   1.815  0.1594  0.0764  0.4873
 2392TIP3    H128811   1.395   5.671   1.824 -0.2796  0.3409  1.0794
 2392TIP3    H228812   1.525   5.738   1.785  0.2701 -0.6164  1.2283
 2393TIP3   OH228813   3.363   2.408   8.137 -0.2178 -0.0719  0.3987
 2393TIP3    H128814   3.388   2.463   8.211  0.0430  2.2608 -1.2836
 2393TIP3    H228815   3.277   2.441   8.111  0.9346  1.3185 -2.0876
 2394TIP3   OH228816   1.667   3.036   0.484  0.1249 -0.0592 -0.0805
 2394TIP3    H128817   1.699   2.969   0.543  2.1135  1.0937  0.2138
 2394TIP3    H228818   1.640   3.108   0.541 -0.1149  0.1820 -0.4904
 2395TIP3   OH228819   1.032   2.024   7.053 -0.2548  0.4103  0.1466
 2395TIP3    H128820   0.942   1.999   7.033 -0.1007 -0.4821  0.5306
 2395TIP3    H228821   1.030   2.120   7.058 -1.3025  0.3661  0.7375
 2396TIP3   OH228822   3.925   0.418   8.753 -0.0939  0.2829 -0.5194
 2396TIP3    H128823   3.841   0.464   8.767  0.1208  0.0175  2.1377
 2396TIP3    H228824   3.973   0.474   8.692 -1.5138  1.3584 -0.6983
 2397TIP3   OH228825   5.959   5.863   7.170 -0.3904 -0.6483 -0.8190
 2397TIP3    H128826   6.025   5.801   7.137 -0.8575 -1.1255 -0.8643
 2397TIP3    H228827   6.003   5.910   7.241  0.6290  0.3669 -2.0672
 2398TIP3   OH228828   4.164   1.214   8.292  0.6763 -0.1206 -0.0491
 2398TIP3    H128829   4.088   1.188   8.345  0.0282 -2.5420 -1.9508
 2398TIP3    H228830   4.128   1.230   8.205  2.4133 -3.2400 -1.5373
 2399TIP3   OH228831   0.549   1.904   6.252  0.0107  0.5620  0.1859
 2399TIP3    H128832   0.551   1.998   6.233  2.0741  0.1345 -2.1546
 2399TIP3    H228833   0.471   1.872   6.207 -0.4404  1.0336  0.6054
 2400TIP3   OH228834   0.491   5.016   8.609  0.1168  0.0655 -0.4056
 2400TIP3    H128835   0.582   5.037   8.591  1.0018 -1.7007  1.6021
 2400TIP3    H228836   0.490   4.984   8.699 -2.5297  0.1750 -0.2984
 2401TIP3   OH228837   3.774   6.773   6.404  0.5512  0.0124 -0.3101
 2401TIP3    H128838   3.712   6.794   6.474  0.5791 -0.8117 -0.0320
 2401TIP3    H228839   3.789   6.857   6.360  0.7387  0.5940  0.8299
 2402TIP3   OH228840   3.398   4.378   7.928  0.1382 -0.6032  0.0502
 2402TIP3    H128841   3.431   4.425   7.851 -0.9858 -0.2229 -0.2077
 2402TIP3    H228842   3.466   4.393   7.994 -0.5692  2.2359  0.2823
 2403TIP3   OH228843   6.033   3.922   1.184 -0.2016  0.1699 -0.0501
 2403TIP3    H128844   6.034   3.957   1.273  0.9351 -0.5890  0.2616
 2403TIP3    H228845   6.003   3.995   1.130 -0.5044  0.7666  0.9028
 2404TIP3   OH228846   4.733   2.525   2.029 -0.7022  0.9135 -0.2895
 2404TIP3    H128847   4.801   2.508   1.964 -0.5606  2.5777 -0.6202
 2404TIP3    H228848   4.769   2.491   2.111  0.3835  1.4137 -0.5355
 2405TIP3   OH228849   1.825   1.699   7.377 -0.2138 -0.3266  0.2038
 2405TIP3    H128850   1.734   1.719   7.357 -0.3458  0.2593  1.3260
 2405TIP3    H228851   1.838   1.729   7.467  0.6733 -1.7969  0.5996
 2406TIP3   OH228852   2.590   2.519   7.155 -0.3699 -0.5359  0.4568
 2406TIP3    H128853   2.653   2.465   7.203  1.1139 -0.5967 -1.4585
 2406TIP3    H228854   2.549   2.458   7.093 -1.2750 -0.1846  0.7001
 2407TIP3   OH228855   5.089   6.413   0.808 -0.2187 -0.2370 -0.3483
 2407TIP3    H128856   5.147   6.401   0.883 -0.6055  0.4918  0.0702
 2407TIP3    H228857   5.131   6.482   0.756 -0.8666  0.5426  0.1339
 2408TIP3   OH228858   3.424   2.878   0.601  0.4062 -0.7265 -0.5692
 2408TIP3    H128859   3.393   2.954   0.649 -1.6775  0.4911 -3.5718
 2408TIP3    H228860   3.422   2.807   0.665 -2.7639  0.6232  1.0305
 2409TIP3   OH228861   3.226   2.925   6.603 -0.3464 -0.0581 -0.4069
 2409TIP3    H128862   3.302   2.906   6.547  0.6649 -0.0920  0.9154
 2409TIP3    H228863   3.253   3.002   6.652 -0.8126 -0.6121  0.7366
 2410TIP3   OH228864   2.721   3.941   7.367  0.1076 -0.4361 -0.0102
 2410TIP3    H128865   2.721   3.998   7.444 -0.6529 -0.9459  0.3769
 2410TIP3    H228866   2.813   3.933   7.344  0.3721 -0.4787  0.9991
 2411TIP3   OH228867   2.189   5.331   1.341 -0.9042 -0.5933  0.4399
 2411TIP3    H128868   2.248   5.406   1.327 -0.1904 -0.7350  2.4377
 2411TIP3    H228869   2.197   5.280   1.260 -1.3125  1.3901 -0.9187
 2412TIP3   OH228870   0.926   4.255   0.745  0.7137  0.3358  0.3155
 2412TIP3    H128871   0.905   4.164   0.725  0.9374  0.1483  0.9434
 2412TIP3    H228872   0.871   4.306   0.684 -3.2520 -0.0366  3.1860
 2413TIP3   OH228873   5.694   1.640   6.805  0.4011 -0.3875 -0.7718
 2413TIP3    H128874   5.760   1.610   6.868 -1.0452 -3.2536 -0.4755
 2413TIP3    H228875   5.680   1.565   6.748 -2.7339  0.0424 -0.7073
 2414TIP3   OH228876   5.705   0.091   1.568  0.4709  0.3116 -0.2865
 2414TIP3    H128877   5.698   0.009   1.616 -0.7372  2.4839  3.7796
 2414TIP3    H228878   5.616   0.110   1.538  0.0852  1.3531  1.3478
 2415TIP3   OH228879   5.501   6.361   0.175 -0.2353 -0.0571  0.3689
 2415TIP3    H128880   5.486   6.401   0.090  0.6748  0.3222  0.3787
 2415TIP3    H228881   5.544   6.429   0.227 -0.8657 -0.2457  1.1696
 2416TIP3   OH228882   2.506   5.866   1.799 -0.4737  0.0130  0.2606
 2416TIP3    H128883   2.413   5.848   1.794 -0.7174  1.4031 -0.6608
 2416TIP3    H228884   2.535   5.869   1.708  0.0816  1.4067  0.4606
 2417TIP3   OH228885   4.156   0.513   0.324 -0.5234  0.1044 -0.3382
 2417TIP3    H128886   4.071   0.510   0.281 -0.3622  0.2174 -0.6606
 2417TIP3    H228887   4.137   0.485   0.414 -1.1348  1.3596 -0.0396
 2418TIP3   OH228888   6.119   2.506   8.975  0.3364 -0.1180  0.7315
 2418TIP3    H128889   6.177   2.539   9.044  0.4046 -1.2022  1.2156
 2418TIP3    H228890   6.068   2.437   9.019  1.4030 -1.8693 -0.6486
 2419TIP3   OH228891   6.701   1.153   1.796  0.1016  0.3221  0.0823
 2419TIP3    H128892   6.680   1.089   1.864 -1.1823  1.7090  1.0708
 2419TIP3    H228893   6.704   1.102   1.715  2.1588 -1.4721  1.1863
 2420TIP3   OH228894   1.606   0.408   1.786 -0.1051 -0.0034  0.4677
 2420TIP3    H128895   1.511   0.407   1.799 -0.1073 -1.2628  0.5038
 2420TIP3    H228896   1.633   0.494   1.815 -1.3717  0.7852 -0.5632
 2421TIP3   OH228897   5.499   4.872   6.742 -0.4339 -0.0261  0.0907
 2421TIP3    H128898   5.475   4.963   6.763  2.0979  0.0187  3.5141
 2421TIP3    H228899   5.582   4.880   6.696  0.3891 -0.6129  1.4471
 2422TIP3   OH228900   2.305   5.597   1.672 -0.1239 -0.4726 -0.1384
 2422TIP3    H128901   2.289   5.529   1.607 -0.3051  0.9545 -1.6569
 2422TIP3    H228902   2.228   5.595   1.729 -0.5545 -0.9334 -0.7252
 2423TIP3   OH228903   2.695   3.682   1.404 -0.4468 -0.5348  0.7417
 2423TIP3    H128904   2.667   3.637   1.483  0.3265  0.3222  1.5405
 2423TIP3    H228905   2.718   3.612   1.342 -2.3655 -1.2137  0.7616
 2424TIP3   OH228906   3.774   1.760   0.374  0.0293 -0.6270 -0.1428
 2424TIP3    H128907   3.713   1.688   0.390  0.7765 -1.3354 -0.4098
 2424TIP3    H228908   3.725   1.822   0.321 -1.1121 -0.2212  1.3154
 2425TIP3   OH228909   2.119   5.735   0.602  0.5608  0.7134 -0.2736
 2425TIP3    H128910   2.201   5.763   0.642  0.9425 -2.1504  1.2241
 2425TIP3    H228911   2.089   5.662   0.657 -2.2397  0.6901 -1.6300
 2426TIP3   OH228912   0.124   5.027   7.281 -0.0777  0.1713 -0.1845
 2426TIP3    H128913   0.166   5.106   7.246 -0.0018  0.3923  0.3953
 2426TIP3    H228914   0.051   5.060   7.334  0.4181 -0.1111  0.6873
 2427TIP3   OH228915   1.776   1.041   7.971  0.0496  0.4273 -0.3610
 2427TIP3    H128916   1.724   1.121   7.970  0.7767  0.9294  0.6883
 2427TIP3    H228917   1.865   1.069   7.954  0.4163 -0.0607  0.6665
 2428TIP3   OH228918   5.568   5.967   8.913  0.0213  0.1087 -0.0837
 2428TIP3    H128919   5.477   5.998   8.921  0.3000  0.6440  1.1508
 2428TIP3    H228920   5.616   6.015   8.981  1.4814  0.7583 -1.4937
 2429TIP3   OH228921   0.882   2.765   0.892  0.1872  0.6462  0.4783
 2429TIP3    H128922   0.852   2.716   0.816 -1.1378 -0.9320  1.9256
 2429TIP3    H228923   0.972   2.788   0.872  0.2898 -0.8554 -1.0270
 2430TIP3   OH228924   1.831   1.619   1.233 -0.2631  0.0792  0.0592
 2430TIP3    H128925   1.868   1.537   1.199  0.2323  0.1399  0.4355
 2430TIP3    H228926   1.757   1.638   1.176  1.1958  0.7833 -1.6798
 2431TIP3   OH228927   5.904   5.556   1.022 -0.2188  0.3565 -0.1983
 2431TIP3    H128928   5.942   5.487   0.968  0.1368  0.1592  0.2915
 2431TIP3    H228929   5.966   5.628   1.015 -0.8471  0.8190 -1.1174
 2432TIP3   OH228930   1.246   5.462   7.063 -0.3141  0.1992 -0.5184
 2432TIP3    H128931   1.270   5.477   6.971  0.8381  0.3755 -0.1988
 2432TIP3    H228932   1.265   5.546   7.106 -1.5412  0.3540 -0.2438
 2433TIP3   OH228933   1.605   2.299   0.509 -0.1936 -0.2288 -0.7542
 2433TIP3    H128934   1.677   2.237   0.499 -0.5911 -0.6918 -0.7774
 2433TIP3    H228935   1.533   2.247   0.545  0.4234  0.8175  2.3917
 2434TIP3   OH228936   1.770   1.899   0.032 -0.3243 -0.8485  0.2999
 2434TIP3    H128937   1.789   1.814   0.072 -0.0710 -0.7825  0.3265
 2434TIP3    H228938   1.715   1.944   0.095 -1.2528 -1.3582 -0.1330
 2435TIP3   OH228939   4.036   2.408   8.478  0.0620  0.6798 -0.5558
 2435TIP3    H128940   4.125   2.442   8.467 -0.3786  1.5333 -1.6719
 2435TIP3    H228941   3.984   2.456   8.414 -0.9015 -0.9952 -1.0672
 2436TIP3   OH228942   1.679   1.288   8.015 -0.0324 -0.2715  0.5208
 2436TIP3    H128943   1.772   1.289   8.038  0.2216 -3.6456  0.2500
 2436TIP3    H228944   1.634   1.311   8.096  0.9642  2.0271  0.5021
 2437TIP3   OH228945   5.942   3.386   0.972  0.1332  0.0581  0.3224
 2437TIP3    H128946   5.902   3.309   0.932  0.8443 -0.0373 -0.2270
 2437TIP3    H228947   5.941   3.368   1.066 -0.2908 -0.3339  0.2439
 2438TIP3   OH228948   0.464   5.896   8.707 -0.3643  0.1717  0.0458
 2438TIP3    H128949   0.549   5.866   8.739  0.4294  1.8091 -0.3966
 2438TIP3    H228950   0.483   5.936   8.622 -1.7531 -0.3089 -0.5232
 2439TIP3   OH228951   3.293   1.576   7.924 -0.2935 -0.1934 -0.2899
 2439TIP3    H128952   3.358   1.634   7.963 -0.0010  0.5651 -1.8268
 2439TIP3    H228953   3.222   1.634   7.898 -0.2185 -0.5769 -1.3970
 2440TIP3   OH228954   5.093   4.061   0.590 -0.1033 -0.2908  0.7656
 2440TIP3    H128955   5.119   4.152   0.604 -0.3691  0.2331 -1.6980
 2440TIP3    H228956   4.998   4.064   0.584 -0.3537 -1.1911  3.1848
 2441TIP3   OH228957   1.158   6.474   2.760  0.4844  1.2533  0.3944
 2441TIP3    H128958   1.099   6.525   2.704  0.3657  1.5943  0.8265
 2441TIP3    H228959   1.147   6.383   2.730 -1.7447  1.0133  1.7373
 2442TIP3   OH228960   3.697   3.654   2.293 -0.1697 -0.0847 -0.5183
 2442TIP3    H128961   3.660   3.737   2.265 -0.0184 -0.8327 -3.1687
 2442TIP3    H228962   3.791   3.671   2.303 -0.0072 -0.1130 -1.8921
 2443TIP3   OH228963   0.149   4.840   0.704 -0.2930 -0.1322 -0.5097
 2443TIP3    H128964   0.114   4.827   0.792 -0.2776 -1.6875 -0.7096
 2443TIP3    H228965   0.214   4.910   0.715  1.2391 -1.7106  1.1570
 2444TIP3   OH228966   6.436   5.556   7.313  0.0090  0.0561  0.2224
 2444TIP3    H128967   6.344   5.558   7.339  0.2196  2.3090  0.9485
 2444TIP3    H228968   6.439   5.603   7.230  0.6405  1.0263  0.7796
 2445TIP3   OH228969   2.319   1.756   0.882  0.4524  0.6125  0.0711
 2445TIP3    H128970   2.374   1.695   0.930 -1.4421 -0.4456  0.9934
 2445TIP3    H228971   2.272   1.804   0.949 -0.5292  0.7457 -0.6928
 2446TIP3   OH228972   3.010   2.377   0.186 -0.0355  0.5191  0.3962
 2446TIP3    H128973   3.049   2.345   0.104 -1.5004  2.3562 -1.1170
 2446TIP3    H228974   3.083   2.417   0.234  0.6125  0.6535 -0.6665
 2447TIP3   OH228975   4.622   3.375   1.024 -0.0608 -0.0536 -0.3347
 2447TIP3    H128976   4.659   3.360   1.111  1.2661  2.1271 -0.4363
 2447TIP3    H228977   4.667   3.453   0.992 -0.6546 -0.6558 -2.9133
 2448TIP3   OH228978   2.372   0.923   0.528 -0.1079 -0.3517  0.1963
 2448TIP3    H128979   2.352   0.839   0.569 -3.2095 -0.5538 -1.3902
 2448TIP3    H228980   2.293   0.975   0.540  1.3538  1.9936  0.2093
 2449TIP3   OH228981   6.196   0.470   0.553  0.4831 -0.1422 -0.3769
 2449TIP3    H128982   6.217   0.385   0.592  1.5272  0.3239  0.1296
 2449TIP3    H228983   6.272   0.490   0.498  1.4495  1.5622  1.4382
 2450TIP3   OH228984   0.762   4.928   6.336 -0.4868 -0.3004  0.4938
 2450TIP3    H128985   0.837   4.982   6.312 -0.6191 -0.6710 -0.8341
 2450TIP3    H228986   0.788   4.839   6.314  0.2944 -1.1012  3.9780
 2451TIP3   OH228987   6.604   6.611   8.786 -0.2654 -0.4397 -0.0699
 2451TIP3    H128988   6.529   6.580   8.734  1.1593 -3.0899 -0.7545
 2451TIP3    H228989   6.591   6.573   8.872 -1.7993  2.6505  1.2168
 2452TIP3   OH228990   6.085   4.292   0.264 -0.3162 -0.3046  0.2130
 2452TIP3    H128991   6.039   4.319   0.184  1.5204 -0.4616 -0.9680
 2452TIP3    H228992   6.128   4.372   0.294  0.2270 -0.5763  0.1662
 2453TIP3   OH228993   0.530   0.087   7.456 -0.0565  0.2369 -0.4219
 2453TIP3    H128994   0.544   0.036   7.376 -0.5069  0.8689 -0.9224
 2453TIP3    H228995   0.582   0.166   7.443  0.5187 -0.0148  0.2828
 2454TIP3   OH228996   4.854   5.237   0.174 -0.3607  0.7942  0.4425
 2454TIP3    H128997   4.917   5.277   0.234 -0.0385  1.1987 -0.1567
 2454TIP3    H228998   4.906   5.177   0.121 -0.8776 -0.6487  1.4954
 2455TIP3   OH228999   5.305   1.701   7.567 -0.2744  0.3125 -0.5482
 2455TIP3    H129000   5.262   1.765   7.623  0.4364  0.8480 -0.5932
 2455TIP3    H229001   5.329   1.751   7.489 -1.1497 -0.3934 -1.2937
 2456TIP3   OH229002   3.841   0.486   0.962  0.0314 -0.1994  0.8240
 2456TIP3    H129003   3.760   0.478   1.013 -0.3317 -0.0480  0.2883
 2456TIP3    H229004   3.830   0.423   0.890  0.0788  0.3136  0.3571
 2457TIP3   OH229005   4.340   1.647   1.093 -0.3522 -0.2418  0.3790
 2457TIP3    H129006   4.432   1.621   1.095  0.2502  1.6584 -0.3898
 2457TIP3    H229007   4.341   1.743   1.094 -2.3151 -0.1611  0.2248
 2458TIP3   OH229008   3.038   4.656   7.856  0.2089  0.0747 -0.0952
 2458TIP3    H129009   3.007   4.732   7.806  1.9178  0.0364 -1.2951
 2458TIP3    H229010   3.128   4.677   7.879  0.7081 -1.5553 -0.4247
 2459TIP3   OH229011   5.798   3.455   7.348  0.2322 -0.2729  0.0671
 2459TIP3    H129012   5.722   3.399   7.365  0.0725 -0.2475 -0.5331
 2459TIP3    H229013   5.774   3.540   7.385  1.3454 -1.0930  3.0090
 2460TIP3   OH229014   5.124   2.440   1.386  0.1614  0.1343  0.0972
 2460TIP3    H129015   5.043   2.465   1.431  0.6028  0.1227  0.9063
 2460TIP3    H229016   5.111   2.347   1.364 -0.0913  0.1645  0.1125
 2461TIP3   OH229017   3.932   0.076   0.381 -0.3417  0.3043  0.0896
 2461TIP3    H129018   3.908   0.148   0.439 -2.5536 -0.1909 -0.1089
 2461TIP3    H229019   3.908   0.107   0.293  2.0120  0.6500 -0.4900
 2462TIP3   OH229020   1.584   0.590   7.727 -0.5312 -0.1770 -0.4442
 2462TIP3    H129021   1.496   0.574   7.761 -0.4815  0.2948 -0.0727
 2462TIP3    H229022   1.614   0.668   7.775  0.1323 -0.4054 -0.4786
 2463TIP3   OH229023   2.549   2.612   8.708  0.0327  0.4579 -0.2233
 2463TIP3    H129024   2.643   2.609   8.689  0.1433  1.0028  0.2200
 2463TIP3    H229025   2.541   2.572   8.795 -0.4554 -1.9386 -1.2873
 2464TIP3   OH229026   3.209   6.167   0.096 -0.0490 -0.2737 -0.0043
 2464TIP3    H129027   3.189   6.142   0.187 -0.1709  0.1139  0.0793
 2464TIP3    H229028   3.298   6.200   0.100 -0.3595  0.5885  0.1546
 2465TIP3   OH229029   4.873   2.710   6.891 -0.4059 -0.3621 -0.1841
 2465TIP3    H129030   4.822   2.787   6.914  0.4948 -0.0904  1.0064
 2465TIP3    H229031   4.854   2.647   6.960 -1.1552 -1.2468 -1.1602
 2466TIP3   OH229032   6.588   3.324   8.677 -0.3153  0.2334 -0.6479
 2466TIP3    H129033   6.674   3.298   8.710 -1.1893 -0.8736  0.8504
 2466TIP3    H229034   6.590   3.420   8.680  1.5405  0.3386 -2.5437
 2467TIP3   OH229035   5.292   1.367   1.013  0.1102  0.0060  0.0836
 2467TIP3    H129036   5.344   1.307   0.959 -1.2031 -1.4236  0.3436
 2467TIP3    H229037   5.215   1.385   0.961  1.0919  2.6554 -0.5830
 2468TIP3   OH229038   6.354   4.440   0.918 -0.0535 -0.3127 -0.1760
 2468TIP3    H129039   6.420   4.383   0.877  0.0260  0.1661 -0.7355
 2468TIP3    H229040   6.329   4.395   0.998  1.4097 -0.2082  0.3660
 2469TIP3   OH229041   1.872   4.748   0.964  0.2591 -0.0739  0.1649
 2469TIP3    H129042   1.959   4.786   0.956  0.4508 -0.7724 -1.3874
 2469TIP3    H229043   1.864   4.726   1.057  0.0862  3.7738  1.2279
 2470TIP3   OH229044   3.891   2.474   0.631  0.5710 -0.2450  0.1521
 2470TIP3    H129045   3.977   2.492   0.592 -0.7096  0.5018 -2.4987
 2470TIP3    H229046   3.848   2.559   0.637 -0.5143 -0.7766  0.1572
 2471TIP3   OH229047   1.742   3.519   1.766 -0.5395  0.0563  0.0475
 2471TIP3    H129048   1.728   3.614   1.756 -0.2923  0.2452  1.3386
 2471TIP3    H229049   1.698   3.497   1.848 -0.8796 -1.0272 -0.4106
 2472TIP3   OH229050   2.418   3.262   2.122 -0.5561 -0.1234 -0.1485
 2472TIP3    H129051   2.496   3.213   2.149 -0.6326 -0.4154 -0.4551
 2472TIP3    H229052   2.373   3.204   2.062 -0.8039  0.2085 -0.2852
 2473TIP3   OH229053   1.524   4.745   0.706 -0.4586  0.2145  0.2233
 2473TIP3    H129054   1.570   4.712   0.629 -1.9766  0.1758 -0.7095
 2473TIP3    H229055   1.484   4.827   0.677 -2.1448 -0.4635  0.5396
 2474TIP3   OH229056   3.687   1.379   8.561 -0.5020 -1.1888 -0.1626
 2474TIP3    H129057   3.710   1.346   8.647 -1.2611 -1.5966 -0.1079
 2474TIP3    H229058   3.770   1.408   8.523 -0.4646  1.6814  1.7796
 2475TIP3   OH229059   2.578   3.976   1.592  0.4139 -0.0215 -0.0961
 2475TIP3    H129060   2.620   3.907   1.644 -0.9082 -1.4954 -0.9157
 2475TIP3    H229061   2.485   3.967   1.612  0.0934  0.6525 -1.2317
 2476TIP3   OH229062   2.454   5.984   7.520  0.6978  0.3291  0.2455
 2476TIP3    H129063   2.499   6.010   7.439  3.3764  0.3641  1.6233
 2476TIP3    H229064   2.399   6.059   7.542  1.9016  1.3986 -0.2341
 2477TIP3   OH229065   2.144   5.371   1.608  0.2027 -0.0513  0.4165
 2477TIP3    H129066   2.194   5.302   1.652  1.5615  0.3669 -0.4178
 2477TIP3    H229067   2.141   5.344   1.517 -1.1065 -0.0430  0.4370
 2478TIP3   OH229068   0.255   3.619   6.537 -0.5536  0.3385 -0.0490
 2478TIP3    H129069   0.272   3.541   6.484  0.0871  0.0502  0.5650
 2478TIP3    H229070   0.159   3.620   6.548 -0.4664 -1.1236  1.0533
 2479TIP3   OH229071   0.043   5.175   1.468  0.2543 -0.1122  0.7478
 2479TIP3    H129072   0.049   5.263   1.507  0.2025  0.7892 -1.1542
 2479TIP3    H229073   0.108   5.123   1.515 -0.6363  0.5472  2.8385
 2480TIP3   OH229074   4.165   1.273   7.644 -0.4901  0.1149 -0.5570
 2480TIP3    H129075   4.243   1.252   7.695 -0.5717  1.8157  0.3540
 2480TIP3    H229076   4.128   1.188   7.619  0.6270 -0.7355  0.5728
 2481TIP3   OH229077   5.523   3.905   8.537 -0.4751 -0.5206 -0.3323
 2481TIP3    H129078   5.571   3.951   8.469  0.6887  0.4741  1.0966
 2481TIP3    H229079   5.440   3.952   8.544  0.1443  0.5136  0.1692
 2482TIP3   OH229080   2.207   6.744   7.425 -0.2092 -0.1615 -0.2599
 2482TIP3    H129081   2.182   6.774   7.338 -0.5386  0.4878  0.0486
 2482TIP3    H229082   2.125   6.747   7.475  0.0999  0.0848  0.2401
 2483TIP3   OH229083   6.358   5.174   0.891  0.2313 -0.1340  0.0043
 2483TIP3    H129084   6.352   5.261   0.930 -0.6641 -0.0369 -0.3197
 2483TIP3    H229085   6.318   5.185   0.804  2.1226 -0.3521 -0.9366
 2484TIP3   OH229086   4.146   3.753   0.227 -0.4929  0.4130 -0.0232
 2484TIP3    H129087   4.188   3.749   0.141 -0.0022 -0.4098  0.2425
 2484TIP3    H229088   4.090   3.675   0.230 -0.0651  0.1251  0.6194
 2485TIP3   OH229089   0.354   3.821   1.163 -0.0463 -0.2773 -0.1264
 2485TIP3    H129090   0.345   3.792   1.254  1.1717  0.2849  0.2018
 2485TIP3    H229091   0.266   3.813   1.126 -0.2408 -2.0431  0.6251
 2486TIP3   OH229092   0.598   4.488   8.858 -0.4971  0.5625  0.2106
 2486TIP3    H129093   0.570   4.413   8.804 -1.0990  0.4730  0.6273
 2486TIP3    H229094   0.615   4.558   8.795 -0.8133  0.3444 -0.1243
 2487TIP3   OH229095   1.393   3.801   8.679 -0.5771 -0.8271  0.2114
 2487TIP3    H129096   1.305   3.811   8.643 -0.7593 -0.4169  0.7557
 2487TIP3    H229097   1.414   3.887   8.715 -1.1755 -1.6543  2.7711
 2488TIP3   OH229098   1.040   1.416   0.058  0.2340 -0.6824  0.0760
 2488TIP3    H129099   0.990   1.498   0.060  0.4422 -0.5683  1.1658
 2488TIP3    H229100   1.031   1.384  -0.032  1.5724  1.4146 -0.8906
 2489TIP3   OH229101   5.997   6.294   7.737  0.0094 -0.7126  0.7791
 2489TIP3    H129102   6.067   6.358   7.748 -1.3878  0.7166  1.9013
 2489TIP3    H229103   5.971   6.302   7.645  1.1215 -1.0983  0.4138
 2490TIP3   OH229104   6.489   0.641   8.944 -0.3843 -0.1660 -0.4885
 2490TIP3    H129105   6.407   0.661   8.899 -0.9941  0.8923  1.0143
 2490TIP3    H229106   6.494   0.704   9.016  0.9766 -1.2177  0.4110
 2491TIP3   OH229107   0.933   5.689   7.106  0.0722 -0.8486 -0.0280
 2491TIP3    H129108   0.976   5.687   7.021 -0.2589  0.7008 -0.2560
 2491TIP3    H229109   0.952   5.603   7.145  3.0599 -0.3590 -0.2514
 2492TIP3   OH229110   0.384   0.851   0.238 -0.0090  0.1118  0.3923
 2492TIP3    H129111   0.479   0.860   0.250  0.2083 -0.3340 -0.8408
 2492TIP3    H229112   0.360   0.926   0.184 -0.4222  0.3817  0.9393
 2493TIP3   OH229113   6.673   3.914   7.384 -0.1364 -0.5764 -0.3641
 2493TIP3    H129114   6.667   3.832   7.335 -2.2661 -0.1489 -0.9250
 2493TIP3    H229115   6.634   3.980   7.327  0.4265  0.6131  0.5578
 2494TIP3   OH229116   2.166   5.327   0.347  0.0435 -0.1475  0.1491
 2494TIP3    H129117   2.178   5.232   0.344 -0.6475 -0.2278 -0.3474
 2494TIP3    H229118   2.078   5.341   0.313 -0.1652  0.6195  0.9838
 2495TIP3   OH229119   0.642   3.190   0.132  0.3825  0.3561 -0.2072
 2495TIP3    H129120   0.552   3.182   0.165  0.0139 -0.3833 -1.3390
 2495TIP3    H229121   0.632   3.207   0.039  1.3867 -2.2911 -0.8937
 2496TIP3   OH229122   1.607   2.532   1.202  0.3093 -0.2173 -0.4339
 2496TIP3    H129123   1.541   2.555   1.137  0.4924  0.3924 -0.4101
 2496TIP3    H229124   1.563   2.544   1.286  1.0177  2.1301 -0.3443
 2497TIP3   OH229125   1.986   3.757   0.763 -0.0033 -0.5683 -0.0937
 2497TIP3    H129126   2.015   3.847   0.751  0.2908 -0.7863 -1.1012
 2497TIP3    H229127   2.008   3.713   0.681 -0.0792 -1.5773  0.4058
 2498TIP3   OH229128   6.157   6.530   7.711  0.1608  0.2766 -0.3613
 2498TIP3    H129129   6.185   6.609   7.758  1.5335 -0.8821  0.8655
 2498TIP3    H229130   6.183   6.545   7.621 -1.1740  1.9323 -0.5122
 2499TIP3   OH229131   0.715   2.384   6.410  0.2777 -0.0286 -1.0415
 2499TIP3    H129132   0.804   2.402   6.439 -0.2751  1.2974 -0.0911
 2499TIP3    H229133   0.694   2.298   6.447  0.2686  0.7834  0.9629
 2500TIP3   OH229134   5.916   0.855   2.332 -0.0589  0.2034  0.2013
 2500TIP3    H129135   6.006   0.881   2.350 -0.4225  2.9137 -1.4172
 2500TIP3    H229136   5.862   0.924   2.371 -1.2649  0.3782 -1.6564
 2501TIP3   OH229137   1.019   3.061   8.103  0.5310 -0.6837 -0.5746
 2501TIP3    H129138   1.051   2.984   8.150  1.0983 -0.1843 -0.1322
 2501TIP3    H229139   0.966   3.108   8.167  1.5341  0.1456 -0.3207
 2502TIP3   OH229140   5.203   4.149   7.281 -0.3147  0.9181 -0.3737
 2502TIP3    H129141   5.247   4.198   7.211  1.4908  0.7513  0.5919
 2502TIP3    H229142   5.119   4.192   7.290 -0.0743  1.7703 -1.7646
 2503TIP3   OH229143   4.007   3.928   7.951  0.0557  0.4628 -0.6284
 2503TIP3    H129144   4.079   3.989   7.966  0.3492 -0.0607  0.0917
 2503TIP3    H229145   4.049   3.847   7.924 -0.1363 -0.3813  1.4461
 2504TIP3   OH229146   2.728   0.125   7.698  0.1263  0.5080  0.4075
 2504TIP3    H129147   2.768   0.164   7.775  0.0413  0.6412  0.3863
 2504TIP3    H229148   2.698   0.039   7.726  0.7989  0.2354  0.3142
 2505TIP3   OH229149   5.982   3.940   8.887  0.1697 -0.0745  0.1020
 2505TIP3    H129150   5.999   3.846   8.883  0.3420 -0.0156 -0.9360
 2505TIP3    H229151   6.047   3.978   8.828  0.4099  0.7484  0.8744
 2506TIP3   OH229152   2.360   1.121   0.801  0.2473 -0.3142  0.0958
 2506TIP3    H129153   2.301   1.119   0.726 -2.2846 -2.0103  1.9759
 2506TIP3    H229154   2.372   1.029   0.825  2.8635  0.0520  0.4725
 2507TIP3   OH229155   5.668   1.792   1.269  0.0590  0.1303  0.8296
 2507TIP3    H129156   5.601   1.837   1.219  1.1109  1.0284  0.1756
 2507TIP3    H229157   5.638   1.701   1.273 -0.3631  0.1553 -0.9092
 2508TIP3   OH229158   4.706   0.795   0.372 -0.7359  0.5066 -0.0709
 2508TIP3    H129159   4.755   0.714   0.357 -1.5787 -0.0252 -0.0309
 2508TIP3    H229160   4.642   0.772   0.440 -1.9559  0.7758 -1.0791
 2509TIP3   OH229161   4.262   0.743   0.175 -0.4538 -0.4307  0.1500
 2509TIP3    H129162   4.242   0.655   0.207  0.7076 -0.2381  1.4999
 2509TIP3    H229163   4.179   0.775   0.141 -1.1126 -1.7031  0.4729
 2510TIP3   OH229164   4.373   0.467   8.895 -0.2215  0.1123 -0.5414
 2510TIP3    H129165   4.410   0.398   8.840 -0.8952 -0.1179 -0.7139
 2510TIP3    H229166   4.387   0.547   8.846 -0.2604 -0.0172 -0.7632
 2511TIP3   OH229167   0.658   3.295   8.596 -0.8037  0.5554 -0.6768
 2511TIP3    H129168   0.590   3.362   8.592 -1.7495 -0.2716  0.8193
 2511TIP3    H229169   0.666   3.274   8.689 -0.0046 -0.8826 -1.0393
 2512TIP3   OH229170   1.283   0.584   0.904 -0.0536 -0.2401 -0.2056
 2512TIP3    H129171   1.324   0.577   0.818  1.7680  0.9940  0.5013
 2512TIP3    H229172   1.349   0.552   0.965 -0.2586  1.4608  0.9643
 2513TIP3   OH229173   4.177   6.101   7.148  0.0968  0.4397 -0.2323
 2513TIP3    H129174   4.234   6.064   7.215  1.6501 -0.4976 -1.9859
 2513TIP3    H229175   4.107   6.036   7.137  0.1498  0.3340  0.0666
 2514TIP3   OH229176   3.677   3.708   1.306 -0.2658 -0.2400  0.0370
 2514TIP3    H129177   3.703   3.697   1.214  1.2888  1.1941  0.2399
 2514TIP3    H229178   3.648   3.621   1.334  0.1208 -0.9122 -1.5439
 2515TIP3   OH229179   2.773   1.767   6.537  0.1944  0.1267  0.2404
 2515TIP3    H129180   2.729   1.720   6.466  3.2120 -1.3819 -0.8120
 2515TIP3    H229181   2.735   1.855   6.535 -1.8953 -0.7337 -1.2699
 2516TIP3   OH229182   1.223   4.680   0.633  0.3784 -0.0415 -0.2877
 2516TIP3    H129183   1.277   4.614   0.675  1.1888  0.5731 -0.3285
 2516TIP3    H229184   1.230   4.756   0.690  0.7019  0.4905 -1.0101
 2517TIP3   OH229185   3.165   5.709   8.970  0.1169  0.3396 -0.4611
 2517TIP3    H129186   3.169   5.673   8.881 -2.3817  0.0096 -0.5048
 2517TIP3    H229187   3.103   5.782   8.964  0.2244  0.5767  0.9323
 2518TIP3   OH229188   3.380   1.704   0.820  0.4654  0.3870  0.5278
 2518TIP3    H129189   3.453   1.761   0.847 -0.4116  1.7777  0.0526
 2518TIP3    H229190   3.360   1.731   0.730 -0.2701 -0.3694  0.4519
 2519TIP3   OH229191   0.795   2.957   0.618 -0.1059 -0.2030 -0.1311
 2519TIP3    H129192   0.747   2.903   0.555 -1.1497 -0.4862  0.8856
 2519TIP3    H229193   0.819   3.035   0.568  0.1655 -0.9559 -1.2119
 2520TIP3   OH229194   6.126   6.597   2.131  0.3106 -0.0168  0.4291
 2520TIP3    H129195   6.212   6.601   2.173  0.9333 -2.0358 -0.5208
 2520TIP3    H229196   6.111   6.503   2.116 -0.6136  0.4700 -2.2855
 2521TIP3   OH229197   6.239   4.354   1.400  0.0522  0.1120  0.3566
 2521TIP3    H129198   6.185   4.353   1.479 -1.1127  1.0121 -0.3900
 2521TIP3    H229199   6.258   4.447   1.385 -1.0047  0.1229 -1.2089
 2522TIP3   OH229200   3.403   5.731   6.524  0.5828  0.3184  0.1785
 2522TIP3    H129201   3.377   5.823   6.532  1.1036  0.5445 -0.6166
 2522TIP3    H229202   3.481   5.723   6.578  1.8155  0.8917 -1.4534
 2523TIP3   OH229203   3.065   1.917   0.874  0.3858  0.2775 -0.1320
 2523TIP3    H129204   3.009   1.855   0.921 -1.0214  1.4929 -0.1221
 2523TIP3    H229205   3.102   1.973   0.943  1.0286 -0.0640 -0.1992
 2524TIP3   OH229206   6.240   2.018   8.505  0.3853 -0.2856 -0.3367
 2524TIP3    H129207   6.208   2.101   8.539 -2.5289 -2.1518  2.0364
 2524TIP3    H229208   6.329   2.010   8.537  1.8056  2.9759 -2.9394
 2525TIP3   OH229209   4.481   3.445   0.326 -0.0400 -0.8016 -0.1522
 2525TIP3    H129210   4.544   3.457   0.254 -1.5178 -1.5477 -1.6525
 2525TIP3    H229211   4.510   3.506   0.394  1.7851 -0.5151 -1.1345
 2526TIP3   OH229212   0.187   5.080   8.843 -0.2721  0.4184  0.0199
 2526TIP3    H129213   0.254   5.128   8.891 -0.7351  0.6818  0.4179
 2526TIP3    H229214   0.210   4.988   8.854  2.3441  0.5224 -3.2241
 2527TIP3   OH229215   6.658   5.813   1.928  0.1268 -0.4527  0.0210
 2527TIP3    H129216   6.724   5.744   1.929 -0.3644 -1.0081 -1.8982
 2527TIP3    H229217   6.592   5.783   1.865 -1.1098  0.8660  0.6100
 2528TIP3   OH229218   0.519   2.696   7.557 -0.0323  0.4333 -0.2746
 2528TIP3    H129219   0.458   2.625   7.577  0.6365 -0.0926 -0.0625
 2528TIP3    H229220   0.579   2.659   7.493  2.7509 -0.5854  2.6379
 2529TIP3   OH229221   4.580   0.394   2.083 -0.1150 -0.4071  0.5523
 2529TIP3    H129222   4.674   0.408   2.099  0.2626 -2.8023  0.8191
 2529TIP3    H229223   4.540   0.395   2.170 -0.0739 -0.9800  0.5792
 2530TIP3   OH229224   1.132   4.628   7.742  0.1128  0.5324 -0.1150
 2530TIP3    H129225   1.092   4.712   7.719 -1.7386 -0.5553 -1.1458
 2530TIP3    H229226   1.226   4.646   7.747 -0.3926  3.1193  1.8807
 2531TIP3   OH229227   0.670   4.391   1.361  0.0875  0.2527  0.3371
 2531TIP3    H129228   0.739   4.395   1.295 -0.1485  0.6252  0.1084
 2531TIP3    H229229   0.591   4.416   1.314  0.1378  1.9751  1.0829
 2532TIP3   OH229230   5.511   6.080   2.337  0.3959  0.6163  0.4425
 2532TIP3    H129231   5.464   6.163   2.328  1.2260  0.8547 -2.6023
 2532TIP3    H229232   5.602   6.102   2.317  0.9836 -0.7188  1.4820
 2533TIP3   OH229233   5.252   5.395   0.672  0.0938  0.0316  0.1614
 2533TIP3    H129234   5.242   5.380   0.766 -0.3575 -0.3058  0.0623
 2533TIP3    H229235   5.339   5.361   0.651 -0.3001 -1.0728  0.2287
 2534TIP3   OH229236   6.147   3.011   7.304 -0.4672 -0.1107  0.0092
 2534TIP3    H129237   6.139   2.952   7.229  1.0501 -0.4130  0.0687
 2534TIP3    H229238   6.132   2.956   7.381 -1.7453  0.1447 -0.0339
 2535TIP3   OH229239   6.234   3.512   0.471 -0.3273 -0.4583 -0.0112
 2535TIP3    H129240   6.202   3.586   0.419 -1.1464 -0.1872  0.8615
 2535TIP3    H229241   6.157   3.458   0.487  0.3796 -1.9233 -1.2419
 2536TIP3   OH229242   4.949   1.991   8.543  0.4891 -0.1018 -0.2476
 2536TIP3    H129243   4.855   1.987   8.557  0.4193  0.5589 -0.4864
 2536TIP3    H229244   4.987   1.962   8.626  0.0775  0.9769  0.3298
 2537TIP3   OH229245   5.010   3.307   6.856  0.1208 -0.1752 -0.8831
 2537TIP3    H129246   4.957   3.228   6.842 -0.8211  0.5409 -1.5475
 2537TIP3    H229247   5.083   3.297   6.795  0.9926 -1.3554  0.3144
 2538TIP3   OH229248   0.340   5.267   8.334  0.5717  0.0808  0.1136
 2538TIP3    H129249   0.381   5.198   8.281  0.0671 -1.1086  1.2059
 2538TIP3    H229250   0.310   5.221   8.413 -1.8342  1.0874 -0.1269
 2539TIP3   OH229251   4.402   5.641   7.430  0.0957 -0.6362  0.6269
 2539TIP3    H129252   4.370   5.551   7.439  0.1499 -0.9834 -1.8481
 2539TIP3    H229253   4.416   5.652   7.336  0.9352  1.6953  0.9521
 2540TIP3   OH229254   5.278   0.811   8.256  0.7829 -0.2187  0.3453
 2540TIP3    H129255   5.268   0.717   8.271  0.7234  0.1478  3.3550
 2540TIP3    H229256   5.362   0.832   8.297  1.2327  0.9419 -1.0882
 2541TIP3   OH229257   3.664   3.865   0.804  0.0811 -0.1634  0.4250
 2541TIP3    H129258   3.579   3.838   0.767  0.2841  0.5598 -0.6200
 2541TIP3    H229259   3.699   3.927   0.740  1.1938 -0.0927  1.0794
 2542TIP3   OH229260   1.561   4.209   8.257  0.2100 -0.8213 -0.5604
 2542TIP3    H129261   1.474   4.206   8.296 -0.1573 -0.5797 -1.3376
 2542TIP3    H229262   1.591   4.298   8.272  0.9149 -1.2787  0.9254
 2543TIP3   OH229263   1.741   3.538   7.736 -0.3103  0.0722  0.1526
 2543TIP3    H129264   1.723   3.608   7.673 -2.2482 -0.4770  0.0326
 2543TIP3    H229265   1.788   3.581   7.807  1.6094  0.7755 -1.4610
 2544TIP3   OH229266   4.868   0.979   8.072  0.1058 -0.3532  0.0838
 2544TIP3    H129267   4.801   0.962   8.007  0.3631  1.8673 -0.8534
 2544TIP3    H229268   4.941   0.923   8.046  0.1365  0.3503 -1.4802
 2545TIP3   OH229269   4.698   0.490   8.946  0.4228  0.0330  1.2631
 2545TIP3    H129270   4.621   0.472   8.999  0.5629 -0.5657  1.2717
 2545TIP3    H229271   4.728   0.576   8.975  0.3072 -0.1462  1.9238
 2546TIP3   OH229272   5.429   3.695   8.293  0.0354 -0.7350 -0.2497
 2546TIP3    H129273   5.337   3.690   8.318 -0.7682  3.8125 -1.3521
 2546TIP3    H229274   5.473   3.732   8.369  0.3612 -0.2791 -0.6478
 2547TIP3   OH229275   6.225   2.096   1.471 -0.3382 -0.0293 -0.4814
 2547TIP3    H129276   6.166   2.158   1.428  0.0663  0.1764 -0.7477
 2547TIP3    H229277   6.169   2.022   1.495 -0.8476  0.4952 -0.0424
 2548TIP3   OH229278   0.219   1.201   7.338 -0.3286  0.1219 -0.2737
 2548TIP3    H129279   0.169   1.121   7.321  0.3375 -0.3108 -0.2327
 2548TIP3    H229280   0.265   1.183   7.421  0.9078 -0.0044 -0.9663
 2549TIP3   OH229281   2.604   1.794   0.139 -0.2738  0.3716  0.3282
 2549TIP3    H129282   2.559   1.712   0.161 -0.4524 -0.2417 -2.0386
 2549TIP3    H229283   2.696   1.777   0.159 -0.5569  0.3240  1.6978
 2550TIP3   OH229284   1.961   6.294   2.426 -0.2724  0.5556  0.3400
 2550TIP3    H129285   1.946   6.380   2.466  2.6625  2.0141 -1.3969
 2550TIP3    H229286   1.873   6.263   2.404 -1.5404  2.3866  2.3551
 2551TIP3   OH229287   5.732   0.193   8.634 -0.1775 -0.2289 -0.1300
 2551TIP3    H129288   5.714   0.152   8.718 -0.6393 -0.8253 -0.5120
 2551TIP3    H229289   5.701   0.283   8.645 -0.7436 -0.4527  0.1665
 2552TIP3   OH229290   3.549   1.360   1.917  0.1388  0.1478 -0.1407
 2552TIP3    H129291   3.520   1.448   1.939 -0.7543 -0.3480  0.7770
 2552TIP3    H229292   3.470   1.306   1.928  0.8111 -0.8494 -0.1060
 2553TIP3   OH229293   2.509   0.153   8.343 -0.5430 -0.5947 -0.3399
 2553TIP3    H129294   2.506   0.227   8.282  0.5344  0.4931  0.8564
 2553TIP3    H229295   2.576   0.096   8.307  0.0477  0.0124 -0.2312
 2554TIP3   OH229296   3.941   3.455   1.913  0.2109 -0.2513 -0.2113
 2554TIP3    H129297   3.954   3.417   2.000  0.1707  0.6052  0.1834
 2554TIP3    H229298   4.022   3.503   1.896 -0.4884  1.1532  0.1963
 2555TIP3   OH229299   2.053   0.998   2.161  0.9415  0.1557 -0.3275
 2555TIP3    H129300   2.028   0.989   2.253  1.5132 -1.4453 -0.3016
 2555TIP3    H229301   2.087   0.912   2.137  1.3909  0.7359 -1.8665
 2556TIP3   OH229302   5.667   2.989   1.655 -0.3894 -0.0592  0.3908
 2556TIP3    H129303   5.589   2.933   1.655 -0.4747  0.0601  0.6053
 2556TIP3    H229304   5.718   2.958   1.579 -0.0186 -1.0177  1.0091
 2557TIP3   OH229305   5.791   3.821   8.563 -0.3490 -0.0216 -0.4420
 2557TIP3    H129306   5.851   3.896   8.554 -0.2556  0.6182  3.6309
 2557TIP3    H229307   5.704   3.860   8.570 -0.4938 -0.4255  0.0509
 2558TIP3   OH229308   6.586   5.919   7.896  0.5162  0.4766 -0.1035
 2558TIP3    H129309   6.569   5.991   7.957  3.4243  1.4930 -0.3763
 2558TIP3    H229310   6.606   5.962   7.813 -2.0258 -0.8566 -1.5314
 2559TIP3   OH229311   1.331   6.598   8.030 -0.1083 -0.7299  0.1054
 2559TIP3    H129312   1.341   6.532   7.961 -0.7356 -0.5457 -0.1692
 2559TIP3    H229313   1.243   6.583   8.065 -0.9473  1.0165 -1.1028
 2560TIP3   OH229314   4.016   3.059   1.373  0.1205  0.1068 -0.5306
 2560TIP3    H129315   4.081   3.130   1.367  0.3026  0.1052  0.9295
 2560TIP3    H229316   3.968   3.078   1.454 -0.5653 -0.8401 -0.7015
 2561TIP3   OH229317   2.165   0.185   0.094  0.5843  0.1362 -0.3586
 2561TIP3    H129318   2.251   0.208   0.059  1.4181  0.6653  1.8780
 2561TIP3    H229319   2.183   0.120   0.162 -0.7875  0.2391  0.1283
 2562TIP3   OH229320   6.070   5.577   8.285 -0.2088 -0.5865  0.4117
 2562TIP3    H129321   6.136   5.641   8.313  1.9591 -0.9723 -3.3014
 2562TIP3    H229322   6.003   5.630   8.241  0.5724 -0.6315 -0.8733
 2563TIP3   OH229323   1.755   3.768   1.900  0.3952  0.2462  0.7292
 2563TIP3    H129324   1.670   3.740   1.935  0.3353  0.7032  0.9434
 2563TIP3    H229325   1.762   3.860   1.922 -0.6965  1.2389 -2.4349
 2564TIP3   OH229326   0.699   5.886   8.055 -0.7328  0.5671  0.7351
 2564TIP3    H129327   0.707   5.945   8.131  0.8525 -1.1619  2.0117
 2564TIP3    H229328   0.789   5.879   8.022 -1.1036 -0.2246 -0.1033
 2565TIP3   OH229329   1.796   4.216   0.742  0.7132  0.0255  0.0265
 2565TIP3    H129330   1.766   4.305   0.723  1.0966  0.3014  0.7076
 2565TIP3    H229331   1.720   4.173   0.781  0.4634 -0.0169 -0.4915
 2566TIP3   OH229332   1.670   4.780   1.281 -0.4322  0.2088  0.5934
 2566TIP3    H129333   1.703   4.865   1.253  0.1853 -0.3163 -0.3305
 2566TIP3    H229334   1.648   4.735   1.199  3.0288 -2.0330  0.6978
 2567TIP3   OH229335   1.490   5.777   1.183  0.1364  0.2899  0.1311
 2567TIP3    H129336   1.467   5.860   1.140 -2.4729 -1.1183 -1.4383
 2567TIP3    H229337   1.467   5.790   1.275 -1.7455  0.8229 -0.3809
 2568TIP3   OH229338   6.640   4.062   1.367  0.4514  0.0090  0.5612
 2568TIP3    H129339   6.676   4.073   1.455  0.9012 -0.1401  0.4024
 2568TIP3    H229340   6.550   4.032   1.381  1.3562 -2.7646  1.0076
 2569TIP3   OH229341   5.007   5.060   8.989  0.0466 -0.0235  0.4361
 2569TIP3    H129342   5.064   5.136   8.974 -2.7081  1.8598 -1.4120
 2569TIP3    H229343   4.999   5.019   8.902 -1.0804 -0.4713  0.7383
 2570TIP3   OH229344   0.258   5.954   0.567  0.3563 -0.4171 -0.2067
 2570TIP3    H129345   0.244   6.031   0.512  0.3852 -1.0341 -1.0934
 2570TIP3    H229346   0.292   5.989   0.649 -0.2121  0.5621 -0.3772
 2571TIP3   OH229347   2.960   0.375   0.029  0.8354  0.7957  0.0020
 2571TIP3    H129348   2.969   0.453  -0.025 -0.0429  0.1704 -1.0920
 2571TIP3    H229349   2.881   0.389   0.080 -0.9207 -0.4741 -2.2028
 2572TIP3   OH229350   1.441   6.568   1.731 -0.5460  0.1069  0.0890
 2572TIP3    H129351   1.450   6.485   1.776 -0.6671 -0.0857 -0.2366
 2572TIP3    H229352   1.466   6.549   1.640 -2.1931  0.0235 -0.3815
 2573TIP3   OH229353   2.854   2.012   0.177  0.3494 -0.0524 -0.3471
 2573TIP3    H129354   2.881   1.988   0.265 -0.1654  0.3584 -0.0722
 2573TIP3    H229355   2.774   2.063   0.189 -0.9324 -1.7539 -1.1545
 2574TIP3   OH229356   5.084   0.684   7.663 -0.4735  0.0461  0.0944
 2574TIP3    H129357   5.093   0.606   7.719 -0.0999 -0.2197 -0.3273
 2574TIP3    H229358   4.990   0.703   7.663 -0.4422  0.2859  1.1261
 2575TIP3   OH229359   2.604   5.302   6.990  0.0785 -0.7646  0.0696
 2575TIP3    H129360   2.574   5.211   6.987 -1.8453 -0.2118  0.8552
 2575TIP3    H229361   2.673   5.303   7.056 -0.5161 -1.5042  0.7117
 2576TIP3   OH229362   5.997   4.641   1.842  0.6530 -0.5560 -0.3896
 2576TIP3    H129363   5.959   4.553   1.844  1.8131 -1.0861  1.7726
 2576TIP3    H229364   5.935   4.695   1.891  1.1682 -0.7762  0.5409
 2577TIP3   OH229365   1.482   3.080   7.422 -0.4074  0.2164  0.5995
 2577TIP3    H129366   1.517   3.148   7.366  0.3654  0.5726  1.4913
 2577TIP3    H229367   1.558   3.038   7.462 -0.8270 -1.6438 -0.4389
 2578TIP3   OH229368   2.778   5.606   1.527 -1.2765 -0.3700  0.3746
 2578TIP3    H129369   2.823   5.642   1.604 -1.7783 -4.5191  2.9591
 2578TIP3    H229370   2.695   5.653   1.524  0.0051  2.0628  0.3105
 2579TIP3   OH229371   5.778   2.593   7.344 -0.0142 -0.4276  0.1645
 2579TIP3    H129372   5.817   2.575   7.259  3.0571  0.8887  1.1544
 2579TIP3    H229373   5.794   2.514   7.395  0.4670 -0.2721  0.2593
 2580TIP3   OH229374   4.099   4.500   1.174  0.4261 -0.6416 -0.4114
 2580TIP3    H129375   4.168   4.435   1.187  1.6195  0.5691 -0.4417
 2580TIP3    H229376   4.019   4.449   1.160  1.2177 -2.0742  0.1434
 2581TIP3   OH229377   4.944   4.016   8.871  0.0828 -0.2164 -0.3684
 2581TIP3    H129378   4.913   3.938   8.825  1.2757 -1.1179  0.2799
 2581TIP3    H229379   5.032   3.992   8.901  0.1744  1.1171  0.5057
 2582TIP3   OH229380   2.194   5.307   8.293 -0.0163  0.4771  0.0619
 2582TIP3    H129381   2.263   5.366   8.263  0.0664 -0.7666 -2.5287
 2582TIP3    H229382   2.199   5.233   8.232 -2.5841 -0.4057  0.8138
 2583TIP3   OH229383   0.299   6.491   8.729  0.9769  0.7168 -0.3518
 2583TIP3    H129384   0.308   6.395   8.728 -2.6489  0.2446 -1.2621
 2583TIP3    H229385   0.233   6.507   8.796  2.0262  2.7211  0.2687
 2584TIP3   OH229386   4.189   4.173   6.780 -0.3767 -0.0163 -0.0118
 2584TIP3    H129387   4.279   4.181   6.748 -0.0184  0.2766  1.0330
 2584TIP3    H229388   4.135   4.211   6.710  0.3900  0.7086 -0.2170
 2585TIP3   OH229389   5.483   6.441   7.884 -0.3110 -0.1687 -0.2947
 2585TIP3    H129390   5.463   6.534   7.883  1.0780  0.1995  1.1893
 2585TIP3    H229391   5.508   6.421   7.794  0.1649  1.0824 -0.4618
 2586TIP3   OH229392   4.365   5.258   8.581  0.1329  0.3256 -0.4349
 2586TIP3    H129393   4.293   5.300   8.628 -0.1050 -0.6923  0.1381
 2586TIP3    H229394   4.334   5.169   8.563  0.7563  0.2692 -1.3098
 2587TIP3   OH229395   2.326   4.569   7.422 -0.2862 -0.2437  0.0846
 2587TIP3    H129396   2.363   4.485   7.449 -1.9066 -0.7688  0.8307
 2587TIP3    H229397   2.345   4.628   7.495  1.2149  0.1811 -0.6179
 2588TIP3   OH229398   1.372   4.463   6.491  0.4651  0.0752 -0.0430
 2588TIP3    H129399   1.456   4.498   6.462  0.6412 -1.0916 -1.0270
 2588TIP3    H229400   1.332   4.426   6.412 -0.5077 -0.3144  0.6049
 2589TIP3   OH229401   1.585   2.208   8.373 -0.2663 -0.1469 -0.0101
 2589TIP3    H129402   1.517   2.203   8.440  0.8115 -1.6793  1.0031
 2589TIP3    H229403   1.643   2.277   8.403  1.0448 -1.8254  1.4907
 2590TIP3   OH229404   0.135   2.012   8.069  0.8217 -0.7380 -0.1043
 2590TIP3    H129405   0.159   2.037   7.980  0.7962 -0.1017  0.0618
 2590TIP3    H229406   0.042   2.036   8.076  0.9000 -0.5128  0.1843
 2591TIP3   OH229407   3.765   3.088   1.280  0.6554  0.1549 -0.2801
 2591TIP3    H129408   3.734   3.005   1.242 -1.0136  0.5076  0.2607
 2591TIP3    H229409   3.856   3.069   1.305  0.6426 -1.1896 -1.1155
 2592TIP3   OH229410   4.510   5.900   1.699  0.3578 -0.2186 -0.3868
 2592TIP3    H129411   4.564   5.897   1.778  0.7624  0.5686 -0.6194
 2592TIP3    H229412   4.502   5.994   1.679  0.4059 -0.4139 -1.3687
 2593TIP3   OH229413   1.625   4.107   6.997 -0.6771  0.0906 -0.4438
 2593TIP3    H129414   1.576   4.122   6.916 -1.7800  1.4982  0.4338
 2593TIP3    H229415   1.682   4.183   7.006 -1.4310  0.5432  0.6871
 2594TIP3   OH229416   1.013   3.668   8.053 -0.0500  0.0861  0.5388
 2594TIP3    H129417   0.943   3.711   8.102  0.2725 -1.0346  2.0608
 2594TIP3    H229418   1.086   3.729   8.057 -1.0917  1.6308 -1.7485
 2595TIP3   OH229419   6.042   3.328   0.370 -0.7010  0.2344 -0.0417
 2595TIP3    H129420   5.983   3.391   0.330 -0.0413  0.5694 -0.5129
 2595TIP3    H229421   6.120   3.330   0.315 -0.4189 -0.5216  0.3097
 2596TIP3   OH229422   6.457   1.697   6.738  0.0897 -0.2436  0.0794
 2596TIP3    H129423   6.511   1.674   6.663  0.1121  2.0750 -0.6912
 2596TIP3    H229424   6.367   1.675   6.712  0.3820 -2.0469  0.5057
 2597TIP3   OH229425   3.427   4.392   8.393  0.1803 -0.3594 -0.1682
 2597TIP3    H129426   3.518   4.365   8.382  0.1530 -0.1499 -0.9610
 2597TIP3    H229427   3.384   4.365   8.312 -0.4783 -0.4993  0.2209
 2598TIP3   OH229428   2.282   6.556   6.891  0.2865  0.2251  0.0094
 2598TIP3    H129429   2.357   6.496   6.894 -1.1708 -1.6928  0.7257
 2598TIP3    H229430   2.243   6.540   6.805 -0.8879 -0.9666  0.7139
 2599TIP3   OH229431   5.116   2.481   2.064  0.2919  0.1791 -0.1865
 2599TIP3    H129432   5.198   2.447   2.099  0.2485 -0.2481 -0.4912
 2599TIP3    H229433   5.052   2.464   2.133  0.1761 -0.7943 -0.5174
 2600TIP3   OH229434   2.027   5.792   7.138  0.1538 -0.0574  0.1889
 2600TIP3    H129435   2.090   5.796   7.209 -0.8209 -0.3275  1.0950
 2600TIP3    H229436   2.065   5.730   7.076  0.9495  0.0766  0.5303
 2601TIP3   OH229437   6.591   2.351   1.193 -0.4234 -0.3410 -0.6045
 2601TIP3    H129438   6.564   2.443   1.195  1.6837  0.3267  0.2424
 2601TIP3    H229439   6.673   2.351   1.144  1.4161 -1.1660  2.2376
 2602TIP3   OH229440   2.520   3.242   8.656  0.0005 -1.2177  0.0851
 2602TIP3    H129441   2.560   3.323   8.689 -1.8269 -0.3621  0.3660
 2602TIP3    H229442   2.556   3.232   8.568  1.2808 -0.8742  0.5388
 2603TIP3   OH229443   4.267   4.900   7.685 -0.1092  0.0991  0.2872
 2603TIP3    H129444   4.257   4.830   7.749 -0.3924 -0.0188  0.1165
 2603TIP3    H229445   4.357   4.929   7.695 -0.0001 -0.2687  0.3824
 2604TIP3   OH229446   0.910   2.050   1.595 -0.0982 -0.5044 -0.1053
 2604TIP3    H129447   0.922   2.058   1.501  1.5949  0.1420  0.1399
 2604TIP3    H229448   0.818   2.026   1.605 -0.3154 -0.5633 -1.9073
 2605TIP3   OH229449   5.551   3.701   8.802  0.2405  0.0340 -0.5690
 2605TIP3    H129450   5.636   3.744   8.811 -0.8791  2.3784 -0.5142
 2605TIP3    H229451   5.511   3.744   8.726 -1.2432 -0.3907 -0.0540
 2606TIP3   OH229452   2.168   1.980   8.886 -0.3373 -0.4098  0.0703
 2606TIP3    H129453   2.260   1.959   8.900 -0.2249 -1.3268 -1.7793
 2606TIP3    H229454   2.130   1.899   8.851 -1.9272 -0.1429  1.0739
 2607TIP3   OH229455   3.635   6.414   7.072 -0.1166 -0.0931  0.6914
 2607TIP3    H129456   3.694   6.352   7.028  0.2085  1.1691 -0.7433
 2607TIP3    H229457   3.564   6.426   7.009 -0.6214  0.3064  1.3428
 2608TIP3   OH229458   6.705   0.037   1.519  0.3965 -0.0584  0.0596
 2608TIP3    H129459   6.720  -0.023   1.446 -0.8477 -1.5123  0.9517
 2608TIP3    H229460   6.639   0.098   1.485  0.5422 -0.1189 -0.3456
 2609TIP3   OH229461   1.857   5.664   8.935  0.5311  0.0641  0.1951
 2609TIP3    H129462   1.923   5.693   8.872  0.3311  1.8755  0.7822
 2609TIP3    H229463   1.896   5.683   9.020 -0.8269  1.3954  0.5463
 2610TIP3   OH229464   3.388   2.382   8.578 -0.0599 -0.1320  0.3404
 2610TIP3    H129465   3.370   2.470   8.613 -0.2606  0.4753 -1.2254
 2610TIP3    H229466   3.463   2.395   8.520  2.7383 -1.7906  3.2352
 2611TIP3   OH229467   5.036   5.019   0.279 -0.3545 -0.4289 -0.3607
 2611TIP3    H129468   5.078   5.005   0.364 -0.4173 -1.2073 -0.4530
 2611TIP3    H229469   5.108   5.037   0.219 -0.0161 -2.8024 -0.7401
 2612TIP3   OH229470   2.862   4.095   8.917 -0.1364  0.0665 -0.3794
 2612TIP3    H129471   2.910   4.145   8.851  1.0882 -0.4554  0.0882
 2612TIP3    H229472   2.895   4.006   8.907 -1.8401 -0.5474 -0.7895
 2613TIP3   OH229473   0.452   5.577   2.140 -0.0398  0.3092 -0.1765
 2613TIP3    H129474   0.400   5.541   2.212  0.6444 -0.4082 -0.0265
 2613TIP3    H229475   0.541   5.546   2.157  0.2646  0.7394 -0.9378
 2614TIP3   OH229476   0.266   0.917   1.696  0.4757  0.3352  0.3604
 2614TIP3    H129477   0.178   0.953   1.702  0.4617  0.4496 -0.3825
 2614TIP3    H229478   0.278   0.900   1.603  0.7450 -0.9308  0.6070
 2615TIP3   OH229479   4.209   4.359   1.584 -0.4172  0.4261 -0.0943
 2615TIP3    H129480   4.115   4.341   1.576 -0.3447  0.2191 -0.5088
 2615TIP3    H229481   4.239   4.298   1.651 -0.1312 -1.2201 -1.6450
 2616TIP3   OH229482   1.621   0.695   8.238 -0.2616  0.0760  0.1079
 2616TIP3    H129483   1.646   0.611   8.275 -1.7831 -0.8972 -0.9448
 2616TIP3    H229484   1.695   0.721   8.184  0.3857 -0.3877  0.7694
 2617TIP3   OH229485   3.565   2.244   1.446  0.1870  0.1453  0.0463
 2617TIP3    H129486   3.641   2.254   1.389 -0.1930 -2.2028 -0.9710
 2617TIP3    H229487   3.490   2.239   1.386 -0.7477  1.7757  0.9927
 2618TIP3   OH229488   2.935   6.296   1.631 -0.3467 -0.5183  0.4624
 2618TIP3    H129489   2.951   6.373   1.685  0.3072 -2.7651  3.8113
 2618TIP3    H229490   2.989   6.310   1.553  2.9360  0.7254  2.7249
 2619TIP3   OH229491   4.020   3.232   7.517  0.0440  0.1023  0.3292
 2619TIP3    H129492   4.092   3.250   7.458 -0.0492  3.4924  1.0476
 2619TIP3    H229493   3.941   3.240   7.463  0.0560  0.5602  0.3790
 2620TIP3   OH229494   1.293   6.773   1.450 -0.3115 -0.4874  0.5528
 2620TIP3    H129495   1.369   6.820   1.483 -1.4182  1.0725  1.0110
 2620TIP3    H229496   1.284   6.801   1.359  0.6111 -1.9763 -0.0273
 2621TIP3   OH229497   3.613   0.293   8.617  0.0690 -0.4457 -0.0954
 2621TIP3    H129498   3.596   0.226   8.682  0.8103 -0.4417  0.1080
 2621TIP3    H229499   3.617   0.375   8.667 -0.6335 -0.2698 -0.3157
 2622TIP3   OH229500   6.128   0.097   2.158  0.0673  0.4361 -0.3498
 2622TIP3    H129501   6.127   0.002   2.167 -0.4660  0.4477 -0.2508
 2622TIP3    H229502   6.041   0.125   2.187 -0.6429  0.7550 -2.6150
 2623TIP3   OH229503   2.838   0.369   6.946 -0.1669 -0.4782 -0.2780
 2623TIP3    H129504   2.880   0.307   6.887  0.1996  0.2893 -0.8392
 2623TIP3    H229505   2.907   0.392   7.009 -0.4164 -0.9244  0.1701
 2624TIP3   OH229506   4.201   5.116   7.856 -1.0489 -0.4026  0.4939
 2624TIP3    H129507   4.197   5.053   7.927 -0.2600 -0.4629  0.4907
 2624TIP3    H229508   4.240   5.068   7.783 -0.6827  0.0092  0.4122
 2625TIP3   OH229509   0.557   0.123   8.350 -0.6275  0.0478  0.3514
 2625TIP3    H129510   0.607   0.041   8.345 -0.9929 -0.1086 -1.9058
 2625TIP3    H229511   0.590   0.167   8.428  0.0896 -1.9243  1.2081
 2626TIP3   OH229512   4.468   5.199   8.941  0.3657 -0.1053  0.1928
 2626TIP3    H129513   4.525   5.273   8.961  0.5546 -0.3465  0.5639
 2626TIP3    H229514   4.527   5.128   8.917  0.1237  0.5427 -2.6828
 2627TIP3   OH229515   6.632   5.921   8.891  0.1152  0.5784  0.1748
 2627TIP3    H129516   6.598   5.847   8.940 -0.9836  1.3735  0.6450
 2627TIP3    H229517   6.604   5.905   8.801  1.3102 -0.3949 -0.0547
 2628TIP3   OH229518   3.310   3.602   7.540 -0.0200 -0.2528 -0.0608
 2628TIP3    H129519   3.390   3.648   7.513  1.2074 -2.2915 -0.1610
 2628TIP3    H229520   3.312   3.604   7.635  0.5121 -0.8394 -0.0534
 2629TIP3   OH229521   3.647   6.355   1.382  0.3927  0.0540  0.5396
 2629TIP3    H129522   3.583   6.372   1.452 -1.1094 -0.2242 -0.7134
 2629TIP3    H229523   3.695   6.437   1.373 -0.3129  0.5249  0.9933
 2630TIP3   OH229524   2.853   4.542   8.312 -0.4875  0.4998 -0.5852
 2630TIP3    H129525   2.810   4.607   8.366  0.0246  2.1769 -2.0866
 2630TIP3    H229526   2.786   4.514   8.250 -0.3705  0.5582 -0.7399
 2631TIP3   OH229527   6.279   2.466   7.385 -0.9541  0.6383 -0.0677
 2631TIP3    H129528   6.237   2.537   7.338  0.1418  1.0404 -0.4660
 2631TIP3    H229529   6.233   2.387   7.356 -1.1717  1.0225 -0.7773
 2632TIP3   OH229530   3.176   3.465   1.466  0.3525 -0.1228  0.2614
 2632TIP3    H129531   3.087   3.453   1.500  0.2543  1.9188  0.8511
 2632TIP3    H229532   3.198   3.555   1.487  1.4263  0.3897 -2.5532
 2633TIP3   OH229533   1.740   5.159   0.611  0.5309  0.6245 -0.0523
 2633TIP3    H129534   1.805   5.090   0.620 -0.3292 -0.1828  0.0391
 2633TIP3    H229535   1.750   5.189   0.520  0.6334  0.1036 -0.2164
 2634TIP3   OH229536   4.256   3.058   2.216 -0.2703 -0.4152  0.8631
 2634TIP3    H129537   4.241   3.034   2.307  0.6368  0.5746  1.2920
 2634TIP3    H229538   4.169   3.062   2.177 -0.6971 -0.3993  1.7936
 2635TIP3   OH229539   6.505   3.956   1.684  0.3525  0.0391  0.2532
 2635TIP3    H129540   6.465   4.009   1.616 -0.5022 -1.1429 -0.2088
 2635TIP3    H229541   6.439   3.952   1.753  1.5194  1.8985  1.5619
 2636TIP3   OH229542   1.440   5.239   8.339  0.1423  0.1864  0.3174
 2636TIP3    H129543   1.511   5.183   8.308  0.7670  1.8602 -1.4357
 2636TIP3    H229544   1.479   5.326   8.349 -1.5195  1.0492 -0.1917
 2637TIP3   OH229545   3.209   0.649   7.707  0.4940  0.2620 -0.2087
 2637TIP3    H129546   3.253   0.617   7.787  3.2713 -1.0669 -2.1036
 2637TIP3    H229547   3.143   0.582   7.688 -0.0218  0.4600  0.8072
 2638TIP3   OH229548   3.830   4.600   8.476  0.2754 -0.3613 -0.1519
 2638TIP3    H129549   3.868   4.571   8.559  0.6750 -0.1590 -0.2603
 2638TIP3    H229550   3.736   4.587   8.487  0.3367 -0.4683  0.2805
 2639TIP3   OH229551   2.544   0.617   8.274 -0.0183  0.1453  0.0057
 2639TIP3    H129552   2.615   0.628   8.338  1.1643 -0.4406 -1.1686
 2639TIP3    H229553   2.471   0.582   8.325  1.4257 -1.9249  0.7795
 2640TIP3   OH229554   0.275   1.614   8.542 -0.3559  0.3750 -0.0117
 2640TIP3    H129555   0.184   1.605   8.569 -1.1851  3.7865 -1.0999
 2640TIP3    H229556   0.306   1.692   8.589  2.1911 -0.9089  0.6209
 2641TIP3   OH229557   1.368   3.011   6.802 -0.6846  0.5544  0.1306
 2641TIP3    H129558   1.377   3.082   6.738 -0.8391  0.3053 -0.1703
 2641TIP3    H229559   1.350   2.933   6.749 -0.0671  0.2020  0.4255
 2642TIP3   OH229560   3.398   1.610   0.187  0.2370  0.0086 -0.4245
 2642TIP3    H129561   3.416   1.605   0.093 -1.2952  0.2113 -0.7528
 2642TIP3    H229562   3.418   1.700   0.211  0.4916 -0.0058 -0.5856
 2643TIP3   OH229563   0.285   0.071   8.389 -0.1053  0.7889 -0.0132
 2643TIP3    H129564   0.288  -0.023   8.408  0.2749  0.5904 -0.9959
 2643TIP3    H229565   0.376   0.100   8.396 -0.4181  1.4388  1.8870
 2644TIP3   OH229566   0.759   0.948   8.936 -0.3765  0.2392 -0.0877
 2644TIP3    H129567   0.772   0.923   8.844  1.8840 -0.5006  0.3806
 2644TIP3    H229568   0.833   1.007   8.955 -1.2043  0.9368  1.0833
 2645TIP3   OH229569   2.492   5.404   7.322 -0.2952  0.2676 -0.0362
 2645TIP3    H129570   2.561   5.468   7.305  0.4731 -1.1246 -2.7208
 2645TIP3    H229571   2.418   5.434   7.269 -0.3264 -0.4184 -0.3947
 2646TIP3   OH229572   2.787   2.798   0.132  0.5163 -0.5828 -0.4407
 2646TIP3    H129573   2.835   2.735   0.078  0.1159 -1.1910 -0.0905
 2646TIP3    H229574   2.775   2.754   0.216 -0.1542 -0.2091 -0.3319
 2647TIP3   OH229575   1.115   5.303   1.006  0.0635 -0.0070 -0.1889
 2647TIP3    H129576   1.138   5.326   0.916  2.8282 -0.9821  0.1862
 2647TIP3    H229577   1.166   5.362   1.060 -1.5429  0.5390  0.7923
 2648TIP3   OH229578   3.710   5.029   0.010 -1.0904  0.5450 -0.7407
 2648TIP3    H129579   3.795   5.015  -0.030 -0.6998  0.8195 -0.0214
 2648TIP3    H229580   3.711   5.121   0.038 -0.5299 -0.1583  1.7700
 2649TIP3   OH229581   1.021   2.414   6.538  0.3786 -0.2545  0.1655
 2649TIP3    H129582   1.109   2.450   6.552  0.0899  0.5371 -0.0540
 2649TIP3    H229583   0.961   2.484   6.563 -0.2055 -0.8433  0.4662
 2650TIP3   OH229584   0.055   1.919   1.201  0.1359 -0.2971 -0.1986
 2650TIP3    H129585   0.066   1.936   1.107 -0.0842 -1.2257 -0.4082
 2650TIP3    H229586   0.126   1.858   1.223 -0.0657 -0.4105  0.1441
 2651TIP3   OH229587   3.730   5.559   0.263 -0.0886 -0.4377  0.0226
 2651TIP3    H129588   3.754   5.526   0.349  0.2368  0.0549  0.1245
 2651TIP3    H229589   3.736   5.483   0.205  0.0193 -0.6943  0.3712
 2652TIP3   OH229590   5.292   1.652   2.376 -0.0386 -0.7159 -0.1234
 2652TIP3    H129591   5.323   1.563   2.361 -0.2560 -1.0178  1.0919
 2652TIP3    H229592   5.309   1.697   2.294  2.1600 -1.2645 -0.0370
 2653TIP3   OH229593   0.507   1.074   8.125 -0.3641  0.3796 -0.7901
 2653TIP3    H129594   0.551   1.130   8.062 -0.9134  1.5255 -0.1812
 2653TIP3    H229595   0.535   1.107   8.210  0.3983 -1.1648 -0.4037
 2654TIP3   OH229596   6.550   4.297   8.686 -0.2885  0.5858 -0.4700
 2654TIP3    H129597   6.511   4.373   8.730 -1.5094  0.3112 -1.0446
 2654TIP3    H229598   6.552   4.229   8.754  0.5931  1.0463 -0.0192
 2655TIP3   OH229599   5.855   4.301   1.281 -0.2054 -0.5510  0.2030
 2655TIP3    H129600   5.777   4.257   1.315 -1.3423  0.1864 -1.3197
 2655TIP3    H229601   5.897   4.237   1.224 -0.2082 -0.6508  0.3140
 2656TIP3   OH229602   0.951   1.204   1.685  0.0157  0.0162 -0.1580
 2656TIP3    H129603   0.985   1.283   1.642  4.8135 -0.9270  1.2684
 2656TIP3    H229604   0.956   1.223   1.778 -1.1290 -1.1825  0.1781
 2657TIP3   OH229605   6.689   2.912   0.449  0.8198 -0.2562  0.5637
 2657TIP3    H129606   6.671   2.859   0.527  0.7658 -0.2673  0.5438
 2657TIP3    H229607   6.649   2.997   0.468  2.0702  0.2242  1.1662
 2658TIP3   OH229608   4.765   5.245   1.322  0.0749 -0.2587 -0.7550
 2658TIP3    H129609   4.824   5.272   1.393  0.2886 -0.8304 -0.7127
 2658TIP3    H229610   4.755   5.151   1.333 -3.0663  0.1235  0.9439
 2659TIP3   OH229611   0.249   0.758   7.978  0.6333 -0.2006  0.6593
 2659TIP3    H129612   0.237   0.689   7.912  0.3390  0.0025  0.5034
 2659TIP3    H229613   0.177   0.819   7.964  0.6484 -0.0817  1.0790
 2660TIP3   OH229614   1.267   4.225   0.208  0.2617 -0.1527  0.2484
 2660TIP3    H129615   1.237   4.206   0.297 -1.7997  2.7672  0.3101
 2660TIP3    H229616   1.316   4.307   0.216  0.8040 -0.2943 -1.2254
 2661TIP3   OH229617   1.094   1.464   6.917  0.1357 -0.0935 -0.2719
 2661TIP3    H129618   1.184   1.435   6.904  0.3381 -0.5380  1.7097
 2661TIP3    H229619   1.040   1.386   6.901  0.0802  0.1630 -1.4189
 2662TIP3   OH229620   2.420   3.299   8.278 -0.0505  0.1856  1.1501
 2662TIP3    H129621   2.377   3.344   8.204  0.5253  2.1817  1.9607
 2662TIP3    H229622   2.436   3.369   8.342  2.0674 -0.9562  1.9606
 2663TIP3   OH229623   4.414   0.969   1.293  0.1173  0.1391  0.4077
 2663TIP3    H129624   4.386   0.946   1.382  1.2567  0.8558  0.9757
 2663TIP3    H229625   4.440   1.061   1.300 -0.5263  0.4335 -0.8616
 2664TIP3   OH229626   1.018   4.504   7.289  0.2280  0.4300  0.3824
 2664TIP3    H129627   0.936   4.533   7.329 -0.2268 -1.5588  0.9974
 2664TIP3    H229628   0.999   4.498   7.196  0.5549  2.6755  0.1092
 2665TIP3   OH229629   3.651   0.418   1.362 -0.8083  0.1440 -0.1856
 2665TIP3    H129630   3.624   0.414   1.270  1.1171  1.6253 -0.8666
 2665TIP3    H229631   3.661   0.511   1.381 -0.6253 -0.1609  1.3640
 2666TIP3   OH229632   1.171   4.989   0.235 -0.1620  0.2636 -0.7804
 2666TIP3    H129633   1.134   5.041   0.163 -2.0651  1.6214  1.0614
 2666TIP3    H229634   1.259   5.025   0.247 -1.4819  3.3839  0.5654
 2667TIP3   OH229635   4.079   6.097   8.230 -0.5247  0.9070 -0.0044
 2667TIP3    H129636   4.047   6.050   8.308 -0.2062 -0.1085 -0.4652
 2667TIP3    H229637   4.002   6.141   8.196 -0.7846  0.9223  0.5826
 2668TIP3   OH229638   5.834   6.419   6.573 -0.0890  0.2073  0.1131
 2668TIP3    H129639   5.860   6.456   6.657 -1.5015  2.8327 -0.5001
 2668TIP3    H229640   5.870   6.480   6.508  1.3259 -1.9739 -1.2731
 2669TIP3   OH229641   0.002   1.770   7.096 -0.2712  0.2840 -0.0225
 2669TIP3    H129642  -0.076   1.781   7.041 -1.7004  0.7660  2.0017
 2669TIP3    H229643   0.043   1.856   7.096  0.4440 -0.0318 -1.2911
 2670TIP3   OH229644   3.538   6.266   8.101  0.2935  0.2302  0.1943
 2670TIP3    H129645   3.527   6.345   8.047 -0.7944 -0.4432 -0.6178
 2670TIP3    H229646   3.593   6.208   8.049  0.9014  0.3530  0.6913
 2671TIP3   OH229647   2.008   5.516   8.118 -0.3085  0.3757 -0.3858
 2671TIP3    H129648   2.086   5.529   8.064 -0.6033  2.5744 -0.4052
 2671TIP3    H229649   1.956   5.595   8.103 -1.2862  0.1844  1.6539
 2672TIP3   OH229650   1.044   1.815   1.162 -0.0852  0.5514  0.6401
 2672TIP3    H129651   1.012   1.893   1.207 -2.3516  1.0039 -1.4811
 2672TIP3    H229652   0.973   1.752   1.171  0.1599  0.0461 -0.6958
 2673TIP3   OH229653   3.689   0.622   8.359 -0.2011 -0.4983  0.2019
 2673TIP3    H129654   3.656   0.560   8.424 -1.7358  0.0255 -0.0433
 2673TIP3    H229655   3.691   0.706   8.406  0.5481 -0.4663  0.1262
 2674TIP3   OH229656   4.864   0.503   1.147 -0.5042 -0.0833  0.0952
 2674TIP3    H129657   4.927   0.535   1.212 -0.0866 -2.1102  0.7423
 2674TIP3    H229658   4.856   0.410   1.165 -1.2544 -0.4800 -2.0614
 2675TIP3   OH229659   6.399   0.471   1.232  0.5662 -0.7646  0.1950
 2675TIP3    H129660   6.440   0.544   1.279  0.5337 -0.6207  0.0029
 2675TIP3    H229661   6.308   0.471   1.263  0.0671  0.4435 -1.1516
 2676TIP3   OH229662   5.387   6.274   8.488  0.2195  0.8053 -0.1901
 2676TIP3    H129663   5.454   6.342   8.482  0.3026  0.6989 -0.4631
 2676TIP3    H229664   5.408   6.228   8.570 -0.0893  1.3717  0.2120
 2677TIP3   OH229665   5.629   6.084   7.971  0.2322 -0.3133  0.3562
 2677TIP3    H129666   5.721   6.070   7.947  0.2192 -0.7486  0.5471
 2677TIP3    H229667   5.616   6.179   7.963 -0.2138 -0.5340 -2.9483
 2678TIP3   OH229668   6.284   1.273   7.808 -0.3846  0.3060 -0.0259
 2678TIP3    H129669   6.198   1.267   7.766 -0.1303  2.3599 -0.9506
 2678TIP3    H229670   6.295   1.366   7.826  1.9656  0.2036 -0.6347
 2679TIP3   OH229671   4.356   4.713   0.666 -0.6124 -0.7690 -0.2954
 2679TIP3    H129672   4.389   4.627   0.641 -0.4406 -0.3617 -1.5572
 2679TIP3    H229673   4.275   4.696   0.714 -0.8570 -1.6068 -0.9941
 2680TIP3   OH229674   0.154   0.005   0.685 -0.5181 -0.1455  0.2628
 2680TIP3    H129675   0.067   0.038   0.663 -0.8189  0.8379  2.6306
 2680TIP3    H229676   0.138  -0.059   0.755  0.7727  3.0672  3.8602
 2681TIP3   OH229677   3.510   6.368   2.616  0.0914  0.5007  0.3681
 2681TIP3    H129678   3.591   6.379   2.566 -0.8355  1.0404 -1.0805
 2681TIP3    H229679   3.497   6.273   2.620  1.9184  0.2481  2.5936
 2682TIP3   OH229680   3.688   4.044   1.913  0.2102  0.1932  0.6229
 2682TIP3    H129681   3.704   4.089   1.996  1.7061 -0.2429  0.5869
 2682TIP3    H229682   3.708   3.952   1.931 -0.5494 -0.1006  0.0612
 2683TIP3   OH229683   0.756   2.767   8.398  0.1270 -0.2518  0.5153
 2683TIP3    H129684   0.780   2.761   8.306  1.4864  0.2302  0.8253
 2683TIP3    H229685   0.719   2.681   8.419 -0.0236 -0.4238 -0.4189
 2684TIP3   OH229686   0.499   0.456   0.965  0.2052 -0.3013  0.1012
 2684TIP3    H129687   0.449   0.384   1.005 -1.4571  0.6578 -0.1566
 2684TIP3    H229688   0.531   0.507   1.040 -1.3291  0.4489  0.2899
 2685TIP3   OH229689   0.509   6.611   7.296  0.1476 -0.0375  0.2594
 2685TIP3    H129690   0.434   6.628   7.238  0.8366  0.2945 -0.5451
 2685TIP3    H229691   0.511   6.515   7.304  0.4519 -0.1411 -0.8309
 2686TIP3   OH229692   5.601   0.377   2.468  0.3166 -0.3696 -0.1281
 2686TIP3    H129693   5.605   0.459   2.518  2.0657 -0.1627 -0.5726
 2686TIP3    H229694   5.520   0.335   2.499  0.6198  0.3987  1.8550
 2687TIP3   OH229695   6.157   5.380   0.425 -0.0359 -0.4414 -0.4223
 2687TIP3    H129696   6.106   5.411   0.500 -0.3039 -0.2252 -0.6932
 2687TIP3    H229697   6.176   5.459   0.375  0.8533 -0.4709 -0.1497
 2688TIP3   OH229698   6.448   6.495   8.303  0.4119 -0.1378  0.3101
 2688TIP3    H129699   6.539   6.496   8.333  0.1149  0.5908  1.2377
 2688TIP3    H229700   6.417   6.407   8.323  0.8678 -0.3549  0.0947
 2689TIP3   OH229701   1.645   6.137   8.453 -0.1246 -0.1435 -0.2568
 2689TIP3    H129702   1.668   6.202   8.519  1.2225 -0.9930  0.1550
 2689TIP3    H229703   1.580   6.180   8.397  0.1979  1.2720  0.4334
 2690TIP3   OH229704   0.617   3.423   1.338  0.1883 -0.2874  0.2818
 2690TIP3    H129705   0.558   3.456   1.406  1.3775  1.3836  0.5534
 2690TIP3    H229706   0.610   3.488   1.268  1.4217 -0.2641  0.1729
 2691TIP3   OH229707   3.372   3.807   7.084 -0.0310  0.0998 -0.1391
 2691TIP3    H129708   3.394   3.736   7.144  0.6174  1.7427  1.6736
 2691TIP3    H229709   3.447   3.813   7.024 -0.1324 -0.7677 -0.3666
 2692TIP3   OH229710   4.878   3.906   8.103  0.0796  0.1095  0.7143
 2692TIP3    H129711   4.944   3.848   8.142  2.1250 -0.6060 -3.2560
 2692TIP3    H229712   4.923   3.989   8.091 -0.6553  0.4748  0.4072
 2693TIP3   OH229713   3.950   2.949   6.591 -0.0049  0.2061  0.2624
 2693TIP3    H129714   3.925   2.859   6.614 -0.2253  0.5287  1.3109
 2693TIP3    H229715   4.040   2.941   6.560 -0.5907 -0.6292 -1.3806
 2694TIP3   OH229716   3.220   6.433   1.898 -0.0044  0.3692  0.2948
 2694TIP3    H129717   3.256   6.513   1.935 -0.1482  0.8367 -0.5442
 2694TIP3    H229718   3.277   6.364   1.931 -0.3329  0.7098  1.6522
 2695TIP3   OH229719   6.636   3.269   0.122  0.0477  0.1019 -0.2242
 2695TIP3    H129720   6.583   3.338   0.082 -0.3952 -0.9497 -1.5092
 2695TIP3    H229721   6.711   3.316   0.159 -0.7175  1.3705 -0.2216
 2696TIP3   OH229722   3.978   2.968   2.205  1.0552  0.3726  0.2490
 2696TIP3    H129723   3.910   3.034   2.194  1.6137  1.0272  0.6941
 2696TIP3    H229724   3.971   2.941   2.296 -0.7227 -1.9211 -0.4724
 2697TIP3   OH229725   0.733   1.636   0.547 -0.0211  0.3510  0.2920
 2697TIP3    H129726   0.658   1.687   0.519 -0.4083 -0.0369  0.6083
 2697TIP3    H229727   0.766   1.680   0.625 -0.0202  0.4239  0.2504
 2698TIP3   OH229728   0.479   0.254   2.061  0.2095 -0.4630  0.1404
 2698TIP3    H129729   0.519   0.321   2.006  1.4301 -1.7075 -0.5540
 2698TIP3    H229730   0.405   0.298   2.103  0.5480  1.1055 -0.8346
 2699TIP3   OH229731   0.554   0.326   0.683  0.1663 -0.1681  0.2826
 2699TIP3    H129732   0.626   0.312   0.745 -0.3774 -2.1160  0.5560
 2699TIP3    H229733   0.485   0.268   0.714 -1.0552  0.6809 -0.7391
 2700TIP3   OH229734   3.362   4.125   8.674 -0.3050  0.2234  0.4413
 2700TIP3    H129735   3.457   4.136   8.671 -0.1459 -1.1929 -1.5211
 2700TIP3    H229736   3.348   4.033   8.653 -2.1834  0.9130 -1.7051
 2701TIP3   OH229737   2.083   6.231   8.826  0.0386 -0.8002  0.1715
 2701TIP3    H129738   2.120   6.230   8.738  1.0902  0.1778  0.5763
 2701TIP3    H229739   2.149   6.190   8.881  1.9120  3.2271  1.3323
 2702TIP3   OH229740   2.810   2.079   7.156 -0.4319 -0.3491 -0.0723
 2702TIP3    H129741   2.800   1.989   7.123  0.2399 -0.0034 -1.2811
 2702TIP3    H229742   2.867   2.122   7.092 -0.5578  0.8829  0.6094
 2703TIP3   OH229743   5.201   3.955   0.008  0.0707  0.0455  0.0655
 2703TIP3    H129744   5.282   3.995  -0.025 -0.6201 -0.2786 -2.1835
 2703TIP3    H229745   5.168   4.017   0.072 -0.7213  3.0022 -2.9477
 2704TIP3   OH229746   2.725   1.469   7.383 -0.2163 -0.2182 -0.0939
 2704TIP3    H129747   2.667   1.410   7.432 -1.0010  0.7560  0.1889
 2704TIP3    H229748   2.744   1.422   7.302 -2.5957  0.0052 -0.8642
 2705TIP3   OH229749   2.202   4.242   7.579 -0.1232 -0.4408  0.0910
 2705TIP3    H129750   2.145   4.165   7.580  0.6761 -1.0448  1.2957
 2705TIP3    H229751   2.152   4.307   7.530 -0.3903 -2.0118 -1.8920
 2706TIP3   OH229752   1.956   5.559   7.721 -0.4638  0.2498 -0.2144
 2706TIP3    H129753   2.028   5.578   7.661 -0.8668  1.2229 -0.4226
 2706TIP3    H229754   1.975   5.610   7.799 -1.2497  1.0627 -0.5306
 2707TIP3   OH229755   3.239   5.176   1.500  0.2486 -0.3151 -0.1135
 2707TIP3    H129756   3.247   5.242   1.570 -0.4569  0.7465 -0.9917
 2707TIP3    H229757   3.320   5.186   1.449  0.6151 -0.8642  0.3514
 2708TIP3   OH229758   2.346   1.242   1.199  0.1387 -0.0521 -0.3358
 2708TIP3    H129759   2.334   1.206   1.112  0.8328  3.5012 -2.0706
 2708TIP3    H229760   2.282   1.312   1.206 -0.3473 -0.6310  2.3281
 2709TIP3   OH229761   6.027   2.459   8.719  0.6307  0.0645  0.3280
 2709TIP3    H129762   5.953   2.401   8.739  0.9502 -1.0132 -1.3449
 2709TIP3    H229763   6.066   2.479   8.804 -0.2831 -1.1308  1.0626
 2710TIP3   OH229764   0.561   1.155   7.282  0.1644 -0.4997  0.1899
 2710TIP3    H129765   0.483   1.110   7.249  0.1066 -1.7540  1.9124
 2710TIP3    H229766   0.530   1.242   7.307 -0.6468 -0.9143  0.6633
 2711TIP3   OH229767   2.727   0.011   0.552  0.1607 -0.4141 -0.6936
 2711TIP3    H129768   2.735   0.106   0.551  3.2728 -0.4267  2.3267
 2711TIP3    H229769   2.712  -0.012   0.643  1.9959 -2.8632 -0.8773
 2712TIP3   OH229770   1.971   6.345   0.059  0.0467 -0.0046 -0.0159
 2712TIP3    H129771   1.999   6.352  -0.032  0.5115  1.1516  0.2008
 2712TIP3    H229772   1.986   6.253   0.082  0.8733 -0.0758 -0.8072
 2713TIP3   OH229773   3.964   6.576   0.276  0.2322  0.2522  0.8180
 2713TIP3    H129774   4.026   6.543   0.212  0.2186  2.2286 -0.2832
 2713TIP3    H229775   3.982   6.670   0.282 -3.0197  1.0567 -0.0539
 2714TIP3   OH229776   1.187   3.657   6.935 -0.3592  0.0580  0.5174
 2714TIP3    H129777   1.216   3.669   6.844  0.7716  0.9850  0.9737
 2714TIP3    H229778   1.092   3.661   6.930 -0.3470 -0.5734 -0.7080
 2715TIP3   OH229779   6.695   0.108   2.641  0.0663  0.7665 -0.0434
 2715TIP3    H129780   6.674   0.036   2.700  0.0605  1.6160  1.0205
 2715TIP3    H229781   6.642   0.181   2.672  1.3047  1.7081 -0.0480
 2716TIP3   OH229782   6.362   0.126   7.041  0.6126  0.3392  0.4224
 2716TIP3    H129783   6.446   0.131   6.996  0.1646 -1.3102 -0.6931
 2716TIP3    H229784   6.385   0.124   7.134  1.8480 -0.6488  0.1217
 2717TIP3   OH229785   2.546   4.192   7.910 -0.5722  0.1619  0.3003
 2717TIP3    H129786   2.604   4.145   7.971 -0.4233  0.4210  0.3582
 2717TIP3    H229787   2.474   4.222   7.964 -0.0511  1.0772  0.5141
 2718TIP3   OH229788   4.115   0.061   8.226  0.1925  0.0028  0.3581
 2718TIP3    H129789   4.029   0.091   8.196 -0.1531 -0.0849  1.2193
 2718TIP3    H229790   4.170   0.061   8.148 -0.4409  0.6044 -0.0921
 2719TIP3   OH229791   3.994   4.024   2.191  1.0511 -0.1773 -0.5749
 2719TIP3    H129792   3.943   4.067   2.122  0.8422  0.1444 -0.2245
 2719TIP3    H229793   4.044   4.095   2.232 -1.3495  0.2944  1.8189
 2720TIP3   OH229794   1.818   2.539   6.734  0.3543  0.1872  0.3570
 2720TIP3    H129795   1.785   2.503   6.651 -0.8854 -1.1959  1.3911
 2720TIP3    H229796   1.910   2.513   6.736  0.8148  1.5177 -1.2220
 2721TIP3   OH229797   4.791   0.747   7.605 -0.1051 -0.2748 -0.1882
 2721TIP3    H129798   4.767   0.813   7.540 -0.7772 -0.2940  0.0355
 2721TIP3    H229799   4.779   0.790   7.689 -1.4903 -0.9597  0.0009
 2722TIP3   OH229800   0.675   5.331   8.700 -0.0944 -0.0617 -0.7699
 2722TIP3    H129801   0.604   5.314   8.762  0.6743 -1.5209 -0.2411
 2722TIP3    H229802   0.682   5.250   8.650  2.4975 -0.7439  0.5290
 2723TIP3   OH229803   5.005   2.652   7.796  0.2823 -0.2160 -0.0006
 2723TIP3    H129804   5.044   2.724   7.746 -0.5356 -1.1466 -2.0805
 2723TIP3    H229805   4.925   2.689   7.833  2.2415  1.3135  3.1918
 2724TIP3   OH229806   6.307   6.239   7.377  0.5559  0.2859  0.4084
 2724TIP3    H129807   6.383   6.269   7.427  1.1790  1.8365 -1.3783
 2724TIP3    H229808   6.297   6.303   7.307  1.0142 -2.7830 -2.7705
 2725TIP3   OH229809   2.649   4.647   2.590  0.2289  0.9173 -0.2487
 2725TIP3    H129810   2.645   4.635   2.685 -1.4366  0.5978 -0.3226
 2725TIP3    H229811   2.676   4.738   2.578 -0.4444  1.2403  0.5689
 2726TIP3   OH229812   1.168   1.128   7.868 -0.0281 -0.4296 -0.6359
 2726TIP3    H129813   1.233   1.105   7.802  1.5565 -0.5189  0.8993
 2726TIP3    H229814   1.217   1.137   7.950 -1.6986  1.1433  0.2801
 2727TIP3   OH229815   0.443   4.851   8.029  0.4040 -0.1945 -0.8143
 2727TIP3    H129816   0.448   4.770   8.080  0.0093  0.4421  0.2726
 2727TIP3    H229817   0.359   4.845   7.983  0.3482 -0.3731 -0.6904
 2728TIP3   OH229818   0.904   3.343   7.628 -0.0907  0.6195  0.1827
 2728TIP3    H129819   0.965   3.280   7.589 -0.3808  1.0768 -1.0841
 2728TIP3    H229820   0.960   3.415   7.657  0.0949  0.4639  0.2172
 2729TIP3   OH229821   6.613   5.379   8.577  0.1255 -0.5195 -0.4231
 2729TIP3    H129822   6.539   5.353   8.632  1.3389 -1.7235  0.7336
 2729TIP3    H229823   6.584   5.363   8.487 -1.0411 -0.8770  0.0093
 2730TIP3   OH229824   0.138   0.968   8.549  0.4122 -0.1913 -0.5725
 2730TIP3    H129825   0.181   0.950   8.465  1.6464  1.3395 -0.3160
 2730TIP3    H229826   0.170   1.055   8.574 -0.2006 -0.4658  1.3184
 2731TIP3   OH229827   2.598   2.869   1.253  0.0700 -0.1879 -0.6523
 2731TIP3    H129828   2.566   2.779   1.250  0.2566 -0.2468 -0.9112
 2731TIP3    H229829   2.652   2.878   1.174 -2.0912  0.9557 -2.0878
 2732TIP3   OH229830   6.443   2.177   1.061 -0.1821 -0.2319 -0.0299
 2732TIP3    H129831   6.378   2.241   1.031 -1.4899 -1.5176 -0.0598
 2732TIP3    H229832   6.506   2.229   1.111 -1.7810  0.9520  0.8537
 2733TIP3   OH229833   0.628   0.731   6.426 -0.2800  0.3021  0.7465
 2733TIP3    H129834   0.636   0.803   6.362 -0.1621 -0.1519  0.2450
 2733TIP3    H229835   0.534   0.729   6.447 -0.5235 -0.3251 -0.3319
 2734TIP3   OH229836   6.126   5.231   1.483  0.2305 -0.5656 -0.2661
 2734TIP3    H129837   6.074   5.159   1.447 -1.3127 -0.0235  0.7547
 2734TIP3    H229838   6.092   5.309   1.439 -0.4781 -0.1050  1.0255
 2735TIP3   OH229839   3.511   4.464   7.684 -0.4501  0.4193 -0.5664
 2735TIP3    H129840   3.467   4.400   7.628 -2.4927 -0.8332  2.2313
 2735TIP3    H229841   3.583   4.415   7.724  0.4325  1.0476 -1.3457
 2736TIP3   OH229842   5.245   2.476   0.727  0.2574  0.2399 -0.2749
 2736TIP3    H129843   5.190   2.515   0.658  0.7696 -0.8489 -1.3540
 2736TIP3    H229844   5.294   2.408   0.681  0.9334 -0.2309  1.1122
 2737TIP3   OH229845   4.885   5.616   8.191  0.1352  0.4511 -0.4122
 2737TIP3    H129846   4.920   5.544   8.244 -0.3403  2.0092  2.2087
 2737TIP3    H229847   4.960   5.674   8.179  0.1789  0.2268 -1.3327
 2738TIP3   OH229848   6.632   3.241   0.994  0.0852  0.5133 -0.1854
 2738TIP3    H129849   6.620   3.188   1.073 -2.6394  0.3731 -0.6097
 2738TIP3    H229850   6.614   3.181   0.922  3.5722  0.3538 -1.0973
 2739TIP3   OH229851   1.154   5.888   1.589  0.6603  0.3226 -0.7314
 2739TIP3    H129852   1.117   5.826   1.652  1.3354 -0.3617 -0.9969
 2739TIP3    H229853   1.081   5.910   1.531  0.3939 -0.1637 -0.5825
 2740TIP3   OH229854   5.375   1.710   2.123  0.2983  0.2559  0.8539
 2740TIP3    H129855   5.455   1.661   2.104  0.1025  0.4584 -0.5878
 2740TIP3    H229856   5.367   1.773   2.051 -1.0601  0.3620  1.0693
 2741TIP3   OH229857   6.696   2.832   0.207 -0.2398 -0.4159  0.3175
 2741TIP3    H129858   6.703   2.903   0.144  1.7545 -1.0205 -0.2163
 2741TIP3    H229859   6.678   2.875   0.290  2.9632  0.9931  0.4302
 2742TIP3   OH229860   1.275   5.907   6.702 -0.3885  0.1226 -0.1661
 2742TIP3    H129861   1.214   5.936   6.634  2.9342  3.3972 -2.1127
 2742TIP3    H229862   1.326   5.837   6.660 -0.9630 -0.7327  0.5122
 2743TIP3   OH229863   0.310   2.536   2.531  0.7077 -0.2609  0.2872
 2743TIP3    H129864   0.330   2.442   2.539  0.7808 -0.3131 -0.4686
 2743TIP3    H229865   0.393   2.580   2.547  0.7341 -0.3345  0.3547
 2744TIP3   OH229866   1.080   4.752   8.486  0.4030  0.0423  0.1383
 2744TIP3    H129867   1.060   4.787   8.573 -0.8769  0.3537 -0.2713
 2744TIP3    H229868   1.116   4.665   8.504  1.7259  0.7327  1.0543
 2745TIP3   OH229869   3.209   2.511   6.482 -0.2658 -0.8178  0.2643
 2745TIP3    H129870   3.150   2.543   6.550  1.1239 -1.3586  1.7846
 2745TIP3    H229871   3.296   2.543   6.508  0.6288 -2.8149 -0.0621
 2746TIP3   OH229872   2.579   1.383   1.176  0.2159 -0.7728 -0.2958
 2746TIP3    H129873   2.661   1.333   1.174  0.8859  0.1321  1.7634
 2746TIP3    H229874   2.521   1.330   1.231  0.9096  0.5754  1.8473
 2747TIP3   OH229875   2.848   5.078   1.064  0.3489  0.3228  0.2075
 2747TIP3    H129876   2.902   5.084   0.985 -1.7330 -0.5809 -1.3650
 2747TIP3    H229877   2.889   5.008   1.115 -0.5818 -2.1214 -2.1181
 2748TIP3   OH229878   3.974   2.844   8.115  0.1770  0.5117 -0.5426
 2748TIP3    H129879   4.049   2.903   8.112 -0.1310  0.8778 -1.5617
 2748TIP3    H229880   4.010   2.758   8.093  0.8023  0.0689  1.8942
 2749TIP3   OH229881   2.800   1.559   1.913  0.3723  0.1392  0.2685
 2749TIP3    H129882   2.773   1.476   1.952 -3.0239  0.9491 -0.0162
 2749TIP3    H229883   2.891   1.571   1.940 -0.0561 -2.0563  3.0800
 2750TIP3   OH229884   5.582   2.362   8.076 -0.3578 -0.2306  0.4014
 2750TIP3    H129885   5.551   2.273   8.092  0.7485 -0.9824 -1.3285
 2750TIP3    H229886   5.576   2.372   7.981 -0.2222  1.4522  0.5526
 2751TIP3   OH229887   3.721   0.391   0.151  0.1078 -0.0240 -0.0847
 2751TIP3    H129888   3.775   0.313   0.135 -1.5504 -1.2472 -0.0767
 2751TIP3    H229889   3.678   0.408   0.067 -2.6372 -1.6824  0.8420
 2752TIP3   OH229890   1.967   0.005   8.202  0.0695 -0.2193  0.9195
 2752TIP3    H129891   2.011  -0.030   8.125 -0.3774 -0.1517  0.6275
 2752TIP3    H229892   1.899  -0.059   8.222 -0.4962  0.2779  0.6220
 2753TIP3   OH229893   4.511   5.380   1.388  0.3561 -0.3237  0.0300
 2753TIP3    H129894   4.512   5.441   1.462 -0.6568 -0.0400 -0.1907
 2753TIP3    H229895   4.604   5.366   1.368  0.6052  0.7915  0.3665
 2754TIP3   OH229896   5.770   6.137   0.819  0.3338  0.1006 -0.0437
 2754TIP3    H129897   5.816   6.207   0.771  0.9126  1.1139  1.8985
 2754TIP3    H229898   5.723   6.183   0.889 -1.2807 -1.2404 -0.1746
 2755TIP3   OH229899   4.891   2.940   8.357  0.5160  0.1874 -0.6614
 2755TIP3    H129900   4.908   2.857   8.312 -0.6175 -0.4714  0.0779
 2755TIP3    H229901   4.913   2.922   8.449  0.0448  0.6333 -0.4560
 2756TIP3   OH229902   0.417   2.502   7.756  0.4758 -0.3574 -0.1855
 2756TIP3    H129903   0.342   2.472   7.705  0.4636 -0.1306 -0.3049
 2756TIP3    H229904   0.426   2.439   7.827 -0.1322 -0.1058  0.1172
 2757TIP3   OH229905   6.514   2.588   0.703  0.0780 -0.1886 -0.1798
 2757TIP3    H129906   6.484   2.524   0.767 -0.5744 -1.7522 -1.9510
 2757TIP3    H229907   6.449   2.584   0.633  0.8710  1.2998 -1.0706
 2758TIP3   OH229908   5.799   2.062   1.308 -0.6225 -0.0249  0.0059
 2758TIP3    H129909   5.764   2.094   1.225 -1.2116  0.9861  0.6253
 2758TIP3    H229910   5.771   1.970   1.312 -3.9192  0.8662  0.7722
 2759TIP3   OH229911   4.835   5.575   7.892  0.4554 -0.2520  0.1878
 2759TIP3    H129912   4.891   5.610   7.962 -0.1722 -1.0173  1.1142
 2759TIP3    H229913   4.754   5.625   7.899  0.7433  0.3370 -0.6490
 2760TIP3   OH229914   4.716   3.789   2.515 -0.1376  0.2309  0.6202
 2760TIP3    H129915   4.677   3.788   2.428 -0.0758 -0.2097  0.5964
 2760TIP3    H229916   4.667   3.857   2.562 -0.1033  0.5409  0.2155
 2761TIP3   OH229917   5.993   2.602   7.602  0.2419 -0.0288 -0.5622
 2761TIP3    H129918   5.908   2.563   7.584  0.3190  0.2467 -1.5864
 2761TIP3    H229919   5.983   2.694   7.577  0.4408  0.3257  0.6077
 2762TIP3   OH229920   6.354   4.391   8.375  0.3662 -0.5416 -0.1510
 2762TIP3    H129921   6.442   4.355   8.377  0.0354 -1.3974 -0.5042
 2762TIP3    H229922   6.297   4.314   8.367 -0.6019 -0.3059  3.1003
 2763TIP3   OH229923   5.521   6.688   0.066  0.4419  0.3164  0.3004
 2763TIP3    H129924   5.563   6.699   0.151 -0.0778  0.2740  0.5659
 2763TIP3    H229925   5.581   6.729   0.004 -0.0407  2.0175  0.9026
 2764TIP3   OH229926   0.795   1.655   7.130  0.1007  0.4869 -0.4805
 2764TIP3    H129927   0.718   1.711   7.138  0.9784  1.5411  1.4270
 2764TIP3    H229928   0.779   1.585   7.194  0.9040  0.9808  0.2816
 2765TIP3   OH229929   4.291   2.637   7.814  0.6509  0.1163 -0.2313
 2765TIP3    H129930   4.214   2.684   7.781  0.1447  0.0009  0.7257
 2765TIP3    H229931   4.259   2.548   7.831  1.0348  0.0252  0.0310
 2766TIP3   OH229932   5.497   0.789   0.336 -0.0956 -0.4485  0.4916
 2766TIP3    H129933   5.489   0.748   0.250 -1.3263 -0.5851  0.6455
 2766TIP3    H229934   5.407   0.793   0.368  0.3448 -0.3882  1.7690
 2767TIP3   OH229935   2.926   0.043   2.238 -0.0386  0.2732  0.0131
 2767TIP3    H129936   2.954  -0.022   2.303  2.9883  1.6978  0.3262
 2767TIP3    H229937   2.961   0.126   2.270 -1.1019  1.5414 -1.9153
 2768TIP3   OH229938   3.338   5.748   0.624  0.4129 -0.2660 -0.4993
 2768TIP3    H129939   3.358   5.663   0.585  1.3820 -0.2815  0.0241
 2768TIP3    H229940   3.329   5.807   0.549  0.4938 -0.6666 -0.8287
 2769TIP3   OH229941   0.072   2.451   8.459 -0.0285 -0.3844 -0.7361
 2769TIP3    H129942   0.004   2.441   8.526 -1.7747  2.7862 -1.8056
 2769TIP3    H229943   0.048   2.388   8.391 -0.2915 -1.1743  0.0772
 2770TIP3   OH229944   5.579   3.353   7.980  0.1618 -0.2805  0.2377
 2770TIP3    H129945   5.645   3.292   7.947 -0.1218  0.0122 -0.9194
 2770TIP3    H229946   5.500   3.301   7.990  0.1972 -0.3281  0.2697
 2771TIP3   OH229947   2.647   3.624   0.515 -0.3235 -0.1090 -0.2676
 2771TIP3    H129948   2.605   3.660   0.437 -1.9930 -0.9853  0.1818
 2771TIP3    H229949   2.672   3.535   0.490  1.8009  0.5540 -0.6840
 2772TIP3   OH229950   5.420   3.993   7.934  0.1637  0.0737  0.0870
 2772TIP3    H129951   5.451   3.907   7.964 -1.6281 -1.0693 -1.1763
 2772TIP3    H229952   5.447   3.997   7.842 -0.2071  0.6498  0.0002
 2773TIP3   OH229953   6.367   5.150   7.907  0.1514  0.4329  0.1616
 2773TIP3    H129954   6.450   5.140   7.953  1.8719  1.4732 -2.5075
 2773TIP3    H229955   6.377   5.230   7.855 -1.7670 -0.4448 -1.7216
 2774TIP3   OH229956   6.711   6.310   2.964 -0.4032  0.4937 -0.3068
 2774TIP3    H129957   6.652   6.371   3.007 -0.1599  1.2049 -0.9495
 2774TIP3    H229958   6.726   6.349   2.877  0.9865  0.3216 -0.1597
 2775TIP3   OH229959   3.349   0.964   8.302 -0.3120  0.5649 -0.0931
 2775TIP3    H129960   3.367   1.022   8.229  0.4234 -1.0472 -1.2597
 2775TIP3    H229961   3.430   0.965   8.354  0.3139 -0.5659 -0.9832
 2776TIP3   OH229962   4.447   1.871   0.127 -0.0230 -0.2904  0.1458
 2776TIP3    H129963   4.430   1.847   0.218  0.9380 -0.1598  0.3773
 2776TIP3    H229964   4.372   1.838   0.078 -1.5183  1.3651  1.2310
 2777TIP3   OH229965   2.834   6.722   1.054 -0.0606  0.4711  0.3489
 2777TIP3    H129966   2.903   6.657   1.074  0.4399  0.7287 -0.5041
 2777TIP3    H229967   2.810   6.757   1.140  2.3158  1.8319  0.5545
 2778TIP3   OH229968   0.859   2.404   8.460 -0.5675 -0.1373 -0.0978
 2778TIP3    H129969   0.787   2.345   8.439 -0.5009  0.0885 -1.0355
 2778TIP3    H229970   0.915   2.401   8.383 -1.2895  2.2022 -0.7957
 2779TIP3   OH229971   5.907   5.114   1.001  0.1236 -0.0418  0.2286
 2779TIP3    H129972   5.852   5.065   1.063  0.7346 -1.7147 -0.4759
 2779TIP3    H229973   5.851   5.126   0.925  0.5402 -1.3753 -0.3260
 2780TIP3   OH229974   3.891   6.589   1.661 -0.2907  0.4477 -0.5091
 2780TIP3    H129975   3.814   6.619   1.709 -0.2779 -0.7446  0.2930
 2780TIP3    H229976   3.856   6.547   1.582 -0.6785 -2.2280  0.9768
 2781TIP3   OH229977   4.184   5.862   0.914  0.0822  0.6626  0.5280
 2781TIP3    H129978   4.089   5.870   0.928  0.3463  2.7885  1.4107
 2781TIP3    H229979   4.199   5.899   0.827  0.2440  1.4926  0.9057
 2782TIP3   OH229980   1.882   6.660   7.026 -0.4607 -0.6360 -0.9256
 2782TIP3    H129981   1.972   6.664   7.058 -1.2456  0.6356  1.3086
 2782TIP3    H229982   1.859   6.751   7.008 -2.2001 -0.5216  1.4297
 2783TIP3   OH229983   2.431   2.110   1.043 -0.6421 -0.2452 -0.6204
 2783TIP3    H129984   2.441   2.117   1.138 -0.8483 -0.7626 -0.5575
 2783TIP3    H229985   2.382   2.189   1.019 -0.6988 -0.1721 -0.2788
 2784TIP3   OH229986   4.839   1.948   8.294 -0.0910 -0.4035 -0.0149
 2784TIP3    H129987   4.886   1.952   8.377  2.7117 -1.0249 -1.4294
 2784TIP3    H229988   4.770   1.883   8.308 -0.6535  0.5665  2.1899
 2785TIP3   OH229989   1.197   4.641   8.974 -0.4558 -0.2499  0.2579
 2785TIP3    H129990   1.232   4.675   8.891 -0.0485 -2.2024 -0.4281
 2785TIP3    H229991   1.261   4.575   9.001 -0.1785  0.8930  2.5812
 2786TIP3   OH229992   2.749   0.443   0.393 -0.6784  0.2349  0.5221
 2786TIP3    H129993   2.709   0.407   0.314  1.1665 -2.0010  0.4881
 2786TIP3    H229994   2.702   0.524   0.409 -1.3702  0.6080 -2.6700
 2787TIP3   OH229995   4.589   4.091   0.231  0.2822  0.2154  0.0983
 2787TIP3    H129996   4.539   4.161   0.188 -2.1832 -1.4956 -0.0069
 2787TIP3    H229997   4.562   4.011   0.187  0.8631 -1.1537  2.0835
 2788TIP3   OH229998   2.928   0.750   7.641  0.2593 -0.0357  0.3324
 2788TIP3    H129999   2.958   0.665   7.610 -0.2108 -1.1296  2.6191
 2788TIP3    H230000   2.997   0.780   7.701 -0.6069  0.0433  1.3358
 2789TIP3   OH230001   3.356   5.061   1.866  0.2242 -0.0371  0.6680
 2789TIP3    H130002   3.382   5.098   1.950 -0.4285  0.7705  0.5273
 2789TIP3    H230003   3.261   5.051   1.873  0.0532  0.8219 -0.2656
 2790TIP3   OH230004   5.193   4.716   8.218 -0.0754  0.2011 -0.0768
 2790TIP3    H130005   5.172   4.634   8.263 -2.6764  0.8011 -0.0179
 2790TIP3    H230006   5.109   4.746   8.184  0.9544  2.4462 -0.8037
 2791TIP3   OH230007   4.209   2.930   2.454 -0.0204 -0.1441  0.8014
 2791TIP3    H130008   4.118   2.959   2.455  0.0378  0.0210  1.5331
 2791TIP3    H230009   4.207   2.842   2.492  0.0844 -0.2630  0.5342
 2792TIP3   OH230010   4.496   2.700   7.351  0.2086 -0.6442 -0.0000
 2792TIP3    H130011   4.456   2.760   7.413 -1.1793 -0.8564 -0.6410
 2792TIP3    H230012   4.494   2.615   7.395 -0.3984 -0.7175 -0.1516
 2793TIP3   OH230013   6.000   5.055   1.806 -0.3020  0.0969 -0.1263
 2793TIP3    H130014   6.055   4.978   1.823 -0.7643 -0.8537 -2.4967
 2793TIP3    H230015   5.983   5.052   1.712 -1.1964  2.5683 -0.1200
 2794TIP3   OH230016   0.834   0.426   7.495  0.5644  0.4544 -0.1517
 2794TIP3    H130017   0.869   0.485   7.429  0.2544 -0.1400 -0.8561
 2794TIP3    H230018   0.904   0.362   7.510  1.5533  1.8726  1.7926
 2795TIP3   OH230019   1.450   4.297   0.564  0.3164 -0.3824 -0.6597
 2795TIP3    H130020   1.395   4.369   0.532 -0.6485  0.3414  2.2594
 2795TIP3    H230021   1.388   4.230   0.591  0.9506 -0.4756  0.6552
 2796TIP3   OH230022   4.176   3.039   7.030  0.3503  0.3198  0.2051
 2796TIP3    H130023   4.226   3.075   6.957 -2.0195  0.7565 -1.3193
 2796TIP3    H230024   4.220   2.956   7.051  0.7316 -0.1515 -2.1885
 2797TIP3   OH230025   1.490   3.995   0.178  0.1356 -0.3405  0.3332
 2797TIP3    H130026   1.449   3.909   0.166  0.4428 -0.1150 -3.5185
 2797TIP3    H230027   1.570   3.977   0.226  0.3066 -2.2806 -0.5789
 2798TIP3   OH230028   2.308   1.205   1.749 -0.1971  0.1436  0.1724
 2798TIP3    H130029   2.289   1.211   1.843 -2.1252 -1.0180 -0.1030
 2798TIP3    H230030   2.224   1.219   1.706  0.3078 -1.1508 -1.3239
 2799TIP3   OH230031   2.671   0.105   6.959 -0.3963  0.4198 -0.2993
 2799TIP3    H130032   2.648   0.035   6.897 -0.7205  1.0499 -0.9095
 2799TIP3    H230033   2.748   0.147   6.920 -1.1553  1.4205 -0.7918
 2800TIP3   OH230034   3.279   1.228   8.790  0.2998  0.2669 -0.1307
 2800TIP3    H130035   3.319   1.238   8.877  1.1422  0.3399 -0.5255
 2800TIP3    H230036   3.329   1.287   8.734 -0.3646  0.3583 -0.6349
 2801TIP3   OH230037   2.978   2.155   1.876 -0.7236  0.2498  0.0121
 2801TIP3    H130038   3.009   2.191   1.960 -1.9462  0.3450  0.4439
 2801TIP3    H230039   2.959   2.063   1.895 -1.2297  0.3308 -0.0985
 2802TIP3   OH230040   3.063   2.002   0.592 -0.1814 -0.1434 -0.0549
 2802TIP3    H130041   3.062   1.975   0.684  3.1470 -0.2643  0.0663
 2802TIP3    H230042   3.024   2.089   0.592 -0.5003 -0.2608  1.4058
 2803TIP3   OH230043   2.426   1.774   1.266 -0.0308  0.1057  0.0095
 2803TIP3    H130044   2.521   1.767   1.276  0.3087  1.0712 -2.1200
 2803TIP3    H230045   2.409   1.868   1.268 -0.7634  0.0055 -1.0110
 2804TIP3   OH230046   5.130   2.798   2.084  0.1289 -0.0652 -0.1898
 2804TIP3    H130047   5.119   2.711   2.045 -2.2748  1.0037 -2.1994
 2804TIP3    H230048   5.200   2.839   2.032  1.1344 -0.6897  0.6396
 2805TIP3   OH230049   3.077   3.089   7.572 -0.5276 -0.1980 -0.2754
 2805TIP3    H130050   3.098   3.036   7.496 -0.2752 -0.4615 -0.0220
 2805TIP3    H230051   3.120   3.046   7.646  1.7511  1.6466 -0.4047
 2806TIP3   OH230052   1.724   6.553   8.669  0.0007  0.3783 -0.4331
 2806TIP3    H130053   1.759   6.617   8.730 -1.3430  0.3239  0.4260
 2806TIP3    H230054   1.678   6.605   8.603  0.8268  0.3945 -1.0188
 2807TIP3   OH230055   5.982   6.430   8.562  0.1125  0.5653  1.2290
 2807TIP3    H130056   6.045   6.491   8.602 -0.7665  1.3296  1.4764
 2807TIP3    H230057   5.959   6.470   8.479 -2.0977  1.7282  2.3099
 2808TIP3   OH230058   5.907   5.071   7.995 -0.0936 -0.3500  0.1482
 2808TIP3    H130059   5.880   5.149   7.946 -0.2724 -0.2143  0.4635
 2808TIP3    H230060   5.888   4.999   7.935  0.2936 -0.1380 -0.2402
 2809TIP3   OH230061   5.594   3.160   0.804 -0.3460  0.3923  0.0051
 2809TIP3    H130062   5.642   3.208   0.871 -1.0539 -0.1641  0.9333
 2809TIP3    H230063   5.593   3.070   0.836  1.3056 -0.3934 -1.8785
 2810TIP3   OH230064   6.356   5.394   2.434  0.2454  0.5156 -0.1546
 2810TIP3    H130065   6.427   5.457   2.444  0.4867  0.1497  0.5202
 2810TIP3    H230066   6.386   5.335   2.365  0.3777  0.6648 -0.2234
 2811TIP3   OH230067   0.549   5.091   8.273 -0.1883  0.1957 -0.9082
 2811TIP3    H130068   0.609   5.092   8.199  1.2796 -0.5844  0.2306
 2811TIP3    H230069   0.515   5.001   8.275  3.6524 -1.4857  2.2451
 2812TIP3   OH230070   0.595   6.682   8.011  0.1343 -0.0385 -0.4011
 2812TIP3    H130071   0.663   6.638   7.959 -0.7632 -1.1365 -0.6952
 2812TIP3    H230072   0.512   6.652   7.973 -0.5343  1.3559 -0.1256
 2813TIP3   OH230073   4.501   3.845   7.588  0.7372  0.4204  0.1310
 2813TIP3    H130074   4.532   3.928   7.553 -1.7244  1.2563 -0.2934
 2813TIP3    H230075   4.531   3.780   7.524  2.9958  0.8582  0.6586
 2814TIP3   OH230076   1.085   1.656   7.127  0.2837  0.4172 -0.5774
 2814TIP3    H130077   0.991   1.662   7.143  0.4098  1.4330 -0.1792
 2814TIP3    H230078   1.092   1.610   7.044 -0.5142 -1.0850  0.1420
 2815TIP3   OH230079   5.406   2.585   0.088  0.2026 -0.1105 -0.3206
 2815TIP3    H130080   5.412   2.527   0.164  0.3974 -1.4144 -1.2897
 2815TIP3    H230081   5.488   2.635   0.089  1.1913 -1.6120 -0.7878
 2816TIP3   OH230082   4.833   6.042   0.998  0.0921 -0.2445  0.0751
 2816TIP3    H130083   4.834   5.972   0.932  0.7505 -0.5929  0.4421
 2816TIP3    H230084   4.912   6.026   1.050 -0.2514  0.2264  0.7425
 2817TIP3   OH230085   3.923   0.853   7.289 -0.1360 -0.0360 -0.1328
 2817TIP3    H130086   3.924   0.772   7.340 -0.1404  0.3021  0.4156
 2817TIP3    H230087   3.901   0.825   7.200 -2.9542 -0.3846  0.5663
 2818TIP3   OH230088   4.048   0.940   2.484  0.6137  0.5218 -0.2268
 2818TIP3    H130089   4.037   0.909   2.574  0.8764  0.7254 -0.1224
 2818TIP3    H230090   4.083   1.028   2.494 -3.1957  2.2451 -0.4226
 2819TIP3   OH230091   1.537   3.312   7.693 -0.2591 -0.7289  0.5332
 2819TIP3    H130092   1.565   3.352   7.775  0.2701 -0.9449  0.4632
 2819TIP3    H230093   1.535   3.218   7.712 -2.9381 -0.6097  1.1372
 2820TIP3   OH230094   1.086   4.467   8.521  0.1471  0.0486 -0.4192
 2820TIP3    H130095   1.051   4.406   8.455 -1.4729  1.3661 -0.8574
 2820TIP3    H230096   1.086   4.417   8.602 -1.8609 -0.3725 -0.6167
 2821TIP3   OH230097   5.134   6.511   8.720  0.1099 -0.0602 -0.1405
 2821TIP3    H130098   5.189   6.438   8.751  0.3203  0.7655  1.5384
 2821TIP3    H230099   5.148   6.512   8.625  3.0206  0.1129  0.1892
 2822TIP3   OH230100   3.246   2.342   7.224  0.6440 -0.3697 -0.1343
 2822TIP3    H130101   3.156   2.351   7.195  1.1092 -0.0793 -1.5798
 2822TIP3    H230102   3.259   2.413   7.287  0.2381  0.3774 -0.8908
 2823TIP3   OH230103   2.208   4.571   8.466 -0.1107  0.6592 -0.1814
 2823TIP3    H130104   2.147   4.519   8.414  0.0479 -0.3727  0.6463
 2823TIP3    H230105   2.259   4.507   8.516  1.5992  1.4829 -0.7757
 2824TIP3   OH230106   3.695   0.057   0.761 -0.0037 -0.1315 -0.6424
 2824TIP3    H130107   3.757  -0.010   0.731 -1.8866 -2.3221  0.0640
 2824TIP3    H230108   3.616   0.008   0.783 -1.1342  2.2285  0.9700
 2825TIP3   OH230109   5.681   4.844   7.094  0.1903  0.1182 -0.4678
 2825TIP3    H130110   5.772   4.865   7.114 -0.0655  1.1732 -0.3450
 2825TIP3    H230111   5.686   4.775   7.028  1.1226  1.3304 -1.7399
 2826TIP3   OH230112   3.875   1.835   8.876  0.3622  0.3201  0.1538
 2826TIP3    H130113   3.970   1.829   8.865  0.2316 -0.5729 -0.6550
 2826TIP3    H230114   3.857   1.791   8.959  0.7843  1.8612  1.1099
 2827TIP3   OH230115   3.467   6.193   0.885 -1.1167  1.0486 -0.7540
 2827TIP3    H130116   3.379   6.172   0.917 -0.2951 -1.3696  0.1245
 2827TIP3    H230117   3.478   6.136   0.809  0.5419 -0.6052  0.6241
 2828TIP3   OH230118   5.606   0.686   0.971 -0.5278  0.0156 -0.0318
 2828TIP3    H130119   5.532   0.733   0.932  0.2027  1.7562  0.5949
 2828TIP3    H230120   5.653   0.753   1.020  1.7582 -0.9279 -0.8333
 2829TIP3   OH230121   1.747   0.335   2.191 -0.4717  0.5428  0.1153
 2829TIP3    H130122   1.827   0.331   2.244 -0.2976  0.0450 -0.1762
 2829TIP3    H230123   1.767   0.397   2.122  0.4532 -1.1467 -1.2109
 2830TIP3   OH230124   1.617   1.419   6.098 -0.2122  0.6739 -0.5199
 2830TIP3    H130125   1.535   1.375   6.118 -0.6370  0.8926 -1.6677
 2830TIP3    H230126   1.685   1.363   6.135 -0.8991  0.8079  0.9740
 2831TIP3   OH230127   6.424   0.298   8.807 -0.1065  0.0278 -0.6310
 2831TIP3    H130128   6.437   0.355   8.883  0.2114  0.0316 -0.6851
 2831TIP3    H230129   6.378   0.352   8.743  1.3265  0.6457 -1.1818
 2832TIP3   OH230130   0.054   2.340   7.408  0.5194 -0.0792  0.7315
 2832TIP3    H130131   0.030   2.306   7.322 -1.3458 -3.8186  2.4816
 2832TIP3    H230132  -0.030   2.365   7.448  1.0435 -0.7043  2.2853
 2833TIP3   OH230133   1.489   4.457   1.504  0.0965 -0.3928 -0.0663
 2833TIP3    H130134   1.400   4.484   1.525 -0.6357 -1.7503 -1.2259
 2833TIP3    H230135   1.517   4.405   1.579 -0.3159 -0.4677  0.0347
 2834TIP3   OH230136   0.085   1.782   1.613  0.3589  0.3414  0.7555
 2834TIP3    H130137   0.083   1.699   1.566  0.2152  0.7186  0.0779
 2834TIP3    H230138   0.035   1.766   1.693 -1.4165  0.3149 -0.3076
 2835TIP3   OH230139   0.306   5.267   7.433  0.6300  0.1488  0.3695
 2835TIP3    H130140   0.324   5.361   7.443  1.3642 -0.0817  1.2895
 2835TIP3    H230141   0.300   5.254   7.338 -0.4646  1.2951  0.2449
 2836TIP3   OH230142   1.231   1.522   7.951  0.0734 -0.8399 -0.1828
 2836TIP3    H130143   1.244   1.439   7.996  1.2475 -0.5868 -0.0171
 2836TIP3    H230144   1.268   1.509   7.863 -1.6201 -1.1274 -0.8899
 2837TIP3   OH230145   5.533   4.976   2.093 -0.0818 -0.0512  0.3441
 2837TIP3    H130146   5.606   4.985   2.155  0.2409  0.0739 -0.0524
 2837TIP3    H230147   5.463   4.936   2.145  0.3990 -0.5504  0.6309
 2838TIP3   OH230148   0.362   2.908   7.339  0.0089  0.4711  0.5192
 2838TIP3    H130149   0.396   2.834   7.288 -1.1487  0.9120 -0.9565
 2838TIP3    H230150   0.431   2.974   7.332 -1.0968  1.4784 -2.7222
 2839TIP3   OH230151   6.734   1.448   1.059  0.0849  0.2817  0.6801
 2839TIP3    H130152   6.662   1.433   0.997 -2.2712  1.9244  2.7962
 2839TIP3    H230153   6.809   1.472   1.005 -1.2355 -0.4307 -1.5911
 2840TIP3   OH230154   1.868   3.597   1.496  0.0655 -0.7165 -0.8767
 2840TIP3    H130155   1.811   3.533   1.539 -0.2700 -0.1376 -0.4463
 2840TIP3    H230156   1.860   3.676   1.549  2.0372 -0.9047 -0.2224
 2841TIP3   OH230157   4.605   4.253   1.724 -0.0637  0.7800 -0.0779
 2841TIP3    H130158   4.603   4.234   1.631  1.5516  0.3421 -0.0547
 2841TIP3    H230159   4.685   4.211   1.756 -1.3992 -0.5092  1.8329
 2842TIP3   OH230160   1.345   4.552   8.531 -0.1724  0.0491 -0.6102
 2842TIP3    H130161   1.402   4.480   8.561 -1.5056 -0.5372  0.6738
 2842TIP3    H230162   1.260   4.510   8.518 -0.8476  1.2993 -0.3204
 2843TIP3   OH230163   6.758   5.387   0.429  0.2534 -0.1035  0.6319
 2843TIP3    H130164   6.793   5.340   0.504  0.6189  0.5554  0.8802
 2843TIP3    H230165   6.752   5.322   0.360  1.0425 -0.4436  0.8817
 2844TIP3   OH230166   1.972   3.049   0.268  0.0978  0.2067  0.7186
 2844TIP3    H130167   1.884   3.011   0.270 -0.5312  1.5013 -0.6086
 2844TIP3    H230168   2.019   2.996   0.204 -0.4695  0.9603 -0.3597
 2845TIP3   OH230169   0.084   1.943   8.932  0.3189  0.3837 -0.4676
 2845TIP3    H130170   0.157   1.934   8.870  0.9277 -1.4397  0.4440
 2845TIP3    H230171   0.106   1.885   9.004 -3.3617 -2.6259 -1.4303
 2846TIP3   OH230172   0.736   5.777   1.596 -0.0977 -0.2719  0.0939
 2846TIP3    H130173   0.808   5.741   1.649 -1.4423  0.1874  2.3572
 2846TIP3    H230174   0.698   5.700   1.554 -0.1046 -0.9311  1.2454
 2847TIP3   OH230175   3.091   0.370   1.823 -0.3900 -0.1414 -0.3072
 2847TIP3    H130176   3.136   0.451   1.847  0.2448 -0.3481 -0.7551
 2847TIP3    H230177   3.158   0.302   1.834 -0.6070 -0.4628 -0.9312
 2848TIP3   OH230178   2.277   5.500   7.194 -0.0822 -0.2111 -0.1763
 2848TIP3    H130179   2.240   5.483   7.108  0.3143 -0.1169 -0.3678
 2848TIP3    H230180   2.202   5.500   7.253 -0.4267  0.2800 -0.6024
 2849TIP3   OH230181   4.441   5.399   1.094  0.1265  0.0770  0.7664
 2849TIP3    H130182   4.453   5.310   1.060  0.1145 -0.1017  1.2239
 2849TIP3    H230183   4.492   5.401   1.175 -0.5633  0.2276  1.1992
 2850TIP3   OH230184   3.500   2.445   1.738  0.2661  0.2841  0.6631
 2850TIP3    H130185   3.572   2.384   1.726  0.4757  0.7443 -0.6516
 2850TIP3    H230186   3.537   2.516   1.790  0.8305  0.5949 -0.1382
 2851TIP3   OH230187   5.309   2.755   0.406 -0.1764 -0.0340 -0.0515
 2851TIP3    H130188   5.331   2.836   0.451 -1.0300 -0.2776  0.8424
 2851TIP3    H230189   5.244   2.712   0.462  0.1862 -1.3003 -0.5427
 2852TIP3   OH230190   5.100   2.820   6.539 -0.0799 -0.8816  0.2302
 2852TIP3    H130191   5.178   2.826   6.484 -0.5747  1.0467 -0.3240
 2852TIP3    H230192   5.047   2.750   6.499  0.5251 -0.9459 -0.4799
 2853TIP3   OH230193   2.887   5.985   8.663 -0.1487  0.2901  0.2886
 2853TIP3    H130194   2.853   6.048   8.600  1.2013  1.1199  0.3417
 2853TIP3    H230195   2.828   5.991   8.738  1.3392  3.4468  1.3827
 2854TIP3   OH230196   3.820   2.471   8.678  0.0038 -0.1721 -0.5737
 2854TIP3    H130197   3.904   2.470   8.632 -0.2053  0.4917 -0.9779
 2854TIP3    H230198   3.778   2.389   8.653  0.2058 -0.1537 -0.9804
 2855TIP3   OH230199   3.611   3.356   2.623 -0.2050 -0.0262 -0.0359
 2855TIP3    H130200   3.642   3.268   2.646  0.8997  0.1523 -0.7668
 2855TIP3    H230201   3.646   3.412   2.692 -0.4580 -0.0801  0.1381
 2856TIP3   OH230202   3.061   5.942   0.692 -0.7904 -0.3242 -0.1120
 2856TIP3    H130203   3.122   6.008   0.661 -0.5554 -0.3760  0.2313
 2856TIP3    H230204   2.975   5.972   0.663 -0.4186 -1.3710 -2.5882
 2857TIP3   OH230205   5.026   0.840   2.531 -0.3562 -0.4582  0.4084
 2857TIP3    H130206   5.094   0.781   2.565  0.9269  1.4326  1.2828
 2857TIP3    H230207   5.028   0.826   2.437  1.4164 -0.3240  0.3894
 2858TIP3   OH230208   2.061   1.703   0.432  0.6477 -0.0057  0.1810
 2858TIP3    H130209   1.985   1.662   0.473  0.1703  2.3516  1.8681
 2858TIP3    H230210   2.136   1.672   0.483  0.4760 -0.1117  0.3699
 2859TIP3   OH230211   1.129   0.690   7.729  0.5114  0.0164  0.7752
 2859TIP3    H130212   1.087   0.744   7.796  0.8487  0.6961  0.4451
 2859TIP3    H230213   1.128   0.744   7.650  0.5943 -0.5753  0.3643
 2860TIP3   OH230214   6.262   5.451   7.980  0.1022 -0.4446 -0.3806
 2860TIP3    H130215   6.231   5.525   8.033  0.1339  1.1268 -2.4141
 2860TIP3    H230216   6.352   5.475   7.956 -0.4640 -0.2174 -2.5123
 2861TIP3   OH230217   1.709   3.941   0.332  0.3064  0.6906  0.3977
 2861TIP3    H130218   1.721   3.864   0.387 -0.3663 -0.8171 -1.4637
 2861TIP3    H230219   1.794   3.986   0.336  1.1062 -0.7715  0.6402
 2862TIP3   OH230220   5.256   5.855   1.433 -0.3903  0.2545 -0.0959
 2862TIP3    H130221   5.252   5.947   1.407 -2.2416  0.0455 -0.7120
 2862TIP3    H230222   5.342   5.825   1.404 -0.4873  1.3266 -1.5956
 2863TIP3   OH230223   3.919   5.574   2.020  0.0537 -0.8690 -0.4425
 2863TIP3    H130224   3.978   5.517   2.070  1.7638  0.2756 -1.0511
 2863TIP3    H230225   3.965   5.658   2.016 -1.1671 -0.2221 -1.8391
 2864TIP3   OH230226   4.824   4.608   8.559 -0.1166  0.2689  0.5920
 2864TIP3    H130227   4.888   4.679   8.552  1.2772 -1.0368 -0.9571
 2864TIP3    H230228   4.739   4.649   8.541  0.8905  1.2495 -2.6326
 2865TIP3   OH230229   2.997   5.716   8.701  0.3431 -0.4815  0.4756
 2865TIP3    H130230   2.952   5.800   8.705 -0.0601 -0.6580 -0.1960
 2865TIP3    H230231   3.007   5.690   8.792 -1.7455 -0.8622  0.6620
 2866TIP3   OH230232   4.633   1.380   1.149  0.4916 -0.2011 -0.0224
 2866TIP3    H130233   4.619   1.461   1.197 -1.5285 -0.3937 -0.1944
 2866TIP3    H230234   4.630   1.312   1.216  1.7622 -0.1805  0.0687
 2867TIP3   OH230235   1.182   6.461   0.019 -0.2188  0.7072  0.0336
 2867TIP3    H130236   1.098   6.494  -0.011 -1.0781 -0.7394  0.7560
 2867TIP3    H230237   1.164   6.372   0.050  1.8259 -0.1803 -1.0899
 2868TIP3   OH230238   5.040   1.388   0.556 -0.0059 -0.3423  0.2200
 2868TIP3    H130239   5.075   1.477   0.550 -1.2460  0.4374  2.8270
 2868TIP3    H230240   4.961   1.390   0.503 -0.0593  0.1454  0.3112
 2869TIP3   OH230241   5.155   2.427   8.588  0.1571  0.0870  0.4549
 2869TIP3    H130242   5.171   2.396   8.678 -2.1187 -0.0292  0.8676
 2869TIP3    H230243   5.160   2.522   8.595 -0.7701  0.1144  0.8898
 2870TIP3   OH230244   0.034   3.441   0.568 -0.1555  0.0904 -0.1267
 2870TIP3    H130245   0.085   3.362   0.551  1.2734  1.0847 -0.6436
 2870TIP3    H230246  -0.027   3.447   0.494  0.2817 -0.0946 -0.5029
 2871TIP3   OH230247   2.509   6.316   8.861  0.1534 -0.1274  0.3212
 2871TIP3    H130248   2.534   6.315   8.769 -1.0113 -1.7406 -0.0164
 2871TIP3    H230249   2.591   6.329   8.908  0.5596  2.7679 -0.9318
 2872TIP3   OH230250   5.120   6.164   8.626 -0.7788  0.2275 -0.1251
 2872TIP3    H130251   5.133   6.192   8.536 -0.9401  0.4849 -0.0695
 2872TIP3    H230252   5.207   6.168   8.666 -0.7004  0.0718 -0.2795
 2873TIP3   OH230253   0.078   0.100   8.034 -0.3560 -0.3002 -0.4357
 2873TIP3    H130254   0.012   0.043   8.073 -0.5446  0.1780 -0.0425
 2873TIP3    H230255   0.030   0.152   7.970 -0.4174  0.2440  0.0502
 2874TIP3   OH230256   2.866   3.168   1.178 -0.0836 -0.1036 -0.6486
 2874TIP3    H130257   2.864   3.164   1.274 -1.1085  1.1309 -0.5780
 2874TIP3    H230258   2.884   3.079   1.150 -0.3280 -0.5978  0.6930
 2875TIP3   OH230259   2.435   6.184   2.408 -0.3533  0.1168 -0.0547
 2875TIP3    H130260   2.358   6.132   2.431  1.2466 -1.9219  1.0213
 2875TIP3    H230261   2.474   6.207   2.493  1.6855 -1.2804 -0.5434
 2876TIP3   OH230262   4.265   1.459   1.855  0.0673 -0.4696 -0.1692
 2876TIP3    H130263   4.242   1.390   1.793 -0.4241  0.0702 -0.5966
 2876TIP3    H230264   4.202   1.528   1.838 -0.0281 -0.2858  0.8929
 2877TIP3   OH230265   5.431   1.126   8.119  0.1172 -0.3997  0.1442
 2877TIP3    H130266   5.410   1.042   8.079  1.5724 -1.0456  0.6682
 2877TIP3    H230267   5.346   1.168   8.133 -0.7418 -2.2656  0.9094
 2878TIP3   OH230268   0.612   5.957   7.517  0.6306 -0.0763  0.0252
 2878TIP3    H130269   0.641   5.966   7.607  1.1399 -0.5199 -0.0918
 2878TIP3    H230270   0.531   6.007   7.513  0.6919  0.0827  0.6858
 2879TIP3   OH230271   4.280   2.094   1.562 -0.0516  0.1737 -0.5611
 2879TIP3    H130272   4.305   2.163   1.623  1.6243 -0.2927 -0.6587
 2879TIP3    H230273   4.303   2.128   1.476  0.0830 -0.1834 -0.6733
 2880TIP3   OH230274   0.436   4.540   0.939  0.2093  0.5164  0.2915
 2880TIP3    H130275   0.475   4.550   1.026  0.6630  0.9313  0.0464
 2880TIP3    H230276   0.419   4.629   0.910  0.6009  0.4096 -0.2858
 2881TIP3   OH230277   4.256   2.918   8.989  0.2510 -0.6324 -0.2651
 2881TIP3    H130278   4.219   2.933   8.902  1.0541 -1.3618 -0.7560
 2881TIP3    H230279   4.332   2.977   8.993  1.1343 -1.6909 -0.6975
 2882TIP3   OH230280   0.071   0.899   7.775  0.0419 -0.5634 -0.1699
 2882TIP3    H130281   0.022   0.953   7.836  1.4507  0.5300  0.0580
 2882TIP3    H230282   0.029   0.915   7.690 -0.7629 -0.6334  0.2051
 2883TIP3   OH230283   2.772   4.314   1.206  0.3248  0.1552  0.0275
 2883TIP3    H130284   2.698   4.275   1.160  0.4738  0.1130 -0.1805
 2883TIP3    H230285   2.733   4.366   1.277  0.1072 -0.0103  0.0282
 2884TIP3   OH230286   1.886   5.256   1.015  0.5171  0.4925  0.0910
 2884TIP3    H130287   1.805   5.213   0.986  0.2014  2.3514 -2.0831
 2884TIP3    H230288   1.956   5.204   0.977  0.2297  0.4664 -0.4107
 2885TIP3   OH230289   3.612   5.783   7.743  0.1576 -0.3252  0.2310
 2885TIP3    H130290   3.705   5.767   7.730  0.2149  0.7533 -0.8460
 2885TIP3    H230291   3.606   5.878   7.760 -0.7548 -0.3506  0.0888
 2886TIP3   OH230292   0.583   6.748   0.598  0.1322 -0.0176  0.3666
 2886TIP3    H130293   0.646   6.781   0.534  0.8031 -1.7211  0.0946
 2886TIP3    H230294   0.636   6.705   0.665 -0.5680  1.6059  2.0385
 2887TIP3   OH230295   6.245   5.728   8.080 -0.1473 -0.4417  0.2322
 2887TIP3    H130296   6.300   5.706   8.005 -0.5623 -0.4273 -0.0807
 2887TIP3    H230297   6.183   5.793   8.046  0.0943  0.0814  0.7602
 2888TIP3   OH230298   4.873   1.583   7.366 -0.4912 -0.4088  0.3624
 2888TIP3    H130299   4.868   1.584   7.461 -0.5550 -2.8498  0.4386
 2888TIP3    H230300   4.799   1.529   7.338  0.6817 -1.4267 -0.9370
 2889TIP3   OH230301   5.067   0.339   7.465 -0.2359 -0.8459  0.4591
 2889TIP3    H130302   5.031   0.423   7.436 -0.1549 -0.9241  0.1259
 2889TIP3    H230303   4.991   0.281   7.471 -0.3955 -0.5413  1.4387
 2890TIP3   OH230304   0.965   5.723   2.477  0.0005  0.3015 -0.3393
 2890TIP3    H130305   0.946   5.631   2.493  1.0095  0.2111  0.4059
 2890TIP3    H230306   0.916   5.770   2.544  1.0867  0.1662  0.5743
 2891TIP3   OH230307   0.531   4.948   8.883  0.2827  0.2572 -0.3729
 2891TIP3    H130308   0.549   4.999   8.962 -0.5915  1.1277 -0.7092
 2891TIP3    H230309   0.450   4.901   8.903  0.1297  0.3776 -0.7014
 2892TIP3   OH230310   3.074   4.826   0.507 -0.0708  0.1071  0.2863
 2892TIP3    H130311   3.107   4.913   0.483 -1.6718  1.0277  1.2239
 2892TIP3    H230312   3.023   4.798   0.431  0.2313  0.1069  0.0833
 2893TIP3   OH230313   5.880   3.958   1.615 -0.2956 -0.2832  0.5258
 2893TIP3    H130314   5.870   3.883   1.674  1.4193  1.1554  2.8637
 2893TIP3    H230315   5.974   3.977   1.617 -0.7335  2.2535  0.5507
 2894TIP3   OH230316   5.649   1.202   0.311  0.1957  0.2785 -0.2949
 2894TIP3    H130317   5.609   1.285   0.287  0.7440  1.1935  1.7454
 2894TIP3    H230318   5.671   1.160   0.227  0.7191  2.5981 -1.3811
 2895TIP3   OH230319   4.183   1.041   8.977  0.0050  0.2343  0.0395
 2895TIP3    H130320   4.175   1.057   8.883 -0.3121 -0.6786 -0.1028
 2895TIP3    H230321   4.215   0.951   8.983  0.2469  0.3680  0.8004
 2896TIP3   OH230322   2.301   4.383   0.319  0.3204  0.6990 -0.1839
 2896TIP3    H130323   2.348   4.460   0.286 -1.8160  2.2270  0.0548
 2896TIP3    H230324   2.263   4.413   0.402 -2.0292  0.0398 -0.9333
 2897TIP3   OH230325   4.073   6.338   0.749  0.5258 -0.4447 -0.3520
 2897TIP3    H130326   3.997   6.344   0.807  0.4705 -1.9091 -0.2259
 2897TIP3    H230327   4.043   6.374   0.665  0.1085  0.1949  0.0627
 2898TIP3   OH230328   4.946   5.178   8.040  0.0073 -1.0917  0.2037
 2898TIP3    H130329   4.929   5.102   7.985 -1.3634 -1.0651  0.5483
 2898TIP3    H230330   4.998   5.144   8.113 -0.3698 -1.6515  0.2158
 2899TIP3   OH230331   4.306   0.347   1.665 -0.5145  0.9427 -0.0331
 2899TIP3    H130332   4.233   0.408   1.653  0.1508  1.6603 -0.5708
 2899TIP3    H230333   4.372   0.399   1.711 -0.5191  0.1585  0.8878
 2900TIP3   OH230334   3.247   1.899   1.451 -0.6468 -0.5831  0.0630
 2900TIP3    H130335   3.241   1.842   1.375 -0.5346 -0.1114 -0.3021
 2900TIP3    H230336   3.157   1.930   1.465 -1.0563 -2.1813  1.3126
 2901TIP3   OH230337   1.065   6.472   1.583  0.0546  0.1099  1.1338
 2901TIP3    H130338   0.985   6.456   1.533  2.2497  0.5799 -2.9985
 2901TIP3    H230339   1.036   6.521   1.660 -3.5777  0.3828 -0.2227
 2902TIP3   OH230340   5.255   1.166   8.393 -0.4813  0.1965 -0.0022
 2902TIP3    H130341   5.244   1.252   8.432  0.0537  0.5649 -0.6429
 2902TIP3    H230342   5.176   1.153   8.340 -1.6360 -0.6835  1.8479
 2903TIP3   OH230343   4.445   2.446   0.428  0.1973  0.1225 -0.2999
 2903TIP3    H130344   4.539   2.444   0.409  0.2222 -1.9127 -0.2074
 2903TIP3    H230345   4.438   2.420   0.520 -0.4614  0.0765 -0.3569
 2904TIP3   OH230346   1.137   2.954   0.125  0.5113 -0.1606 -0.1711
 2904TIP3    H130347   1.171   3.040   0.098  2.3663 -0.2530  1.6385
 2904TIP3    H230348   1.126   2.961   0.219  1.9431 -2.2720  0.2220
 2905TIP3   OH230349   1.603   2.189   2.138  0.3585 -0.7827  0.4992
 2905TIP3    H130350   1.534   2.127   2.114  1.0076 -1.1609 -0.4631
 2905TIP3    H230351   1.636   2.157   2.222  0.6098 -1.7022  0.0705
 2906TIP3   OH230352   4.299   0.842   1.618  0.6361  0.5342  0.1149
 2906TIP3    H130353   4.234   0.814   1.682  0.5003 -1.1065 -0.7009
 2906TIP3    H230354   4.265   0.812   1.534  2.1810  0.1354 -0.3992
 2907TIP3   OH230355   0.896   5.886   2.279  0.6092  0.4070 -0.2353
 2907TIP3    H130356   0.801   5.885   2.284  0.5915  1.5822 -0.0108
 2907TIP3    H230357   0.925   5.838   2.356  0.2149 -1.8324 -1.4172
 2908TIP3   OH230358   3.286   1.019   0.782 -0.2508  0.0511 -0.8140
 2908TIP3    H130359   3.217   1.084   0.792  0.7264  0.8724  1.0431
 2908TIP3    H230360   3.243   0.935   0.800 -0.9485  0.4626 -0.5500
 2909TIP3   OH230361   3.711   4.080   1.638  0.2330  0.4560  0.1422
 2909TIP3    H130362   3.738   3.995   1.606 -0.7915 -0.5459  1.7689
 2909TIP3    H230363   3.723   4.075   1.733 -0.7107  1.7840  0.3634
 2910TIP3   OH230364   2.699   4.638   8.507 -0.4558  0.0923 -0.5572
 2910TIP3    H130365   2.622   4.680   8.470  0.0199  1.6727  0.1263
 2910TIP3    H230366   2.730   4.700   8.574  1.7693 -0.1578 -1.2607
 2911TIP3   OH230367   1.402   0.751   6.717  0.4707  0.4680  0.0907
 2911TIP3    H130368   1.448   0.834   6.719 -0.1436  0.8279 -0.2894
 2911TIP3    H230369   1.418   0.717   6.629  0.9941  0.0197  0.3531
 2912TIP3   OH230370   5.115   2.876   7.642 -0.2947  0.4890  0.4665
 2912TIP3    H130371   5.108   2.971   7.648  0.0733  0.5125  0.5487
 2912TIP3    H230372   5.196   2.861   7.592 -1.3635  0.2448 -1.2687
 2913TIP3   OH230373   1.155   0.807   8.824 -0.6094 -0.5293 -0.8877
 2913TIP3    H130374   1.166   0.805   8.729  1.3738  0.4931 -0.7278
 2913TIP3    H230375   1.162   0.716   8.852 -1.7637 -0.9044 -1.7450
 2914TIP3   OH230376   5.918   1.520   0.235 -0.2427 -0.1499  0.4144
 2914TIP3    H130377   5.991   1.582   0.237 -0.7934  0.6206 -1.2676
 2914TIP3    H230378   5.956   1.437   0.264  0.9322  0.5742  1.0154
 2915TIP3   OH230379   2.427   2.372   2.112  0.9676  0.3761 -0.2954
 2915TIP3    H130380   2.331   2.381   2.114  1.0723  1.9486  1.8074
 2915TIP3    H230381   2.454   2.423   2.036  0.1049 -0.6244 -1.2895
 2916TIP3   OH230382   2.866   5.469   7.455  0.3062  0.2678 -0.1015
 2916TIP3    H130383   2.826   5.511   7.379 -1.2440  0.1004  0.5740
 2916TIP3    H230384   2.804   5.485   7.526  0.1291 -2.2647  0.4118
 2917TIP3   OH230385   2.629   2.380   8.973 -0.2988 -0.0815 -0.0483
 2917TIP3    H130386   2.699   2.357   9.034  0.5732 -0.8147 -1.2755
 2917TIP3    H230387   2.583   2.453   9.015 -0.5852 -1.4069  2.0854
 2918TIP3   OH230388   5.037   1.459   1.579  0.2402 -0.2361  0.0438
 2918TIP3    H130389   5.036   1.510   1.498  2.8845 -0.9220 -0.5052
 2918TIP3    H230390   4.975   1.504   1.636  2.5352  3.8299 -0.2846
 2919TIP3   OH230391   0.156   1.393   1.273 -0.3584 -0.2965 -0.0702
 2919TIP3    H130392   0.229   1.337   1.300 -0.2198  0.1591  0.5163
 2919TIP3    H230393   0.113   1.344   1.203 -0.0322 -0.9798  0.1963
 2920TIP3   OH230394   5.604   0.758   1.471  0.0625  0.0471  0.5163
 2920TIP3    H130395   5.531   0.819   1.475 -0.9534 -1.1833  2.7456
 2920TIP3    H230396   5.660   0.783   1.545  0.1963 -0.9858  0.7867
 2921TIP3   OH230397   4.643   2.010   6.948 -0.2224 -1.0843  0.6014
 2921TIP3    H130398   4.669   2.071   7.018 -1.9386 -2.0366  2.1380
 2921TIP3    H230399   4.581   2.060   6.895 -0.7041 -1.0858  1.1523
 2922TIP3   OH230400   2.374   0.829   8.211  0.5595 -0.4040  0.3422
 2922TIP3    H130401   2.425   0.748   8.223  4.5456  1.7531 -0.3316
 2922TIP3    H230402   2.411   0.890   8.274 -1.6788  1.2393  0.1711
 2923TIP3   OH230403   2.644   2.044   0.900 -0.5926 -0.6034  0.1337
 2923TIP3    H130404   2.656   1.949   0.903 -1.5311 -0.7159  0.6983
 2923TIP3    H230405   2.586   2.063   0.973  0.0851  0.4932  0.4057
 2924TIP3   OH230406   0.821   5.526   1.082  0.1527  0.4536  0.7041
 2924TIP3    H130407   0.914   5.547   1.089 -0.0262  1.0391  1.4246
 2924TIP3    H230408   0.813   5.479   0.999  1.1061  0.3000  0.6896
 2925TIP3   OH230409   1.130   1.644   2.175 -0.7170 -0.4039 -0.6117
 2925TIP3    H130410   1.061   1.678   2.119 -1.4370  0.2008  0.6040
 2925TIP3    H230411   1.121   1.549   2.171 -0.5306 -0.3860 -1.7698
 2926TIP3   OH230412   5.497   5.338   7.377 -0.1096  0.3648 -0.6107
 2926TIP3    H130413   5.441   5.298   7.311 -0.3076  1.0227 -0.8432
 2926TIP3    H230414   5.469   5.429   7.380  0.9018  0.6831 -0.6794
 2927TIP3   OH230415   5.445   6.545   1.770  0.0410 -0.2862 -0.2892
 2927TIP3    H130416   5.402   6.473   1.722  1.6762 -2.4906  1.3526
 2927TIP3    H230417   5.451   6.514   1.860  0.6115  2.0573  0.5472
 2928TIP3   OH230418   4.369   0.195   2.295 -0.3491  0.2037  0.3040
 2928TIP3    H130419   4.426   0.264   2.328  1.4379 -1.5868  1.2265
 2928TIP3    H230420   4.312   0.173   2.369 -0.3669  0.1374  0.2711
 2929TIP3   OH230421   0.218   5.260   7.158  0.5539  0.2451  0.1610
 2929TIP3    H130422   0.138   5.232   7.113  0.1332 -0.1493  1.1344
 2929TIP3    H230423   0.279   5.278   7.087  0.0233 -0.7183 -0.5767
 2930TIP3   OH230424   3.374   5.196   2.121 -0.0083  0.1586  0.2101
 2930TIP3    H130425   3.422   5.248   2.056  3.2280 -2.6269  0.0493
 2930TIP3    H230426   3.404   5.230   2.205 -0.9425  1.0509  0.1903
 2931TIP3   OH230427   0.215   0.460   6.865  0.1901 -0.0934 -0.3742
 2931TIP3    H130428   0.194   0.541   6.819  0.0798  0.8468  1.2639
 2931TIP3    H230429   0.310   0.461   6.874  0.4136 -1.2258 -2.2121
 2932TIP3   OH230430   2.925   3.694   0.849 -0.2863 -0.3858 -0.1740
 2932TIP3    H130431   2.831   3.679   0.836 -0.1468 -1.1579 -0.2798
 2932TIP3    H230432   2.967   3.658   0.771  0.1141 -0.2054 -0.0440
 2933TIP3   OH230433   1.406   0.820   1.537  0.1781 -0.1663 -0.6755
 2933TIP3    H130434   1.474   0.849   1.477 -0.0754 -0.7403 -1.2500
 2933TIP3    H230435   1.451   0.811   1.621  0.4391  1.0518 -0.6791
 2934TIP3   OH230436   2.883   5.677   1.096  0.0020 -0.8035 -0.6559
 2934TIP3    H130437   2.797   5.680   1.138  0.0452  0.0128 -0.6045
 2934TIP3    H230438   2.946   5.677   1.168  0.1040  1.6341 -0.6608
 2935TIP3   OH230439   2.506   0.122   6.435 -0.3280  0.2380 -0.1564
 2935TIP3    H130440   2.501   0.047   6.376  0.2562  0.8758 -1.0485
 2935TIP3    H230441   2.573   0.178   6.396  0.5032  0.4136  1.4445
 2936TIP3   OH230442   6.030   1.531   7.654  0.4232  0.3034  0.2570
 2936TIP3    H130443   5.957   1.560   7.600  0.8188  3.0861  1.0275
 2936TIP3    H230444   6.017   1.437   7.666 -2.4360  0.5346 -0.4729
 2937TIP3   OH230445   6.707   1.729   7.561 -0.3797  0.1885  0.3985
 2937TIP3    H130446   6.660   1.792   7.506 -1.5553 -1.3008 -0.3904
 2937TIP3    H230447   6.791   1.716   7.517 -0.9449 -0.2935 -0.5626
 2938TIP3   OH230448   6.647   3.149   1.245  0.0648  0.2810 -0.2009
 2938TIP3    H130449   6.740   3.136   1.261  0.4970  1.6190 -1.4497
 2938TIP3    H230450   6.605   3.075   1.289  1.5931  0.3478  1.5110
 2939TIP3   OH230451   6.115   0.799   8.266 -0.5276  0.2071 -0.1391
 2939TIP3    H130452   6.115   0.770   8.175 -0.9701 -0.6076  0.1107
 2939TIP3    H230453   6.126   0.894   8.261 -0.7516  0.1953 -1.0497
 2940TIP3   OH230454   2.720   3.792   1.735 -0.3839  0.0947  0.0100
 2940TIP3    H130455   2.767   3.709   1.743  0.3127  0.3444 -1.2403
 2940TIP3    H230456   2.771   3.854   1.789 -1.0883 -0.3328  1.2097
 2941TIP3   OH230457   4.843   6.264   1.155  0.0258 -0.0752  0.8092
 2941TIP3    H130458   4.794   6.328   1.102  0.6774  0.4671  0.8493
 2941TIP3    H230459   4.826   6.180   1.113 -2.2575 -0.1638  1.7440
 2942TIP3   OH230460   5.552   3.346   1.076 -0.0425 -0.2611 -0.7344
 2942TIP3    H130461   5.583   3.435   1.091 -0.5089  0.5684 -4.0352
 2942TIP3    H230462   5.480   3.356   1.014 -0.3708 -2.9281 -0.8838
 2943TIP3   OH230463   2.420   0.053   8.033 -0.3731  0.2793  0.3449
 2943TIP3    H130464   2.349   0.114   8.015  1.3285  1.8523 -1.5754
 2943TIP3    H230465   2.492   0.109   8.063  0.8408 -0.9196 -0.2424
 2944TIP3   OH230466   4.036   5.197   7.238  0.2056  0.1631 -0.8852
 2944TIP3    H130467   4.099   5.134   7.274  0.4620  1.1323  0.4333
 2944TIP3    H230468   3.957   5.146   7.223  0.0239 -0.2703  1.2758
 2945TIP3   OH230469   5.372   1.913   7.382  0.3106 -0.3596 -0.0850
 2945TIP3    H130470   5.432   1.909   7.307  1.1459  1.2070  0.4567
 2945TIP3    H230471   5.428   1.933   7.456 -0.9211  2.0874  0.3072
 2946TIP3   OH230472   5.682   1.643   8.376 -0.5855 -0.0642  0.0018
 2946TIP3    H130473   5.698   1.624   8.468 -0.0721 -0.1259 -0.1024
 2946TIP3    H230474   5.714   1.732   8.363  1.8258 -0.9785 -0.7349
 2947TIP3   OH230475   5.421   4.580   0.889 -0.1136  0.3561  0.0868
 2947TIP3    H130476   5.443   4.550   0.978  0.0074  0.2748  0.0294
 2947TIP3    H230477   5.333   4.545   0.873 -0.8420  1.7680  0.8179
 2948TIP3   OH230478   6.607   2.287   8.425 -0.0327 -0.2723  0.3841
 2948TIP3    H130479   6.550   2.228   8.376  0.9740 -1.6097  0.7728
 2948TIP3    H230480   6.561   2.371   8.423 -0.3712 -0.4394 -2.2129
 2949TIP3   OH230481   4.715   5.024   7.023 -0.3862 -0.1258 -0.2032
 2949TIP3    H130482   4.665   5.106   7.026 -0.4669 -0.1955  0.3300
 2949TIP3    H230483   4.787   5.043   6.963 -0.0304  0.5425  0.4296
 2950TIP3   OH230484   5.923   0.034   1.857 -0.6981 -0.8718  0.2820
 2950TIP3    H130485   5.878   0.104   1.904 -0.1473 -2.0948  2.8171
 2950TIP3    H230486   5.853  -0.022   1.822 -1.1514 -0.7194  0.9302
 2951TIP3   OH230487   0.396   6.093   8.922 -0.1699 -0.2175  0.2981
 2951TIP3    H130488   0.464   6.114   8.986  0.1283 -2.6885  0.8933
 2951TIP3    H230489   0.441   6.042   8.855 -1.0680 -0.1498 -0.3714
 2952TIP3   OH230490   0.650   5.938   2.404 -0.6714  0.7224 -0.2634
 2952TIP3    H130491   0.557   5.923   2.419 -0.1067 -1.8749  1.2941
 2952TIP3    H230492   0.687   5.947   2.492  0.6846  0.7331 -0.8052
 2953TIP3   OH230493   1.472   4.639   7.512 -0.2275 -0.0735  0.0580
 2953TIP3    H130494   1.382   4.623   7.485 -0.0425  2.2812 -2.2991
 2953TIP3    H230495   1.526   4.593   7.448  0.1947  1.7941 -1.0178
 2954TIP3   OH230496   3.125   4.604   8.978 -0.0724 -0.1398 -0.2396
 2954TIP3    H130497   3.056   4.537   8.978 -0.0585 -0.1708  1.2184
 2954TIP3    H230498   3.202   4.558   9.010  0.4544  0.0974 -1.1280
 2955TIP3   OH230499   6.305   0.039   0.233 -0.3090 -0.0793 -0.0234
 2955TIP3    H130500   6.251   0.044   0.154 -0.0743  1.4510 -0.1125
 2955TIP3    H230501   6.346   0.125   0.240  0.7748 -0.6434  0.9991
 2956TIP3   OH230502   0.918   6.226   1.921 -0.0136 -0.1586  0.1249
 2956TIP3    H130503   0.870   6.286   1.977  2.6963  1.3841  0.9520
 2956TIP3    H230504   1.006   6.221   1.959  1.3500 -0.7137 -2.7412
 2957TIP3   OH230505   0.431   1.007   8.616 -0.0903  0.0130  0.3944
 2957TIP3    H130506   0.373   1.080   8.597 -2.3604 -1.7298  0.1552
 2957TIP3    H230507   0.449   1.015   8.710 -1.6122  0.0532  0.7134
 2958TIP3   OH230508   0.405   2.649   8.072 -0.1997  0.5774  0.1291
 2958TIP3    H130509   0.333   2.711   8.084  0.4270  1.2567  0.4289
 2958TIP3    H230510   0.481   2.703   8.053  0.6792  0.0104  1.8027
 2959TIP3   OH230511   0.663   3.810   7.252  0.3058  0.1513  0.1019
 2959TIP3    H130512   0.687   3.895   7.290  0.7585  0.0001  0.1580
 2959TIP3    H230513   0.709   3.808   7.168 -0.5906  0.4336 -0.4154
 2960TIP3   OH230514   4.507   3.650   0.766  0.3078  0.5639  0.5956
 2960TIP3    H130515   4.570   3.678   0.700 -0.8945  0.5969 -0.5933
 2960TIP3    H230516   4.539   3.565   0.795 -0.4225 -0.6994 -1.9389
 2961TIP3   OH230517   1.051   4.396   0.942  0.1902 -0.2403  0.3502
 2961TIP3    H130518   1.038   4.356   0.856  0.3232 -1.8927  1.0552
 2961TIP3    H230519   1.061   4.489   0.924  0.7634 -0.6136 -1.4695
 2962TIP3   OH230520   6.428   5.350   1.303  0.7476  0.3441  0.0628
 2962TIP3    H130521   6.406   5.402   1.380  1.6286 -1.7455  1.8418
 2962TIP3    H230522   6.467   5.270   1.339  1.0151 -0.8014 -2.5653
 2963TIP3   OH230523   5.485   5.881   7.330 -0.2733  0.1253  0.0737
 2963TIP3    H130524   5.444   5.888   7.416  0.7829 -0.8867  0.6818
 2963TIP3    H230525   5.516   5.970   7.311  0.3372  0.1667  1.1794
 2964TIP3   OH230526   5.547   6.506   8.472 -0.1995  0.1136 -0.7953
 2964TIP3    H130527   5.558   6.587   8.423 -1.6851  1.3815  0.8610
 2964TIP3    H230528   5.633   6.491   8.512 -0.2345  1.6185 -0.0762
 2965TIP3   OH230529   4.680   1.397   0.514 -0.4926  0.0897 -0.2029
 2965TIP3    H130530   4.727   1.340   0.452 -1.2745 -0.3904 -0.3677
 2965TIP3    H230531   4.689   1.485   0.476 -0.6464 -0.1469 -0.8118
 2966TIP3   OH230532   1.469   4.518   8.910  0.0712  0.0659 -0.3017
 2966TIP3    H130533   1.469   4.607   8.943  3.2070 -0.6558  2.1547
 2966TIP3    H230534   1.528   4.520   8.834  2.5042 -0.2450  1.4399
 2967TIP3   OH230535   4.079   0.640   6.577  0.3605  0.2911  0.2165
 2967TIP3    H130536   4.103   0.680   6.494  0.2935  0.4037  0.2509
 2967TIP3    H230537   4.055   0.714   6.633  0.4334  0.2170  0.3447
 2968TIP3   OH230538   5.284   4.888   7.567  0.0635 -0.8630 -0.0172
 2968TIP3    H130539   5.268   4.968   7.616  0.7495 -1.4036  1.1093
 2968TIP3    H230540   5.372   4.899   7.530  0.8632 -1.7541  1.5214
 2969TIP3   OH230541   6.371   2.069   0.007 -0.2126 -0.3813 -0.2459
 2969TIP3    H130542   6.375   2.164   0.022 -0.1474 -0.5873  1.1818
 2969TIP3    H230543   6.455   2.049  -0.035  0.2214  0.0573  0.3830
 2970TIP3   OH230544   6.593   3.491   0.864 -0.3154  0.0949  1.0421
 2970TIP3    H130545   6.629   3.571   0.902  1.1828 -1.3428  2.8309
 2970TIP3    H230546   6.603   3.425   0.932 -0.8439 -1.8128 -0.6233
 2971TIP3   OH230547   3.332   2.755   7.937  0.2061 -0.0364  0.3312
 2971TIP3    H130548   3.314   2.700   7.860 -0.4347 -0.3261  0.6750
 2971TIP3    H230549   3.247   2.764   7.980 -0.0224  2.4797 -0.5030
 2972TIP3   OH230550   0.701   5.242   7.255  0.6710  0.3414 -0.0366
 2972TIP3    H130551   0.607   5.229   7.271  1.1044  0.1997  2.9614
 2972TIP3    H230552   0.711   5.337   7.251  0.5841  0.4092  1.1524
 2973TIP3   OH230553   1.974   3.401   8.695  0.3213  0.1929 -0.3070
 2973TIP3    H130554   2.050   3.363   8.651  0.9133  0.8232  0.1724
 2973TIP3    H230555   1.969   3.356   8.779  0.0677  0.0387 -0.4038
 2974TIP3   OH230556   1.565   3.542   6.634 -0.3224 -0.1518 -0.2083
 2974TIP3    H130557   1.584   3.493   6.714 -1.5270 -1.1920 -0.5195
 2974TIP3    H230558   1.529   3.477   6.574 -2.5944  1.1930 -0.4370
 2975TIP3   OH230559   2.249   1.775   8.058  0.0778 -0.3383  0.1572
 2975TIP3    H130560   2.237   1.869   8.069 -1.2550 -0.3305 -1.0574
 2975TIP3    H230561   2.284   1.745   8.142  0.1418  1.1612  0.6972
 2976TIP3   OH230562   4.376   2.105   2.546  0.1915 -0.2829  0.0412
 2976TIP3    H130563   4.338   2.183   2.505 -0.0229 -0.8336 -0.8262
 2976TIP3    H230564   4.310   2.037   2.535  0.2330 -0.5128  1.1038
 2977TIP3   OH230565   5.433   0.544   8.509  0.0638 -0.6804 -0.1897
 2977TIP3    H130566   5.359   0.601   8.531  0.4727 -0.6163  1.0705
 2977TIP3    H230567   5.485   0.595   8.447  0.6715  0.5647  1.2709
 2978TIP3   OH230568   5.811   5.693   0.240  0.8451 -0.5921  0.2016
 2978TIP3    H130569   5.903   5.714   0.255  0.9229 -1.5202  1.0821
 2978TIP3    H230570   5.763   5.749   0.302  1.1304 -3.8972  3.7407
 2979TIP3   OH230571   4.959   0.429   2.581  0.5235  0.8587  0.0277
 2979TIP3    H130572   5.019   0.433   2.506 -0.0327 -0.2911 -0.5083
 2979TIP3    H230573   4.874   0.455   2.544  0.5538  1.9083  0.6524
 2980TIP3   OH230574   5.518   5.043   7.511  0.4707 -0.0498 -0.4235
 2980TIP3    H130575   5.502   5.128   7.468  0.7508 -0.2100 -0.8478
 2980TIP3    H230576   5.589   5.004   7.461  1.8787  0.4173  1.1330
 2981TIP3   OH230577   6.179   2.300   8.545  0.2244 -0.1320 -0.2714
 2981TIP3    H130578   6.110   2.335   8.600 -0.8500  0.2398 -1.8036
 2981TIP3    H230579   6.260   2.328   8.587 -0.5773  1.5907  0.2100
 2982TIP3   OH230580   0.770   6.584   0.704 -0.0888 -0.0512 -0.4530
 2982TIP3    H130581   0.704   6.529   0.746  0.1514 -1.0730 -1.3717
 2982TIP3    H230582   0.850   6.571   0.756  0.6200 -2.4925 -1.9975
 2983TIP3   OH230583   1.572   1.896   8.146 -0.1433 -0.5970 -0.0057
 2983TIP3    H130584   1.567   1.851   8.061 -0.2292 -0.0670 -0.2845
 2983TIP3    H230585   1.506   1.853   8.200  0.4213 -1.4403  0.0319
 2984TIP3   OH230586   1.651   6.656   0.199 -0.3777 -0.2467  0.0302
 2984TIP3    H130587   1.581   6.664   0.264  0.4742 -1.0976  1.0900
 2984TIP3    H230588   1.653   6.741   0.155 -0.6830  0.5001  1.4214
 2985TIP3   OH230589   4.778   2.366   6.994  0.0274  0.1067  0.5360
 2985TIP3    H130590   4.804   2.279   6.966  0.3655  0.3808 -0.0118
 2985TIP3    H230591   4.727   2.401   6.920  0.3733  0.5852  0.5162
 2986TIP3   OH230592   1.188   3.440   1.166 -0.3112 -0.8008 -0.3869
 2986TIP3    H130593   1.224   3.401   1.246 -1.4759  0.3128  0.7441
 2986TIP3    H230594   1.106   3.481   1.195  0.9374  2.7833 -1.3599
 2987TIP3   OH230595   6.000   0.527   8.618 -0.2566  0.3277 -0.3809
 2987TIP3    H130596   6.042   0.441   8.625 -0.4867  0.3146  1.1976
 2987TIP3    H230597   5.958   0.526   8.532 -0.7601 -1.3679 -0.1462
 2988TIP3   OH230598   0.199   2.707   2.320 -0.2447 -0.1756  0.3523
 2988TIP3    H130599   0.256   2.697   2.396 -1.3093 -0.1744  1.1746
 2988TIP3    H230600   0.121   2.751   2.354 -1.2882 -1.3417 -0.4579
 2989TIP3   OH230601   2.815   5.352   8.699 -0.1373 -0.1369 -0.3243
 2989TIP3    H130602   2.819   5.284   8.767  0.6749 -0.8601 -1.0784
 2989TIP3    H230603   2.722   5.372   8.691 -0.6593 -2.6765 -1.5456
 2990TIP3   OH230604   6.748   5.414   1.726  0.0204  0.1744 -0.5184
 2990TIP3    H130605   6.665   5.368   1.735 -0.0691  0.6642  1.7967
 2990TIP3    H230606   6.790   5.405   1.812  1.4923  1.5499 -1.0383
 2991TIP3   OH230607   3.414   0.615   7.207  0.3314  0.1173 -0.4949
 2991TIP3    H130608   3.405   0.543   7.145  1.0989 -1.5481  1.2472
 2991TIP3    H230609   3.369   0.586   7.286  0.7997  1.4848  0.3207
 2992TIP3   OH230610   4.856   4.070   6.775 -0.0234  0.0603  0.0093
 2992TIP3    H130611   4.893   4.112   6.852 -2.4205  1.0338  0.6998
 2992TIP3    H230612   4.853   4.139   6.709  2.1059 -0.7896 -1.1040
 2993TIP3   OH230613   5.288   0.196   8.507 -0.1355  0.0511 -0.6274
 2993TIP3    H130614   5.222   0.265   8.513 -1.9136 -1.6024 -0.1206
 2993TIP3    H230615   5.327   0.191   8.594 -0.3253  0.1086 -0.5402
 2994TIP3   OH230616   4.331   0.776   0.824  0.3902 -0.2123 -0.0767
 2994TIP3    H130617   4.350   0.853   0.771 -1.4422 -0.9780 -2.0074
 2994TIP3    H230618   4.308   0.811   0.910 -0.1665  1.3896 -0.8379
 2995TIP3   OH230619   3.628   6.123   7.263  0.4412 -0.1106  0.6697
 2995TIP3    H130620   3.599   6.032   7.264  0.4322 -0.1070  1.5942
 2995TIP3    H230621   3.718   6.119   7.230  0.0345 -0.3186 -0.4396
 2996TIP3   OH230622   2.241   0.513   8.339 -0.0524 -0.1016 -0.0072
 2996TIP3    H130623   2.209   0.423   8.330 -0.1432 -0.0998  0.2678
 2996TIP3    H230624   2.311   0.507   8.405  0.8288 -0.1769 -0.9331
 2997TIP3   OH230625   3.818   0.913   8.732 -0.4593 -0.5230  0.8703
 2997TIP3    H130626   3.853   0.984   8.785  0.2623 -0.2685  0.0685
 2997TIP3    H230627   3.779   0.852   8.796 -2.0339  1.0647  1.5126
 2998TIP3   OH230628   3.577   1.047   0.180  0.4778  0.0389 -0.2527
 2998TIP3    H130629   3.556   1.003   0.262  3.7876  0.4179  0.9790
 2998TIP3    H230630   3.511   1.016   0.118 -2.1335 -0.3218  2.4587
 2999TIP3   OH230631   5.821   5.008   8.281 -0.4611 -0.5385 -0.4956
 2999TIP3    H130632   5.776   5.086   8.248  1.3927  0.1404 -1.5199
 2999TIP3    H230633   5.902   5.041   8.321  0.4942 -1.9443 -1.1980
 3000TIP3   OH230634   1.420   1.049   2.237  0.5282 -0.4448  0.4876
 3000TIP3    H130635   1.388   1.124   2.186  1.2739 -0.4151  0.0394
 3000TIP3    H230636   1.434   1.084   2.325  1.6993  0.1967  0.0791
 3001TIP3   OH230637   6.321   5.066   1.890 -0.3304 -0.6184 -0.1038
 3001TIP3    H130638   6.262   5.012   1.942 -1.2346 -1.2950 -1.7522
 3001TIP3    H230639   6.388   5.095   1.952 -1.3885 -1.3132  1.4282
 3002TIP3   OH230640   0.690   1.156   8.599 -0.7590  0.6721  0.3350
 3002TIP3    H130641   0.623   1.088   8.595 -1.0415  0.9938 -1.4399
 3002TIP3    H230642   0.773   1.109   8.593 -0.9113  0.4090  0.2710
 3003TIP3   OH230643   1.548   3.720   1.350  0.6563 -0.0933 -0.5608
 3003TIP3    H130644   1.624   3.774   1.373 -0.5573  1.8724 -0.9522
 3003TIP3    H230645   1.489   3.779   1.304 -0.6364 -1.8552 -1.3037
 3004TIP3   OH230646   1.798   2.144   8.881 -0.1400  0.0105  0.0976
 3004TIP3    H130647   1.846   2.076   8.928  0.8469  0.0072 -0.8740
 3004TIP3    H230648   1.770   2.205   8.949  1.3124  0.0459  0.6955
 3005TIP3   OH230649   3.249   2.365   1.117 -0.3179  0.3472 -0.1370
 3005TIP3    H130650   3.265   2.423   1.191 -1.5536  0.4494  0.0766
 3005TIP3    H230651   3.333   2.359   1.072 -0.3770  3.2335 -0.8372
 3006TIP3   OH230652   3.601   3.549   8.937 -0.1742 -0.2440  0.6311
 3006TIP3    H130653   3.587   3.552   9.031  0.5242 -0.3528  0.7468
 3006TIP3    H230654   3.695   3.532   8.927 -0.5699 -2.2112 -0.0725
 3007TIP3   OH230655   4.926   5.653   6.977 -0.7025 -0.2385  0.0474
 3007TIP3    H130656   4.863   5.663   7.049 -0.9760 -1.8189  0.0531
 3007TIP3    H230657   4.984   5.729   6.985  1.5732 -2.0851  4.2329
 3008TIP3   OH230658   0.727   4.150   6.784  0.3036 -0.0943  0.3292
 3008TIP3    H130659   0.805   4.200   6.809  0.1055  0.7358 -0.6380
 3008TIP3    H230660   0.761   4.066   6.753  0.7702  0.0673  0.3990
 3009TIP3   OH230661   0.189   4.240   0.604  0.2595  0.1693 -0.3196
 3009TIP3    H130662   0.130   4.221   0.677 -0.9313  0.1344 -1.2557
 3009TIP3    H230663   0.261   4.289   0.643  0.1605 -0.7189  1.0381
 3010TIP3   OH230664   1.261   3.073   6.126 -0.4493 -0.1036  0.3533
 3010TIP3    H130665   1.300   3.117   6.201 -1.8919 -1.2690  1.8524
 3010TIP3    H230666   1.324   3.005   6.101  0.0567  0.3248  0.4495
 3011TIP3   OH230667   3.289   0.120   1.259 -0.0360  0.2031 -0.5301
 3011TIP3    H130668   3.264   0.034   1.225 -1.1091 -0.2146  1.1721
 3011TIP3    H230669   3.233   0.133   1.335  1.6107  1.4628  0.5428
 3012TIP3   OH230670   6.747   0.493   2.292 -0.0272  0.1483  0.1235
 3012TIP3    H130671   6.726   0.563   2.230  0.8699 -0.7316 -1.2431
 3012TIP3    H230672   6.838   0.508   2.315 -0.2458  0.2418  0.9459
 3013TIP3   OH230673   1.956   0.647   8.279 -0.5815  0.0308  0.6744
 3013TIP3    H130674   1.912   0.699   8.212  1.1406 -0.0082 -0.5712
 3013TIP3    H230675   1.935   0.556   8.257 -0.6047  0.0492  0.6195
 3014TIP3   OH230676   0.940   5.955   1.208  0.4804 -0.1203  0.3018
 3014TIP3    H130677   0.861   6.009   1.199  0.5306  0.1688  1.4110
 3014TIP3    H230678   0.963   5.963   1.301  1.0599 -1.2597  0.2655
 3015TIP3   OH230679   1.499   1.323   1.102 -0.1893 -0.4965 -0.2447
 3015TIP3    H130680   1.408   1.291   1.099 -0.0784 -0.7323 -2.4568
 3015TIP3    H230681   1.534   1.303   1.016  1.9012 -0.1190  0.4766
 3016TIP3   OH230682   2.700   4.194   8.165  0.2679  0.0119  0.0946
 3016TIP3    H130683   2.794   4.198   8.185  0.8334  0.1635 -2.2890
 3016TIP3    H230684   2.680   4.101   8.160  0.6979 -0.0394 -0.9539
 3017TIP3   OH230685   6.425   2.561   8.890  0.1027  0.1013  0.3965
 3017TIP3    H130686   6.369   2.580   8.965 -1.4801  0.9343 -0.9546
 3017TIP3    H230687   6.497   2.624   8.898 -0.4410  0.6884  0.8028
 3018TIP3   OH230688   4.422   0.093   7.322  0.2859  0.4305 -0.7874
 3018TIP3    H130689   4.483   0.105   7.396  0.0668  0.1434 -0.5589
 3018TIP3    H230690   4.390   0.181   7.304  0.7440  0.5810 -0.8861
 3019TIP3   OH230691   0.073   1.160   1.371 -0.1519 -0.8013 -0.2532
 3019TIP3    H130692   0.009   1.225   1.401 -0.2299 -0.4682 -1.1108
 3019TIP3    H230693   0.156   1.190   1.408 -0.2530 -0.4382 -0.3095
 3020TIP3   OH230694   2.499   4.959   1.695  0.6994 -0.3284  0.5323
 3020TIP3    H130695   2.501   4.919   1.782  3.2360 -0.3692  0.5425
 3020TIP3    H230696   2.526   4.889   1.636  3.5564  0.7919  0.3479
 3021TIP3   OH230697   5.568   0.963   6.642  0.1508  0.1012 -0.4133
 3021TIP3    H130698   5.475   0.984   6.651  0.0325  0.7897 -2.5187
 3021TIP3    H230699   5.569   0.883   6.589  0.7215  0.9013 -1.6759
 3022TIP3   OH230700   5.612   6.153   8.603 -0.0806 -0.3285  0.0254
 3022TIP3    H130701   5.679   6.212   8.637  0.2978 -1.3869  1.1899
 3022TIP3    H230702   5.615   6.166   8.508  1.9607 -0.5245  0.0084
 3023TIP3   OH230703   2.122   4.597   1.855  0.0277 -0.2991 -0.6949
 3023TIP3    H130704   2.115   4.524   1.794 -1.3585 -0.7273 -0.0831
 3023TIP3    H230705   2.110   4.557   1.941  3.4464  0.0566  0.0809
 3024TIP3   OH230706   0.358   2.285   7.897  0.1286  0.2714 -0.3453
 3024TIP3    H130707   0.308   2.224   7.842  0.3653 -0.3168  0.0800
 3024TIP3    H230708   0.385   2.233   7.972 -1.0969  1.3337  0.8791
 3025TIP3   OH230709   4.969   1.645   7.057  0.0124 -0.5805 -0.1732
 3025TIP3    H130710   5.026   1.710   7.016 -0.0843 -1.5694 -1.9716
 3025TIP3    H230711   4.888   1.693   7.075  0.3095  0.0551 -0.4945
 3026TIP3   OH230712   5.177   3.931   8.327  0.0453  0.3063 -0.2161
 3026TIP3    H130713   5.245   3.964   8.268 -0.0376 -0.6313 -0.8637
 3026TIP3    H230714   5.219   3.925   8.412  0.2409  1.4572 -0.2219
 3027TIP3   OH230715   3.714   0.958   1.680 -0.3928  0.7950  0.3747
 3027TIP3    H130716   3.765   1.038   1.666 -0.8161  0.9019 -0.6908
 3027TIP3    H230717   3.630   0.989   1.713 -0.4392  0.7741  0.2781
 3028TIP3   OH230718   2.398   6.169   7.877 -0.0519  0.2186 -0.2477
 3028TIP3    H130719   2.372   6.235   7.941  1.2524 -0.4563  1.0428
 3028TIP3    H230720   2.388   6.086   7.923 -0.7131 -0.4280 -1.5134
 3029TIP3   OH230721   0.727   0.610   7.684  0.1982  0.1072 -0.7134
 3029TIP3    H130722   0.755   0.540   7.625  0.4252  0.6487 -1.2488
 3029TIP3    H230723   0.650   0.573   7.730  0.6701 -0.7048 -0.5564
 3030TIP3   OH230724   3.937   2.988   0.548  0.0037 -0.2109 -0.1563
 3030TIP3    H130725   3.891   2.999   0.631  2.5243  0.4999  1.2514
 3030TIP3    H230726   3.940   3.076   0.510 -2.2601 -0.7405 -1.7107
 3031TIP3   OH230727   0.861   4.608   0.393 -0.6627 -0.2842 -0.2948
 3031TIP3    H130728   0.770   4.612   0.361 -0.1201 -0.2045 -1.8853
 3031TIP3    H230729   0.877   4.696   0.428  0.5385  1.7586 -5.1773
 3032TIP3   OH230730   1.019   1.391   2.095  0.1950  0.0340 -0.4558
 3032TIP3    H130731   0.935   1.435   2.081  0.2264 -0.1771 -1.3390
 3032TIP3    H230732   1.006   1.304   2.057  0.9815  0.1732 -1.0487
 3033TIP3   OH230733   4.153   4.647   0.235  0.7152  0.3161  0.3901
 3033TIP3    H130734   4.237   4.620   0.272  0.6903 -1.6403 -0.8383
 3033TIP3    H230735   4.167   4.738   0.208  2.1410  0.3137  0.9968
 3034TIP3   OH230736   5.011   3.599   0.823  0.8576  0.3210 -0.1583
 3034TIP3    H130737   5.083   3.626   0.766  1.6660  0.7387  1.0294
 3034TIP3    H230738   5.022   3.652   0.902 -0.4884  0.0622  0.2255
 3035TIP3   OH230739   4.724   0.628   0.856 -0.0177 -0.0024  0.2818
 3035TIP3    H130740   4.796   0.565   0.855 -1.0339 -1.1922  0.3871
 3035TIP3    H230741   4.760   0.704   0.902 -0.0101 -2.0731  4.1212
 3036TIP3   OH230742   1.115   6.693   0.401  0.2760 -0.0217  0.3570
 3036TIP3    H130743   1.025   6.721   0.386  0.3513  0.8243  1.2987
 3036TIP3    H230744   1.108   6.601   0.428 -0.5206  0.5212  2.2129
 3037TIP3   OH230745   5.096   0.093   8.163  0.3919 -0.3190 -0.6272
 3037TIP3    H130746   5.080   0.021   8.102  1.3317  0.0216 -1.3033
 3037TIP3    H230747   5.167   0.143   8.123  1.9480 -0.8061  1.3246
 3038TIP3   OH230748   1.188   3.676   7.473  0.4377 -0.5096  0.2929
 3038TIP3    H130749   1.243   3.746   7.439  0.1983  0.5130  1.9040
 3038TIP3    H230750   1.250   3.612   7.508  0.6407  0.3859  1.6198
 3039TIP3   OH230751   0.576   1.018   6.981  0.3109 -0.0734 -0.2446
 3039TIP3    H130752   0.644   1.008   7.047  0.6860 -1.8904 -0.8436
 3039TIP3    H230753   0.585   1.108   6.950  1.1668  0.3063  1.0219
 3040TIP3   OH230754   4.074   6.578   8.327  0.0078 -0.5341  0.0788
 3040TIP3    H130755   4.101   6.669   8.311 -4.7611  0.9719 -1.1128
 3040TIP3    H230756   4.028   6.582   8.411  0.1878 -2.0228  0.2693
 3041TIP3   OH230757   3.609   3.178   7.968  0.7186  0.1756 -0.6768
 3041TIP3    H130758   3.557   3.105   8.002  2.4827 -0.3261  1.1421
 3041TIP3    H230759   3.544   3.244   7.942 -0.9350 -2.0331 -2.5516
 3042TIP3   OH230760   2.095   1.020   8.558  0.3046  0.2651 -0.1764
 3042TIP3    H130761   2.119   0.936   8.520  1.5381  0.4993  0.0573
 3042TIP3    H230762   2.175   1.072   8.554 -0.1034  0.9983  0.8658
 3043TIP3   OH230763   4.324   6.288   7.401 -0.5487  0.1397 -0.1592
 3043TIP3    H130764   4.328   6.195   7.378 -0.7178  0.2713 -0.7387
 3043TIP3    H230765   4.413   6.308   7.431 -0.7486 -0.4238  0.8519
 3044TIP3   OH230766   2.989   4.574   1.380 -0.0332  0.0490 -0.1220
 3044TIP3    H130767   3.066   4.575   1.323 -0.6534 -0.3471 -0.9877
 3044TIP3    H230768   2.963   4.666   1.386 -0.6857 -0.0242 -1.5012
 3045TIP3   OH230769   1.981   4.613   7.896 -0.1951 -0.6618  0.0824
 3045TIP3    H130770   1.936   4.658   7.967 -0.3009 -1.3850  0.4898
 3045TIP3    H230771   2.068   4.652   7.893  0.8567 -2.5130  2.5524
 3046TIP3   OH230772   5.777   6.123   0.091 -0.2511  0.0783 -0.0033
 3046TIP3    H130773   5.801   6.184   0.161  1.6344  0.9568 -1.3329
 3046TIP3    H230774   5.859   6.083   0.064 -1.0275 -0.7500 -1.2616
 3047TIP3   OH230775   5.958   2.889   8.377  0.0628 -0.2400  0.8249
 3047TIP3    H130776   5.995   2.869   8.291 -0.1047  1.1856  0.3962
 3047TIP3    H230777   5.873   2.844   8.377 -0.8307  1.3179 -0.5693
 3048TIP3   OH230778   5.471   0.415   0.897  0.0002  0.0085  0.6029
 3048TIP3    H130779   5.450   0.442   0.808  0.1256  0.6567  0.7573
 3048TIP3    H230780   5.516   0.492   0.935  0.7551 -0.5768  0.9318
 3049TIP3   OH230781   3.037   6.348   0.853 -0.2668 -0.5792  0.5879
 3049TIP3    H130782   2.973   6.404   0.897 -0.4955  1.7124 -2.3546
 3049TIP3    H230783   3.053   6.277   0.915 -4.7732 -0.6927  2.0077
 3050TIP3   OH230784   3.722   3.022   0.717  0.2694  0.1170 -0.3092
 3050TIP3    H130785   3.706   3.034   0.810 -0.9755  3.1964 -0.7806
 3050TIP3    H230786   3.678   3.097   0.676  1.3268 -0.7743 -3.3132
 3051TIP3   OH230787   4.427   5.151   8.194  0.1823  0.1267  0.2288
 3051TIP3    H130788   4.506   5.174   8.145 -0.2527 -0.3528 -0.7326
 3051TIP3    H230789   4.355   5.179   8.137 -0.3440 -0.7969  0.4239
 3052TIP3   OH230790   0.258   1.366   8.322 -0.4641  0.5264 -0.2198
 3052TIP3    H130791   0.308   1.445   8.340 -0.8192  0.5372  0.8440
 3052TIP3    H230792   0.168   1.396   8.314 -0.5722  0.2623 -0.0261
 3053TIP3   OH230793   0.633   2.044   7.215  0.5301 -0.1792  0.1756
 3053TIP3    H130794   0.553   2.090   7.240  0.2960  0.4135 -1.5264
 3053TIP3    H230795   0.704   2.094   7.256  0.1762  0.8529 -0.4271
 3054TIP3   OH230796   1.468   2.249   1.175  0.4823  0.0681  0.1692
 3054TIP3    H130797   1.405   2.191   1.132  1.9065 -0.7014 -0.9721
 3054TIP3    H230798   1.418   2.328   1.193 -0.4673  0.0724 -2.0757
 3055TIP3   OH230799   0.344   4.471   1.733  0.0545  0.1194 -0.0588
 3055TIP3    H130800   0.397   4.547   1.708  0.0239  0.2058  0.1336
 3055TIP3    H230801   0.383   4.398   1.686  2.0616 -0.3225  2.0876
 3056TIP3   OH230802   5.927   4.177   2.066 -0.4835  0.9292 -0.0631
 3056TIP3    H130803   6.007   4.227   2.057  0.1992 -0.1782 -0.4025
 3056TIP3    H230804   5.938   4.129   2.148  0.2108 -0.9116 -1.1764
 3057TIP3   OH230805   1.185   1.331   8.376 -0.3058  0.3662  0.1948
 3057TIP3    H130806   1.274   1.307   8.349 -1.1384  0.3076 -2.8392
 3057TIP3    H230807   1.181   1.426   8.363 -1.1068  0.1627 -1.1054
 3058TIP3   OH230808   1.406   2.505   0.995 -0.5681 -0.2426 -0.0467
 3058TIP3    H130809   1.366   2.418   0.987  0.9661 -0.9962  0.0731
 3058TIP3    H230810   1.338   2.559   1.035 -1.3409 -1.5481  0.4866
 3059TIP3   OH230811   1.193   5.647   7.718 -0.5317  0.0995  0.1190
 3059TIP3    H130812   1.159   5.587   7.651  0.7628 -0.0464 -0.4433
 3059TIP3    H230813   1.219   5.725   7.669 -0.4603  0.3678  0.5847
 3060TIP3   OH230814   4.906   0.756   7.070  0.6416  0.1344 -0.1880
 3060TIP3    H130815   4.986   0.712   7.098  0.2236 -1.4833 -1.3732
 3060TIP3    H230816   4.927   0.791   6.984 -0.1711 -1.1878 -0.9677
 3061TIP3   OH230817   0.478   0.169   8.085  0.0426 -0.3053 -0.2109
 3061TIP3    H130818   0.500   0.170   8.178  1.0034 -2.7753 -0.3473
 3061TIP3    H230819   0.563   0.163   8.041 -0.5028 -1.9214 -1.0992
 3062TIP3   OH230820   0.688   5.521   7.319  0.0866 -0.2566 -0.0195
 3062TIP3    H130821   0.728   5.516   7.406  0.8592  0.7942 -0.2967
 3062TIP3    H230822   0.638   5.602   7.319 -0.3221 -0.4989 -0.3991
 3063TIP3   OH230823   0.286   3.042   8.346 -0.3587 -0.1259  0.3451
 3063TIP3    H130824   0.367   3.000   8.373 -0.8614 -0.7079  0.9979
 3063TIP3    H230825   0.225   2.969   8.333 -0.1361  0.0965 -2.5048
 3064TIP3   OH230826   6.528   4.842   1.884 -0.3573 -0.0975  0.3960
 3064TIP3    H130827   6.437   4.812   1.891  0.0917 -1.3136  1.2047
 3064TIP3    H230828   6.536   4.910   1.951 -0.3268 -0.8733  1.1814
 3065TIP3   OH230829   5.056   3.416   0.040 -0.1974 -0.3989  0.5156
 3065TIP3    H130830   4.997   3.401  -0.033  0.5828 -1.9701  0.1793
 3065TIP3    H230831   5.132   3.360   0.023  1.7357  2.0158  0.5803
 3066TIP3   OH230832   4.486   3.976   8.845 -0.2112 -0.1003 -0.5100
 3066TIP3    H130833   4.516   4.012   8.761 -0.2012  1.4287  0.1158
 3066TIP3    H230834   4.429   4.044   8.881 -2.0188 -1.6649 -0.2651
 3067TIP3   OH230835   1.444   1.198   0.715 -0.1996 -0.5404  0.0074
 3067TIP3    H130836   1.425   1.137   0.787 -1.9749  1.3717  1.2584
 3067TIP3    H230837   1.357   1.227   0.685  0.5715  0.3860 -1.4361
 3068TIP3   OH230838   0.437   3.931   0.943  0.3278 -0.0899  0.3445
 3068TIP3    H130839   0.407   3.886   1.021  0.3958 -0.4456  0.1706
 3068TIP3    H230840   0.506   3.989   0.974  0.8172 -0.7149  0.4603
 3069TIP3   OH230841   2.636   0.319   1.794 -0.5205  0.4840  0.3225
 3069TIP3    H130842   2.696   0.257   1.836 -1.3835  0.3170  1.3790
 3069TIP3    H230843   2.619   0.385   1.861 -0.3206  1.3812 -0.4878
 3070TIP3   OH230844   6.097   0.029   8.113  0.1288  0.4651 -0.6276
 3070TIP3    H130845   6.143  -0.054   8.099 -0.0501  0.0932  0.7800
 3070TIP3    H230846   6.156   0.081   8.168 -0.5611  0.4798  0.1383
 3071TIP3   OH230847   6.709   1.877   6.471 -0.5653  0.0763 -0.0394
 3071TIP3    H130848   6.738   1.907   6.557  0.7488 -0.0326 -0.4333
 3071TIP3    H230849   6.630   1.928   6.453 -1.6848 -0.8957  1.8430
 3072TIP3   OH230850   4.054   6.619   0.885 -0.3066  0.7761  0.3119
 3072TIP3    H130851   4.067   6.649   0.795 -3.4778 -0.1412 -0.5927
 3072TIP3    H230852   4.131   6.565   0.904  0.9105  1.8192 -1.4595
 3073TIP3   OH230853   2.441   5.668   6.703  0.1174 -0.1604  0.1930
 3073TIP3    H130854   2.411   5.577   6.699 -0.3965 -0.0697  1.5187
 3073TIP3    H230855   2.531   5.662   6.732  0.1367 -0.2517  0.1173
 3074TIP3   OH230856   6.424   1.993   1.313 -0.3941 -0.4975 -0.8300
 3074TIP3    H130857   6.478   2.065   1.281  0.6671 -1.3631 -1.0765
 3074TIP3    H230858   6.352   2.035   1.360 -0.4147  0.7311 -1.9122
 3075TIP3   OH230859   4.841   3.179   8.064 -0.2016  0.1007  0.3739
 3075TIP3    H130860   4.916   3.154   8.118 -0.4079  1.0142  1.1032
 3075TIP3    H230861   4.822   3.101   8.012  2.1976  0.2777 -0.9379
 3076TIP3   OH230862   1.007   3.670   0.150 -0.4309  0.5722 -0.0973
 3076TIP3    H130863   0.940   3.735   0.173  0.9065  2.1112 -0.3259
 3076TIP3    H230864   1.053   3.653   0.232 -1.1794 -0.5942  0.0906
 3077TIP3   OH230865   0.703   5.346   1.902 -0.4607 -0.3962 -0.3186
 3077TIP3    H130866   0.663   5.274   1.854 -0.3428  0.3482 -1.5628
 3077TIP3    H230867   0.774   5.306   1.952 -0.5260 -1.1730 -0.8410
 3078TIP3   OH230868   1.772   3.418   8.277 -0.3549  0.5411  0.7545
 3078TIP3    H130869   1.825   3.339   8.292 -0.2010  0.3802 -0.5596
 3078TIP3    H230870   1.682   3.388   8.282 -0.3033  0.4009  0.8573
 3079TIP3   OH230871   6.209   4.567   7.419 -0.0353 -0.0071  0.9422
 3079TIP3    H130872   6.179   4.491   7.469  1.8961 -1.7151 -0.3243
 3079TIP3    H230873   6.144   4.578   7.350 -0.5760 -0.2057  1.4142
 3080TIP3   OH230874   3.881   2.509   7.746 -0.2155 -0.2550 -0.5516
 3080TIP3    H130875   3.890   2.602   7.766 -1.3596 -0.4322  0.9284
 3080TIP3    H230876   3.808   2.505   7.685 -1.5006 -0.3268  0.9443
 3081TIP3   OH230877   3.073   2.583   8.194 -0.2083  0.5553 -0.0364
 3081TIP3    H130878   3.165   2.601   8.210 -0.1847  1.3331 -0.9430
 3081TIP3    H230879   3.047   2.647   8.127 -0.6160 -1.5633 -2.0485
 3082TIP3   OH230880   4.797   0.261   1.891 -0.1244  0.2313  0.1769
 3082TIP3    H130881   4.704   0.263   1.868  0.3404  1.4851 -1.7837
 3082TIP3    H230882   4.818   0.168   1.898 -1.7243 -0.0682  1.6512
 3083TIP3   OH230883   5.011   0.591   7.381 -0.3212 -0.0194 -0.5263
 3083TIP3    H130884   4.966   0.671   7.411 -2.2849 -0.2677 -2.5631
 3083TIP3    H230885   5.075   0.621   7.317  1.9064  0.2247  1.6399
 3084TIP3   OH230886   4.321   4.670   7.117  0.5783 -0.2876 -0.3680
 3084TIP3    H130887   4.403   4.631   7.089  0.2115 -2.2022  1.0435
 3084TIP3    H230888   4.315   4.650   7.210 -0.6411  1.4258 -0.0127
 3085TIP3   OH230889   0.712   5.142   7.500 -0.6191 -0.9154  0.5047
 3085TIP3    H130890   0.702   5.055   7.463 -1.4892 -0.7385  0.2922
 3085TIP3    H230891   0.726   5.199   7.424  0.0203 -0.8697  0.6466
 3086TIP3   OH230892   3.361   0.483   0.757 -0.1086 -0.4425  0.2279
 3086TIP3    H130893   3.283   0.459   0.808  1.2189 -2.1254  1.5948
 3086TIP3    H230894   3.326   0.517   0.674 -2.2911 -0.2017  1.1698
 3087TIP3   OH230895   3.227   0.269   7.613  0.2618 -0.6407  0.1264
 3087TIP3    H130896   3.148   0.323   7.604  0.2823 -0.6638 -0.2080
 3087TIP3    H230897   3.269   0.273   7.527  2.1827  1.7495  1.0623
 3088TIP3   OH230898   3.385   4.357   7.205  0.3780  0.2962 -0.2089
 3088TIP3    H130899   3.321   4.330   7.139 -2.1417  1.1554  1.6844
 3088TIP3    H230900   3.365   4.450   7.221  0.1868 -0.1069  2.3714
 3089TIP3   OH230901   5.453   6.211   0.536  0.0794  0.3769 -0.3125
 3089TIP3    H130902   5.453   6.152   0.611 -0.2469  0.1227 -0.5119
 3089TIP3    H230903   5.373   6.263   0.546 -0.7017 -0.6095 -1.2235
 3090TIP3   OH230904   6.499   2.070   7.719  0.5085 -0.2066 -0.2630
 3090TIP3    H130905   6.422   2.126   7.724  1.6848  1.5391 -0.9161
 3090TIP3    H230906   6.477   2.005   7.651 -0.0739  0.7989 -1.0669
 3091TIP3   OH230907   1.788   0.345   7.287 -0.7736  0.2031  0.1645
 3091TIP3    H130908   1.773   0.413   7.353 -0.9849 -0.5502  0.9046
 3091TIP3    H230909   1.845   0.387   7.222 -1.1730  1.1871  0.4314
 3092TIP3   OH230910   1.936   6.073   6.820  0.3161  0.1227  0.6038
 3092TIP3    H130911   1.896   6.066   6.907  0.7454 -0.1682  0.7849
 3092TIP3    H230912   1.987   5.992   6.811  0.9110  0.5134  0.4094
 3093TIP3   OH230913   5.215   6.454   1.074 -0.0904  0.4797 -0.5763
 3093TIP3    H130914   5.287   6.473   1.014 -0.1083 -1.5916 -1.3242
 3093TIP3    H230915   5.226   6.517   1.145  1.5182  1.2433 -1.4538
 3094TIP3   OH230916   6.233   3.283   8.883 -1.0006 -0.2638 -0.1357
 3094TIP3    H130917   6.152   3.275   8.832 -1.4262  0.3198  0.4168
 3094TIP3    H230918   6.202   3.308   8.971 -0.1637  1.1348 -0.2145
 3095TIP3   OH230919   5.695   6.746   0.311  0.5118  0.8945 -0.3666
 3095TIP3    H130920   5.781   6.706   0.295  1.0904  2.6940 -2.1764
 3095TIP3    H230921   5.714   6.838   0.329 -1.0472  1.4369 -1.2767
 3096TIP3   OH230922   3.091   1.248   0.783 -0.1957  0.6122 -0.1885
 3096TIP3    H130923   3.001   1.258   0.754 -0.3582 -1.0136 -0.3311
 3096TIP3    H230924   3.143   1.300   0.722 -0.7802 -0.7037 -1.8693
 3097TIP3   OH230925   6.664   2.776   2.005 -0.1731  0.1285 -0.0634
 3097TIP3    H130926   6.686   2.853   1.953 -2.0584  0.6756 -0.1491
 3097TIP3    H230927   6.683   2.802   2.095 -2.0733  1.2882  0.0767
 3098TIP3   OH230928   2.342   4.383   8.618 -0.1045  0.0978 -0.0706
 3098TIP3    H130929   2.331   4.371   8.712  0.0364  0.9313  0.0546
 3098TIP3    H230930   2.271   4.331   8.579  0.0443 -0.5256  0.4761
 3099TIP3   OH230931   5.120   1.126   1.280 -0.0446  0.2674  0.4180
 3099TIP3    H130932   5.075   1.158   1.202 -0.1449 -1.2454 -0.1805
 3099TIP3    H230933   5.053   1.129   1.349 -0.9226 -1.3045 -0.3028
 3100TIP3   OH230934   2.055   3.416   0.270  0.8474 -0.3360 -0.1211
 3100TIP3    H130935   2.028   3.379   0.186 -2.6427 -0.8394  1.0586
 3100TIP3    H230936   2.121   3.355   0.303  1.0421 -1.0514 -1.7219
 3101TIP3   OH230937   5.232   6.100   1.350  0.4012 -0.2085 -0.4366
 3101TIP3    H130938   5.307   6.129   1.297 -0.2027  3.8115  0.5557
 3101TIP3    H230939   5.164   6.166   1.334 -2.5212 -2.9499 -0.2449
 3102TIP3   OH230940   4.698   0.844   7.871 -0.0212  0.2713  0.0615
 3102TIP3    H130941   4.680   0.782   7.942 -0.1619  1.6651  1.2812
 3102TIP3    H230942   4.613   0.857   7.829 -0.1443  0.2307  0.2920
 3103TIP3   OH230943   4.745   2.781   7.715  0.6094  0.4003  1.0567
 3103TIP3    H130944   4.721   2.693   7.745 -0.0782  0.4733  0.7370
 3103TIP3    H230945   4.770   2.768   7.623 -0.2269  0.6536  0.7874
 3104TIP3   OH230946   1.284   2.351   7.932 -0.9206 -0.1584 -0.0366
 3104TIP3    H130947   1.332   2.426   7.968 -0.2611  0.6367 -2.3880
 3104TIP3    H230948   1.330   2.275   7.967  1.2567  0.5885 -1.0986
 3105TIP3   OH230949   2.716   4.898   2.526 -0.1292  0.0721 -0.5363
 3105TIP3    H130950   2.682   4.987   2.525 -1.6748 -0.4830  0.0609
 3105TIP3    H230951   2.732   4.877   2.434 -1.2101  0.4447 -0.8214
 3106TIP3   OH230952   3.303   5.898   0.403 -0.2953 -0.3596  0.1702
 3106TIP3    H130953   3.216   5.937   0.394 -0.1770  0.1229  1.1121
 3106TIP3    H230954   3.361   5.972   0.421  0.2545 -0.7305 -0.0559
 3107TIP3   OH230955   2.242   2.237   0.558 -0.3529 -0.3073  0.4405
 3107TIP3    H130956   2.151   2.265   0.552 -0.1223  0.3630  0.0394
 3107TIP3    H230957   2.237   2.142   0.574 -1.1120 -0.5446 -1.0369
 3108TIP3   OH230958   6.693   6.681   0.908  0.0443 -0.4997  0.0154
 3108TIP3    H130959   6.718   6.702   0.998 -2.2934 -1.0055  0.8564
 3108TIP3    H230960   6.634   6.751   0.881 -0.1856 -0.9458 -0.6983
 3109TIP3   OH230961   0.557   5.330   0.210  0.1005  0.4132 -0.6062
 3109TIP3    H130962   0.468   5.333   0.176 -0.6110  0.8069  1.1833
 3109TIP3    H230963   0.560   5.399   0.276  1.1176 -0.9194  0.7933
 3110TIP3   OH230964   3.052   1.496   8.338 -0.4257 -0.0266  0.0498
 3110TIP3    H130965   3.058   1.547   8.419 -1.0921 -0.8239  0.6233
 3110TIP3    H230966   3.109   1.542   8.276  1.5576 -0.3771  1.4990
 3111TIP3   OH230967   0.357   3.880   8.717  0.5436  0.2774  0.2163
 3111TIP3    H130968   0.425   3.830   8.763 -0.5113 -1.3882  0.0550
 3111TIP3    H230969   0.314   3.931   8.786 -0.6309 -1.7376  1.0661
 3112TIP3   OH230970   0.084   5.660   8.882 -0.4371 -0.0914  0.3769
 3112TIP3    H130971   0.003   5.619   8.850 -0.4101 -0.7111  1.0628
 3112TIP3    H230972   0.093   5.628   8.972  0.9501 -0.6105  0.0815
 3113TIP3   OH230973   4.375   3.022   7.493 -0.5554 -0.0054 -0.4408
 3113TIP3    H130974   4.282   3.000   7.484 -0.9863  0.7909  1.5962
 3113TIP3    H230975   4.413   2.948   7.540 -0.4982  0.3871  0.1332
 3114TIP3   OH230976   5.651   3.754   7.211  0.7101 -0.6670 -0.7232
 3114TIP3    H130977   5.662   3.704   7.291  1.1914 -1.6416 -1.3709
 3114TIP3    H230978   5.741   3.772   7.182  0.5459  0.5348 -0.5399
 3115TIP3   OH230979   1.645   4.908   1.740 -0.3734  0.4095  0.5437
 3115TIP3    H130980   1.642   4.857   1.659  1.5981 -1.7798  1.7309
 3115TIP3    H230981   1.669   4.844   1.808 -0.7276  2.3945  2.6646
 3116TIP3   OH230982   1.215   4.865   8.024 -0.2025  0.1685 -0.6834
 3116TIP3    H130983   1.230   4.910   8.108  0.6659  1.6170 -1.5718
 3116TIP3    H230984   1.121   4.869   8.011 -0.3546 -0.1384  0.2558
 3117TIP3   OH230985   2.842   0.436   8.693 -0.0192 -0.1737  0.4042
 3117TIP3    H130986   2.802   0.352   8.672  3.1755 -1.8070  0.3167
 3117TIP3    H230987   2.810   0.456   8.781 -2.0511 -0.6059 -0.1769
 3118TIP3   OH230988   6.752   6.052   1.909  0.0466  0.6075  0.4002
 3118TIP3    H130989   6.795   6.064   1.824  0.2847  0.2201  0.4644
 3118TIP3    H230990   6.715   5.964   1.905 -0.4338  0.8037  0.4840
 3119TIP3   OH230991   2.863   5.909   7.400  0.2742  0.5552  0.7375
 3119TIP3    H130992   2.904   5.975   7.344  1.4402  1.1315  2.1882
 3119TIP3    H230993   2.936   5.871   7.450 -0.6341 -0.3729  1.4090
 3120TIP3   OH230994   6.350   6.773   1.680  0.0095 -0.5734  0.4573
 3120TIP3    H130995   6.328   6.714   1.608 -0.1444 -1.0985  0.9175
 3120TIP3    H230996   6.287   6.750   1.749  0.8382 -0.8330  1.1484
 3121TIP3   OH230997   1.456   4.280   7.546  0.2231  0.2450 -0.4575
 3121TIP3    H130998   1.453   4.187   7.567 -1.5030  0.2896 -0.3660
 3121TIP3    H230999   1.392   4.290   7.475  1.2441  1.1832 -1.2977
 3122TIP3   OH231000   5.421   3.553   7.323 -0.1774 -0.8220  0.0233
 3122TIP3    H131001   5.388   3.559   7.233 -0.5734 -0.0807  0.2071
 3122TIP3    H231002   5.489   3.485   7.320 -0.8382 -1.4610 -0.6323
 3123TIP3   OH231003   5.516   2.908   0.929  0.4964 -0.0658 -1.1476
 3123TIP3    H131004   5.483   2.920   1.018  0.8643  1.9656 -1.2474
 3123TIP3    H231005   5.461   2.839   0.892 -2.0570  1.5113 -0.5278
 3124TIP3   OH231006   4.126   4.612   1.437 -0.1180 -0.5886  0.4019
 3124TIP3    H131007   4.131   4.680   1.370 -1.7790 -0.9127 -0.0878
 3124TIP3    H231008   4.072   4.543   1.398  0.5248 -1.6659  1.3402
 3125TIP3   OH231009   1.567   5.176   1.345 -0.1372  0.2807  0.1758
 3125TIP3    H131010   1.501   5.114   1.376  0.4071  0.5253  1.9587
 3125TIP3    H231011   1.530   5.262   1.367  0.4480  0.4446  0.5387
 3126TIP3   OH231012   1.285   0.014   1.740  0.3694 -0.3594  0.6135
 3126TIP3    H131013   1.364  -0.036   1.760  2.4640  2.4305 -0.0867
 3126TIP3    H231014   1.272   0.003   1.646  1.5521  1.2254  0.2196
 3127TIP3   OH231015   2.030   5.822   1.046  0.6519 -0.4041  0.6444
 3127TIP3    H131016   2.027   5.823   1.142  1.2751 -0.0431  0.6609
 3127TIP3    H231017   2.115   5.786   1.025  0.1330 -1.3992  0.2094
 3128TIP3   OH231018   2.275   6.241   7.640 -1.0049 -0.3513  0.0670
 3128TIP3    H131019   2.333   6.205   7.707  0.5442  2.3082  0.3006
 3128TIP3    H231020   2.188   6.208   7.663  0.0128 -2.4813  1.1586
 3129TIP3   OH231021   1.886   4.131   6.722 -0.6222 -0.8696 -0.3219
 3129TIP3    H131022   1.830   4.057   6.701  0.4765 -1.7949 -0.0900
 3129TIP3    H231023   1.941   4.143   6.645 -1.3838  0.3056 -0.7178
 3130TIP3   OH231024   2.085   2.492   7.151  0.3594 -0.7361 -0.5959
 3130TIP3    H131025   2.098   2.450   7.237 -1.4170 -0.8686 -0.3579
 3130TIP3    H231026   2.129   2.576   7.159 -1.7141  0.2728  1.3225
 3131TIP3   OH231027   6.179   5.506   7.356 -0.0819 -0.0493 -0.3448
 3131TIP3    H131028   6.119   5.465   7.294 -1.2891  2.7400 -1.1989
 3131TIP3    H231029   6.122   5.541   7.425  0.7338  0.9202 -0.1272
 3132TIP3   OH231030   2.743   2.095   7.889  0.1113  0.1344 -0.2713
 3132TIP3    H131031   2.768   2.099   7.981  1.1562 -0.2440 -0.5206
 3132TIP3    H231032   2.738   2.001   7.869 -0.5318  0.2135 -0.4899
 3133TIP3   OH231033   0.950   4.176   2.204 -0.6612 -0.2146 -0.7769
 3133TIP3    H131034   0.873   4.213   2.161  0.1791  0.7649 -1.5124
 3133TIP3    H231035   1.011   4.249   2.209  0.5022 -1.1535 -0.8975
 3134TIP3   OH231036   3.647   3.522   7.823  0.5461  0.0001  0.4234
 3134TIP3    H131037   3.618   3.471   7.748  2.5644  2.0260 -1.9266
 3134TIP3    H231038   3.699   3.593   7.785  2.0811  0.8883  3.7956
 3135TIP3   OH231039   6.143   1.259   7.503 -0.0364  0.2169  0.4622
 3135TIP3    H131040   6.051   1.237   7.512 -0.1984  0.3102 -0.8419
 3135TIP3    H231041   6.153   1.287   7.412  1.1729  0.7032  0.7213
 3136TIP3   OH231042   1.311   2.740   0.719  0.2178 -0.2373  0.4287
 3136TIP3    H131043   1.326   2.769   0.629 -0.7331 -2.8045 -0.6719
 3136TIP3    H231044   1.377   2.672   0.734 -1.0656 -1.4591  0.7710
 3137TIP3   OH231045   0.255   0.420   7.404 -0.3200 -0.4223 -0.3493
 3137TIP3    H131046   0.216   0.487   7.348 -2.0436 -1.3584 -0.3542
 3137TIP3    H231047   0.346   0.448   7.417 -1.4452  2.9773  1.3112
 3138TIP3   OH231048   3.618   0.081   1.041  0.1918 -0.2272 -0.0563
 3138TIP3    H131049   3.659   0.074   0.955  1.4913 -1.9765  0.6439
 3138TIP3    H231050   3.687   0.112   1.099 -0.1121 -0.9647  0.7187
 3139TIP3   OH231051   0.279   1.462   7.246  0.6628 -0.2831  0.1421
 3139TIP3    H131052   0.255   1.379   7.288 -0.7302 -0.9011 -1.7044
 3139TIP3    H231053   0.358   1.442   7.197  0.5126 -0.4487 -0.0374
 3140TIP3   OH231054   0.703   5.289   1.595  0.2868 -0.0132 -0.1781
 3140TIP3    H131055   0.657   5.212   1.629 -0.7618 -0.0099 -1.5065
 3140TIP3    H231056   0.676   5.360   1.652 -0.6860 -0.1798 -0.4138
 3141TIP3   OH231057   5.142   3.207   8.855 -0.4648  0.4463  0.0001
 3141TIP3    H131058   5.234   3.215   8.830 -0.8279 -2.5197 -3.1296
 3141TIP3    H231059   5.094   3.239   8.778 -1.8898 -1.6715 -0.0894
 3142TIP3   OH231060   2.295   4.973   0.044 -0.1074 -0.1708  0.1486
 3142TIP3    H131061   2.249   4.895   0.075 -0.2418  0.1934  0.9064
 3142TIP3    H231062   2.262   4.988  -0.044  0.6655 -1.5527 -0.3990
 3143TIP3   OH231063   4.459   0.084   0.413 -0.4471  0.6109 -0.0788
 3143TIP3    H131064   4.466   0.142   0.337 -1.5020 -1.7384 -2.0939
 3143TIP3    H231065   4.365   0.076   0.428 -0.3864 -1.3224 -0.5137
 3144TIP3   OH231066   1.457   6.682   8.529  0.1480 -0.2650  0.6220
 3144TIP3    H131067   1.422   6.751   8.472  1.5966  0.4226  0.5149
 3144TIP3    H231068   1.466   6.606   8.472  1.0918  0.2642  0.0301
 3145TIP3   OH231069   0.767   2.016   6.977 -0.7222  0.0973 -0.3658
 3145TIP3    H131070   0.694   1.983   6.924 -0.3312 -1.4642  0.0344
 3145TIP3    H231071   0.729   2.033   7.063 -0.8889  0.5991 -0.5304
 3146TIP3   OH231072   0.539   1.613   8.433  0.0915  0.3083 -0.8730
 3146TIP3    H131073   0.566   1.556   8.361  0.5684 -0.8888  0.2136
 3146TIP3    H231074   0.498   1.554   8.497  1.6918  0.9398  0.8424
 3147TIP3   OH231075   3.700   4.127   8.069  0.2923 -0.4167  0.1267
 3147TIP3    H131076   3.685   4.033   8.066  0.5793 -0.4424 -0.9483
 3147TIP3    H231077   3.694   4.155   7.977 -0.6334  0.7476  0.5221
 3148TIP3   OH231078   2.178   3.953   7.234  0.6295 -0.7756 -0.1575
 3148TIP3    H131079   2.160   3.874   7.285  0.6918 -1.3107 -0.9465
 3148TIP3    H231080   2.100   4.007   7.246  0.4220 -1.1180  0.0850
 3149TIP3   OH231081   1.334   1.221   8.079  0.5635  0.3714 -0.7520
 3149TIP3    H131082   1.417   1.254   8.045  0.8866  1.3133  0.8371
 3149TIP3    H231083   1.351   1.207   8.173 -1.2754  1.3200 -0.2351
 3150TIP3   OH231084   2.273   5.293   0.667 -0.6743 -0.0129  0.1180
 3150TIP3    H131085   2.230   5.286   0.581  1.1360  1.0177 -0.9484
 3150TIP3    H231086   2.277   5.204   0.700 -0.6900 -0.5504 -1.2651
 3151TIP3   OH231087   3.312   1.913   8.550  0.4692 -0.4970  0.3407
 3151TIP3    H131088   3.285   1.900   8.641  0.9263 -0.6891  0.4501
 3151TIP3    H231089   3.407   1.923   8.554  0.5631 -1.1098 -0.1805
 3152TIP3   OH231090   2.412   5.933   8.040 -0.5537 -0.1599 -0.2027
 3152TIP3    H131091   2.489   5.886   8.073 -1.5536 -2.1143 -0.5088
 3152TIP3    H231092   2.339   5.874   8.058 -1.7230  0.7652 -1.7391
 3153TIP3   OH231093   3.028   1.058   8.193  0.5533  0.3424 -0.1098
 3153TIP3    H131094   2.979   0.976   8.184  1.5603 -0.1732 -1.0460
 3153TIP3    H231095   2.960   1.125   8.195 -0.2380 -0.4146 -0.5665
 3154TIP3   OH231096   0.175   3.929   8.509  0.0895  0.1613 -0.2857
 3154TIP3    H131097   0.235   3.912   8.582  0.2092 -0.0808 -0.4403
 3154TIP3    H231098   0.170   3.846   8.462  1.7651  0.8892 -1.8672
 3155TIP3   OH231099   1.541   4.201   6.735  0.4361 -0.0510  0.0699
 3155TIP3    H131100   1.589   4.256   6.673  1.0832  0.4948  1.0258
 3155TIP3    H231101   1.484   4.147   6.681  1.2523  0.1552 -1.0194
 3156TIP3   OH231102   3.731   4.607   1.127 -0.1411 -0.1713 -0.1844
 3156TIP3    H131103   3.805   4.668   1.130  0.5269 -0.9157 -1.0159
 3156TIP3    H231104   3.751   4.548   1.054 -0.8981 -1.2272  0.4295
 3157TIP3   OH231105   3.161   4.843   7.163 -0.7137 -0.1487 -0.3020
 3157TIP3    H131106   3.200   4.758   7.143 -0.4185 -0.3426  0.9979
 3157TIP3    H231107   3.100   4.825   7.234 -3.3858  0.1113 -2.3589
 3158TIP3   OH231108   0.641   1.967   1.632  0.0108 -0.2965  0.0591
 3158TIP3    H131109   0.610   2.022   1.560  0.1026 -0.0037  0.2409
 3158TIP3    H231110   0.577   1.896   1.638  0.8129 -1.1853 -1.3086
 3159TIP3   OH231111   6.693   2.462   0.499 -0.6253  0.0438  0.4571
 3159TIP3    H131112   6.624   2.487   0.561 -0.5470 -0.4312  0.7387
 3159TIP3    H231113   6.666   2.502   0.416 -2.2935 -1.7472  0.0617
 3160TIP3   OH231114   2.420   3.254   6.274  0.0958 -0.1544 -0.5660
 3160TIP3    H131115   2.500   3.267   6.325  0.5226  1.1933 -1.5535
 3160TIP3    H231116   2.451   3.231   6.186 -0.6122 -0.3761 -0.7625
 3161TIP3   OH231117   2.482   1.415   8.685 -0.3597 -0.0519 -0.4452
 3161TIP3    H131118   2.472   1.356   8.759 -0.1799 -0.6610 -0.9035
 3161TIP3    H231119   2.395   1.451   8.670 -0.0723  1.5127  1.2281
 3162TIP3   OH231120   2.725   3.701   8.475 -0.5835 -0.6121  0.0938
 3162TIP3    H131121   2.701   3.695   8.382 -1.3827  2.6051 -0.0500
 3162TIP3    H231122   2.642   3.717   8.520 -0.0030 -0.4195  1.1262
 3163TIP3   OH231123   4.460   2.746   8.284 -0.2113 -0.2627  0.2279
 3163TIP3    H131124   4.512   2.697   8.348  2.1692 -0.0701 -1.4175
 3163TIP3    H231125   4.495   2.835   8.290 -0.5302 -0.0659 -0.7508
 3164TIP3   OH231126   4.295   0.895   7.391  0.5257  0.0859  0.1383
 3164TIP3    H131127   4.382   0.908   7.355  1.3889 -1.2240  1.6529
 3164TIP3    H231128   4.296   0.939   7.475  0.0978 -0.8216  0.6398
 3165TIP3   OH231129   4.167   3.450   0.101 -0.0944 -0.5482 -0.2459
 3165TIP3    H131130   4.161   3.421   0.010  1.6429  0.7601 -0.8301
 3165TIP3    H231131   4.087   3.500   0.116 -0.3344 -0.6696 -1.0852
 3166TIP3   OH231132   4.555   4.645   7.826 -0.3921 -0.0150 -0.2814
 3166TIP3    H131133   4.610   4.713   7.786 -0.8455  0.4786 -0.0854
 3166TIP3    H231134   4.573   4.566   7.775 -0.6455  0.5046 -1.2047
 3167TIP3   OH231135   5.012   4.185   8.553 -0.3090 -0.0768  0.6373
 3167TIP3    H131136   4.935   4.129   8.552 -1.7290  1.7552  0.7438
 3167TIP3    H231137   5.026   4.206   8.460  0.2457 -0.6296  0.5928
 3168TIP3   OH231138   0.945   2.197   0.685 -0.4855 -0.5085 -0.8258
 3168TIP3    H131139   1.027   2.230   0.651 -1.2134  0.7206 -1.4575
 3168TIP3    H231140   0.950   2.102   0.674  0.8704 -0.4563 -0.7585
 3169TIP3   OH231141   1.142   1.146   6.839  0.5935  0.3726 -0.3204
 3169TIP3    H131142   1.052   1.179   6.843  0.4713  0.0511 -0.3877
 3169TIP3    H231143   1.144   1.092   6.760  0.6157 -0.2826  0.1165
 3170TIP3   OH231144   6.767   3.447   8.459 -0.5964 -0.5687  0.0802
 3170TIP3    H131145   6.779   3.459   8.553  1.9234  1.7981 -0.4281
 3170TIP3    H231146   6.818   3.369   8.438 -1.1559 -1.0982  0.6601
 3171TIP3   OH231147   0.395   4.383   0.711 -0.1257 -0.4283  0.3385
 3171TIP3    H131148   0.477   4.338   0.695  0.9183  1.4643  0.0313
 3171TIP3    H231149   0.411   4.435   0.790 -1.0625 -0.1410  0.3577
 3172TIP3   OH231150   3.538   0.154   8.859  0.1772  0.2158  0.5367
 3172TIP3    H131151   3.464   0.179   8.914 -0.1152  0.5867 -0.0141
 3172TIP3    H231152   3.581   0.083   8.906  0.5883  1.2491  1.8094
 3173TIP3   OH231153   5.798   5.220   8.758  0.4298 -0.3098  0.6527
 3173TIP3    H131154   5.866   5.263   8.809  0.4556  0.2967  0.1185
 3173TIP3    H231155   5.763   5.289   8.702 -0.9669 -0.4965  1.2645
 3174TIP3   OH231156   4.420   3.970   0.622 -0.3841 -0.3356  0.6421
 3174TIP3    H131157   4.475   3.905   0.666  1.2562  0.7199  0.2303
 3174TIP3    H231158   4.393   3.927   0.541  1.2725 -0.2863  0.0351
 3175TIP3   OH231159   3.493   0.399   6.514  0.1896 -0.2380  0.4393
 3175TIP3    H131160   3.529   0.482   6.485  0.9151 -0.4898  0.6054
 3175TIP3    H231161   3.569   0.341   6.523 -0.1389 -0.4889  1.7659
 3176TIP3   OH231162   2.775   5.415   1.331 -0.2945 -0.5442  0.1006
 3176TIP3    H131163   2.767   5.332   1.377  0.0314 -0.8778 -0.4462
 3176TIP3    H231164   2.792   5.479   1.401  1.0448 -1.1614  0.3706
 3177TIP3   OH231165   3.465   4.968   8.195  0.5949 -0.3357 -0.4142
 3177TIP3    H131166   3.406   5.007   8.131  1.7445  1.5053 -0.4022
 3177TIP3    H231167   3.503   5.042   8.242  2.9331 -1.4092 -0.4408
 3178TIP3   OH231168   6.444   2.478   7.146 -0.0411 -0.4583 -0.3460
 3178TIP3    H131169   6.476   2.404   7.095  2.3167  0.5303 -0.4671
 3178TIP3    H231170   6.439   2.550   7.084 -1.7396 -0.3412 -0.1123
 3179TIP3   OH231171   3.654   5.472   2.175  0.2122 -0.1711 -0.0665
 3179TIP3    H131172   3.745   5.503   2.166  0.2349  0.1315  1.0917
 3179TIP3    H231173   3.654   5.385   2.134  0.3611  0.9313 -2.5722
 3180TIP3   OH231174   4.667   5.109   7.456 -0.1772  0.2338  0.6365
 3180TIP3    H131175   4.621   5.159   7.388 -0.8296 -0.9114  0.2130
 3180TIP3    H231176   4.702   5.176   7.515  1.4463  1.3387 -1.4468
 3181TIP3   OH231177   6.575   1.748   1.284 -0.5954 -0.4795 -0.4271
 3181TIP3    H131178   6.646   1.759   1.221 -0.6860 -1.2224 -0.6571
 3181TIP3    H231179   6.538   1.836   1.293  0.3547 -0.0819 -0.2948
 3182TIP3   OH231180   4.516   4.200   7.502  0.5228 -0.2030  0.3305
 3182TIP3    H131181   4.446   4.245   7.549 -1.1589 -2.3357  0.0098
 3182TIP3    H231182   4.488   4.201   7.411  1.1857 -0.5795  0.1197
 3183TIP3   OH231183   3.159   2.385   6.242  0.0603 -0.0476  0.2528
 3183TIP3    H131184   3.185   2.401   6.333 -0.7090 -0.7929  0.6191
 3183TIP3    H231185   3.083   2.441   6.229  0.3081  0.2271 -0.0019
 3184TIP3   OH231186   2.508   4.692   1.590  0.4235 -0.2325 -0.3793
 3184TIP3    H131187   2.412   4.698   1.592  0.3181 -1.0891 -1.6182
 3184TIP3    H231188   2.529   4.631   1.660  0.2099  1.1484  0.9322
 3185TIP3   OH231189   0.857   5.409   0.827 -0.1427  0.0425  0.5781
 3185TIP3    H131190   0.930   5.470   0.835 -2.0084  2.7413 -1.0165
 3185TIP3    H231191   0.893   5.334   0.780  1.8384  0.7714  0.8537
 3186TIP3   OH231192   6.027   5.108   0.328  0.3982  0.2778  0.2499
 3186TIP3    H131193   6.082   5.170   0.376  2.1912  0.0224 -1.3627
 3186TIP3    H231194   5.959   5.162   0.289  2.1878  1.3908 -1.5004
 3187TIP3   OH231195   0.407   1.712   8.930  0.2163 -0.1232  0.3324
 3187TIP3    H131196   0.501   1.729   8.934  0.0022  1.1658  0.3628
 3187TIP3    H231197   0.400   1.621   8.899  1.4467  0.4040 -1.7097
 3188TIP3   OH231198   2.312   5.485   2.000 -0.2664 -1.0512  0.2935
 3188TIP3    H131199   2.293   5.453   2.089  0.1151  1.2173  1.2569
 3188TIP3    H231200   2.234   5.534   1.975  0.1441 -0.5866 -0.0932
 3189TIP3   OH231201   6.041   4.413   0.642 -0.1144 -0.2667 -0.3413
 3189TIP3    H131202   6.022   4.479   0.710 -0.8354 -0.6769 -0.1397
 3189TIP3    H231203   6.126   4.440   0.607  0.4534 -0.2364  0.9704
 3190TIP3   OH231204   4.590   5.377   8.448 -0.0009 -0.3946  0.2529
 3190TIP3    H131205   4.599   5.319   8.373 -0.8144  0.2229 -0.3465
 3190TIP3    H231206   4.509   5.349   8.491 -0.8571  0.7818 -0.5211
 3191TIP3   OH231207   4.941   4.777   1.348 -0.2823 -0.4548 -0.8278
 3191TIP3    H131208   4.943   4.868   1.379 -2.2699 -1.1089  1.4886
 3191TIP3    H231209   5.021   4.738   1.384 -1.0757 -0.4230  1.0408
 3192TIP3   OH231210   5.216   3.384   0.908 -0.2852 -0.0551  0.2981
 3192TIP3    H131211   5.172   3.304   0.937 -0.1739  0.4692  2.0398
 3192TIP3    H231212   5.146   3.438   0.873 -0.2560 -1.1761 -1.6593
 3193TIP3   OH231213   2.732   0.929   7.916  0.4335 -0.4991 -0.6246
 3193TIP3    H131214   2.744   0.956   7.826 -1.1315 -1.4831 -1.1723
 3193TIP3    H231215   2.637   0.930   7.930  0.6281 -0.4685  0.9773
 3194TIP3   OH231216   5.653   0.873   1.224 -0.1289  0.0817  0.0575
 3194TIP3    H131217   5.610   0.816   1.288 -1.1886  1.0956  0.3036
 3194TIP3    H231218   5.745   0.848   1.226 -0.6703 -2.0808 -0.3803
 3195TIP3   OH231219   3.300   5.396   0.858  0.1388 -0.1319 -0.0749
 3195TIP3    H131220   3.205   5.410   0.856  0.2343  0.5436 -0.1052
 3195TIP3    H231221   3.311   5.315   0.908 -0.4076  0.2763  0.7399
 3196TIP3   OH231222   3.230   3.752   1.425  0.0238 -0.5104  0.2347
 3196TIP3    H131223   3.313   3.721   1.390 -0.5765 -0.6936 -1.0980
 3196TIP3    H231224   3.229   3.846   1.405 -0.2953 -0.6027 -0.1865
 3197TIP3   OH231225   4.629   2.306   1.271  0.0541  0.0942 -0.2732
 3197TIP3    H131226   4.629   2.384   1.326 -1.0645 -0.1925  0.1630
 3197TIP3    H231227   4.573   2.244   1.318  1.7066 -1.3504 -0.0874
 3198TIP3   OH231228   3.651   2.752   1.611  0.0167  0.1431  0.0098
 3198TIP3    H131229   3.723   2.696   1.640  0.2455  0.5698  0.2762
 3198TIP3    H231230   3.647   2.739   1.516 -0.7354 -1.2638  0.2132
 3199TIP3   OH231231   4.152   5.757   0.327  0.1023 -0.0276  0.0568
 3199TIP3    H131232   4.103   5.691   0.278 -0.1783  0.9107 -0.9620
 3199TIP3    H231233   4.241   5.750   0.293 -0.0452  0.4735 -0.4495
 3200TIP3   OH231234   1.521   2.540   0.728 -0.2079 -0.1227  0.2409
 3200TIP3    H131235   1.613   2.564   0.734 -0.4597  0.9554  0.1104
 3200TIP3    H231236   1.498   2.511   0.816  0.0054  0.6271  0.5602
 3201TIP3   OH231237   2.738   4.376   6.969  0.5990  0.0418 -0.0437
 3201TIP3    H131238   2.668   4.425   7.011 -0.5078 -1.4319 -0.0653
 3201TIP3    H231239   2.818   4.420   6.995 -0.3257  1.7171  0.0692
 3202TIP3   OH231240   0.498   5.488   1.403  0.5666  0.7627  0.2581
 3202TIP3    H131241   0.487   5.528   1.489  1.0690 -0.5158  0.9452
 3202TIP3    H231242   0.431   5.419   1.399 -0.2158  1.5379 -0.8601
 3203TIP3   OH231243   4.787   0.003   1.251  0.1361  0.0108 -0.0617
 3203TIP3    H131244   4.788   0.098   1.262  0.7611 -0.0790  0.8062
 3203TIP3    H231245   4.703  -0.016   1.210  0.9664  1.1384 -2.4830
 3204TIP3   OH231246   1.679   3.771   0.946  0.2783 -0.0423  0.2600
 3204TIP3    H131247   1.719   3.755   0.861  0.0040  1.2484 -0.1304
 3204TIP3    H231248   1.683   3.866   0.958 -2.0119  0.0945  0.5225
 3205TIP3   OH231249   5.226   6.413   0.247 -0.3975  0.0482  0.3766
 3205TIP3    H131250   5.181   6.346   0.195 -0.4818 -0.1118  0.6522
 3205TIP3    H231251   5.317   6.383   0.250  0.0888  1.1818 -1.5073
 3206TIP3   OH231252   6.287   1.512   7.224 -0.6488  0.5781  0.1348
 3206TIP3    H131253   6.376   1.477   7.212 -0.6425  1.1703 -1.9270
 3206TIP3    H231254   6.230   1.438   7.208 -0.5443  0.4435  0.3830
 3207TIP3   OH231255   6.407   2.050   1.826  0.0766  0.1672  0.6422
 3207TIP3    H131256   6.464   2.025   1.754 -0.3450  0.4718  0.1985
 3207TIP3    H231257   6.328   1.998   1.814 -0.3181  0.8044  0.4138
 3208TIP3   OH231258   4.629   2.023   2.222 -0.5023  0.1940 -0.3948
 3208TIP3    H131259   4.657   1.934   2.203  0.8824  0.4775  0.1687
 3208TIP3    H231260   4.643   2.033   2.316 -0.2899  1.1099 -0.5126
 3209TIP3   OH231261   3.201   0.293   7.181  0.1056  0.3358  1.0257
 3209TIP3    H131262   3.296   0.293   7.189  0.1074  1.3322  1.1222
 3209TIP3    H231263   3.184   0.257   7.094  0.5230 -0.5908  1.3114
 3210TIP3   OH231264   1.124   6.137   8.798 -0.8163  0.4072  0.0176
 3210TIP3    H131265   1.039   6.139   8.755 -0.7331  2.1489 -0.1511
 3210TIP3    H231266   1.185   6.168   8.732 -0.1131 -0.3536  0.2953
 3211TIP3   OH231267   2.098   2.105   1.294 -0.6699  0.0306 -0.4524
 3211TIP3    H131268   2.020   2.157   1.277 -1.4353 -1.4267 -1.5815
 3211TIP3    H231269   2.065   2.017   1.315  0.6014 -0.1871  0.8840
 3212TIP3   OH231270   2.232   1.528   0.268 -0.1043 -0.3927  0.1859
 3212TIP3    H131271   2.201   1.474   0.195  0.0217  0.2562 -0.3674
 3212TIP3    H231272   2.163   1.595   0.278  0.5129  0.3181 -0.2327
 3213TIP3   OH231273   1.181   2.345   0.580  0.0150 -0.1374  0.2055
 3213TIP3    H131274   1.255   2.286   0.569  1.8192  1.8405  1.0408
 3213TIP3    H231275   1.167   2.382   0.493 -0.6077 -1.1473 -0.1450
 3214TIP3   OH231276   3.233   3.366   2.037  0.0121  0.7455 -0.3137
 3214TIP3    H131277   3.325   3.368   2.065  0.0341  1.7456 -0.3964
 3214TIP3    H231278   3.192   3.301   2.094  0.6763  0.6086  0.0278
 3215TIP3   OH231279   6.432   6.259   0.316  0.6768 -0.2198  0.5014
 3215TIP3    H131280   6.469   6.344   0.292 -0.8214  0.3635  0.1650
 3215TIP3    H231281   6.482   6.196   0.264  0.7980  0.5864 -0.3984
 3216TIP3   OH231282   5.422   1.766   7.981  0.3100 -0.5471  0.4586
 3216TIP3    H131283   5.456   1.843   8.026  2.4072 -1.1794  0.0806
 3216TIP3    H231284   5.375   1.717   8.048  1.3136 -0.2878  1.3718
 3217TIP3   OH231285   2.578   4.688   1.318  0.5149 -0.1692  1.2258
 3217TIP3    H131286   2.599   4.778   1.292 -1.0682  0.0367  0.5490
 3217TIP3    H231287   2.591   4.687   1.413 -0.9220  1.2396  1.4908
 3218TIP3   OH231288   6.751   5.795   1.403 -0.0891  0.1416  0.0587
 3218TIP3    H131289   6.714   5.739   1.334 -2.4890 -0.3836  1.6463
 3218TIP3    H231290   6.682   5.799   1.470  2.0180  0.8245  2.3303
 3219TIP3   OH231291   6.140   6.155   1.344 -0.4435 -0.1509 -0.5111
 3219TIP3    H131292   6.107   6.226   1.287  3.0370  1.1710 -1.1564
 3219TIP3    H231293   6.185   6.096   1.284  0.8852 -0.2485  0.5399
 3220TIP3   OH231294   3.486   0.931   0.976 -0.0657  0.0358 -0.0505
 3220TIP3    H131295   3.559   0.993   0.979 -0.1319  0.0823  1.4340
 3220TIP3    H231296   3.432   0.961   0.902  0.1814  1.4452  0.3124
 3221TIP3   OH231297   2.364   4.883   8.021 -0.1590 -0.3873 -0.3232
 3221TIP3    H131298   2.414   4.832   8.084 -0.2736 -0.5396 -0.3554
 3221TIP3    H231299   2.306   4.937   8.075  0.8736  0.6924 -0.2275
 3222TIP3   OH231300   2.395   5.954   8.420 -0.5227  0.7361  0.4049
 3222TIP3    H131301   2.458   5.893   8.457  0.3056  0.9696 -0.5630
 3222TIP3    H231302   2.311   5.907   8.423 -0.1806  0.1517  1.0535
 3223TIP3   OH231303   3.533   4.993   0.845 -0.5300  0.6467  0.4510
 3223TIP3    H131304   3.455   4.993   0.789 -0.9691 -0.3862  1.0170
 3223TIP3    H231305   3.525   4.912   0.895  1.1439  0.3018  0.2053
 3224TIP3   OH231306   3.439   2.313   6.245 -0.0562  0.0053 -0.2648
 3224TIP3    H131307   3.345   2.324   6.258 -0.1639 -0.5815 -0.4978
 3224TIP3    H231308   3.452   2.218   6.246  0.0097 -0.1447 -3.6036
 3225TIP3   OH231309   6.145   4.832   1.728  0.1160 -0.5729 -0.4529
 3225TIP3    H131310   6.219   4.775   1.711  0.0939 -0.7905  0.1635
 3225TIP3    H231311   6.085   4.779   1.780 -0.1886 -0.1910 -0.4104
 3226TIP3   OH231312   0.997   6.330   8.506  0.6929 -0.1789  0.0608
 3226TIP3    H131313   0.925   6.312   8.566 -0.5442 -0.2213 -1.3866
 3226TIP3    H231314   1.054   6.391   8.554 -1.1009  1.0611  0.7074
 3227TIP3   OH231315   5.422   2.070   8.889  0.2872  0.1190  0.3491
 3227TIP3    H131316   5.361   2.107   8.826 -0.1319 -0.1488  0.5977
 3227TIP3    H231317   5.393   1.980   8.902  2.2898 -0.9049 -1.5389
 3228TIP3   OH231318   3.881   6.513   7.953 -0.1942  0.2403  0.4361
 3228TIP3    H131319   3.828   6.521   7.873  1.6808 -0.4388 -0.9447
 3228TIP3    H231320   3.875   6.599   7.994  0.3398  1.2338 -1.4705
 3229TIP3   OH231321   6.578   6.077   0.144 -0.8317 -0.3852 -0.2807
 3229TIP3    H131322   6.617   6.005   0.194  1.1213  0.9621  0.2653
 3229TIP3    H231323   6.603   6.060   0.054  1.0691  0.3940  0.0465
 3230TIP3   OH231324   4.298   3.069   0.440 -0.1530 -0.0653  0.2421
 3230TIP3    H131325   4.261   2.989   0.402  0.1182 -0.1522  0.1566
 3230TIP3    H231326   4.324   3.122   0.365 -0.7006  0.2812  0.2953
 3231TIP3   OH231327   1.487   3.072   2.015 -0.2934  0.2495  0.0098
 3231TIP3    H131328   1.404   3.055   2.061 -0.1308  0.2955  0.3231
 3231TIP3    H231329   1.498   2.996   1.957  0.1739 -0.5017  1.0337
 3232TIP3   OH231330   1.596   1.619   1.091  0.8198  0.1743 -0.0364
 3232TIP3    H131331   1.608   1.674   1.014 -0.0416  0.1366 -0.2038
 3232TIP3    H231332   1.583   1.531   1.055  0.5681  0.1310  0.1612
 3233TIP3   OH231333   4.499   3.414   8.788  0.0298  0.2728 -0.4979
 3233TIP3    H131334   4.543   3.497   8.802  0.3714 -0.0833  0.6477
 3233TIP3    H231335   4.430   3.434   8.726  0.7034  1.2075 -0.9716
 3234TIP3   OH231336   3.933   3.075   8.929  0.4584 -0.3424 -0.0431
 3234TIP3    H131337   3.854   3.077   8.876  0.9995  1.8941 -0.8595
 3234TIP3    H231338   4.005   3.083   8.866  1.4566 -2.9660  0.6044
 3235TIP3   OH231339   2.538   3.073   6.516  0.4941  0.1344 -0.1614
 3235TIP3    H131340   2.452   3.105   6.491  1.2657  0.3922 -2.7650
 3235TIP3    H231341   2.557   3.002   6.454  2.5071  0.7124 -0.2996
 3236TIP3   OH231342   0.730   0.066   1.897 -0.0922 -0.0126  0.1548
 3236TIP3    H131343   0.649   0.065   1.947 -1.0078  1.8584 -1.2042
 3236TIP3    H231344   0.798   0.086   1.962 -1.0767  1.1243  0.8829
 3237TIP3   OH231345   5.262   0.532   8.292  0.0305  0.2069  0.4708
 3237TIP3    H131346   5.333   0.483   8.334 -1.5412 -0.7948  2.1135
 3237TIP3    H231347   5.200   0.466   8.262 -1.7318  1.0701  1.9655
 3238TIP3   OH231348   6.441   3.818   1.279  0.0105  0.0759 -0.7243
 3238TIP3    H131349   6.369   3.757   1.265 -0.0913  0.1461 -0.5038
 3238TIP3    H231350   6.519   3.772   1.248  0.0388 -0.4311  0.0910
 3239TIP3   OH231351   3.746   1.273   8.808 -0.4253 -0.3837  0.6281
 3239TIP3    H131352   3.711   1.314   8.888  0.5353  1.1622  0.3146
 3239TIP3    H231353   3.839   1.258   8.829  0.9238  3.6833 -1.3790
 3240TIP3   OH231354   3.297   0.763   8.789  0.2828  0.3999  0.0379
 3240TIP3    H131355   3.232   0.702   8.753  1.6023 -0.6532 -0.7004
 3240TIP3    H231356   3.307   0.737   8.881 -1.8120  1.9368  0.7579
 3241TIP3   OH231357   4.085   6.350   7.272  0.5974  0.0999 -0.4806
 3241TIP3    H131358   4.176   6.326   7.290  0.3742 -0.8289 -0.5495
 3241TIP3    H231359   4.051   6.279   7.218 -0.4350 -0.0405  0.3090
 3242TIP3   OH231360   3.880   5.920   0.965 -0.0381  0.1096 -0.6407
 3242TIP3    H131361   3.820   5.855   0.929  0.1627 -0.9277  0.8046
 3242TIP3    H231362   3.874   5.994   0.905 -0.4341 -1.1451 -2.2261
 3243TIP3   OH231363   6.554   0.447   1.957  0.3901  0.4094 -0.6863
 3243TIP3    H131364   6.621   0.505   1.922  1.0452 -0.0583 -0.2102
 3243TIP3    H231365   6.482   0.505   1.981  0.4944  0.8792 -1.4721
 3244TIP3   OH231366   2.433   4.855   6.872  1.2326 -0.0351 -0.2873
 3244TIP3    H131367   2.350   4.875   6.829  0.9571  1.7461  0.9768
 3244TIP3    H231368   2.473   4.788   6.817 -0.9456 -0.8106 -1.0313
 3245TIP3   OH231369   0.201   2.538   6.403  0.1761  0.2199 -0.4030
 3245TIP3    H131370   0.254   2.463   6.430  0.2268 -0.0193 -1.1584
 3245TIP3    H231371   0.238   2.612   6.452  1.8690  0.2399 -1.6433
 3246TIP3   OH231372   6.634   4.606   0.071 -0.2428 -0.3153 -0.7514
 3246TIP3    H131373   6.624   4.526   0.124  0.1247  0.5573  0.6842
 3246TIP3    H231374   6.544   4.638   0.060 -0.3418 -0.6248 -0.8583
 3247TIP3   OH231375   3.463   4.299   2.410  0.3258  0.5127 -0.4247
 3247TIP3    H131376   3.391   4.236   2.416 -0.8267  1.8579  1.4779
 3247TIP3    H231377   3.540   4.247   2.390 -0.6056 -1.5043  0.8851
 3248TIP3   OH231378   0.156   4.698   6.813 -0.7185  0.1333 -0.7403
 3248TIP3    H131379   0.120   4.785   6.797 -1.2027  0.3007  1.0705
 3248TIP3    H231380   0.201   4.706   6.897 -2.6512 -1.8947  0.5840
 3249TIP3   OH231381   0.730   1.563   0.939 -0.5595  0.1929  0.5366
 3249TIP3    H131382   0.657   1.625   0.941  1.4536  2.8149 -0.3987
 3249TIP3    H231383   0.740   1.540   0.846 -1.3312 -1.6829  0.8812
 3250TIP3   OH231384   2.646   0.006   1.970 -0.0432 -0.0613 -0.0254
 3250TIP3    H131385   2.559   0.016   1.933  0.0673  0.8106 -0.0599
 3250TIP3    H231386   2.646  -0.083   2.006 -0.5285 -0.5254 -1.1039
 3251TIP3   OH231387   3.517   4.846   8.608  0.3665  0.0482 -0.1415
 3251TIP3    H131388   3.576   4.774   8.631  0.8764  0.8789  1.3151
 3251TIP3    H231389   3.505   4.893   8.690 -1.5152  0.5118 -0.6445
 3252TIP3   OH231390   0.523   0.783   0.897 -0.1906 -0.3131  0.2314
 3252TIP3    H131391   0.618   0.770   0.890 -0.0394  0.9242 -0.3631
 3252TIP3    H231392   0.488   0.695   0.913  0.9926 -0.9020 -0.2401
 3253TIP3   OH231393   0.400   5.969   1.320  0.6623  0.4849 -0.2639
 3253TIP3    H131394   0.344   5.909   1.371  1.4865  1.4922  1.9817
 3253TIP3    H231395   0.338   6.022   1.270 -0.2943  0.2239  0.5997
 3254TIP3   OH231396   6.102   5.922   7.923 -0.2420 -0.3714 -0.9178
 3254TIP3    H131397   6.017   5.963   7.908 -0.3451 -0.0499  0.3908
 3254TIP3    H231398   6.166   5.991   7.904 -0.4076  0.3884  1.0361
 3255TIP3   OH231399   5.008   5.064   1.328 -0.5285 -0.4574  0.0204
 3255TIP3    H131400   5.094   5.034   1.356  0.0553  0.9601 -0.2029
 3255TIP3    H231401   4.997   5.150   1.368 -1.9101 -0.6667  0.1669
 3256TIP3   OH231402   3.310   4.629   7.336  0.0469 -0.3707  0.1750
 3256TIP3    H131403   3.300   4.708   7.389  0.6483 -0.7499  0.8676
 3256TIP3    H231404   3.259   4.563   7.381 -0.0574 -0.5039 -0.1353
 3257TIP3   OH231405   1.670   5.443   6.140 -0.0000  0.5448  0.4258
 3257TIP3    H131406   1.697   5.529   6.172 -1.7331  1.2509  0.0717
 3257TIP3    H231407   1.732   5.382   6.180  1.3247  1.9576  0.5944
 3258TIP3   OH231408   4.000   6.223   1.934  0.1322  0.1078  0.4531
 3258TIP3    H131409   4.007   6.304   1.884 -1.0904  1.1687  1.9128
 3258TIP3    H231410   4.054   6.237   2.012  2.3355 -1.6746 -0.6418
 3259TIP3   OH231411   2.722   6.276   0.029  0.3131  0.2711  0.0736
 3259TIP3    H131412   2.709   6.317   0.114  2.8187 -0.1181  0.7462
 3259TIP3    H231413   2.808   6.308   0.000  0.8294 -1.8144 -0.9523
 3260TIP3   OH231414   4.195   5.005   7.326  0.0267  0.2181 -0.2874
 3260TIP3    H131415   4.222   4.936   7.387 -2.2615 -1.5789 -1.1660
 3260TIP3    H231416   4.268   5.014   7.266  1.0286 -0.2687  0.8191
 3261TIP3   OH231417   1.929   5.454   8.601 -0.1054 -0.4252 -0.8411
 3261TIP3    H131418   1.946   5.363   8.625 -1.0697 -0.4755 -0.2732
 3261TIP3    H231419   1.843   5.473   8.640  0.5880  1.0760  0.0325
 3262TIP3   OH231420   4.888   2.825   0.228  0.1099  0.5400  0.5738
 3262TIP3    H131421   4.933   2.910   0.228 -0.8245  1.0657  1.8063
 3262TIP3    H231422   4.958   2.761   0.215  0.7071  1.5306 -1.4791
 3263TIP3   OH231423   4.787   4.977   2.026 -0.1889 -0.0144 -0.0895
 3263TIP3    H131424   4.828   4.894   2.050 -1.8557 -0.7491  0.3489
 3263TIP3    H231425   4.717   4.952   1.966  0.1030  1.2217 -0.9775
 3264TIP3   OH231426   5.970   1.856   8.018 -0.3541  0.2803 -0.6072
 3264TIP3    H131427   6.041   1.792   8.016 -0.9545 -0.5370  1.2736
 3264TIP3    H231428   6.010   1.938   7.993  0.3161 -0.8796 -3.7901
 3265TIP3   OH231429   1.572   1.849   0.575 -0.2387  0.0570  0.1221
 3265TIP3    H131430   1.638   1.816   0.514 -0.0184  0.3921  0.1743
 3265TIP3    H231431   1.490   1.845   0.527  0.1139  1.4949 -0.6367
 3266TIP3   OH231432   1.118   1.605   8.393  0.3472 -0.2804 -0.1154
 3266TIP3    H131433   1.172   1.664   8.446  0.5985  0.5432 -1.2341
 3266TIP3    H231434   1.119   1.645   8.306 -1.3854 -0.7020 -0.3574
 3267TIP3   OH231435   2.001   2.192   0.961 -0.2857  0.0246 -0.0193
 3267TIP3    H131436   1.965   2.118   1.011 -0.5290 -0.0726 -0.3364
 3267TIP3    H231437   2.081   2.156   0.921 -0.7400 -0.2530 -0.6845
 3268TIP3   OH231438   5.732   5.274   8.308  0.0993 -0.1804  0.1757
 3268TIP3    H131439   5.815   5.297   8.267  0.3661 -0.2679  0.6586
 3268TIP3    H231440   5.675   5.349   8.291  0.4188  0.0771  0.2267
 3269TIP3   OH231441   4.059   4.584   7.432  0.0513  0.1082  0.3953
 3269TIP3    H131442   4.137   4.583   7.377  0.5956 -1.9546  1.1130
 3269TIP3    H231443   4.060   4.670   7.473  2.0844  0.0559  0.5506
 3270TIP3   OH231444   6.271   4.750   8.656  0.2220 -0.1051  0.2863
 3270TIP3    H131445   6.285   4.727   8.565 -2.0803 -0.7791  0.0399
 3270TIP3    H231446   6.180   4.780   8.660  0.1976 -0.2670  2.3817
 3271TIP3   OH231447   0.364   4.656   1.989 -0.3441  0.6238  0.0246
 3271TIP3    H131448   0.415   4.576   2.000 -2.0591 -0.6437 -0.8533
 3271TIP3    H231449   0.330   4.676   2.076  1.1819  1.2210  0.5250
 3272TIP3   OH231450   0.564   4.396   7.599 -0.3735 -0.4732 -0.3744
 3272TIP3    H131451   0.554   4.308   7.564 -1.7954 -0.7595  0.6630
 3272TIP3    H231452   0.507   4.398   7.676 -1.9568  1.9688 -1.4866
 3273TIP3   OH231453   6.283   4.297   1.126 -0.2064 -0.1766  0.1391
 3273TIP3    H131454   6.281   4.285   1.221 -1.0350  0.1780  0.1741
 3273TIP3    H231455   6.194   4.323   1.103 -0.2009 -0.9812 -0.8385
 3274TIP3   OH231456   6.051   0.355   0.936 -0.3908 -0.0100  0.2315
 3274TIP3    H131457   6.052   0.441   0.896 -0.6113 -0.6293 -1.1760
 3274TIP3    H231458   5.989   0.304   0.883 -0.2291 -1.0485  0.9915
 3275TIP3   OH231459   4.055   0.288   0.631  0.2429  0.3303  0.2862
 3275TIP3    H131460   4.141   0.289   0.589  0.4954  0.6494  0.8072
 3275TIP3    H231461   4.072   0.263   0.722 -0.0858  1.3656  0.6505
 3276TIP3   OH231462   4.307   1.547   8.980  0.0977  0.2887  0.6013
 3276TIP3    H131463   4.285   1.472   9.035  0.1720 -0.6181 -0.5727
 3276TIP3    H231464   4.283   1.623   9.033 -1.3600 -0.5748  1.2483
 3277TIP3   OH231465   6.752   1.385   7.659  0.5411 -0.4276  0.6668
 3277TIP3    H131466   6.765   1.377   7.565  0.3930  2.8932  0.2317
 3277TIP3    H231467   6.661   1.361   7.674  0.4117 -0.4515 -0.1386
 3278TIP3   OH231468   4.157   0.988   7.156  0.0850 -0.0549 -0.7161
 3278TIP3    H131469   4.073   1.003   7.200 -0.6141 -2.6990 -1.0022
 3278TIP3    H231470   4.215   0.955   7.225  0.1565 -0.5168 -0.9921
 3279TIP3   OH231471   0.178   5.415   8.148 -0.4932  0.1381 -0.1002
 3279TIP3    H131472   0.265   5.438   8.116 -0.5466 -2.2055 -2.1711
 3279TIP3    H231473   0.193   5.344   8.210 -0.9180 -0.4594 -0.6660
 3280TIP3   OH231474   0.355   0.338   8.576 -0.2859  0.3189 -0.1846
 3280TIP3    H131475   0.447   0.349   8.553 -0.1491 -1.1939 -0.4549
 3280TIP3    H231476   0.353   0.259   8.630 -1.7714 -1.6391 -2.8744
 3281TIP3   OH231477   0.203   4.806   6.218  0.2624  0.6157 -0.2118
 3281TIP3    H131478   0.220   4.736   6.281 -0.6303  0.1462 -0.4861
 3281TIP3    H231479   0.286   4.819   6.173  0.9483  1.0175  1.1147
 3282TIP3   OH231480   0.678   3.775   0.790  0.1380 -0.2556 -0.2437
 3282TIP3    H131481   0.729   3.779   0.871 -0.8185 -0.9575  0.4081
 3282TIP3    H231482   0.649   3.865   0.776  1.5091  0.1551 -0.6182
 3283TIP3   OH231483   0.907   4.147   1.016  0.6099  0.1978  0.0269
 3283TIP3    H131484   0.935   4.193   0.936  1.1126  0.2517  0.2344
 3283TIP3    H231485   0.811   4.144   1.009  0.5595  1.3610  0.0528
 3284TIP3   OH231486   6.385   1.740   0.340 -0.1535 -0.3685  0.2333
 3284TIP3    H131487   6.408   1.833   0.351  0.5026 -0.4181 -0.6541
 3284TIP3    H231488   6.387   1.705   0.429 -3.2638  1.0753  1.0460
 3285TIP3   OH231489   1.061   0.553   0.195  0.2682  0.3111  0.0515
 3285TIP3    H131490   1.101   0.478   0.151 -0.6395 -0.5133  0.5962
 3285TIP3    H231491   1.088   0.544   0.287 -1.5463 -0.5703  0.5437
 3286TIP3   OH231492   4.227   0.440   2.629  0.2147  0.1069 -1.0458
 3286TIP3    H131493   4.217   0.354   2.589  0.1255 -0.0630 -0.6639
 3286TIP3    H231494   4.321   0.445   2.650 -0.0273 -0.5115  0.2788
 3287TIP3   OH231495   3.484   4.267   0.365  0.1879 -0.3195  0.1457
 3287TIP3    H131496   3.407   4.239   0.415  0.0931 -1.5881 -0.6488
 3287TIP3    H231497   3.461   4.247   0.274  1.0812  0.2140 -0.2104
 3288TIP3   OH231498   6.094   2.810   1.556  0.0685 -0.1567  0.7851
 3288TIP3    H131499   6.019   2.793   1.499 -0.0642 -2.3902  1.5160
 3288TIP3    H231500   6.063   2.875   1.619 -0.5744  0.4473 -0.1328
 3289TIP3   OH231501   0.037   4.352   7.888  0.1925 -0.2498  0.9227
 3289TIP3    H131502   0.022   4.439   7.851 -0.5299 -0.5878  0.4069
 3289TIP3    H231503   0.067   4.369   7.977  0.3254  0.5341  0.7398
 3290TIP3   OH231504   3.465   5.929   8.803  0.1984 -0.2959 -0.1480
 3290TIP3    H131505   3.526   5.859   8.827 -0.9993 -0.8345  1.5556
 3290TIP3    H231506   3.434   5.905   8.716  0.9236 -1.0940 -0.1952
 3291TIP3   OH231507   5.773   3.373   8.823  0.3456 -0.1223  0.7382
 3291TIP3    H131508   5.764   3.400   8.915  0.5313  0.2325  0.6574
 3291TIP3    H231509   5.780   3.456   8.775  0.5535 -0.3127  0.4388
 3292TIP3   OH231510   2.999   3.493   1.061  0.3798  0.4715 -0.2476
 3292TIP3    H131511   2.941   3.558   1.021 -2.7295 -0.3534  2.4800
 3292TIP3    H231512   2.995   3.418   1.002  1.4801  1.5819 -1.8120
 3293TIP3   OH231513   2.255   5.661   1.050 -0.3277  0.0098  0.0785
 3293TIP3    H131514   2.330   5.709   1.014  0.0950  0.9212  2.0376
 3293TIP3    H231515   2.250   5.581   0.998  1.2804  0.4613 -0.8347
 3294TIP3   OH231516   5.031   0.037   7.432 -0.4483 -0.2795 -0.0132
 3294TIP3    H131517   5.102  -0.022   7.405  1.7175  0.6529  3.0749
 3294TIP3    H231518   4.951  -0.016   7.422  1.1492 -3.0233  0.6265
 3295TIP3   OH231519   5.769   2.727   0.104  0.2967 -0.5359 -0.6224
 3295TIP3    H131520   5.840   2.790   0.120 -0.3956  0.1405 -0.1567
 3295TIP3    H231521   5.738   2.748   0.016 -0.2415  0.0931 -0.2896
 3296TIP3   OH231522   0.133   1.149   1.974 -0.2725  0.4588 -0.1334
 3296TIP3    H131523   0.101   1.199   2.049  0.2907 -0.8257  1.0151
 3296TIP3    H231524   0.061   1.150   1.911 -1.0668  0.8952  0.7621
 3297TIP3   OH231525   0.024   0.254   7.820 -0.1312  0.0870 -0.5639
 3297TIP3    H131526   0.022   0.290   7.732 -1.3912 -1.8985 -1.4221
 3297TIP3    H231527  -0.065   0.267   7.854  0.6262  1.8434  0.8991
 3298TIP3   OH231528   3.969   0.967   0.423 -0.4301 -0.3803 -0.1525
 3298TIP3    H131529   3.937   1.020   0.496 -0.4600  1.2438 -1.3126
 3298TIP3    H231530   3.977   1.027   0.350  2.2082 -1.3628 -0.8135
 3299TIP3   OH231531   3.876   1.323   7.837 -0.6761 -0.3056 -0.0034
 3299TIP3    H131532   3.905   1.266   7.766  0.5321  1.9237 -1.3701
 3299TIP3    H231533   3.840   1.400   7.794  1.8289  1.9831  1.7296
 3300TIP3   OH231534   1.268   4.512   1.091  0.0773 -0.0696 -0.2997
 3300TIP3    H131535   1.332   4.441   1.085  2.4656  2.0458 -1.8764
 3300TIP3    H231536   1.309   4.576   1.149 -1.0105  0.9781 -0.6612
 3301TIP3   OH231537   1.237   0.787   1.276  0.6125 -0.5013  0.3643
 3301TIP3    H131538   1.246   0.840   1.355 -0.6659  0.4277 -0.0741
 3301TIP3    H231539   1.185   0.842   1.216 -1.6469 -2.5998  0.2513
 3302TIP3   OH231540   4.542   4.961   7.661  0.0407  0.1831  0.2716
 3302TIP3    H131541   4.606   4.891   7.647 -0.7310 -0.7304  1.1702
 3302TIP3    H231542   4.546   5.014   7.581 -0.3211 -1.6664 -1.0108
 3303TIP3   OH231543   2.941   1.778   6.803 -0.4149  0.3984  0.3314
 3303TIP3    H131544   2.911   1.863   6.771 -0.4731  0.4009  0.3940
 3303TIP3    H231545   2.998   1.799   6.877 -1.3509  0.3276  1.0874
 3304TIP3   OH231546   5.753   1.479   7.443 -0.2493  0.3817 -0.6789
 3304TIP3    H131547   5.765   1.386   7.425  0.4378  0.1925  0.5971
 3304TIP3    H231548   5.685   1.482   7.510  1.9269  0.5014  1.6814
 3305TIP3   OH231549   1.696   2.449   8.949 -0.0092  0.5562  0.4558
 3305TIP3    H131550   1.717   2.496   8.868  2.2610  0.2786  0.8225
 3305TIP3    H231551   1.750   2.491   9.016 -0.8081 -0.1223  1.5600
 3306TIP3   OH231552   4.946   4.388   1.106  0.4579 -0.1888  0.9229
 3306TIP3    H131553   5.035   4.383   1.071  0.3308 -1.0709  0.6959
 3306TIP3    H231554   4.927   4.482   1.111  1.5858  0.0191  1.4706
 3307TIP3   OH231555   4.197   1.755   8.302  0.1453 -0.1391 -0.7181
 3307TIP3    H131556   4.271   1.728   8.248  0.5089  2.8685 -1.9056
 3307TIP3    H231557   4.235   1.811   8.370 -0.7942 -0.4805  0.1135
 3308TIP3   OH231558   3.938   5.539   8.171  0.6594  0.1404  0.4228
 3308TIP3    H131559   4.023   5.565   8.136  0.3233 -0.5936 -1.0395
 3308TIP3    H231560   3.876   5.568   8.104 -0.1542 -0.1228  1.0525
 3309TIP3   OH231561   5.225   6.196   8.262  0.0545 -0.7236 -0.0556
 3309TIP3    H131562   5.188   6.114   8.295  0.9015 -1.3720 -0.6660
 3309TIP3    H231563   5.292   6.220   8.326 -0.8689  0.0465  0.6508
 3310TIP3   OH231564   5.418   0.508   1.902  0.5344  0.2714  0.7163
 3310TIP3    H131565   5.371   0.578   1.857  0.3835  1.2448  2.3003
 3310TIP3    H231566   5.355   0.437   1.908  0.6046  0.0698 -0.6903
 3311TIP3   OH231567   6.563   0.256   8.098  0.5376  0.3485 -0.3485
 3311TIP3    H131568   6.470   0.278   8.104  0.4032 -0.0419 -0.9096
 3311TIP3    H231569   6.606   0.338   8.075  0.3643  0.5885  0.1772
 3312TIP3   OH231570   0.166   0.358   0.732  0.4428 -0.4182 -0.0516
 3312TIP3    H131571   0.200   0.323   0.649  0.4640  1.4143 -0.8503
 3312TIP3    H231572   0.178   0.452   0.725 -0.2474 -0.1637  1.7513
 3313TIP3   OH231573   4.475   0.250   1.454 -0.2698 -0.1522 -0.7329
 3313TIP3    H131574   4.407   0.259   1.388 -0.3422 -2.4429 -1.0571
 3313TIP3    H231575   4.427   0.247   1.537 -0.3571  0.5242 -0.7534
 3314TIP3   OH231576   3.063   0.497   7.083 -0.7201 -0.8364  0.1539
 3314TIP3    H131577   3.122   0.538   7.019 -1.1303  0.3219  0.4905
 3314TIP3    H231578   3.118   0.434   7.130 -0.3987 -1.6742 -1.2887
 3315TIP3   OH231579   5.590   0.176   0.864  0.2359 -0.3135  0.0097
 3315TIP3    H131580   5.555   0.143   0.947  0.0786 -2.4962 -0.8430
 3315TIP3    H231581   5.549   0.262   0.853 -0.4984 -0.4018  1.7061
 3316TIP3   OH231582   1.749   5.909   8.607 -0.0978  0.1198  0.1000
 3316TIP3    H131583   1.775   5.951   8.689 -1.6515  0.7867  0.2880
 3316TIP3    H231584   1.723   5.982   8.550  1.8437 -0.2321 -1.3825
 3317TIP3   OH231585   0.852   5.580   7.859 -0.0601  0.1050 -0.0639
 3317TIP3    H131586   0.886   5.529   7.933 -0.3559  0.5299  0.3709
 3317TIP3    H231587   0.874   5.670   7.881 -0.3134  0.2502 -0.4096
 3318TIP3   OH231588   3.429   4.557   2.489  0.1059  0.3185 -0.0387
 3318TIP3    H131589   3.448   4.466   2.467  0.1301  0.8837 -2.6931
 3318TIP3    H231590   3.343   4.574   2.450 -0.3205  1.1962  1.2209
 3319TIP3   OH231591   6.050   4.424   7.194  0.0606  0.2125 -0.6437
 3319TIP3    H131592   6.064   4.515   7.169 -1.7070  0.6470 -0.1840
 3319TIP3    H231593   6.001   4.386   7.120 -1.9440  0.5200  0.4557
 3320TIP3   OH231594   0.849   1.546   8.018 -0.4445  0.5677 -0.5144
 3320TIP3    H131595   0.904   1.624   8.017 -2.2733  1.9332  0.3962
 3320TIP3    H231596   0.911   1.473   8.013  1.4292  2.0150  0.3956
 3321TIP3   OH231597   6.561   6.449   0.001 -0.0989 -0.3088 -0.3308
 3321TIP3    H131598   6.550   6.502   0.080  2.7214  2.1685 -1.4358
 3321TIP3    H231599   6.632   6.389   0.022 -0.1775 -0.5016 -0.6117
 3322TIP3   OH231600   1.249   5.174   7.768 -0.2828 -0.2586  0.3164
 3322TIP3    H131601   1.213   5.091   7.737 -0.6011  0.4354 -1.2752
 3322TIP3    H231602   1.195   5.241   7.725 -1.2935  0.8297  3.0165
 3323TIP3   OH231603   1.733   1.190   1.215 -0.2628  0.0248  0.1041
 3323TIP3    H131604   1.639   1.209   1.211 -0.3251 -0.4128 -1.1817
 3323TIP3    H231605   1.774   1.264   1.170 -0.0135  0.0933  0.4470
 3324TIP3   OH231606   3.253   0.756   0.840 -0.5178  0.9116 -0.8527
 3324TIP3    H131607   3.265   0.703   0.919 -1.9573  0.8602 -0.6554
 3324TIP3    H231608   3.255   0.693   0.768 -2.9475  0.4370 -0.5692
 3325TIP3   OH231609   0.800   3.557   0.332 -0.2620 -0.1297 -0.5911
 3325TIP3    H131610   0.879   3.517   0.295 -0.7323 -0.7382 -0.9671
 3325TIP3    H231611   0.790   3.639   0.284 -0.0798 -0.2424 -0.8258
 3326TIP3   OH231612   5.660   1.712   2.778 -0.2180  0.1334  0.0315
 3326TIP3    H131613   5.703   1.765   2.710  0.7049  0.1777  0.6297
 3326TIP3    H231614   5.571   1.699   2.745 -0.0131  0.7852 -0.8336
 3327TIP3   OH231615   5.026   2.296   0.912  0.0832 -0.0603 -0.0849
 3327TIP3    H131616   4.940   2.302   0.872  0.0368 -0.1048  0.0074
 3327TIP3    H231617   5.077   2.365   0.870 -0.2891  0.6415  0.5904
 3328TIP3   OH231618   6.631   0.518   0.545 -1.0763  0.4087  0.3127
 3328TIP3    H131619   6.699   0.474   0.494 -1.2018 -0.2706  0.7147
 3328TIP3    H231620   6.562   0.538   0.482 -2.0502 -2.0756  0.4847
 3329TIP3   OH231621   1.737   3.024   7.877  0.2025  0.3248  0.0374
 3329TIP3    H131622   1.782   3.098   7.836  1.4878 -0.1774  0.4775
 3329TIP3    H231623   1.804   2.956   7.882 -0.2569 -0.0448  1.8388
 3330TIP3   OH231624   3.206   4.837   0.787 -0.1219 -0.3190 -0.7865
 3330TIP3    H131625   3.244   4.859   0.702  2.0532  2.5970  0.7107
 3330TIP3    H231626   3.272   4.782   0.830 -1.0447 -1.4824 -0.8072
 3331TIP3   OH231627   4.891   1.060   7.770  0.0400 -0.3281 -0.7577
 3331TIP3    H131628   4.854   0.982   7.811  1.4369 -1.8046 -2.1648
 3331TIP3    H231629   4.985   1.053   7.787 -0.0282  2.4047  1.2477
 3332TIP3   OH231630   6.493   4.164   7.919  0.5798 -0.2914 -0.3690
 3332TIP3    H131631   6.518   4.251   7.950  3.2550 -1.2826  0.5841
 3332TIP3    H231632   6.505   4.167   7.824 -2.0764  1.0993 -0.7559
 3333TIP3   OH231633   3.652   4.347   1.492 -0.8725  0.4096  0.1021
 3333TIP3    H131634   3.588   4.368   1.424 -0.6079 -0.1160 -0.3230
 3333TIP3    H231635   3.658   4.252   1.490 -2.0870  0.2557  2.0199
 3334TIP3   OH231636   2.833   0.150   1.843  0.2838 -0.1899  0.3689
 3334TIP3    H131637   2.927   0.141   1.862  0.2031 -0.9555  0.4241
 3334TIP3    H231638   2.792   0.078   1.891 -0.4859  0.8693  1.3802
 3335TIP3   OH231639   4.422   5.436   2.782 -0.0687  0.5284  0.6953
 3335TIP3    H131640   4.359   5.405   2.847  0.8985 -2.0596  0.5333
 3335TIP3    H231641   4.396   5.391   2.701  2.8722 -2.1416  1.0052
 3336TIP3   OH231642   3.470   4.530   0.408 -0.1572 -0.2564  0.1823
 3336TIP3    H131643   3.390   4.524   0.460  1.8570  0.9149  3.7436
 3336TIP3    H231644   3.490   4.439   0.386 -1.5544 -0.7322  0.7132
 3337TIP3   OH231645   4.822   6.396   0.896 -0.0672 -0.2166  0.1679
 3337TIP3    H131646   4.916   6.393   0.881  0.1186 -2.1184  1.3944
 3337TIP3    H231647   4.787   6.322   0.845 -0.7360 -0.2389  0.6421
 3338TIP3   OH231648   0.619   2.375   1.684  0.4768 -0.1965 -0.3808
 3338TIP3    H131649   0.709   2.370   1.717  0.3368  2.0271  0.5799
 3338TIP3    H231650   0.626   2.421   1.600  0.2632 -0.0422 -0.3176
 3339TIP3   OH231651   1.573   3.267   7.267 -0.2599  0.3206 -0.1390
 3339TIP3    H131652   1.549   3.321   7.192  0.4917 -1.3661 -1.6791
 3339TIP3    H231653   1.664   3.289   7.285 -0.5817  1.0758  0.6262
 3340TIP3   OH231654   6.360   0.340   0.222 -0.0567 -0.3646  0.2265
 3340TIP3    H131655   6.332   0.411   0.280 -1.0993 -0.2558 -0.3821
 3340TIP3    H231656   6.309   0.353   0.142  0.1475 -1.4847 -0.1057
 3341TIP3   OH231657   2.863   4.460   7.946  0.1725 -0.4774 -0.3509
 3341TIP3    H131658   2.943   4.407   7.954  0.5480  0.0700 -0.4143
 3341TIP3    H231659   2.895   4.547   7.923 -0.2270  0.4855  2.3378
 3342TIP3   OH231660   3.752   5.017   7.548  0.1110 -0.1846 -0.2628
 3342TIP3    H131661   3.783   4.940   7.500 -1.0183 -1.0602  0.3508
 3342TIP3    H231662   3.807   5.089   7.517  0.2921 -0.9750 -1.8839
 3343TIP3   OH231663   5.637   4.985   1.537  0.1239 -0.0167 -0.7599
 3343TIP3    H131664   5.688   5.061   1.566 -1.3886  0.4310  0.9022
 3343TIP3    H231665   5.682   4.910   1.576  0.2623  0.2445 -0.4118
 3344TIP3   OH231666   4.714   3.554   1.518  0.2544 -0.1883  0.1620
 3344TIP3    H131667   4.790   3.497   1.506  0.6773 -0.0738  2.0483
 3344TIP3    H231668   4.694   3.586   1.430  2.2473 -0.3889 -0.4065
 3345TIP3   OH231669   0.893   4.141   1.408 -0.2035 -0.1180 -0.0963
 3345TIP3    H131670   0.914   4.175   1.495 -0.3182 -1.1097  0.3322
 3345TIP3    H231671   0.858   4.216   1.360  0.8847  0.7012  0.3527
 3346TIP3   OH231672   2.066   4.607   7.266 -0.4109  0.5443 -0.2586
 3346TIP3    H131673   2.037   4.687   7.223 -0.4155  1.0571  0.6658
 3346TIP3    H231674   2.158   4.597   7.238 -0.3942  0.8997 -0.3360
 3347TIP3   OH231675   5.715   0.052   2.145 -0.0074 -0.2363  0.4026
 3347TIP3    H131676   5.626   0.040   2.177 -0.5807 -1.2438 -1.4515
 3347TIP3    H231677   5.749   0.127   2.195 -1.4398 -0.5880  1.9936
 3348TIP3   OH231678   4.259   1.111   0.247  0.4101  0.0414 -0.3106
 3348TIP3    H131679   4.256   1.042   0.312  0.7181  1.3149  1.1163
 3348TIP3    H231680   4.241   1.067   0.164 -0.1679 -1.5947  0.6415
 3349TIP3   OH231681   5.584   1.112   1.089  0.7508  0.0702 -0.4741
 3349TIP3    H131682   5.596   1.029   1.135  0.4630 -0.7271 -1.7789
 3349TIP3    H231683   5.586   1.178   1.158  1.0463 -1.0099  0.5888
 3350TIP3   OH231684   5.743   1.408   8.917 -0.0555 -0.3636 -0.0600
 3350TIP3    H131685   5.678   1.430   8.850  1.7112  1.2450 -1.3441
 3350TIP3    H231686   5.795   1.488   8.927  1.2501 -1.3453  1.5009
 3351TIP3   OH231687   1.303   3.323   1.393 -0.2977 -0.1462  0.4479
 3351TIP3    H131688   1.326   3.233   1.416  0.8535  0.1500  0.4865
 3351TIP3    H231689   1.387   3.366   1.376 -0.8774  0.7188 -0.3289
 3352TIP3   OH231690   5.465   6.047   0.230  0.1714  0.3217 -0.1782
 3352TIP3    H131691   5.530   6.098   0.181  1.9447 -1.1229  0.5485
 3352TIP3    H231692   5.439   6.106   0.301  1.4032  0.6223  0.0543
 3353TIP3   OH231693   5.506   5.178   6.814  0.3736 -0.4564  0.4580
 3353TIP3    H131694   5.492   5.261   6.860 -0.9217 -0.8904  0.8869
 3353TIP3    H231695   5.590   5.146   6.848  0.2942  0.0860  1.2035
 3354TIP3   OH231696   5.101   0.594   0.579  0.4028 -0.4939  0.1367
 3354TIP3    H131697   5.030   0.533   0.598 -1.3621  0.4761 -2.6136
 3354TIP3    H231698   5.073   0.676   0.618  0.3968 -0.3221 -0.2187
 3355TIP3   OH231699   5.393   1.629   8.192  0.4080  0.7645 -0.0762
 3355TIP3    H131700   5.478   1.586   8.194 -0.4915 -1.1058  1.3059
 3355TIP3    H231701   5.386   1.673   8.277 -1.1006 -1.5491  1.0964
 3356TIP3   OH231702   5.045   0.976   8.315 -0.5918  0.2226  0.0952
 3356TIP3    H131703   5.138   0.954   8.328 -0.9347 -1.1308  0.4452
 3356TIP3    H231704   5.026   0.948   8.226 -0.7589  0.1127  0.1640
 3357TIP3   OH231705   3.088   1.003   7.655 -0.2756  0.7100  0.0388
 3357TIP3    H131706   3.145   0.947   7.602 -0.4143  1.3872 -0.8373
 3357TIP3    H231707   3.120   0.992   7.745 -0.2042 -0.6529 -0.1316
 3358TIP3   OH231708   0.150   3.359   0.814  0.7332  0.9032  0.0031
 3358TIP3    H131709   0.099   3.400   0.744 -0.2461  1.0402  0.7662
 3358TIP3    H231710   0.126   3.408   0.893 -1.0048 -1.4951  1.0809
 3359TIP3   OH231711   0.396   1.187   1.974  0.1696  0.2497 -0.1211
 3359TIP3    H131712   0.306   1.158   1.957  0.4308 -1.7149  1.5413
 3359TIP3    H231713   0.415   1.158   2.063  2.3879  0.8298 -0.3417
 3360TIP3   OH231714   4.361   3.860   2.362  0.0005 -0.1555  1.0482
 3360TIP3    H131715   4.353   3.952   2.386  1.8345  0.0613  0.9852
 3360TIP3    H231716   4.314   3.853   2.278 -0.7047  0.5643  1.3687
 3361TIP3   OH231717   6.259   4.296   2.365  0.4432  0.0284 -0.1951
 3361TIP3    H131718   6.340   4.284   2.316  0.7280 -1.2614  0.5579
 3361TIP3    H231719   6.191   4.257   2.311  0.6036 -0.4876 -0.0263
 3362TIP3   OH231720   0.118   4.806   1.302 -0.1681 -0.7450 -0.1994
 3362TIP3    H131721   0.196   4.790   1.355  0.9295  2.4766 -0.6481
 3362TIP3    H231722   0.046   4.802   1.365  0.7852 -0.0565  0.9914
 3363TIP3   OH231723   1.258   3.129   8.588  0.6713 -0.4878 -0.1076
 3363TIP3    H131724   1.278   3.036   8.577  0.4106 -0.5151 -0.3830
 3363TIP3    H231725   1.224   3.136   8.677  0.4094 -0.7108 -0.1877
 3364TIP3   OH231726   3.941   1.479   8.529 -0.1165 -0.0809 -0.5096
 3364TIP3    H131727   4.019   1.452   8.578  0.1157  1.7157  0.1849
 3364TIP3    H231728   3.943   1.574   8.532 -1.4169  0.0293 -1.9918
 3365TIP3   OH231729   0.928   2.309   7.871  0.1111  0.5112  0.0962
 3365TIP3    H131730   0.992   2.250   7.831 -1.3080 -0.2633 -1.1750
 3365TIP3    H231731   0.850   2.254   7.883 -1.1276  2.0019 -0.7511
 3366TIP3   OH231732   4.235   5.964   2.157 -0.3233  0.1644  0.1273
 3366TIP3    H131733   4.329   5.971   2.136 -0.5049  0.1196 -0.7450
 3366TIP3    H231734   4.231   5.978   2.252  1.0506 -3.9506  1.0063
 3367TIP3   OH231735   3.673   2.670   8.387  0.1945 -0.1167  0.1522
 3367TIP3    H131736   3.600   2.732   8.386  0.1775  0.0630  3.2093
 3367TIP3    H231737   3.749   2.722   8.364 -0.1821  0.4644  0.1978
 3368TIP3   OH231738   2.616   0.182   0.306 -0.0855 -0.3795  0.2165
 3368TIP3    H131739   2.671   0.121   0.259  0.0543 -0.5425  0.5925
 3368TIP3    H231740   2.549   0.128   0.348  1.0759 -0.5051  2.0434
 3369TIP3   OH231741   0.103   0.761   0.978  0.3527 -0.3434 -0.1886
 3369TIP3    H131742   0.035   0.769   1.045  0.5095 -0.7781  0.0224
 3369TIP3    H231743   0.185   0.764   1.027  0.6140  2.4996 -0.6026
 3370TIP3   OH231744   0.679   2.711   0.404  0.0662 -0.2431 -0.2975
 3370TIP3    H131745   0.772   2.695   0.387  0.3122  0.3912  0.3744
 3370TIP3    H231746   0.669   2.806   0.392 -0.3883 -0.2378  0.1099
 3371TIP3   OH231747   1.980   2.848   7.867  0.0777 -0.0767  0.0297
 3371TIP3    H131748   2.042   2.920   7.878  2.5559 -1.9155 -1.1736
 3371TIP3    H231749   2.018   2.775   7.916 -1.6176 -1.0235  0.0148
 3372TIP3   OH231750   3.768   0.835   8.993  0.4127  0.3188  0.0166
 3372TIP3    H131751   3.725   0.906   8.946  0.2078 -0.0246 -0.3240
 3372TIP3    H231752   3.711   0.818   9.068  1.1954  1.4651  0.9147
 3373TIP3   OH231753   1.741   2.432   6.500 -0.2660 -0.7917 -0.1071
 3373TIP3    H131754   1.803   2.374   6.457  0.1874  0.1529 -0.7690
 3373TIP3    H231755   1.669   2.440   6.438 -1.0664 -1.8584  0.6445
 3374TIP3   OH231756   1.430   5.924   0.887 -0.2284 -0.5074 -0.0860
 3374TIP3    H131757   1.369   5.932   0.961  0.0542 -1.3147  0.2510
 3374TIP3    H231758   1.393   5.854   0.834  0.2580 -0.8131 -0.0241
 3375TIP3   OH231759   3.082   6.531   8.459  0.6327  0.4395  0.1037
 3375TIP3    H131760   3.017   6.509   8.393 -0.8688  1.7304  1.0935
 3375TIP3    H231761   3.156   6.565   8.408 -0.1239  0.5703 -0.9521
 3376TIP3   OH231762   1.068   2.294   0.276  0.1781  0.4495  0.2432
 3376TIP3    H131763   1.095   2.354   0.207  1.0361 -0.3558 -0.1529
 3376TIP3    H231764   1.008   2.345   0.331 -0.9758  0.9386 -1.3997
 3377TIP3   OH231765   4.180   2.254   6.461  0.3429  0.4644  0.2067
 3377TIP3    H131766   4.203   2.343   6.487 -1.0378  0.4749  1.5111
 3377TIP3    H231767   4.089   2.260   6.431  0.0333 -0.6125  0.8898
 3378TIP3   OH231768   4.949   1.407   1.213  0.2380  0.6086 -0.0437
 3378TIP3    H131769   4.886   1.480   1.210 -1.0497 -0.3628  1.3695
 3378TIP3    H231770   4.900   1.332   1.178  0.6906 -0.1070  0.8152
 3379TIP3   OH231771   3.649   5.788   0.879  0.4148  0.0006 -0.9439
 3379TIP3    H131772   3.596   5.777   0.801  0.5827  2.1955 -1.4309
 3379TIP3    H231773   3.590   5.770   0.952 -0.3097 -0.0315 -1.5332
 3380TIP3   OH231774   0.271   4.356   8.302  0.1525 -0.0592  0.2298
 3380TIP3    H131775   0.269   4.299   8.379  2.6643  0.4950  0.7871
 3380TIP3    H231776   0.251   4.443   8.337 -2.4189 -0.3064 -0.4216
 3381TIP3   OH231777   2.561   1.346   6.715 -0.6404  0.3645  0.7801
 3381TIP3    H131778   2.618   1.271   6.726 -1.8988 -0.7002  0.3574
 3381TIP3    H231779   2.489   1.331   6.777 -1.1090  1.0065  0.4122
 3382TIP3   OH231780   0.399   3.352   8.991 -0.1635 -0.5216 -0.0286
 3382TIP3    H131781   0.322   3.409   8.988 -1.2608 -1.9707 -0.8225
 3382TIP3    H231782   0.389   3.295   8.915  0.5384 -2.1969  1.0886
 3383TIP3   OH231783   4.536   6.133   8.656 -0.0473  0.5011 -0.3763
 3383TIP3    H131784   4.486   6.086   8.589 -3.7616  0.9370  1.7747
 3383TIP3    H231785   4.614   6.164   8.611 -0.9565 -1.5783 -3.7071
 3384TIP3   OH231786   0.458   5.267   0.673 -0.2039 -0.7093 -0.3906
 3384TIP3    H131787   0.483   5.319   0.750 -3.4151  1.7773 -0.8174
 3384TIP3    H231788   0.534   5.273   0.615  0.4945  1.5525  0.6303
 3385TIP3   OH231789   0.382   4.622   0.050  0.6669  0.7757  0.0392
 3385TIP3    H131790   0.356   4.543   0.003  0.1907  0.7933  0.2605
 3385TIP3    H231791   0.474   4.609   0.071  1.7011  1.9087 -3.1971
 3386TIP3   OH231792   2.304   1.716   8.311 -0.8100  0.2140  0.0147
 3386TIP3    H131793   2.245   1.788   8.332 -0.8035  0.2367 -0.0433
 3386TIP3    H231794   2.283   1.648   8.374 -0.8526  0.2473  0.0363
 3387TIP3   OH231795   0.078   6.096   7.971 -0.2655  0.8642 -0.2577
 3387TIP3    H131796   0.164   6.056   7.959 -0.4100  0.6403 -0.5810
 3387TIP3    H231797   0.091   6.162   8.039  0.4226  1.6297 -1.0940
 3388TIP3   OH231798   1.040   3.386   0.264  0.5758 -0.0835  0.1779
 3388TIP3    H131799   1.021   3.298   0.233 -0.3159 -0.5595  1.9148
 3388TIP3    H231800   1.114   3.375   0.324  0.3890  0.3051  0.4902
 3389TIP3   OH231801   2.037   2.655   8.617  0.7717  0.1633  0.0949
 3389TIP3    H131802   2.050   2.723   8.551  1.2108 -0.2893 -0.2944
 3389TIP3    H231803   2.104   2.590   8.598 -0.3546 -0.9291 -0.2555
 3390TIP3   OH231804   5.189   0.921   7.040  0.1644  0.1942  0.4935
 3390TIP3    H131805   5.157   1.010   7.052 -1.5635 -0.4291  0.8587
 3390TIP3    H231806   5.133   0.884   6.971  1.2670 -0.4168 -0.0967
 3391TIP3   OH231807   0.861   5.282   6.928 -0.1311 -0.1030 -0.0537
 3391TIP3    H131808   0.886   5.329   7.008 -0.1360 -0.5478  0.2083
 3391TIP3    H231809   0.841   5.193   6.957  0.1053 -0.3312 -0.5882
 3392TIP3   OH231810   4.408   3.172   1.968 -0.1677  0.0173 -0.0806
 3392TIP3    H131811   4.316   3.166   1.993  0.5262 -1.4783  2.4580
 3392TIP3    H231812   4.457   3.162   2.050  2.2798  2.5427 -1.0552
 3393TIP3   OH231813   4.870   1.349   8.712  0.3466 -0.0761 -0.5470
 3393TIP3    H131814   4.952   1.359   8.664  0.5114  2.7128  0.1519
 3393TIP3    H231815   4.893   1.367   8.803 -0.4267 -2.8484  0.3032
 3394TIP3   OH231816   2.725   6.034   8.122 -0.0842  0.3724  0.3421
 3394TIP3    H131817   2.747   6.085   8.045  0.8480 -1.7447 -0.9008
 3394TIP3    H231818   2.785   5.959   8.119 -0.0444  0.1700  3.0997
 3395TIP3   OH231819   5.026   1.291   8.943  0.1480 -0.9521  0.2434
 3395TIP3    H131820   5.061   1.357   9.003  0.4772 -0.7256 -0.1857
 3395TIP3    H231821   4.950   1.255   8.988 -2.1786  2.1084 -0.8331
 3396TIP3   OH231822   2.610   0.640   0.172 -0.5716  0.3513  0.7509
 3396TIP3    H131823   2.552   0.704   0.131 -0.5045  1.3631  2.1561
 3396TIP3    H231824   2.573   0.627   0.259  1.4593  1.2986  1.8216
 3397TIP3   OH231825   4.852   1.169   2.380 -0.3875 -0.2428  0.4752
 3397TIP3    H131826   4.932   1.200   2.422 -1.5770  1.0486  1.9230
 3397TIP3    H231827   4.882   1.115   2.307  1.7844  0.4008  0.8324
 3398TIP3   OH231828   2.529   2.846   0.302  0.4129  0.3474 -0.4861
 3398TIP3    H131829   2.574   2.849   0.386 -2.8351 -0.7080  1.4798
 3398TIP3    H231830   2.538   2.755   0.274  2.2897  0.8945 -1.8895
 3399TIP3   OH231831   1.630   0.238   0.415 -0.3948  0.6790 -0.0004
 3399TIP3    H131832   1.602   0.180   0.486  0.9958 -0.3939 -0.2598
 3399TIP3    H231833   1.722   0.213   0.400 -0.0451  2.3232 -0.7770
 3400TIP3   OH231834   1.065   1.633   7.390 -0.2196 -0.1974 -0.1526
 3400TIP3    H131835   1.022   1.547   7.392 -0.6048  0.0040  1.1212
 3400TIP3    H231836   1.086   1.647   7.298 -1.4667 -1.0084 -0.5831
 3401TIP3   OH231837   1.679   5.420   1.712 -0.5097  0.0213 -0.0086
 3401TIP3    H131838   1.657   5.331   1.740  1.6415 -0.2711  0.9878
 3401TIP3    H231839   1.712   5.410   1.623  0.4431 -0.3458  0.3631
 3402TIP3   OH231840   4.000   5.821   0.004 -0.5815 -0.0591 -0.1722
 3402TIP3    H131841   3.973   5.799  -0.085 -0.5139  2.4491 -0.9074
 3402TIP3    H231842   3.932   5.783   0.060  0.7005 -3.9395 -0.9460
 3403TIP3   OH231843   0.093   1.069   0.074  0.4932  0.1384  0.0186
 3403TIP3    H131844   0.084   1.038  -0.016 -1.6924  0.0807  0.2111
 3403TIP3    H231845   0.173   1.121   0.074 -0.6659  2.0942 -2.5553
 3404TIP3   OH231846   2.988   6.724   1.985 -0.2758  0.3116  0.3099
 3404TIP3    H131847   3.064   6.773   2.017 -0.9525  0.7898  1.2465
 3404TIP3    H231848   2.928   6.723   2.059 -1.1497 -0.1373 -0.3905
 3405TIP3   OH231849   4.231   4.924   0.231 -0.1328  0.2836  0.3080
 3405TIP3    H131850   4.223   5.015   0.203 -0.1302 -0.5341 -2.6907
 3405TIP3    H231851   4.303   4.889   0.179 -0.7513 -1.6792  0.6783
 3406TIP3   OH231852   4.953   2.889   1.718  0.4881 -0.2783  0.2876
 3406TIP3    H131853   5.036   2.843   1.725  0.3861 -0.6499 -0.7525
 3406TIP3    H231854   4.894   2.841   1.776  0.7953 -0.4955  0.4224
 3407TIP3   OH231855   1.674   5.024   7.867  0.2867 -0.2794  0.1668
 3407TIP3    H131856   1.658   4.961   7.797  1.9360  0.2224 -0.7309
 3407TIP3    H231857   1.626   5.102   7.840 -1.6627 -1.0657  1.2211
 3408TIP3   OH231858   4.561   1.478   7.574 -0.0267  0.3317 -0.4271
 3408TIP3    H131859   4.641   1.507   7.618  0.2041 -1.2692  0.2716
 3408TIP3    H231860   4.516   1.559   7.550  1.7537  1.2720 -0.7839
 3409TIP3   OH231861   1.223   1.119   6.286 -0.3686 -0.1456 -0.1970
 3409TIP3    H131862   1.235   1.030   6.317 -0.8132  0.4025  1.6541
 3409TIP3    H231863   1.174   1.163   6.355 -0.3299  1.4957 -1.1452
 3410TIP3   OH231864   5.842   0.700   7.904 -0.2365 -0.2719 -0.6173
 3410TIP3    H131865   5.763   0.669   7.859 -1.3363  0.4376  0.7508
 3410TIP3    H231866   5.861   0.632   7.969 -0.5921  0.2321  0.0278
 3411TIP3   OH231867   1.535   2.302   6.625 -0.0683  0.1105 -0.5310
 3411TIP3    H131868   1.544   2.214   6.661  0.2474  0.2198 -0.3385
 3411TIP3    H231869   1.619   2.344   6.643 -0.3789  0.6003 -0.2218
 3412TIP3   OH231870   3.200   0.603   1.054 -0.5344 -0.4566  0.2546
 3412TIP3    H131871   3.131   0.544   1.085 -0.8722  1.0249  2.4871
 3412TIP3    H231872   3.272   0.591   1.116  0.4185 -0.3925 -0.7993
 3413TIP3   OH231873   6.004   4.634   8.659  0.0914  0.2287  0.1252
 3413TIP3    H131874   5.978   4.717   8.698  2.0172  0.6022  0.7011
 3413TIP3    H231875   6.005   4.573   8.733 -0.9179 -0.2313 -0.2242
 3414TIP3   OH231876   4.803   6.326   8.613 -0.1602  0.4787 -0.0725
 3414TIP3    H131877   4.770   6.386   8.680  0.4370 -0.7369  1.3751
 3414TIP3    H231878   4.867   6.272   8.659  0.8870  0.1418 -1.8534
 3415TIP3   OH231879   1.525   3.315   8.411 -0.1236 -0.3764 -0.2240
 3415TIP3    H131880   1.468   3.340   8.484 -0.8991  1.1019 -1.2838
 3415TIP3    H231881   1.583   3.248   8.447 -2.1997 -1.5991  1.0436
 3416TIP3   OH231882   4.213   6.610   1.555 -0.2994 -0.1532 -0.2620
 3416TIP3    H131883   4.164   6.563   1.488 -0.8603  1.1751 -0.8279
 3416TIP3    H231884   4.304   6.605   1.527 -0.2612 -1.4072  0.0278
 3417TIP3   OH231885   6.344   0.601   8.087 -0.0387  0.0639  0.4903
 3417TIP3    H131886   6.377   0.690   8.099  3.2068 -0.9812  0.4174
 3417TIP3    H231887   6.333   0.592   7.993  1.9887 -0.2727  0.2404
 3418TIP3   OH231888   6.394   3.257   1.391 -0.0530  0.0299  0.1376
 3418TIP3    H131889   6.322   3.318   1.377  0.0028 -0.0278 -0.4535
 3418TIP3    H231890   6.439   3.254   1.306 -0.1309 -0.9218  0.1180
 3419TIP3   OH231891   3.888   3.274   0.139  0.4314  0.9740 -0.3104
 3419TIP3    H131892   3.910   3.346   0.081  1.3595  1.0316  0.0765
 3419TIP3    H231893   3.891   3.196   0.084  3.3105  0.7648 -0.0277
 3420TIP3   OH231894   0.246   4.441   6.705  0.3677  0.1470  0.1652
 3420TIP3    H131895   0.307   4.478   6.642  0.6617 -1.0898 -0.3046
 3420TIP3    H231896   0.205   4.517   6.747  2.1891  1.0101  0.4770
 3421TIP3   OH231897   4.494   4.238   0.468  0.4007 -0.4904  0.0247
 3421TIP3    H131898   4.504   4.163   0.526  2.0039 -1.4341 -1.3991
 3421TIP3    H231899   4.558   4.224   0.398 -1.4331  0.5932 -1.9886
 3422TIP3   OH231900   2.028   6.716   0.995 -0.4196  0.3468  0.5566
 3422TIP3    H131901   2.109   6.754   1.030 -0.6824  0.9794  0.4904
 3422TIP3    H231902   2.010   6.641   1.053  1.1631 -0.9168 -0.4992
 3423TIP3   OH231903   3.122   4.337   2.124 -0.3921  0.0352 -0.2274
 3423TIP3    H131904   3.131   4.256   2.174  0.5922  0.1553 -0.1799
 3423TIP3    H231905   3.156   4.405   2.182  1.2956  0.0986 -1.2233
 3424TIP3   OH231906   4.354   2.538   1.178  0.1526  0.0920 -0.3017
 3424TIP3    H131907   4.338   2.630   1.157  2.3600  0.4405 -0.7045
 3424TIP3    H231908   4.449   2.532   1.189  0.0549 -2.1330 -0.2084
 3425TIP3   OH231909   3.992   5.752   8.725  0.4765 -0.3466 -0.0582
 3425TIP3    H131910   3.967   5.675   8.776  0.0253  0.2037  0.5756
 3425TIP3    H231911   3.987   5.723   8.634  2.5182 -1.7107  0.2086
 3426TIP3   OH231912   2.452   4.723   8.454 -0.0311  0.2131 -0.5203
 3426TIP3    H131913   2.363   4.698   8.432  1.0660 -0.4612 -5.1021
 3426TIP3    H231914   2.447   4.816   8.475 -1.7382  0.2742 -1.0648
 3427TIP3   OH231915   0.055   2.473   2.661 -0.0187 -0.2836 -0.0844
 3427TIP3    H131916   0.107   2.485   2.741 -0.1335  0.2865 -0.0941
 3427TIP3    H231917   0.118   2.441   2.596  0.6727  1.8303 -0.5209
 3428TIP3   OH231918   5.523   5.127   8.506 -0.2275 -0.0937  0.3241
 3428TIP3    H131919   5.544   5.071   8.431 -0.6801 -0.1685  0.2504
 3428TIP3    H231920   5.481   5.069   8.569 -0.0686  0.0208  0.5396
 3429TIP3   OH231921   5.036   6.139   0.371 -0.3128  0.5841  0.6845
 3429TIP3    H131922   5.034   6.216   0.427  2.1545  0.6253  0.8197
 3429TIP3    H231923   5.043   6.065   0.431  2.7806  0.6553  0.5322
 3430TIP3   OH231924   6.073   1.606   1.753  0.9576  0.1221 -0.0340
 3430TIP3    H131925   6.159   1.630   1.718 -0.1730  0.7895 -2.6440
 3430TIP3    H231926   6.055   1.520   1.715  0.7675 -0.3629  1.1241
 3431TIP3   OH231927   1.396   5.223   2.004 -0.1217  0.3910 -0.0850
 3431TIP3    H131928   1.309   5.228   2.045 -0.1815 -1.4852  0.1140
 3431TIP3    H231929   1.453   5.188   2.073  0.9179  1.9883 -0.0859
 3432TIP3   OH231930   6.623   5.715   0.695  0.1227  0.0233 -0.4721
 3432TIP3    H131931   6.661   5.802   0.710 -1.6129  0.4297  2.3276
 3432TIP3    H231932   6.599   5.685   0.783 -1.8438 -2.1011 -1.6552
 3433TIP3   OH231933   6.758   4.068   1.643 -0.3728 -0.1778 -0.2854
 3433TIP3    H131934   6.684   4.009   1.657 -0.1774 -0.3285  0.1547
 3433TIP3    H231935   6.761   4.121   1.723 -0.9831  0.9184 -0.9770
 3434TIP3   OH231936   6.396   3.593   0.210 -0.2141  0.0193  0.2013
 3434TIP3    H131937   6.403   3.614   0.117 -2.8652  1.9883  0.3133
 3434TIP3    H231938   6.429   3.671   0.255 -0.7366 -0.1373  0.8768
 3435TIP3   OH231939   2.164   5.531   8.801  0.1588  0.4161  0.0063
 3435TIP3    H131940   2.225   5.533   8.875 -2.9450  0.4953  2.7885
 3435TIP3    H231941   2.161   5.438   8.775 -0.8757 -0.1786  2.0444
 3436TIP3   OH231942   5.263   4.775   0.288 -0.1524  0.2272  0.2226
 3436TIP3    H131943   5.305   4.861   0.288 -0.5862  0.4668 -0.8122
 3436TIP3    H231944   5.275   4.743   0.198 -1.6074  0.0340  0.0668
 3437TIP3   OH231945   3.668   4.824   7.728  0.1456  0.0942  0.0413
 3437TIP3    H131946   3.683   4.885   7.655 -0.8641 -0.3371 -0.5511
 3437TIP3    H231947   3.746   4.769   7.729  0.5614  0.6657 -0.1460
 3438TIP3   OH231948   5.300   3.489   8.140 -0.0400  0.7475 -0.1562
 3438TIP3    H131949   5.369   3.546   8.173  0.3806  1.1432 -1.6436
 3438TIP3    H231950   5.252   3.543   8.078  0.2138 -0.4215 -1.4153
 3439TIP3   OH231951   2.340   5.028   0.752  0.4782 -0.1637 -0.3933
 3439TIP3    H131952   2.306   4.939   0.761  0.1397  0.0549  0.6098
 3439TIP3    H231953   2.434   5.020   0.768  0.0650  0.0456  2.6954
 3440TIP3   OH231954   6.703   0.247   7.214  0.2422  0.1100 -0.0027
 3440TIP3    H131955   6.758   0.258   7.136  0.1861  1.7839  0.1548
 3440TIP3    H231956   6.664   0.333   7.227  2.0264  0.5627  3.2464
 3441TIP3   OH231957   2.706   3.073   8.077 -0.1002 -0.4628  0.1560
 3441TIP3    H131958   2.775   3.017   8.114 -0.8184 -1.3764  0.1549
 3441TIP3    H231959   2.634   3.013   8.059  0.5672 -0.3639 -3.8529
 3442TIP3   OH231960   3.551   0.469   8.158 -0.0559 -1.2443 -0.3496
 3442TIP3    H131961   3.596   0.515   8.229 -0.9119  0.5644 -0.9139
 3442TIP3    H231962   3.609   0.482   8.082 -1.8036  1.9830 -1.3329
 3443TIP3   OH231963   4.549   5.631   1.562  0.4445  0.6289 -0.2017
 3443TIP3    H131964   4.567   5.564   1.628  0.2163  0.4119 -0.3578
 3443TIP3    H231965   4.571   5.713   1.605  0.1982  0.4971  0.1796
 3444TIP3   OH231966   2.542   2.279   7.018 -0.1200  0.0181 -0.1602
 3444TIP3    H131967   2.595   2.233   7.084 -1.1390 -1.0839 -0.0827
 3444TIP3    H231968   2.453   2.276   7.051 -0.5013  0.3416 -1.1106
 3445TIP3   OH231969   1.727   0.384   7.855  0.4112 -0.5592  0.2328
 3445TIP3    H131970   1.711   0.304   7.805  0.1528 -0.4358  0.1187
 3445TIP3    H231971   1.689   0.454   7.802 -2.8622 -0.7622  2.1028
 3446TIP3   OH231972   4.862   1.159   8.374 -0.4499 -0.2329 -0.2986
 3446TIP3    H131973   4.937   1.100   8.366 -1.2973 -1.1405 -2.3989
 3446TIP3    H231974   4.900   1.247   8.376  0.7026 -0.7177 -0.1897
 3447TIP3   OH231975   1.953   4.657   1.534 -0.2836  0.9383  0.0136
 3447TIP3    H131976   1.906   4.693   1.610  0.3382 -0.7481  1.2782
 3447TIP3    H231977   1.910   4.572   1.518  0.4033  0.7205 -0.7163
 3448TIP3   OH231978   6.053   3.480   0.021 -0.5159 -0.3568 -0.0127
 3448TIP3    H131979   5.970   3.501   0.064 -0.8023 -1.8882  0.2545
 3448TIP3    H231980   6.075   3.558  -0.029 -1.9489  0.2041  0.1914
 3449TIP3   OH231981   4.734   1.308   0.019 -0.2514  0.3508  0.3294
 3449TIP3    H131982   4.653   1.307   0.070  0.9752  1.2254  2.3816
 3449TIP3    H231983   4.714   1.365  -0.055 -1.6367  0.2036  0.5551
 3450TIP3   OH231984   6.462   5.023   0.594 -0.7560 -0.5848  0.1962
 3450TIP3    H131985   6.543   5.015   0.644 -1.5933  0.0718  1.7371
 3450TIP3    H231986   6.417   5.098   0.634 -1.1947  0.3774 -1.9935
 3451TIP3   OH231987   5.719   5.757   2.137  0.4599  0.5312  0.5623
 3451TIP3    H131988   5.739   5.848   2.114 -1.2298  0.7550 -0.2011
 3451TIP3    H231989   5.663   5.764   2.214 -0.3081  0.1935  0.0448
 3452TIP3   OH231990   3.135   0.966   7.920  0.3718 -0.1819  0.3538
 3452TIP3    H131991   3.193   0.890   7.930 -0.0005 -0.5579 -0.2710
 3452TIP3    H231992   3.140   1.011   8.004  0.9296 -0.6658  0.5878
 3453TIP3   OH231993   5.739   0.321   7.818  0.0325 -0.3387  0.1126
 3453TIP3    H131994   5.816   0.265   7.809 -0.7468 -1.2802 -0.7994
 3453TIP3    H231995   5.671   0.279   7.766 -1.1958  0.3383  1.1064
 3454TIP3   OH231996   3.462   5.370   7.951 -0.3454  0.4101 -0.2561
 3454TIP3    H131997   3.456   5.353   8.045  3.1515  2.9271  0.6210
 3454TIP3    H231998   3.536   5.317   7.922  0.9044  2.2789 -0.6935
 3455TIP3   OH231999   1.044   4.475   0.218  0.1517  0.1124 -0.3276
 3455TIP3    H132000   0.991   4.507   0.291  1.5889 -0.2052  0.9087
 3455TIP3    H232001   1.120   4.433   0.260  1.6293  0.9692 -1.9975
 3456TIP3   OH232002   0.333   5.385   2.610 -0.4549  0.3164 -0.0378
 3456TIP3    H132003   0.241   5.360   2.622 -0.6002  0.6260 -0.4547
 3456TIP3    H232004   0.381   5.332   2.673 -0.9081  0.0582  0.0960
 3457TIP3   OH232005   5.836   6.264   8.725  0.2344  0.7624 -0.6611
 3457TIP3    H132006   5.893   6.303   8.658  0.0115 -0.5520 -1.6631
 3457TIP3    H232007   5.880   6.284   8.808  2.7721 -1.0065 -1.4234
 3458TIP3   OH232008   2.215   6.697   7.134  0.6110  0.4404 -0.2803
 3458TIP3    H132009   2.242   6.644   7.059 -1.8023  0.7868 -1.5061
 3458TIP3    H232010   2.184   6.634   7.199  1.6675  0.1838 -0.0230
 3459TIP3   OH232011   0.345   2.179   7.150 -0.1322 -0.2191 -0.1306
 3459TIP3    H132012   0.353   2.212   7.239  1.2103  0.9370 -0.6411
 3459TIP3    H232013   0.281   2.237   7.108 -0.5805 -0.6133 -0.0080
 3460TIP3   OH232014   1.460   2.540   7.735  0.4856  0.1474 -0.2419
 3460TIP3    H132015   1.439   2.473   7.669  2.0543 -0.4801 -0.1736
 3460TIP3    H232016   1.552   2.561   7.718  0.6728  0.6015  1.2081
 3461TIP3   OH232017   3.506   3.892   8.349  0.2026 -0.3248  0.4017
 3461TIP3    H132018   3.434   3.906   8.410 -1.6167 -1.3791 -1.3688
 3461TIP3    H232019   3.513   3.797   8.342  0.4261 -0.2267 -0.9173
 3462TIP3   OH232020   3.400   5.886   7.982 -0.2213 -0.5664 -0.2909
 3462TIP3    H132021   3.419   5.794   7.964 -1.0383 -0.6244 -0.9642
 3462TIP3    H232022   3.429   5.900   8.072  1.8076 -0.9333 -0.8314
 3463TIP3   OH232023   3.177   2.165   0.268  0.4367  0.0168 -0.1171
 3463TIP3    H132024   3.106   2.222   0.239  2.0122  1.9268 -0.5144
 3463TIP3    H232025   3.157   2.147   0.360 -0.6041  0.4054 -0.2528
 3464TIP3   OH232026   0.148   4.123   1.103 -0.1118 -0.4171  0.8505
 3464TIP3    H132027   0.067   4.171   1.120 -1.0323 -0.2555 -3.0418
 3464TIP3    H232028   0.216   4.189   1.108 -1.1553  1.1554 -2.5592
 3465TIP3   OH232029   3.689   5.038   1.693  0.0225 -0.1923  0.2736
 3465TIP3    H132030   3.747   4.964   1.712  0.0161 -0.1540  0.4397
 3465TIP3    H232031   3.612   4.998   1.652 -0.9188 -0.5247  2.2576
 3466TIP3   OH232032   2.990   6.524   1.797  0.6520 -0.2212  0.2875
 3466TIP3    H132033   3.079   6.499   1.824  0.3649 -0.9639  0.5633
 3466TIP3    H232034   2.971   6.603   1.848  1.8147  0.9921 -1.0595
 3467TIP3   OH232035   6.335   1.261   0.468 -0.4317 -0.0612 -0.5733
 3467TIP3    H132036   6.381   1.279   0.387  2.0616 -0.3494  0.6934
 3467TIP3    H232037   6.398   1.283   0.537 -2.4720  0.2520  1.3038
 3468TIP3   OH232038   1.057   6.609   8.084 -0.6529  0.9991  0.1806
 3468TIP3    H132039   0.971   6.568   8.093 -1.0465  2.2012  2.8180
 3468TIP3    H232040   1.049   6.692   8.131  1.9069  1.2256  0.3492
 3469TIP3   OH232041   1.379   3.867   7.310 -0.7688 -0.1087  0.2228
 3469TIP3    H132042   1.419   3.902   7.390  2.4183  0.8376 -1.6171
 3469TIP3    H232043   1.333   3.941   7.271 -1.2540 -0.2483  0.5166
 3470TIP3   OH232044   1.840   3.544   1.053 -0.2571 -0.5673 -0.2133
 3470TIP3    H132045   1.779   3.615   1.030 -0.5215 -0.9796 -0.8237
 3470TIP3    H232046   1.887   3.577   1.130 -1.2602 -0.2427  0.2869
 3471TIP3   OH232047   5.146   5.788   8.946 -0.5073  0.1784 -0.1504
 3471TIP3    H132048   5.226   5.779   8.998 -1.0824  1.6750  1.0658
 3471TIP3    H232049   5.165   5.739   8.865  0.2744 -2.6063  1.5705
 3472TIP3   OH232050   2.807   2.375   7.218 -0.0241 -0.0279 -0.1483
 3472TIP3    H132051   2.828   2.281   7.226 -0.4632 -0.1764 -0.6849
 3472TIP3    H232052   2.861   2.417   7.285  2.5153 -0.3237 -1.8795
 3473TIP3   OH232053   2.171   1.105   0.572 -0.2751  0.2766 -0.2795
 3473TIP3    H132054   2.079   1.099   0.597  0.0363 -1.6348  0.5739
 3473TIP3    H232055   2.172   1.171   0.503 -2.1472  0.9427  0.2544
 3474TIP3   OH232056   0.497   2.202   1.155  0.2955  0.0114 -0.4799
 3474TIP3    H132057   0.490   2.121   1.105 -0.7168  0.0566 -0.4275
 3474TIP3    H232058   0.407   2.224   1.179  0.2607  2.3847 -2.4160
 3475TIP3   OH232059   1.606   1.962   8.791  0.4233  0.6216  0.5861
 3475TIP3    H132060   1.541   1.974   8.861  0.0169 -2.9877  1.0272
 3475TIP3    H232061   1.691   1.969   8.836  0.2056  0.5671  1.0153
 3476TIP3   OH232062   4.808   6.659   8.842  0.2691 -0.2554  0.0899
 3476TIP3    H132063   4.889   6.706   8.863  1.5850 -0.8617 -2.9985
 3476TIP3    H232064   4.795   6.600   8.916  2.6435 -0.0755  0.7486
 3477TIP3   OH232065   2.264   4.185   6.846 -0.9519  0.4271 -0.1822
 3477TIP3    H132066   2.206   4.261   6.839 -0.4144  0.8188 -0.4902
 3477TIP3    H232067   2.345   4.213   6.804 -0.7242 -0.3008 -0.2431
 3478TIP3   OH232068   3.581   0.861   7.531 -0.0248 -0.3452  0.2029
 3478TIP3    H132069   3.577   0.955   7.512  0.3693 -0.3981 -0.1557
 3478TIP3    H232070   3.606   0.821   7.448 -0.3411 -0.7842  0.3195
 3479TIP3   OH232071   1.681   0.768   7.211  0.0759  0.6403  0.0741
 3479TIP3    H132072   1.648   0.848   7.172 -0.4110  0.5967  0.3891
 3479TIP3    H232073   1.683   0.704   7.140 -1.1159  0.4660  0.1752
 3480TIP3   OH232074   3.010   4.229   6.913 -0.1008 -0.7507  0.0687
 3480TIP3    H132075   3.071   4.194   6.978  0.5153 -0.1704 -0.1811
 3480TIP3    H232076   2.990   4.318   6.944  0.0677 -0.5312 -0.4431
 3481TIP3   OH232077   0.597   2.573   8.492 -0.3307  0.3540 -0.1795
 3481TIP3    H132078   0.551   2.651   8.523 -0.9762 -0.0103 -0.1893
 3481TIP3    H232079   0.574   2.504   8.555  2.6274  0.8145  1.5608
 3482TIP3   OH232080   6.542   4.786   8.400 -0.0018  0.3369 -0.2063
 3482TIP3    H132081   6.460   4.750   8.366 -0.0764 -0.5575  0.8676
 3482TIP3    H232082   6.526   4.880   8.406  0.0036  0.5408 -2.5366
 3483TIP3   OH232083   5.800   0.232   2.334 -0.3392  0.4143  0.2863
 3483TIP3    H132084   5.726   0.278   2.373  0.6472  1.9014  0.4904
 3483TIP3    H232085   5.874   0.290   2.349  0.7124 -0.6405 -0.6813
 3484TIP3   OH232086   2.203   5.877   7.335  0.5886 -0.1272 -0.1717
 3484TIP3    H132087   2.166   5.889   7.423  0.0383  0.6622 -0.4921
 3484TIP3    H232088   2.297   5.869   7.350  0.3968 -1.1045  0.5752
 3485TIP3   OH232089   1.396   2.097   7.629  0.2996 -0.3155  0.0334
 3485TIP3    H132090   1.469   2.132   7.578  0.3792 -0.5512 -0.0156
 3485TIP3    H232091   1.392   2.005   7.605 -1.7083  0.2182 -1.9633
 3486TIP3   OH232092   3.893   2.613   1.621  0.3633  0.2615 -0.8800
 3486TIP3    H132093   3.942   2.688   1.585  0.8420  0.0830 -0.6164
 3486TIP3    H232094   3.893   2.549   1.550  3.0837 -0.9151  0.0249
 3487TIP3   OH232095   6.274   5.733   8.336 -0.0968  0.8015 -0.3934
 3487TIP3    H132096   6.277   5.730   8.240 -1.4420 -0.9709 -0.4230
 3487TIP3    H232097   6.366   5.738   8.362  0.3886 -0.1609 -1.7705
 3488TIP3   OH232098   5.866   3.532   7.934 -0.0232  0.1001 -0.1801
 3488TIP3    H132099   5.864   3.441   7.963 -0.2894 -0.0174 -0.5667
 3488TIP3    H232100   5.899   3.580   8.010  0.5219 -0.3672 -0.1187
 3489TIP3   OH232101   0.856   2.979   8.569 -0.2869 -0.4273  0.3443
 3489TIP3    H132102   0.817   2.895   8.545  0.3128 -0.8562  0.8346
 3489TIP3    H232103   0.935   2.956   8.619 -0.2950  0.4257  0.7748
 3490TIP3   OH232104   3.247   5.550   7.069  0.1578 -0.1278 -0.0510
 3490TIP3    H132105   3.297   5.485   7.118 -0.9699  0.0486  1.4162
 3490TIP3    H232106   3.313   5.601   7.021  1.2393 -0.8376  0.6442
 3491TIP3   OH232107   3.392   2.262   0.721  0.6826 -0.4336  0.1323
 3491TIP3    H132108   3.310   2.285   0.677  0.6566 -0.1818  0.3104
 3491TIP3    H232109   3.453   2.242   0.650  0.9339  0.9395 -0.0733
 3492TIP3   OH232110   2.383   3.304   0.761 -0.3549 -0.0646 -0.0657
 3492TIP3    H132111   2.328   3.316   0.838 -1.8610  0.7873 -1.2301
 3492TIP3    H232112   2.383   3.209   0.747  1.7634 -0.5165  2.1900
 3493TIP3   OH232113   3.935   2.543   8.242  0.0717 -0.1185  0.4598
 3493TIP3    H132114   3.887   2.488   8.180  0.7775  0.3046 -0.4854
 3493TIP3    H232115   4.022   2.554   8.202  0.2206  0.9581  1.0565
 3494TIP3   OH232116   2.130   5.974   2.036 -0.1339  0.4602  0.6343
 3494TIP3    H132117   2.187   6.012   2.102  0.7231 -0.7670  0.6435
 3494TIP3    H232118   2.057   5.937   2.085 -0.0453  0.4967  0.7924
 3495TIP3   OH232119   5.769   2.350   8.802  0.0958 -0.3366  0.0101
 3495TIP3    H132120   5.792   2.286   8.869 -1.2727 -1.0501 -0.1713
 3495TIP3    H232121   5.704   2.406   8.843 -1.9781 -1.7519 -1.1307
 3496TIP3   OH232122   3.708   4.308   8.389  0.5461  0.6349 -0.1771
 3496TIP3    H132123   3.720   4.215   8.408  0.4254  0.5464 -0.5316
 3496TIP3    H232124   3.782   4.331   8.333  1.5064  1.1591  1.2599
 3497TIP3   OH232125   3.346   1.503   1.007 -0.1617 -0.0701  0.1102
 3497TIP3    H132126   3.367   1.592   0.978  0.8506 -0.5361 -0.6528
 3497TIP3    H232127   3.362   1.448   0.930 -1.2569 -0.8650  0.4219
 3498TIP3   OH232128   6.696   5.532   8.194 -0.0983 -0.1020  0.0786
 3498TIP3    H132129   6.786   5.497   8.194  0.9931  2.4416  1.4379
 3498TIP3    H232130   6.701   5.611   8.140 -2.0484 -0.9200 -1.4137
 3499TIP3   OH232131   5.298   0.811   1.165 -0.0224 -0.1367 -0.0443
 3499TIP3    H132132   5.267   0.733   1.212 -1.0921 -0.2875 -0.9696
 3499TIP3    H232133   5.250   0.810   1.083 -0.3678  1.7416  0.1031
 3500TIP3   OH232134   2.192   4.525   1.264 -0.1989  0.0746  0.1276
 3500TIP3    H132135   2.134   4.449   1.261 -0.5298 -0.0076  3.7917
 3500TIP3    H232136   2.235   4.519   1.350  1.6722  2.6988 -0.4902
 3501TIP3   OH232137   1.264   0.226   7.394  0.1593  0.0517  0.6315
 3501TIP3    H132138   1.240   0.270   7.313  1.3354 -1.3328 -0.5461
 3501TIP3    H232139   1.228   0.137   7.385  0.9212 -0.3442  1.3005
 3502TIP3   OH232140   5.749   6.045   1.223  0.2505  0.0465  0.5017
 3502TIP3    H132141   5.764   6.130   1.180 -0.3295 -0.0571  0.0869
 3502TIP3    H232142   5.825   5.992   1.199 -0.7738 -0.5353 -1.7228
 3503TIP3   OH232143   1.821   2.037   1.104 -0.2860  0.1266  0.2251
 3503TIP3    H132144   1.779   2.090   1.172 -2.7110 -0.1334 -0.9548
 3503TIP3    H232145   1.825   1.949   1.142 -0.3597  0.2526  0.5272
 3504TIP3   OH232146   3.065   5.089   1.266 -0.0175 -0.4465 -0.2445
 3504TIP3    H132147   3.070   5.115   1.358 -0.8381  2.2697 -0.8750
 3504TIP3    H232148   3.156   5.083   1.238  0.2318 -0.8940  0.5985
 3505TIP3   OH232149   2.594   3.690   8.208  0.2942 -0.1671  0.2558
 3505TIP3    H132150   2.602   3.634   8.131  1.8015  1.1425 -0.6045
 3505TIP3    H232151   2.502   3.719   8.206 -0.5282 -2.5157  0.7388
 3506TIP3   OH232152   2.267   0.528   7.790  0.2064 -0.6040 -0.2415
 3506TIP3    H132153   2.171   0.531   7.791  0.0966  0.7252  4.0070
 3506TIP3    H232154   2.293   0.620   7.778  1.1137 -1.1009 -2.7448
 3507TIP3   OH232155   1.224   4.030   7.612 -0.4633  0.4008 -0.1736
 3507TIP3    H132156   1.203   3.947   7.655 -0.4731  0.6728  0.3475
 3507TIP3    H232157   1.231   4.093   7.683  0.8766  0.5774 -0.4176
 3508TIP3   OH232158   4.123   6.757   0.119 -0.0649  0.2556  0.6244
 3508TIP3    H132159   4.155   6.836   0.076 -0.7512 -0.7017 -1.8404
 3508TIP3    H232160   4.076   6.710   0.050 -1.5031 -1.2970  2.5543
 3509TIP3   OH232161   3.019   3.643   7.432  0.3518 -0.1490 -0.0261
 3509TIP3    H132162   3.040   3.617   7.342 -0.4579 -2.9829  0.4946
 3509TIP3    H232163   3.104   3.646   7.476  0.5670 -1.1426 -0.3462
 3510TIP3   OH232164   1.328   3.434   8.545  0.0123  0.4621 -0.7213
 3510TIP3    H132165   1.251   3.429   8.601  0.6933  1.7844  0.4080
 3510TIP3    H232166   1.298   3.403   8.459 -0.9310 -2.1870  0.4476
 3511TIP3   OH232167   6.435   5.579   2.033  0.3087  0.1401 -0.0946
 3511TIP3    H132168   6.469   5.605   1.948  0.3817 -1.5736 -0.6398
 3511TIP3    H232169   6.508   5.532   2.074 -0.3341 -0.7442  0.0730
 3512TIP3   OH232170   6.714   5.662   7.716  0.5330 -0.4024  0.3520
 3512TIP3    H132171   6.749   5.576   7.694  0.3877 -0.3873  0.0587
 3512TIP3    H232172   6.652   5.682   7.646  0.4578 -0.1223  0.4950
 3513TIP3   OH232173   1.842   0.869   0.832  0.4325  0.2787  0.2950
 3513TIP3    H132174   1.810   0.779   0.830 -2.4492  1.2374 -1.1318
 3513TIP3    H232175   1.809   0.904   0.915 -1.9985  1.1003 -0.9254
 3514TIP3   OH232176   6.609   6.045   8.356 -0.1749  0.5351 -0.4691
 3514TIP3    H132177   6.690   6.086   8.386  0.2020 -2.2843  3.0255
 3514TIP3    H232178   6.639   5.969   8.305 -0.8115  1.9533 -3.1375
 3515TIP3   OH232179   1.692   3.104   1.624 -0.3577  0.3593 -0.1457
 3515TIP3    H132180   1.696   3.114   1.719 -0.0851 -0.0118 -0.1153
 3515TIP3    H232181   1.707   3.192   1.589  0.2651  0.3696  0.1429
 3516TIP3   OH232182   1.825   2.426   8.469  0.3458 -0.2831 -0.2318
 3516TIP3    H132183   1.865   2.391   8.549  0.6044  1.6105  0.5327
 3516TIP3    H232184   1.892   2.416   8.402  0.8604 -0.1347  0.2568
 3517TIP3   OH232185   1.875   2.893   8.220  0.3508  0.2138 -0.1468
 3517TIP3    H132186   1.790   2.862   8.188  1.4313 -2.5532 -0.7001
 3517TIP3    H232187   1.871   2.879   8.315  0.4304 -0.7631 -0.2682
 3518TIP3   OH232188   0.731   2.223   0.106 -0.0507  0.1979 -0.0772
 3518TIP3    H132189   0.656   2.170   0.079  0.3887 -0.6438  0.3025
 3518TIP3    H232190   0.739   2.290   0.038 -0.1354 -0.7143 -1.0131
 3519TIP3   OH232191   0.308   4.759   7.030 -0.2433  0.1007 -0.0105
 3519TIP3    H132192   0.292   4.848   6.998 -0.8624 -0.6479 -1.9066
 3519TIP3    H232193   0.391   4.734   6.992  0.2460  0.0637  1.0393
 3520TIP3   OH232194   0.669   2.100   6.520  0.4821  0.0293  0.1515
 3520TIP3    H132195   0.595   2.125   6.575 -0.4290 -2.8203  0.3927
 3520TIP3    H232196   0.746   2.122   6.571 -0.2383  1.2709  0.7328
 3521TIP3   OH232197   5.419   2.467   1.893 -0.3879  0.3005 -0.8784
 3521TIP3    H132198   5.439   2.393   1.835 -1.7206  0.8978 -2.1671
 3521TIP3    H232199   5.424   2.430   1.981 -0.3280 -1.1548 -1.4554
 3522TIP3   OH232200   5.854   2.693   7.840  0.3319 -0.0667  0.5897
 3522TIP3    H132201   5.818   2.604   7.835  0.8895 -0.3206  0.9694
 3522TIP3    H232202   5.934   2.690   7.787  0.1409  0.3209  0.2736
 3523TIP3   OH232203   2.634   5.595   0.479  0.0687  0.5892 -0.3274
 3523TIP3    H132204   2.579   5.552   0.544  1.5416 -0.2312  0.4200
 3523TIP3    H232205   2.642   5.532   0.408  1.4137 -0.0100  0.3275
 3524TIP3   OH232206   3.394   1.001   6.656 -0.0559 -1.0190 -0.6603
 3524TIP3    H132207   3.329   0.948   6.703 -1.0938 -0.5253 -1.5061
 3524TIP3    H232208   3.459   1.024   6.723 -2.0866  0.6359  0.8844
 3525TIP3   OH232209   6.556   3.491   2.408  0.2566 -0.3257 -0.1853
 3525TIP3    H132210   6.512   3.422   2.458 -1.5897  0.8051 -0.1542
 3525TIP3    H232211   6.638   3.451   2.378  0.4836 -1.6726  2.0257
 3526TIP3   OH232212   1.549   2.768   8.757 -0.0412 -0.2970 -0.3827
 3526TIP3    H132213   1.480   2.703   8.771 -0.1386 -0.2792 -0.7589
 3526TIP3    H232214   1.628   2.715   8.744 -0.2745 -0.3899 -1.5764
 3527TIP3   OH232215   0.374   1.246   1.421 -0.1295  0.0875 -0.1524
 3527TIP3    H132216   0.458   1.201   1.422 -0.7048 -1.1228 -1.5540
 3527TIP3    H232217   0.396   1.339   1.417  1.1058 -0.1089  1.4481
 3528TIP3   OH232218   5.290   1.575   7.149 -0.2048  0.5691 -0.1030
 3528TIP3    H132219   5.297   1.509   7.079  0.1078  0.0014  0.4585
 3528TIP3    H232220   5.381   1.598   7.169 -0.3215  1.8103 -0.8755
 3529TIP3   OH232221   0.023   4.400   8.909  0.3116  0.1376 -0.1115
 3529TIP3    H132222  -0.028   4.329   8.949  1.4333 -0.4427  0.3288
 3529TIP3    H232223  -0.020   4.480   8.940 -1.4507 -0.2995 -1.2310
 3530TIP3   OH232224   0.171   3.147   1.027  0.0885 -0.0082 -0.5147
 3530TIP3    H132225   0.099   3.172   1.084  1.6013  1.6652  0.7947
 3530TIP3    H232226   0.143   3.173   0.939 -1.0433  0.2197 -0.0965
 3531TIP3   OH232227   5.374   2.613   7.878  0.8367  0.2397 -0.0283
 3531TIP3    H132228   5.422   2.659   7.809  1.6498  1.6407  1.3918
 3531TIP3    H232229   5.392   2.521   7.863  2.3841  0.6208 -0.6950
 3532TIP3   OH232230   4.019   6.571   8.957  0.7614  1.0644  0.4176
 3532TIP3    H132231   4.070   6.490   8.960  1.8780  1.6895 -0.9561
 3532TIP3    H232232   3.943   6.548   8.903  1.4289  1.1048 -0.5605
 3533TIP3   OH232233   5.363   2.399   0.298  0.0767  0.1786  0.0324
 3533TIP3    H132234   5.361   2.373   0.390 -0.2385  1.3927  0.3907
 3533TIP3    H232235   5.401   2.324   0.252  0.5225 -0.3207  1.1922
 3534TIP3   OH232236   5.127   5.622   0.544  0.1528  0.3132  0.2077
 3534TIP3    H132237   5.153   5.531   0.559  0.3705  0.1324 -1.1471
 3534TIP3    H232238   5.210   5.670   0.540  0.0200  0.6791  1.4463
 3535TIP3   OH232239   1.635   4.709   1.543  0.0347  0.1931  0.3107
 3535TIP3    H132240   1.584   4.628   1.534  0.3746  0.0900 -0.8758
 3535TIP3    H232241   1.668   4.726   1.455  1.4611  0.6530  0.9029
 3536TIP3   OH232242   3.764   0.165   8.415 -0.2055  0.1144  0.1954
 3536TIP3    H132243   3.734   0.075   8.429  0.0199  0.0258  0.0998
 3536TIP3    H232244   3.741   0.210   8.497  1.5858 -0.5338  1.1238
 3537TIP3   OH232245   4.612   4.672   7.388 -0.2227 -0.1805 -0.4436
 3537TIP3    H132246   4.673   4.700   7.456 -0.7893  0.9487 -0.3784
 3537TIP3    H232247   4.589   4.752   7.341 -0.8270 -0.7493 -1.1574
 3538TIP3   OH232248   0.507   6.108   6.628 -0.1093 -0.1427  0.6913
 3538TIP3    H132249   0.417   6.133   6.648  0.0949  0.4057  0.9530
 3538TIP3    H232250   0.553   6.191   6.615 -0.3295 -0.4079 -2.5883
 3539TIP3   OH232251   6.542   6.576   7.711 -0.1142 -0.3423  0.6711
 3539TIP3    H132252   6.519   6.553   7.801  1.1827 -0.5058  0.9836
 3539TIP3    H232253   6.540   6.672   7.709 -1.0747 -0.3508  0.5966
 3540TIP3   OH232254   4.091   4.107   1.937 -0.1587 -0.0595  0.7397
 3540TIP3    H132255   4.029   4.038   1.910 -0.2382  0.5710 -0.7989
 3540TIP3    H232256   4.128   4.139   1.855  0.9385  0.7696  1.5297
 3541TIP3   OH232257   6.067   5.488   0.641 -0.4994 -0.2191  0.2815
 3541TIP3    H132258   6.049   5.421   0.706 -1.7844  0.7331  0.9588
 3541TIP3    H232259   5.993   5.549   0.649  0.7168  1.3681 -0.1715
 3542TIP3   OH232260   3.545   0.019   2.194  0.3215 -0.0282  0.3660
 3542TIP3    H132261   3.503   0.093   2.150  1.7917  0.8337  0.3543
 3542TIP3    H232262   3.526   0.031   2.287  1.1071  0.7440  0.4336
 3543TIP3   OH232263   4.185   3.936   1.684 -0.1920 -0.0746  0.5698
 3543TIP3    H132264   4.177   3.864   1.621 -1.2204 -0.2184  0.8535
 3543TIP3    H232265   4.098   3.945   1.723  0.3015  0.3353  1.6297
 3544TIP3   OH232266   3.619   1.642   7.370  0.7545  0.4291  0.1838
 3544TIP3    H132267   3.701   1.657   7.324 -0.2713 -0.0437 -1.9287
 3544TIP3    H232268   3.568   1.586   7.312 -1.3951  1.3771  1.0222
 3545TIP3   OH232269   4.302   4.950   8.934  0.8287 -0.7136  0.0446
 3545TIP3    H132270   4.351   5.032   8.930 -0.3959 -0.0135 -2.8443
 3545TIP3    H232271   4.369   4.882   8.922  1.5707 -0.0374  0.2531
 3546TIP3   OH232272   5.294   4.072   8.567  0.4872 -0.6032  0.2454
 3546TIP3    H132273   5.334   4.146   8.613  0.7914 -1.0491  0.7075
 3546TIP3    H232274   5.200   4.089   8.573  0.5528 -0.2431  0.3247
 3547TIP3   OH232275   6.668   4.234   8.318 -0.5586 -0.3318  0.6579
 3547TIP3    H132276   6.720   4.262   8.393 -1.7311 -0.7867  1.6624
 3547TIP3    H232277   6.663   4.311   8.262  0.2998  0.0237  1.0593
 3548TIP3   OH232278   2.617   5.611   8.892 -0.0710  0.2797  0.3010
 3548TIP3    H132279   2.554   5.667   8.936 -1.2645 -0.2752 -0.6599
 3548TIP3    H232280   2.595   5.618   8.799  1.8317  0.7411 -0.1633
 3549TIP3   OH232281   5.921   1.824   7.649 -0.4569  0.3118  0.7135
 3549TIP3    H132282   5.890   1.753   7.706  1.7323  0.5809  2.3755
 3549TIP3    H232283   5.870   1.901   7.677 -0.1908  0.1905  1.5632
 3550TIP3   OH232284   2.533   3.244   6.728 -0.2696 -0.9990  0.2136
 3550TIP3    H132285   2.591   3.247   6.804 -1.4678 -2.3084  1.2316
 3550TIP3    H232286   2.581   3.192   6.663  2.2945  2.9300 -1.4268
 3551TIP3   OH232287   3.028   4.193   7.444 -0.0489 -0.1899  0.2871
 3551TIP3    H132288   3.096   4.208   7.510  1.5362  0.0957 -1.3248
 3551TIP3    H232289   3.020   4.098   7.440  2.2050 -0.3918 -1.2906
 3552TIP3   OH232290   4.154   0.083   8.509  0.2499 -0.1471 -0.6740
 3552TIP3    H132291   4.127   0.083   8.417  0.2157 -1.8910 -0.6837
 3552TIP3    H232292   4.113   0.005   8.547 -0.2332  0.8466  0.9954
 3553TIP3   OH232293   6.284   1.551   1.106 -0.2426 -0.0348 -0.0009
 3553TIP3    H132294   6.339   1.560   1.028 -2.8006 -1.1583 -2.1250
 3553TIP3    H232295   6.270   1.640   1.137  2.4383  0.2964  0.4719
 3554TIP3   OH232296   2.755   3.181   6.877 -0.7807  0.1074 -0.1176
 3554TIP3    H132297   2.838   3.202   6.833 -0.2682 -2.5684 -0.5802
 3554TIP3    H232298   2.775   3.189   6.970  0.1278 -0.8622 -0.2128
 3555TIP3   OH232299   5.872   2.746   0.766  0.0941 -0.2233  0.4127
 3555TIP3    H132300   5.967   2.737   0.779 -0.2426 -1.4933  2.3656
 3555TIP3    H232301   5.847   2.817   0.826  0.0086  1.2442 -1.2997
 3556TIP3   OH232302   3.719   3.373   2.346 -0.6264 -0.4318 -0.1689
 3556TIP3    H132303   3.677   3.352   2.430 -1.1500 -1.0952 -0.5958
 3556TIP3    H232304   3.751   3.463   2.358 -0.6179 -0.5454  0.7704
 3557TIP3   OH232305   2.915   0.586   1.430 -0.0774  0.1944  0.4865
 3557TIP3    H132306   2.886   0.544   1.511  0.7598 -0.3749  0.5050
 3557TIP3    H232307   2.866   0.668   1.427 -1.2285 -0.4662  0.7951
 3558TIP3   OH232308   1.721   4.868   8.483  0.2476 -0.1203 -0.4611
 3558TIP3    H132309   1.721   4.963   8.487 -0.3320 -0.1163 -0.4372
 3558TIP3    H232310   1.813   4.843   8.486  0.4185  0.2287  4.1096
 3559TIP3   OH232311   0.450   5.912   7.186  0.5196  0.4327  0.5383
 3559TIP3    H132312   0.381   5.860   7.144  1.3663  0.3248 -0.8127
 3559TIP3    H232313   0.506   5.847   7.229 -0.2823  0.5333  1.7793
 3560TIP3   OH232314   2.504   0.354   8.111 -0.0253  0.1897  0.1581
 3560TIP3    H132315   2.418   0.342   8.070  0.0045  0.9818 -0.1542
 3560TIP3    H232316   2.498   0.439   8.154  1.1769  1.0932 -1.3687
 3561TIP3   OH232317   3.023   5.185   8.665  0.1866  0.1871  0.1666
 3561TIP3    H132318   3.006   5.278   8.649 -1.2706 -0.0237  0.3618
 3561TIP3    H232319   2.978   5.165   8.747  2.0095 -0.2965  1.1007
 3562TIP3   OH232320   1.493   6.305   6.333  0.1618  0.0611 -0.2829
 3562TIP3    H132321   1.506   6.229   6.277 -1.3429  0.0369 -0.6375
 3562TIP3    H232322   1.526   6.379   6.281  1.2986 -0.2804 -0.0758
 3563TIP3   OH232323   3.486   5.158   0.207 -0.3137 -0.4426 -0.6677
 3563TIP3    H132324   3.438   5.231   0.247  2.4803  0.1626  1.9346
 3563TIP3    H232325   3.529   5.196   0.130 -0.5031  0.1102 -0.5040
 3564TIP3   OH232326   5.350   6.626   0.376  0.1143 -0.3733  0.0780
 3564TIP3    H132327   5.362   6.717   0.349  1.1085 -0.2394  0.9180
 3564TIP3    H232328   5.300   6.586   0.304 -1.7313  1.2062  0.3875
 3565TIP3   OH232329   0.722   3.291   0.993 -0.1649 -0.2901  0.3179
 3565TIP3    H132330   0.800   3.236   0.984 -0.4896 -0.8915  0.9974
 3565TIP3    H232331   0.653   3.230   1.019 -0.5535  0.4337  1.0243
 3566TIP3   OH232332   5.752   2.107   1.604 -0.2927  0.3286 -0.4859
 3566TIP3    H132333   5.778   2.059   1.526 -0.7079  0.8118 -0.9249
 3566TIP3    H232334   5.680   2.055   1.640 -0.5617  0.4709 -0.8112
 3567TIP3   OH232335   5.346   4.801   0.621 -0.4058  0.1211 -0.0536
 3567TIP3    H132336   5.323   4.711   0.598  1.9526 -0.7757  0.7109
 3567TIP3    H232337   5.442   4.801   0.620 -0.3559  2.5669  0.2443
 3568TIP3   OH232338   0.281   6.741   1.487 -0.2204 -0.2188 -0.1909
 3568TIP3    H132339   0.316   6.788   1.563  0.7922 -1.7401  0.3321
 3568TIP3    H232340   0.358   6.707   1.442 -0.8857 -0.9083 -0.8552
 3569TIP3   OH232341   5.631   0.086   7.363 -0.2642  0.1933  0.3006
 3569TIP3    H132342   5.574   0.020   7.402 -0.7412 -0.0402 -0.7324
 3569TIP3    H232343   5.609   0.167   7.409 -0.7480 -0.0871  0.5685
 3570TIP3   OH232344   0.526   5.460   1.701 -0.0342  0.0762 -0.1224
 3570TIP3    H132345   0.544   5.474   1.794 -1.4541  0.5270  0.1113
 3570TIP3    H232346   0.456   5.395   1.699  0.2644 -0.2453 -0.9041
 3571TIP3   OH232347   0.095   2.583   8.204 -0.1404  0.0558 -0.0420
 3571TIP3    H132348   0.103   2.533   8.285 -0.0876  0.2822  0.0928
 3571TIP3    H232349   0.034   2.653   8.225  1.4762  1.3849  0.4294
 3572TIP3   OH232350   5.349   6.620   8.189  0.5556  0.1275  0.2917
 3572TIP3    H132351   5.309   6.670   8.261 -0.0606 -1.1546  0.8666
 3572TIP3    H232352   5.285   6.627   8.118  0.6623  0.4981  0.2317
 3573TIP3   OH232353   5.498   5.902   8.639  0.8167  0.2761 -0.3117
 3573TIP3    H132354   5.490   5.917   8.733  1.5345  1.7321 -0.4493
 3573TIP3    H232355   5.549   5.977   8.607  0.3925 -0.0666 -1.8906
 3574TIP3   OH232356   6.715   2.112   8.604  0.6343  0.5716 -0.1162
 3574TIP3    H132357   6.769   2.049   8.555  2.4668  1.4656  0.6751
 3574TIP3    H232358   6.674   2.166   8.536  2.0165  0.8972 -0.7266
 3575TIP3   OH232359   1.292   2.782   6.599  0.3238 -0.3415  0.1048
 3575TIP3    H132360   1.317   2.725   6.526 -1.5102 -0.6764 -0.3045
 3575TIP3    H232361   1.199   2.764   6.613  0.2022  1.0576  1.3351
 3576TIP3   OH232362   5.660   3.934   0.356 -0.1776 -0.3544  0.0760
 3576TIP3    H132363   5.684   4.005   0.296 -1.2921  0.5308  0.6532
 3576TIP3    H232364   5.610   3.873   0.302  1.3163 -1.0575 -0.5774
 3577TIP3   OH232365   2.576   6.109   0.404 -0.0780  0.2481 -0.1269
 3577TIP3    H132366   2.607   6.193   0.371 -0.9246  0.1155 -1.3161
 3577TIP3    H232367   2.628   6.094   0.484  2.0360  0.5993 -1.3401
 3578TIP3   OH232368   4.420   2.915   1.524 -0.3117  0.0218  0.7161
 3578TIP3    H132369   4.482   2.873   1.464 -1.4059  0.7625 -1.0022
 3578TIP3    H232370   4.475   2.961   1.588  0.8968 -0.1218 -0.1916
 3579TIP3   OH232371   3.676   1.148   7.927  0.7726 -0.1365  0.7162
 3579TIP3    H132372   3.733   1.189   7.863  0.8732 -2.4746 -0.8576
 3579TIP3    H232373   3.728   1.076   7.963 -0.8324 -1.8303 -0.1807
 3580TIP3   OH232374   2.191   1.288   7.440  0.1716 -0.1222 -0.0425
 3580TIP3    H132375   2.100   1.264   7.462 -0.5320  1.4105 -1.0998
 3580TIP3    H232376   2.186   1.380   7.415  1.9951 -0.0940 -0.4393
 3581TIP3   OH232377   2.860   5.966   1.855  0.0135 -0.4227  0.4674
 3581TIP3    H132378   2.824   6.037   1.802  2.0739  0.6103  0.3290
 3581TIP3    H232379   2.797   5.895   1.848 -1.9129  1.2325  0.2400
 3582TIP3   OH232380   3.799   0.686   1.551  0.1685 -0.2843 -0.1433
 3582TIP3    H132381   3.780   0.779   1.552  3.1743  0.4400  1.6680
 3582TIP3    H232382   3.795   0.659   1.642 -2.7439 -2.5467 -0.7874
 3583TIP3   OH232383   0.962   6.585   1.164 -0.0091  0.2763  0.2058
 3583TIP3    H132384   0.909   6.624   1.094  1.6310  0.9319 -0.7046
 3583TIP3    H232385   1.033   6.647   1.178  0.7535 -0.7750  1.1268
 3584TIP3   OH232386   6.599   1.501   0.359 -0.0317 -0.6504  0.7046
 3584TIP3    H132387   6.536   1.511   0.432  1.3691 -0.2363  1.9028
 3584TIP3    H232388   6.579   1.415   0.322 -1.3018 -0.5291  1.0619
 3585TIP3   OH232389   2.863   0.280   7.503  0.3522 -0.1338  0.6057
 3585TIP3    H132390   2.781   0.329   7.509 -0.8372 -1.4638 -2.5499
 3585TIP3    H232391   2.841   0.192   7.535  0.7281 -0.3074  0.3956
 3586TIP3   OH232392   3.000   2.406   7.881 -0.6149  0.5044 -0.8499
 3586TIP3    H132393   2.954   2.379   7.802 -0.7956  0.6235 -0.7835
 3586TIP3    H232394   2.942   2.467   7.924 -0.2678  0.8868 -0.9188
 3587TIP3   OH232395   0.490   1.712   0.888 -0.1571 -0.1888  0.3657
 3587TIP3    H132396   0.461   1.800   0.913 -0.0700  0.0097 -0.1993
 3587TIP3    H232397   0.445   1.695   0.805  1.3516  0.1498 -0.5650
 3588TIP3   OH232398   3.584   2.635   1.906  0.2335  0.5382 -0.4895
 3588TIP3    H132399   3.529   2.713   1.898 -1.7999 -0.5595  1.5812
 3588TIP3    H232400   3.663   2.666   1.950 -0.5206  1.4417  0.2606
 3589TIP3   OH232401   3.793   0.474   7.980 -0.1490  0.0938 -0.0990
 3589TIP3    H132402   3.763   0.523   7.904 -1.6798 -0.8219 -0.1360
 3589TIP3    H232403   3.825   0.541   8.041  0.0971  0.9127 -1.1136
 3590TIP3   OH232404   0.283   2.310   0.121 -0.3610  0.0121 -0.2897
 3590TIP3    H132405   0.293   2.297   0.216 -0.7220 -1.2960 -0.4195
 3590TIP3    H232406   0.191   2.334   0.110  0.0096  1.6307 -0.1867
 3591TIP3   OH232407   2.178   3.964   0.288  0.0329  0.2086 -0.7382
 3591TIP3    H132408   2.183   3.885   0.342 -0.2265  0.3470 -0.5051
 3591TIP3    H232409   2.090   3.998   0.305 -0.1705  0.0794 -1.4958
 3592TIP3   OH232410   2.419   0.799   0.058  0.1295 -0.0427  0.4149
 3592TIP3    H132411   2.453   0.836  -0.023  0.4813  0.7749  0.9285
 3592TIP3    H232412   2.345   0.745   0.031  0.1896  0.2973 -0.4341
 3593TIP3   OH232413   3.175   0.218   6.919  0.1951 -0.1369  0.4825
 3593TIP3    H132414   3.124   0.154   6.870  1.0097 -1.1348  0.9043
 3593TIP3    H232415   3.241   0.249   6.857 -0.3961  0.5442  0.1830
 3594TIP3   OH232416   5.705   2.103   8.941 -0.4230  0.7433  0.5067
 3594TIP3    H132417   5.738   2.017   8.912  0.8728  0.9831  1.1824
 3594TIP3    H232418   5.610   2.093   8.943 -0.3069 -0.5835  0.2552
 3595TIP3   OH232419   0.930   1.860   7.439 -0.9813  0.5594 -0.3071
 3595TIP3    H132420   0.996   1.929   7.440 -1.0938  0.7848 -2.9749
 3595TIP3    H232421   0.981   1.779   7.430 -0.9738  0.7423 -2.4965
 3596TIP3   OH232422   4.520   3.876   0.092  0.0655  0.6944 -0.5355
 3596TIP3    H132423   4.501   3.782   0.088 -2.0792  1.0541  0.0529
 3596TIP3    H232424   4.512   3.906   0.002  0.8587  0.3031 -0.7417
 3597TIP3   OH232425   5.285   3.626   1.718  0.2889 -0.5299 -0.4969
 3597TIP3    H132426   5.190   3.614   1.718  0.1746  0.0155 -2.3944
 3597TIP3    H232427   5.309   3.625   1.811 -1.3441 -2.2026 -0.0327
 3598TIP3   OH232428   1.158   0.336   6.368 -0.1490  0.0573  0.5426
 3598TIP3    H132429   1.198   0.249   6.363  1.2134  0.4838  2.5551
 3598TIP3    H232430   1.178   0.377   6.284 -0.5965 -1.4544 -0.3358
 3599TIP3   OH232431   6.031   6.274   8.037 -0.6116 -0.2587  0.5682
 3599TIP3    H132432   6.033   6.251   8.130 -3.1663 -0.2328  0.7109
 3599TIP3    H232433   5.999   6.364   8.035 -0.2421 -0.1380 -0.3390
 3600TIP3   OH232434   3.965   3.540   1.318 -0.8428 -0.0119 -0.5983
 3600TIP3    H132435   3.961   3.604   1.246 -0.2311  0.7828  0.0539
 3600TIP3    H232436   3.917   3.464   1.285 -0.0083  0.0720 -2.1169
 3601TIP3   OH232437   5.523   6.559   8.792 -0.3498  0.0784  0.2352
 3601TIP3    H132438   5.596   6.561   8.730 -1.3321  0.2959 -0.9461
 3601TIP3    H232439   5.552   6.500   8.861 -0.1101 -1.9948 -1.5504
 3602TIP3   OH232440   1.539   6.310   8.689  0.4575  0.0214 -0.6622
 3602TIP3    H132441   1.624   6.355   8.683  0.0535  0.9358  0.1018
 3602TIP3    H232442   1.487   6.366   8.747 -0.0814 -1.4427  0.3196
 3603TIP3   OH232443   5.536   4.391   8.365 -0.1491  0.8455  0.7578
 3603TIP3    H132444   5.480   4.384   8.287  0.1787 -0.5956  0.6156
 3603TIP3    H232445   5.479   4.426   8.433 -0.9024  0.5145  0.3112
 3604TIP3   OH232446   5.101   2.602   0.544  0.3498  0.4714 -0.0442
 3604TIP3    H132447   5.017   2.645   0.560  0.5184  1.9316 -2.4862
 3604TIP3    H232448   5.086   2.547   0.467  1.6823  1.0891 -0.7866
 3605TIP3   OH232449   5.164   2.377   2.473 -0.4806 -0.2730 -0.0779
 3605TIP3    H132450   5.223   2.362   2.399  1.4787 -0.5402  1.4682
 3605TIP3    H232451   5.095   2.312   2.462  0.1878 -0.8119 -1.2541
 3606TIP3   OH232452   1.325   0.906   1.979  0.3454 -0.4640  0.8351
 3606TIP3    H132453   1.348   0.924   2.070  0.3646 -2.5061  1.2850
 3606TIP3    H232454   1.233   0.879   1.983  0.2724 -0.3165  0.2160
 3607TIP3   OH232455   5.353   4.224   0.521 -0.3392  0.2410  0.4371
 3607TIP3    H132456   5.427   4.285   0.525  0.2784 -0.2718 -1.5791
 3607TIP3    H232457   5.276   4.277   0.543 -0.0257  2.2163 -2.5750
 3608TIP3   OH232458   5.114   2.529   7.268 -0.1359  0.1562 -0.3013
 3608TIP3    H132459   5.085   2.565   7.352 -0.8589 -3.6761  1.3036
 3608TIP3    H232460   5.193   2.578   7.247 -0.9947  2.5666  1.5781
 3609TIP3   OH232461   2.814   1.339   1.489  0.2024 -0.1206  0.0013
 3609TIP3    H132462   2.820   1.338   1.393  0.7220  0.4914  0.0213
 3609TIP3    H232463   2.765   1.419   1.508 -0.3217 -0.4909  0.2327
 3610TIP3   OH232464   2.305   3.961   0.901  0.0084  0.0723 -0.4556
 3610TIP3    H132465   2.391   3.932   0.931 -0.3856 -1.1743 -0.4810
 3610TIP3    H232466   2.323   4.038   0.848  1.1649 -0.4891 -0.9030
 3611TIP3   OH232467   1.200   4.279   6.621  0.5255  0.1167 -0.2673
 3611TIP3    H132468   1.246   4.346   6.570 -0.1211  0.7434 -0.0538
 3611TIP3    H232469   1.248   4.198   6.604  0.6472  0.4226 -1.4219
 3612TIP3   OH232470   4.530   5.406   1.725 -0.3269 -0.0214 -0.8462
 3612TIP3    H132471   4.450   5.359   1.703 -1.5728  0.8148  1.5963
 3612TIP3    H232472   4.581   5.345   1.778 -1.0528  0.6182  0.6561
 3613TIP3   OH232473   1.537   2.774   1.353  0.0443  0.8118 -0.0995
 3613TIP3    H132474   1.624   2.813   1.365 -0.6040  2.1773  0.4029
 3613TIP3    H232475   1.485   2.844   1.314  0.0071 -1.0451 -3.7489
 3614TIP3   OH232476   5.554   3.318   7.291 -0.2096 -0.1257 -0.1144
 3614TIP3    H132477   5.527   3.252   7.227  0.1168  0.0395 -0.4239
 3614TIP3    H232478   5.542   3.275   7.376 -0.9566 -0.2317 -0.2690
 3615TIP3   OH232479   0.725   6.065   0.351  0.6455 -0.1737  0.0329
 3615TIP3    H132480   0.802   6.012   0.334 -0.4078 -1.5594 -0.5744
 3615TIP3    H232481   0.678   6.066   0.267 -1.8455 -2.4769  1.2545
 3616TIP3   OH232482   0.919   0.906   6.825 -0.0978  0.2789  0.4147
 3616TIP3    H132483   0.926   0.896   6.920  1.1848  1.8562  0.5436
 3616TIP3    H232484   0.862   0.982   6.813 -1.7548 -1.0095 -0.1663
 3617TIP3   OH232485   4.740   0.260   7.296 -0.3881  0.0112  0.6410
 3617TIP3    H132486   4.740   0.330   7.361  0.8666 -1.1951  2.0039
 3617TIP3    H232487   4.713   0.182   7.345 -0.8609 -0.6579 -0.6393
 3618TIP3   OH232488   3.998   2.796   8.822 -0.8199  0.2208  0.2879
 3618TIP3    H132489   3.911   2.787   8.785 -0.5197  1.3213 -0.7429
 3618TIP3    H232490   4.002   2.886   8.853  0.1874  0.4109 -0.3436
 3619TIP3   OH232491   2.754   1.608   1.245 -0.6627  0.0598  0.5281
 3619TIP3    H132492   2.721   1.650   1.325  0.0778 -0.5560  1.1713
 3619TIP3    H232493   2.687   1.542   1.224 -0.7756  0.1046  0.7370
 3620TIP3   OH232494   3.598   4.730   7.461 -0.8066 -0.1396 -0.0427
 3620TIP3    H132495   3.647   4.706   7.382 -0.3846  2.8720 -0.8162
 3620TIP3    H232496   3.644   4.684   7.531  1.8496  0.7764 -1.0158
 3621TIP3   OH232497   0.765   6.370   2.113  0.1939  0.1094 -0.0984
 3621TIP3    H132498   0.695   6.406   2.059 -0.0011 -1.1308 -0.7091
 3621TIP3    H232499   0.770   6.429   2.188 -0.3801  1.1515 -0.8438
 3622TIP3   OH232500   1.213   1.080   1.409  0.2233  0.1866  0.1224
 3622TIP3    H132501   1.239   1.076   1.501  1.4167  1.9233 -0.0789
 3622TIP3    H232502   1.295   1.075   1.360 -0.5045 -2.3467 -0.9722
 3623TIP3   OH232503   3.230   0.112   6.500  0.2536  0.0503 -0.1602
 3623TIP3    H132504   3.138   0.090   6.518  0.4413 -0.5657  0.0808
 3623TIP3    H232505   3.228   0.204   6.473 -0.3733  0.1839  0.3252
 3624TIP3   OH232506   3.405   3.490   2.533  0.7882  0.0634  0.2190
 3624TIP3    H132507   3.457   3.445   2.600 -0.6944 -0.7208  0.8857
 3624TIP3    H232508   3.453   3.475   2.452  0.4638 -2.6218  0.4385
 3625TIP3   OH232509   2.740   5.581   8.078  0.3025  0.6490  0.7002
 3625TIP3    H132510   2.760   5.502   8.028 -2.1502 -0.3177  1.1280
 3625TIP3    H232511   2.821   5.600   8.125  2.1634  0.5963 -2.2169
 3626TIP3   OH232512   1.398   5.789   0.393 -0.1553 -0.2157 -0.6037
 3626TIP3    H132513   1.485   5.786   0.355 -0.0660 -0.1650 -0.4035
 3626TIP3    H232514   1.378   5.699   0.417  0.3453 -0.0487  0.4832
 3627TIP3   OH232515   3.063   3.027   1.972  0.1841  0.2026  0.7029
 3627TIP3    H132516   3.027   2.944   1.942  0.7187  0.4226 -0.5959
 3627TIP3    H232517   3.014   3.047   2.052 -0.9682 -0.6350  0.2250
 3628TIP3   OH232518   3.749   1.293   2.128  0.1767  0.2595  0.2382
 3628TIP3    H132519   3.714   1.370   2.173 -1.5652  0.0069 -0.6185
 3628TIP3    H232520   3.834   1.321   2.095  2.2878  0.0923  4.7201
 3629TIP3   OH232521   1.208   5.751   0.106  0.2820  0.3391  0.7358
 3629TIP3    H132522   1.188   5.801   0.026 -0.6783 -0.5318  0.4100
 3629TIP3    H232523   1.284   5.697   0.083 -0.7056 -0.7824 -0.0000
 3630TIP3   OH232524   6.144   3.607   2.363  0.1268 -0.3111 -0.4100
 3630TIP3    H132525   6.110   3.524   2.396  0.9361 -0.6915 -0.5042
 3630TIP3    H232526   6.222   3.624   2.416 -0.3457  0.6904 -0.0012
 3631TIP3   OH232527   5.377   1.391   7.824  0.1660  0.2394 -0.4862
 3631TIP3    H132528   5.430   1.320   7.861  2.2832  1.9000 -0.1927
 3631TIP3    H232529   5.408   1.400   7.734 -0.3118  0.5891 -0.6202
 3632TIP3   OH232530   5.184   4.790   1.475 -0.3410 -0.2593 -0.1822
 3632TIP3    H132531   5.248   4.719   1.465 -0.1573 -0.1617  0.2681
 3632TIP3    H232532   5.236   4.864   1.505 -0.4679  0.1883 -1.0432
 3633TIP3   OH232533   5.447   2.548   6.503  0.1904 -0.1502 -0.4845
 3633TIP3    H132534   5.423   2.464   6.464 -0.0065 -0.3724  0.0951
 3633TIP3    H232535   5.530   2.531   6.548  1.0971  0.4355 -1.8801
 3634TIP3   OH232536   3.358   6.629   2.037 -0.0561 -0.0341 -0.0722
 3634TIP3    H132537   3.362   6.566   2.110  2.3000 -0.8735 -0.8052
 3634TIP3    H232538   3.314   6.705   2.073 -2.6473 -1.8935  0.9938
 3635TIP3   OH232539   6.686   4.401   0.289 -0.6284 -0.7047 -0.6975
 3635TIP3    H132540   6.654   4.381   0.377 -1.7521  1.1089 -0.6675
 3635TIP3    H232541   6.782   4.400   0.298 -0.7229  0.3942  0.7925
 3636TIP3   OH232542   2.630   2.921   8.561  0.4872  0.0989 -0.2223
 3636TIP3    H132543   2.707   2.868   8.583 -0.9659 -1.2874  1.8525
 3636TIP3    H232544   2.611   2.970   8.642  0.0230  1.5753 -1.1722
 3637TIP3   OH232545   3.529   5.209   7.380 -0.7153  0.4078  0.9712
 3637TIP3    H132546   3.576   5.134   7.344 -0.1010  0.6335  1.2848
 3637TIP3    H232547   3.463   5.170   7.438 -1.0511  0.0844  0.3772
 3638TIP3   OH232548   1.699   1.009   6.323  0.0236 -0.1544 -0.2905
 3638TIP3    H132549   1.637   1.057   6.378 -2.1046 -1.3663 -1.4906
 3638TIP3    H232550   1.645   0.944   6.277  1.7303  0.4343 -3.3955
 3639TIP3   OH232551   3.854   1.117   0.198 -0.1018  0.1832 -0.2813
 3639TIP3    H132552   3.882   1.209   0.200  0.3576  0.0496 -0.6518
 3639TIP3    H232553   3.760   1.121   0.218 -0.9906  1.1102 -3.8301
 3640TIP3   OH232554   4.860   1.721   8.612 -0.0159 -0.2966 -0.2825
 3640TIP3    H132555   4.840   1.655   8.679 -1.3468 -1.1141 -1.4310
 3640TIP3    H232556   4.954   1.735   8.620 -0.2130  0.0152  2.0768
 3641TIP3   OH232557   0.133   6.059   1.010 -0.0262  0.9937  0.5918
 3641TIP3    H132558   0.226   6.036   1.010 -0.6757 -2.1137 -0.5862
 3641TIP3    H232559   0.092   5.995   1.067 -1.7297  0.8403 -0.7292
 3642TIP3   OH232560   2.116   1.452   1.432  0.4971 -0.0948 -0.3330
 3642TIP3    H132561   2.149   1.491   1.512 -0.8049 -0.3734  0.3657
 3642TIP3    H232562   2.157   1.502   1.362  1.5538  0.2344  0.4902
 3643TIP3   OH232563   0.277   1.261   6.789 -0.0523  0.3316 -0.3516
 3643TIP3    H132564   0.346   1.304   6.738 -0.4129  0.9807 -0.3030
 3643TIP3    H232565   0.196   1.305   6.762 -0.3442  0.1372  0.1966
 3644TIP3   OH232566   6.523   1.176   0.695 -0.0527  0.0212 -0.0647
 3644TIP3    H132567   6.467   1.114   0.648  0.8239 -1.5116  0.8081
 3644TIP3    H232568   6.542   1.131   0.778  1.8071  0.8409 -0.0236
 3645TIP3   OH232569   5.934   4.233   8.365  0.4551 -0.4857  0.1146
 3645TIP3    H132570   5.920   4.293   8.438  1.9798  0.6619 -0.4695
 3645TIP3    H232571   5.872   4.261   8.299 -0.2086 -0.8524  0.5715
 3646TIP3   OH232572   4.736   5.363   7.555 -0.6407  0.2878 -0.0865
 3646TIP3    H132573   4.815   5.397   7.597 -0.6004  1.1678 -0.8500
 3646TIP3    H232574   4.731   5.410   7.472 -1.8213  0.0327 -0.1711
 3647TIP3   OH232575   2.920   5.522   1.744 -0.7875  0.5611 -0.1497
 3647TIP3    H132576   2.851   5.584   1.770 -0.2167  0.7582  0.9802
 3647TIP3    H232577   3.001   5.571   1.756 -0.4738  0.8698 -3.0089
 3648TIP3   OH232578   2.501   2.944   7.919 -0.9425  0.0951  0.5673
 3648TIP3    H132579   2.499   2.855   7.952 -0.2234 -0.1416 -0.0031
 3648TIP3    H232580   2.582   2.949   7.868 -2.1160  0.3483 -1.3771
 3649TIP3   OH232581   1.920   2.303   0.734 -0.2572 -0.0922  0.2620
 3649TIP3    H132582   1.830   2.320   0.762 -1.1631 -1.0437 -1.8707
 3649TIP3    H232583   1.961   2.262   0.811 -1.9193 -0.5328  0.9713
 3650TIP3   OH232584   2.406   3.197   7.977 -0.4015  0.1535  0.5292
 3650TIP3    H132585   2.453   3.208   8.060  2.6133 -1.6255 -0.7625
 3650TIP3    H232586   2.441   3.115   7.940 -1.0014  1.2510 -2.8310
 3651TIP3   OH232587   2.273   1.393   8.296 -0.3204  0.5206 -0.7618
 3651TIP3    H132588   2.261   1.433   8.210  0.8501 -0.4611 -1.4062
 3651TIP3    H232589   2.209   1.321   8.298 -0.8202  0.9627 -0.5234
 3652TIP3   OH232590   6.304   2.253   7.791 -0.1546  0.1198 -0.1777
 3652TIP3    H132591   6.294   2.345   7.765  2.3491  0.5654  0.1628
 3652TIP3    H232592   6.296   2.254   7.886  0.1179  0.0295 -0.1533
 3653TIP3   OH232593   2.268   4.440   6.236 -0.7959  0.0868  0.0751
 3653TIP3    H132594   2.194   4.482   6.280 -0.2892  2.6621 -1.3409
 3653TIP3    H232595   2.231   4.404   6.156 -0.5727  1.3832 -0.6377
 3654TIP3   OH232596   1.765   5.172   8.377  0.0119  0.6310 -0.0603
 3654TIP3    H132597   1.730   5.163   8.289  0.7109  2.8720 -0.6167
 3654TIP3    H232598   1.800   5.261   8.381  2.7761 -0.3663  1.4705
 3655TIP3   OH232599   2.835   2.047   6.772 -0.2824 -0.1197  0.2442
 3655TIP3    H132600   2.882   2.128   6.753 -0.6712 -0.1194 -0.7624
 3655TIP3    H232601   2.752   2.055   6.725 -0.2690 -1.1566  0.0143
 3656TIP3   OH232602   4.247   4.758   2.250  0.0709 -0.1952 -0.0386
 3656TIP3    H132603   4.263   4.665   2.233  1.3008 -0.2022  1.0514
 3656TIP3    H232604   4.312   4.782   2.316 -1.1086  1.1140  0.6919
 3657TIP3   OH232605   2.843   3.899   1.485  0.4832 -0.1800  0.0642
 3657TIP3    H132606   2.805   3.816   1.457 -0.2049  0.4004 -0.7883
 3657TIP3    H232607   2.767   3.952   1.510  0.9003  0.2583  0.4119
 3658TIP3   OH232608   2.613   3.106   1.127 -0.4398  0.1777 -1.0589
 3658TIP3    H132609   2.700   3.141   1.145 -1.7998  2.1073  3.0020
 3658TIP3    H232610   2.603   3.033   1.187 -2.1243  1.0171 -0.2536
 3659TIP3   OH232611   6.254   0.271   1.873  0.0455 -0.2079 -0.6287
 3659TIP3    H132612   6.166   0.292   1.841 -0.2506 -1.6192 -0.8021
 3659TIP3    H232613   6.239   0.227   1.957  0.3904 -2.5479 -1.7010
 3660TIP3   OH232614   1.414   3.546   0.227 -0.0450  0.4355 -0.2373
 3660TIP3    H132615   1.448   3.628   0.260  3.1490 -0.2121 -1.5130
 3660TIP3    H232616   1.442   3.480   0.290 -0.0952  0.0252 -0.6307
 3661TIP3   OH232617   5.545   5.833   8.065  0.3097 -1.1143  0.0888
 3661TIP3    H132618   5.598   5.909   8.045 -1.0132  0.2132  1.3754
 3661TIP3    H232619   5.462   5.848   8.021  0.2719 -2.1739 -0.2409
 3662TIP3   OH232620   3.263   5.656   8.417 -0.1041  0.2161 -0.2984
 3662TIP3    H132621   3.258   5.567   8.449 -1.0565 -0.0342 -1.0713
 3662TIP3    H232622   3.174   5.676   8.387 -0.1518  1.7634  0.7224
 3663TIP3   OH232623   4.786   0.210   8.890 -0.0489 -0.2273  0.2142
 3663TIP3    H132624   4.778   0.301   8.918 -2.3910 -0.5252  0.6921
 3663TIP3    H232625   4.831   0.167   8.963 -0.4781  0.2148  0.7506
 3664TIP3   OH232626   0.892   2.327   2.381  0.4801 -0.4347 -0.1986
 3664TIP3    H132627   0.860   2.407   2.423 -1.9057 -0.9133 -0.9742
 3664TIP3    H232628   0.843   2.257   2.423  0.7088 -1.2631 -1.2779
 3665TIP3   OH232629   3.728   6.035   0.375  0.0213 -0.0140  0.4437
 3665TIP3    H132630   3.664   5.985   0.426 -0.7023 -0.1682 -0.5885
 3665TIP3    H232631   3.682   6.115   0.350  0.2454 -0.0907 -0.2431
 3666TIP3   OH232632   0.269   4.683   2.274  0.0648 -0.5326 -0.5513
 3666TIP3    H132633   0.199   4.666   2.337 -0.1547 -1.0371 -0.9223
 3666TIP3    H232634   0.303   4.769   2.298 -0.9420 -0.1100 -0.6134
 3667TIP3   OH232635   1.952   4.046   1.805 -0.3824 -0.7100  0.0397
 3667TIP3    H132636   2.010   4.109   1.848 -0.1909  0.4790 -1.8337
 3667TIP3    H232637   1.874   4.044   1.861  0.6756 -0.8854  1.5694
 3668TIP3   OH232638   5.039   0.095   6.642 -0.3808 -0.0383 -0.0706
 3668TIP3    H132639   5.065   0.005   6.664 -1.6617  0.1795  2.7105
 3668TIP3    H232640   5.024   0.137   6.726  2.2041  3.5065 -1.1573
 3669TIP3   OH232641   0.155   1.387   8.767  0.2793 -0.0113  0.0931
 3669TIP3    H132642   0.143   1.482   8.771  2.2801  0.2644  1.4077
 3669TIP3    H232643   0.067   1.352   8.751 -0.4936  2.0418 -0.5112
 3670TIP3   OH232644   1.100   3.236   7.901  0.3879 -0.2289  0.0680
 3670TIP3    H132645   1.088   3.185   7.981  1.4339 -0.2594  0.2236
 3670TIP3    H232646   1.146   3.177   7.842 -1.7325 -0.7497 -1.1628
 3671TIP3   OH232647   3.207   2.985   7.788 -0.2742 -0.2514  0.4182
 3671TIP3    H132648   3.243   2.932   7.858  1.9004  0.4337 -0.0979
 3671TIP3    H232649   3.246   3.072   7.800 -0.0714 -0.0286 -1.4293
 3672TIP3   OH232650   5.277   4.857   1.143  0.5135  0.1152  0.1725
 3672TIP3    H132651   5.226   4.938   1.150  0.3914  0.0131  0.4919
 3672TIP3    H232652   5.367   4.886   1.128  0.0486  0.2856 -2.8875
 3673TIP3   OH232653   3.559   1.635   7.642 -0.1721 -0.5703  0.0893
 3673TIP3    H132654   3.584   1.640   7.550  1.3089 -0.0162  0.4870
 3673TIP3    H232655   3.472   1.674   7.646 -0.7603 -1.6635 -1.2307
 3674TIP3   OH232656   3.318   4.264   6.941 -0.2183 -0.4442 -0.3899
 3674TIP3    H132657   3.333   4.171   6.927  0.1073 -0.3838 -0.4476
 3674TIP3    H232658   3.404   4.304   6.931 -0.3676 -0.1298 -0.4235
 3675TIP3   OH232659   2.918   5.259   1.670 -0.1761 -0.5154 -0.1187
 3675TIP3    H132660   2.835   5.267   1.623 -1.1395 -0.4562  1.5163
 3675TIP3    H232661   2.949   5.349   1.679  0.1496 -0.5478 -0.8406
 3676TIP3   OH232662   0.849   4.018   0.615 -0.3815 -0.1981 -0.6129
 3676TIP3    H132663   0.788   4.032   0.543 -1.7422 -0.3605  0.4682
 3676TIP3    H232664   0.863   3.924   0.617 -2.0177 -0.4610  0.6014
 3677TIP3   OH232665   2.069   4.066   6.489  0.3064  0.2717  0.2281
 3677TIP3    H132666   2.154   4.087   6.448  0.0295  1.6796  0.3523
 3677TIP3    H232667   2.063   3.970   6.481  1.5243  0.2269 -0.5344
 3678TIP3   OH232668   6.099   6.614   1.135 -0.3937  0.1435  0.1482
 3678TIP3    H132669   6.143   6.625   1.051 -1.0068 -1.1803 -0.3722
 3678TIP3    H232670   6.085   6.703   1.166  0.6519  0.6354 -0.7154
 3679TIP3   OH232671   4.398   3.599   7.955  0.4033 -0.1208  0.2057
 3679TIP3    H132672   4.420   3.680   8.002 -1.5988  0.3810  0.3641
 3679TIP3    H232673   4.410   3.530   8.020 -0.1886  0.3279  0.8147
 3680TIP3   OH232674   3.104   6.232   7.397  0.5848 -0.0024 -0.4187
 3680TIP3    H132675   3.198   6.245   7.384  0.6857 -1.1953 -0.9336
 3680TIP3    H232676   3.063   6.289   7.332  0.9672 -0.3210 -0.9384
 3681TIP3   OH232677   2.646   2.108   0.629  0.1699  0.6261 -0.2514
 3681TIP3    H132678   2.620   2.017   0.619 -0.0191  0.5061  1.1850
 3681TIP3    H232679   2.653   2.121   0.723 -1.6837  2.6059 -0.3000
 3682TIP3   OH232680   4.854   4.496   0.565  0.3652 -0.3074  0.5910
 3682TIP3    H132681   4.813   4.479   0.650  0.9372 -0.3579  0.8630
 3682TIP3    H232682   4.896   4.581   0.575  2.0363 -1.1175  1.0069
 3683TIP3   OH232683   4.197   2.928   0.633  0.1649 -0.3294  0.2626
 3683TIP3    H132684   4.109   2.947   0.602 -0.1678 -0.4738  1.0955
 3683TIP3    H232685   4.253   2.990   0.586 -0.5569  0.7490  0.7787
 3684TIP3   OH232686   0.143   2.012   1.753  0.4634 -0.7045  0.1104
 3684TIP3    H132687   0.101   1.938   1.709 -0.8998  0.1287 -0.0548
 3684TIP3    H232688   0.144   1.988   1.846 -0.2197 -0.8147  0.0908
 3685TIP3   OH232689   5.439   5.062   0.809 -0.2445 -0.3068 -0.1678
 3685TIP3    H132690   5.450   5.017   0.725  1.4321 -0.2146 -0.0395
 3685TIP3    H232691   5.347   5.088   0.811 -0.4634 -0.8664 -1.6945
 3686TIP3   OH232692   5.312   1.738   1.788 -0.0724 -0.2918  0.5286
 3686TIP3    H132693   5.246   1.790   1.742  0.4666  0.6606  0.7947
 3686TIP3    H232694   5.318   1.657   1.737 -2.1703 -0.8570  1.0885
 3687TIP3   OH232695   4.502   2.186   0.105  1.0751 -0.6779  0.1126
 3687TIP3    H132696   4.447   2.120   0.062  0.0607  1.0099 -1.3196
 3687TIP3    H232697   4.440   2.255   0.131  1.9616 -0.6772  2.4572
 3688TIP3   OH232698   3.603   5.469   1.252  0.6617  0.0932 -0.4889
 3688TIP3    H132699   3.573   5.536   1.313  1.6612 -0.2707  0.4279
 3688TIP3    H232700   3.527   5.452   1.196 -0.5407 -0.0937  1.1198
 3689TIP3   OH232701   1.056   6.056   0.971  0.2349 -1.4831  0.0116
 3689TIP3    H132702   1.091   6.003   1.043 -1.1129 -1.9457  0.3575
 3689TIP3    H232703   1.029   6.138   1.013  0.3799 -1.3584 -0.1411
 3690TIP3   OH232704   1.615   0.826   7.855 -0.1682 -0.3062 -0.2386
 3690TIP3    H132705   1.527   0.835   7.891  0.0211 -3.6286  1.3975
 3690TIP3    H232706   1.669   0.886   7.908 -0.8632 -1.0071  1.3215
 3691TIP3   OH232707   4.944   2.017   0.613  0.4433 -0.1086 -0.0473
 3691TIP3    H132708   4.982   2.097   0.577  1.0920 -0.9078 -1.1955
 3691TIP3    H232709   4.866   2.002   0.560 -0.6745  0.6838  1.3033
 3692TIP3   OH232710   2.539   3.300   1.377 -0.0332 -0.4298  0.0650
 3692TIP3    H132711   2.588   3.223   1.408 -0.6525 -0.5555  0.7301
 3692TIP3    H232712   2.453   3.293   1.418 -1.4789 -1.4518 -2.8022
 3693TIP3   OH232713   4.365   4.978   7.127  0.3450  0.0497 -0.0922
 3693TIP3    H132714   4.373   4.884   7.113  0.5042 -0.1698  1.2647
 3693TIP3    H232715   4.338   5.014   7.043  1.5976 -1.0350 -0.9839
 3694TIP3   OH232716   4.777   0.391   6.302 -0.6377 -0.1762  0.2291
 3694TIP3    H132717   4.701   0.335   6.321 -0.5598 -0.3418  0.0569
 3694TIP3    H232718   4.852   0.336   6.323 -0.5344 -0.6017 -1.1890
 3695TIP3   OH232719   2.201   5.576   8.410 -0.2744  0.7802 -0.1940
 3695TIP3    H132720   2.177   5.484   8.396  1.3721  0.4560 -1.1846
 3695TIP3    H232721   2.161   5.623   8.337 -1.0017  0.8419  0.2374
 3696TIP3   OH232722   4.585   1.527   8.303 -0.3061  0.3314 -0.0150
 3696TIP3    H132723   4.668   1.512   8.348 -0.2332  1.0288  0.0833
 3696TIP3    H232724   4.530   1.452   8.328  0.4298 -0.3556 -0.4242
 3697TIP3   OH232725   0.767   1.826   1.830  0.3847 -0.2301  0.1008
 3697TIP3    H132726   0.720   1.882   1.769  2.3614  2.4275  0.8299
 3697TIP3    H232727   0.810   1.761   1.775 -1.8457 -1.0819 -0.7842
 3698TIP3   OH232728   3.188   2.634   0.768 -0.0879 -0.6821 -0.3102
 3698TIP3    H132729   3.123   2.577   0.725 -1.5623  0.4128  0.3767
 3698TIP3    H232730   3.257   2.644   0.703 -3.0252  2.4063 -3.4123
 3699TIP3   OH232731   2.136   6.485   6.683 -0.3149  0.9980 -0.0734
 3699TIP3    H132732   2.083   6.564   6.672 -2.1917  0.0133  1.2722
 3699TIP3    H232733   2.105   6.425   6.615 -0.9310  0.4491  0.6638
 3700TIP3   OH232734   6.389   5.352   8.812  0.0652 -0.0169 -0.2944
 3700TIP3    H132735   6.377   5.376   8.904  1.0100  1.7452 -0.5865
 3700TIP3    H232736   6.305   5.373   8.771 -0.4119 -0.9578  0.1856
 3701TIP3   OH232737   6.422   2.888   0.053 -0.1428  0.1868 -0.0081
 3701TIP3    H132738   6.441   2.979   0.077  0.6404  0.0856 -0.1884
 3701TIP3    H232739   6.394   2.892  -0.039 -0.4918  0.2860  0.1025
 3702TIP3   OH232740   0.001   1.333   6.793 -0.3709 -0.1212 -0.4667
 3702TIP3    H132741  -0.070   1.269   6.805  0.1925 -0.8348 -0.8261
 3702TIP3    H232742  -0.028   1.410   6.842 -2.0531  0.1435 -1.7507
 3703TIP3   OH232743   1.704   5.870   0.969  0.6254 -0.5942 -0.4940
 3703TIP3    H132744   1.697   5.916   1.053  0.0032  0.5513 -1.1461
 3703TIP3    H232745   1.624   5.893   0.923  1.3749 -0.4539 -1.7613
 3704TIP3   OH232746   0.999   5.773   1.769 -0.3950  0.2360  0.4436
 3704TIP3    H132747   0.948   5.702   1.807 -1.2409  0.7023  0.1854
 3704TIP3    H232748   1.015   5.833   1.841 -0.4034  0.2081  0.4688
 3705TIP3   OH232749   1.990   4.253   0.967  0.2785 -0.4120 -0.1089
 3705TIP3    H132750   2.070   4.281   0.924  0.8828 -1.1556  0.4964
 3705TIP3    H232751   1.920   4.277   0.907  1.0292 -0.5440 -1.0474
 3706TIP3   OH232752   1.500   5.841   8.007  0.9042 -0.4920  0.0637
 3706TIP3    H132753   1.520   5.803   8.092  2.6441 -1.7721 -0.8563
 3706TIP3    H232754   1.424   5.791   7.975 -0.2610  0.5207  1.1435
 3707TIP3   OH232755   2.931   6.244   7.604 -0.7779  0.2201  0.0073
 3707TIP3    H132756   2.995   6.224   7.536 -0.6995  1.7769 -0.4341
 3707TIP3    H232757   2.882   6.319   7.569 -1.1527  0.6505  1.3909
 3708TIP3   OH232758   4.437   1.274   7.706 -0.6997 -0.0401 -0.3191
 3708TIP3    H132759   4.471   1.330   7.636 -0.2036 -1.1495 -1.0062
 3708TIP3    H232760   4.480   1.305   7.785  0.4217 -0.1417 -0.8649
 3709TIP3   OH232761   0.813   4.930   1.622 -0.0693  0.2929  0.3023
 3709TIP3    H132762   0.864   4.885   1.689 -1.8024 -1.2452  0.6495
 3709TIP3    H232763   0.738   4.966   1.668 -0.6727  0.2444 -0.6164
 3710TIP3   OH232764   5.783   2.061   7.713 -0.4342 -0.2584  0.5412
 3710TIP3    H132765   5.851   2.109   7.759 -0.5073  1.7907 -1.3493
 3710TIP3    H232766   5.708   2.064   7.773 -0.5103  2.2671  0.4294
 3711TIP3   OH232767   6.388   3.147   8.711 -0.3792  0.1199 -0.1439
 3711TIP3    H132768   6.443   3.217   8.676 -1.9901  1.0916 -0.8576
 3711TIP3    H232769   6.340   3.189   8.783 -0.0697 -0.7544  0.5825
 3712TIP3   OH232770   0.155   4.300   0.351  0.5953 -0.0313  0.4059
 3712TIP3    H132771   0.163   4.217   0.304 -1.1470  0.0581 -0.1284
 3712TIP3    H232772   0.199   4.285   0.434  1.1079 -1.1894 -0.0547
 3713TIP3   OH232773   5.502   0.080   8.109  0.0194  0.6759  0.2241
 3713TIP3    H132774   5.432   0.131   8.068 -0.3772  1.3435  1.6418
 3713TIP3    H232775   5.566   0.066   8.040 -1.3040  0.4487 -0.9935
 3714TIP3   OH232776   4.405   3.729   1.796  0.3078  0.3518 -0.0745
 3714TIP3    H132777   4.317   3.698   1.818  1.0206 -2.0804 -0.3602
 3714TIP3    H232778   4.391   3.807   1.743 -1.6886 -0.0379 -0.1828
 3715TIP3   OH232779   5.795   5.792   2.453  0.1962 -0.2911  0.9624
 3715TIP3    H132780   5.833   5.871   2.414 -0.8939 -1.0411 -1.8537
 3715TIP3    H232781   5.768   5.819   2.541  0.4607  2.2666  0.3358
 3716TIP3   OH232782   4.035   6.764   6.489  0.3722 -0.2199 -0.3045
 3716TIP3    H132783   3.940   6.773   6.486  0.4721  1.8847  0.8696
 3716TIP3    H232784   4.053   6.682   6.443 -1.9101 -0.1295 -1.4979
 3717TIP3   OH232785   2.457   0.770   8.780 -0.2981 -0.1510  0.2724
 3717TIP3    H132786   2.524   0.804   8.721 -0.1988 -0.2508  0.3271
 3717TIP3    H232787   2.375   0.809   8.748 -0.0167  1.2879  1.1994
 3718TIP3   OH232788   2.217   4.339   6.596  0.4817 -0.1081  0.4084
 3718TIP3    H132789   2.153   4.390   6.547 -0.6645 -0.2730  1.6902
 3718TIP3    H232790   2.241   4.267   6.538 -1.2558 -0.6082  0.2656
 3719TIP3   OH232791   2.086   0.632   7.438 -0.8214  0.4087  0.0727
 3719TIP3    H132792   2.045   0.678   7.365 -0.6940 -0.3986 -0.5176
 3719TIP3    H232793   2.035   0.552   7.447  0.6165 -0.6263 -0.6856
 3720TIP3   OH232794   3.552   2.855   1.267 -0.4500 -0.4759 -0.3621
 3720TIP3    H132795   3.480   2.892   1.318  1.1135  0.5162  1.2807
 3720TIP3    H232796   3.553   2.762   1.290 -2.2861 -0.9372 -1.8610
 3721TIP3   OH232797   6.296   0.826   0.699 -0.3911  0.1712  0.2420
 3721TIP3    H132798   6.267   0.905   0.652 -1.2494  0.2712  0.9277
 3721TIP3    H232799   6.384   0.809   0.663  0.5995  2.4798  1.3239
 3722TIP3   OH232800   3.222   0.498   0.231  0.0912 -0.2625 -0.1270
 3722TIP3    H132801   3.210   0.526   0.140 -0.0878  1.5655  0.4133
 3722TIP3    H232802   3.144   0.446   0.251 -0.3178  0.1098 -0.7365
 3723TIP3   OH232803   6.309   6.362   0.045  0.2492  0.1228  0.1201
 3723TIP3    H132804   6.404   6.370   0.034  0.0977  0.4070 -1.2240
 3723TIP3    H232805   6.282   6.305  -0.027 -0.7320  1.0064 -0.2334
 3724TIP3   OH232806   4.940   4.246   7.248 -0.1839  0.1934  0.3016
 3724TIP3    H132807   4.909   4.158   7.269  0.1675  0.5672  2.7516
 3724TIP3    H232808   4.869   4.304   7.278  0.2330  0.7892  0.1505
 3725TIP3   OH232809   5.111   0.034   0.487  0.1289  0.0497 -0.7187
 3725TIP3    H132810   5.086  -0.038   0.428  0.1347 -1.2989  0.8317
 3725TIP3    H232811   5.204   0.048   0.470  0.4331 -1.1916 -0.2002
 3726TIP3   OH232812   5.973   0.087   7.727 -0.1699 -0.5527  0.4471
 3726TIP3    H132813   5.996   0.079   7.635  1.1424  0.0549  0.6910
 3726TIP3    H232814   6.056   0.071   7.774 -0.6905 -0.2994  1.4923
 3727TIP3   OH232815   3.659   2.774   0.147 -0.0665 -0.1969 -0.1725
 3727TIP3    H132816   3.697   2.859   0.122 -1.0525  0.7244  1.2642
 3727TIP3    H232817   3.638   2.784   0.240 -1.1805 -1.6556 -0.2346
 3728TIP3   OH232818   2.216   0.908   6.928  0.3049  0.2047  0.0608
 3728TIP3    H132819   2.283   0.842   6.947 -0.5867 -0.4286  1.0853
 3728TIP3    H232820   2.263   0.992   6.934  1.3570 -0.2834 -0.8596
 3729TIP3   OH232821   3.359   4.456   1.719  0.1272 -0.4205  0.6145
 3729TIP3    H132822   3.378   4.546   1.694 -0.2071 -0.1883  1.1717
 3729TIP3    H232823   3.324   4.416   1.640 -1.0106  0.3289  0.7105
 3730TIP3   OH232824   5.052   6.081   2.487 -0.0926  0.4201  0.3525
 3730TIP3    H132825   5.085   5.991   2.482  0.5820  0.6910 -3.1126
 3730TIP3    H232826   4.981   6.077   2.551  0.9098 -2.2222  1.4314
 3731TIP3   OH232827   0.351   5.892   2.416  0.5195 -0.1312 -0.0037
 3731TIP3    H132828   0.353   5.971   2.362  0.2530  0.4458  0.8130
 3731TIP3    H232829   0.336   5.821   2.354 -0.7449  0.6141 -0.5911
 3732TIP3   OH232830   6.676   6.062   3.030 -0.0256 -0.4611 -0.2119
 3732TIP3    H132831   6.683   6.156   3.014 -2.7733 -0.1755 -0.2508
 3732TIP3    H232832   6.739   6.022   2.970  0.7203  1.2921 -0.6625
 3733TIP3   OH232833   3.094   0.235   8.597 -0.3917  0.5948  0.7899
 3733TIP3    H132834   3.118   0.174   8.528 -1.9500  0.2008  0.5428
 3733TIP3    H232835   3.176   0.278   8.622  0.8916 -2.0520  1.4469
 3734TIP3   OH232836   6.264   4.631   0.131  0.2991  0.5583 -0.2324
 3734TIP3    H132837   6.299   4.698   0.072 -1.7949  1.2752 -0.7556
 3734TIP3    H232838   6.276   4.667   0.219  0.4138  1.0044 -0.4296
 3735TIP3   OH232839   0.970   4.920   1.411  0.1038 -0.1782  0.1259
 3735TIP3    H132840   0.907   4.981   1.372  0.4170 -0.1808 -0.3963
 3735TIP3    H232841   0.941   4.910   1.501 -1.6162 -1.4316 -0.5057
 3736TIP3   OH232842   4.970   2.416   6.630  0.7785  0.8811  0.1686
 3736TIP3    H132843   4.904   2.432   6.697 -1.0778  0.5939 -1.4958
 3736TIP3    H232844   4.970   2.321   6.619  1.1446  0.9152 -0.1620
 3737TIP3   OH232845   0.011   0.257   2.169 -0.2140  0.0818  0.2230
 3737TIP3    H132846  -0.020   0.319   2.235 -0.8450  1.2270 -1.1004
 3737TIP3    H232847   0.074   0.306   2.116 -0.6348 -0.4269 -0.7829
 3738TIP3   OH232848   0.232   3.973   8.963 -0.6095  0.4635 -0.4312
 3738TIP3    H132849   0.277   3.915   9.024 -0.1467  1.4106  0.1499
 3738TIP3    H232850   0.149   3.994   9.005  0.2841  2.2123  0.5503
 3739TIP3   OH232851   3.570   3.299   1.158  0.4518  0.1300  0.8177
 3739TIP3    H132852   3.524   3.238   1.215 -1.6853  0.2402 -0.6944
 3739TIP3    H232853   3.566   3.383   1.205 -0.4419  0.0179  0.9640
 3740TIP3   OH232854   5.349   4.566   0.488 -0.4413 -0.1737 -0.5989
 3740TIP3    H132855   5.365   4.632   0.419 -1.0652 -0.1556 -0.7324
 3740TIP3    H232856   5.418   4.501   0.475 -0.6604 -0.2624 -1.3649
 3741TIP3   OH232857   2.115   5.072   6.355  0.3878 -0.3803 -0.1540
 3741TIP3    H132858   2.021   5.056   6.351  0.2658  0.3701 -0.4608
 3741TIP3    H232859   2.136   5.067   6.448 -0.0673  0.0255 -0.0230
 3742TIP3   OH232860   3.613   6.050   8.421 -0.5113 -0.3550  0.0829
 3742TIP3    H132861   3.574   5.964   8.410 -0.1307 -0.3542 -1.4803
 3742TIP3    H232862   3.559   6.108   8.366 -0.6578  0.3785  0.9713
 3743TIP3   OH232863   2.233   5.499   7.953  0.6327 -0.2996  0.2605
 3743TIP3    H132864   2.222   5.420   7.899 -1.4506 -0.1859  0.4256
 3743TIP3    H232865   2.310   5.543   7.916 -0.6590 -0.2408 -2.6568
 3744TIP3   OH232866   4.317   3.596   2.503 -0.3747  0.6995 -0.3305
 3744TIP3    H132867   4.260   3.671   2.520  0.3377  1.0117  0.7921
 3744TIP3    H232868   4.258   3.521   2.500 -0.8879  1.0594  0.4694
 3745TIP3   OH232869   5.227   3.880   7.211  0.2947 -0.1927 -0.0106
 3745TIP3    H132870   5.220   3.975   7.221  1.3242  0.1552 -2.1066
 3745TIP3    H232871   5.315   3.866   7.176  1.7830 -2.2997  3.9163
 3746TIP3   OH232872   3.387   6.436   0.024 -0.4107  0.1042  0.1515
 3746TIP3    H132873   3.437   6.514   0.001 -0.1476  0.0581  0.5516
 3746TIP3    H232874   3.433   6.364  -0.019 -0.8208  0.1993 -0.4573
 3747TIP3   OH232875   0.585   3.047   0.749  0.0456  0.4625  0.0555
 3747TIP3    H132876   0.657   3.009   0.698 -0.9219 -0.9725 -0.2805
 3747TIP3    H232877   0.604   3.020   0.839 -0.3558 -0.3786 -0.1085
 3748TIP3   OH232878   5.683   3.404   0.691  0.3191 -0.2549  0.2654
 3748TIP3    H132879   5.625   3.457   0.746 -0.0392 -0.2015 -0.1615
 3748TIP3    H232880   5.633   3.325   0.671  0.1573  0.0623 -0.6064
 3749TIP3   OH232881   6.760   1.717   0.443 -0.4061  0.2540 -0.4077
 3749TIP3    H132882   6.714   1.779   0.500  0.0821 -1.7191  2.3331
 3749TIP3    H232883   6.706   1.638   0.445  0.8915 -0.6617 -0.7183
 3750TIP3   OH232884   1.466   1.797   8.382 -0.1951 -0.2826 -0.0454
 3750TIP3    H132885   1.434   1.715   8.420 -0.3373 -0.3788 -0.3725
 3750TIP3    H232886   1.464   1.859   8.455 -0.5954 -0.4324  0.0745
 3751TIP3   OH232887   4.350   5.713   1.123  0.1676 -0.3589  0.2780
 3751TIP3    H132888   4.301   5.767   1.062  0.4868  1.3080  1.4509
 3751TIP3    H232889   4.349   5.761   1.205  1.5238 -1.5481  1.0426
 3752TIP3   OH232890   2.097   4.584   6.420  0.1939 -0.3885  0.5973
 3752TIP3    H132891   2.119   4.659   6.476 -0.0130  0.4906 -0.4646
 3752TIP3    H232892   2.001   4.582   6.420  0.1695 -1.9553  2.2689
 3753TIP3   OH232893   4.210   2.603   8.242 -0.0864  0.6218 -0.3000
 3753TIP3    H132894   4.229   2.513   8.217  1.0085  0.8420 -0.3286
 3753TIP3    H232895   4.296   2.646   8.245 -0.5707  1.6223 -0.1332
 3754TIP3   OH232896   6.667   2.731   6.721 -0.1159 -0.2585 -0.4184
 3754TIP3    H132897   6.594   2.704   6.666  0.1974 -0.6265 -0.6632
 3754TIP3    H232898   6.660   2.826   6.727 -1.4523 -0.4077  0.7554
 3755TIP3   OH232899   4.307   5.989   7.358  0.1558 -0.0519 -0.5027
 3755TIP3    H132900   4.237   5.934   7.393 -1.2301  0.9791 -1.5150
 3755TIP3    H232901   4.377   5.984   7.423 -2.1595  1.5845  2.3387
 3756TIP3   OH232902   0.625   1.449   8.178  0.5816  0.1079  0.3720
 3756TIP3    H132903   0.582   1.385   8.122  0.5710 -1.0394  1.6488
 3756TIP3    H232904   0.704   1.474   8.130  0.4866 -0.7309 -0.2372
 3757TIP3   OH232905   4.231   5.365   8.896 -0.2975 -0.0180  0.2025
 3757TIP3    H132906   4.193   5.402   8.816  1.3096 -0.4034 -0.7787
 3757TIP3    H232907   4.315   5.328   8.868  0.7185  0.6140  2.2289
 3758TIP3   OH232908   3.321   3.104   6.780 -0.0866  0.0137  0.3808
 3758TIP3    H132909   3.357   3.045   6.847  0.4428 -0.4900 -0.3292
 3758TIP3    H232910   3.261   3.161   6.828 -0.9448 -1.3801  1.0200
 3759TIP3   OH232911   0.042   3.946   0.607 -0.1827 -0.0873 -0.4160
 3759TIP3    H132912   0.032   3.861   0.649  1.2436  0.5499  1.3306
 3759TIP3    H232913   0.062   4.006   0.679  0.8167  1.3553 -1.8366
 3760TIP3   OH232914   0.218   3.632   7.894 -0.2524  0.0742  1.0660
 3760TIP3    H132915   0.149   3.667   7.836 -0.8784 -0.3137  1.5587
 3760TIP3    H232916   0.292   3.691   7.880 -0.3512 -0.0634 -0.2045
 3761TIP3   OH232917   2.427   0.117   8.991 -0.4376  0.4670  0.7414
 3761TIP3    H132918   2.486   0.042   9.003 -2.0775 -1.4131 -1.7962
 3761TIP3    H232919   2.458   0.182   9.053  3.6195 -0.7534  0.2768
 3762TIP3   OH232920   0.586   3.682   7.484  0.4474 -0.2175 -0.3786
 3762TIP3    H132921   0.609   3.768   7.449 -2.3418  0.5533 -0.5708
 3762TIP3    H232922   0.655   3.624   7.453  1.2847  1.5497 -2.0542
 3763TIP3   OH232923   3.853   1.614   1.056 -0.3844  0.5649 -0.2400
 3763TIP3    H132924   3.807   1.606   0.972 -0.4084  0.7008 -0.2399
 3763TIP3    H232925   3.811   1.689   1.099  1.8731  2.7464 -1.5649
 3764TIP3   OH232926   6.151   3.608   8.097  0.0924 -0.3832 -0.0066
 3764TIP3    H132927   6.081   3.662   8.134  0.0647 -0.2623 -0.2364
 3764TIP3    H232928   6.116   3.519   8.101  0.8891 -0.6655  2.1934
 3765TIP3   OH232929   5.395   5.612   7.346  0.2458  0.0545 -0.1221
 3765TIP3    H132930   5.437   5.695   7.325  0.6952  0.2327  1.3558
 3765TIP3    H232931   5.370   5.620   7.438  0.8918 -1.6813  0.2460
 3766TIP3   OH232932   0.253   1.221   8.556 -0.1207 -0.0617  0.1588
 3766TIP3    H132933   0.249   1.271   8.638  0.3373  0.5486 -0.1750
 3766TIP3    H232934   0.256   1.289   8.488 -1.7912 -0.5447 -0.4514
 3767TIP3   OH232935   2.471   6.739   0.376 -0.3820  0.4434  0.4317
 3767TIP3    H132936   2.437   6.679   0.310  0.9312 -0.5435  0.6140
 3767TIP3    H232937   2.534   6.687   0.426 -1.8285  0.9669  2.9496
 3768TIP3   OH232938   3.180   0.809   2.339 -0.2098 -0.2133  0.4172
 3768TIP3    H132939   3.203   0.832   2.249  1.2327 -0.0334  0.8068
 3768TIP3    H232940   3.264   0.801   2.384 -0.9229  1.4561  2.2004
 3769TIP3   OH232941   1.122   6.289   8.096  0.1776  0.0945 -0.5109
 3769TIP3    H132942   1.106   6.373   8.141  0.5455 -0.5755  0.9469
 3769TIP3    H232943   1.180   6.242   8.155 -0.1880 -1.2811 -1.2142
 3770TIP3   OH232944   2.451   0.488   8.495  0.2805 -0.8137 -0.0942
 3770TIP3    H132945   2.529   0.529   8.532  0.5806 -1.7978  0.3931
 3770TIP3    H232946   2.441   0.406   8.543 -0.9154 -0.8257 -0.3193
 3771TIP3   OH232947   1.115   4.069   7.388 -0.2202  0.4184 -0.0513
 3771TIP3    H132948   1.174   4.060   7.463  0.2695 -1.1882 -0.5994
 3771TIP3    H232949   1.163   4.122   7.326 -0.4303  1.3427  0.5532
 3772TIP3   OH232950   0.406   3.400   1.596  0.4437  0.5125  0.1064
 3772TIP3    H132951   0.426   3.469   1.659  1.7437  1.2737 -1.0857
 3772TIP3    H232952   0.311   3.390   1.601  0.4012  1.2844  1.4079
 3773TIP3   OH232953   4.338   6.190   0.733 -0.2442  0.0894  0.1832
 3773TIP3    H132954   4.400   6.234   0.674  0.6221  1.3341  1.9228
 3773TIP3    H232955   4.258   6.242   0.727 -0.6230 -0.5968 -0.8945
 3774TIP3   OH232956   5.011   4.169   1.604  0.0734  0.2999  0.2615
 3774TIP3    H132957   5.062   4.092   1.627  0.9243  0.6706 -0.3183
 3774TIP3    H232958   4.920   4.141   1.611  0.3704 -0.9635 -0.6219
 3775TIP3   OH232959   1.296   5.361   0.123 -0.1607 -0.1724 -0.2417
 3775TIP3    H132960   1.340   5.297   0.179  0.7909 -2.1671 -3.0020
 3775TIP3    H232961   1.350   5.440   0.130  0.6650 -0.7862  0.6461
 3776TIP3   OH232962   4.867   3.112   2.294 -0.7456  0.2266 -0.0911
 3776TIP3    H132963   4.918   3.168   2.353  0.2992 -1.5105  0.7636
 3776TIP3    H232964   4.779   3.112   2.332 -0.1933 -0.5202  1.3018
 3777TIP3   OH232965   4.062   0.979   7.686  0.5636 -0.0139  0.5509
 3777TIP3    H132966   4.048   0.884   7.679  0.1868 -0.0368  1.5188
 3777TIP3    H232967   4.157   0.989   7.688  0.6134 -0.5415  2.3588
 3778TIP3   OH232968   1.610   2.561   1.778 -0.1858 -0.0467  0.0080
 3778TIP3    H132969   1.638   2.513   1.856  0.9051 -0.1329 -0.4075
 3778TIP3    H232970   1.520   2.533   1.763 -1.1000  1.3228  2.2690
 3779TIP3   OH232971   6.483   3.811   0.797 -0.4001  0.8084 -0.5629
 3779TIP3    H132972   6.535   3.746   0.844 -0.3331  2.8686  2.5058
 3779TIP3    H232973   6.410   3.761   0.760  1.1908 -1.3916 -0.9306
 3780TIP3   OH232974   6.373   3.673   2.510  0.4734 -0.4886  0.1645
 3780TIP3    H132975   6.424   3.750   2.536  0.4120 -0.1763 -0.6187
 3780TIP3    H232976   6.436   3.613   2.471  0.0315  0.6186 -2.4076
 3781TIP3   OH232977   4.005   0.508   6.821 -0.5659  0.0114  0.4529
 3781TIP3    H132978   3.925   0.457   6.810 -0.0272 -0.3950 -2.1073
 3781TIP3    H232979   4.019   0.550   6.736  1.9016  0.1387  0.8525
 3782TIP3   OH232980   5.383   4.038   1.495  0.2147 -0.0697 -0.4496
 3782TIP3    H132981   5.386   4.063   1.587 -1.3404 -1.5275  0.0433
 3782TIP3    H232982   5.473   4.049   1.465  0.1645  3.7827  0.2392
 3783TIP3   OH232983   2.265   1.194   7.733 -0.4596 -0.2950 -0.0696
 3783TIP3    H132984   2.181   1.216   7.773 -0.2553 -0.6022  0.5424
 3783TIP3    H232985   2.323   1.176   7.807  0.1575 -0.0490 -0.4868
 3784TIP3   OH232986   4.077   5.524   0.149  0.6874 -0.7553 -0.5453
 3784TIP3    H132987   4.111   5.488   0.067  1.1241 -1.5806 -0.0146
 3784TIP3    H232988   3.995   5.478   0.163  0.6330 -0.6433 -0.4947
 3785TIP3   OH232989   3.806   4.747   8.236  0.4644  0.8496 -0.6595
 3785TIP3    H132990   3.856   4.715   8.311  1.0062 -2.0051 -2.0925
 3785TIP3    H232991   3.715   4.740   8.263  0.6914  1.6261  0.3475
 3786TIP3   OH232992   1.781   1.950   2.284 -0.0776  0.2797 -0.4630
 3786TIP3    H132993   1.873   1.976   2.281 -0.1414  0.6886  0.6811
 3786TIP3    H232994   1.744   1.999   2.357 -0.7941 -1.1948  0.2124
 3787TIP3   OH232995   2.343   6.704   1.092 -0.5725  0.3802 -0.0539
 3787TIP3    H132996   2.325   6.654   1.172  1.1274  0.9941  0.7556
 3787TIP3    H232997   2.336   6.639   1.022 -2.4722 -0.0919  0.4989
 3788TIP3   OH232998   3.551   1.211   6.067 -0.5334 -0.2004 -0.0453
 3788TIP3    H132999   3.616   1.277   6.041 -2.0665  1.1357 -0.7021
 3788TIP3    H233000   3.602   1.132   6.084  1.5185  1.4139  1.8590
 3789TIP3   OH233001   0.653   2.219   7.764  0.4182  0.7199  0.0976
 3789TIP3    H133002   0.705   2.215   7.683 -0.3143  1.9023 -0.4602
 3789TIP3    H233003   0.564   2.239   7.734 -0.6102 -2.0435  0.9575
 3790TIP3   OH233004   4.132   0.630   7.146  0.0601  0.0775 -0.1695
 3790TIP3    H133005   4.038   0.610   7.150 -0.2803  1.6344  0.2250
 3790TIP3    H233006   4.156   0.652   7.236  0.7546 -0.0405 -0.3198
 3791TIP3   OH233007   6.213   1.041   0.588  0.0901  0.0545 -0.0697
 3791TIP3    H133008   6.241   1.102   0.520 -1.0694 -1.6835 -2.2041
 3791TIP3    H233009   6.127   1.073   0.615  0.3753  0.5059  0.3401
 3792TIP3   OH233010   0.728   0.193   8.949  0.0834  0.1894  0.1070
 3792TIP3    H133011   0.816   0.177   8.983 -0.3711 -0.4271  1.0361
 3792TIP3    H233012   0.716   0.126   8.882  0.0831 -0.1458  0.4365
 3793TIP3   OH233013   0.110   5.957   2.262 -0.0599  0.1787 -0.7872
 3793TIP3    H133014   0.139   5.897   2.194 -0.4341 -1.4799  0.4273
 3793TIP3    H233015   0.184   6.017   2.275  0.6521 -0.5250 -1.4920
 3794TIP3   OH233016   5.283   2.672   7.013  0.0439 -0.2928 -0.3133
 3794TIP3    H133017   5.304   2.738   7.079  0.0826 -0.6484  0.0377
 3794TIP3    H233018   5.368   2.646   6.978  0.3446 -2.2275  1.5890
 3795TIP3   OH233019   4.063   3.835   0.740  0.5893  0.0904  0.0314
 3795TIP3    H133020   4.054   3.927   0.766 -0.4672  0.1743 -0.5771
 3795TIP3    H233021   4.073   3.838   0.645  0.3548 -0.4453 -0.0098
 3796TIP3   OH233022   4.536   0.826   1.071 -0.2882  0.0644 -0.0221
 3796TIP3    H133023   4.460   0.806   1.126  0.9750 -1.0968  1.4059
 3796TIP3    H233024   4.602   0.764   1.100  1.1504  0.9165 -1.3702
 3797TIP3   OH233025   5.584   3.811   8.090 -0.5391  0.4277 -0.0143
 3797TIP3    H133026   5.533   3.774   8.162 -0.6297  0.8477  0.1438
 3797TIP3    H233027   5.670   3.828   8.128 -1.4041  3.4691  0.9310
 3798TIP3   OH233028   2.958   1.680   7.962 -0.0518  0.1466 -0.2412
 3798TIP3    H133029   2.875   1.718   7.936 -0.0194  1.3068  1.1948
 3798TIP3    H233030   2.935   1.610   8.024  0.0374  0.6461  0.3640
 3799TIP3   OH233031   2.992   3.473   6.920 -0.0352 -0.5708 -0.3119
 3799TIP3    H133032   2.981   3.409   6.850 -0.8594 -0.8228  0.0356
 3799TIP3    H233033   3.057   3.434   6.978 -0.2909 -0.9371 -0.2719
 3800TIP3   OH233034   2.043   2.834   6.822 -0.0934 -0.4881  0.0474
 3800TIP3    H133035   2.067   2.871   6.737  0.6838 -0.2022  0.3884
 3800TIP3    H233036   2.043   2.739   6.807  1.7236 -0.5274  0.1434
 3801TIP3   OH233037   0.303   6.734   8.017 -0.1574  0.3786  0.5808
 3801TIP3    H133038   0.216   6.773   8.016 -0.0613  0.5994 -0.0626
 3801TIP3    H233039   0.360   6.800   8.057  0.1463  1.2589 -1.1882
 3802TIP3   OH233040   4.882   0.844   7.330 -0.2626 -0.2366 -0.0097
 3802TIP3    H133041   4.951   0.911   7.323  0.7964 -1.3287 -0.2750
 3802TIP3    H233042   4.847   0.837   7.241  1.1479 -1.5811 -0.4961
 3803TIP3   OH233043   5.997   3.797   0.927 -0.2345 -0.2676 -0.5076
 3803TIP3    H133044   6.044   3.828   1.005 -0.8313 -0.7830  0.0716
 3803TIP3    H233045   5.968   3.877   0.884 -1.8380  0.0391  1.0248
 3804TIP3   OH233046   5.883   6.065   7.849  0.3043  0.3310 -0.3273
 3804TIP3    H133047   5.912   6.154   7.830 -2.1098  1.4409  0.7384
 3804TIP3    H233048   5.865   6.027   7.763  1.1799  0.9387 -0.7886
 3805TIP3   OH233049   5.484   3.122   7.111 -0.2201  0.8238 -0.0960
 3805TIP3    H133050   5.392   3.145   7.104 -1.3878 -3.0719  0.3113
 3805TIP3    H233051   5.509   3.096   7.023 -0.4070 -0.8446  0.3140
 3806TIP3   OH233052   4.283   3.037   7.802  0.5288 -0.0808  0.1060
 3806TIP3    H133053   4.358   3.094   7.785  1.2884 -1.1454 -0.1880
 3806TIP3    H233054   4.319   2.949   7.803 -0.5718 -0.5458  0.9171
 3807TIP3   OH233055   4.051   0.251   8.913 -0.8703  0.3087 -0.0258
 3807TIP3    H133056   4.123   0.210   8.866 -0.0037  0.3236  1.2652
 3807TIP3    H233057   4.002   0.298   8.845 -0.4810 -0.8367 -1.1255
 3808TIP3   OH233058   6.623   4.638   0.847 -0.1605  0.7148  0.4111
 3808TIP3    H133059   6.546   4.654   0.792 -0.0921 -1.0921 -0.2762
 3808TIP3    H233060   6.668   4.565   0.805  0.6496  0.1713  2.1124
 3809TIP3   OH233061   4.036   3.512   8.369 -0.3625  0.1923  0.0992
 3809TIP3    H133062   4.127   3.536   8.390 -0.7520  0.3032  1.8261
 3809TIP3    H233063   4.008   3.579   8.306  0.7018  0.2231 -0.3750
 3810TIP3   OH233064   2.841   1.560   0.693  0.4554 -0.4423  0.2355
 3810TIP3    H133065   2.902   1.604   0.753 -0.0159 -0.5910  0.8404
 3810TIP3    H233066   2.824   1.476   0.735  0.6792 -0.8467 -0.4843
 3811TIP3   OH233067   3.591   3.044   0.020 -0.4671 -0.0883 -0.4792
 3811TIP3    H133068   3.617   2.998  -0.060  2.6908 -1.1056  0.9666
 3811TIP3    H233069   3.625   3.133   0.008  2.0334 -0.8266  0.5020
 3812TIP3   OH233070   2.576   4.411   1.346 -0.1486  0.1193 -0.2947
 3812TIP3    H133071   2.562   4.505   1.336 -2.8802 -0.2813 -1.1020
 3812TIP3    H233072   2.492   4.372   1.322  0.8800 -2.5366  0.1160
 3813TIP3   OH233073   3.236   2.265   1.449 -0.3576  0.0541 -0.3676
 3813TIP3    H133074   3.202   2.227   1.530 -0.1155  1.8828  0.6517
 3813TIP3    H233075   3.161   2.264   1.389 -0.3735 -1.8713 -0.3540
 3814TIP3   OH233076   6.575   6.746   2.055 -0.2907 -0.4398  0.3190
 3814TIP3    H133077   6.518   6.680   2.096 -0.4117 -0.2723  0.4249
 3814TIP3    H233078   6.579   6.720   1.963  0.5017 -1.1851  0.5504
 3815TIP3   OH233079   0.002   3.700   2.237  0.4807 -0.3465 -0.0256
 3815TIP3    H133080   0.046   3.679   2.319  0.0382 -0.0602  0.2859
 3815TIP3    H233081   0.015   3.622   2.182  0.7189 -0.5616  0.3335
 3816TIP3   OH233082   0.510   0.824   8.019 -0.0898  0.1417 -0.3638
 3816TIP3    H133083   0.505   0.910   8.059 -0.7058  1.0668 -2.2853
 3816TIP3    H233084   0.419   0.801   7.999  0.2600  0.5342 -2.7234
 3817TIP3   OH233085   0.853   6.410   0.500 -0.3361  0.2272  0.0780
 3817TIP3    H133086   0.795   6.472   0.544 -0.8470  1.5425 -2.2400
 3817TIP3    H233087   0.804   6.384   0.422  1.2071 -0.5704 -0.6719
 3818TIP3   OH233088   0.704   0.448   7.120  0.4533  0.1323  0.0966
 3818TIP3    H133089   0.688   0.379   7.184  1.1535 -0.7352 -0.6373
 3818TIP3    H233090   0.789   0.426   7.082  0.5376  1.2269 -0.3854
 3819TIP3   OH233091   3.388   0.344   8.336 -0.0309 -0.0515  0.3489
 3819TIP3    H133092   3.338   0.424   8.356  0.9517  0.2859  1.6281
 3819TIP3    H233093   3.439   0.367   8.258 -1.6917 -0.3473 -0.8797
 3820TIP3   OH233094   5.227   6.581   0.652 -0.1639  0.4856  0.2375
 3820TIP3    H133095   5.272   6.580   0.568  0.3033  1.2551  0.4600
 3820TIP3    H233096   5.197   6.672   0.661  0.9961  0.7905  1.5009
 3821TIP3   OH233097   5.079   3.337   8.610  0.4116 -0.6509 -0.2869
 3821TIP3    H133098   5.066   3.369   8.521 -1.1781 -0.6436 -0.0799
 3821TIP3    H233099   5.049   3.409   8.666  3.1567  0.1299  0.3646
 3822TIP3   OH233100   2.643   5.953   2.271 -0.3537 -0.0739 -0.0992
 3822TIP3    H133101   2.590   5.982   2.197  1.0753 -0.3938 -1.3017
 3822TIP3    H233102   2.644   5.857   2.264  0.1333 -0.0836  0.0781
 3823TIP3   OH233103   0.331   0.276   2.373  0.1916  0.0093  0.6847
 3823TIP3    H133104   0.340   0.285   2.468 -0.2008  2.4327  0.5733
 3823TIP3    H233105   0.277   0.351   2.347  0.9089 -0.1674 -1.5527
 3824TIP3   OH233106   2.944   4.820   0.844 -0.3413 -0.2772 -0.1384
 3824TIP3    H133107   2.911   4.878   0.776 -2.6365 -1.8777 -0.4712
 3824TIP3    H233108   3.040   4.825   0.834 -0.4585  2.4635 -0.8941
 3825TIP3   OH233109   3.618   6.413   0.843 -0.1613 -0.8554 -0.0828
 3825TIP3    H133110   3.567   6.343   0.883 -1.4880  0.4585  0.6219
 3825TIP3    H233111   3.646   6.467   0.917 -1.1877  0.6651 -0.7697
 3826TIP3   OH233112   4.861   4.296   8.118  0.0121  0.0550  0.1815
 3826TIP3    H133113   4.797   4.365   8.099  0.0501 -0.0741 -0.4496
 3826TIP3    H233114   4.820   4.243   8.185 -1.1270 -0.7897 -1.1348
 3827TIP3   OH233115   0.740   2.085   2.533 -0.0111  0.0709  0.1776
 3827TIP3    H133116   0.749   1.997   2.495 -0.3893 -0.1196  0.5282
 3827TIP3    H233117   0.652   2.086   2.570  0.5598  0.0391  1.5908
 3828TIP3   OH233118   0.901   1.459   8.507  0.1434 -0.2070 -0.5781
 3828TIP3    H133119   0.972   1.508   8.466 -0.5475  0.0897 -1.4457
 3828TIP3    H233120   0.899   1.376   8.461  0.7113 -0.7199  0.2786
 3829TIP3   OH233121   4.046   4.740   7.892  0.5120 -0.3546 -0.6950
 3829TIP3    H133122   3.962   4.785   7.901  0.5340 -0.5606  0.7534
 3829TIP3    H233123   4.112   4.806   7.915  0.4929 -1.3284  2.5550
 3830TIP3   OH233124   5.115   3.361   7.814 -0.5306  0.3095  0.0152
 3830TIP3    H133125   5.175   3.434   7.806 -0.7891  0.4891 -0.2805
 3830TIP3    H233126   5.033   3.392   7.777 -0.6456 -0.1253 -0.1074
 3831TIP3   OH233127   6.325   3.732   7.614 -0.1056 -0.3186  0.1409
 3831TIP3    H133128   6.307   3.711   7.522 -0.6152 -0.0281  0.1705
 3831TIP3    H233129   6.418   3.754   7.616 -0.0740 -0.4066 -0.2937
 3832TIP3   OH233130   5.627   6.311   8.907 -0.4915  0.1417  0.2028
 3832TIP3    H133131   5.667   6.251   8.970 -0.8801 -1.0527 -0.6371
 3832TIP3    H233132   5.669   6.289   8.823 -2.3597 -0.6971 -0.5837
 3833TIP3   OH233133   0.170   4.581   7.623  0.3093 -0.3120 -0.7094
 3833TIP3    H133134   0.241   4.637   7.655 -0.1478 -0.6383  0.9396
 3833TIP3    H233135   0.114   4.641   7.573  0.4055  0.4779  0.1071
 3834TIP3   OH233136   6.251   3.362   0.195  0.4356  0.3115 -0.3943
 3834TIP3    H133137   6.174   3.403   0.154 -0.3689 -1.2715 -0.5579
 3834TIP3    H233138   6.307   3.435   0.221 -1.7003  1.5899  0.8906
 3835TIP3   OH233139   6.747   5.065   0.685 -0.2327 -0.1439  0.1765
 3835TIP3    H133140   6.736   4.992   0.746  1.3440  0.2964  1.0430
 3835TIP3    H233141   6.764   5.140   0.741 -1.8557  0.9176 -0.7087
 3836TIP3   OH233142   2.961   5.256   1.953 -0.5166  0.1817 -0.4043
 3836TIP3    H133143   3.003   5.325   2.004  0.8655  0.3439 -1.6797
 3836TIP3    H233144   2.938   5.298   1.870 -0.1737 -0.7394 -0.9801
 3837TIP3   OH233145   3.393   4.896   0.160  0.1845  0.0856  0.6244
 3837TIP3    H133146   3.416   4.987   0.143 -0.6045  0.4722  1.5275
 3837TIP3    H233147   3.421   4.880   0.250 -0.9765 -0.1136  0.9713
 3838TIP3   OH233148   2.655   0.234   8.623  0.3176  0.0011 -0.5347
 3838TIP3    H133149   2.586   0.186   8.576  0.0867  0.2777 -0.4759
 3838TIP3    H233150   2.676   0.178   8.698 -0.6103  0.4194  0.0537
 3839TIP3   OH233151   4.808   4.905   0.842 -0.4833 -0.4133 -0.1844
 3839TIP3    H133152   4.822   4.858   0.925 -0.2061 -1.0457 -0.5826
 3839TIP3    H233153   4.832   4.996   0.862 -2.5641 -0.0659  1.0411
 3840TIP3   OH233154   3.656   4.238   7.759 -0.2632  0.5693 -0.2951
 3840TIP3    H133155   3.717   4.165   7.749 -0.3426  0.4753 -0.0991
 3840TIP3    H233156   3.569   4.197   7.761 -0.2654  0.5916  0.5725
 3841TIP3   OH233157   2.450   2.566   0.085  0.6325  0.3116  0.0116
 3841TIP3    H133158   2.444   2.500   0.154  0.8980  2.8515  2.6860
 3841TIP3    H233159   2.359   2.581   0.059  0.5506 -0.8657 -0.4293
 3842TIP3   OH233160   4.138   4.555   8.898  0.4393 -0.0895 -0.0788
 3842TIP3    H133161   4.128   4.511   8.983 -0.4559  1.8774  0.9084
 3842TIP3    H233162   4.232   4.565   8.887  0.5910 -0.8658  0.4030
 3843TIP3   OH233163   6.521   5.370   8.332  0.4543 -0.7670  0.4544
 3843TIP3    H133164   6.574   5.437   8.289  0.4623 -0.2587  1.2392
 3843TIP3    H233165   6.469   5.332   8.262 -0.0511  0.5259  0.1046
 3844TIP3   OH233166   2.527   6.473   7.803 -0.0087 -0.1750 -0.3597
 3844TIP3    H133167   2.558   6.457   7.714  1.9799  0.3067  0.2052
 3844TIP3    H233168   2.449   6.528   7.791  0.3085 -0.0027 -1.7926
 3845TIP3   OH233169   3.115   0.964   0.043 -0.2284  0.5189 -0.3184
 3845TIP3    H133170   3.178   1.021   0.087 -2.3775  2.1828  0.8306
 3845TIP3    H233171   3.050   1.024   0.006 -1.5472 -1.1189 -0.8128
 3846TIP3   OH233172   6.353   6.048   1.183  0.0341 -0.0011  0.6280
 3846TIP3    H133173   6.439   6.042   1.141 -0.9002 -0.2904 -1.3324
 3846TIP3    H233174   6.338   5.961   1.219  0.1587 -0.2293  0.1358
 3847TIP3   OH233175   5.516   2.637   6.886  0.3357 -0.1004 -0.2516
 3847TIP3    H133176   5.571   2.606   6.813 -3.6801  0.4580 -3.8866
 3847TIP3    H233177   5.531   2.731   6.889  2.2452 -0.3857  1.4268
 3848TIP3   OH233178   5.915   1.846   2.135  0.8488 -0.3214 -0.1701
 3848TIP3    H133179   5.955   1.776   2.084 -0.8453  0.1242 -2.2645
 3848TIP3    H233180   5.878   1.906   2.070 -4.1157 -1.2037  1.3744
 3849TIP3   OH233181   6.599   1.274   0.005 -0.2188 -0.4527 -0.1394
 3849TIP3    H133182   6.689   1.303   0.018 -0.3976  1.0880 -1.8457
 3849TIP3    H233183   6.585   1.285  -0.090 -2.0829 -0.9828  0.0473
 3850TIP3   OH233184   0.873   2.992   7.875  0.1477 -0.0050  0.3084
 3850TIP3    H133185   0.789   3.035   7.896 -1.1632 -2.3412  0.1223
 3850TIP3    H233186   0.930   3.016   7.948  0.1825  3.6072 -0.7106
 3851TIP3   OH233187   4.356   6.765   2.594  0.3392 -0.2775 -0.5634
 3851TIP3    H133188   4.345   6.685   2.542  1.0958 -0.8995  0.2197
 3851TIP3    H233189   4.446   6.761   2.626 -0.2411 -0.1504  1.1820
 3852TIP3   OH233190   1.146   4.306   8.734 -0.0456  0.2899 -0.5748
 3852TIP3    H133191   1.223   4.269   8.777 -0.5604 -1.2589 -0.9247
 3852TIP3    H233192   1.090   4.335   8.806 -0.1435 -0.7169 -0.2267
 3853TIP3   OH233193   1.963   5.769   8.510  0.3243 -0.5098  0.1363
 3853TIP3    H133194   1.911   5.808   8.581  0.1035 -1.0391  0.2666
 3853TIP3    H233195   2.004   5.692   8.549 -1.1906 -1.8194 -0.7686
 3854TIP3   OH233196   3.450   2.968   1.957  0.6495 -0.3724  0.0357
 3854TIP3    H133197   3.360   2.939   1.941  0.6789 -0.3728 -0.1267
 3854TIP3    H233198   3.474   2.926   2.039 -0.5896  2.0379  1.7904
 3855TIP3   OH233199   5.638   3.925   0.950  0.4510  0.3180  0.2791
 3855TIP3    H133200   5.649   3.875   0.869 -0.3704 -1.2809  1.1007
 3855TIP3    H233201   5.620   4.014   0.921  0.1850 -0.2151 -1.2933
 3856TIP3   OH233202   5.935   5.840   8.189 -0.2065  0.1866  0.1610
 3856TIP3    H133203   5.911   5.898   8.261  0.7477 -0.3245  0.9057
 3856TIP3    H233204   6.009   5.884   8.147  1.2893 -1.0123  1.4476
 3857TIP3   OH233205   5.412   1.018   0.917  0.0462  0.0741  0.7575
 3857TIP3    H133206   5.449   1.068   0.990  0.9368  0.6624 -0.0743
 3857TIP3    H233207   5.470   1.036   0.843 -0.0029 -1.6702  0.2473
 3858TIP3   OH233208   0.359   3.242   2.029  0.0200 -0.1418 -0.1831
 3858TIP3    H133209   0.348   3.301   1.954  2.9072 -0.1391 -0.7122
 3858TIP3    H233210   0.441   3.270   2.070 -1.4018 -0.1985  3.0040
 3859TIP3   OH233211   1.657   3.280   0.057 -0.9611  0.2466  0.6325
 3859TIP3    H133212   1.695   3.311   0.139  1.8150 -0.4986 -0.2648
 3859TIP3    H233213   1.621   3.359   0.016  2.2371  1.6637  0.2728
 3860TIP3   OH233214   6.686   3.682   1.034 -1.5568 -0.5232  0.0363
 3860TIP3    H133215   6.738   3.757   1.063  0.9221 -2.0767 -0.0736
 3860TIP3    H233216   6.639   3.654   1.112 -2.0107  0.7048  0.2361
 3861TIP3   OH233217   3.982   5.748   6.542 -0.9907  0.0141  0.0607
 3861TIP3    H133218   4.040   5.807   6.492 -2.8212 -0.2126 -2.5491
 3861TIP3    H233219   3.963   5.796   6.622  1.5254  0.7428  0.3101
 3862TIP3   OH233220   5.691   5.706   8.887 -0.1462 -0.0118  0.1615
 3862TIP3    H133221   5.605   5.670   8.870 -0.4710  0.5409  0.6132
 3862TIP3    H233222   5.679   5.801   8.885  0.5184  0.0806 -0.1034
 3863TIP3   OH233223   4.628   3.623   6.856  0.4557 -0.5093  0.0075
 3863TIP3    H133224   4.720   3.596   6.861  0.3485 -1.3371 -1.6119
 3863TIP3    H233225   4.630   3.706   6.808  0.6069  1.4540  3.1679
 3864TIP3   OH233226   0.533   0.489   1.935  0.0416  0.3982  0.1030
 3864TIP3    H133227   0.628   0.486   1.938  0.0949  1.2055 -0.5148
 3864TIP3    H233228   0.512   0.582   1.930 -0.8159  0.2745  1.1204
 3865TIP3   OH233229   4.641   2.040   2.483  0.2207  0.3949 -0.9129
 3865TIP3    H133230   4.555   2.064   2.518  0.0240  2.5754 -2.6461
 3865TIP3    H233231   4.645   1.945   2.491 -0.3535  0.5079  3.5226
 3866TIP3   OH233232   0.518   6.697   0.053  0.3843  0.0406 -0.3255
 3866TIP3    H133233   0.497   6.789   0.069  2.4956  0.4812  0.1166
 3866TIP3    H233234   0.510   6.687  -0.042  0.1756  0.6747 -0.3802
 3867TIP3   OH233235   0.661   4.897   1.224  0.1016 -0.4874 -0.3679
 3867TIP3    H133236   0.593   4.941   1.174 -1.1054 -0.4862  1.1879
 3867TIP3    H233237   0.721   4.967   1.250  0.9446 -0.5370 -2.0379
 3868TIP3   OH233238   5.542   0.436   6.851  0.1499 -0.4037 -0.1502
 3868TIP3    H133239   5.451   0.427   6.823 -0.1307 -2.2805  1.2031
 3868TIP3    H233240   5.549   0.526   6.883 -1.5447 -0.5401  0.7086
 3869TIP3   OH233241   4.718   6.290   8.947 -0.0377  0.1958  0.8926
 3869TIP3    H133242   4.723   6.249   9.033 -1.5338 -2.0048  0.0283
 3869TIP3    H233243   4.769   6.232   8.890 -1.6031 -0.1709 -0.2310
 3870TIP3   OH233244   6.580   6.676   1.768  0.8976 -0.3345 -0.4247
 3870TIP3    H133245   6.494   6.715   1.752  0.7901 -0.1425  0.5530
 3870TIP3    H233246   6.641   6.730   1.717  0.2865 -1.4485 -2.4538
 3871TIP3   OH233247   3.677   5.646   1.898 -0.4566  0.1963  0.1657
 3871TIP3    H133248   3.683   5.741   1.891  0.7758  0.3189  2.0433
 3871TIP3    H233249   3.749   5.622   1.956 -1.4924 -1.7434  0.7428
 3872TIP3   OH233250   1.064   3.532   7.734 -0.0525  0.7646 -0.5293
 3872TIP3    H133251   1.127   3.578   7.678  1.0207  1.0388  0.8372
 3872TIP3    H233252   0.998   3.598   7.756  1.5956  1.8450  1.6037
 3873TIP3   OH233253   3.515   5.614   7.271  0.4520 -0.8155 -0.4154
 3873TIP3    H133254   3.482   5.686   7.326  1.6716 -0.3557 -0.2516
 3873TIP3    H233255   3.497   5.642   7.182  2.4259  0.5407 -0.4562
 3874TIP3   OH233256   3.222   1.398   0.602  0.2867  0.5623 -0.4002
 3874TIP3    H133257   3.185   1.486   0.601 -3.6467 -0.8745 -1.2394
 3874TIP3    H233258   3.203   1.363   0.515  1.3864 -1.2682  0.0411
 3875TIP3   OH233259   2.859   3.106   1.438  0.5549  0.0163  0.5203
 3875TIP3    H133260   2.775   3.062   1.454  0.4284 -0.1064 -0.4131
 3875TIP3    H233261   2.922   3.056   1.490  0.3391 -1.0301 -0.1974
 3876TIP3   OH233262   6.492   6.407   1.918  0.2265  0.2044  0.1410
 3876TIP3    H133263   6.492   6.356   1.999  1.1436 -1.0295 -0.6034
 3876TIP3    H233264   6.412   6.380   1.872 -0.6024  1.3278  0.8355
 3877TIP3   OH233265   5.189   6.107   1.839  0.1867  0.1198  0.1645
 3877TIP3    H133266   5.163   6.031   1.787  0.0442  0.4590 -0.2633
 3877TIP3    H233267   5.214   6.070   1.923  1.9560 -0.6141 -0.6434
 3878TIP3   OH233268   2.654   6.107   1.255 -0.0724 -0.3664  0.3015
 3878TIP3    H133269   2.730   6.070   1.209 -0.5789  0.6098 -1.4120
 3878TIP3    H233270   2.679   6.198   1.273 -0.8300 -0.0276 -0.3085
 3879TIP3   OH233271   0.429   4.011   1.513 -0.2483  0.1863  0.9112
 3879TIP3    H133272   0.499   3.948   1.530 -0.1369  0.5143  1.7018
 3879TIP3    H233273   0.350   3.970   1.548 -0.6060 -0.4846 -0.5873
 3880TIP3   OH233274   5.871   1.417   6.846  0.1111  0.7582  0.1220
 3880TIP3    H133275   5.959   1.384   6.865  0.5860  2.1922  0.5148
 3880TIP3    H233276   5.863   1.409   6.751  0.1809 -0.5202  0.2091
 3881TIP3   OH233277   4.042   6.662   8.662 -0.0207 -0.6370  0.5972
 3881TIP3    H133278   4.031   6.583   8.715 -1.0103 -0.3554  0.8301
 3881TIP3    H233279   3.954   6.697   8.653 -0.0913 -1.3371 -2.3058
 3882TIP3   OH233280   2.728   0.023   8.781 -0.0955 -0.7350  0.1532
 3882TIP3    H133281   2.699  -0.026   8.857 -0.0676  1.5491  1.7403
 3882TIP3    H233282   2.811   0.064   8.808 -0.1149  0.1817 -1.0599
 3883TIP3   OH233283   6.347   3.704   8.951  0.5179  0.3787  0.2694
 3883TIP3    H133284   6.351   3.774   8.886  0.8136  1.2052  1.1578
 3883TIP3    H233285   6.349   3.623   8.900  2.4974  0.9717 -0.6695
 3884TIP3   OH233286   5.764   5.347   7.509 -0.2528 -0.4502 -0.0048
 3884TIP3    H133287   5.670   5.352   7.491 -0.5277 -1.9046  0.8146
 3884TIP3    H233288   5.782   5.423   7.565 -0.9676 -0.2353 -0.0550
 3885TIP3   OH233289   3.753   2.485   2.181 -0.1540 -0.2902 -0.3823
 3885TIP3    H133290   3.670   2.529   2.166  0.8084  1.9216  0.3404
 3885TIP3    H233291   3.805   2.503   2.102 -0.3387 -1.7255 -0.8671
 3886TIP3   OH233292   1.668   0.015   8.020 -0.0657 -0.0763  0.2075
 3886TIP3    H133293   1.750   0.043   8.061 -0.2386 -0.1018  0.5758
 3886TIP3    H233294   1.606   0.085   8.040 -0.3988 -0.5332  0.8013
 3887TIP3   OH233295   4.958   6.696   8.594  0.0599  0.2666 -0.0447
 3887TIP3    H133296   4.974   6.653   8.678 -1.8288 -0.2065  0.1306
 3887TIP3    H233297   4.967   6.626   8.529 -0.5561  0.1534 -0.0126
 3888TIP3   OH233298   0.420   6.422   6.790  0.4072 -0.3708  0.2474
 3888TIP3    H133299   0.480   6.368   6.739  0.7102 -0.5183  0.7450
 3888TIP3    H233300   0.362   6.359   6.833 -1.2156 -0.1696 -1.5451
 3889TIP3   OH233301   1.681   4.455   0.662 -0.1554 -0.1224  0.2093
 3889TIP3    H133302   1.659   4.509   0.586  0.1535  1.3257  1.1085
 3889TIP3    H233303   1.598   4.419   0.692 -0.3946  0.0277 -0.2657
 3890TIP3   OH233304   1.721   6.603   1.255 -0.2919 -0.1471  0.3975
 3890TIP3    H133305   1.640   6.579   1.300 -1.1108 -0.5810 -1.1999
 3890TIP3    H233306   1.703   6.688   1.216 -1.9912 -2.2054 -4.1027
 3891TIP3   OH233307   1.447   5.527   7.682 -0.1233  0.2433 -0.5687
 3891TIP3    H133308   1.440   5.536   7.587 -1.4815 -1.2245 -0.6508
 3891TIP3    H233309   1.360   5.551   7.714 -0.0039 -0.3245  0.1923
 3892TIP3   OH233310   5.955   3.562   1.716 -0.2858  0.0331  0.0455
 3892TIP3    H133311   5.977   3.489   1.773 -1.4458 -1.4288 -1.2840
 3892TIP3    H233312   5.866   3.586   1.742 -0.7281 -0.4808 -0.9205
 3893TIP3   OH233313   2.225   0.577   8.888  0.1785  0.0033  0.2947
 3893TIP3    H133314   2.169   0.597   8.813 -0.1431  0.0151  0.5355
 3893TIP3    H233315   2.314   0.578   8.852  0.1608  1.5247  0.2094
 3894TIP3   OH233316   1.959   4.976   0.118 -0.5340 -0.0749  0.7226
 3894TIP3    H133317   1.947   5.042   0.049 -1.3368  0.1603  1.0749
 3894TIP3    H233318   1.873   4.969   0.159 -0.1544 -0.4943  1.4530
 3895TIP3   OH233319   4.035   1.011   1.575  0.0339  0.4095  0.9903
 3895TIP3    H133320   4.037   0.994   1.481  0.4326 -0.2247  1.1057
 3895TIP3    H233321   3.991   1.095   1.584  1.0132  1.0238  0.1630
 3896TIP3   OH233322   3.257   4.814   1.242  0.5503  0.0711 -0.0827
 3896TIP3    H133323   3.253   4.823   1.337  1.2988 -0.3230 -0.0055
 3896TIP3    H233324   3.173   4.776   1.217  1.4564 -2.7102  0.7681
 3897TIP3   OH233325   4.329   6.604   0.977 -0.1530  0.3247 -0.2034
 3897TIP3    H133326   4.373   6.635   0.898  0.3707 -0.7713 -0.3570
 3897TIP3    H233327   4.347   6.510   0.979  1.6733  0.6255  2.3658
 3898TIP3   OH233328   3.674   0.726   7.305  0.3191 -0.7169 -0.1321
 3898TIP3    H133329   3.614   0.669   7.258  0.6876 -1.2144 -0.0025
 3898TIP3    H233330   3.760   0.706   7.270  0.3311  0.6347 -0.9648
 3899TIP3   OH233331   0.377   4.201   6.666  0.2404 -0.0022  0.2371
 3899TIP3    H133332   0.341   4.289   6.653  1.4318  0.3976 -0.5219
 3899TIP3    H233333   0.468   4.208   6.638 -0.3939 -2.2396 -3.0533
 3900TIP3   OH233334   3.672   3.178   0.378  0.4650 -0.0423 -0.3535
 3900TIP3    H133335   3.762   3.206   0.396  0.3635  0.3158 -0.3786
 3900TIP3    H233336   3.657   3.203   0.287  0.9588 -1.7951 -0.9427
 3901TIP3   OH233337   4.073   0.649   1.369 -0.0528 -0.2282  0.4390
 3901TIP3    H133338   4.005   0.706   1.405 -0.0058 -0.4005  0.8042
 3901TIP3    H233339   4.106   0.696   1.292 -0.0664  0.1973  0.6924
 3902TIP3   OH233340   4.149   6.488   8.025 -0.5480  0.1474 -0.1745
 3902TIP3    H133341   4.114   6.485   8.115  0.9800  0.6843  0.4608
 3902TIP3    H233342   4.071   6.487   7.970 -1.5623  0.7450  1.1819
 3903TIP3   OH233343   5.340   3.929   0.618 -0.1313  0.0176  0.5734
 3903TIP3    H133344   5.370   4.014   0.649  1.0833 -0.2089  0.0931
 3903TIP3    H233345   5.259   3.947   0.571  0.4571  1.0286 -0.1008
 3904TIP3   OH233346   1.374   6.133   0.019  0.1508 -0.1198 -0.4359
 3904TIP3    H133347   1.397   6.226   0.018  0.1758 -0.1179  0.0601
 3904TIP3    H233348   1.409   6.098  -0.062 -0.6733  0.5027 -1.0809
 3905TIP3   OH233349   0.662   2.427   8.133 -0.2638  0.2127 -0.6116
 3905TIP3    H133350   0.652   2.461   8.222 -0.5718 -0.8399 -0.2195
 3905TIP3    H233351   0.616   2.342   8.135 -0.5432  0.3138 -1.8608
 3906TIP3   OH233352   1.877   4.709   1.800  0.7298  1.0293 -0.1858
 3906TIP3    H133353   1.940   4.646   1.834  0.4563  0.9916  0.2747
 3906TIP3    H233354   1.891   4.787   1.854  0.2170  0.9360  0.0859
 3907TIP3   OH233355   4.699   5.288   8.187 -0.0573  0.5327  0.2518
 3907TIP3    H133356   4.777   5.232   8.180 -1.4895 -1.2886 -2.6864
 3907TIP3    H233357   4.709   5.352   8.117 -2.2403 -1.2540 -1.8319
 3908TIP3   OH233358   3.418   6.146   0.403  0.1825 -0.1258 -0.3952
 3908TIP3    H133359   3.416   6.231   0.447 -0.1113 -0.3683  0.0677
 3908TIP3    H233360   3.447   6.166   0.315 -0.8363  0.5997 -0.5944
 3909TIP3   OH233361   3.259   5.029   8.610  0.1364 -0.5290 -0.3964
 3909TIP3    H133362   3.179   5.057   8.655  0.5174 -1.5902  0.9991
 3909TIP3    H233363   3.287   5.107   8.562 -0.6558  0.4536  0.6728
 3910TIP3   OH233364   5.995   5.285   8.990 -0.3739 -0.2383 -0.7876
 3910TIP3    H133365   5.998   5.380   8.975 -0.2877  0.0248  0.7605
 3910TIP3    H233366   5.917   5.272   9.043  0.4862 -0.8217  0.3684
 3911TIP3   OH233367   2.642   2.023   6.522  0.3081  0.3770 -0.5374
 3911TIP3    H133368   2.628   2.110   6.485  0.3598  0.1179 -1.1636
 3911TIP3    H233369   2.557   1.980   6.515  0.5100  0.0597 -1.0589
 3912TIP3   OH233370   5.316   1.635   1.040  0.2246  0.2390 -0.2429
 3912TIP3    H133371   5.307   1.652   1.134  0.9295 -0.4610 -0.0401
 3912TIP3    H233372   5.305   1.540   1.032 -1.2338  0.4342 -1.0521
 3913TIP3   OH233373   4.476   5.950   8.113  0.2629  0.7939 -0.4034
 3913TIP3    H133374   4.394   5.902   8.124  1.1782 -0.5098  1.1613
 3913TIP3    H233375   4.456   6.016   8.047 -1.1169 -1.5868 -2.5578
 3914TIP3   OH233376   0.271   4.512   8.538  0.0267  0.7734  0.0825
 3914TIP3    H133377   0.278   4.497   8.632  0.6228  0.5355  0.0055
 3914TIP3    H233378   0.201   4.576   8.529 -1.1013 -0.3417  0.5821
 3915TIP3   OH233379   0.585   2.051   8.572  0.2132  0.1890  0.1174
 3915TIP3    H133380   0.536   2.062   8.654  0.0270 -1.4826  0.2480
 3915TIP3    H233381   0.532   1.991   8.520  1.0813  0.0484 -0.6199
 3916TIP3   OH233382   1.539   6.238   6.621  0.2730 -0.1313  0.3248
 3916TIP3    H133383   1.516   6.267   6.533 -1.8875  1.3967  1.2984
 3916TIP3    H233384   1.633   6.252   6.628 -0.0250  2.9063 -0.6661
 3917TIP3   OH233385   1.719   0.097   6.992 -0.2548 -0.1395 -0.0172
 3917TIP3    H133386   1.696   0.076   7.082  0.3991 -1.2761 -0.0966
 3917TIP3    H233387   1.640   0.076   6.941 -0.1650 -0.8441  0.1235
 3918TIP3   OH233388   2.505   3.905   0.057 -0.4317  0.1476 -0.0621
 3918TIP3    H133389   2.539   3.919  -0.031  0.3114 -1.0671  0.0039
 3918TIP3    H233390   2.416   3.939   0.054  0.5688  3.0249 -0.3626
 3919TIP3   OH233391   3.722   4.833   0.232  0.4383  0.0645  0.0366
 3919TIP3    H133392   3.672   4.897   0.181  1.1523  0.6440  0.0529
 3919TIP3    H233393   3.763   4.777   0.165  0.7784  0.3684 -0.0122
 3920TIP3   OH233394   3.741   2.291   1.787  0.0425  0.1467  0.1646
 3920TIP3    H133395   3.798   2.273   1.713 -0.5614 -0.9481 -0.0520
 3920TIP3    H233396   3.754   2.218   1.847 -0.0428  0.6341  0.7960
 3921TIP3   OH233397   4.360   3.897   6.680  0.1761  0.5167  0.8176
 3921TIP3    H133398   4.333   3.857   6.598 -0.3203  0.7435  0.8647
 3921TIP3    H233399   4.355   3.992   6.664  0.2497  0.5614  1.0532
 3922TIP3   OH233400   6.262   2.322   0.621  0.1488  0.3492  0.0722
 3922TIP3    H133401   6.284   2.399   0.569 -0.8407  0.1744 -0.6339
 3922TIP3    H233402   6.285   2.346   0.710 -0.7301  1.7274 -0.0347
 3923TIP3   OH233403   6.738   5.842   8.244 -0.6313 -0.8019 -0.3742
 3923TIP3    H133404   6.769   5.797   8.165 -0.5759 -0.7586 -0.3770
 3923TIP3    H233405   6.816   5.852   8.298 -0.2508  0.9781 -1.1807
 3924TIP3   OH233406   0.875   5.749   0.709  0.0516 -0.4321  0.3621
 3924TIP3    H133407   0.930   5.769   0.633 -0.0748  1.3666  0.6869
 3924TIP3    H233408   0.934   5.705   0.770  0.2618 -1.5069 -0.5837
 3925TIP3   OH233409   0.803   6.630   7.350 -0.9221  0.3278  0.4653
 3925TIP3    H133410   0.716   6.651   7.315 -0.3807  0.0050 -1.1779
 3925TIP3    H233411   0.860   6.699   7.316 -0.2817 -0.2799  0.2818
 3926TIP3   OH233412   1.007   1.088   8.560  0.5437 -0.2093 -0.2109
 3926TIP3    H133413   1.089   1.081   8.608  0.0452  1.4161  0.9660
 3926TIP3    H233414   1.004   1.178   8.529 -0.7651 -0.2474 -0.2633
 3927TIP3   OH233415   6.256   3.862   8.691  0.6162  0.2340  0.1107
 3927TIP3    H133416   6.176   3.848   8.641  0.0628 -0.8730  1.2391
 3927TIP3    H233417   6.326   3.829   8.633 -0.1907 -2.9116  0.7171
 3928TIP3   OH233418   1.315   6.260   6.783 -0.2858  0.0517  0.0529
 3928TIP3    H133419   1.374   6.237   6.711  0.1330 -0.5469  0.5724
 3928TIP3    H233420   1.257   6.327   6.747  0.3373  0.2259 -0.6460
 3929TIP3   OH233421   3.824   2.215   7.571  0.1515 -0.2916 -0.6417
 3929TIP3    H133422   3.771   2.218   7.652 -0.0629  1.5573 -0.8072
 3929TIP3    H233423   3.773   2.265   7.508  0.9138 -0.6718 -1.5735
 3930TIP3   OH233424   6.703   3.821   8.603 -0.4704 -0.1911  0.0978
 3930TIP3    H133425   6.790   3.853   8.579 -1.3359  1.0821 -1.5689
 3930TIP3    H233426   6.720   3.751   8.666  1.6643  1.1827  1.1715
 3931TIP3   OH233427   6.428   6.016   7.307  0.9159  0.4317 -0.1116
 3931TIP3    H133428   6.377   5.966   7.243  2.0871 -1.8294  0.5904
 3931TIP3    H233429   6.376   6.094   7.324 -0.7635 -0.2620 -1.7216
 3932TIP3   OH233430   6.594   3.720   1.566  0.4400  0.1882 -0.1290
 3932TIP3    H133431   6.554   3.807   1.561  1.2219  0.5847  0.3122
 3932TIP3    H233432   6.536   3.664   1.515  0.2458  1.0936 -0.9365
 3933TIP3   OH233433   3.777   2.835   2.030 -0.0008 -0.1892  0.3132
 3933TIP3    H133434   3.689   2.841   2.069 -0.1924 -1.3388  0.0850
 3933TIP3    H233435   3.837   2.841   2.104 -0.2776  0.3488  0.4974
 3934TIP3   OH233436   3.444   5.535   0.459 -0.2472  0.0196  0.0635
 3934TIP3    H133437   3.377   5.478   0.422  0.6188 -0.6944 -0.4803
 3934TIP3    H233438   3.492   5.568   0.383  1.0131 -0.7768  0.4775
 3935TIP3   OH233439   5.597   6.516   0.420 -0.3179  0.3027 -0.5334
 3935TIP3    H133440   5.507   6.548   0.425 -0.1134  0.6687  1.8845
 3935TIP3    H233441   5.649   6.592   0.394 -0.3157  1.0951  1.5701
 3936TIP3   OH233442   2.091   2.353   7.696  0.4275 -1.3793  0.8704
 3936TIP3    H133443   2.054   2.308   7.621 -1.7163  1.4406  0.0503
 3936TIP3    H233444   2.020   2.354   7.761 -0.6762  2.7466 -0.1166
 3937TIP3   OH233445   2.571   4.698   0.950 -0.3794 -0.0591 -0.4727
 3937TIP3    H133446   2.497   4.651   0.987 -1.0837  0.4747 -1.1678
 3937TIP3    H233447   2.647   4.665   0.998 -1.1182 -0.2673  0.5749
 3938TIP3   OH233448   1.626   1.942   6.990  0.9246 -0.1453  0.1942
 3938TIP3    H133449   1.700   2.001   6.999  1.9546 -1.0216 -1.9452
 3938TIP3    H233450   1.562   1.991   6.938  0.8783 -0.1318  0.2640
 3939TIP3   OH233451   3.536   4.466   8.863 -0.0398  0.0014 -0.6073
 3939TIP3    H133452   3.518   4.389   8.917  1.4610 -0.2674 -0.4537
 3939TIP3    H233453   3.491   4.537   8.908  1.0901 -0.2324  0.9823
 3940TIP3   OH233454   1.512   1.877   7.469 -0.1089  0.0857  0.2485
 3940TIP3    H133455   1.578   1.943   7.447 -1.0453  1.0816  0.2929
 3940TIP3    H233456   1.458   1.871   7.390 -1.1738  0.8062  0.8992
 3941TIP3   OH233457   3.607   4.395   1.812  0.0702  0.1256  0.0364
 3941TIP3    H133458   3.633   4.313   1.771  0.0465  0.1396 -0.0069
 3941TIP3    H233459   3.521   4.414   1.774  1.0947  1.4099 -1.7917
 3942TIP3   OH233460   2.600   3.729   0.233  0.1096  0.4070  0.0644
 3942TIP3    H133461   2.550   3.788   0.177  0.6710  1.2807  0.4705
 3942TIP3    H233462   2.621   3.654   0.177  0.7282  1.2964 -0.9219
 3943TIP3   OH233463   1.243   0.324   0.773  0.0967  0.1720  0.4420
 3943TIP3    H133464   1.212   0.405   0.811 -1.3084 -0.0979 -0.0728
 3943TIP3    H233465   1.166   0.285   0.731  1.2108 -0.3161 -1.2808
 3944TIP3   OH233466   5.750   3.199   2.123 -0.4205  0.4074  0.7325
 3944TIP3    H133467   5.736   3.195   2.029 -0.4572 -2.0665  0.7646
 3944TIP3    H233468   5.845   3.202   2.133 -0.3278 -1.1944  0.5835
 3945TIP3   OH233469   5.980   0.657   7.233  0.4274  0.4691 -0.3113
 3945TIP3    H133470   5.936   0.618   7.157  0.8279  1.8990 -1.3394
 3945TIP3    H233471   6.073   0.638   7.219  0.5887  1.4196 -0.6352
 3946TIP3   OH233472   2.340   3.857   2.182 -0.0349 -0.7229  0.1110
 3946TIP3    H133473   2.288   3.777   2.179 -2.8055  0.8520  1.8061
 3946TIP3    H233474   2.368   3.872   2.092  0.1402 -3.2643 -0.3326
 3947TIP3   OH233475   1.844   2.506   1.375  0.1846 -0.4477 -0.1275
 3947TIP3    H133476   1.778   2.544   1.317  2.9692  2.0478 -1.9501
 3947TIP3    H233477   1.848   2.565   1.450  0.5773 -0.3943 -0.1893
 3948TIP3   OH233478   2.670   2.783   0.967  0.0855 -0.1273  0.0905
 3948TIP3    H133479   2.582   2.745   0.971 -0.3033  0.3178 -2.4767
 3948TIP3    H233480   2.729   2.708   0.971 -0.5965 -0.8973 -2.2874
 3949TIP3   OH233481   3.944   2.783   0.352  0.0616  0.4823 -0.2469
 3949TIP3    H133482   3.934   2.854   0.416  0.3432 -0.0502  0.4050
 3949TIP3    H233483   4.031   2.798   0.314  0.1872  0.3975  0.0039
 3950TIP3   OH233484   5.980   4.057   7.594  0.3224 -0.0612  0.0317
 3950TIP3    H133485   6.000   4.107   7.673  1.9373  0.9906 -1.0062
 3950TIP3    H233486   5.958   4.123   7.529 -1.6375 -0.9492 -0.2754
 3951TIP3   OH233487   3.707   5.174   7.916  0.1530 -0.3341  0.3013
 3951TIP3    H133488   3.724   5.102   7.977  1.2691 -1.0670 -0.7947
 3951TIP3    H233489   3.785   5.176   7.860  0.8517  2.7049  1.1855
 3952TIP3   OH233490   4.440   6.418   7.856  0.6003  0.3515  0.1588
 3952TIP3    H133491   4.418   6.406   7.949 -2.9516 -1.3766 -0.7097
 3952TIP3    H233492   4.490   6.499   7.853  0.0450  0.9669  3.4957
 3953TIP3   OH233493   4.294   2.184   0.293  0.1961  0.7793 -0.1827
 3953TIP3    H133494   4.218   2.227   0.332 -0.0196  0.1912  0.0440
 3953TIP3    H233495   4.368   2.241   0.318 -0.1613  1.3348 -0.3873
 3954TIP3   OH233496   5.769   3.060   7.658  0.5366 -0.7161 -0.2059
 3954TIP3    H133497   5.783   2.988   7.596 -0.3011  0.5116 -1.9267
 3954TIP3    H233498   5.700   3.113   7.618 -0.5492 -0.2292  2.1768
 3955TIP3   OH233499   2.866   4.087   0.961  0.2684 -0.2698  0.2578
 3955TIP3    H133500   2.910   4.163   0.924 -0.5824 -0.2562 -0.7437
 3955TIP3    H233501   2.924   4.014   0.941  1.5569  0.1923  2.0320
 3956TIP3   OH233502   2.788   4.607   2.089  0.1818  0.3015  0.3588
 3956TIP3    H133503   2.727   4.634   2.157  0.7039  1.6079  0.3365
 3956TIP3    H233504   2.872   4.596   2.134 -0.2470 -2.7336  0.6404
 3957TIP3   OH233505   1.511   6.009   6.815  0.0589  0.0136 -0.3219
 3957TIP3    H133506   1.482   6.100   6.802  1.4634  0.5182 -0.1278
 3957TIP3    H233507   1.469   5.960   6.744  0.0638  1.0023 -1.0345
 3958TIP3   OH233508   4.360   0.146   7.783  0.0224  0.0274  0.3178
 3958TIP3    H133509   4.364   0.170   7.876  0.4974  0.0445  0.2955
 3958TIP3    H233510   4.338   0.227   7.738 -2.2482 -0.3745  0.5852
 3959TIP3   OH233511   2.056   4.425   8.271 -0.3409 -0.1639 -0.5161
 3959TIP3    H133512   2.050   4.377   8.189  0.2622 -0.0500 -0.6346
 3959TIP3    H233513   1.966   4.431   8.303 -0.4826 -0.9211 -0.7583
 3960TIP3   OH233514   2.986   0.182   1.433 -0.0746 -0.0885  0.3304
 3960TIP3    H133515   3.082   0.189   1.437  0.0433 -0.0079 -1.6737
 3960TIP3    H233516   2.956   0.212   1.519  1.7771 -1.9655  1.7249
 3961TIP3   OH233517   4.984   2.619   8.855  0.2862  0.5502 -0.2867
 3961TIP3    H133518   4.939   2.701   8.875 -0.5559 -0.3330  1.6844
 3961TIP3    H233519   4.934   2.582   8.782 -1.6979  0.0644  1.2247
 3962TIP3   OH233520   6.246   2.682   0.592  0.1399 -0.0260 -0.3383
 3962TIP3    H133521   6.182   2.734   0.543 -0.0970  1.1813  1.1692
 3962TIP3    H233522   6.203   2.664   0.676  0.6697 -1.7240 -0.3794
 3963TIP3   OH233523   3.748   3.678   0.406 -0.3109 -0.4775 -0.5896
 3963TIP3    H133524   3.739   3.709   0.496 -0.8713  0.2341 -0.8806
 3963TIP3    H233525   3.737   3.757   0.352 -0.1536 -0.9229 -1.2842
 3964TIP3   OH233526   1.831   5.939   7.226  0.5997 -0.0865 -0.2101
 3964TIP3    H133527   1.898   5.884   7.187  0.0829 -0.2545 -0.8802
 3964TIP3    H233528   1.783   5.975   7.152 -0.4713 -0.5029  0.2601
 3965TIP3   OH233529   4.864   2.565   1.400  0.0351  0.0984  0.4498
 3965TIP3    H133530   4.824   2.534   1.481 -0.0695 -1.2325 -0.0750
 3965TIP3    H233531   4.867   2.660   1.409  1.4777 -0.1010  2.6651
 3966TIP3   OH233532   6.266   2.512   7.649 -0.2956 -0.4622 -0.5268
 3966TIP3    H133533   6.301   2.476   7.568 -1.1699 -1.4462 -0.4833
 3966TIP3    H233534   6.186   2.558   7.622 -1.5876 -2.3134 -0.0296
 3967TIP3   OH233535   0.693   4.370   7.308  0.1895  0.0866  0.2937
 3967TIP3    H133536   0.630   4.329   7.367  0.8728  0.3480  1.2355
 3967TIP3    H233537   0.762   4.305   7.297 -0.3300 -0.2906 -0.9232
 3968TIP3   OH233538   1.782   6.649   6.647  0.5500  0.0015 -0.1763
 3968TIP3    H133539   1.722   6.723   6.654 -0.8047 -0.8941 -1.5302
 3968TIP3    H233540   1.866   6.688   6.622  0.2038  1.1791  0.4251
 3969TIP3   OH233541   0.633   4.990   0.601 -0.2599 -0.3841  0.4004
 3969TIP3    H133542   0.705   5.049   0.626  0.3167 -0.7325 -0.4106
 3969TIP3    H233543   0.651   4.967   0.510 -1.0290 -1.0282  0.4002
 3970TIP3   OH233544   0.124   4.727   1.035  0.2766  0.3647 -0.2837
 3970TIP3    H133545   0.049   4.667   1.037  0.6850 -0.1470  0.0030
 3970TIP3    H233546   0.125   4.767   1.122  0.6449 -0.0205 -0.1081
 3971TIP3   OH233547   5.268   2.553   6.716 -0.3356  0.3165 -0.3227
 3971TIP3    H133548   5.185   2.519   6.683 -0.3230 -0.5114  0.4588
 3971TIP3    H233549   5.327   2.548   6.640 -0.3877 -1.2622 -0.2976
 3972TIP3   OH233550   1.751   3.784   0.583  0.5247 -0.1163 -0.2640
 3972TIP3    H133551   1.777   3.692   0.589  1.6655  0.2302  0.5583
 3972TIP3    H233552   1.834   3.832   0.581 -0.0325  0.8464 -1.8584
 3973TIP3   OH233553   0.826   3.877   1.332 -0.5228 -0.0303  0.7436
 3973TIP3    H133554   0.762   3.895   1.263 -1.3955  0.3508  1.6211
 3973TIP3    H233555   0.860   3.964   1.355  0.3317 -0.2298  0.2838
 3974TIP3   OH233556   6.209   0.246   0.723  0.1491 -0.4491  0.7886
 3974TIP3    H133557   6.195   0.277   0.813  0.3080  0.0719  0.6353
 3974TIP3    H233558   6.194   0.152   0.728 -0.5341 -0.3280  1.2263
 3975TIP3   OH233559   5.621   0.353   1.760 -0.4827 -0.3701 -0.1775
 3975TIP3    H133560   5.616   0.257   1.752 -0.1088 -0.4198  0.1017
 3975TIP3    H233561   5.550   0.376   1.819  0.1309 -0.6170  0.6898
 3976TIP3   OH233562   1.727   6.018   0.028  1.0288  0.0767  0.4302
 3976TIP3    H133563   1.689   5.940  -0.013 -1.1522  0.7411  1.0425
 3976TIP3    H233564   1.754   6.073  -0.046  0.8510 -0.4480 -0.0347
 3977TIP3   OH233565   5.721   6.618   1.729 -0.1252 -0.2652  0.1032
 3977TIP3    H133566   5.626   6.620   1.743 -0.3469 -0.8808 -1.1441
 3977TIP3    H233567   5.750   6.538   1.772 -0.2673 -0.3868 -0.0267
 3978TIP3   OH233568   0.356   0.436   8.858 -0.5710 -0.4181 -0.0764
 3978TIP3    H133569   0.385   0.351   8.823  1.0543  0.5193 -1.1101
 3978TIP3    H233570   0.430   0.467   8.910 -0.3487  1.2271 -1.2885
 3979TIP3   OH233571   3.679   0.038   1.896  0.2090 -0.5146 -0.4762
 3979TIP3    H133572   3.709  -0.048   1.925 -0.1001 -0.0256  1.4378
 3979TIP3    H233573   3.645   0.080   1.976  0.1120  1.2772 -1.4051
 3980TIP3   OH233574   6.601   5.207   8.860 -0.2799 -0.3435 -0.2982
 3980TIP3    H133575   6.662   5.279   8.844 -0.4761 -0.6824 -3.1479
 3980TIP3    H233576   6.515   5.245   8.843 -0.6530 -0.5623  1.0170
 3981TIP3   OH233577   1.219   6.305   1.766 -0.2569 -0.2328 -0.4426
 3981TIP3    H133578   1.162   6.321   1.842  0.3781  0.4411 -0.0891
 3981TIP3    H233579   1.185   6.361   1.697 -0.2204 -0.0692 -0.3285
 3982TIP3   OH233580   2.257   3.904   6.712 -0.1223  0.2064 -0.2974
 3982TIP3    H133581   2.252   3.898   6.616 -1.2229 -0.2209 -0.2197
 3982TIP3    H233582   2.243   3.997   6.730  1.3099  0.5103 -0.6024
 3983TIP3   OH233583   5.655   1.817   8.869  0.8448  0.4758  1.2519
 3983TIP3    H133584   5.602   1.853   8.940 -0.3707  2.0657 -0.3609
 3983TIP3    H233585   5.604   1.743   8.837  1.2198 -0.0222  1.8013
 3984TIP3   OH233586   3.598   2.492   7.237 -0.1387 -0.0119  0.2166
 3984TIP3    H133587   3.627   2.401   7.239 -0.0682 -0.0450 -1.3448
 3984TIP3    H233588   3.503   2.486   7.225 -0.2466  0.1326  0.9317
 3985TIP3   OH233589   5.637   1.753   0.504  0.5025  0.1902 -0.0157
 3985TIP3    H133590   5.662   1.661   0.507  0.1069 -0.1873 -3.7571
 3985TIP3    H233591   5.548   1.755   0.539  0.8774 -0.6201  1.0441
 3986TIP3   OH233592   2.703   0.306   0.621  0.1090 -0.1302 -0.0644
 3986TIP3    H133593   2.665   0.350   0.697 -1.3732 -1.1510 -0.1855
 3986TIP3    H233594   2.713   0.375   0.555 -1.1555  0.2575  0.1310
 3987TIP3   OH233595   1.603   0.961   6.768  0.3623  0.1670 -0.4057
 3987TIP3    H133596   1.660   0.908   6.713 -1.1632  0.8234 -2.7591
 3987TIP3    H233597   1.580   1.036   6.714 -2.6363 -0.0258  0.4227
 3988TIP3   OH233598   2.473   3.476   8.495  0.1524 -0.4918 -1.1179
 3988TIP3    H133599   2.510   3.556   8.459  0.9487 -0.7901 -0.9811
 3988TIP3    H233600   2.466   3.494   8.589  2.2220 -1.2695 -0.7653
 3989TIP3   OH233601   4.129   5.980   1.234  0.1565  0.0993 -0.5022
 3989TIP3    H133602   4.177   6.062   1.241  0.4798 -0.1915  1.1507
 3989TIP3    H233603   4.080   5.987   1.151  1.6162  1.1523 -1.3103
 3990TIP3   OH233604   2.860   3.946   0.416  0.5995 -0.0148  0.0716
 3990TIP3    H133605   2.837   4.033   0.383  3.4401  0.1494 -1.8477
 3990TIP3    H233606   2.789   3.889   0.385 -0.8904  1.4383  0.6726
 3991TIP3   OH233607   1.830   6.545   8.246 -0.3895  0.1122 -0.1851
 3991TIP3    H133608   1.787   6.465   8.216 -1.0660  0.2811  0.3169
 3991TIP3    H233609   1.924   6.525   8.240 -0.5477 -0.6777 -0.1722
 3992TIP3   OH233610   2.101   0.562   0.711 -0.0232 -0.1122 -0.2723
 3992TIP3    H133611   2.102   0.544   0.804  1.7341 -0.4714 -0.3381
 3992TIP3    H233612   2.067   0.482   0.671 -1.6062  0.3466  0.0817
 3993TIP3   OH233613   2.410   2.871   8.923  0.5219 -0.2535 -0.3089
 3993TIP3    H133614   2.352   2.816   8.871 -0.9256 -1.1256  2.0548
 3993TIP3    H233615   2.460   2.810   8.976 -1.4987  0.5490  2.7709
 3994TIP3   OH233616   5.984   4.577   0.175 -0.1338 -0.6022 -0.1930
 3994TIP3    H133617   5.932   4.648   0.213  0.2785  0.2008 -1.0837
 3994TIP3    H233618   6.074   4.610   0.175  0.1424 -1.3454 -0.1062
 3995TIP3   OH233619   1.426   4.489   0.826 -0.4747 -0.1698  0.4680
 3995TIP3    H133620   1.472   4.569   0.798 -0.3802 -0.7108 -1.0640
 3995TIP3    H233621   1.360   4.519   0.888  0.9759  0.8114  1.5952
 3996TIP3   OH233622   2.005   5.000   0.585 -0.0836  0.3029  0.3695
 3996TIP3    H133623   2.014   5.018   0.492  0.9747  1.8223  0.7262
 3996TIP3    H233624   1.982   4.907   0.590  2.9188 -0.6521 -1.2939
 3997TIP3   OH233625   6.542   3.557   1.244 -0.1301 -0.1489 -0.0600
 3997TIP3    H133626   6.468   3.539   1.185  0.9264  2.3428 -2.3457
 3997TIP3    H233627   6.513   3.522   1.329 -2.2656 -2.7800 -1.6822
 3998TIP3   OH233628   3.227   4.757   8.021 -0.4927 -0.5125 -0.0583
 3998TIP3    H133629   3.306   4.715   8.056  0.2431  0.9099  0.0454
 3998TIP3    H233630   3.258   4.838   7.980 -1.5526 -1.2056 -2.4519
 3999TIP3   OH233631   3.390   4.008   8.113  0.3624 -0.2485  0.8598
 3999TIP3    H133632   3.448   3.982   8.184  0.2984 -0.5336  0.8094
 3999TIP3    H233633   3.345   4.086   8.145  0.1153 -0.5471  1.2484
 4000TIP3   OH233634   2.987   0.326   0.354 -0.9337  0.5169  0.3205
 4000TIP3    H133635   3.005   0.294   0.442 -0.6523 -2.1101 -0.6012
 4000TIP3    H233636   2.898   0.360   0.359 -0.7168  0.9390  1.7395
 4001TIP3   OH233637   4.267   3.541   8.644  0.8206 -0.2593  0.2196
 4001TIP3    H133638   4.313   3.577   8.568  1.1488  0.0067  0.5396
 4001TIP3    H233639   4.244   3.618   8.696  1.3946 -0.4984  0.8364
 4002TIP3   OH233640   6.679   0.824   8.585  0.2293  0.4532  0.1441
 4002TIP3    H133641   6.654   0.783   8.502  0.5870 -0.6250  0.5543
 4002TIP3    H233642   6.745   0.890   8.560  0.1654  0.2984 -0.4498
 4003TIP3   OH233643   6.514   3.299   8.391 -0.2369 -0.6645  0.3625
 4003TIP3    H133644   6.549   3.313   8.479 -0.0122  1.8513 -0.0383
 4003TIP3    H233645   6.588   3.317   8.333 -0.5575 -1.6267 -0.3593
 4004TIP3   OH233646   3.508   3.604   0.912  0.3007 -0.0695 -0.3662
 4004TIP3    H133647   3.447   3.668   0.949  0.8824 -1.6929  4.0076
 4004TIP3    H233648   3.462   3.520   0.919  0.9627 -0.6761 -2.4675
 4005TIP3   OH233649   6.746   2.225   8.142 -0.4495 -0.2751 -0.2558
 4005TIP3    H133650   6.829   2.200   8.181 -0.0176 -0.1038 -1.0455
 4005TIP3    H233651   6.755   2.319   8.126 -0.4013 -0.4353 -1.2504
 4006TIP3   OH233652   4.175   4.975   1.624  0.0097  0.0309 -0.1621
 4006TIP3    H133653   4.171   4.988   1.529  0.6250  0.7874 -0.0999
 4006TIP3    H233654   4.111   5.037   1.659 -0.4932 -0.5224 -0.1018
 4007TIP3   OH233655   3.865   5.830   7.622  0.7337 -0.2188 -0.3028
 4007TIP3    H133656   3.851   5.770   7.548  2.8094  0.9697 -1.7477
 4007TIP3    H233657   3.850   5.917   7.586 -0.5462  0.3056  1.3397
 4008TIP3   OH233658   0.111   6.364   8.094 -0.1489  0.5627 -0.3630
 4008TIP3    H133659   0.161   6.440   8.124  0.0055  0.1798  0.3787
 4008TIP3    H233660   0.074   6.391   8.010  0.3748  1.2527 -0.3818
 4009TIP3   OH233661   1.058   3.473   1.837  0.2604 -0.6802 -0.5171
 4009TIP3    H133662   1.046   3.492   1.744  0.9538  2.1740 -0.1036
 4009TIP3    H233663   1.152   3.479   1.851  0.2524 -1.9556  0.2466
 4010TIP3   OH233664   2.099   3.876   1.063 -0.7965  0.3584  0.0100
 4010TIP3    H133665   2.107   3.783   1.082  0.0284  0.5250  0.5338
 4010TIP3    H233666   2.145   3.888   0.980 -1.0810  0.2721 -0.1628
 4011TIP3   OH233667   6.567   5.325   0.732 -0.3106  0.0412 -0.3114
 4011TIP3    H133668   6.593   5.378   0.657 -0.6476 -0.5752 -0.8766
 4011TIP3    H233669   6.612   5.365   0.807 -0.2114  0.8446 -0.7905
 4012TIP3   OH233670   2.502   3.920   1.954  0.3722 -0.4755  0.4990
 4012TIP3    H133671   2.570   3.946   2.017  1.2476 -0.8498 -0.2763
 4012TIP3    H233672   2.550   3.893   1.876 -0.7163  0.6317 -0.6047
 4013TIP3   OH233673   0.664   2.636   0.740  0.0006  0.0855  0.6246
 4013TIP3    H133674   0.735   2.571   0.743 -0.5863 -0.5589  0.7146
 4013TIP3    H233675   0.646   2.657   0.832 -0.6453 -0.5563  0.6534
 4014TIP3   OH233676   6.407   4.160   1.529  0.3425  0.4003  0.1098
 4014TIP3    H133677   6.481   4.219   1.544 -0.0971  0.4193  2.5374
 4014TIP3    H233678   6.349   4.209   1.471  1.7223  0.7934 -0.9916
 4015TIP3   OH233679   2.158   4.356   1.686 -0.1431 -0.1688 -0.0917
 4015TIP3    H133680   2.164   4.322   1.776  0.0046 -1.0358 -0.4144
 4015TIP3    H233681   2.080   4.314   1.650 -0.3822  0.4229 -0.2760
 4016TIP3   OH233682   2.156   4.980   1.453  0.4214  0.3767 -0.4886
 4016TIP3    H133683   2.088   5.008   1.392  0.7013 -0.1363 -1.0418
 4016TIP3    H233684   2.114   4.985   1.539 -0.0006  1.0223 -0.7249
 4017TIP3   OH233685   5.990   5.565   7.583  0.3862  0.3422 -0.5103
 4017TIP3    H133686   5.907   5.606   7.609  0.3806 -0.0273  0.0720
 4017TIP3    H233687   6.055   5.603   7.642  0.3489 -0.6184  0.1687
 4018TIP3   OH233688   3.979   3.270   0.937 -0.4242  0.0420  0.8161
 4018TIP3    H133689   3.912   3.309   0.881 -1.2615  0.9855  2.4050
 4018TIP3    H233690   4.057   3.266   0.882 -1.3930  0.2531 -0.6234
 4019TIP3   OH233691   1.474   6.184   0.810  0.7605 -0.2838  0.3456
 4019TIP3    H133692   1.469   6.194   0.715  1.4921  0.9247  0.4118
 4019TIP3    H233693   1.433   6.099   0.828 -3.0239  1.1467 -0.6495
 4020TIP3   OH233694   6.649   4.416   0.596  0.4062 -0.0624  0.0626
 4020TIP3    H133695   6.662   4.351   0.666 -0.4567  0.1024  0.3833
 4020TIP3    H233696   6.735   4.457   0.586  0.6493 -0.3952  0.7205
 4021TIP3   OH233697   6.092   1.708   8.241 -0.9185 -0.0787  0.2546
 4021TIP3    H133698   6.028   1.639   8.223 -1.4181  0.9488 -2.3065
 4021TIP3    H233699   6.039   1.785   8.263 -0.7220  0.9898 -2.6404
 4022TIP3   OH233700   1.708   6.298   0.842 -0.2377  0.3509  0.6142
 4022TIP3    H133701   1.635   6.254   0.798 -1.1616  0.0733  2.3405
 4022TIP3    H233702   1.761   6.227   0.878 -0.7063  0.5844  1.8050
 4023TIP3   OH233703   0.856   2.647   6.592 -0.3013  0.2457 -0.4540
 4023TIP3    H133704   0.776   2.673   6.637  0.2125 -0.6201  1.0220
 4023TIP3    H233705   0.898   2.729   6.568  0.3473  0.8396  2.3827
 4024TIP3   OH233706   5.519   1.534   7.618  0.5926  0.2141 -0.0671
 4024TIP3    H133707   5.443   1.588   7.596  1.5247  1.2404 -0.9119
 4024TIP3    H233708   5.569   1.586   7.680  0.9552 -0.1513 -0.0431
 4025TIP3   OH233709   0.241   2.240   0.426 -0.3690  0.1841 -0.4842
 4025TIP3    H133710   0.231   2.319   0.480  0.2027 -1.0770  1.5637
 4025TIP3    H233711   0.152   2.205   0.418 -0.3234 -0.2366  0.6688
 4026TIP3   OH233712   3.334   0.414   8.890  0.0364 -0.2703 -0.2410
 4026TIP3    H133713   3.345   0.333   8.939  0.6183 -0.0579 -0.0184
 4026TIP3    H233714   3.338   0.387   8.798 -0.8437 -0.6365 -0.1879
 4027TIP3   OH233715   4.805   3.426   0.733  0.0818  0.3590 -0.3439
 4027TIP3    H133716   4.819   3.331   0.733 -1.9906  0.0011 -0.2106
 4027TIP3    H233717   4.886   3.462   0.769  0.7028 -1.4008  0.1266
 4028TIP3   OH233718   2.461   0.014   7.699 -0.0148 -0.1083  0.4483
 4028TIP3    H133719   2.416   0.037   7.781 -2.4526  1.0172 -1.1016
 4028TIP3    H233720   2.420  -0.068   7.671  0.7026 -0.4115  0.2662
 4029TIP3   OH233721   2.867   0.380   1.603  0.2346 -0.0628  0.3249
 4029TIP3    H133722   2.792   0.343   1.649  0.3770 -0.5108  0.2026
 4029TIP3    H233723   2.939   0.372   1.665  0.7769 -2.0654 -0.4923
 4030TIP3   OH233724   2.570   6.677   6.789  0.3157 -0.1340 -0.7373
 4030TIP3    H133725   2.551   6.585   6.805 -1.0730  0.2982  0.2394
 4030TIP3    H233726   2.638   6.676   6.721  0.9824 -1.8819 -0.0906
 4031TIP3   OH233727   3.387   1.604   8.440 -0.3702 -0.1331 -0.2102
 4031TIP3    H133728   3.434   1.687   8.433  0.0685 -0.3935 -0.3977
 4031TIP3    H233729   3.357   1.586   8.351  1.0494 -1.0442 -0.5317
 4032TIP3   OH233730   1.686   5.098   7.094  0.2733 -0.0239 -0.0153
 4032TIP3    H133731   1.727   5.152   7.161  0.1909 -0.6515  0.5492
 4032TIP3    H233732   1.592   5.114   7.104  0.3057  0.6242 -0.6326
 4033TIP3   OH233733   6.664   4.785   8.102  0.2119 -0.4568  0.6466
 4033TIP3    H133734   6.600   4.720   8.073 -0.1789  0.1260  0.1930
 4033TIP3    H233735   6.635   4.810   8.190  0.2021 -0.6762  0.7083
 4034TIP3   OH233736   5.793   3.044   2.777  0.3750 -0.4007 -0.0603
 4034TIP3    H133737   5.734   3.114   2.749  0.2132 -0.0438  1.0953
 4034TIP3    H233738   5.736   2.973   2.805  0.4473  0.1144  1.4821
 4035TIP3   OH233739   3.165   3.896   7.979  0.7779 -0.3916  0.4084
 4035TIP3    H133740   3.246   3.941   8.002  0.1048  1.3026 -0.3751
 4035TIP3    H233741   3.103   3.923   8.047  0.3861 -0.2306 -0.0119
 4036TIP3   OH233742   4.188   4.252   1.341 -0.5021  0.4580  0.6860
 4036TIP3    H133743   4.141   4.171   1.359 -2.0883  0.9631 -0.8938
 4036TIP3    H233744   4.215   4.284   1.428 -1.8138 -0.6147  1.5351
 4037TIP3   OH233745   0.571   3.102   7.211 -0.0596  0.2559 -0.6992
 4037TIP3    H133746   0.538   3.068   7.128  1.2888  0.5261 -1.3789
 4037TIP3    H233747   0.663   3.076   7.212  0.0937  0.7701  0.4469
 4038TIP3   OH233748   4.331   3.393   8.113  0.2983 -0.0213  0.2169
 4038TIP3    H133749   4.248   3.347   8.127  0.7427 -0.8917  0.0222
 4038TIP3    H233750   4.390   3.327   8.079  0.9531  0.7010 -0.0773
 4039TIP3   OH233751   2.822   1.240   1.157  0.3185 -0.7954 -0.1946
 4039TIP3    H133752   2.870   1.168   1.198 -0.8376 -1.2864  0.3660
 4039TIP3    H233753   2.887   1.308   1.141  1.0950 -1.2572  0.9535
 4040TIP3   OH233754   6.427   2.505   1.623  0.3337 -0.6751  0.0633
 4040TIP3    H133755   6.397   2.589   1.587  2.6052  0.2576  0.1832
 4040TIP3    H233756   6.434   2.448   1.547 -0.4571 -0.5229 -0.1365
 4041TIP3   OH233757   1.046   4.882   7.653  0.1594  1.0239  0.3740
 4041TIP3    H133758   1.069   4.896   7.561 -1.2664  1.3286  0.0391
 4041TIP3    H233759   0.980   4.949   7.672 -0.5744  0.1054  1.2110
 4042TIP3   OH233760   0.090   1.866   0.229 -0.4277  0.1973  0.6314
 4042TIP3    H133761   0.061   1.844   0.317 -1.6286  0.0501  0.2214
 4042TIP3    H233762   0.015   1.846   0.173  0.5821 -0.4570 -0.5327
 4043TIP3   OH233763   3.382   6.258   7.299  0.1729 -0.3199 -0.7403
 4043TIP3    H133764   3.472   6.225   7.298  0.5507  0.6577 -0.1635
 4043TIP3    H233765   3.379   6.317   7.374 -0.7665  0.1743 -1.1512
 4044TIP3   OH233766   6.742   3.319   2.313  0.2089 -0.1986 -0.1313
 4044TIP3    H133767   6.835   3.319   2.337  0.1114  2.5912  0.6214
 4044TIP3    H233768   6.707   3.240   2.355  2.1420 -1.1782 -0.2225
 4045TIP3   OH233769   1.923   3.515   7.505  0.0081  0.5678  0.4576
 4045TIP3    H133770   1.908   3.423   7.484  1.0707  0.0886  1.6960
 4045TIP3    H233771   1.868   3.563   7.442 -0.6394 -0.8946 -0.1398
 4046TIP3   OH233772   1.216   3.351   7.211 -0.7003 -0.1048 -0.1768
 4046TIP3    H133773   1.301   3.350   7.167 -1.3010 -3.7683 -1.6384
 4046TIP3    H233774   1.234   3.324   7.300 -0.2052  0.7415 -0.0069
 4047TIP3   OH233775   4.094   1.512   8.280  0.6725 -0.0260  0.7269
 4047TIP3    H133776   4.103   1.596   8.326  2.4063 -0.5079  1.3630
 4047TIP3    H233777   4.051   1.455   8.343  0.9605 -0.0500  0.9050
 4048TIP3   OH233778   5.158   5.083   1.086  0.1344 -0.0696 -0.3517
 4048TIP3    H133779   5.111   5.105   1.167  0.1296 -0.2079 -0.3173
 4048TIP3    H233780   5.207   5.163   1.065  2.8729 -1.0343  1.6861
 4049TIP3   OH233781   2.176   1.616   1.226 -0.2729 -0.0923  1.3480
 4049TIP3    H133782   2.100   1.613   1.168  0.3424 -1.2236  0.5694
 4049TIP3    H233783   2.210   1.705   1.215  0.7634 -0.7283 -1.3101
 4050TIP3   OH233784   0.584   1.228   8.350 -0.1329 -0.2218  0.5514
 4050TIP3    H133785   0.629   1.302   8.309 -2.7815  0.5828 -1.1564
 4050TIP3    H233786   0.577   1.252   8.442  0.6464  0.8197  0.3571
 4051TIP3   OH233787   3.392   5.848   1.583  0.3226 -0.5307 -0.4260
 4051TIP3    H133788   3.469   5.904   1.589 -0.0422  0.0144 -0.7094
 4051TIP3    H233789   3.397   5.791   1.660 -0.1679  1.0032  0.7882
 4052TIP3   OH233790   6.558   1.439   0.847  0.0031  0.2836 -0.3079
 4052TIP3    H133791   6.474   1.479   0.825 -0.1409 -0.8538 -2.0782
 4052TIP3    H233792   6.543   1.345   0.834  1.5902  0.0759 -0.8461
 4053TIP3   OH233793   4.180   5.962   0.520 -0.2619 -0.1388  0.5346
 4053TIP3    H133794   4.105   6.021   0.528 -0.8495 -0.8108  0.1733
 4053TIP3    H233795   4.159   5.907   0.444 -0.2779 -1.5374  1.4983
 4054TIP3   OH233796   1.091   0.779   0.943  0.6590  0.5947 -0.5697
 4054TIP3    H133797   1.148   0.703   0.934  1.9521  1.5432 -0.5665
 4054TIP3    H233798   1.020   0.763   0.880  1.1576 -0.3753 -0.9032
 4055TIP3   OH233799   5.538   2.562   7.229 -0.1808  0.5450 -0.3249
 4055TIP3    H133800   5.623   2.571   7.272 -0.4334  1.5343 -0.0063
 4055TIP3    H233801   5.532   2.638   7.171 -1.4290  1.2367  0.6805
 4056TIP3   OH233802   3.072   1.831   8.857 -0.1348 -0.4267 -0.5138
 4056TIP3    H133803   2.988   1.867   8.887  0.1533 -1.6911  2.1044
 4056TIP3    H233804   3.138   1.885   8.900  0.3288 -1.7431  0.4743
 4057TIP3   OH233805   4.625   5.762   7.972 -0.0568 -0.5556 -0.2826
 4057TIP3    H133806   4.572   5.761   7.891  0.3606  1.1140 -0.6031
 4057TIP3    H233807   4.564   5.792   8.040  0.1307  0.1000 -0.3988
 4058TIP3   OH233808   4.891   3.378   1.388 -0.2673  0.0176  0.1575
 4058TIP3    H133809   4.919   3.466   1.366 -0.8187  0.1768  0.0688
 4058TIP3    H233810   4.949   3.350   1.458 -0.5750  0.7376  0.7121
 4059TIP3   OH233811   0.516   5.992   8.441 -0.4375  0.2502  0.1400
 4059TIP3    H133812   0.559   6.045   8.374  1.4405 -0.9935  0.2931
 4059TIP3    H233813   0.436   5.960   8.398 -0.5664  1.4996 -0.6145
 4060TIP3   OH233814   3.587   1.636   8.653 -0.0483  0.3892 -0.3554
 4060TIP3    H133815   3.542   1.571   8.707  0.6488 -1.1559 -1.5714
 4060TIP3    H233816   3.634   1.585   8.587 -0.0514  2.1584 -1.8162
 4061TIP3   OH233817   4.337   2.301   1.377 -0.0059 -0.1845 -0.6808
 4061TIP3    H133818   4.365   2.370   1.317 -0.0931 -1.1667 -1.8928
 4061TIP3    H233819   4.293   2.348   1.448  1.6264  1.1417 -0.4738
 4062TIP3   OH233820   0.245   4.842   8.934  0.4085  0.1149  0.1057
 4062TIP3    H133821   0.183   4.816   9.001 -0.6906  1.3266 -0.3766
 4062TIP3    H233822   0.278   4.760   8.898  1.6199 -0.5729  2.5979
 4063TIP3   OH233823   5.134   5.713   8.306  0.3484  0.4433 -0.1361
 4063TIP3    H133824   5.188   5.652   8.356 -0.1361  0.8111  0.8612
 4063TIP3    H233825   5.172   5.712   8.218  2.0463  0.7810  0.5705
 4064TIP3   OH233826   5.423   0.175   1.551  0.0792 -0.4154 -0.1332
 4064TIP3    H133827   5.399   0.176   1.644  0.5357 -1.4527  0.0119
 4064TIP3    H233828   5.343   0.200   1.506 -0.2503 -0.2440  0.5286
 4065TIP3   OH233829   0.909   3.362   8.483 -0.3112  0.1520 -0.3680
 4065TIP3    H133830   0.824   3.348   8.523 -0.5989 -0.2469 -1.0858
 4065TIP3    H233831   0.917   3.457   8.473 -1.6348  0.1301 -2.2560
 4066TIP3   OH233832   2.880   0.799   8.889  0.0893  0.2204 -0.1345
 4066TIP3    H133833   2.925   0.845   8.818  0.2699  1.3943  0.7023
 4066TIP3    H233834   2.858   0.868   8.952  0.4076 -0.8516  1.2042
 4067TIP3   OH233835   3.817   6.099   1.420  0.4851 -0.3608 -0.3288
 4067TIP3    H133836   3.909   6.080   1.437  0.5344 -0.5787 -0.8131
 4067TIP3    H233837   3.814   6.193   1.405  0.4641 -0.1861  0.6770
 4068TIP3   OH233838   0.330   6.011   7.899  0.4951  0.2668 -0.3796
 4068TIP3    H133839   0.398   6.073   7.924  0.4184  0.1343  0.1591
 4068TIP3    H233840   0.349   5.932   7.950  1.3520 -0.6133 -1.9841
 4069TIP3   OH233841   1.833   5.747   0.659  0.2322 -0.0326 -0.0931
 4069TIP3    H133842   1.791   5.703   0.585  0.3678  0.5843 -0.5507
 4069TIP3    H233843   1.868   5.828   0.621  1.6302 -0.4235  0.3305
 4070TIP3   OH233844   5.805   3.254   1.504  0.4744 -0.0953 -0.4748
 4070TIP3    H133845   5.879   3.239   1.563  0.0698  0.4066  0.1794
 4070TIP3    H233846   5.782   3.167   1.471 -0.4937 -0.6910  1.5863
 4071TIP3   OH233847   1.452   0.181   1.558  0.7438 -0.0887 -0.2107
 4071TIP3    H133848   1.454   0.275   1.576  0.4975 -0.3366  1.2487
 4071TIP3    H233849   1.540   0.151   1.582  1.2996 -0.0215 -2.0593
 4072TIP3   OH233850   3.828   1.612   1.597  0.4274 -0.3749  0.1338
 4072TIP3    H133851   3.905   1.639   1.648 -0.0785  0.9431  0.2156
 4072TIP3    H233852   3.813   1.521   1.624  1.9807 -0.6895  0.0714
 4073TIP3   OH233853   4.435   3.137   8.065 -0.0310  0.0976 -0.2090
 4073TIP3    H133854   4.472   3.104   7.984  0.2166 -0.6213  0.1861
 4073TIP3    H233855   4.481   3.089   8.134 -1.7899 -0.9530  0.2993
 4074TIP3   OH233856   1.199   5.293   0.739 -0.0262  0.4206 -0.2854
 4074TIP3    H133857   1.292   5.286   0.714 -0.1032  0.5330 -0.5975
 4074TIP3    H233858   1.152   5.293   0.656 -0.3019  0.4540 -0.1272
 4075TIP3   OH233859   6.765   2.544   1.730 -0.2182  0.3612 -0.0587
 4075TIP3    H133860   6.810   2.486   1.792  1.2435  1.5804  0.0586
 4075TIP3    H233861   6.789   2.509   1.644 -0.9865 -0.3891  0.0102
 4076TIP3   OH233862   5.316   0.462   0.127 -0.5934 -0.8926  0.3289
 4076TIP3    H133863   5.251   0.504   0.185 -0.3357 -0.5667  0.3858
 4076TIP3    H233864   5.266   0.438   0.049 -0.7429 -0.4606  0.2898
 4077TIP3   OH233865   2.408   2.269   1.549 -0.1384 -0.4508  0.2896
 4077TIP3    H133866   2.356   2.197   1.584  0.2206 -1.2598 -0.7881
 4077TIP3    H233867   2.475   2.284   1.616 -0.4286 -0.8845  0.6827
 4078TIP3   OH233868   4.117   1.424   7.005 -0.1776 -0.0819  0.2871
 4078TIP3    H133869   4.110   1.454   6.914 -0.5190 -0.2426  0.2597
 4078TIP3    H233870   4.148   1.501   7.052  0.3462 -0.0968 -0.0228
 4079TIP3   OH233871   0.218   0.605   1.802  0.6307 -0.3833  0.1974
 4079TIP3    H133872   0.243   0.603   1.710 -1.7275  1.3522 -0.5634
 4079TIP3    H233873   0.273   0.673   1.840 -0.8907  1.5042 -0.8299
 4080TIP3   OH233874   6.300   5.456   0.795 -0.0535  0.1622  0.0624
 4080TIP3    H133875   6.371   5.413   0.747  1.3225  2.3391  0.0170
 4080TIP3    H233876   6.227   5.458   0.733  0.6484  0.0375 -0.7870
 4081TIP3   OH233877   5.009   0.851   1.196  0.1471 -0.9851  0.0811
 4081TIP3    H133878   5.049   0.771   1.231  2.3741 -0.4143 -0.9573
 4081TIP3    H233879   5.076   0.918   1.209 -0.5812  0.1041 -1.5227
 4082TIP3   OH233880   3.947   0.922   8.396  0.1689  0.1401  0.2718
 4082TIP3    H133881   4.016   0.856   8.403 -0.3582 -0.5353 -0.7302
 4082TIP3    H233882   3.988   1.002   8.429  1.6019 -0.1305 -0.7340
 4083TIP3   OH233883   1.962   2.294   6.407 -0.5511  0.3334 -0.3445
 4083TIP3    H133884   2.003   2.266   6.488 -0.5489  1.1073 -0.0740
 4083TIP3    H233885   2.034   2.322   6.351 -0.4500 -1.2314 -1.0432
 4084TIP3   OH233886   2.488   5.360   2.415 -0.4743  0.0834  0.9116
 4084TIP3    H133887   2.439   5.414   2.476  0.6654 -1.4102  3.3055
 4084TIP3    H233888   2.548   5.420   2.371 -0.9184  1.1014  1.6694
 4085TIP3   OH233889   3.595   1.936   8.602  0.0573 -0.1438  0.1451
 4085TIP3    H133890   3.615   1.925   8.509  0.6253  0.0451  0.2400
 4085TIP3    H233891   3.591   1.847   8.637 -1.2686 -0.2745 -0.2722
 4086TIP3   OH233892   2.985   5.457   8.274  0.0049 -0.0122 -0.4107
 4086TIP3    H133893   3.069   5.424   8.241  0.4949  0.0929  0.6748
 4086TIP3    H233894   3.003   5.480   8.365 -0.7391  1.7130 -0.6574
 4087TIP3   OH233895   1.019   4.825   0.052  0.0031  0.2513 -0.1015
 4087TIP3    H133896   1.085   4.758   0.031 -0.1136  0.1316 -0.0860
 4087TIP3    H233897   1.043   4.855   0.140 -1.0533 -1.1154  0.6976
 4088TIP3   OH233898   0.264   1.947   0.540 -1.1358  0.1117 -0.1612
 4088TIP3    H133899   0.199   1.986   0.598 -2.0918 -2.3880  0.5686
 4088TIP3    H233900   0.263   2.003   0.462 -0.8840  2.6915  1.5728
 4089TIP3   OH233901   1.588   5.177   1.798  0.4006 -0.3904 -0.7633
 4089TIP3    H133902   1.595   5.082   1.799 -0.9433 -0.5095 -0.7164
 4089TIP3    H233903   1.520   5.196   1.863  0.0080  0.5286 -1.4258
 4090TIP3   OH233904   6.670   0.414   1.164 -0.0485  0.2344 -0.3585
 4090TIP3    H133905   6.582   0.441   1.190 -0.3000  0.5447 -1.4669
 4090TIP3    H233906   6.663   0.319   1.153  0.1022  0.0782  0.8069
 4091TIP3   OH233907   1.157   0.738   6.853  0.7807 -0.4803 -0.2557
 4091TIP3    H133908   1.096   0.808   6.828  1.5758  1.2073  2.1825
 4091TIP3    H233909   1.229   0.746   6.790 -0.2771 -0.8277 -1.5664
 4092TIP3   OH233910   6.203   3.130   7.073  0.3699  0.4777 -0.0269
 4092TIP3    H133911   6.220   3.084   7.155  1.4083 -1.1305 -1.1032
 4092TIP3    H233912   6.262   3.090   7.009 -1.7285  0.3427 -2.0201
 4093TIP3   OH233913   4.948   4.135   1.307 -0.7100  0.3751 -0.2972
 4093TIP3    H133914   5.034   4.120   1.346 -1.6670  0.0396  1.8789
 4093TIP3    H233915   4.963   4.205   1.243  1.2446 -0.0076 -0.3319
 4094TIP3   OH233916   0.507   3.308   7.379 -0.4284 -0.2415 -0.4341
 4094TIP3    H133917   0.513   3.231   7.323  2.9705 -0.6173  0.2354
 4094TIP3    H233918   0.516   3.382   7.319 -0.4413 -0.4921 -0.7499
 4095TIP3   OH233919   5.437   0.334   1.296  0.3250 -0.9685  0.1768
 4095TIP3    H133920   5.514   0.383   1.268 -0.1492 -1.0042 -1.2607
 4095TIP3    H233921   5.413   0.373   1.380 -0.7579  2.1974 -1.4362
 4096TIP3   OH233922   1.219   2.577   1.467 -0.1855 -0.1072  0.2022
 4096TIP3    H133923   1.271   2.522   1.527 -0.8940 -0.2518  0.6883
 4096TIP3    H233924   1.236   2.666   1.497  0.5061 -0.0836 -0.2235
 4097TIP3   OH233925   3.583   0.087   7.502 -0.5811 -0.2719 -0.0778
 4097TIP3    H133926   3.497   0.060   7.535  0.2917 -2.2179  0.7686
 4097TIP3    H233927   3.612   0.155   7.563 -1.5819  0.5225 -0.4758
 4098TIP3   OH233928   1.503   2.834   1.871 -0.1053 -0.4493  0.0302
 4098TIP3    H133929   1.543   2.752   1.842  0.7716 -0.1392  0.3435
 4098TIP3    H233930   1.409   2.816   1.871  0.0383 -1.2466 -0.5396
 4099TIP3   OH233931   2.003   3.281   0.016 -0.0471 -0.5175 -0.0854
 4099TIP3    H133932   1.921   3.244  -0.016  1.2104 -1.5997 -2.2492
 4099TIP3    H233933   2.060   3.206   0.031  0.9806  0.2848  0.1964
 4100TIP3   OH233934   2.985   2.769   1.892  0.7047 -0.0383 -0.0847
 4100TIP3    H133935   2.970   2.686   1.936 -1.9300  0.7803  0.7384
 4100TIP3    H233936   2.990   2.746   1.799  1.2821 -1.2294  0.2182
 4101TIP3   OH233937   1.213   0.295   7.121  0.6676 -0.1199 -0.0570
 4101TIP3    H133938   1.283   0.247   7.077  0.8389 -0.4247  0.5372
 4101TIP3    H233939   1.208   0.379   7.074 -0.2410 -1.0369 -1.6713
 4102TIP3   OH233940   0.885   5.513   8.508 -0.4755  0.0232  0.3167
 4102TIP3    H133941   0.931   5.484   8.586 -0.1471 -0.5410 -0.0731
 4102TIP3    H233942   0.954   5.521   8.441 -1.0278 -1.6064 -0.4907
 4103TIP3   OH233943   6.228   3.114   1.093 -0.7898  0.1855  0.3471
 4103TIP3    H133944   6.238   3.193   1.039  1.9139  0.6200  1.3510
 4103TIP3    H233945   6.268   3.044   1.042 -0.3287  0.1260  0.7827
 4104TIP3   OH233946   5.122   0.031   2.035  0.6027  0.0170 -0.1837
 4104TIP3    H133947   5.074   0.084   1.971 -2.3685  1.4015  2.8997
 4104TIP3    H233948   5.086  -0.057   2.024 -0.1464  0.3173 -0.1950
 4105TIP3   OH233949   4.787   2.359   7.549 -1.0883 -0.0445  0.4959
 4105TIP3    H133950   4.861   2.333   7.493 -0.7953  0.0822  0.8171
 4105TIP3    H233951   4.724   2.288   7.541 -0.4397 -0.7052  1.1019
 4106TIP3   OH233952   5.256   3.767   2.091 -0.1785  0.2191 -0.6626
 4106TIP3    H133953   5.304   3.849   2.077  0.6869 -0.0253  0.6475
 4106TIP3    H233954   5.316   3.698   2.062 -1.3356  0.0387 -2.8438
 4107TIP3   OH233955   2.884   1.871   8.599  0.0077 -0.3141  0.0996
 4107TIP3    H133956   2.857   1.818   8.675 -0.3205 -0.1851  0.0767
 4107TIP3    H233957   2.802   1.891   8.554 -0.0656  1.5207  0.9560
 4108TIP3   OH233958   0.458   4.516   6.560  0.0066 -0.2317 -0.0379
 4108TIP3    H133959   0.522   4.562   6.614  0.2636 -1.2565  0.5363
 4108TIP3    H233960   0.504   4.438   6.529 -0.4549 -0.1601 -0.9363
 4109TIP3   OH233961   5.155   4.477   0.832  0.0606 -0.0969 -0.0226
 4109TIP3    H133962   5.141   4.568   0.859 -0.8741 -0.4413  0.7093
 4109TIP3    H233963   5.116   4.471   0.745  0.0882  0.1822 -0.0554
 4110TIP3   OH233964   2.332   4.169   0.145 -0.2915 -0.2907 -0.3930
 4110TIP3    H133965   2.334   4.228   0.221  2.5449 -1.0503  0.2616
 4110TIP3    H233966   2.269   4.102   0.168  0.2662 -0.3129  1.2008
 4111TIP3   OH233967   5.430   1.517   8.613  0.5621 -0.2319 -0.2474
 4111TIP3    H133968   5.411   1.431   8.651 -1.7143  0.5368  0.5070
 4111TIP3    H233969   5.479   1.563   8.682 -2.4388  0.7062  1.4259
 4112TIP3   OH233970   2.936   6.021   1.301 -0.5118  0.3110  0.3027
 4112TIP3    H133971   2.925   6.001   1.208  0.3640 -0.1134  0.2833
 4112TIP3    H233972   2.988   5.949   1.335  1.4653  1.7765  0.5421
 4113TIP3   OH233973   5.283   5.244   8.582  0.4011 -0.4339  0.2172
 4113TIP3    H133974   5.378   5.252   8.574  0.4249  1.3706  1.4710
 4113TIP3    H233975   5.263   5.157   8.550  2.4542 -0.7723 -0.2897
 4114TIP3   OH233976   4.974   4.613   8.080 -0.1368 -0.3709 -0.3525
 4114TIP3    H133977   5.007   4.532   8.119 -2.5264 -0.5217  1.6330
 4114TIP3    H233978   4.937   4.662   8.154 -0.2708  1.7740 -1.7503
 4115TIP3   OH233979   3.844   3.161   8.117 -0.3382 -0.0014  0.2583
 4115TIP3    H133980   3.876   3.072   8.100 -1.0000  0.0945 -1.7531
 4115TIP3    H233981   3.765   3.169   8.063  0.3570  2.1845 -0.5633
 4116TIP3   OH233982   6.218   6.554   8.179  0.7229 -0.8377  0.2164
 4116TIP3    H133983   6.229   6.642   8.215  0.8160 -1.4226  1.6838
 4116TIP3    H233984   6.299   6.508   8.202 -0.0753 -1.8516  1.1036
 4117TIP3   OH233985   0.409   3.951   7.345 -0.7062  0.3059 -0.1390
 4117TIP3    H133986   0.448   3.872   7.308  0.5139  0.9934 -0.3678
 4117TIP3    H233987   0.400   3.932   7.438 -0.0656  0.0329 -0.1282
 4118TIP3   OH233988   0.589   5.352   7.628  0.3314  0.2739  0.1806
 4118TIP3    H133989   0.632   5.268   7.618 -0.2933 -0.0734  0.3932
 4118TIP3    H233990   0.661   5.414   7.641  0.7174 -0.5487  2.3719
 4119TIP3   OH233991   6.202   5.989   8.386 -0.1315 -0.4817 -0.0120
 4119TIP3    H133992   6.205   5.997   8.481 -0.0556 -1.3420  0.0634
 4119TIP3    H233993   6.254   5.911   8.367  0.4353  0.0735 -0.8184
 4120TIP3   OH233994   5.157   0.277   1.510 -0.0344  0.0974  0.6118
 4120TIP3    H133995   5.125   0.189   1.529  2.5877 -0.9716  0.5501
 4120TIP3    H233996   5.109   0.333   1.570 -0.6419 -1.6072  1.8042
 4121TIP3   OH233997   4.701   5.242   0.890 -0.1697 -0.0652  0.7098
 4121TIP3    H133998   4.621   5.237   0.838 -0.0188  0.4292  0.4288
 4121TIP3    H233999   4.673   5.222   0.979 -1.0103  2.1971  1.0254
 4122TIP3   OH234000   0.416   2.778   0.938  0.1650  0.1872  0.5290
 4122TIP3    H134001   0.428   2.788   0.844 -0.4034  2.5372  0.6499
 4122TIP3    H234002   0.455   2.693   0.959 -1.5849 -1.4140 -2.1368
 4123TIP3   OH234003   1.943   4.963   1.658  0.0899 -0.2558  0.4514
 4123TIP3    H134004   2.003   4.952   1.732 -1.0080 -3.4253  1.0373
 4123TIP3    H234005   1.893   4.881   1.656  0.0529 -0.3302 -3.8093
 4124TIP3   OH234006   4.964   0.577   8.649 -0.6352 -0.0965  0.0183
 4124TIP3    H134007   4.992   0.583   8.741 -0.2776  1.0858 -0.1508
 4124TIP3    H234008   4.978   0.665   8.614 -2.3239 -0.0882 -0.7227
 4125TIP3   OH234009   2.551   4.653   6.704  0.8185  0.7611  0.0926
 4125TIP3    H134010   2.506   4.589   6.648  0.1789  1.5883 -0.3650
 4125TIP3    H234011   2.610   4.699   6.645 -0.4346  2.1851 -0.1243
 4126TIP3   OH234012   3.935   3.420   1.560 -0.2013  0.6483 -0.9446
 4126TIP3    H134013   3.867   3.360   1.529 -1.0640  1.8917 -1.5683
 4126TIP3    H234014   3.938   3.489   1.493  1.0805  1.0608 -0.4863
 4127TIP3   OH234015   1.499   3.426   0.810 -0.4242 -0.1625 -0.4219
 4127TIP3    H134016   1.513   3.484   0.885  0.6808  0.5145 -1.1227
 4127TIP3    H234017   1.427   3.466   0.761 -0.6895 -0.2314 -0.0885
 4128TIP3   OH234018   0.756   4.148   7.136  0.0642 -0.1800  0.5980
 4128TIP3    H134019   0.712   4.094   7.202 -1.1474  0.0757  0.0328
 4128TIP3    H234020   0.765   4.090   7.060  2.7394 -0.9308  1.3738
 4129TIP3   OH234021   0.370   4.307   1.100 -0.1512  0.7341  0.1048
 4129TIP3    H134022   0.352   4.366   1.026 -1.7217 -0.1228 -0.2409
 4129TIP3    H234023   0.361   4.362   1.177  0.3386  1.3712 -0.2768
 4130TIP3   OH234024   6.032   0.333   8.413  0.1791 -0.4773 -0.5731
 4130TIP3    H134025   6.083   0.321   8.333  0.5582  0.5735 -0.5040
 4130TIP3    H234026   5.971   0.405   8.392 -1.2618 -1.6592 -0.6389
 4131TIP3   OH234027   5.647   2.378   0.545  0.1358 -0.3553  0.2083
 4131TIP3    H134028   5.712   2.312   0.520  1.4507  0.5424  1.1195
 4131TIP3    H234029   5.693   2.434   0.607 -0.7770  1.7008 -0.8804
 4132TIP3   OH234030   1.155   0.326   0.074 -0.1969 -0.0714  0.1375
 4132TIP3    H134031   1.246   0.296   0.068  0.2493  1.1339  0.5680
 4132TIP3    H234032   1.109   0.253   0.115  0.0611 -1.6585 -2.2564
 4133TIP3   OH234033   3.042   4.275   1.145 -0.4998 -0.5436 -0.5527
 4133TIP3    H134034   2.948   4.257   1.138 -0.3991 -0.8766 -1.0776
 4133TIP3    H234035   3.084   4.197   1.109 -0.0328  0.2180 -1.7154
 4134TIP3   OH234036   2.130   0.907   7.903 -0.4533  0.4576  0.2298
 4134TIP3    H134037   2.102   0.998   7.894  1.3189  1.1058  0.7347
 4134TIP3    H234038   2.144   0.877   7.813  0.3602  1.1928  0.0900
 4135TIP3   OH234039   4.922   3.838   1.281 -0.2353  0.2469 -0.5334
 4135TIP3    H134040   4.978   3.841   1.359 -0.3899  0.4385 -0.4268
 4135TIP3    H234041   4.904   3.930   1.262 -0.5750  0.1840 -0.5188
 4136TIP3   OH234042   0.573   2.470   0.248  0.0075 -0.6657  0.0224
 4136TIP3    H134043   0.619   2.540   0.294 -0.8669 -0.0251 -0.0572
 4136TIP3    H234044   0.572   2.397   0.311  0.9363 -0.6274  0.0986
 4137TIP3   OH234045   0.907   4.567   8.745  0.0451 -0.3598  0.3007
 4137TIP3    H134046   0.823   4.603   8.776  0.9142  1.1534  1.0579
 4137TIP3    H234047   0.888   4.534   8.657 -1.2391  0.3751  0.2662
 4138TIP3   OH234048   1.795   5.353   7.567  0.1591 -0.0737  0.0054
 4138TIP3    H134049   1.839   5.424   7.613  2.5287 -0.9665 -0.6915
 4138TIP3    H234050   1.797   5.279   7.628  1.1187 -0.5731 -0.6055
 4139TIP3   OH234051   3.076   2.052   2.180  0.1543  0.3625  0.0414
 4139TIP3    H134052   3.006   2.007   2.228 -0.6841 -1.2515 -2.5018
 4139TIP3    H234053   3.033   2.128   2.140 -0.1959 -0.6002 -1.4793
 4140TIP3   OH234054   2.035   0.132   0.515  0.6464 -0.0750 -0.4959
 4140TIP3    H134055   2.127   0.137   0.542  0.3531  0.0282  0.5519
 4140TIP3    H234056   1.995   0.073   0.579  0.0960 -0.5930 -1.2970
 4141TIP3   OH234057   3.071   0.553   0.717  0.2050  0.2079  0.7523
 4141TIP3    H134058   3.064   0.462   0.689  2.1852 -0.4681  2.2085
 4141TIP3    H234059   2.999   0.564   0.780 -0.4106 -0.1468  0.1228
 4142TIP3   OH234060   4.873   4.785   0.331  0.3368 -1.0099  0.2584
 4142TIP3    H134061   4.902   4.875   0.316  1.6206 -0.8942  2.8330
 4142TIP3    H234062   4.786   4.794   0.370 -0.2785 -0.9917 -1.0996
 4143TIP3   OH234063   1.754   4.047   8.304 -0.5165 -0.3607  0.5277
 4143TIP3    H134064   1.789   4.066   8.391 -0.0516  0.1673  0.2348
 4143TIP3    H234065   1.672   4.096   8.300  0.1601  0.8058  0.1662
 4144TIP3   OH234066   0.197   0.237   1.379 -0.1357  0.2107  0.5129
 4144TIP3    H134067   0.245   0.156   1.367  0.1880  0.6419 -1.2782
 4144TIP3    H234068   0.145   0.247   1.300 -0.6172  1.4644  0.9546
 4145TIP3   OH234069   3.774   2.577   0.401 -0.1727 -0.2962  0.0584
 4145TIP3    H134070   3.823   2.505   0.361 -0.5627  0.4827 -1.9403
 4145TIP3    H234071   3.816   2.656   0.366 -2.7815  0.4075 -1.7936
 4146TIP3   OH234072   5.681   1.973   6.880 -0.4283  0.4502  0.1487
 4146TIP3    H134073   5.653   2.065   6.880  1.1027  1.0525  3.0811
 4146TIP3    H234074   5.600   1.923   6.871 -1.5059  2.0828  0.3185
 4147TIP3   OH234075   2.810   6.072   0.560 -0.7305  0.8118  0.0458
 4147TIP3    H134076   2.850   6.114   0.483  0.3943 -0.1846  0.0472
 4147TIP3    H234077   2.796   5.982   0.533 -0.8546  0.5874  0.8384
 4148TIP3   OH234078   1.727   6.027   7.003 -0.4696  0.0101 -0.2353
 4148TIP3    H134079   1.707   6.119   7.020  1.1128  0.3629 -0.1168
 4148TIP3    H234080   1.668   6.002   6.933 -1.6599  0.8033  0.4516
 4149TIP3   OH234081   5.060   0.212   0.730  0.3319 -0.5948  0.0848
 4149TIP3    H134082   5.146   0.189   0.765 -0.0842 -3.9104 -0.7263
 4149TIP3    H234083   5.068   0.200   0.635 -0.6463  0.5104 -0.1643
 4150TIP3   OH234084   1.478   2.304   8.962 -0.2172 -0.4046 -0.1235
 4150TIP3    H134085   1.457   2.310   9.055  0.4011 -1.9686  0.1448
 4150TIP3    H234086   1.555   2.360   8.951 -0.4789  0.0334  0.2278
 4151TIP3   OH234087   5.091   3.425   1.889  0.6268  0.3824 -0.1524
 4151TIP3    H134088   5.087   3.494   1.955 -0.5917 -0.7461  1.0200
 4151TIP3    H234089   5.004   3.425   1.849  0.4323 -0.7732  0.2233
 4152TIP3   OH234090   3.242   2.852   8.475  0.2247  0.4260  0.2235
 4152TIP3    H134091   3.184   2.928   8.477 -0.7396 -0.2498 -1.1851
 4152TIP3    H234092   3.325   2.886   8.441  0.0892  1.0184  0.4716
 4153TIP3   OH234093   5.333   4.250   7.473 -0.6808 -0.8557 -0.9837
 4153TIP3    H134094   5.279   4.205   7.407 -2.5120 -0.1212 -0.0554
 4153TIP3    H234095   5.274   4.314   7.513  1.2788  0.9643 -0.8304
 4154TIP3   OH234096   5.506   4.798   8.803  0.0226 -0.1419 -0.7657
 4154TIP3    H134097   5.600   4.785   8.795  0.3870  0.5982  1.4661
 4154TIP3    H234098   5.495   4.844   8.887 -2.2551  0.6073 -1.3914
 4155TIP3   OH234099   4.294   4.988   2.066 -0.1693  0.3704  0.4488
 4155TIP3    H134100   4.285   4.910   2.121 -0.1877 -0.6290 -0.9187
 4155TIP3    H234101   4.260   5.060   2.120 -0.1011 -0.5419  1.7555
 4156TIP3   OH234102   4.258   6.710   1.883 -0.0076  0.3649 -0.0266
 4156TIP3    H134103   4.277   6.644   1.949  0.2494 -0.4937 -0.9298
 4156TIP3    H234104   4.274   6.793   1.926 -2.2348 -0.0451  1.7703
 4157TIP3   OH234105   0.358   1.571   6.465 -0.7894  0.3581 -0.0033
 4157TIP3    H134106   0.270   1.604   6.451 -1.7106 -0.8607  2.4447
 4157TIP3    H234107   0.347   1.477   6.478  0.9451  0.1113 -0.0839
 4158TIP3   OH234108   1.749   2.763   0.570  0.0199  0.0115 -0.1255
 4158TIP3    H134109   1.827   2.772   0.515 -0.6497 -0.1065 -1.1284
 4158TIP3    H234110   1.704   2.687   0.533 -0.9216  0.5080 -0.0149
 4159TIP3   OH234111   1.212   4.482   6.846  0.1389  0.1471 -0.2625
 4159TIP3    H134112   1.195   4.442   6.761  1.2786 -1.4677  0.2249
 4159TIP3    H234113   1.190   4.575   6.834 -3.8625 -0.7391 -1.0923
 4160TIP3   OH234114   2.275   1.648   0.582 -0.0728  0.4463 -0.3907
 4160TIP3    H134115   2.345   1.597   0.622 -1.4427 -1.7325 -0.6322
 4160TIP3    H234116   2.243   1.704   0.653  1.5376  1.1218 -0.1489
 4161TIP3   OH234117   1.236   3.844   6.578 -0.0940  0.0643 -0.0996
 4161TIP3    H134118   1.163   3.783   6.586 -1.0352  1.1584 -0.1565
 4161TIP3    H234119   1.307   3.804   6.628 -0.9386 -0.6994  0.5095
 4162TIP3   OH234120   2.092   0.530   1.239 -0.0971  0.3704 -0.0716
 4162TIP3    H134121   2.164   0.477   1.207  0.4734  0.6493  0.7168
 4162TIP3    H234122   2.086   0.508   1.332 -0.1083  1.3994  0.1756
 4163TIP3   OH234123   0.205   5.878   8.451  0.4194  0.1135  0.1999
 4163TIP3    H134124   0.186   5.968   8.423 -1.0652 -0.4429 -0.7322
 4163TIP3    H234125   0.194   5.880   8.546 -1.0025  0.6419  0.0586
 4164TIP3   OH234126   1.966   6.169   8.315 -0.2366 -0.4296  0.0096
 4164TIP3    H134127   1.929   6.193   8.400  2.0139 -0.2375  1.0086
 4164TIP3    H234128   2.013   6.248   8.286 -1.3782 -0.3205 -1.6942
 4165TIP3   OH234129   5.396   3.456   8.851 -0.3884  0.4458 -0.4141
 4165TIP3    H134130   5.382   3.483   8.942 -0.8092 -1.6785  0.2123
 4165TIP3    H234131   5.461   3.517   8.817  2.8319 -0.9683  2.5511
 4166TIP3   OH234132   0.075   5.023   8.255 -0.2946  0.2195  0.2201
 4166TIP3    H134133   0.088   4.933   8.285  0.5003  0.2440 -0.0301
 4166TIP3    H234134   0.000   5.055   8.305 -0.9336 -0.7599 -0.0779
 4167TIP3   OH234135   3.125   4.552   7.533  0.3975 -0.6338 -0.5276
 4167TIP3    H134136   3.169   4.617   7.588  0.7607 -0.5133 -0.9518
 4167TIP3    H234137   3.045   4.531   7.580 -0.1631  0.7801 -0.7938
 4168TIP3   OH234138   3.884   1.532   7.602  0.0592  0.0418  0.1437
 4168TIP3    H134139   3.977   1.538   7.584  0.1277 -1.0172  0.0815
 4168TIP3    H234140   3.846   1.609   7.560  1.0675  1.2694  1.4018
 4169TIP3   OH234141   4.244   2.667   2.452  0.0370  0.0225 -0.1132
 4169TIP3    H134142   4.328   2.668   2.406  0.4371 -4.7467  0.0131
 4169TIP3    H234143   4.183   2.628   2.389 -1.0774 -0.3119  1.1324
 4170TIP3   OH234144   0.936   0.391   6.537 -0.7780 -0.3255  0.3386
 4170TIP3    H134145   1.016   0.376   6.487 -1.2339 -0.6359 -0.3180
 4170TIP3    H234146   0.907   0.303   6.563 -1.5235 -0.3278 -0.4348
 4171TIP3   OH234147   2.467   5.860   6.437  0.6540  0.9982  0.2767
 4171TIP3    H134148   2.555   5.872   6.401 -0.4244 -1.2178 -3.6941
 4171TIP3    H234149   2.476   5.788   6.501  1.6589  0.3844 -0.5315
 4172TIP3   OH234150   1.292   6.172   6.467  0.2997 -0.1990  0.3799
 4172TIP3    H134151   1.348   6.115   6.521  0.5751 -2.0487 -1.7457
 4172TIP3    H234152   1.354   6.227   6.419  0.1012  0.5998  1.0221
 4173TIP3   OH234153   6.163   3.099   8.205  0.4036 -0.5480  0.1647
 4173TIP3    H134154   6.072   3.116   8.230  0.2359  0.8594 -1.2015
 4173TIP3    H234155   6.215   3.144   8.271  0.0351  0.5216 -0.2449
 4174TIP3   OH234156   5.615   3.404   7.698  0.6159  0.1813  0.2070
 4174TIP3    H134157   5.602   3.499   7.697  0.5852  0.1758  0.0727
 4174TIP3    H234158   5.671   3.388   7.774  0.3781  0.2767  0.4030
 4175TIP3   OH234159   1.902   1.027   7.529  0.1073 -0.4828 -0.3978
 4175TIP3    H134160   1.842   0.978   7.472  0.8902  1.2224 -2.8553
 4175TIP3    H234161   1.866   1.115   7.530 -0.3707 -0.6169  2.6186
 4176TIP3   OH234162   6.028   4.923   2.624 -0.4619  0.9372 -0.1449
 4176TIP3    H134163   6.063   5.008   2.598 -0.6084  1.3554  0.9650
 4176TIP3    H234164   5.962   4.903   2.557 -0.5186  1.7549 -0.3525
 4177TIP3   OH234165   1.251   0.241   0.513  0.3595 -0.6877  0.0686
 4177TIP3    H134166   1.241   0.323   0.465  0.9893 -1.7272 -1.9895
 4177TIP3    H234167   1.290   0.265   0.597 -2.2456  1.4073  0.8024
 4178TIP3   OH234168   6.290   0.436   8.578 -0.2562 -0.0347 -0.4948
 4178TIP3    H134169   6.278   0.494   8.502 -1.7953  1.4957  0.8204
 4178TIP3    H234170   6.263   0.350   8.546 -0.4999  0.4838 -1.7915
 4179TIP3   OH234171   3.872   5.097   1.213 -0.2883 -0.3794  0.0876
 4179TIP3    H134172   3.845   5.152   1.286 -0.3694 -0.5097  0.1566
 4179TIP3    H234173   3.839   5.141   1.135 -2.1674 -1.3748  0.2621
 4180TIP3   OH234174   4.699   1.557   1.537  0.2851  0.1983  0.1121
 4180TIP3    H134175   4.668   1.575   1.448  0.0736  0.9415  0.3343
 4180TIP3    H234176   4.725   1.642   1.572  0.8297 -0.1585  0.5941
 4181TIP3   OH234177   4.524   3.589   0.077  0.6188 -0.2309  0.3449
 4181TIP3    H134178   4.444   3.545   0.048  0.5038 -1.0977  1.8711
 4181TIP3    H234179   4.580   3.592  -0.001 -1.1232  0.9786 -0.9124
 4182TIP3   OH234180   0.379   3.398   0.288  0.3207 -0.0856  0.3316
 4182TIP3    H134181   0.459   3.386   0.339 -0.2012 -2.0215  0.7781
 4182TIP3    H234182   0.394   3.349   0.208  1.0053  2.6773 -1.3465
 4183TIP3   OH234183   6.464   4.609   8.051  0.0161 -0.3996  0.4440
 4183TIP3    H134184   6.376   4.618   8.088 -1.2644 -1.5681 -2.0015
 4183TIP3    H234185   6.458   4.650   7.964  1.6613 -1.1293 -0.0594
 4184TIP3   OH234186   6.026   0.483   2.079  0.4499  0.4079 -0.4689
 4184TIP3    H134187   6.004   0.458   2.169  2.9245 -0.3602  0.0013
 4184TIP3    H234188   6.076   0.564   2.088 -0.5703  1.1586 -1.3169
 4185TIP3   OH234189   2.668   6.370   8.237  0.4200 -0.1893 -0.1698
 4185TIP3    H134190   2.604   6.310   8.199  0.6818 -0.5402 -0.0521
 4185TIP3    H234191   2.660   6.359   8.331  1.0206 -0.6203 -0.1650
 4186TIP3   OH234192   5.504   0.219   7.022 -0.0020  0.1476 -0.3352
 4186TIP3    H134193   5.445   0.273   7.075 -0.6177 -0.3815 -0.4632
 4186TIP3    H234194   5.532   0.276   6.951  0.1749  0.6112  0.1031
 4187TIP3   OH234195   0.310   0.485   6.532 -0.0255 -0.7495  0.5545
 4187TIP3    H134196   0.337   0.515   6.619 -1.3813 -0.4162  0.8832
 4187TIP3    H234197   0.227   0.440   6.547 -0.1827 -0.8554 -0.5486
 4188TIP3   OH234198   0.934   3.113   1.766 -0.3065  0.7572  0.3074
 4188TIP3    H134199   0.883   3.055   1.823  0.3470 -1.1314 -0.9412
 4188TIP3    H234200   0.880   3.123   1.688  0.8971 -0.7835 -0.7796
 4189TIP3   OH234201   2.136   6.158   1.066  0.3851 -0.2166 -0.3906
 4189TIP3    H134202   2.223   6.141   1.030  0.1927 -0.8992 -0.5535
 4189TIP3    H234203   2.117   6.248   1.040  1.2380  0.1159  0.0691
 4190TIP3   OH234204   6.007   3.092   0.534  0.2039 -0.3862 -0.4737
 4190TIP3    H134205   6.045   3.021   0.482 -0.7737 -1.6104  0.4202
 4190TIP3    H234206   6.008   3.168   0.475  3.2088 -0.5399 -0.7659
 4191TIP3   OH234207   4.325   0.374   0.554  0.0115 -0.5485 -0.2773
 4191TIP3    H134208   4.394   0.389   0.488  2.3038 -0.6134  1.9638
 4191TIP3    H234209   4.280   0.458   0.560  0.3845 -0.2536 -1.2333
 4192TIP3   OH234210   0.459   4.824   6.438 -0.6207 -0.4125  0.1507
 4192TIP3    H134211   0.398   4.774   6.383  0.3679  0.5930 -1.9543
 4192TIP3    H234212   0.524   4.859   6.377  0.2378  1.2371  1.9051
 4193TIP3   OH234213   4.132   3.686   7.887 -0.3822  0.4754  1.0963
 4193TIP3    H134214   4.207   3.629   7.873 -0.2394  0.7245  0.8512
 4193TIP3    H234215   4.073   3.667   7.814 -0.0722  1.0599  0.6761
 4194TIP3   OH234216   0.848   2.095   8.507  0.0974  0.5338 -0.0347
 4194TIP3    H134217   0.759   2.079   8.536 -0.2001  0.0715 -1.1558
 4194TIP3    H234218   0.891   2.135   8.583 -0.6704 -0.4791  0.9751
 4195TIP3   OH234219   5.018   0.938   6.595  0.0981  0.0632 -0.4013
 4195TIP3    H134220   4.962   1.012   6.572 -2.0946 -1.4422 -0.2352
 4195TIP3    H234221   5.022   0.885   6.515 -2.2313 -1.9216  0.6660
 4196TIP3   OH234222   4.760   1.030   6.894 -0.2139  0.0102 -0.3096
 4196TIP3    H134223   4.810   0.950   6.879 -1.9844 -1.3560  0.7285
 4196TIP3    H234224   4.711   1.043   6.812 -0.3942 -0.3476 -0.2635
 4197TIP3   OH234225   5.061   3.135   0.937  0.6556  0.0478  0.0445
 4197TIP3    H134226   5.030   3.052   0.900 -1.3769  0.9860 -0.4636
 4197TIP3    H234227   5.060   3.121   1.032 -0.5377 -0.2475  0.0041
 4198TIP3   OH234228   0.911   6.612   1.820  0.2242  0.1728  0.3416
 4198TIP3    H134229   0.866   6.694   1.842  1.5257  1.0245 -0.0438
 4198TIP3    H234230   0.922   6.567   1.904  1.0069  1.2022  0.8058
 4199TIP3   OH234231   0.148   3.590   6.858 -0.1347 -0.1502 -0.0746
 4199TIP3    H134232   0.118   3.655   6.795  4.1935  2.3041 -0.0133
 4199TIP3    H234233   0.106   3.615   6.940 -2.5168 -0.7696 -1.0084
 4200TIP3   OH234234   4.481   5.107   1.456 -0.1665 -0.0365  0.4616
 4200TIP3    H134235   4.487   5.201   1.441  1.0215  0.0408  1.2271
 4200TIP3    H234236   4.428   5.074   1.384 -1.8793  1.4069  1.0051
 4201TIP3   OH234237   1.538   1.250   0.303 -0.3598 -0.2764 -0.1634
 4201TIP3    H134238   1.464   1.256   0.243 -2.0139 -0.2609  1.7717
 4201TIP3    H234239   1.538   1.335   0.348  2.0118  0.4425 -1.3410
 4202TIP3   OH234240   5.407   4.359   8.141 -0.0925 -0.4039  0.0275
 4202TIP3    H134241   5.472   4.385   8.076  0.1492  3.2853  1.4665
 4202TIP3    H234242   5.323   4.379   8.100 -0.2492 -2.5017 -0.7789
 4203TIP3   OH234243   2.258   4.744   7.062  0.6920 -0.4827 -0.1183
 4203TIP3    H134244   2.304   4.670   7.104  0.6712 -0.4057  0.0400
 4203TIP3    H234245   2.322   4.780   7.001  1.1170  0.1247  0.6849
 4204TIP3   OH234246   6.665   3.044   1.969 -0.0850  0.1449  0.3355
 4204TIP3    H134247   6.735   3.110   1.974 -0.5100  0.5575  0.9038
 4204TIP3    H234248   6.652   3.016   2.060  0.5784 -1.2458  0.0237
 4205TIP3   OH234249   3.065   1.364   6.219  0.2364 -0.0148 -0.1634
 4205TIP3    H134250   3.014   1.285   6.199 -0.0096  0.5749 -2.0896
 4205TIP3    H234251   3.156   1.337   6.208  0.3662 -0.7934  2.2528
 4206TIP3   OH234252   6.599   1.546   7.344 -0.7926  0.0577 -0.7847
 4206TIP3    H134253   6.648   1.616   7.388  0.2636 -0.7886 -0.5559
 4206TIP3    H234254   6.533   1.518   7.407 -0.4279  0.0432 -0.4080
 4207TIP3   OH234255   0.279   4.601   6.392  0.0368 -0.1168 -0.2764
 4207TIP3    H134256   0.226   4.524   6.370  0.3732 -0.5557  0.4243
 4207TIP3    H234257   0.343   4.569   6.455 -0.0613  0.8321  0.3207
 4208TIP3   OH234258   5.135   3.963   7.913 -0.2918  0.5917 -0.0309
 4208TIP3    H134259   5.227   3.984   7.894  0.2815 -0.9020  0.9056
 4208TIP3    H234260   5.088   4.045   7.899  1.4925  1.9420  1.4718
 4209TIP3   OH234261   3.288   1.690   6.881  0.2400 -1.0018 -0.6221
 4209TIP3    H134262   3.370   1.679   6.834  1.3124 -1.3068  1.2328
 4209TIP3    H234263   3.233   1.618   6.849  1.1530 -1.5743 -0.9362
 4210TIP3   OH234264   1.292   1.906   6.887 -0.5624  0.0197  0.1771
 4210TIP3    H134265   1.290   1.844   6.814 -4.4788  1.1716 -0.9147
 4210TIP3    H234266   1.305   1.851   6.964 -2.4896 -2.0669 -0.8590
 4211TIP3   OH234267   2.106   2.514   1.293  0.0630 -0.3999 -0.8214
 4211TIP3    H134268   2.131   2.523   1.385 -0.0802 -1.7688 -0.6272
 4211TIP3    H234269   2.011   2.503   1.295 -0.0443  0.4022 -1.2092
 4212TIP3   OH234270   5.363   6.510   1.451  0.4454 -0.1665 -0.2390
 4212TIP3    H134271   5.322   6.579   1.399 -0.2332 -1.2467 -1.1952
 4212TIP3    H234272   5.289   6.458   1.483  0.6285  1.5923  3.6205
 4213TIP3   OH234273   3.120   3.689   6.825  0.9156  0.0518  0.3576
 4213TIP3    H134274   3.078   3.617   6.872 -0.9076 -0.1031 -1.3796
 4213TIP3    H234275   3.132   3.657   6.736  0.9566  1.5378 -0.2148
 4214TIP3   OH234276   2.058   4.695   6.801 -0.9758  0.2357  0.6782
 4214TIP3    H134277   2.009   4.725   6.725 -1.4322  1.5954  1.4830
 4214TIP3    H234278   2.118   4.767   6.821 -1.7063  0.4296  2.3260
 4215TIP3   OH234279   0.630   4.507   0.127 -0.6321  0.1667 -0.0536
 4215TIP3    H134280   0.670   4.594   0.129  0.8964 -0.5188  0.4881
 4215TIP3    H234281   0.617   4.489   0.034 -0.9711  0.9579 -0.1741
 4216TIP3   OH234282   5.420   5.276   8.933 -0.0431  0.0053 -0.2815
 4216TIP3    H134283   5.405   5.268   8.839 -1.3929  1.4545 -0.2284
 4216TIP3    H234284   5.371   5.354   8.959 -0.7476 -1.0505  1.8453
 4217TIP3   OH234285   4.407   4.619   8.856  0.5424 -0.0699 -0.1103
 4217TIP3    H134286   4.454   4.700   8.837  0.6038 -0.4379 -1.6795
 4217TIP3    H234287   4.476   4.552   8.858  0.1948 -0.5353 -1.9305
 4218TIP3   OH234288   5.055   1.119   0.592  0.3598  0.3840 -0.2522
 4218TIP3    H134289   5.046   1.104   0.686  1.0871  2.6076  0.2288
 4218TIP3    H234290   5.074   1.212   0.584 -1.1945  0.5860 -2.7255
 4219TIP3   OH234291   5.643   3.456   1.613 -0.4028 -0.2585 -0.3465
 4219TIP3    H134292   5.716   3.394   1.616 -0.2514 -0.0733 -0.0135
 4219TIP3    H234293   5.608   3.449   1.525  0.8206  0.5405 -0.9363
 4220TIP3   OH234294   2.194   6.273   8.583  0.4599 -0.0006  0.4859
 4220TIP3    H134295   2.280   6.235   8.603  1.0158  0.3093 -1.2249
 4220TIP3    H234296   2.212   6.350   8.530 -0.8301  0.8740  1.2409
 4221TIP3   OH234297   6.729   2.727   1.096 -0.7153  0.1161  0.3668
 4221TIP3    H134298   6.700   2.748   1.185  0.5975 -1.7464  1.3134
 4221TIP3    H234299   6.787   2.799   1.072 -0.5882  0.3419  1.3084
 4222TIP3   OH234300   6.527   5.678   1.737 -0.4990 -0.4627  0.3161
 4222TIP3    H134301   6.526   5.599   1.684  1.9125  0.2423 -0.9055
 4222TIP3    H234302   6.525   5.750   1.673 -0.6598  0.4653  1.3273
 4223TIP3   OH234303   5.047   1.231   1.703 -0.3068 -0.2323  0.0296
 4223TIP3    H134304   4.961   1.197   1.681 -1.6465  2.0621  1.3453
 4223TIP3    H234305   5.048   1.320   1.668  1.6857 -0.2993 -0.2446
 4224TIP3   OH234306   2.174   4.655   8.157 -0.1200  0.2869 -0.1186
 4224TIP3    H134307   2.255   4.630   8.113 -0.9915 -1.0185 -1.0384
 4224TIP3    H234308   2.145   4.576   8.202 -0.6326  0.8745  0.6042
 4225TIP3   OH234309   0.104   5.656   7.375 -0.0051 -0.4750 -0.6677
 4225TIP3    H134310   0.065   5.744   7.373 -2.3606 -1.4236  0.1708
 4225TIP3    H234311   0.137   5.646   7.464 -1.1935 -0.9881 -0.2653
 4226TIP3   OH234312   4.091   4.213   1.027  0.3792 -0.2014  0.2317
 4226TIP3    H134313   4.026   4.257   1.083 -0.2161 -1.9001  0.9268
 4226TIP3    H234314   4.084   4.121   1.050  1.8770 -0.6336 -0.9115
 4227TIP3   OH234315   1.175   6.487   6.750 -0.5024 -0.1793 -0.4199
 4227TIP3    H134316   1.150   6.486   6.657 -0.7770  0.5585 -0.3600
 4227TIP3    H234317   1.243   6.553   6.756  0.5739 -1.2531 -0.3372
 4228TIP3   OH234318   2.876   4.841   1.916  0.3758  0.5061 -0.1116
 4228TIP3    H134319   2.824   4.853   1.837  0.4223 -0.2036 -0.2619
 4228TIP3    H234320   2.843   4.760   1.954  0.6365  0.6245  0.3722
 4229TIP3   OH234321   3.932   3.581   0.110  0.1057  0.4266  0.0704
 4229TIP3    H134322   3.890   3.595   0.025  2.2405  1.7289 -0.8584
 4229TIP3    H234323   3.906   3.656   0.163  1.1870  1.2538 -0.5171
 4230TIP3   OH234324   1.323   5.052   1.331  0.0632 -0.1381  0.2594
 4230TIP3    H134325   1.300   4.975   1.384  0.2320 -1.3981 -1.4078
 4230TIP3    H234326   1.244   5.107   1.334 -0.2856 -0.6531  0.9836
 4231TIP3   OH234327   5.146   1.853   0.199  0.2217 -0.5184  0.3509
 4231TIP3    H134328   5.209   1.848   0.127 -2.0017 -1.4558 -1.6737
 4231TIP3    H234329   5.104   1.938   0.189 -0.2714 -0.7551  0.3969
 4232TIP3   OH234330   2.651   5.504   0.871 -0.1403 -0.4969 -0.2182
 4232TIP3    H134331   2.719   5.571   0.859 -0.4393  0.9502  4.3500
 4232TIP3    H234332   2.675   5.460   0.953 -3.4478 -1.5906  0.2929
 4233TIP3   OH234333   2.404   3.521   2.020  0.2337  0.3508 -0.1222
 4233TIP3    H134334   2.404   3.445   2.078  0.2521 -0.9405 -1.7339
 4233TIP3    H234335   2.321   3.565   2.036 -0.2047 -0.5678  0.1467
 4234TIP3   OH234336   6.513   5.915   2.155  0.4681 -0.1335 -0.1513
 4234TIP3    H134337   6.504   5.851   2.225  1.9698 -0.9669 -0.6736
 4234TIP3    H234338   6.567   5.871   2.089 -1.5293  0.3299 -2.2096
 4235TIP3   OH234339   0.367   4.803   0.938  0.1758  0.1741  0.2879
 4235TIP3    H134340   0.291   4.767   0.984  0.1043  2.7117  2.3484
 4235TIP3    H234341   0.349   4.896   0.931  2.6785  0.6878 -0.0324
 4236TIP3   OH234342   1.180   3.329   2.042 -0.4060  0.2169 -0.5162
 4236TIP3    H134343   1.180   3.338   2.137 -2.0957  1.0706 -0.5485
 4236TIP3    H234344   1.222   3.409   2.010 -1.4776  0.8085 -0.4964
 4237TIP3   OH234345   3.738   3.790   2.586 -0.2078 -0.1787 -0.3609
 4237TIP3    H134346   3.664   3.818   2.533  0.0549  2.3962  0.4472
 4237TIP3    H234347   3.815   3.825   2.540  0.2026  0.0338  0.4596
 4238TIP3   OH234348   4.644   0.627   1.218 -0.8131 -0.3515  0.4134
 4238TIP3    H134349   4.712   0.568   1.186 -0.7775  0.5013 -1.1608
 4238TIP3    H234350   4.563   0.577   1.211 -0.7517 -0.3185 -0.6958
 4239TIP3   OH234351   5.010   3.077   2.013  0.6654  0.2798 -0.2500
 4239TIP3    H134352   5.012   3.001   1.956 -2.0689 -0.2289  0.1575
 4239TIP3    H234353   5.071   3.139   1.974  1.1000 -1.1729 -1.9949
 4240TIP3   OH234354   2.874   3.305   0.910  0.2725 -0.2304  0.2481
 4240TIP3    H134355   2.863   3.213   0.934  1.5779 -0.7941 -1.1496
 4240TIP3    H234356   2.785   3.336   0.892  0.0004 -2.0241 -1.9374
 4241TIP3   OH234357   1.204   0.691   1.675 -0.2511 -0.2828  0.2581
 4241TIP3    H134358   1.267   0.751   1.636 -0.1852 -0.5549 -0.0647
 4241TIP3    H234359   1.126   0.699   1.620  0.1451 -1.3255 -0.4815
 4242TIP3   OH234360   2.454   3.588   7.554  0.0077 -0.5106  0.2475
 4242TIP3    H134361   2.487   3.518   7.498  0.8906 -0.7909  1.0816
 4242TIP3    H234362   2.369   3.556   7.584  0.3801 -1.2247  0.5838
 4243TIP3   OH234363   6.727   4.814   1.547 -0.3221 -0.7216  0.3503
 4243TIP3    H134364   6.663   4.869   1.592 -0.9240 -1.0525 -0.0988
 4243TIP3    H234365   6.794   4.797   1.614  0.1616  0.9714  0.3554
 4244TIP3   OH234366   2.958   1.879   1.914 -0.0934  0.6083  0.0314
 4244TIP3    H134367   2.916   1.815   1.972 -0.9805  1.6944  0.6147
 4244TIP3    H234368   2.930   1.852   1.826 -1.2417  0.7380  0.3395
 4245TIP3   OH234369   4.825   2.051   7.584 -0.7688 -0.5434 -0.2899
 4245TIP3    H134370   4.813   1.980   7.520  0.0369 -0.8992 -0.0621
 4245TIP3    H234371   4.806   2.010   7.668 -1.0715 -0.2771 -0.2269
 4246TIP3   OH234372   6.014   6.042   8.964 -0.8865 -0.8102  0.2914
 4246TIP3    H134373   6.081   6.083   9.019  0.0090  0.2093 -1.4707
 4246TIP3    H234374   6.054   5.961   8.934 -0.4678 -0.2901 -0.6114
 4247TIP3   OH234375   2.979   4.832   7.360 -0.1883  0.1917  0.1688
 4247TIP3    H134376   2.903   4.857   7.413 -0.0001  0.5071  0.2925
 4247TIP3    H234377   3.054   4.856   7.414  0.0024 -0.2523  0.1104
 4248TIP3   OH234378   2.553   1.147   1.399  0.7127  0.3336 -0.3270
 4248TIP3    H134379   2.580   1.093   1.325  1.2276  0.9130 -0.5707
 4248TIP3    H234380   2.470   1.186   1.373 -0.6920 -1.8417  0.6140
 4249TIP3   OH234381   3.139   6.191   8.826  0.0713 -0.4533  0.4986
 4249TIP3    H134382   3.117   6.101   8.802  1.7975 -1.0645  1.0483
 4249TIP3    H234383   3.141   6.190   8.922 -0.8371  0.4348  0.5450
 4250TIP3   OH234384   5.526   0.581   2.639 -0.0519  0.1167 -0.2227
 4250TIP3    H134385   5.508   0.675   2.649  1.5520  0.2683  2.1655
 4250TIP3    H234386   5.580   0.560   2.715 -1.2629 -2.9981 -0.0995
 4251TIP3   OH234387   6.295   1.466   0.015 -0.2469 -0.2408 -0.2136
 4251TIP3    H134388   6.270   1.382   0.052 -0.0310 -0.4463 -0.5325
 4251TIP3    H234389   6.376   1.448  -0.034 -0.2134  0.1425 -0.3019
 4252TIP3   OH234390   0.170   3.198   0.469 -0.5692 -0.5285 -0.6903
 4252TIP3    H134391   0.142   3.135   0.403  1.3812 -1.3529 -0.8036
 4252TIP3    H234392   0.236   3.251   0.425 -0.2517 -0.1812  0.1840
 4253TIP3   OH234393   1.594   0.338   1.236 -0.1518 -0.3056  0.4457
 4253TIP3    H134394   1.514   0.309   1.279 -1.1077  1.5142 -0.0148
 4253TIP3    H234395   1.629   0.406   1.294  1.4123 -1.4744  0.9418
 4254TIP3   OH234396   2.173   3.578   7.600  0.1604  1.0848  0.3592
 4254TIP3    H134397   2.194   3.565   7.692  0.3778  1.5609  0.3817
 4254TIP3    H234398   2.081   3.552   7.592  0.7460 -1.1879  0.2255
 4255TIP3   OH234399   0.784   1.272   7.731 -0.0046  0.3769 -0.2194
 4255TIP3    H134400   0.814   1.195   7.683 -0.6966  0.6786 -1.1698
 4255TIP3    H234401   0.865   1.316   7.759  0.3976 -0.6911  0.3697
 4256TIP3   OH234402   5.802   2.481   0.740  0.0580  0.0744 -0.1270
 4256TIP3    H134403   5.834   2.571   0.747  1.3542 -0.4096  0.5071
 4256TIP3    H234404   5.873   2.427   0.775 -1.3145 -1.0879  1.0462
 4257TIP3   OH234405   1.147   6.768   1.157 -0.3916  0.7510  0.2119
 4257TIP3    H134406   1.158   6.862   1.166 -0.0687  0.5604  2.1764
 4257TIP3    H234407   1.236   6.734   1.147 -0.4833  0.6155 -0.1681
 4258TIP3   OH234408   2.465   4.898   6.100  0.1179  0.1224 -0.2169
 4258TIP3    H134409   2.470   4.931   6.010 -1.5035  0.1777 -0.3241
 4258TIP3    H234410   2.521   4.820   6.099  1.3668  0.9946 -0.8374
 4259TIP3   OH234411   4.451   0.043   8.476  0.1140  0.5533 -0.1148
 4259TIP3    H134412   4.363   0.080   8.486  0.2852  1.0450 -0.3897
 4259TIP3    H234413   4.483   0.030   8.565  0.0312  1.0238 -0.0148
 4260TIP3   OH234414   1.106   0.266   6.819 -0.4817  0.1428 -0.2474
 4260TIP3    H134415   1.093   0.234   6.730 -1.1206 -2.3024  0.6536
 4260TIP3    H234416   1.124   0.188   6.871  1.6591  1.6682  1.5163
 4261TIP3   OH234417   5.978   2.927   1.775  0.2748  0.2796 -0.2324
 4261TIP3    H134418   5.957   2.920   1.868  0.6909 -0.4431 -0.1822
 4261TIP3    H234419   5.913   2.872   1.732 -0.0747  0.8130 -0.4026
 4262TIP3   OH234420   2.706   2.713   1.616 -0.3859 -0.5891 -0.1559
 4262TIP3    H134421   2.618   2.712   1.577 -0.2262 -0.6188 -0.5143
 4262TIP3    H234422   2.717   2.803   1.648 -1.2216 -1.0146  1.4321
 4263TIP3   OH234423   2.059   2.075   0.134  0.1541 -0.2135  0.0744
 4263TIP3    H134424   2.145   2.074   0.177  0.4851  0.6623 -0.5445
 4263TIP3    H234425   2.078   2.058   0.042 -0.3873 -0.4393  0.0008
 4264TIP3   OH234426   1.634   1.930   1.440  0.2852 -0.8075  0.5992
 4264TIP3    H134427   1.564   1.903   1.381  0.7044  1.1729 -0.9153
 4264TIP3    H234428   1.607   2.017   1.470  1.4268 -0.6166  1.1139
 4265TIP3   OH234429   2.497   0.502   1.603 -0.0173  0.4018  0.1681
 4265TIP3    H134430   2.447   0.450   1.540 -0.1234  0.6474  0.0450
 4265TIP3    H234431   2.538   0.438   1.661 -2.4450  0.2275  1.8359
 4266TIP3   OH234432   5.885   2.860   2.048  0.6010 -0.0525  0.5447
 4266TIP3    H134433   5.958   2.904   2.090  1.4057 -1.7560  1.0205
 4266TIP3    H234434   5.884   2.772   2.087 -0.7619 -0.5593 -0.5367
 4267TIP3   OH234435   5.431   5.739   1.623  0.1820  0.1685  0.0032
 4267TIP3    H134436   5.472   5.825   1.637  2.0435 -0.8112  0.8717
 4267TIP3    H234437   5.339   5.753   1.647  0.7108  1.6179  1.3936
 4268TIP3   OH234438   5.275   5.089   2.622 -0.1669 -0.6302 -0.0843
 4268TIP3    H134439   5.367   5.100   2.598 -0.5901 -0.2099 -1.7023
 4268TIP3    H234440   5.227   5.135   2.552 -1.5665  0.2539  1.3911
 4269TIP3   OH234441   0.924   0.556   8.954  0.7259 -0.8710 -0.1400
 4269TIP3    H134442   1.017   0.538   8.970  1.0948  0.9365 -0.0055
 4269TIP3    H234443   0.894   0.601   9.033  0.0313 -0.4505 -0.6289
 4270TIP3   OH234444   6.386   3.546   1.477  0.3145 -0.6188  0.3379
 4270TIP3    H134445   6.402   3.504   1.562 -0.5774  1.2311  1.5054
 4270TIP3    H234446   6.291   3.543   1.467  0.3935 -0.5418 -0.4595
 4271TIP3   OH234447   6.345   4.098   7.525  0.4382  0.2003 -0.1571
 4271TIP3    H134448   6.419   4.061   7.572  0.4658  0.4100 -0.0341
 4271TIP3    H234449   6.334   4.042   7.449 -1.1488 -1.6492  1.3317
 4272TIP3   OH234450   2.651   2.199   0.252  0.5320 -0.5998 -0.2067
 4272TIP3    H134451   2.588   2.239   0.192 -1.9288 -1.7249  1.4683
 4272TIP3    H234452   2.668   2.266   0.318  1.8987  0.0238 -1.1337
 4273TIP3   OH234453   3.741   6.070   8.711 -0.6095 -0.4490 -0.1245
 4273TIP3    H134454   3.772   5.995   8.762  1.5429 -0.3491 -1.1690
 4273TIP3    H234455   3.647   6.055   8.699 -0.1127 -3.4210 -1.0072
 4274TIP3   OH234456   6.329   4.950   1.372  0.1074 -0.2622  0.5475
 4274TIP3    H134457   6.245   4.986   1.345  0.9955  0.5199 -1.3276
 4274TIP3    H234458   6.368   5.018   1.427 -1.6121 -1.7727  3.9491
 4275TIP3   OH234459   1.275   4.285   6.185  0.2050 -0.2272  0.1163
 4275TIP3    H134460   1.348   4.234   6.219  0.2460  0.4418  1.0664
 4275TIP3    H234461   1.315   4.365   6.151 -0.1079  0.3026  0.9667
 4276TIP3   OH234462   2.554   2.344   8.543 -0.8904 -0.2066  0.0123
 4276TIP3    H134463   2.510   2.344   8.458  0.2319  1.0997 -0.6174
 4276TIP3    H234464   2.629   2.286   8.532 -0.9619 -0.3461  0.2435
 4277TIP3   OH234465   4.060   3.676   1.064 -0.0287  0.5070  0.4789
 4277TIP3    H134466   4.112   3.625   1.001  0.0799  1.0755  0.1069
 4277TIP3    H234467   4.114   3.752   1.084 -1.0802  1.5815 -0.6199
 4278TIP3   OH234468   6.515   6.536   7.069  0.5779 -0.3890 -0.0143
 4278TIP3    H134469   6.432   6.517   7.113 -0.3556  1.3463 -0.9140
 4278TIP3    H234470   6.568   6.580   7.135  0.4566 -0.7334  0.3170
 4279TIP3   OH234471   0.515   2.722   7.219 -0.4442  0.7025 -0.2528
 4279TIP3    H134472   0.458   2.653   7.252 -0.4046  0.5494 -0.5004
 4279TIP3    H234473   0.489   2.733   7.127  2.1588 -1.7527 -1.4273
 4280TIP3   OH234474   1.943   6.222   1.765 -0.5151  0.1908 -0.0550
 4280TIP3    H134475   1.964   6.251   1.676 -1.1096 -0.5837 -0.4646
 4280TIP3    H234476   2.017   6.166   1.789 -0.6336 -0.0786 -0.3025
 4281TIP3   OH234477   4.358   6.691   7.599 -0.0049  0.1694  0.0784
 4281TIP3    H134478   4.339   6.767   7.655 -0.8288  0.4549 -0.5599
 4281TIP3    H234479   4.320   6.617   7.646 -0.3701  0.3519  0.0757
 4282TIP3   OH234480   0.123   0.582   8.883 -0.1148  0.3854  0.1030
 4282TIP3    H134481   0.208   0.544   8.860  0.0993  1.0013 -0.1569
 4282TIP3    H234482   0.061   0.539   8.824 -0.0355 -0.2836  0.4955
 4283TIP3   OH234483   1.578   0.981   8.524  0.3507  0.2934  0.2262
 4283TIP3    H134484   1.662   1.007   8.485  0.4902  0.1435  0.4224
 4283TIP3    H234485   1.573   0.887   8.506  0.2439  0.2949  0.2512
 4284TIP3   OH234486   2.327   3.228   1.196  0.6348  0.1321  0.2074
 4284TIP3    H134487   2.316   3.133   1.192  0.8817  0.1286 -0.6677
 4284TIP3    H234488   2.420   3.240   1.216  0.1966  0.1910  2.3859
 4285TIP3   OH234489   0.788   1.834   0.742  0.6980 -0.0250 -0.5326
 4285TIP3    H134490   0.870   1.838   0.791  0.6520 -0.1822 -0.4426
 4285TIP3    H234491   0.720   1.848   0.808  0.5695 -1.3835 -0.3411
 4286TIP3   OH234492   0.545   3.474   7.173  0.7188 -0.0228  0.5736
 4286TIP3    H134493   0.558   3.434   7.087  2.8210 -0.6313  1.1314
 4286TIP3    H234494   0.532   3.567   7.154  2.0594  0.0002 -0.3814
 4287TIP3   OH234495   3.431   1.727   0.554  0.3964 -0.5585  0.1269
 4287TIP3    H134496   3.340   1.732   0.525  0.0799 -0.3617  1.1109
 4287TIP3    H234497   3.470   1.809   0.523 -0.0032 -0.2291  0.4837
 4288TIP3   OH234498   6.048   3.579   8.392 -0.0422  0.4875  0.0064
 4288TIP3    H134499   6.129   3.547   8.433 -0.1525  1.1556  0.7879
 4288TIP3    H234500   6.007   3.500   8.356 -0.4082 -0.3300  2.0450
 4289TIP3   OH234501   3.716   5.246   2.030  0.2599 -0.4317  0.5960
 4289TIP3    H134502   3.727   5.199   1.947  0.6891  0.5999  0.0494
 4289TIP3    H234503   3.806   5.257   2.063  0.2907  1.0271  0.1128
 4290TIP3   OH234504   1.757   3.575   8.625 -0.6064 -0.1531 -0.3383
 4290TIP3    H134505   1.849   3.557   8.606 -0.0729  0.8602  1.0584
 4290TIP3    H234506   1.720   3.491   8.654 -0.3777 -0.7632 -1.7743
 4291TIP3   OH234507   4.200   5.365   0.352 -0.1534  0.4996  0.0162
 4291TIP3    H134508   4.202   5.454   0.318 -0.0356  0.6025  0.2895
 4291TIP3    H234509   4.111   5.334   0.333  0.0868  0.3557 -0.8785
 4292TIP3   OH234510   3.197   6.595   0.154  0.7936 -0.6763  0.0048
 4292TIP3    H134511   3.268   6.550   0.108  2.1840  0.6715  0.7590
 4292TIP3    H234512   3.152   6.645   0.086  1.5822 -0.2794 -0.2366
 4293TIP3   OH234513   1.710   5.426   2.456  0.6046  0.1914  0.0312
 4293TIP3    H134514   1.802   5.443   2.437  1.1396 -1.5806  0.8371
 4293TIP3    H234515   1.687   5.351   2.401 -0.2100  0.2674  0.2488
 4294TIP3   OH234516   4.033   3.796   7.602 -0.0476  0.4265 -0.2282
 4294TIP3    H134517   4.073   3.770   7.520 -1.1998  1.6692 -1.2270
 4294TIP3    H234518   4.092   3.863   7.637  0.1929  0.2396 -0.2733
 4295TIP3   OH234519   4.650   5.955   1.932  0.0046  0.2102 -0.2471
 4295TIP3    H134520   4.635   6.048   1.912  1.1731  0.3284 -0.6348
 4295TIP3    H234521   4.616   5.945   2.021  1.3712  1.4429  0.4758
 4296TIP3   OH234522   0.709   0.483   6.760 -0.1066 -0.1706  0.0518
 4296TIP3    H134523   0.742   0.499   6.849 -0.8504  2.3192 -0.0504
 4296TIP3    H234524   0.712   0.388   6.751 -1.0982 -0.6296  3.1693
 4297TIP3   OH234525   0.773   1.709   8.522  0.1760 -0.2838  0.0797
 4297TIP3    H134526   0.813   1.622   8.516 -0.1712 -0.3811 -0.9876
 4297TIP3    H234527   0.682   1.696   8.499  0.1307  0.3795 -0.1399
 4298TIP3   OH234528   1.269   4.184   1.549  0.6983  0.7823 -0.1051
 4298TIP3    H134529   1.191   4.132   1.572  1.8502  0.0751  2.5948
 4298TIP3    H234530   1.236   4.273   1.540 -0.5766  0.3640  0.1172
 4299TIP3   OH234531   3.332   1.251   6.223  0.0163 -0.3221  0.1031
 4299TIP3    H134532   3.310   1.163   6.254  0.3766 -0.1627  0.8280
 4299TIP3    H234533   3.411   1.239   6.171  0.1074 -0.4191  0.2636
 4300TIP3   OH234534   4.596   6.216   8.038  0.2446  0.2108 -0.2672
 4300TIP3    H134535   4.656   6.228   8.111  0.8863  0.7178 -0.8618
 4300TIP3    H234536   4.510   6.239   8.073  0.4712 -0.0068  0.4466
 4301TIP3   OH234537   6.229   1.959   8.237  0.3780  0.1946  0.0601
 4301TIP3    H134538   6.193   1.870   8.233 -0.6732  0.6241 -0.4003
 4301TIP3    H234539   6.229   1.980   8.331 -0.7108  0.2264  0.0632
 4302TIP3   OH234540   3.797   4.191   2.107 -0.1565 -0.1933  0.3239
 4302TIP3    H134541   3.846   4.267   2.139 -1.3164  0.3687  0.8230
 4302TIP3    H234542   3.749   4.159   2.184  0.0438 -1.2275  0.0381
 4303TIP3   OH234543   2.393   0.037   1.881  0.4115  0.3296  0.0272
 4303TIP3    H134544   2.391   0.116   1.936 -4.8712  0.6425 -0.1072
 4303TIP3    H234545   2.371   0.068   1.794  2.7306 -0.9121 -1.0799
 4304TIP3   OH234546   1.136   1.030   6.604 -0.2187 -0.7363  0.7015
 4304TIP3    H134547   1.162   0.967   6.537 -2.0217  0.4924 -1.2660
 4304TIP3    H234548   1.049   1.060   6.577 -0.8664  0.1092  3.4137
 4305TIP3   OH234549   6.464   2.321   8.985 -0.0182  0.2637 -0.2153
 4305TIP3    H134550   6.518   2.272   8.923  0.4385  2.2464 -1.4798
 4305TIP3    H234551   6.449   2.405   8.943  0.4229  1.7834  2.4176
 4306TIP3   OH234552   6.667   0.893   0.729  0.3708 -0.3536 -0.1966
 4306TIP3    H134553   6.728   0.966   0.729 -0.5976  0.4865 -0.4189
 4306TIP3    H234554   6.602   0.917   0.796 -0.5436 -0.4864 -1.0150
 4307TIP3   OH234555   2.100   2.750   8.114  0.0101 -0.3881 -0.3995
 4307TIP3    H134556   2.012   2.777   8.141 -0.3069  0.4108 -2.1045
 4307TIP3    H234557   2.157   2.821   8.144  0.1789 -1.1364  1.1396
 4308TIP3   OH234558   2.238   0.803   1.052  0.0468  0.3558 -0.3385
 4308TIP3    H134559   2.258   0.710   1.061 -1.9801 -0.4427 -2.8347
 4308TIP3    H234560   2.188   0.824   1.131  0.1950 -0.7546  0.0729
 4309TIP3   OH234561   4.978   5.642   1.200  0.3598  0.6391 -0.2980
 4309TIP3    H134562   4.924   5.700   1.253  1.5105  1.8714 -0.3970
 4309TIP3    H234563   5.031   5.701   1.147  0.8511 -0.5368 -1.1635
 4310TIP3   OH234564   3.859   4.061   7.762 -0.2192  0.4552  0.6338
 4310TIP3    H134565   3.875   3.977   7.804  1.4334  0.8471  0.8433
 4310TIP3    H234566   3.931   4.117   7.790 -0.1011  1.3049 -1.2087
 4311TIP3   OH234567   3.065   0.167   0.160  0.6773  0.1485  0.4276
 4311TIP3    H134568   3.025   0.209   0.237 -1.2478 -1.4520  0.3604
 4311TIP3    H234569   3.044   0.226   0.087  0.1347  0.2996  0.7014
 4312TIP3   OH234570   2.381   5.764   8.978 -0.2905  0.1768 -0.0652
 4312TIP3    H134571   2.307   5.762   9.038 -0.9309 -1.3063 -0.8362
 4312TIP3    H234572   2.401   5.857   8.967 -1.1832  0.5376  1.1759
 4313TIP3   OH234573   4.687   0.261   1.244  0.7632 -0.0206  0.0633
 4313TIP3    H134574   4.620   0.308   1.194  0.4247  0.1378  0.6538
 4313TIP3    H234575   4.657   0.266   1.335  0.8443 -1.1922  0.1661
 4314TIP3   OH234576   5.527   6.573   2.698  0.7029 -0.0825  0.1813
 4314TIP3    H134577   5.434   6.576   2.723  0.5535  0.0292 -0.3848
 4314TIP3    H234578   5.529   6.610   2.610  1.3862  0.6199  0.4821
 4315TIP3   OH234579   3.965   6.368   2.235  0.3857  0.2884 -0.1708
 4315TIP3    H134580   4.033   6.310   2.202 -0.4553 -0.0309 -1.4234
 4315TIP3    H234581   3.964   6.442   2.174 -0.6760  0.0721 -0.4361
 4316TIP3   OH234582   6.584   1.696   8.362 -0.7915 -0.0755 -0.5688
 4316TIP3    H134583   6.553   1.659   8.444  2.3294 -1.4874  0.1265
 4316TIP3    H234584   6.571   1.791   8.371 -1.5446 -0.3078  1.0494
 4317TIP3   OH234585   1.870   4.020   8.570  0.3634  0.3092  0.1167
 4317TIP3    H134586   1.904   3.953   8.510 -0.3322 -1.4140  1.5678
 4317TIP3    H234587   1.942   4.036   8.631 -0.0956 -0.5222  0.8929
 4318TIP3   OH234588   1.760   2.920   7.222  0.3532 -0.3564 -0.2934
 4318TIP3    H134589   1.823   2.990   7.242  1.4533 -0.8031 -1.9904
 4318TIP3    H234590   1.782   2.850   7.283 -0.3261  0.4981  0.9723
 4319TIP3   OH234591   3.591   0.302   7.686  0.1943 -0.2423 -0.4321
 4319TIP3    H134592   3.613   0.393   7.669  1.5208 -0.6459 -1.0606
 4319TIP3    H234593   3.529   0.304   7.758 -1.4215  1.2733 -1.7738
 4320TIP3   OH234594   0.396   4.682   8.757  0.0996  0.1506  0.5791
 4320TIP3    H134595   0.401   4.595   8.797  0.4006 -0.3337 -0.4770
 4320TIP3    H234596   0.487   4.705   8.737 -0.0912  0.1157 -0.3678
 4321TIP3   OH234597   6.686   6.424   8.322 -0.2202  0.3123  0.3729
 4321TIP3    H134598   6.738   6.427   8.402 -0.3325 -2.2601  0.6203
 4321TIP3    H234599   6.747   6.392   8.256 -0.8685 -0.3693  0.1024
 4322TIP3   OH234600   6.721   3.130   7.487  0.2467  0.6013  0.0252
 4322TIP3    H134601   6.657   3.187   7.529 -2.0508 -1.2782 -0.6953
 4322TIP3    H234602   6.674   3.048   7.473  2.3436 -0.3621 -2.0427
 4323TIP3   OH234603   4.257   4.999   0.748  0.5740  0.6026 -0.5881
 4323TIP3    H134604   4.351   4.987   0.741  0.9243  0.2652  2.9356
 4323TIP3    H234605   4.221   4.955   0.670  3.1427 -2.3430 -0.2979
 4324TIP3   OH234606   0.841   2.584   8.652 -0.2826 -0.4255 -0.4211
 4324TIP3    H134607   0.851   2.527   8.575 -2.1631 -1.5816  0.1202
 4324TIP3    H234608   0.822   2.670   8.615 -0.9321 -0.9134 -1.2719
 4325TIP3   OH234609   4.736   2.820   8.676  0.4617 -0.1710  0.0322
 4325TIP3    H134610   4.757   2.815   8.769  0.9083  0.3312 -0.0410
 4325TIP3    H234611   4.785   2.895   8.644 -0.5266  0.3076 -0.3887
 4326TIP3   OH234612   2.588   3.438   7.382 -0.2586  0.4982 -0.0682
 4326TIP3    H134613   2.674   3.397   7.392  0.1711  1.2910 -0.4389
 4326TIP3    H234614   2.598   3.497   7.308 -1.7866 -1.1136 -1.6698
 4327TIP3   OH234615   4.883   3.841   7.776 -0.0611  0.4833 -0.0456
 4327TIP3    H134616   4.848   3.874   7.692 -0.9555  0.8191  0.4451
 4327TIP3    H234617   4.967   3.886   7.786 -1.0725  2.3837  0.4106
 4328TIP3   OH234618   6.437   6.094   1.904  0.5620 -0.3708 -0.2093
 4328TIP3    H134619   6.405   6.005   1.919  3.5525 -1.6509 -0.7310
 4328TIP3    H234620   6.442   6.134   1.991 -2.5324  0.0330 -0.1277
 4329TIP3   OH234621   5.837   5.275   7.804  0.1388  0.1464 -0.5487
 4329TIP3    H134622   5.748   5.304   7.820  0.4628  0.4515  0.8749
 4329TIP3    H234623   5.892   5.338   7.851  0.9794 -1.4274  0.7069
 4330TIP3   OH234624   5.132   2.741   8.555 -0.9656 -0.2117 -0.7760
 4330TIP3    H134625   5.179   2.782   8.628 -2.9721  0.1669  0.3991
 4330TIP3    H234626   5.172   2.777   8.477 -0.5302  1.5367  0.1927
 4331TIP3   OH234627   2.252   6.516   8.441 -0.2407  0.2028  0.0314
 4331TIP3    H134628   2.257   6.611   8.427 -1.3269  0.3167  0.3414
 4331TIP3    H234629   2.344   6.488   8.448  0.0886  1.2526  0.1234
 4332TIP3   OH234630   1.841   6.137   7.418  0.2015  0.0068  0.3894
 4332TIP3    H134631   1.931   6.134   7.451  1.4852  1.3594 -2.5487
 4332TIP3    H234632   1.835   6.061   7.360  0.7289  1.6738 -2.0154
 4333TIP3   OH234633   5.763   6.748   7.961 -0.6428  0.0431 -0.0890
 4333TIP3    H134634   5.801   6.778   7.878  1.0555  0.3366  0.7373
 4333TIP3    H234635   5.818   6.674   7.987 -0.8159  0.2753  1.0111
 4334TIP3   OH234636   2.377   3.044   0.857 -0.1280  0.9169  0.1266
 4334TIP3    H134637   2.327   2.964   0.873  0.3550  0.5390 -0.2391
 4334TIP3    H234638   2.448   3.041   0.921 -1.3943  2.2051  1.6905
 4335TIP3   OH234639   0.320   0.123   7.117  0.4323  0.1228  0.2846
 4335TIP3    H134640   0.333   0.031   7.143  0.5717 -0.0596 -0.4216
 4335TIP3    H234641   0.294   0.167   7.198 -0.8609 -0.7876  0.4017
 4336TIP3   OH234642   4.241   4.999   8.617 -0.5196 -0.4415 -0.3268
 4336TIP3    H134643   4.240   4.949   8.698 -1.2618 -1.2256 -0.7992
 4336TIP3    H234644   4.149   5.009   8.594 -0.3659  0.8234 -0.4516
 4337TIP3   OH234645   2.023   1.651   7.998  0.3897 -0.2543 -0.5129
 4337TIP3    H134646   2.110   1.690   7.995 -0.4022  1.6123 -0.6246
 4337TIP3    H234647   2.027   1.589   8.071  1.8148 -0.2583 -0.5607
 4338TIP3   OH234648   1.400   3.534   8.779  0.3943 -0.0898 -0.0652
 4338TIP3    H134649   1.376   3.626   8.769 -1.7018 -0.6710 -0.8401
 4338TIP3    H234650   1.396   3.497   8.691  0.8851 -1.0148  0.2750
 4339TIP3   OH234651   6.533   1.996   1.583 -0.1190  0.3758  0.2144
 4339TIP3    H134652   6.447   1.982   1.541 -0.1648 -0.0440  0.4375
 4339TIP3    H234653   6.590   2.022   1.511 -0.1732 -0.4354 -0.1398
 4340TIP3   OH234654   5.953   2.105   1.052 -0.0536  0.3910  0.2192
 4340TIP3    H134655   6.000   2.022   1.049  0.9009  0.9327 -1.0857
 4340TIP3    H234656   5.861   2.081   1.064  0.5752 -0.6517  4.0452
 4341TIP3   OH234657   4.190   1.768   0.130  0.2586  0.2960 -0.2037
 4341TIP3    H134658   4.120   1.832   0.116  1.0081  1.5895  1.4623
 4341TIP3    H234659   4.177   1.737   0.220  0.8868 -0.6631 -0.4261
 4342TIP3   OH234660   3.560   3.866   0.305 -0.1402 -0.0989  0.3259
 4342TIP3    H134661   3.505   3.871   0.227 -0.7296  4.1749  0.7880
 4342TIP3    H234662   3.511   3.811   0.366 -2.4990  1.1583 -0.3469
 4343TIP3   OH234663   3.291   0.851   7.525 -0.0157  0.0473  0.2639
 4343TIP3    H134664   3.386   0.861   7.532  0.2050 -2.4169  2.8089
 4343TIP3    H234665   3.270   0.780   7.586 -3.1812 -1.4196 -2.2224
 4344TIP3   OH234666   4.570   5.314   6.905  0.7646  0.3960  0.5224
 4344TIP3    H134667   4.584   5.398   6.862  2.8862 -0.1840 -0.0431
 4344TIP3    H234668   4.526   5.335   6.987  1.2861  2.0473  0.3982
 4345TIP3   OH234669   4.568   0.368   0.381  0.6122  0.4362  0.3383
 4345TIP3    H134670   4.616   0.302   0.330  0.5446  1.0866 -0.5963
 4345TIP3    H234671   4.574   0.448   0.328  0.8222  1.2298  1.5169
 4346TIP3   OH234672   4.987   3.617   1.698  0.4099 -0.0394 -0.0684
 4346TIP3    H134673   4.999   3.653   1.786 -0.4577 -0.0712  0.0661
 4346TIP3    H234674   4.904   3.571   1.702  0.8556 -0.9069 -0.6269
 4347TIP3   OH234675   0.152   6.709   2.549 -0.4621  0.0024  0.2599
 4347TIP3    H134676   0.063   6.724   2.516  0.4490  2.3936 -1.3940
 4347TIP3    H234677   0.154   6.755   2.633 -0.4275  1.1354 -0.3443
 4348TIP3   OH234678   1.372   4.092   6.554  0.3120  0.3344 -0.0220
 4348TIP3    H134679   1.343   4.001   6.558 -0.8395  0.7160  1.7779
 4348TIP3    H234680   1.403   4.104   6.465 -0.0825 -1.6461 -0.4702
 4349TIP3   OH234681   2.851   5.693   0.816 -0.0574  0.2198 -0.0040
 4349TIP3    H134682   2.927   5.662   0.767  0.8598  0.9695  0.9063
 4349TIP3    H234683   2.880   5.696   0.907 -1.3527  0.0195  0.4384
 4350TIP3   OH234684   4.958   3.320   2.438 -0.1779 -0.0283  0.4067
 4350TIP3    H134685   5.044   3.281   2.454  0.3855 -0.0968 -2.2975
 4350TIP3    H234686   4.975   3.414   2.432 -0.6312  0.1513  1.5400
 4351TIP3   OH234687   0.404   0.103   0.392 -0.9399 -0.0464  0.0456
 4351TIP3    H134688   0.436   0.116   0.303 -1.0496 -0.4892 -0.0639
 4351TIP3    H234689   0.335   0.169   0.403  0.5827  1.5103  0.5934
 4352TIP3   OH234690   1.830   6.740   7.789  0.3725  0.1049 -0.6577
 4352TIP3    H134691   1.812   6.824   7.747  0.6989  1.0889  1.0937
 4352TIP3    H234692   1.745   6.710   7.821  0.4232  0.2523 -0.3911
 4353TIP3   OH234693   1.567   5.252   6.302  0.1352  0.4651 -0.4813
 4353TIP3    H134694   1.615   5.274   6.382  1.1813  0.9537 -1.2182
 4353TIP3    H234695   1.550   5.336   6.261 -1.3218  0.2894 -0.2758
 4354TIP3   OH234696   3.146   2.393   0.582  0.0123 -0.2035 -0.0199
 4354TIP3    H134697   3.052   2.382   0.571 -0.0473  0.5021 -0.3022
 4354TIP3    H234698   3.174   2.440   0.503  0.4799  0.2164  0.3844
 4355TIP3   OH234699   6.730   2.425   6.928 -0.2702  0.3753  0.2691
 4355TIP3    H134700   6.643   2.387   6.924  0.6250 -1.8252  0.0764
 4355TIP3    H234701   6.753   2.445   6.837  0.3467 -1.3988  0.0015
 4356TIP3   OH234702   1.222   2.834   1.626  0.6450 -0.0975 -0.3208
 4356TIP3    H134703   1.135   2.856   1.592  0.3110 -1.2870 -0.3019
 4356TIP3    H234704   1.216   2.850   1.720  1.1168  1.8111 -0.5849
 4357TIP3   OH234705   1.845   2.250   1.300  0.1635  0.1085  0.4819
 4357TIP3    H134706   1.850   2.342   1.325 -0.7859  0.3092 -0.0537
 4357TIP3    H234707   1.776   2.214   1.354  0.2943 -0.2117  0.4389
 4358TIP3   OH234708   0.853   0.973   8.167 -0.3655 -0.1326 -0.3027
 4358TIP3    H134709   0.919   0.959   8.235 -0.8770  3.1144  1.0348
 4358TIP3    H234710   0.777   0.924   8.196 -0.1451  0.1733  0.8211
 4359TIP3   OH234711   4.497   5.165   0.627 -0.3558  0.0817 -0.2166
 4359TIP3    H134712   4.525   5.077   0.649  1.0355  0.0423 -1.9088
 4359TIP3    H234713   4.452   5.156   0.543 -1.7646  0.7842  0.4138
 4360TIP3   OH234714   0.089   2.863   8.282 -0.1269 -0.1599 -0.0163
 4360TIP3    H134715  -0.002   2.889   8.290  0.0852  1.1139 -1.3457
 4360TIP3    H234716   0.110   2.823   8.366 -2.2681 -1.7116 -0.1369
 4361TIP3   OH234717   3.612   2.517   1.135  0.3048 -1.6232  0.6518
 4361TIP3    H134718   3.694   2.545   1.094 -1.4791  1.2042 -1.3422
 4361TIP3    H234719   3.562   2.479   1.063 -1.5365  0.2016  0.8793
 4362TIP3   OH234720   0.622   6.141   6.900  0.4841 -0.4710 -0.2864
 4362TIP3    H134721   0.582   6.119   6.816 -1.1049  0.9200  0.0456
 4362TIP3    H234722   0.701   6.189   6.878  0.2637 -0.4158 -0.9841
 4363TIP3   OH234723   5.589   1.888   1.551 -0.3713 -0.6052  1.1385
 4363TIP3    H134724   5.543   1.907   1.632 -0.3297 -0.5129  1.1403
 4363TIP3    H234725   5.569   1.796   1.533 -0.5936 -0.5531  1.1154
 4364TIP3   OH234726   0.908   6.595   2.288 -0.1494  0.3621 -0.3562
 4364TIP3    H134727   0.954   6.573   2.207 -0.6156 -1.2159 -0.2284
 4364TIP3    H234728   0.874   6.683   2.273  0.5524  0.4562 -1.5087
 4365TIP3   OH234729   1.951   1.793   1.893 -0.0047 -0.1651  0.4765
 4365TIP3    H134730   1.952   1.699   1.876 -0.1100 -0.0136 -0.4489
 4365TIP3    H234731   2.009   1.829   1.826  0.7291  0.3456  1.3801
 4366TIP3   OH234732   6.267   1.715   7.442  0.4361  0.4168  0.3215
 4366TIP3    H134733   6.286   1.641   7.498  1.1362 -0.6198 -1.2267
 4366TIP3    H234734   6.282   1.683   7.353 -0.1920  2.1248 -0.4515
 4367TIP3   OH234735   1.149   6.004   8.212  0.2374  0.3659 -0.8797
 4367TIP3    H134736   1.058   6.018   8.240  0.5625 -0.0642  0.4698
 4367TIP3    H234737   1.144   6.002   8.116 -1.5145 -1.6986 -0.8291
 4368TIP3   OH234738   3.561   4.045   7.518 -0.3150 -0.0483 -0.2268
 4368TIP3    H134739   3.479   4.000   7.535  0.2991 -0.2938  2.5109
 4368TIP3    H234740   3.615   3.980   7.472 -1.0557 -0.4884 -0.4822
 4369TIP3   OH234741   3.426   2.356   8.988 -0.0350 -0.0116 -0.3519
 4369TIP3    H134742   3.498   2.408   8.952  0.3596 -0.4110 -0.1463
 4369TIP3    H234743   3.429   2.274   8.939  0.8828 -0.8034  0.9685
 4370TIP3   OH234744   0.735   2.299   1.212  0.0453 -0.0259 -0.5252
 4370TIP3    H134745   0.647   2.261   1.207  0.6701 -1.7576  0.6398
 4370TIP3    H234746   0.723   2.380   1.261 -0.8574 -0.4926  0.0609
 4371TIP3   OH234747   2.653   4.469   8.115 -0.0008 -0.5464 -0.4872
 4371TIP3    H134748   2.645   4.381   8.151  1.1655 -0.7557 -0.6900
 4371TIP3    H234749   2.713   4.459   8.041  1.1151  0.6282  0.2298
 4372TIP3   OH234750   3.356   6.183   8.565 -0.4086  0.3251 -0.6363
 4372TIP3    H134751   3.306   6.104   8.542  2.9678 -2.4274  0.5158
 4372TIP3    H234752   3.381   6.221   8.481 -1.1815 -0.4491 -1.2344
 4373TIP3   OH234753   3.085   0.788   0.278  0.4222  0.1803  0.0088
 4373TIP3    H134754   3.131   0.707   0.255 -1.1789 -1.2368  1.4986
 4373TIP3    H234755   3.115   0.852   0.213  2.0078 -1.5010 -1.0089
 4374TIP3   OH234756   2.408   0.839   0.841  0.3520  0.0588 -0.0343
 4374TIP3    H134757   2.338   0.842   0.907 -0.0784  1.3923 -0.5288
 4374TIP3    H234758   2.488   0.825   0.892 -0.1559 -0.5846  0.6130
 4375TIP3   OH234759   2.134   2.745   1.148  0.0490  0.0519 -0.0823
 4375TIP3    H134760   2.126   2.650   1.140 -0.7194  0.0128  0.9936
 4375TIP3    H234761   2.044   2.776   1.161  0.1889  1.0214 -1.1902
 4376TIP3   OH234762   0.812   6.465   8.100  0.0082  0.4895  0.2252
 4376TIP3    H134763   0.818   6.457   8.005  1.3090  0.2356  0.3210
 4376TIP3    H234764   0.762   6.387   8.128 -3.2540  2.1331 -0.4841
 4377TIP3   OH234765   3.274   1.197   1.656  0.0088 -0.2051  0.1521
 4377TIP3    H134766   3.228   1.260   1.600  0.4987  1.2774  1.3175
 4377TIP3    H234767   3.208   1.171   1.721 -0.4407 -1.6036 -0.8267
 4378TIP3   OH234768   4.211   0.348   0.916  0.2199  0.2576 -0.0766
 4378TIP3    H134769   4.144   0.280   0.919 -0.3737  0.2626 -5.2490
 4378TIP3    H234770   4.163   0.430   0.918  0.5503  0.4455  1.0401
 4379TIP3   OH234771   2.952   4.842   8.902 -0.0165  0.2582 -0.2104
 4379TIP3    H134772   2.992   4.756   8.920  2.5489  0.8233 -2.5288
 4379TIP3    H234773   2.974   4.895   8.978  3.6648  0.4439 -1.2280
 4380TIP3   OH234774   0.076   2.715   7.733 -0.1475  0.1084  0.2840
 4380TIP3    H134775   0.147   2.765   7.693  0.2694  0.2297  1.1515
 4380TIP3    H234776   0.107   2.697   7.822 -0.4541 -1.3770  0.1060
 4381TIP3   OH234777   4.765   1.188   1.714 -1.0396 -0.0643 -0.2042
 4381TIP3    H134778   4.729   1.157   1.797 -2.3993 -0.6069 -0.9710
 4381TIP3    H234779   4.746   1.282   1.714  2.4275  0.8566  1.7815
 4382TIP3   OH234780   5.401   4.721   1.656  0.0377 -0.0584 -0.9284
 4382TIP3    H134781   5.331   4.656   1.656 -0.0410 -0.0207  0.8967
 4382TIP3    H234782   5.394   4.764   1.741  2.8948 -0.7771 -0.2183
 4383TIP3   OH234783   0.544   1.781   6.497  0.4969  0.0327  0.3322
 4383TIP3    H134784   0.565   1.810   6.408 -0.5437  0.5214  0.2313
 4383TIP3    H234785   0.463   1.730   6.487  0.3872  0.0687  0.9882
 4384TIP3   OH234786   3.723   5.725   1.550  0.5540  0.2470  0.0662
 4384TIP3    H134787   3.763   5.763   1.472  1.9404  0.0667  0.6624
 4384TIP3    H234788   3.788   5.738   1.619 -0.1467 -0.6635  0.9251
 4385TIP3   OH234789   3.290   5.352   0.301 -0.0366 -0.2608 -0.3680
 4385TIP3    H134790   3.197   5.343   0.321 -0.2877 -1.4884 -1.8693
 4385TIP3    H234791   3.292   5.379   0.209  1.0926 -1.3166 -0.6763
 4386TIP3   OH234792   5.170   0.608   1.288 -0.1627  0.1136 -0.4175
 4386TIP3    H134793   5.218   0.578   1.366 -3.3471 -0.2511  1.6149
 4386TIP3    H234794   5.184   0.539   1.223  1.1125 -0.4994  0.4665
 4387TIP3   OH234795   5.132   3.035   2.574 -0.2500 -0.5270 -0.4122
 4387TIP3    H134796   5.172   3.038   2.487 -0.1699  0.5298 -0.3428
 4387TIP3    H234797   5.041   3.010   2.557 -0.4775  0.5733 -0.8928
 4388TIP3   OH234798   5.288   0.224   1.831 -0.1780  0.5194 -0.2182
 4388TIP3    H134799   5.208   0.268   1.805 -0.1721  1.2882  0.9780
 4388TIP3    H234800   5.269   0.131   1.824 -2.1920  0.5728  2.7316
 4389TIP3   OH234801   2.008   1.702   0.951  0.1643 -0.5607 -0.2780
 4389TIP3    H134802   1.925   1.749   0.946 -1.1363 -2.5777  0.6732
 4389TIP3    H234803   2.069   1.763   0.993 -0.9755  0.7621 -0.4958
 4390TIP3   OH234804   3.633   1.821   0.878 -0.0755  0.4655 -0.3102
 4390TIP3    H134805   3.711   1.864   0.844  0.0480 -0.5375 -1.3416
 4390TIP3    H234806   3.579   1.893   0.912  1.0461  1.2119 -0.0724
 4391TIP3   OH234807   1.873   0.373   8.247  0.0635 -0.2272  0.2974
 4391TIP3    H134808   1.904   0.305   8.307  3.5724  1.7516  1.0239
 4391TIP3    H234809   1.918   0.354   8.164  0.5491  0.7740  0.3163
 4392TIP3   OH234810   5.517   4.210   1.726  0.1638  0.3571 -0.2945
 4392TIP3    H134811   5.609   4.190   1.741  0.0214  0.5646  0.9646
 4392TIP3    H234812   5.478   4.209   1.813 -1.2328 -0.7201 -0.8829
 4393TIP3   OH234813   1.314   4.125   0.732 -0.1719  0.4719  0.2484
 4393TIP3    H134814   1.331   4.216   0.755 -1.6310  0.4275  1.6822
 4393TIP3    H234815   1.304   4.080   0.817 -1.8539 -0.5320 -0.4360
 4394TIP3   OH234816   5.938   3.797   7.104  0.0133 -0.0258 -0.7971
 4394TIP3    H134817   5.987   3.862   7.155  0.5116 -0.4066 -0.7734
 4394TIP3    H234818   5.996   3.720   7.102 -2.1799 -2.0173  2.6837
 4395TIP3   OH234819   1.147   2.904   0.896 -0.4017  0.9114  0.1608
 4395TIP3    H134820   1.187   2.850   0.829 -1.2387  0.3489  0.0894
 4395TIP3    H234821   1.220   2.946   0.941  0.1575  1.5193 -1.2731
 4396TIP3   OH234822   3.085   2.921   8.936 -0.1032  0.0817  0.1987
 4396TIP3    H134823   3.032   2.980   8.883 -0.6602 -1.3029 -0.8482
 4396TIP3    H234824   3.141   2.979   8.987  0.0339  1.5101 -1.4698
 4397TIP3   OH234825   6.305   4.176   8.944  0.2444  0.5114 -0.5183
 4397TIP3    H134826   6.388   4.132   8.929  1.0074  1.5420  0.5356
 4397TIP3    H234827   6.305   4.198   9.037 -2.1585 -1.3277  0.0131
 4398TIP3   OH234828   4.331   4.107   0.859  0.3517  0.1767  0.0851
 4398TIP3    H134829   4.319   4.071   0.771 -0.4470 -3.7636  1.5796
 4398TIP3    H234830   4.244   4.141   0.882 -0.2480 -1.4089  0.3045
 4399TIP3   OH234831   2.640   5.694   1.230 -0.0558 -0.0073  0.3755
 4399TIP3    H134832   2.562   5.744   1.250  0.2274  1.4480 -1.7948
 4399TIP3    H234833   2.680   5.675   1.315 -1.5970  1.1141  1.3914
 4400TIP3   OH234834   1.702   2.690   8.399 -0.4764 -0.3431 -0.4143
 4400TIP3    H134835   1.711   2.602   8.437  2.1740 -0.0321 -0.1315
 4400TIP3    H234836   1.719   2.749   8.473  0.8636  0.3343 -1.2370
 4401TIP3   OH234837   1.316   2.539   8.790  0.5166 -0.2871  0.8693
 4401TIP3    H134838   1.304   2.552   8.885 -0.5447 -1.1144  0.8649
 4401TIP3    H234839   1.228   2.516   8.758  1.1073 -1.2155 -0.1191
 4402TIP3   OH234840   0.280   3.506   8.558 -0.2012 -0.4987  0.5232
 4402TIP3    H134841   0.237   3.542   8.636  1.9863 -0.4867  1.8133
 4402TIP3    H234842   0.247   3.559   8.486 -1.7614 -0.0358  1.5257
 4403TIP3   OH234843   4.159   1.339   8.637 -0.0967  0.1538 -0.4574
 4403TIP3    H134844   4.159   1.246   8.658 -0.4785 -0.2567 -2.1187
 4403TIP3    H234845   4.251   1.364   8.641  0.0115 -0.3041 -0.0261
 4404TIP3   OH234846   4.323   1.368   2.104  0.2278 -0.1874 -0.2809
 4404TIP3    H134847   4.289   1.408   2.024 -1.6733  1.3585  1.1935
 4404TIP3    H234848   4.248   1.324   2.143  0.7403  0.3331  1.3738
 4405TIP3   OH234849   1.288   4.234   8.356  0.0534 -0.1980 -0.0099
 4405TIP3    H134850   1.267   4.276   8.273 -1.7394  3.0098  1.8830
 4405TIP3    H234851   1.221   4.166   8.365  0.9363 -1.3606 -1.5804
 4406TIP3   OH234852   0.003   5.300   7.952 -0.3916 -0.1947 -0.1933
 4406TIP3    H134853  -0.039   5.220   7.984 -0.0286 -0.1667  0.3666
 4406TIP3    H234854   0.073   5.317   8.015  0.9431 -0.6300 -1.5125
 4407TIP3   OH234855   1.917   6.670   7.523  0.6131 -0.2690 -0.5136
 4407TIP3    H134856   1.928   6.575   7.516  1.9786 -0.1460 -0.1515
 4407TIP3    H234857   1.880   6.684   7.611 -0.5721 -0.5185 -0.9481
 4408TIP3   OH234858   0.281   6.121   0.313 -0.0732 -0.2176 -0.1965
 4408TIP3    H134859   0.324   6.190   0.264 -0.5159  0.6258  0.5726
 4408TIP3    H234860   0.270   6.050   0.250 -1.1087  1.0137 -1.4616
 4409TIP3   OH234861   4.779   3.594   0.990  0.5125  0.3364  0.0703
 4409TIP3    H134862   4.806   3.599   0.898  1.8773  1.0922  0.4862
 4409TIP3    H234863   4.855   3.626   1.039  0.3190 -1.2944  1.5486
 4410TIP3   OH234864   0.370   2.254   1.736  0.0413 -0.6082  0.3786
 4410TIP3    H134865   0.458   2.261   1.698 -0.1923 -1.6512 -0.4264
 4410TIP3    H234866   0.321   2.204   1.671 -0.9307 -0.7082  1.1748
 4411TIP3   OH234867   3.070   4.051   0.674 -0.2218 -0.6605 -0.0373
 4411TIP3    H134868   3.005   4.120   0.688 -1.6704 -2.2553  1.3604
 4411TIP3    H234869   3.020   3.975   0.646  1.5236 -0.7052 -3.8239
 4412TIP3   OH234870   5.384   5.981   7.577 -0.0564 -1.2655  0.5693
 4412TIP3    H134871   5.337   6.050   7.530 -0.5229 -3.3289 -2.2773
 4412TIP3    H234872   5.427   6.026   7.650 -3.7681  1.2795  1.4653
 4413TIP3   OH234873   3.773   5.012   8.125 -0.6360 -0.1107  0.0629
 4413TIP3    H134874   3.862   5.032   8.152 -1.0414 -0.1788  1.5449
 4413TIP3    H234875   3.759   4.921   8.154 -0.1583 -1.2968 -2.9801
 4414TIP3   OH234876   2.430   5.000   0.281 -0.1259 -0.2674 -0.3202
 4414TIP3    H134877   2.379   4.932   0.325 -0.1019 -0.4803 -0.6134
 4414TIP3    H234878   2.418   4.982   0.187  1.2691 -0.9247 -0.4042
 4415TIP3   OH234879   4.470   0.929   0.125 -0.5787 -0.0012 -0.3045
 4415TIP3    H134880   4.403   0.864   0.103 -2.1654  0.4482  2.6696
 4415TIP3    H234881   4.522   0.888   0.194  0.5901  0.6382 -0.7790
 4416TIP3   OH234882   0.582   3.118   7.994  0.1549  0.2777  0.4672
 4416TIP3    H134883   0.612   3.203   7.962  1.9308  0.0376  1.3728
 4416TIP3    H234884   0.491   3.133   8.021 -0.0496  1.4865 -0.7737
 4417TIP3   OH234885   0.288   1.890   7.300 -0.1807  0.3863  0.4246
 4417TIP3    H134886   0.297   1.900   7.395 -0.6033  0.3449  0.4748
 4417TIP3    H234887   0.307   1.977   7.264  1.4497  0.0547  0.4216
 4418TIP3   OH234888   5.414   0.090   1.170  0.3790  0.5416 -0.3308
 4418TIP3    H134889   5.503   0.074   1.139 -0.2835  1.9606 -3.3417
 4418TIP3    H234890   5.420   0.172   1.219  1.0324 -0.4668  1.3548
 4419TIP3   OH234891   2.876   0.426   8.133  0.3694 -0.0040 -0.0413
 4419TIP3    H134892   2.819   0.493   8.095 -0.8756 -0.4161  1.0410
 4419TIP3    H234893   2.865   0.436   8.228  0.1398 -1.7321  0.1487
 4420TIP3   OH234894   3.429   6.182   8.933  0.3813 -0.4142 -0.4310
 4420TIP3    H134895   3.457   6.092   8.913  1.3267  0.0865 -1.4834
 4420TIP3    H234896   3.379   6.209   8.856 -0.2786 -0.1817  0.0731
 4421TIP3   OH234897   2.267   1.160   2.031  0.1372  0.2230  0.4676
 4421TIP3    H134898   2.209   1.094   2.069 -0.5305  0.2332 -0.5183
 4421TIP3    H234899   2.233   1.243   2.064  0.5576  0.1317  1.1513
 4422TIP3   OH234900   6.265   6.601   7.450 -0.5474  0.2694 -0.2506
 4422TIP3    H134901   6.227   6.593   7.362 -1.0626  1.1347 -0.1173
 4422TIP3    H234902   6.359   6.596   7.435 -0.6603 -0.7543 -0.7144
 4423TIP3   OH234903   4.667   4.895   0.490 -0.1179  0.7886  0.3772
 4423TIP3    H134904   4.708   4.980   0.473 -1.5864  1.7401  1.3253
 4423TIP3    H234905   4.655   4.893   0.585 -0.7525 -0.1727  0.2898
 4424TIP3   OH234906   5.836   5.989   7.600 -0.1432 -0.0515 -0.5670
 4424TIP3    H134907   5.812   6.070   7.555 -1.0699  1.7391  2.7997
 4424TIP3    H234908   5.932   5.991   7.603 -0.1568  1.6275  0.4474
 4425TIP3   OH234909   6.583   5.640   1.233  0.0414 -0.0096  0.0566
 4425TIP3    H134910   6.505   5.692   1.252 -0.7861 -1.0121 -0.4537
 4425TIP3    H234911   6.553   5.574   1.171  1.3237 -0.3807 -0.2014
 4426TIP3   OH234912   5.316   5.751   7.901  1.0417  0.0694  0.3295
 4426TIP3    H134913   5.307   5.727   7.809 -0.5254 -0.4429  0.5887
 4426TIP3    H234914   5.373   5.685   7.938  1.3185  0.0227 -0.1727
 4427TIP3   OH234915   3.021   3.754   1.676 -0.3689 -0.4140 -0.3098
 4427TIP3    H134916   3.104   3.748   1.628 -0.7034 -1.4157 -0.7891
 4427TIP3    H234917   2.971   3.820   1.628  0.4637  0.8459  0.4961
 4428TIP3   OH234918   0.025   2.294   1.022 -0.0787 -0.1817 -0.1188
 4428TIP3    H134919   0.043   2.348   0.946 -5.8980  0.3664 -1.5931
 4428TIP3    H234920   0.004   2.208   0.986 -4.3718  0.4490  0.3127
 4429TIP3   OH234921   4.727   0.164   0.256 -0.3875 -1.0247 -0.1331
 4429TIP3    H134922   4.789   0.162   0.183 -1.0902 -2.0476 -0.7290
 4429TIP3    H234923   4.781   0.180   0.333  0.4823 -0.8746 -0.7594
 4430TIP3   OH234924   5.095   1.441   8.564 -0.2278 -0.1131  0.5418
 4430TIP3    H134925   5.122   1.371   8.623  1.8297 -0.9610 -1.2808
 4430TIP3    H234926   5.115   1.522   8.611 -0.4896 -0.7298  1.7545
 4431TIP3   OH234927   4.594   0.208   7.548 -0.1312 -0.0050  0.1485
 4431TIP3    H134928   4.616   0.298   7.573  2.9041 -0.4785 -0.3627
 4431TIP3    H234929   4.537   0.177   7.618 -0.2158  1.9345  0.9899
 4432TIP3   OH234930   6.184   6.202   0.415 -0.5150  0.0019 -0.5293
 4432TIP3    H134931   6.263   6.209   0.361  0.4961 -1.9189  0.5443
 4432TIP3    H234932   6.159   6.110   0.408 -1.1099 -0.0033  1.2071
 4433TIP3   OH234933   2.078   2.663   6.294  0.5675  0.3019  0.8720
 4433TIP3    H134934   2.166   2.697   6.278  0.6146  0.0243  0.5223
 4433TIP3    H234935   2.084   2.570   6.270  0.1835  0.2790  0.8609
 4434TIP3   OH234936   4.478   0.534   0.831  0.0013 -0.4158 -0.1754
 4434TIP3    H134937   4.570   0.560   0.833  0.1199 -0.6364  3.0507
 4434TIP3    H234938   4.430   0.616   0.822  0.5211  0.0648  1.0858
 4435TIP3   OH234939   1.177   0.086   8.871 -0.6322 -0.0466 -0.2123
 4435TIP3    H134940   1.235   0.162   8.868 -0.5324 -0.1315 -0.5025
 4435TIP3    H234941   1.236   0.011   8.872 -0.7304 -0.1173  0.1692
 4436TIP3   OH234942   6.126   3.437   1.550  0.3568 -0.0254  0.1046
 4436TIP3    H134943   6.158   3.376   1.616 -0.3818  0.7932  1.2766
 4436TIP3    H234944   6.071   3.499   1.599 -0.3866  0.5025 -1.3124
 4437TIP3   OH234945   5.768   2.854   7.458  0.6089 -0.0384  0.1178
 4437TIP3    H134946   5.771   2.764   7.427  0.0550  0.1798 -0.5981
 4437TIP3    H234947   5.742   2.905   7.381  0.9437  0.7363  0.5043
 4438TIP3   OH234948   5.210   6.327   1.555  0.1349 -0.2406  0.3599
 4438TIP3    H134949   5.151   6.253   1.544  2.0158 -1.4658 -2.4513
 4438TIP3    H234950   5.281   6.293   1.609  1.0621 -0.5876 -1.0365
 4439TIP3   OH234951   3.937   5.565   0.725 -0.8844 -0.4190  1.0056
 4439TIP3    H134952   3.901   5.654   0.717 -2.7781 -1.2276 -0.0419
 4439TIP3    H234953   4.012   5.565   0.666 -2.6055 -0.3158 -1.2855
 4440TIP3   OH234954   6.188   4.553   8.087 -0.0966 -0.5055  0.4227
 4440TIP3    H134955   6.170   4.624   8.026 -0.7389 -1.2861 -0.3199
 4440TIP3    H234956   6.139   4.576   8.166  2.6096  1.7313  1.6415
 4441TIP3   OH234957   3.135   0.723   8.186 -0.1420 -0.3274  0.0961
 4441TIP3    H134958   3.215   0.736   8.134 -0.6332 -0.1141 -0.6143
 4441TIP3    H234959   3.069   0.777   8.143 -1.6106 -3.1294 -1.4635
 4442TIP3   OH234960   3.714   1.067   0.992 -0.3304 -0.0806 -0.5149
 4442TIP3    H134961   3.663   1.145   1.015  0.2422  0.1924 -0.1493
 4442TIP3    H234962   3.805   1.095   0.998 -0.1360 -0.4334 -1.6442
 4443TIP3   OH234963   5.477   4.598   2.365  0.3052  0.6942 -0.2887
 4443TIP3    H134964   5.557   4.583   2.415 -0.6431  1.4798  1.5674
 4443TIP3    H234965   5.433   4.512   2.365  0.8666  0.3954 -0.8557
 4444TIP3   OH234966   3.560   6.191   0.158  0.5961  0.8398 -0.3298
 4444TIP3    H134967   3.566   6.097   0.143  1.2500  0.7257  0.5846
 4444TIP3    H234968   3.505   6.223   0.086 -0.5834 -0.3969 -0.0305
 4445TIP3   OH234969   0.582   3.758   8.857  0.1157 -0.4006  0.2295
 4445TIP3    H134970   0.666   3.799   8.877  0.3880 -0.5404 -0.5937
 4445TIP3    H234971   0.556   3.715   8.938  0.8505 -0.3690  0.4841
 4446TIP3   OH234972   1.346   0.270   1.302  0.6264  0.3565  0.3323
 4446TIP3    H134973   1.350   0.336   1.371  1.6508  0.4101  0.2385
 4446TIP3    H234974   1.269   0.293   1.251 -0.8843 -0.3863  2.1528
 4447TIP3   OH234975   1.697   2.219   7.807 -0.0993  0.6189 -0.1322
 4447TIP3    H134976   1.771   2.232   7.867  0.1166  1.5149 -0.5780
 4447TIP3    H234977   1.620   2.222   7.864  0.1788  0.0660  0.2823
 4448TIP3   OH234978   4.860   2.557   7.189 -0.4455 -0.3008  0.5396
 4448TIP3    H134979   4.811   2.489   7.142  1.6938 -1.0716 -0.7284
 4448TIP3    H234980   4.933   2.510   7.228  0.0233  1.0097  1.2737
 4449TIP3   OH234981   6.752   0.622   7.030 -0.5590  0.0653 -0.1185
 4449TIP3    H134982   6.781   0.652   6.944 -2.0432  2.1664  0.0533
 4449TIP3    H234983   6.796   0.681   7.092  0.6764 -1.5615  0.6620
 4450TIP3   OH234984   3.693   6.677   7.019  0.4287 -0.1092 -0.2223
 4450TIP3    H134985   3.723   6.728   7.095  0.6657 -1.4267  0.6038
 4450TIP3    H234986   3.679   6.589   7.054 -0.0127 -0.6029 -1.6031
 4451TIP3   OH234987   0.536   0.096   7.748  0.4303  0.3934  0.0427
 4451TIP3    H134988   0.530   0.091   7.652  0.0056 -0.5921  0.1126
 4451TIP3    H234989   0.456   0.141   7.774 -0.7049 -1.5291  0.0804
 4452TIP3   OH234990   6.684   6.040   7.652  0.3760  0.0713  0.2708
 4452TIP3    H134991   6.642   5.966   7.607 -0.7041  0.6919  0.2272
 4452TIP3    H234992   6.692   6.108   7.585  1.7403 -0.1284  0.2028
 4453TIP3   OH234993   6.129   5.041   8.168  0.1393 -0.1172  0.7917
 4453TIP3    H134994   6.049   5.026   8.117  0.7514 -0.6206 -0.0382
 4453TIP3    H234995   6.151   4.956   8.204 -0.5754  0.3309  2.3740
 4454TIP3   OH234996   3.176   1.978   7.258  0.4446 -0.0362  0.9920
 4454TIP3    H134997   3.144   1.888   7.246  2.3367 -0.8533  1.7310
 4454TIP3    H234998   3.103   2.024   7.300 -2.0664 -0.1014 -2.7711
 4455TIP3   OH234999   5.872   4.304   8.091 -0.5073  0.3296 -0.7295
 4455TIP3    H135000   5.790   4.296   8.043 -0.5265 -1.1129 -0.4952
 4455TIP3    H235001   5.921   4.372   8.044 -1.6431  0.8903 -1.1301
 4456TIP3   OH235002   3.749   0.809   1.083 -0.2437 -0.2262  0.0766
 4456TIP3    H135003   3.720   0.876   1.021  1.8255  1.4126  0.7427
 4456TIP3    H235004   3.669   0.783   1.130 -1.2493  1.1459 -0.8106
 4457TIP3   OH235005   0.413   0.123   0.846  0.1115 -0.1067  0.7978
 4457TIP3    H135006   0.367   0.169   0.915  0.4470 -0.0681  0.9941
 4457TIP3    H235007   0.403   0.030   0.868 -1.5028 -0.2047 -0.1790
 4458TIP3   OH235008   6.034   3.677   8.823 -0.6150 -0.0667  0.5179
 4458TIP3    H135009   6.113   3.627   8.799  0.4071  0.9810  1.5420
 4458TIP3    H235010   5.964   3.639   8.770  0.7105 -0.5838 -0.9240
 4459TIP3   OH235011   6.236   5.823   8.826  0.1787 -0.1574 -0.0549
 4459TIP3    H135012   6.208   5.757   8.889  0.0166  0.6005  0.6884
 4459TIP3    H235013   6.199   5.794   8.743 -0.1644 -0.8261  0.3216
 4460TIP3   OH235014   4.072   1.251   8.003  0.0784 -0.5254 -0.4734
 4460TIP3    H135015   4.085   1.161   7.975 -1.8920 -1.3631  1.1076
 4460TIP3    H235016   4.008   1.287   7.941 -0.4133 -0.7533 -0.0989
 4461TIP3   OH235017   3.205   0.182   0.808  0.0640 -0.2635  0.1735
 4461TIP3    H135018   3.253   0.105   0.775 -0.6387 -0.7336  0.2267
 4461TIP3    H235019   3.270   0.231   0.858 -0.1208 -2.4234  2.7909
 4462TIP3   OH235020   2.834   1.018   8.696 -0.3048 -0.4214  0.3265
 4462TIP3    H135021   2.820   1.097   8.644 -1.8840  0.1647  1.5807
 4462TIP3    H235022   2.838   1.049   8.787 -0.5778 -1.7405  0.8170
 4463TIP3   OH235023   6.507   3.280   7.591 -0.1289 -0.2389  0.0280
 4463TIP3    H135024   6.429   3.293   7.645  0.5612  0.8604  0.7859
 4463TIP3    H235025   6.472   3.244   7.509 -1.2860 -1.0008  0.8161
 4464TIP3   OH235026   3.505   2.008   0.450 -0.4498 -0.6982  0.1736
 4464TIP3    H135027   3.505   2.046   0.362 -1.0122 -0.7390  0.1574
 4464TIP3    H235028   3.584   2.044   0.491  1.6403 -3.0786 -1.3827
 4465TIP3   OH235029   2.374   2.079   1.317  0.1432  0.8097  0.0454
 4465TIP3    H135030   2.281   2.069   1.338  0.5802  2.3716  3.4073
 4465TIP3    H235031   2.404   2.151   1.373  3.3514  0.5534 -1.1046
 4466TIP3   OH235032   6.035   5.977   0.533  0.1885  0.1826  0.0505
 4466TIP3    H135033   5.949   6.018   0.520 -0.1195 -0.2371  0.7465
 4466TIP3    H235034   6.026   5.889   0.495  0.3321  0.1570  0.0746
 4467TIP3   OH235035   6.681   4.602   8.542 -0.4976 -0.3918  0.3592
 4467TIP3    H135036   6.626   4.651   8.481 -0.3816  1.1722  1.4541
 4467TIP3    H235037   6.630   4.599   8.623  0.5638  0.1560  1.0739
 4468TIP3   OH235038   4.829   2.565   8.608 -0.0856  0.2679  0.1965
 4468TIP3    H135039   4.806   2.551   8.516 -0.4423  0.0046  0.3218
 4468TIP3    H235040   4.785   2.647   8.632  0.0350  0.3539  0.1231
 4469TIP3   OH235041   6.518   3.483   7.921  0.1732 -0.3345  0.0871
 4469TIP3    H135042   6.551   3.440   8.000  1.0879  2.0628  1.1318
 4469TIP3    H235043   6.456   3.421   7.884 -0.1427 -1.6625  2.5803
 4470TIP3   OH235044   4.645   4.389   8.367 -0.0507 -0.1840  0.3601
 4470TIP3    H135045   4.641   4.308   8.316 -0.9645 -0.9877  1.6464
 4470TIP3    H235046   4.596   4.453   8.315 -1.9335 -1.2762  0.6839
 4471TIP3   OH235047   0.574   0.543   8.984  0.2132 -0.3287 -0.4370
 4471TIP3    H135048   0.656   0.528   8.938  0.1326 -0.4433 -0.5441
 4471TIP3    H235049   0.568   0.638   8.992  0.3879 -0.3226 -0.3708
 4472TIP3   OH235050   1.118   6.532   7.782 -0.0565  0.1793  0.3787
 4472TIP3    H135051   1.048   6.577   7.735 -0.3929 -0.1894  0.5151
 4472TIP3    H235052   1.106   6.556   7.874  0.1047  0.2580  0.3796
 4473TIP3   OH235053   5.882   1.872   7.147  0.0151  0.7058 -0.2531
 4473TIP3    H135054   5.875   1.802   7.212  0.1184  0.4269 -0.5401
 4473TIP3    H235055   5.843   1.835   7.067  1.2671  0.4902 -0.7838
 4474TIP3   OH235056   1.830   0.535   6.647  0.4876  0.4602 -0.6450
 4474TIP3    H135057   1.894   0.540   6.577  1.5011 -1.3677  0.0981
 4474TIP3    H235058   1.880   0.509   6.725 -0.8037  1.1735  0.4761
 4475TIP3   OH235059   6.133   0.920   0.151 -0.1267  0.2793  0.0575
 4475TIP3    H135060   6.070   0.860   0.191 -0.2610  0.7912  0.6355
 4475TIP3    H235061   6.185   0.952   0.225  1.1703 -0.5202 -0.4560
 4476TIP3   OH235062   5.946   6.514   8.104  0.4052 -0.2638 -0.5084
 4476TIP3    H135063   6.035   6.528   8.137  0.0422  1.3832 -0.1419
 4476TIP3    H235064   5.890   6.557   8.169 -0.5758 -0.2598 -1.3443
 4477TIP3   OH235065   2.800   5.067   8.585  0.3455 -0.5379 -0.1848
 4477TIP3    H135066   2.798   4.983   8.540  0.7826 -0.3067 -0.6424
 4477TIP3    H235067   2.890   5.077   8.614  0.1375 -0.5428  0.4904
 4478TIP3   OH235068   0.136   3.511   1.036 -0.3767  0.4103  0.1366
 4478TIP3    H135069   0.070   3.580   1.028  0.0138  0.8112  0.3506
 4478TIP3    H235070   0.113   3.465   1.116 -2.1182 -1.2995 -1.2456
 4479TIP3   OH235071   5.996   2.203   8.888 -0.1839  0.2076 -0.4281
 4479TIP3    H135072   5.993   2.277   8.948  0.5790 -0.1880  0.1157
 4479TIP3    H235073   6.035   2.132   8.939 -1.4840 -0.7678 -0.7327
 4480TIP3   OH235074   3.769   3.158   2.215  0.1894  0.2976  0.2846
 4480TIP3    H135075   3.747   3.242   2.255  1.8827  1.2794 -0.7279
 4480TIP3    H235076   3.730   3.162   2.127  1.0424  0.4148 -0.0926
 4481TIP3   OH235077   5.776   5.740   7.912  0.3533  0.5114 -0.5013
 4481TIP3    H135078   5.703   5.769   7.966 -0.1299 -1.8452  0.2049
 4481TIP3    H235079   5.854   5.773   7.957 -0.1799  2.3411 -0.8284
 4482TIP3   OH235080   5.342   1.933   8.227 -0.1790  0.0246  0.0924
 4482TIP3    H135081   5.326   1.877   8.302 -0.2189 -1.4699 -0.9784
 4482TIP3    H235082   5.256   1.968   8.204 -0.1324  0.6523  0.8477
 4483TIP3   OH235083   1.640   4.666   1.931 -0.3316  0.2405  0.1658
 4483TIP3    H135084   1.618   4.574   1.937 -0.3644  0.0712 -1.9111
 4483TIP3    H235085   1.721   4.668   1.880 -0.5403  1.3742 -0.1500
 4484TIP3   OH235086   6.166   1.153   2.462 -0.4112  0.1405 -0.1409
 4484TIP3    H135087   6.214   1.111   2.391  0.3170  0.7615 -0.0437
 4484TIP3    H235088   6.119   1.082   2.506 -2.0364 -0.0757 -2.0897
 4485TIP3   OH235089   0.646   0.721   7.199 -0.2366 -0.5884 -0.3036
 4485TIP3    H135090   0.668   0.628   7.190  0.0367 -0.5665  0.1161
 4485TIP3    H235091   0.727   0.762   7.228 -0.0889 -0.0560 -1.4149
 4486TIP3   OH235092   3.978   1.317   1.989 -0.1304  0.4019 -0.5389
 4486TIP3    H135093   4.027   1.265   2.052  0.9227  1.3959 -0.5058
 4486TIP3    H235094   4.022   1.302   1.905 -0.2553  0.6862 -0.6601
 4487TIP3   OH235095   0.974   0.265   7.235  0.1078  0.0356 -0.5153
 4487TIP3    H135096   1.050   0.244   7.180  1.1543  0.5989  0.6714
 4487TIP3    H235097   0.971   0.360   7.236 -0.7637  0.0180 -0.7232
 4488TIP3   OH235098   3.081   2.815   8.044 -0.4159  0.1211 -0.4555
 4488TIP3    H135099   3.006   2.836   7.987 -0.7656  2.2964  0.7188
 4488TIP3    H235100   3.095   2.894   8.096  2.3994 -0.4051 -0.2587
 4489TIP3   OH235101   2.555   3.342   0.372  0.1454  0.3884  0.1919
 4489TIP3    H135102   2.534   3.250   0.392  1.1892  0.4279  1.5636
 4489TIP3    H235103   2.567   3.343   0.277  0.3430 -0.9370  0.1794
 4490TIP3   OH235104   2.909   2.977   8.243  0.1802 -0.4254 -0.4322
 4490TIP3    H135105   2.878   2.893   8.209 -1.7267 -0.6130  1.5899
 4490TIP3    H235106   2.953   2.956   8.325  0.3976  0.4554 -0.3081
 4491TIP3   OH235107   2.022   3.210   8.058  0.3422  0.2269 -0.1922
 4491TIP3    H135108   2.009   3.305   8.061 -0.1071  0.1709 -0.3446
 4491TIP3    H235109   1.983   3.178   8.139  1.4803  0.2825  0.3978
 4492TIP3   OH235110   3.567   1.676   7.998 -0.1924 -1.1515  0.3755
 4492TIP3    H135111   3.610   1.658   8.082  1.6777  2.1121  0.3151
 4492TIP3    H235112   3.638   1.673   7.934 -1.1720 -1.2985 -0.7380
 4493TIP3   OH235113   0.646   4.695   0.569 -0.5794 -0.2407  0.1304
 4493TIP3    H135114   0.640   4.784   0.602  0.7507  0.7923 -2.1090
 4493TIP3    H235115   0.556   4.666   0.557 -1.0417  1.3160 -0.2953
 4494TIP3   OH235116   4.907   2.624   6.474  0.1123  0.4163 -0.4484
 4494TIP3    H135117   4.870   2.553   6.527 -1.1235  0.9243 -0.6037
 4494TIP3    H235118   4.974   2.581   6.421  1.3834 -0.1193  1.4554
 4495TIP3   OH235119   1.352   0.881   7.900 -0.8552  0.0754  0.0315
 4495TIP3    H135120   1.283   0.898   7.836  0.6677  0.9688 -1.4643
 4495TIP3    H235121   1.306   0.849   7.977 -2.9368  0.7031 -0.8770
 4496TIP3   OH235122   4.800   4.023   8.533 -0.2934 -0.3550 -0.0487
 4496TIP3    H135123   4.797   3.980   8.448 -0.4872 -0.7791  0.1688
 4496TIP3    H235124   4.812   3.951   8.596  1.3581  0.0637  0.1821
 4497TIP3   OH235125   2.737   0.965   7.619 -0.2240  0.0926  0.0463
 4497TIP3    H135126   2.708   0.946   7.529  1.7349  0.0179 -0.6184
 4497TIP3    H235127   2.791   0.890   7.644 -1.1234 -0.1091  1.5069
 4498TIP3   OH235128   5.252   0.205   8.889  0.6402 -0.5073 -0.8948
 4498TIP3    H135129   5.236   0.141   8.820 -1.5549  0.8310 -1.7480
 4498TIP3    H235130   5.245   0.155   8.970  0.2627 -1.5979 -1.5850
 4499TIP3   OH235131   1.522   2.434   8.110 -0.6050 -0.5328 -0.0878
 4499TIP3    H135132   1.456   2.502   8.095  0.4628  0.3908 -0.8891
 4499TIP3    H235133   1.603   2.472   8.074  0.0051 -2.2907 -0.6924
 4500TIP3   OH235134   0.187   5.877   8.720  0.3318 -0.0667  0.2237
 4500TIP3    H135135   0.282   5.865   8.723  0.6432  2.2108  0.5643
 4500TIP3    H235136   0.152   5.806   8.774  1.9888  0.4434  2.0763
 4501TIP3   OH235137   4.922   6.431   7.659 -0.0224 -0.0533 -0.0704
 4501TIP3    H135138   5.006   6.476   7.667  1.2407 -2.2299 -0.1824
 4501TIP3    H235139   4.912   6.414   7.565 -1.7369  2.0909 -0.3636
 4502TIP3   OH235140   0.342   5.262   1.400 -0.1384 -0.3887 -0.3195
 4502TIP3    H135141   0.374   5.215   1.477 -2.8436  0.0139  1.1970
 4502TIP3    H235142   0.308   5.194   1.342 -1.0390 -0.5442  0.3673
 4503TIP3   OH235143   3.070   6.528   1.362 -0.5259  0.6540  0.1252
 4503TIP3    H135144   2.988   6.548   1.407 -1.8559 -0.3496 -1.7023
 4503TIP3    H235145   3.090   6.438   1.389  0.4138  1.1298  1.1162
 4504TIP3   OH235146   3.672   0.580   8.786  0.0674  0.0720  0.7661
 4504TIP3    H135147   3.618   0.592   8.864 -0.8259 -1.9300  0.5266
 4504TIP3    H235148   3.619   0.616   8.714 -1.2870 -2.3466  0.4556
 4505TIP3   OH235149   5.875   4.420   8.579  0.1702  0.1758  0.0531
 4505TIP3    H135150   5.801   4.473   8.549  0.7824  0.6709 -0.6082
 4505TIP3    H235151   5.936   4.483   8.617  0.4943 -0.1636  0.1012
 4506TIP3   OH235152   1.348   4.856   1.563 -0.3573  0.3482 -0.1625
 4506TIP3    H135153   1.434   4.823   1.589 -0.2025 -1.1047 -2.2198
 4506TIP3    H235154   1.286   4.797   1.605 -0.0804 -2.9785 -3.8404
 4507TIP3   OH235155   3.606   2.206   7.769 -0.3776  0.6403 -0.2119
 4507TIP3    H135156   3.618   2.274   7.835 -0.3097 -0.7005  1.2009
 4507TIP3    H235157   3.608   2.124   7.818  0.8365 -0.4791 -2.0129
 4508TIP3   OH235158   1.897   3.160   8.284 -0.1987 -0.0674  0.6382
 4508TIP3    H135159   1.923   3.141   8.374  0.1402 -1.3983  0.2776
 4508TIP3    H235160   1.893   3.074   8.241  3.2666  0.7072 -1.6219
 4509TIP3   OH235161   0.504   6.552   1.118  0.2707  0.5009  0.4430
 4509TIP3    H135162   0.589   6.512   1.100  0.0054  0.9156 -2.1337
 4509TIP3    H235163   0.458   6.487   1.171  2.2890  0.4583  2.2991
 4510TIP3   OH235164   2.909   5.131   7.605  0.4078  0.3164 -0.3951
 4510TIP3    H135165   2.862   5.154   7.685  2.3212  3.2640  0.0243
 4510TIP3    H235166   2.842   5.131   7.537 -0.8299  0.3749  0.7901
 4511TIP3   OH235167   0.119   2.447   2.237 -0.1264 -0.0957  0.4068
 4511TIP3    H135168   0.162   2.521   2.279  0.0326  0.9050 -1.4263
 4511TIP3    H235169   0.135   2.374   2.296 -0.5441  1.3541  2.4347
 4512TIP3   OH235170   3.270   3.116   0.594  0.3274 -0.2688  0.2940
 4512TIP3    H135171   3.261   3.114   0.499  3.1164 -0.6212 -0.0297
 4512TIP3    H235172   3.180   3.128   0.626 -0.4531  2.2910 -2.4324
 4513TIP3   OH235173   3.922   5.401   6.848 -0.3180 -0.2235 -0.3977
 4513TIP3    H135174   3.975   5.440   6.778  1.0783  0.5726  1.0425
 4513TIP3    H235175   3.980   5.337   6.889 -1.5700 -1.6650 -0.7826
 4514TIP3   OH235176   6.662   4.252   1.172  0.6728 -0.5891 -0.2692
 4514TIP3    H135177   6.624   4.217   1.092 -1.7691 -0.9395  0.9574
 4514TIP3    H235178   6.637   4.190   1.241  1.1376  0.6147  1.0443
 4515TIP3   OH235179   0.895   2.508   1.441  0.5223 -0.2320  0.4694
 4515TIP3    H135180   0.981   2.529   1.404 -0.0984  1.4329 -0.1445
 4515TIP3    H235181   0.903   2.529   1.534  0.7730 -0.0229  0.4039
 4516TIP3   OH235182   3.472   5.131   2.683 -0.2786 -0.1361 -0.0000
 4516TIP3    H135183   3.535   5.065   2.654  1.2212  0.7642  1.0482
 4516TIP3    H235184   3.395   5.081   2.710  0.6474 -1.4332  0.3328
 4517TIP3   OH235185   6.163   6.168   1.919 -0.0762 -0.2514 -0.4688
 4517TIP3    H135186   6.158   6.203   2.008  0.9533  1.9365 -1.2118
 4517TIP3    H235187   6.257   6.163   1.900 -0.2883  0.3305 -1.7795
 4518TIP3   OH235188   1.826   2.772   6.234  0.3700  0.3381 -0.0476
 4518TIP3    H135189   1.908   2.728   6.257  0.5635  0.6495 -0.1404
 4518TIP3    H235190   1.799   2.731   6.152 -2.0698 -3.2239  2.2037
 4519TIP3   OH235191   3.317   6.438   0.890  0.1808 -0.1571 -0.1272
 4519TIP3    H135192   3.343   6.371   0.954 -1.8206  0.5068  1.4783
 4519TIP3    H235193   3.228   6.413   0.864  0.5034  0.2927 -1.7378
 4520TIP3   OH235194   4.777   2.245   0.754 -0.8230 -1.0859 -0.0927
 4520TIP3    H135195   4.720   2.300   0.699 -1.6646  0.5206  2.2369
 4520TIP3    H235196   4.773   2.158   0.713 -1.0661  0.0684 -2.7472
 4521TIP3   OH235197   1.696   0.483   0.597  0.2167  0.4145  0.1772
 4521TIP3    H135198   1.666   0.440   0.517 -0.9663  2.4861 -0.5803
 4521TIP3    H235199   1.745   0.560   0.566  1.6081  0.0982  1.4663
 4522TIP3   OH235200   2.432   6.290   1.884 -0.4543 -0.5082  0.1797
 4522TIP3    H135201   2.434   6.374   1.839 -0.7136 -0.2755  0.5951
 4522TIP3    H235202   2.518   6.284   1.927  0.4834 -1.5040 -1.7064
 4523TIP3   OH235203   0.763   5.030   0.905 -0.9183  0.3917  0.1415
 4523TIP3    H135204   0.688   5.074   0.943 -0.7695  0.0241  0.8800
 4523TIP3    H235205   0.731   4.942   0.882 -0.7652  0.3003  0.2753
 4524TIP3   OH235206   6.603   6.635   7.325 -0.7218  0.7681  0.0626
 4524TIP3    H135207   6.629   6.581   7.400 -2.1550 -2.5392 -1.6775
 4524TIP3    H235208   6.686   6.657   7.282 -0.1560 -2.2756 -0.5811
 4525TIP3   OH235209   4.918   1.958   7.884 -0.2466  0.4617 -0.1871
 4525TIP3    H135210   4.936   1.922   7.970 -0.9171  0.5108 -0.0220
 4525TIP3    H235211   4.999   1.943   7.834  0.6782  1.7342  0.8638
 4526TIP3   OH235212   3.904   0.307   1.557 -0.1821 -0.0524  0.0270
 4526TIP3    H135213   3.857   0.358   1.491 -1.2439  0.2433  0.9841
 4526TIP3    H235214   3.841   0.295   1.628  1.4745  1.1724  1.7887
 4527TIP3   OH235215   5.156   1.218   8.057 -0.0375  0.1620  0.4496
 4527TIP3    H135216   5.175   1.287   7.994  0.2201  0.4165  0.7992
 4527TIP3    H235217   5.113   1.263   8.130  0.9840  0.1152  1.0982
 4528TIP3   OH235218   5.665   3.103   1.185  0.9702 -0.0908  0.1495
 4528TIP3    H135219   5.649   3.187   1.141 -0.0147 -0.1777  0.3189
 4528TIP3    H235220   5.588   3.051   1.164 -0.2425  0.3393  3.1174
 4529TIP3   OH235221   3.350   3.813   0.976  0.1844  0.4488  0.1634
 4529TIP3    H135222   3.271   3.855   1.008  0.5333  0.3160  1.2299
 4529TIP3    H235223   3.420   3.874   0.997  0.6285 -0.3930  1.2269
 4530TIP3   OH235224   4.153   3.340   7.304 -0.0633 -0.0832 -0.2903
 4530TIP3    H135225   4.218   3.338   7.234  0.3630  0.5265  0.0769
 4530TIP3    H235226   4.110   3.425   7.293 -2.6844 -1.5037 -2.2019
 4531TIP3   OH235227   1.778   1.834   0.909  0.4124  0.1521 -0.5726
 4531TIP3    H135228   1.766   1.924   0.880  0.0972  0.4897  0.5282
 4531TIP3    H235229   1.704   1.786   0.873  1.6308 -0.1297 -2.8425
 4532TIP3   OH235230   4.183   0.775   8.351  0.2254  0.3565  0.0823
 4532TIP3    H135231   4.261   0.777   8.407 -0.6523 -0.4947  1.3825
 4532TIP3    H235232   4.181   0.685   8.316 -1.0006 -0.1442  1.3330
 4533TIP3   OH235233   6.007   1.530   0.797  0.6771  0.0948  0.3560
 4533TIP3    H135234   6.039   1.481   0.722  1.5058 -0.3768  0.9969
 4533TIP3    H235235   5.992   1.619   0.764  1.4979  0.0115 -0.2546
 4534TIP3   OH235236   1.280   5.532   2.091  0.1942  0.1157  0.5202
 4534TIP3    H135237   1.228   5.453   2.074  0.5684  0.3127 -1.9285
 4534TIP3    H235238   1.319   5.516   2.177  0.2647 -2.3858  0.1258
 4535TIP3   OH235239   6.343   4.653   1.416  0.1569  0.1424 -0.1355
 4535TIP3    H135240   6.344   4.743   1.382  1.9420  0.1871 -0.0308
 4535TIP3    H235241   6.311   4.662   1.505  1.9777  0.9574  0.4927
 4536TIP3   OH235242   3.871   4.872   7.308  0.3528 -0.3373 -0.2184
 4536TIP3    H135243   3.854   4.946   7.250 -0.9251 -1.5121 -1.4122
 4536TIP3    H235244   3.941   4.823   7.265  0.0137 -0.7402 -0.3107
 4537TIP3   OH235245   3.665   0.884   8.503 -0.2364 -0.3620  0.7709
 4537TIP3    H135246   3.730   0.874   8.573  2.5599 -0.2143 -1.5822
 4537TIP3    H235247   3.690   0.966   8.459 -2.8835  0.3964  0.5025
 4538TIP3   OH235248   0.310   0.383   0.176 -0.1089 -0.2609 -0.0470
 4538TIP3    H135249   0.279   0.466   0.139  0.5690  0.6619  1.3561
 4538TIP3    H235250   0.245   0.319   0.148 -1.0086  0.8515 -0.6273
 4539TIP3   OH235251   0.558   1.912   6.735 -0.2891  0.0393  0.3398
 4539TIP3    H135252   0.569   1.856   6.658 -1.2923 -1.2978  1.1291
 4539TIP3    H235253   0.507   1.987   6.704  0.3444  0.1146 -0.5459
 4540TIP3   OH235254   2.755   2.128   2.487  0.3073  0.3324 -0.1997
 4540TIP3    H135255   2.710   2.182   2.552  0.0424 -0.6728  0.4657
 4540TIP3    H235256   2.828   2.088   2.534  0.3896 -0.0486 -0.6395
 4541TIP3   OH235257   2.784   5.814   0.471  0.0848  0.4290  0.2446
 4541TIP3    H135258   2.838   5.795   0.394 -0.7245 -1.1019  0.0103
 4541TIP3    H235259   2.728   5.737   0.480 -1.1924  1.4316  1.2187
 4542TIP3   OH235260   6.307   3.333   7.782  0.4345  0.3938 -0.5526
 4542TIP3    H135261   6.246   3.406   7.777  2.2475  2.0632  0.4102
 4542TIP3    H235262   6.255   3.259   7.814 -2.0368  0.4732 -3.8913
 4543TIP3   OH235263   6.167   1.739   7.068 -0.4537 -0.2319  0.0082
 4543TIP3    H135264   6.223   1.680   7.118  0.1710  0.6564  0.3634
 4543TIP3    H235265   6.085   1.742   7.118 -0.5452 -0.9052 -0.0925
 4544TIP3   OH235266   4.420   0.336   8.308 -0.1082 -0.5554  0.7403
 4544TIP3    H135267   4.443   0.250   8.343  2.2263 -0.7480 -0.9890
 4544TIP3    H235268   4.357   0.318   8.238  1.6988 -1.1603 -0.8307
 4545TIP3   OH235269   3.588   3.482   8.227  0.0404  0.3500 -1.0666
 4545TIP3    H135270   3.556   3.533   8.301  0.4678  0.7069 -1.1229
 4545TIP3    H235271   3.633   3.407   8.266 -1.7625 -0.7668 -0.9848
 4546TIP3   OH235272   6.342   4.368   7.195 -0.8914  0.2446  0.1078
 4546TIP3    H135273   6.248   4.374   7.209 -1.0024 -1.8781  0.6440
 4546TIP3    H235274   6.351   4.324   7.110 -0.3364  1.6058 -0.5716
 4547TIP3   OH235275   3.820   4.173   0.070 -0.3744  0.3746  0.1190
 4547TIP3    H135276   3.848   4.224   0.146 -0.2552 -0.3264  0.5532
 4547TIP3    H235277   3.803   4.238   0.002 -0.1568  0.9841  0.6435
 4548TIP3   OH235278   1.143   4.018   2.100  0.2574  0.2122 -0.7487
 4548TIP3    H135279   1.072   4.062   2.148 -0.1030  0.1614 -1.2335
 4548TIP3    H235280   1.110   3.930   2.084  0.9637 -0.2337  0.1804
 4549TIP3   OH235281   1.032   5.313   7.429 -0.4433 -0.6329  0.3030
 4549TIP3    H135282   1.095   5.370   7.473  0.8197 -2.2655  0.7112
 4549TIP3    H235283   1.061   5.224   7.451 -2.5207 -1.4511 -0.0463
 4550TIP3   OH235284   1.081   4.783   1.196 -1.2462 -0.8390  0.3816
 4550TIP3    H135285   1.026   4.705   1.188 -1.6981 -0.3909 -1.6156
 4550TIP3    H235286   1.040   4.835   1.265 -1.3323 -2.0442  1.2631
 4551TIP3   OH235287   2.403   3.703   1.696  0.4583  0.3354 -0.3050
 4551TIP3    H135288   2.469   3.653   1.649  0.3722 -0.4457  0.3879
 4551TIP3    H235289   2.445   3.725   1.779  0.4721  1.3789 -0.5655
 4552TIP3   OH235290   6.747   3.708   8.141 -0.2183 -0.4310 -0.1345
 4552TIP3    H135291   6.718   3.790   8.182 -1.9588  0.4382 -2.7993
 4552TIP3    H235292   6.834   3.729   8.107 -0.1754 -0.0709  0.1822
 4553TIP3   OH235293   6.668   5.050   7.409  0.0095  0.1495  0.1713
 4553TIP3    H135294   6.604   4.993   7.452 -0.5531 -0.5532 -1.5371
 4553TIP3    H235295   6.634   5.062   7.321  2.3702 -0.5150 -0.9080
 4554TIP3   OH235296   5.919   3.774   8.065  0.5499 -0.6171  0.1674
 4554TIP3    H135297   5.976   3.817   8.001  0.4431 -0.8487 -0.0825
 4554TIP3    H235298   5.889   3.846   8.121  3.2589 -0.7932  2.0603
 4555TIP3   OH235299   3.489   3.594   1.949  0.2681 -0.0287 -0.2085
 4555TIP3    H135300   3.466   3.569   2.039  0.2517  0.1397 -0.1657
 4555TIP3    H235301   3.510   3.511   1.906  2.1739  0.0433  0.4772
 4556TIP3   OH235302   1.443   5.188   2.543 -0.2339 -0.0336 -0.5776
 4556TIP3    H135303   1.530   5.170   2.507  0.0325  0.4457 -0.1879
 4556TIP3    H235304   1.382   5.149   2.481  0.2293  0.4094 -1.3181
 4557TIP3   OH235305   3.828   2.945   8.353 -0.1973 -0.4666 -0.2543
 4557TIP3    H135306   3.840   2.924   8.260 -1.2873  0.5598 -0.6540
 4557TIP3    H235307   3.734   2.936   8.368 -0.0117 -0.8194  0.8226
 4558TIP3   OH235308   6.771   1.026   7.357 -0.4382 -0.5030 -0.0483
 4558TIP3    H135309   6.723   1.108   7.360  1.3067  0.6433 -1.4009
 4558TIP3    H235310   6.742   0.978   7.435 -2.4944  0.7821  0.0563
 4559TIP3   OH235311   0.697   1.834   2.427  0.2371 -0.3317 -0.2916
 4559TIP3    H135312   0.757   1.761   2.445 -1.3252 -1.5565  0.1775
 4559TIP3    H235313   0.632   1.797   2.366 -0.2345  0.8594 -0.5326
 4560TIP3   OH235314   0.836   4.689   1.072 -0.5139  0.2421 -0.6057
 4560TIP3    H135315   0.769   4.752   1.046  0.7809  2.1328  0.3998
 4560TIP3    H235316   0.914   4.717   1.024  0.1195 -0.5393 -0.0568
 4561TIP3   OH235317   4.392   6.174   7.721 -0.3736  0.3063 -0.4717
 4561TIP3    H135318   4.304   6.150   7.749 -0.5283  1.0275 -0.3163
 4561TIP3    H235319   4.412   6.254   7.771  0.4531  0.0238 -0.3334
 4562TIP3   OH235320   5.376   4.086   8.171 -0.1979  0.2576  0.3188
 4562TIP3    H135321   5.389   4.055   8.082 -0.8616  0.3835  0.1685
 4562TIP3    H235322   5.359   4.180   8.161 -0.4500  0.2390  0.5618
 4563TIP3   OH235323   3.201   5.260   7.777  0.3390  0.2052 -0.2789
 4563TIP3    H135324   3.229   5.334   7.830 -1.1375  0.3712  0.3043
 4563TIP3    H235325   3.171   5.299   7.695 -0.4866  0.2765  0.0477
 4564TIP3   OH235326   4.315   1.592   0.522 -0.5128  0.0322 -0.4776
 4564TIP3    H135327   4.321   1.619   0.613  0.4351  0.5009 -0.6631
 4564TIP3    H235328   4.225   1.560   0.512 -0.7958  0.4937  0.4687
 4565TIP3   OH235329   0.199   2.005   6.982  0.3679 -0.0264  0.1404
 4565TIP3    H135330   0.197   2.073   6.915  0.7606  0.1497  0.3046
 4565TIP3    H235331   0.268   2.032   7.042  0.9555 -0.8805 -0.1237
 4566TIP3   OH235332   4.939   2.190   2.423  0.2114 -0.0629 -0.4072
 4566TIP3    H135333   5.003   2.123   2.449  0.2518 -0.0272 -0.4157
 4566TIP3    H235334   4.856   2.158   2.458  0.2615 -0.0258 -0.2506
 4567TIP3   OH235335   6.635   3.112   7.818  0.6716  0.1214  0.4108
 4567TIP3    H135336   6.603   3.145   7.734 -0.4082 -0.5050  0.5541
 4567TIP3    H235337   6.588   3.030   7.830  0.9457  0.1205  1.5495
 4568TIP3   OH235338   0.655   4.866   7.443 -0.0227  0.4014  0.5050
 4568TIP3    H135339   0.739   4.830   7.471  0.7458  1.4453 -0.3720
 4568TIP3    H235340   0.592   4.834   7.508  1.1510  0.1228  1.5392
 4569TIP3   OH235341   2.017   1.510   7.753 -0.6333  0.0742  0.0746
 4569TIP3    H135342   2.006   1.419   7.779  0.2848 -0.9308 -2.6480
 4569TIP3    H235343   2.002   1.560   7.833 -0.5410 -2.4764  1.8145
 4570TIP3   OH235344   4.584   3.164   8.846  0.4595 -0.0519 -0.0372
 4570TIP3    H135345   4.585   3.126   8.934 -1.1373 -0.0550  0.0029
 4570TIP3    H235346   4.592   3.258   8.860 -0.5556  0.0127  0.1750
 4571TIP3   OH235347   2.362   0.213   8.729  0.4298  0.4367  0.3374
 4571TIP3    H135348   2.370   0.163   8.810  0.8725 -0.2015 -0.0891
 4571TIP3    H235349   2.382   0.303   8.755 -0.9256  0.5110  1.2175
 4572TIP3   OH235350   6.142   3.567   7.739  0.0933 -0.2467 -0.0898
 4572TIP3    H135351   6.211   3.611   7.690 -0.3315 -0.2978 -0.7557
 4572TIP3    H235352   6.084   3.638   7.768  0.3017 -0.2236  0.2714
 4573TIP3   OH235353   6.356   1.449   7.538  0.2033 -0.1728  0.5016
 4573TIP3    H135354   6.297   1.381   7.506 -0.0950 -0.0741  0.8362
 4573TIP3    H235355   6.329   1.464   7.629 -0.2331  0.9150  0.2176
 4574TIP3   OH235356   4.222   2.830   6.817 -0.4036 -0.8691  0.5959
 4574TIP3    H135357   4.204   2.773   6.742  1.0823 -1.7126  0.8366
 4574TIP3    H235358   4.310   2.805   6.845  0.4330  1.7381  0.5515
 4575TIP3   OH235359   5.869   4.628   0.825  0.1125 -0.2480 -0.3351
 4575TIP3    H135360   5.861   4.714   0.783  1.1022  0.2661  0.4841
 4575TIP3    H235361   5.963   4.613   0.832  0.0861 -2.8862 -3.3269
 4576TIP3   OH235362   1.203   3.830   1.275  0.6074 -0.4384  0.5234
 4576TIP3    H135363   1.140   3.759   1.259 -1.3084  1.0495  0.9858
 4576TIP3    H235364   1.175   3.900   1.216  0.3360  1.1054  2.3715
 4577TIP3   OH235365   1.688   6.236   1.346  0.1460 -0.2983 -0.2901
 4577TIP3    H135366   1.646   6.257   1.430  0.4649 -0.0086 -0.1994
 4577TIP3    H235367   1.643   6.291   1.282  0.8505  0.5536 -0.0827
 4578TIP3   OH235368   2.205   1.159   0.177  0.0825 -0.3370 -0.0712
 4578TIP3    H135369   2.280   1.114   0.217 -0.0775 -0.4711  0.0792
 4578TIP3    H235370   2.153   1.089   0.138  0.2690 -0.2019 -0.5697
 4579TIP3   OH235371   5.766   4.651   0.359 -0.5768 -0.0585 -0.0284
 4579TIP3    H135372   5.850   4.632   0.401 -1.0140  1.6390  1.8086
 4579TIP3    H235373   5.738   4.568   0.323  2.2438 -0.5249 -1.4407
 4580TIP3   OH235374   4.416   1.800   8.539  0.2331  0.8707 -0.6929
 4580TIP3    H135375   4.364   1.875   8.509 -1.9003  0.5245  1.7507
 4580TIP3    H235376   4.443   1.824   8.628  1.5165 -0.3431 -0.7290
 4581TIP3   OH235377   2.766   5.007   8.090 -0.1654 -0.2470 -0.1636
 4581TIP3    H135378   2.780   5.092   8.131  0.3493 -0.6157  0.4402
 4581TIP3    H235379   2.721   5.027   8.008 -0.1497  0.5950  0.0257
 4582TIP3   OH235380   5.413   3.209   8.777 -0.0638 -0.2181  0.4266
 4582TIP3    H135381   5.497   3.163   8.775  0.3853  0.5829  0.4175
 4582TIP3    H235382   5.437   3.302   8.783 -0.9425  0.0392  0.0672
 4583TIP3   OH235383   0.046   0.488   0.337 -0.3671  0.4529  0.7938
 4583TIP3    H135384   0.117   0.546   0.308  0.6974 -1.1629  0.0198
 4583TIP3    H235385  -0.029   0.512   0.282 -0.0887  1.4064  0.8183
 4584TIP3   OH235386   2.255   6.361   7.208 -0.3047  0.4192  0.1387
 4584TIP3    H135387   2.192   6.432   7.207 -0.1519  0.6645 -3.2784
 4584TIP3    H235388   2.211   6.289   7.163  0.5278 -0.7132  1.0815
 4585TIP3   OH235389   2.874   0.475   0.929  0.2173  0.0841 -0.4382
 4585TIP3    H135390   2.800   0.427   0.966 -0.5859  0.6970 -1.2227
 4585TIP3    H235391   2.941   0.472   0.998 -0.6035 -0.3057  0.3582
 4586TIP3   OH235392   6.467   5.543   1.505  0.3437  0.2669  0.6270
 4586TIP3    H135393   6.442   5.607   1.439  0.3288  2.5170  2.6699
 4586TIP3    H235394   6.384   5.509   1.538  0.2572  0.7830  0.9623
 4587TIP3   OH235395   3.147   3.568   7.190  0.2387 -0.6636  0.1520
 4587TIP3    H135396   3.230   3.613   7.177 -0.0634  0.7711  2.5569
 4587TIP3    H235397   3.171   3.476   7.201  1.1280 -0.7951 -2.2033
 4588TIP3   OH235398   1.843   3.067   7.504  0.2834 -0.6149  0.2598
 4588TIP3    H135399   1.851   3.093   7.596  1.4060 -2.1941  0.6470
 4588TIP3    H235400   1.906   2.996   7.494 -1.0098 -1.5970 -1.3101
 4589TIP3   OH235401   1.918   4.067   0.097 -0.1409 -0.3840  0.1269
 4589TIP3    H135402   1.901   3.973   0.097  0.6967 -0.5484  0.7632
 4589TIP3    H235403   2.008   4.075   0.064 -0.0755  0.1700  0.4248
 4590TIP3   OH235404   3.280   2.740   1.018 -0.3303  0.3733 -0.0011
 4590TIP3    H135405   3.376   2.737   1.010 -0.2850  1.5044 -0.0157
 4590TIP3    H235406   3.248   2.703   0.936  0.1179  1.5375 -0.7335
 4591TIP3   OH235407   1.111   0.814   0.375  0.5142  0.0623 -0.1080
 4591TIP3    H135408   1.123   0.776   0.462 -2.9927  0.0906  0.5132
 4591TIP3    H235409   1.114   0.908   0.390  0.5546  0.0690 -0.1563
 4592TIP3   OH235410   2.374   0.118   1.630 -0.4563  0.1700 -0.6780
 4592TIP3    H135411   2.305   0.063   1.593 -0.0460  0.4419 -1.8763
 4592TIP3    H235412   2.389   0.185   1.564 -0.4596  1.3244  0.4580
 4593TIP3   OH235413   6.631   0.023   8.383 -0.2140  0.2086  0.5209
 4593TIP3    H135414   6.593   0.110   8.371 -0.2469  0.0722 -0.3895
 4593TIP3    H235415   6.637   0.013   8.478  2.0619  2.1955  0.6551
 4594TIP3   OH235416   4.636   3.367   2.326 -0.3879  0.4139  0.0788
 4594TIP3    H135417   4.689   3.376   2.405 -0.9200 -0.4454  0.5462
 4594TIP3    H235418   4.598   3.279   2.332 -0.6455  0.4309 -1.0041
 4595TIP3   OH235419   1.046   1.762   0.266  0.0661 -0.0224 -0.6206
 4595TIP3    H135420   1.001   1.839   0.303 -1.9335 -1.1671 -0.5065
 4595TIP3    H235421   1.128   1.796   0.232 -0.7108  2.1596 -0.4734
 4596TIP3   OH235422   0.589   3.385   8.030  0.4298 -1.0043 -0.2968
 4596TIP3    H135423   0.578   3.476   8.059  0.3356 -0.4820 -1.8922
 4596TIP3    H235424   0.588   3.334   8.111  2.3650  0.5750  0.8012
 4597TIP3   OH235425   6.408   2.718   7.458 -0.1528 -0.4046 -0.0304
 4597TIP3    H135426   6.433   2.777   7.386 -0.5729  0.0529  0.1957
 4597TIP3    H235427   6.363   2.646   7.415 -1.8354  0.6344 -0.1188
 4598TIP3   OH235428   4.494   6.211   6.791 -0.1438 -0.0379  0.1285
 4598TIP3    H135429   4.402   6.196   6.814 -0.3312  2.0050  0.8840
 4598TIP3    H235430   4.491   6.269   6.715  0.5216  0.7460  0.6875
 4599TIP3   OH235431   2.861   3.138   7.830  0.3822  0.2338  0.0400
 4599TIP3    H135432   2.930   3.081   7.865  0.1691 -0.4556 -0.6473
 4599TIP3    H235433   2.807   3.158   7.906  1.3718  0.8522  0.6088
 4600TIP3   OH235434   4.877   0.107   7.952  0.2105  0.4210  0.0864
 4600TIP3    H135435   4.844   0.128   8.039 -0.9114  0.3838 -0.3114
 4600TIP3    H235436   4.839   0.021   7.931  1.1896  0.0140 -0.0864
 4601TIP3   OH235437   0.660   1.242   1.396 -0.2154 -0.4909  0.4185
 4601TIP3    H135438   0.674   1.315   1.456  0.9922  0.4581 -0.9353
 4601TIP3    H235439   0.748   1.207   1.380 -0.4341 -0.4129 -1.1034
 4602TIP3   OH235440   2.519   2.558   0.904  0.5458  0.0197 -0.1562
 4602TIP3    H135441   2.459   2.532   0.834  0.1067  1.0549 -0.1871
 4602TIP3    H235442   2.585   2.488   0.906 -1.1298 -1.6251  0.4880
 4603TIP3   OH235443   5.486   1.644   1.473  0.1369  0.0371  0.3094
 4603TIP3    H135444   5.447   1.557   1.483  1.5152 -1.0906 -2.8093
 4603TIP3    H235445   5.418   1.697   1.432  0.1050 -0.3365 -0.1281
 4604TIP3   OH235446   3.182   4.914   6.901 -0.1167 -0.5445  0.2718
 4604TIP3    H135447   3.108   4.872   6.858 -0.3052 -2.1077  2.0108
 4604TIP3    H235448   3.164   4.905   6.995  0.0411  3.0892  0.8086
 4605TIP3   OH235449   2.030   3.954   6.911  0.2157  0.1680 -0.0168
 4605TIP3    H135450   2.069   4.019   6.852 -0.8768 -0.6007 -1.6427
 4605TIP3    H235451   2.005   4.004   6.989  0.8861  1.3661 -0.5435
 4606TIP3   OH235452   3.651   2.103   1.124  0.6409 -0.6711 -0.4051
 4606TIP3    H135453   3.563   2.097   1.160  0.7860 -1.4309 -0.1567
 4606TIP3    H235454   3.692   2.174   1.173  0.1438 -0.2513 -0.5864
 4607TIP3   OH235455   2.505   2.563   1.455  0.3641 -0.2139 -0.0931
 4607TIP3    H135456   2.464   2.486   1.494  1.5243 -1.1995 -0.8006
 4607TIP3    H235457   2.480   2.560   1.363 -0.1395  0.6434 -0.0003
 4608TIP3   OH235458   5.018   6.562   2.137  0.3620 -0.1323 -0.1062
 4608TIP3    H135459   5.033   6.549   2.231 -0.6928 -2.3797 -0.1728
 4608TIP3    H235460   5.049   6.481   2.096 -1.6635 -0.3414 -1.3728
 4609TIP3   OH235461   1.995   0.564   1.532 -0.2315  0.3992 -0.2696
 4609TIP3    H135462   2.043   0.599   1.607  1.9965  0.9856 -1.8563
 4609TIP3    H235463   1.910   0.608   1.536 -0.1174  0.5336  1.7779
 4610TIP3   OH235464   6.031   4.593   8.343  0.1486  0.1986  0.0439
 4610TIP3    H135465   6.016   4.584   8.437 -1.3624  1.7577 -0.0036
 4610TIP3    H235466   5.947   4.570   8.303  0.8389 -0.6585 -0.9524
 4611TIP3   OH235467   1.689   2.419   1.986 -0.9520  0.2906 -0.1955
 4611TIP3    H135468   1.782   2.398   1.994 -1.4801 -1.7310  1.3100
 4611TIP3    H235469   1.645   2.358   2.045 -2.9706  3.7441  2.2157
 4612TIP3   OH235470   0.332   2.246   0.849  0.2833  0.0538 -0.5062
 4612TIP3    H135471   0.264   2.312   0.862  1.2478  0.8347  0.8533
 4612TIP3    H235472   0.398   2.288   0.794 -0.2346 -0.6469 -1.6928
 4613TIP3   OH235473   1.392   0.873   7.179  0.2914  0.1340 -0.2696
 4613TIP3    H135474   1.410   0.806   7.114  3.8839  0.4503  0.1773
 4613TIP3    H235475   1.418   0.955   7.137  1.8776  0.4389  1.1556
 4614TIP3   OH235476   4.601   2.772   0.164  0.1960 -0.0558  0.1361
 4614TIP3    H135477   4.559   2.854   0.189 -1.9899 -1.5070  1.5469
 4614TIP3    H235478   4.691   2.779   0.198  1.1692  2.9606 -2.6021
 4615TIP3   OH235479   0.704   4.040   7.394 -0.5783 -0.2466 -0.2861
 4615TIP3    H135480   0.783   4.076   7.434 -1.2327  1.5035 -0.4805
 4615TIP3    H235481   0.635   4.054   7.460 -1.4302  1.6129 -1.4811
 4616TIP3   OH235482   3.861   1.033   8.134 -0.0559  0.5956  0.2261
 4616TIP3    H135483   3.821   0.981   8.203  0.5737 -0.3803 -0.1271
 4616TIP3    H235484   3.953   1.005   8.132  0.7190  2.8265  1.0780
 4617TIP3   OH235485   4.247   2.837   1.325 -0.0360 -0.2747  0.1623
 4617TIP3    H135486   4.316   2.890   1.364 -1.9681  0.3397  3.1304
 4617TIP3    H235487   4.235   2.874   1.238  1.1763  1.7597  0.7830
 4618TIP3   OH235488   1.521   2.813   7.935  0.4660  0.2591  0.6005
 4618TIP3    H135489   1.594   2.751   7.931 -0.0375 -0.2887 -0.6284
 4618TIP3    H235490   1.558   2.890   7.979  1.6542 -0.1772  0.4064
 4619TIP3   OH235491   0.020   1.028   2.235 -0.6140  0.0614  0.4762
 4619TIP3    H135492   0.096   1.018   2.294 -0.5512  0.7111  0.5143
 4619TIP3    H235493  -0.028   1.102   2.272 -2.1080 -1.2799  1.3442
 4620TIP3   OH235494   2.305   6.170   0.827 -0.0494  0.1602 -0.3514
 4620TIP3    H135495   2.251   6.127   0.760  0.3516  1.5909 -1.6440
 4620TIP3    H235496   2.374   6.107   0.846  0.4186  0.1018 -2.0617
 4621TIP3   OH235497   1.689   0.761   6.132 -0.4747  0.3037 -0.0842
 4621TIP3    H135498   1.600   0.773   6.166 -1.1812  0.7065 -1.9461
 4621TIP3    H235499   1.683   0.683   6.076  0.2630  0.5158 -0.4721
 4622TIP3   OH235500   3.758   6.688   8.996  0.5775 -0.3661  0.2863
 4622TIP3    H135501   3.684   6.645   8.953  1.2639  0.1069 -1.4852
 4622TIP3    H235502   3.808   6.617   9.036  0.5190 -0.9810 -0.7007
 4623TIP3   OH235503   2.823   1.243   0.483  0.2184  0.1004 -0.5594
 4623TIP3    H135504   2.830   1.335   0.510  1.2380 -0.3231  0.7644
 4623TIP3    H235505   2.734   1.218   0.506  0.1757  0.5660 -0.2044
 4624TIP3   OH235506   6.020   0.125   8.576 -0.2790  0.3411  0.0064
 4624TIP3    H135507   5.938   0.146   8.620 -0.3589  1.4272 -0.6269
 4624TIP3    H235508   6.021   0.181   8.499 -0.7786 -2.4596 -2.1680
 4625TIP3   OH235509   0.835   4.526   0.681  0.0725  0.2784 -0.0638
 4625TIP3    H135510   0.915   4.504   0.634 -1.2364 -3.8307 -0.7212
 4625TIP3    H235511   0.775   4.558   0.614  0.7992  2.6672  0.3231
 4626TIP3   OH235512   6.259   0.571   8.359 -0.8250 -0.3154  0.1276
 4626TIP3    H135513   6.320   0.595   8.289 -0.0718 -1.7225  0.2627
 4626TIP3    H235514   6.190   0.637   8.354 -0.3753  0.0856 -1.3977
 4627TIP3   OH235515   0.621   0.841   7.558  0.3991  0.2522  0.5094
 4627TIP3    H135516   0.684   0.855   7.486 -1.1499  1.3015 -0.7156
 4627TIP3    H235517   0.647   0.757   7.596  3.8255  1.5582  1.4559
 4628TIP3   OH235518   6.173   1.436   1.337  0.0502 -0.0459  0.1096
 4628TIP3    H135519   6.210   1.450   1.250  0.9223 -2.6028 -0.0179
 4628TIP3    H235520   6.230   1.371   1.377 -1.6185 -0.5876  1.7508
 4629TIP3   OH235521   0.062   2.483   6.681 -0.2221 -0.0402  0.1877
 4629TIP3    H135522   0.140   2.497   6.628  0.1216 -2.5138 -0.1028
 4629TIP3    H235523   0.016   2.567   6.680  2.3133  1.4286  0.2228
 4630TIP3   OH235524   5.598   5.454   8.162  0.1987  0.3008  0.5369
 4630TIP3    H135525   5.640   5.532   8.198 -1.1575  0.8070  1.1033
 4630TIP3    H235526   5.558   5.484   8.080  1.5598 -0.3612 -0.4004
 4631TIP3   OH235527   2.676   6.633   8.124  0.8731 -0.2309  0.4119
 4631TIP3    H135528   2.673   6.541   8.153  1.1398  0.3410  2.3518
 4631TIP3    H235529   2.721   6.679   8.194  1.2155  1.3276 -0.7863
 4632TIP3   OH235530   3.489   4.570   0.866 -0.1628  0.7147  0.7472
 4632TIP3    H135531   3.562   4.578   0.804  0.3357  0.2829  1.2640
 4632TIP3    H235532   3.492   4.652   0.917  1.6422 -0.3542  2.5245
 4633TIP3   OH235533   2.774   1.923   1.206 -0.1740  0.0681  0.0921
 4633TIP3    H135534   2.758   2.016   1.220  0.3318  0.2500 -0.4799
 4633TIP3    H235535   2.733   1.879   1.281 -0.2459  0.7627  0.4614
 4634TIP3   OH235536   3.169   6.076   8.087  0.8229  0.2373  0.3251
 4634TIP3    H135537   3.217   6.013   8.033  0.5713  0.9529 -0.7638
 4634TIP3    H235538   3.116   6.126   8.025 -0.4696  0.2247  1.3905
 4635TIP3   OH235539   6.277   2.661   8.019 -0.1483  0.1721  0.4957
 4635TIP3    H135540   6.275   2.638   7.926  1.7803  2.4796 -0.1931
 4635TIP3    H235541   6.296   2.578   8.063 -0.4233 -0.8553 -1.1964
 4636TIP3   OH235542   4.804   1.038   0.274  0.0211 -0.4060 -0.0745
 4636TIP3    H135543   4.725   1.075   0.235  0.4291 -0.2994 -0.8332
 4636TIP3    H235544   4.778   0.951   0.304 -0.1980 -0.6820 -1.0264
 4637TIP3   OH235545   5.318   0.144   0.330  0.4010 -0.1710  0.3812
 4637TIP3    H135546   5.347   0.153   0.240 -1.2381  0.8242 -0.0980
 4637TIP3    H235547   5.385   0.188   0.382  0.3828  1.0157 -0.5605
 4638TIP3   OH235548   5.818   0.462   8.037 -0.2608 -0.0498 -0.4114
 4638TIP3    H135549   5.837   0.384   8.089  1.1140  0.5760  0.0843
 4638TIP3    H235550   5.764   0.431   7.965  2.1826 -1.9174 -1.5699
 4639TIP3   OH235551   6.160   5.626   0.002 -0.3896 -0.1630 -0.3189
 4639TIP3    H135552   6.066   5.632   0.014 -0.7232 -0.2760 -2.5263
 4639TIP3    H235553   6.177   5.535  -0.022  0.0374  0.2097 -1.5287
 4640TIP3   OH235554   4.836   5.380   0.609 -0.0215  0.6473 -0.8444
 4640TIP3    H135555   4.890   5.396   0.686  1.0357 -0.2468 -1.3682
 4640TIP3    H235556   4.746   5.384   0.641  0.3935  0.6724  0.3504
 4641TIP3   OH235557   4.330   5.369   7.412  0.1853  1.0058  0.9359
 4641TIP3    H135558   4.369   5.301   7.357 -3.7028 -0.8565  0.1325
 4641TIP3    H235559   4.356   5.346   7.501  0.3196 -0.5878  0.5187
 4642TIP3   OH235560   0.760   2.785   7.305  0.2619 -0.0735  0.4621
 4642TIP3    H135561   0.771   2.868   7.258 -0.0518  1.2040  2.5416
 4642TIP3    H235562   0.668   2.763   7.292  0.2397  0.1357  0.2577
 4643TIP3   OH235563   1.707   2.312   1.035  0.6596  0.6942 -0.0457
 4643TIP3    H135564   1.637   2.328   1.097 -0.2318  1.4041 -1.1875
 4643TIP3    H235565   1.752   2.234   1.068 -1.2140 -0.3110  0.2440
 4644TIP3   OH235566   1.091   5.880   0.577  0.3116 -0.3385  0.4593
 4644TIP3    H135567   1.148   5.816   0.621  0.8275 -0.7915 -0.8248
 4644TIP3    H235568   1.121   5.964   0.610 -0.3130 -0.7238  2.1030
 4645TIP3   OH235569   6.471   0.233   1.436  0.0083  0.6046 -0.6643
 4645TIP3    H135570   6.450   0.163   1.375 -1.1673  0.0742  0.3020
 4645TIP3    H235571   6.502   0.305   1.381  2.8601 -1.1594 -1.5837
 4646TIP3   OH235572   5.228   5.258   6.773 -0.0268  0.7224  0.8871
 4646TIP3    H135573   5.205   5.312   6.849  0.1242  1.1273  0.6511
 4646TIP3    H235574   5.323   5.248   6.778 -0.1940 -0.6833  1.6840
 4647TIP3   OH235575   1.466   0.747   0.139 -0.3179  0.4151 -0.6601
 4647TIP3    H135576   1.496   0.828   0.179 -0.0751  0.4398 -0.8914
 4647TIP3    H235577   1.372   0.759   0.129 -0.6038 -0.0778  1.0445
 4648TIP3   OH235578   2.027   2.350   8.287 -0.1327 -0.1928 -0.1745
 4648TIP3    H135579   1.984   2.379   8.207 -1.3766  1.7604  1.1124
 4648TIP3    H235580   2.095   2.415   8.303 -1.1032  0.5190  1.2793
 4649TIP3   OH235581   4.123   2.444   1.973  0.1295 -0.0664  0.2063
 4649TIP3    H135582   4.030   2.439   1.996 -0.3552 -0.2654 -1.6642
 4649TIP3    H235583   4.134   2.532   1.938  0.2069 -0.6437 -1.2728
 4650TIP3   OH235584   2.969   1.684   1.641 -0.0034 -0.2173 -0.0229
 4650TIP3    H135585   3.002   1.602   1.677  0.3700  0.5374  1.4174
 4650TIP3    H235586   2.888   1.660   1.596 -0.0788 -1.3206  0.6722
 4651TIP3   OH235587   4.946   2.526   1.803 -0.3038  0.1371 -0.1246
 4651TIP3    H135588   5.030   2.496   1.838 -0.9802  1.0754  2.5114
 4651TIP3    H235589   4.968   2.606   1.754  0.6520 -1.1744 -1.9918
 4652TIP3   OH235590   0.437   1.530   1.075  0.2432  0.2813  0.4084
 4652TIP3    H135591   0.466   1.590   1.006  2.8302 -0.9194  0.3320
 4652TIP3    H235592   0.456   1.576   1.156 -1.1366  0.9782  0.3508
 4653TIP3   OH235593   5.306   0.195   7.949 -0.7651  0.1589  0.1887
 4653TIP3    H135594   5.227   0.173   7.900 -0.1159  0.6086 -1.0942
 4653TIP3    H235595   5.320   0.288   7.932  1.0140 -0.2892 -1.0688
 4654TIP3   OH235596   0.264   1.943   1.484 -0.3449 -0.2415  0.2374
 4654TIP3    H135597   0.327   1.921   1.552 -0.1405  1.8603  0.7669
 4654TIP3    H235598   0.185   1.894   1.507 -0.2639  0.4058  1.9836
 4655TIP3   OH235599   1.484   6.114   8.111 -0.3521 -0.3993 -0.2269
 4655TIP3    H135600   1.458   6.088   8.199  1.9153  0.5610  0.8026
 4655TIP3    H235601   1.526   6.036   8.075 -0.7021 -0.5969 -0.2100
 4656TIP3   OH235602   3.431   5.934   1.999  0.1435  0.8683  0.2593
 4656TIP3    H135603   3.451   5.985   2.078  1.4805  0.0702  0.4632
 4656TIP3    H235604   3.340   5.906   2.011  0.0217  1.5664  1.0530
 4657TIP3   OH235605   1.932   4.269   8.863  0.0454 -0.0299  0.7550
 4657TIP3    H135606   1.997   4.203   8.840  0.9702  0.5627  1.6041
 4657TIP3    H235607   1.946   4.286   8.956 -0.6760  0.8205  0.7281
 4658TIP3   OH235608   3.702   1.927   7.439  0.0319  0.3454 -0.0455
 4658TIP3    H135609   3.666   1.842   7.463  0.6957 -0.4678 -1.7619
 4658TIP3    H235610   3.643   1.960   7.371  1.2577 -0.0375 -1.3501
 4659TIP3   OH235611   5.980   4.167   1.029 -0.6562  0.1564 -0.3445
 4659TIP3    H135612   6.000   4.256   1.001 -1.6032  0.6327  0.4175
 4659TIP3    H235613   5.938   4.127   0.953 -2.8756  1.3211  0.1810
 4660TIP3   OH235614   2.085   0.993   0.863 -0.7844 -0.3462 -0.2990
 4660TIP3    H135615   2.001   0.948   0.856 -0.2190 -1.2214 -1.7487
 4660TIP3    H235616   2.147   0.924   0.887 -0.1485 -0.0696 -1.1434
 4661TIP3   OH235617   4.517   2.835   1.212 -0.1847 -0.2360 -0.1510
 4661TIP3    H135618   4.540   2.743   1.202 -0.1365 -0.1556 -0.8176
 4661TIP3    H235619   4.484   2.862   1.126  1.6047  0.8583 -0.5660
 4662TIP3   OH235620   4.174   4.453   2.012  0.4191  0.4536 -0.6115
 4662TIP3    H135621   4.193   4.438   2.105 -0.6616  0.4521 -0.3829
 4662TIP3    H235622   4.248   4.506   1.982 -0.1085  2.0488  0.7159
 4663TIP3   OH235623   6.223   4.248   8.028  0.0929  0.4929  0.1427
 4663TIP3    H135624   6.294   4.190   8.000 -0.6650 -0.3212 -0.1517
 4663TIP3    H235625   6.252   4.336   8.003  1.3472  0.2721  0.7658
 4664TIP3   OH235626   4.168   3.936   6.922  0.3849  0.2531  0.2702
 4664TIP3    H135627   4.173   3.996   6.848  1.0260  0.3217  0.3653
 4664TIP3    H235628   4.241   3.961   6.979 -0.8114  1.0227  1.5489
 4665TIP3   OH235629   5.502   3.821   1.816  0.6355 -0.0158  0.4289
 4665TIP3    H135630   5.446   3.881   1.866  2.1662  0.8758  1.1388
 4665TIP3    H235631   5.443   3.784   1.750 -0.6155  1.4895  0.6195
 4666TIP3   OH235632   0.231   2.306   1.205 -0.0136 -0.2610  0.6215
 4666TIP3    H135633   0.162   2.285   1.142  1.1157  0.8444 -1.0751
 4666TIP3    H235634   0.203   2.389   1.244  1.1261  1.1496 -1.3900
 4667TIP3   OH235635   2.627   4.600   1.844  0.6227 -0.0936  0.0287
 4667TIP3    H135636   2.689   4.557   1.785  0.4953  0.9108 -0.8594
 4667TIP3    H235637   2.672   4.600   1.929  1.5632  0.0198 -0.4528
 4668TIP3   OH235638   0.355   3.608   7.624  0.2043  0.0967  0.2953
 4668TIP3    H135639   0.447   3.617   7.601  0.4767  0.2387  1.3824
 4668TIP3    H235640   0.355   3.593   7.719 -0.9528  1.1704  0.4912
 4669TIP3   OH235641   4.560   3.578   2.633  0.3735  0.0973  0.1006
 4669TIP3    H135642   4.478   3.583   2.583  0.3489 -1.2525 -0.0167
 4669TIP3    H235643   4.619   3.638   2.587  0.0997 -0.4962 -1.0742
 4670TIP3   OH235644   2.779   6.180   2.334  0.3343  0.2659 -0.5251
 4670TIP3    H135645   2.705   6.121   2.317  0.5841  0.2108 -1.4504
 4670TIP3    H235646   2.744   6.267   2.318 -0.0588  0.4074  0.9253
 4671TIP3   OH235647   3.050   4.547   1.687  0.3061  0.5258 -0.1167
 4671TIP3    H135648   3.095   4.631   1.696  1.2429  0.0882 -0.5600
 4671TIP3    H235649   3.048   4.531   1.593  0.5117 -0.1441 -0.0109
 4672TIP3   OH235650   0.204   3.530   0.037 -0.0258  0.2424  0.2916
 4672TIP3    H135651   0.235   3.620   0.043 -0.3142  0.2534  3.6376
 4672TIP3    H235652   0.148   3.529  -0.041  2.3495  2.0976 -1.5823
 4673TIP3   OH235653   4.998   0.740   8.879 -0.2150  0.0630  0.2198
 4673TIP3    H135654   4.946   0.817   8.856 -0.1851  0.1252  0.3559
 4673TIP3    H235655   5.029   0.759   8.968  0.9633  0.5234 -0.2642
 4674TIP3   OH235656   1.833   6.143   8.795  0.2771  0.8304 -0.0074
 4674TIP3    H135657   1.801   6.223   8.753  0.6032  1.8159  1.5435
 4674TIP3    H235658   1.925   6.161   8.815  0.5775 -0.2429 -0.3379
 4675TIP3   OH235659   5.893   2.413   1.179  0.0378  0.8033 -0.1171
 4675TIP3    H135660   5.927   2.499   1.152  0.1804  0.2939 -1.6503
 4675TIP3    H235661   5.852   2.378   1.100  0.8553 -0.9720  0.1992
 4676TIP3   OH235662   3.420   6.671   0.549  0.3344 -0.5774  0.5988
 4676TIP3    H135663   3.330   6.695   0.526  0.4602  0.4808  1.1553
 4676TIP3    H235664   3.469   6.678   0.467 -0.0096 -0.7869  0.3728
 4677TIP3   OH235665   0.150   6.438   2.484  0.3393  0.1281 -0.0778
 4677TIP3    H135666   0.138   6.526   2.518 -0.0036 -0.2396  0.7757
 4677TIP3    H235667   0.240   6.415   2.507  0.2858  0.0900  0.0954
 4678TIP3   OH235668   1.335   2.627   8.058 -0.0859 -0.1218  0.0627
 4678TIP3    H135669   1.390   2.684   8.005  1.6157 -1.0508  0.7400
 4678TIP3    H235670   1.245   2.651   8.036  0.5824  0.6791 -1.9222
 4679TIP3   OH235671   0.406   5.027   0.449 -0.0801  0.5365 -0.0039
 4679TIP3    H135672   0.471   5.022   0.519  1.3271  1.2510 -1.2001
 4679TIP3    H235673   0.438   5.095   0.391 -1.1451 -0.0986 -1.4097
 4680TIP3   OH235674   5.766   5.879   0.766  0.2219  0.0105  0.7163
 4680TIP3    H135675   5.815   5.865   0.847  0.1747  0.6152  0.8563
 4680TIP3    H235676   5.736   5.970   0.772  0.2875  0.0873 -0.0163
 4681TIP3   OH235677   4.092   0.597   0.980 -0.1091  0.1173  0.1746
 4681TIP3    H135678   4.117   0.682   1.017  1.0717  2.0484 -4.3895
 4681TIP3    H235679   4.003   0.609   0.949  0.6534  0.4424 -2.0787
 4682TIP3   OH235680   2.756   6.644   7.218  0.7649  0.1121 -0.0515
 4682TIP3    H135681   2.825   6.690   7.170  0.2452 -0.3954 -1.3493
 4682TIP3    H235682   2.675   6.686   7.189  0.5162  0.8386  1.6070
 4683TIP3   OH235683   0.704   6.684   8.265  0.0885  0.7799  0.1218
 4683TIP3    H135684   0.739   6.596   8.277 -1.6884  0.2407  1.9505
 4683TIP3    H235685   0.655   6.680   8.182 -1.2727 -0.4724  0.9309
 4684TIP3   OH235686   4.319   4.139   1.765 -0.1341  0.1892  0.7866
 4684TIP3    H135687   4.269   4.072   1.719 -0.7468  0.7627  0.6135
 4684TIP3    H235688   4.411   4.111   1.754 -0.4099 -0.9984  1.3360
 4685TIP3   OH235689   2.469   5.424   8.262 -0.0853 -0.1333 -0.5823
 4685TIP3    H135690   2.552   5.389   8.228 -0.1400  0.1744 -1.0280
 4685TIP3    H235691   2.495   5.475   8.338 -0.0452 -1.5415  0.3912
 4686TIP3   OH235692   3.071   3.866   1.001  0.1460 -0.5358  0.0641
 4686TIP3    H135693   3.057   3.825   1.087 -1.9503  0.1230  0.0866
 4686TIP3    H235694   3.032   3.804   0.939  0.1127 -0.1993 -0.2508
 4687TIP3   OH235695   4.135   0.816   1.183  0.4192  0.0479 -0.6815
 4687TIP3    H135696   4.148   0.891   1.242 -0.5778 -0.6624  0.4785
 4687TIP3    H235697   4.124   0.856   1.097  0.3127  1.2163 -0.1560
 4688TIP3   OH235698   5.067   3.805   1.523  0.5631  0.4737  0.0998
 4688TIP3    H135699   5.048   3.738   1.589  1.5239 -0.2479 -0.3333
 4688TIP3    H235700   5.142   3.852   1.557  0.9852  0.1818 -0.4133
 4689TIP3   OH235701   0.714   2.877   0.038  0.0071  0.3258  0.2565
 4689TIP3    H135702   0.700   2.805  -0.024 -1.7004 -0.6096  1.6306
 4689TIP3    H235703   0.648   2.942   0.016 -1.0125 -0.2770  1.4094
 4690TIP3   OH235704   5.526   5.438   2.442  0.0659  0.2589 -0.7741
 4690TIP3    H135705   5.586   5.503   2.480 -0.6777  0.9671 -0.7798
 4690TIP3    H235706   5.473   5.408   2.515  0.4491 -0.4066 -0.7601
 4691TIP3   OH235707   6.394   4.797   8.965 -0.3770 -0.0289 -0.2852
 4691TIP3    H135708   6.351   4.841   8.892 -1.2705  1.2885  0.9919
 4691TIP3    H235709   6.472   4.849   8.983 -1.5947  1.2997  1.4235
 4692TIP3   OH235710   0.826   3.536   8.705  0.3388 -0.5937  0.2767
 4692TIP3    H135711   0.736   3.504   8.709  0.2306 -0.4324 -0.6591
 4692TIP3    H235712   0.855   3.537   8.797 -0.2955 -1.5189  0.5095
 4693TIP3   OH235713   4.788   4.410   0.839 -0.2104  0.0459  0.5959
 4693TIP3    H135714   4.710   4.358   0.818  0.2111 -0.2924 -0.1674
 4693TIP3    H235715   4.810   4.385   0.929  0.4650 -1.7421 -0.0217
 4694TIP3   OH235716   2.066   5.091   0.862  0.5470 -0.4435 -0.3945
 4694TIP3    H135717   2.039   5.062   0.775 -0.6443  1.4713 -0.7230
 4694TIP3    H235718   2.161   5.090   0.859  0.5731  1.0277 -2.3066
 4695TIP3   OH235719   0.788   0.064   7.841 -0.7530 -0.2996  0.1326
 4695TIP3    H135720   0.697   0.079   7.818 -0.7578  1.8462  1.2353
 4695TIP3    H235721   0.810   0.137   7.899  1.1431 -1.7673  1.3870
 4696TIP3   OH235722   0.736   2.085   8.011  0.0526  0.1084  0.5634
 4696TIP3    H135723   0.695   2.093   7.925  1.1963 -1.6166 -0.2016
 4696TIP3    H235724   0.683   2.021   8.057 -0.4589  0.9038  1.0999
 4697TIP3   OH235725   3.768   4.618   1.865  0.2815 -0.2201 -0.1075
 4697TIP3    H135726   3.782   4.668   1.784  3.2565  0.4077  0.6702
 4697TIP3    H235727   3.727   4.537   1.836  1.7944 -0.2765 -2.3628
 4698TIP3   OH235728   6.152   3.946   1.996  0.9232 -0.4810  0.0153
 4698TIP3    H135729   6.080   3.894   1.959 -0.2346  2.0156 -1.5138
 4698TIP3    H235730   6.123   3.968   2.084  0.1924 -0.2943 -0.2577
 4699TIP3   OH235731   3.834   1.247   1.300  0.3274 -0.0556 -0.1121
 4699TIP3    H135732   3.756   1.218   1.253  1.0321  1.2328 -2.2105
 4699TIP3    H235733   3.895   1.274   1.231  1.5463  1.6618  1.5366
 4700TIP3   OH235734   2.148   0.012   1.562  0.0033  0.0589 -0.0563
 4700TIP3    H135735   2.164   0.047   1.475  1.7890 -1.5343 -0.4416
 4700TIP3    H235736   2.073   0.062   1.595  0.3185  1.8342 -1.8303
 4701TIP3   OH235737   2.799   3.356   8.153 -0.0514 -0.1948 -0.4903
 4701TIP3    H135738   2.721   3.347   8.098 -0.0596  0.6321 -0.6294
 4701TIP3    H235739   2.779   3.305   8.232 -2.3056  2.8798  1.1371
 4702TIP3   OH235740   4.895   3.550   6.912  0.5035 -0.3286 -0.0166
 4702TIP3    H135741   4.965   3.611   6.889  0.0539 -0.1125 -0.8750
 4702TIP3    H235742   4.926   3.465   6.880  0.3398 -0.2145 -0.4932
 4703TIP3   OH235743   3.134   2.865   7.056  0.7739  0.4431 -0.1762
 4703TIP3    H135744   3.043   2.846   7.079  0.1077  3.6330  0.3752
 4703TIP3    H235745   3.140   2.842   6.963 -0.3236 -0.6712  0.0011
 4704TIP3   OH235746   6.426   1.007   1.315 -0.4407 -0.0878  0.7381
 4704TIP3    H135747   6.397   0.943   1.250  0.5381  0.6098 -0.4266
 4704TIP3    H235748   6.422   0.959   1.398 -1.2855 -1.1395  0.1250
 4705TIP3   OH235749   2.254   3.673   8.762 -0.1617 -0.0005 -0.2004
 4705TIP3    H135750   2.214   3.608   8.820 -0.1330 -0.5985 -0.8357
 4705TIP3    H235751   2.184   3.736   8.744 -0.3789 -0.2123 -0.0995
 4706TIP3   OH235752   3.293   5.375   1.709  0.0879  0.1863  0.0718
 4706TIP3    H135753   3.351   5.439   1.668  0.2455 -1.0272 -1.6951
 4706TIP3    H235754   3.328   5.365   1.798 -0.8276  3.6040  0.9915
 4707TIP3   OH235755   3.576   4.771   8.355  0.6882  0.2862  0.2811
 4707TIP3    H135756   3.546   4.844   8.300  1.8626 -0.2339 -1.1221
 4707TIP3    H235757   3.580   4.807   8.443 -0.1048  1.5119 -0.1586
 4708TIP3   OH235758   0.102   1.477   1.943 -0.1700  0.1444 -0.0141
 4708TIP3    H135759   0.038   1.424   1.992 -0.8064 -1.2215 -2.1788
 4708TIP3    H235760   0.175   1.488   2.004 -0.3190 -2.6561  0.8395
 4709TIP3   OH235761   2.015   4.028   7.580 -0.1355 -0.0958  0.2148
 4709TIP3    H135762   1.938   4.071   7.544 -0.2874 -1.0992 -0.7237
 4709TIP3    H235763   1.984   3.939   7.601  0.2265  0.1287  1.8444
 4710TIP3   OH235764   1.450   0.488   7.172  0.8358 -0.7514 -0.2125
 4710TIP3    H135765   1.450   0.431   7.096  3.2166 -0.7409 -0.2874
 4710TIP3    H235766   1.446   0.577   7.136 -3.5076 -0.6737 -0.0846
 4711TIP3   OH235767   3.526   1.012   8.715  0.0366 -0.3716 -0.0003
 4711TIP3    H135768   3.562   1.090   8.757 -1.5591  1.3492 -1.6446
 4711TIP3    H235769   3.596   0.983   8.656  0.6223 -0.1362  0.5637
 4712TIP3   OH235770   6.759   2.192   0.379  0.1844  0.2757 -0.5038
 4712TIP3    H135771   6.702   2.144   0.318 -0.2456 -0.8377  0.7160
 4712TIP3    H235772   6.719   2.278   0.386 -0.8198 -0.1820 -0.4081
 4713TIP3   OH235773   6.567   0.161   0.721 -0.2897  0.4428 -0.0384
 4713TIP3    H135774   6.612   0.224   0.778 -0.6810  1.0758 -0.4242
 4713TIP3    H235775   6.498   0.212   0.678 -0.3976 -0.1714 -0.6088
 4714TIP3   OH235776   0.498   1.411   0.230  0.1122 -0.4543  0.1942
 4714TIP3    H135777   0.578   1.444   0.190 -0.1275  0.8418  0.7480
 4714TIP3    H235778   0.524   1.383   0.317 -0.3258  1.5993  1.0327
 4715TIP3   OH235779   1.762   0.806   6.604  0.1230  0.3914 -0.3904
 4715TIP3    H135780   1.763   0.713   6.626  0.1370  0.2426 -1.0097
 4715TIP3    H235781   1.854   0.828   6.587  0.1740  0.6181  0.1303
 4716TIP3   OH235782   4.122   2.818   8.418  0.0258 -0.2455 -0.5868
 4716TIP3    H135783   4.030   2.839   8.404 -0.5263 -2.2290 -0.1932
 4716TIP3    H235784   4.148   2.767   8.341  0.6282 -0.2288 -0.4045
 4717TIP3   OH235785   6.393   1.271   1.403  0.8511 -0.0086 -0.8767
 4717TIP3    H135786   6.425   1.339   1.344  1.1396  0.0385 -0.6718
 4717TIP3    H235787   6.387   1.193   1.349  1.0120  0.0597 -0.9953
 4718TIP3   OH235788   0.247   2.494   7.533 -0.3780 -0.0020 -0.0367
 4718TIP3    H135789   0.197   2.567   7.570 -2.6221 -1.5450  0.1826
 4718TIP3    H235790   0.181   2.441   7.488  1.2721 -1.6020 -0.6604
 4719TIP3   OH235791   5.337   2.928   1.963  0.1279  0.5919 -0.3254
 4719TIP3    H135792   5.428   2.941   1.990 -0.0897  0.5162  0.4801
 4719TIP3    H235793   5.308   3.014   1.935  0.3849  0.6556 -0.4030
 4720TIP3   OH235794   1.317   1.613   0.413  0.1735  0.2554  0.0135
 4720TIP3    H135795   1.309   1.577   0.325  2.0412 -1.4051  0.4552
 4720TIP3    H235796   1.388   1.563   0.453  0.5433  2.1419  1.8873
 4721TIP3   OH235797   6.284   0.166   8.536 -0.0867  0.1123 -0.7241
 4721TIP3    H135798   6.192   0.149   8.556  0.0204 -0.8204 -0.9722
 4721TIP3    H235799   6.332   0.127   8.609  0.1065  0.8051 -0.4779
 4722TIP3   OH235800   5.775   5.197   1.642  0.2105 -0.0818 -0.1941
 4722TIP3    H135801   5.818   5.273   1.603  0.2344  0.1105  0.1990
 4722TIP3    H235802   5.779   5.213   1.737 -0.2220 -0.3350 -0.1303
 4723TIP3   OH235803   1.870   1.402   1.035 -0.1296 -0.8794  0.0467
 4723TIP3    H135804   1.785   1.413   0.992 -0.0529  0.5946  0.2348
 4723TIP3    H235805   1.934   1.431   0.969  0.1229 -0.5307  0.4430
 4724TIP3   OH235806   5.288   3.591   7.049  0.1020  0.3792 -0.5351
 4724TIP3    H135807   5.296   3.646   6.972 -0.5189  0.1237 -0.7830
 4724TIP3    H235808   5.226   3.636   7.106 -0.8847 -0.3594 -1.0076
 4725TIP3   OH235809   1.738   3.347   1.517  0.3340  0.3943 -0.4435
 4725TIP3    H135810   1.813   3.297   1.483  0.4224  0.8087 -0.8560
 4725TIP3    H235811   1.680   3.357   1.442 -0.3922 -0.3836  0.0002
 4726TIP3   OH235812   1.098   2.446   8.616 -0.2551 -0.3500  0.5106
 4726TIP3    H135813   1.003   2.453   8.624 -0.3079  0.6538 -0.7216
 4726TIP3    H235814   1.119   2.497   8.538  1.5121  1.2958  1.9801
 4727TIP3   OH235815   1.226   1.976   0.173  0.2030 -0.1336 -0.0886
 4727TIP3    H135816   1.292   1.985   0.104  1.3699  2.2960  1.2314
 4727TIP3    H235817   1.146   2.013   0.134  0.3714 -0.4005 -0.7089
 4728TIP3   OH235818   3.487   2.309   7.534 -0.4194 -0.4221 -0.4137
 4728TIP3    H135819   3.518   2.253   7.605 -1.6104 -3.3071 -2.0269
 4728TIP3    H235820   3.396   2.284   7.520 -0.3735  0.3820 -2.6503
 4729TIP3   OH235821   0.870   6.329   8.965 -0.0767 -0.1067  0.2194
 4729TIP3    H135822   0.906   6.279   9.038  0.5601  0.3860  0.2592
 4729TIP3    H235823   0.866   6.267   8.893 -0.8044 -0.6237  0.6948
 4730TIP3   OH235824   0.616   6.400   0.792  0.3442  0.5238 -0.3461
 4730TIP3    H135825   0.601   6.322   0.846 -1.0017  0.9420 -0.0803
 4730TIP3    H235826   0.615   6.367   0.702  0.6222  0.1095 -0.1993
 4731TIP3   OH235827   0.903   1.034   7.647  0.2890 -0.2829 -0.5948
 4731TIP3    H135828   0.885   1.007   7.737 -0.6551  1.5281 -0.2144
 4731TIP3    H235829   0.989   0.995   7.628  0.2576 -1.1553  0.8728
 4732TIP3   OH235830   2.568   4.820   7.351  0.1501 -0.0575 -0.3490
 4732TIP3    H135831   2.522   4.902   7.330  1.2593  0.8000  0.4175
 4732TIP3    H235832   2.560   4.767   7.272  0.4874  1.3022 -1.3293
 4733TIP3   OH235833   1.460   5.250   0.664  0.1327  0.1544 -0.4266
 4733TIP3    H135834   1.507   5.322   0.706 -2.4671  2.0974 -0.5240
 4733TIP3    H235835   1.515   5.224   0.590  1.0594  2.2908 -0.5542
 4734TIP3   OH235836   2.275   5.264   8.766 -0.0211 -0.0950  0.5201
 4734TIP3    H135837   2.349   5.205   8.780  0.3083  0.1408 -0.1940
 4734TIP3    H235838   2.198   5.207   8.770  0.3070 -0.6243 -0.3729
 4735TIP3   OH235839   5.388   1.780   0.592 -0.3981  0.3683 -0.1735
 4735TIP3    H135840   5.347   1.834   0.525 -0.4456  0.6031  0.0465
 4735TIP3    H235841   5.363   1.820   0.675 -1.0453 -0.4281  0.0197
 4736TIP3   OH235842   4.034   1.933   8.175 -0.1805 -0.5097  0.1809
 4736TIP3    H135843   4.095   1.872   8.218  2.1698  1.6841  0.1956
 4736TIP3    H235844   4.023   1.896   8.087  0.2336 -1.5879  0.5630
 4737TIP3   OH235845   6.216   5.420   1.952  0.5738  0.2645 -0.1539
 4737TIP3    H135846   6.223   5.441   1.859 -0.5507 -0.0805 -0.3373
 4737TIP3    H235847   6.277   5.480   1.996 -0.5661  2.0450 -0.8890
 4738TIP3   OH235848   3.752   0.389   7.369  0.3382 -0.4704  0.0175
 4738TIP3    H135849   3.815   0.352   7.432  1.2623 -1.0694 -1.1953
 4738TIP3    H235850   3.792   0.371   7.283 -1.1838 -0.2629 -0.7650
 4739TIP3   OH235851   0.513   1.712   2.258  0.3368  0.7807 -0.2940
 4739TIP3    H135852   0.426   1.736   2.228  0.2087  0.4624 -0.1813
 4739TIP3    H235853   0.531   1.627   2.217  1.0165  1.3240 -1.1395
 4740TIP3   OH235854   6.356   0.988   8.410 -0.3742 -0.4153  0.2171
 4740TIP3    H135855   6.344   0.946   8.496  0.5696 -0.2341  0.4401
 4740TIP3    H235856   6.331   1.079   8.424 -0.9627 -0.5527  0.1015
 4741TIP3   OH235857   3.286   6.645   8.334 -0.2135  0.2309  0.1179
 4741TIP3    H135858   3.357   6.693   8.379 -1.3084  1.5468  0.5071
 4741TIP3    H235859   3.295   6.669   8.242 -0.5536  0.9353  0.2645
 4742TIP3   OH235860   5.163   6.065   7.819 -0.2220  0.5427  0.9387
 4742TIP3    H135861   5.230   6.037   7.882 -0.0110 -1.3137 -0.0403
 4742TIP3    H235862   5.112   5.986   7.802  0.2131  0.7390 -1.7743
 4743TIP3   OH235863   4.675   2.501   7.788  0.2956 -0.1932  0.3805
 4743TIP3    H135864   4.642   2.434   7.847  1.5205 -0.0640  1.2577
 4743TIP3    H235865   4.751   2.460   7.746 -0.0038  0.0420 -0.4164
 4744TIP3   OH235866   5.098   0.632   0.241  0.2401 -1.2224 -0.2930
 4744TIP3    H135867   5.165   0.696   0.266 -0.9936 -0.0240  0.0749
 4744TIP3    H235868   5.036   0.682   0.188 -1.2738 -1.8385  0.8237
 4745TIP3   OH235869   2.658   4.398   7.768 -0.1765  0.2002 -0.1756
 4745TIP3    H135870   2.730   4.423   7.826 -0.3504 -0.2904  0.2655
 4745TIP3    H235871   2.605   4.338   7.821 -0.4195 -0.1444 -0.7970
 4746TIP3   OH235872   1.175   6.028   6.918 -0.2484 -0.1022 -0.1154
 4746TIP3    H135873   1.203   5.975   6.843 -1.2816  1.2448 -1.5084
 4746TIP3    H235874   1.242   6.095   6.927  2.1038 -2.5261  2.8500
 4747TIP3   OH235875   0.554   1.782   7.093 -0.2979  0.9350  0.5773
 4747TIP3    H135876   0.491   1.742   7.033  1.3220  1.8255 -1.8813
 4747TIP3    H235877   0.508   1.859   7.127 -0.2166  2.4227 -2.3106
 4748TIP3   OH235878   3.400   6.351   0.581 -0.3792 -0.4549 -0.0296
 4748TIP3    H135879   3.429   6.435   0.546  0.5113 -1.3899 -1.6400
 4748TIP3    H235880   3.397   6.365   0.676 -1.1138  1.6284 -0.3078
 4749TIP3   OH235881   0.664   2.914   1.018 -0.1730 -0.0253 -0.1187
 4749TIP3    H135882   0.615   2.833   1.033  0.9897 -0.8206 -0.5033
 4749TIP3    H235883   0.743   2.887   0.972  0.0202  1.3981 -0.6854
 4750TIP3   OH235884   5.751   0.104   8.393 -1.1417 -0.3519  0.0029
 4750TIP3    H135885   5.789   0.150   8.468  0.8321 -0.2634 -1.0109
 4750TIP3    H235886   5.658   0.129   8.395 -0.7911  1.0186  1.4080
 4751TIP3   OH235887   1.886   3.265   6.636 -0.1025 -0.2406 -0.0771
 4751TIP3    H135888   1.981   3.277   6.635 -0.3937  2.5828 -0.7443
 4751TIP3    H235889   1.865   3.232   6.548  0.3322 -2.0687  0.4692
 4752TIP3   OH235890   0.157   2.849   8.030  0.5334 -0.1655 -0.9585
 4752TIP3    H135891   0.162   2.848   8.125  0.9117 -1.5496 -0.9748
 4752TIP3    H235892   0.064   2.832   8.011 -0.2549  3.3262 -0.8580
 4753TIP3   OH235893   0.493   6.607   7.646  0.9022  0.0877  0.1266
 4753TIP3    H135894   0.413   6.608   7.593 -0.3454 -0.6919  1.8764
 4753TIP3    H235895   0.525   6.697   7.643 -0.2846  0.5129 -0.2995
 4754TIP3   OH235896   2.421   2.318   8.297  0.1649  0.4731 -0.5468
 4754TIP3    H135897   2.362   2.394   8.296  0.4987  0.7291 -1.4126
 4754TIP3    H235898   2.380   2.254   8.240 -0.5709 -0.3813  0.8684
 4755TIP3   OH235899   4.610   4.423   8.633  0.1042  0.3168  0.1826
 4755TIP3    H135900   4.686   4.481   8.642 -0.3619  0.8571  0.6653
 4755TIP3    H235901   4.614   4.393   8.542  0.3554  1.0957 -0.0717
 4756TIP3   OH235902   1.702   6.193   7.658  0.3249  0.3390 -0.1242
 4756TIP3    H135903   1.719   6.146   7.576 -0.1479  0.0151 -0.0423
 4756TIP3    H235904   1.648   6.133   7.709  0.7086  0.4931  0.4742
 4757TIP3   OH235905   3.746   4.026   8.459 -0.6650 -0.4547  0.3891
 4757TIP3    H135906   3.811   3.957   8.462 -0.3301 -0.1110  1.1840
 4757TIP3    H235907   3.667   3.984   8.423 -0.5660 -1.3243  1.1813
 4758TIP3   OH235908   1.114   0.006   6.935  0.0585  0.3474  0.2826
 4758TIP3    H135909   1.171  -0.026   6.865  0.2383  0.6679  0.2777
 4758TIP3    H235910   1.163  -0.013   7.016 -1.5819 -3.1222  0.6332
 4759TIP3   OH235911   4.589   4.151   8.647  0.2925 -0.0302 -0.1755
 4759TIP3    H135912   4.599   4.245   8.631  1.2709 -0.0356  0.3075
 4759TIP3    H235913   4.673   4.114   8.620  0.6270 -0.5128  1.4530
 4760TIP3   OH235914   6.389   0.478   1.706 -0.2369 -0.5620  0.1810
 4760TIP3    H135915   6.385   0.450   1.798  2.2547  2.0569  1.2527
 4760TIP3    H235916   6.364   0.570   1.708  0.0822 -0.4033 -1.7534
 4761TIP3   OH235917   2.866   4.571   7.236 -0.4379 -0.1838  0.0215
 4761TIP3    H135918   2.795   4.535   7.290  0.9668 -0.5673  1.6774
 4761TIP3    H235919   2.915   4.628   7.296  1.8661 -1.5351 -0.4981
 4762TIP3   OH235920   4.257   4.692   2.630 -0.0438 -0.4952 -0.1248
 4762TIP3    H135921   4.289   4.778   2.604 -0.2513 -0.8454 -1.6490
 4762TIP3    H235922   4.235   4.701   2.723 -0.3368  1.1690 -0.3321
 4763TIP3   OH235923   1.709   2.579   7.936 -0.0673 -0.0445  0.2757
 4763TIP3    H135924   1.731   2.564   7.844  1.2544 -0.1189  0.5806
 4763TIP3    H235925   1.769   2.523   7.985  0.5080  1.3238  1.2259
 4764TIP3   OH235926   5.071   6.522   1.699  0.3167 -0.1462 -0.1712
 4764TIP3    H135927   5.120   6.467   1.639  0.5260  0.3531 -0.4613
 4764TIP3    H235928   5.127   6.598   1.716 -0.7081  0.9099 -1.2666
 4765TIP3   OH235929   4.430   5.976   8.902  0.1154 -0.7215 -0.3208
 4765TIP3    H135930   4.494   6.018   8.844  1.8255 -0.5619  1.5648
 4765TIP3    H235931   4.459   5.884   8.906  0.9041 -0.4414  1.3175
 4766TIP3   OH235932   4.141   4.993   2.415 -0.5458  0.1779  0.5810
 4766TIP3    H135933   4.166   5.057   2.350 -1.4777 -1.0692 -1.0788
 4766TIP3    H235934   4.176   4.910   2.383  1.2546 -0.1207  3.0225
 4767TIP3   OH235935   2.120   4.757   0.169 -0.0087 -0.0688  0.6084
 4767TIP3    H135936   2.073   4.838   0.150 -0.9246 -1.1503 -2.2361
 4767TIP3    H235937   2.075   4.719   0.244 -1.7170  0.4510 -0.1247
 4768TIP3   OH235938   2.646   0.722   6.759 -0.8934  0.1898 -0.0792
 4768TIP3    H135939   2.696   0.697   6.681  0.1088 -0.5617  0.7805
 4768TIP3    H235940   2.655   0.647   6.818  0.2765  1.6466  1.6733
 4769TIP3   OH235941   5.902   1.838   0.433 -0.1311  0.1949  0.2962
 4769TIP3    H135942   5.920   1.852   0.340 -0.4681  2.4214  0.5303
 4769TIP3    H235943   5.819   1.790   0.435 -0.1125  0.1212 -0.5325
 4770TIP3   OH235944   3.409   2.907   7.023  0.1036  0.1345 -0.1970
 4770TIP3    H135945   3.460   2.869   7.095 -0.3955  0.8754  0.5682
 4770TIP3    H235946   3.318   2.891   7.047 -0.1438  2.1909  0.3974
 4771TIP3   OH235947   4.226   1.083   1.972 -0.6997 -0.8163  0.3208
 4771TIP3    H135948   4.279   1.159   1.995 -1.3850  0.1915 -1.2694
 4771TIP3    H235949   4.284   1.008   1.985  1.7026  0.3081 -2.6291
 4772TIP3   OH235950   5.906   5.611   1.300 -0.2709 -0.2290 -0.2111
 4772TIP3    H135951   5.890   5.591   1.208 -0.9009  1.1849 -0.4310
 4772TIP3    H235952   5.819   5.607   1.340 -0.2200  0.6116  0.0068
 4773TIP3   OH235953   6.296   4.674   8.380 -0.1419  0.0903  0.3783
 4773TIP3    H135954   6.333   4.585   8.383 -1.1453 -0.3531  3.7393
 4773TIP3    H235955   6.207   4.661   8.348  0.8043  0.4950 -2.7478
 4774TIP3   OH235956   1.363   6.169   7.886 -0.0067 -0.0758 -0.5675
 4774TIP3    H135957   1.346   6.263   7.877 -1.4108  0.0778  2.6064
 4774TIP3    H235958   1.396   6.159   7.975 -1.1107 -2.7486 -0.3784
 4775TIP3   OH235959   4.680   4.433   0.324  0.0455 -0.1236  0.8053
 4775TIP3    H135960   4.731   4.478   0.257 -1.1965  0.3670  0.1423
 4775TIP3    H235961   4.740   4.422   0.397  0.5739  2.1841  0.8107
 4776TIP3   OH235962   0.466   3.475   1.872 -0.2614  0.4233 -0.7462
 4776TIP3    H135963   0.426   3.513   1.950 -0.7331  1.0302 -1.2699
 4776TIP3    H235964   0.539   3.533   1.852  0.7518 -0.5396  0.0603
 4777TIP3   OH235965   1.926   0.449   7.581  0.2957  0.0476 -0.1824
 4777TIP3    H135966   1.846   0.493   7.552  0.2510 -0.1577 -0.3717
 4777TIP3    H235967   1.940   0.481   7.670 -0.5610 -0.6862  0.2341
 4778TIP3   OH235968   0.991   1.923   0.902 -0.5193 -0.1416 -0.3598
 4778TIP3    H135969   1.023   1.895   0.987  2.1000  0.4009 -1.0931
 4778TIP3    H235970   0.930   1.995   0.922  3.1796  2.9223  1.0420
 4779TIP3   OH235971   1.659   5.129   0.939  0.0528 -0.0809  0.0871
 4779TIP3    H135972   1.568   5.108   0.963  0.4069 -0.7500  0.8671
 4779TIP3    H235973   1.655   5.148   0.845 -1.2316  1.7924  0.4510
 4780TIP3   OH235974   5.818   1.931   8.690 -0.0059  0.1441  0.3180
 4780TIP3    H135975   5.858   1.870   8.627 -1.9307  0.1683 -1.0050
 4780TIP3    H235976   5.759   1.876   8.742 -0.2004  0.5244  0.5046
 4781TIP3   OH235977   3.836   2.210   1.320  0.0975 -0.3527  0.7283
 4781TIP3    H135978   3.864   2.279   1.379  0.5278 -0.0418  0.1742
 4781TIP3    H235979   3.888   2.224   1.241 -2.9589  1.4736 -1.1432
 4782TIP3   OH235980   4.888   3.532   8.257 -0.4807  0.0739 -0.4683
 4782TIP3    H135981   4.963   3.474   8.245  0.6183  1.1272  0.9165
 4782TIP3    H235982   4.880   3.579   8.174  1.2107  0.8200 -0.2604
 4783TIP3   OH235983   2.538   3.884   2.365  0.5521 -0.1797  0.0401
 4783TIP3    H135984   2.572   3.947   2.302  0.6824 -0.4638 -0.1772
 4783TIP3    H235985   2.470   3.836   2.318 -1.1921  1.3445  0.9052
 4784TIP3   OH235986   1.208   0.384   8.112 -0.0069  0.0344  0.6632
 4784TIP3    H135987   1.262   0.452   8.153  0.5889  1.3625 -2.1264
 4784TIP3    H235988   1.127   0.429   8.087 -0.0174 -0.5039 -0.3267
 4785TIP3   OH235989   4.789   4.043   0.435 -0.2995 -0.3262 -0.2340
 4785TIP3    H135990   4.721   4.065   0.371  1.1706 -0.2266 -1.8524
 4785TIP3    H235991   4.865   4.020   0.381  0.3377 -2.5267  1.4680
 4786TIP3   OH235992   5.302   5.241   0.180  0.8888 -0.0486  0.3292
 4786TIP3    H135993   5.305   5.332   0.209  1.0145 -0.0543  0.3345
 4786TIP3    H235994   5.335   5.242   0.091  0.0009  0.0433 -0.0138
 4787TIP3   OH235995   5.234   6.680   1.265  0.1429  0.1988  0.9635
 4787TIP3    H135996   5.156   6.721   1.227  0.6127 -0.6039 -0.9845
 4787TIP3    H235997   5.303   6.746   1.258  0.1911  0.1059  0.5205
 4788TIP3   OH235998   4.934   3.479   7.678 -0.2780 -0.3593  0.8106
 4788TIP3    H135999   4.980   3.488   7.594  0.4663 -1.5533  1.0756
 4788TIP3    H236000   4.867   3.548   7.675 -0.7636 -0.8479 -1.0835
 4789TIP3   OH236001   4.177   5.587   8.043  0.3112  0.0845  0.1924
 4789TIP3    H136002   4.258   5.566   8.090  1.6061  1.8366 -1.1816
 4789TIP3    H236003   4.197   5.571   7.951 -0.5014  1.6523 -0.2912
 4790TIP3   OH236004   5.445   1.300   8.763  0.0790 -0.4316 -0.3491
 4790TIP3    H136005   5.444   1.340   8.850  2.2013 -0.4228 -0.2846
 4790TIP3    H236006   5.471   1.209   8.778  0.0221 -0.5474 -0.9220
 4791TIP3   OH236007   4.868   5.337   6.832 -0.3653 -0.6787  0.1241
 4791TIP3    H136008   4.871   5.420   6.784 -0.1488 -0.8321 -0.1311
 4791TIP3    H236009   4.775   5.322   6.848 -0.4255 -0.5197 -0.0678
 4792TIP3   OH236010   5.015   6.628   0.306  0.2575  0.4358 -0.2665
 4792TIP3    H136011   4.950   6.578   0.355  0.5674  1.5820  1.3781
 4792TIP3    H236012   5.075   6.561   0.272  1.4830 -0.3584  3.0610
 4793TIP3   OH236013   4.013   5.182   1.693 -0.2723  0.3080  0.1796
 4793TIP3    H136014   3.967   5.245   1.749 -3.2681 -0.8760 -0.7747
 4793TIP3    H236015   3.945   5.143   1.639  1.7650 -2.2685 -0.7611
 4794TIP3   OH236016   3.657   1.148   8.404 -0.1723  0.0383 -0.2504
 4794TIP3    H136017   3.611   1.157   8.321  1.2414 -0.9218 -1.1759
 4794TIP3    H236018   3.646   1.233   8.447 -3.0206 -0.2340 -0.2660
 4795TIP3   OH236019   2.733   4.383   8.555  0.0557 -0.6594 -0.3120
 4795TIP3    H136020   2.735   4.393   8.651  3.7981  0.7439 -0.3717
 4795TIP3    H236021   2.726   4.473   8.522  2.6943 -0.7058 -1.2201
 4796TIP3   OH236022   4.046   4.266   7.814 -0.4954 -0.3673 -0.3790
 4796TIP3    H136023   4.117   4.213   7.851 -1.3374 -0.7120  0.7917
 4796TIP3    H236024   4.091   4.334   7.765  0.7151  0.1500  1.3332
 4797TIP3   OH236025   1.927   3.771   7.634 -0.0886 -0.1311 -0.2795
 4797TIP3    H136026   1.832   3.775   7.640 -0.0281 -0.4056  3.1623
 4797TIP3    H236027   1.945   3.686   7.594 -1.3064 -0.6389  0.2009
 4798TIP3   OH236028   1.385   1.432   6.945  0.2983 -0.0327 -0.0474
 4798TIP3    H136029   1.372   1.430   6.850  0.2397  1.0532 -0.0793
 4798TIP3    H236030   1.476   1.459   6.956 -0.0636  1.1355  0.1971
 4799TIP3   OH236031   4.886   3.869   6.483  0.2534  0.2455 -0.1256
 4799TIP3    H136032   4.838   3.836   6.559  0.4024  1.9490  0.7628
 4799TIP3    H236033   4.978   3.865   6.509  0.4839 -1.0444 -1.0266
 4800TIP3   OH236034   6.377   2.791   1.566 -0.2629  0.9907 -0.0249
 4800TIP3    H136035   6.282   2.801   1.559 -0.1523  1.3798 -1.2593
 4800TIP3    H236036   6.396   2.798   1.659 -1.4577  0.8208  0.2353
 4801TIP3   OH236037   1.182   2.262   8.944 -0.0022 -0.0292 -0.0585
 4801TIP3    H136038   1.147   2.328   9.003  0.3462  0.4384 -0.3652
 4801TIP3    H236039   1.277   2.264   8.959  0.0963  0.1421 -0.6741
 4802TIP3   OH236040   5.748   4.552   1.059  0.3816  0.4317  0.0684
 4802TIP3    H136041   5.786   4.585   0.978 -1.4692 -1.0207 -1.4952
 4802TIP3    H236042   5.813   4.571   1.126  2.7803  0.0963 -2.0302
 4803TIP3   OH236043   3.501   0.701   8.594 -0.1398 -0.2588 -0.0767
 4803TIP3    H136044   3.549   0.776   8.560 -0.0659 -0.1906  0.1747
 4803TIP3    H236045   3.446   0.736   8.664 -0.3085 -0.3927 -0.1413
 4804TIP3   OH236046   0.835   3.519   1.071  0.9092  0.7281  0.2541
 4804TIP3    H136047   0.748   3.555   1.087  0.9679  1.4057 -0.8223
 4804TIP3    H236048   0.819   3.427   1.047  0.6314  0.4383  1.4943
 4805TIP3   OH236049   1.921   3.794   0.041 -0.5881  0.3210 -0.3692
 4805TIP3    H136050   1.870   3.761  -0.033 -0.5293 -1.3709  0.3103
 4805TIP3    H236051   2.007   3.754   0.030 -0.6334 -0.1112  0.7095
 4806TIP3   OH236052   6.524   4.872   7.555 -0.1912  0.2689 -0.1159
 4806TIP3    H136053   6.478   4.835   7.479  0.4431 -0.1838 -0.2893
 4806TIP3    H236054   6.481   4.831   7.630 -0.0930 -0.1386 -0.2756
 4807TIP3   OH236055   2.156   1.253   0.909 -0.2787 -0.6811 -0.7988
 4807TIP3    H136056   2.239   1.215   0.880 -0.6872 -1.9405 -0.3992
 4807TIP3    H236057   2.091   1.185   0.890 -0.7976 -0.9448  1.5636
 4808TIP3   OH236058   6.715   3.020   8.978 -0.2249  0.3977  0.1452
 4808TIP3    H136059   6.709   3.109   9.014  0.0055  1.0086 -1.2828
 4808TIP3    H236060   6.692   3.030   8.886  0.9807 -0.8312 -0.3148
 4809TIP3   OH236061   1.105   1.285   7.609 -0.5298  0.1817 -0.7439
 4809TIP3    H136062   1.112   1.194   7.638  1.2707  0.2547 -0.8337
 4809TIP3    H236063   1.050   1.281   7.531 -1.1054 -0.7258 -0.3086
 4810TIP3   OH236064   0.732   3.253   8.848  0.1329 -0.3242  0.2212
 4810TIP3    H136065   0.780   3.175   8.820  0.5259 -0.1778  0.4867
 4810TIP3    H236066   0.791   3.297   8.909 -1.1748 -1.2383  2.2188
 4811TIP3   OH236067   1.007   1.296   8.806  0.3259 -0.1551 -0.1575
 4811TIP3    H136068   1.076   1.316   8.742 -0.2966 -1.4273 -1.2567
 4811TIP3    H236069   0.929   1.280   8.754 -0.8284  1.1408  1.0625
 4812TIP3   OH236070   3.953   2.430   1.426  0.0493 -0.1146 -0.4266
 4812TIP3    H136071   4.036   2.417   1.472  0.2976  2.8946  0.1695
 4812TIP3    H236072   3.977   2.469   1.342 -0.7365  0.8596 -0.2206
 4813TIP3   OH236073   1.440   3.718   7.075  0.1964 -0.6007 -0.0872
 4813TIP3    H136074   1.363   3.696   7.023 -0.3723 -2.0361  1.2880
 4813TIP3    H236075   1.406   3.735   7.162  1.3768 -0.5948  0.3961
 4814TIP3   OH236076   4.226   1.096   8.696  0.0688 -0.6118 -0.2256
 4814TIP3    H136077   4.195   1.005   8.697  1.0554 -0.9648 -0.0691
 4814TIP3    H236078   4.317   1.090   8.727  0.4406  0.3102 -1.0792
 4815TIP3   OH236079   6.650   0.792   1.173  0.2130 -0.0577  0.5231
 4815TIP3    H136080   6.572   0.778   1.226 -1.2512  0.0296 -1.4750
 4815TIP3    H236081   6.654   0.887   1.162  1.7602  0.1213  2.1686
 4816TIP3   OH236082   1.750   0.146   1.959 -0.1448 -0.3845  0.3844
 4816TIP3    H136083   1.704   0.228   1.977 -1.8745 -1.7241  2.8805
 4816TIP3    H236084   1.801   0.130   2.038  0.1509 -1.6892 -0.0462
 4817TIP3   OH236085   5.150   4.764   0.852 -0.0675 -0.4665  0.1635
 4817TIP3    H136086   5.140   4.807   0.937 -2.8737  0.8704 -0.7405
 4817TIP3    H236087   5.229   4.804   0.814  1.1916 -1.0287  2.0145
 4818TIP3   OH236088   1.937   6.651   1.790 -0.4713 -0.5434 -0.3527
 4818TIP3    H136089   2.025   6.629   1.823 -0.1350 -0.2145 -1.0045
 4818TIP3    H236090   1.878   6.593   1.839 -0.0884  0.4704  1.3897
 4819TIP3   OH236091   5.972   1.916   8.376  0.1331  0.0778  0.1575
 4819TIP3    H136092   6.041   1.962   8.423 -0.3092  0.3510  0.5471
 4819TIP3    H236093   5.939   1.979   8.312  2.1803 -0.9607 -2.0573
 4820TIP3   OH236094   3.438   3.299   1.534  0.2515  0.2507 -0.0588
 4820TIP3    H136095   3.345   3.320   1.544  0.0368  0.3293 -1.8901
 4820TIP3    H236096   3.445   3.207   1.559 -0.4307  0.0838 -0.4640
 4821TIP3   OH236097   0.530   2.276   0.465 -0.4582  0.4097  0.5155
 4821TIP3    H136098   0.446   2.238   0.437 -0.2588 -0.3477  0.9164
 4821TIP3    H236099   0.506   2.340   0.531 -0.7045 -0.0557  0.8839
 4822TIP3   OH236100   1.682   5.339   0.044  0.2969  0.4319 -0.5900
 4822TIP3    H136101   1.658   5.428   0.018 -0.7159  0.6601  1.0123
 4822TIP3    H236102   1.679   5.340   0.140  1.4285 -1.0247 -0.4953
 4823TIP3   OH236103   4.235   3.787   8.765  0.1806  0.1010  0.4108
 4823TIP3    H136104   4.224   3.858   8.701  0.1174 -0.7473 -0.5582
 4823TIP3    H236105   4.218   3.828   8.850 -1.2509  0.9209 -0.2436
 4824TIP3   OH236106   2.011   3.817   8.338  0.0504  0.1089 -0.3905
 4824TIP3    H136107   1.921   3.796   8.315 -0.3176  0.2942  0.8238
 4824TIP3    H236108   2.058   3.733   8.330 -0.3794 -0.1383 -0.3152
 4825TIP3   OH236109   6.659   0.975   2.022  0.6400 -0.2741  0.4540
 4825TIP3    H136110   6.577   0.928   2.037 -0.0584  1.0788  1.0522
 4825TIP3    H236111   6.694   0.990   2.109  1.2456 -0.3462  0.2257
 4826TIP3   OH236112   4.826   5.977   8.027 -0.5154 -0.1145  0.4088
 4826TIP3    H136113   4.751   5.917   8.022 -0.6605  0.1079 -0.1065
 4826TIP3    H236114   4.805   6.035   8.100 -0.5187 -0.4898  0.7140
 4827TIP3   OH236115   5.290   6.039   8.926  0.0661  0.0984  0.0732
 4827TIP3    H136116   5.229   5.971   8.897  0.3655  0.6566 -1.9968
 4827TIP3    H236117   5.252   6.072   9.008 -0.8064 -1.5956  0.3847
 4828TIP3   OH236118   4.077   2.465   8.860  0.2309  0.0013  0.5329
 4828TIP3    H136119   4.039   2.552   8.852 -0.6345 -0.3084  1.0970
 4828TIP3    H236120   4.151   2.477   8.921 -0.0445  0.2967  0.8142
 4829TIP3   OH236121   0.482   4.750   7.631  0.2553 -0.1549 -0.9163
 4829TIP3    H136122   0.482   4.663   7.672 -0.7045 -0.3740 -1.3369
 4829TIP3    H236123   0.488   4.811   7.705  0.3236 -0.5675 -0.5731
 4830TIP3   OH236124   4.804   6.551   1.744 -0.0593  0.4764 -0.2883
 4830TIP3    H136125   4.896   6.524   1.748 -0.4132 -0.9299 -1.0473
 4830TIP3    H236126   4.796   6.597   1.660 -0.1889 -0.0155 -0.5511
 4831TIP3   OH236127   5.873   1.757   0.773  0.6036 -0.0766 -0.4456
 4831TIP3    H136128   5.800   1.742   0.833  0.8036 -0.5144 -0.3050
 4831TIP3    H236129   5.867   1.849   0.750  0.4090  0.0490  0.0948
 4832TIP3   OH236130   6.672   4.783   0.486  0.4731 -0.1292 -0.2208
 4832TIP3    H136131   6.713   4.869   0.479  1.3665 -0.5496 -0.3647
 4832TIP3    H236132   6.744   4.725   0.511 -0.1248 -0.8256 -0.0939
 4833TIP3   OH236133   5.661   3.884   6.480  0.4589  0.4267  0.5177
 4833TIP3    H136134   5.694   3.794   6.482 -0.9406 -0.1396 -0.0694
 4833TIP3    H236135   5.711   3.930   6.547  2.5599 -0.2864 -0.4653
 4834TIP3   OH236136   0.385   4.864   6.685 -0.4968 -0.2838  0.0159
 4834TIP3    H136137   0.405   4.817   6.604  0.0486  0.5097 -0.3280
 4834TIP3    H236138   0.412   4.804   6.755 -1.2079 -1.0757 -0.3815
 4835TIP3   OH236139   3.982   0.335   7.516 -0.2180 -0.3758 -0.5777
 4835TIP3    H136140   3.956   0.247   7.547 -0.6008 -0.5489 -1.3696
 4835TIP3    H236141   4.070   0.348   7.552 -0.9944 -0.1778  1.3731
 4836TIP3   OH236142   3.173   0.788   1.394 -0.1257  0.2368 -0.3551
 4836TIP3    H136143   3.234   0.838   1.339 -0.2593  0.3922 -0.3612
 4836TIP3    H236144   3.191   0.697   1.372  0.4000  0.2607 -0.0520
 4837TIP3   OH236145   2.101   3.560   8.993  1.4463  0.4866 -0.2222
 4837TIP3    H136146   2.155   3.527   9.064 -1.4324 -0.2285  1.7840
 4837TIP3    H236147   2.044   3.486   8.970 -0.8511  2.0895  0.0311
 4838TIP3   OH236148   6.187   4.167   8.276 -0.4394 -0.5590  0.0254
 4838TIP3    H136149   6.198   4.188   8.183  0.9668 -1.5223 -0.0448
 4838TIP3    H236150   6.099   4.200   8.297 -0.5389  0.2378 -1.4739
 4839TIP3   OH236151   2.381   1.127   6.989  0.4733 -0.5197  0.0953
 4839TIP3    H136152   2.367   1.145   7.082  3.7280  2.0346  0.2771
 4839TIP3    H236153   2.340   1.202   6.944 -0.1913 -1.2184 -0.4943
 4840TIP3   OH236154   4.486   4.474   0.953 -0.0220 -0.1503  0.0040
 4840TIP3    H136155   4.476   4.439   1.042 -0.0568 -1.6437 -0.5591
 4840TIP3    H236156   4.397   4.486   0.921 -0.0237  1.2760  0.4765
 4841TIP3   OH236157   2.030   5.450   7.346  0.4528 -0.2407 -0.7022
 4841TIP3    H136158   2.011   5.525   7.402 -1.5534  0.7445 -2.5393
 4841TIP3    H236159   2.082   5.392   7.401  0.9747  1.8907  1.2198
 4842TIP3   OH236160   2.989   1.008   1.209 -0.5082 -0.1488 -0.4038
 4842TIP3    H136161   2.980   0.958   1.127  1.4776 -1.8845  0.3489
 4842TIP3    H236162   3.082   1.028   1.214 -0.3735 -1.0300  1.9271
 4843TIP3   OH236163   5.194   6.725   8.385 -0.2748  0.4614 -0.1181
 4843TIP3    H136164   5.237   6.788   8.441  1.3687 -0.3669 -0.3962
 4843TIP3    H236165   5.125   6.775   8.341  1.2265  2.1817 -0.6380
 4844TIP3   OH236166   0.835   2.633   1.198 -0.0724  0.5056 -0.4247
 4844TIP3    H136167   0.843   2.585   1.280 -0.1169  2.8185  1.0224
 4844TIP3    H236168   0.858   2.723   1.220  2.5606  0.7972 -3.5188
 4845TIP3   OH236169   1.859   1.440   0.310  0.0170 -0.5000  0.0169
 4845TIP3    H136170   1.889   1.353   0.282  2.8985  0.4966 -0.3337
 4845TIP3    H236171   1.884   1.446   0.402 -1.9747 -0.7290  0.6007
 4846TIP3   OH236172   2.932   1.437   7.693  0.7455 -0.2876  0.2193
 4846TIP3    H136173   2.865   1.476   7.750  1.1713  0.2764  0.3477
 4846TIP3    H236174   2.977   1.374   7.749  0.3788 -0.6146  0.1544
 4847TIP3   OH236175   2.069   5.939   7.585  0.6139  0.5923 -0.6426
 4847TIP3    H136176   2.132   5.902   7.647  1.0394  0.4300 -1.1700
 4847TIP3    H236177   2.053   6.028   7.617  1.9309  1.0071 -1.1194
 4848TIP3   OH236178   0.796   0.951   0.581  1.0910 -0.1039 -0.0962
 4848TIP3    H136179   0.879   0.952   0.629  2.0793 -1.2590 -1.6917
 4848TIP3    H236180   0.795   1.035   0.535  0.6343  0.5525  1.0566
 4849TIP3   OH236181   5.553   2.056   7.897 -0.1443 -0.0318  0.3464
 4849TIP3    H136182   5.600   2.079   7.977 -0.3488  2.6088 -0.2279
 4849TIP3    H236183   5.464   2.088   7.910 -1.4914 -3.4775  0.7383
 4850TIP3   OH236184   4.412   4.264   0.105  0.2782  0.7480  0.9377
 4850TIP3    H136185   4.320   4.282   0.084  0.6404  0.4924 -1.0406
 4850TIP3    H236186   4.462   4.316   0.042  1.4970  0.5933  1.7493
 4851TIP3   OH236187   5.920   1.296   7.723 -0.1725  0.6267  0.0936
 4851TIP3    H136188   5.839   1.279   7.675  1.2901  1.1821 -2.7246
 4851TIP3    H236189   5.890   1.341   7.803 -2.5824  1.8721 -1.3860
 4852TIP3   OH236190   6.317   1.194   8.820 -0.0226  0.0264 -0.5716
 4852TIP3    H136191   6.237   1.144   8.838  0.1507  0.3020  1.1396
 4852TIP3    H236192   6.373   1.133   8.772 -1.7995  0.3155 -3.1955
 4853TIP3   OH236193   1.468   0.266   7.005 -0.0090  0.3676 -0.4077
 4853TIP3    H136194   1.451   0.178   6.972 -0.1844  0.6021 -0.9445
 4853TIP3    H236195   1.564   0.272   7.009  0.0045  0.1097 -0.2317
 4854TIP3   OH236196   4.903   1.773   0.300 -0.4527 -0.5107 -1.1602
 4854TIP3    H136197   4.855   1.781   0.217 -0.4910 -2.7235 -1.3897
 4854TIP3    H236198   4.994   1.791   0.277 -0.6111 -0.0621 -1.4547
 4855TIP3   OH236199   5.576   1.304   8.334 -0.0398 -0.2517 -0.3517
 4855TIP3    H136200   5.502   1.266   8.287 -0.4927 -1.1406  1.0147
 4855TIP3    H236201   5.591   1.389   8.291 -1.9353  0.0033 -0.5844
 4856TIP3   OH236202   4.668   6.756   7.095 -0.1207  0.2960  0.3728
 4856TIP3    H136203   4.653   6.775   7.002  0.1367 -2.9146 -0.4330
 4856TIP3    H236204   4.590   6.709   7.123 -0.2003  1.2298  1.8499
 4857TIP3   OH236205   3.057   5.372   0.084 -0.2129  0.7122 -0.4758
 4857TIP3    H136206   3.017   5.424   0.154  0.0795  0.7060 -0.3045
 4857TIP3    H236207   3.037   5.421   0.004 -1.6616  0.0732 -0.5485
 4858TIP3   OH236208   2.528   5.730   1.546 -0.0579  0.1036 -0.1239
 4858TIP3    H136209   2.463   5.681   1.597 -1.6336  1.0229 -1.1731
 4858TIP3    H236210   2.477   5.793   1.495  1.7979  2.0785  0.2896
 4859TIP3   OH236211   4.440   1.352   6.895  0.3228  0.6335  0.1247
 4859TIP3    H136212   4.459   1.269   6.852 -0.9169  0.2436  0.3072
 4859TIP3    H236213   4.382   1.398   6.834  0.6455  1.1843  0.2226
 4860TIP3   OH236214   5.441   3.910   1.137 -0.2486  0.3018  0.0112
 4860TIP3    H136215   5.421   3.988   1.085  0.2624  1.0767  0.9478
 4860TIP3    H236216   5.512   3.868   1.089 -0.0101  0.8279 -0.1065
 4861TIP3   OH236217   3.628   3.625   0.672  0.6227  0.2760 -0.5549
 4861TIP3    H136218   3.567   3.608   0.744  0.1728  3.8894  0.1188
 4861TIP3    H236219   3.711   3.645   0.715  1.0227  0.0545 -1.2137
 4862TIP3   OH236220   3.072   1.541   1.986 -0.3023  0.0245 -0.1417
 4862TIP3    H136221   3.127   1.589   2.049  0.2489  0.0805 -0.6554
 4862TIP3    H236222   3.126   1.535   1.907 -0.4762 -1.1877 -0.1875
 4863TIP3   OH236223   2.628   0.287   6.699 -0.1697  0.6770 -0.3610
 4863TIP3    H136224   2.701   0.243   6.742  0.7229  1.3141 -1.1710
 4863TIP3    H236225   2.655   0.295   6.607 -2.0818 -0.7708 -1.1145
 4864TIP3   OH236226   4.293   1.455   2.428  0.2597  0.1078  0.7794
 4864TIP3    H136227   4.261   1.458   2.338  0.4679 -1.7601  0.6068
 4864TIP3    H236228   4.327   1.544   2.445 -1.2836  0.9657 -0.3843
 4865TIP3   OH236229   1.508   3.043   7.733 -0.1083 -0.4090  0.4254
 4865TIP3    H136230   1.516   2.985   7.656 -0.7846  0.1342 -0.0613
 4865TIP3    H236231   1.580   3.015   7.790 -0.1948 -1.4887  0.0434
 4866TIP3   OH236232   4.310   1.487   7.940  0.0791  0.3749  0.5589
 4866TIP3    H136233   4.308   1.531   7.855  1.2750  2.3830  1.4897
 4866TIP3    H236234   4.257   1.408   7.927 -0.7269  1.1854 -1.7103
 4867TIP3   OH236235   5.370   2.523   1.498 -0.1570 -0.2908 -0.3111
 4867TIP3    H136236   5.290   2.498   1.452  0.8356 -1.4504 -1.4911
 4867TIP3    H236237   5.440   2.510   1.434  0.7826  3.2812 -0.2160
 4868TIP3   OH236238   5.770   1.114   6.813  0.2112 -0.1624  0.0054
 4868TIP3    H136239   5.834   1.171   6.770  1.7523 -1.2330  0.7507
 4868TIP3    H236240   5.723   1.072   6.741 -1.2662  2.2830 -0.5641
 4869TIP3   OH236241   6.288   3.540   1.114  0.8772  0.0835  0.7526
 4869TIP3    H136242   6.255   3.523   1.026 -0.8754  1.2014  1.1358
 4869TIP3    H236243   6.227   3.495   1.173  1.5925 -0.0354  1.4271
 4870TIP3   OH236244   4.035   5.818   7.870  0.5986 -0.1203  0.2964
 4870TIP3    H136245   3.951   5.774   7.872 -0.4077  1.7445  1.1023
 4870TIP3    H236246   4.042   5.854   7.781 -1.2574  2.8964  1.2428
 4871TIP3   OH236247   5.711   2.969   7.192  0.2997 -0.1494  0.5603
 4871TIP3    H136248   5.648   3.040   7.182  0.9972  0.3252 -0.6028
 4871TIP3    H236249   5.766   2.973   7.114 -0.6976 -3.0341 -0.4403
 4872TIP3   OH236250   3.702   0.632   2.125 -0.1237  0.3205  0.1702
 4872TIP3    H136251   3.775   0.574   2.146  1.3495  1.4836 -1.4412
 4872TIP3    H236252   3.629   0.573   2.108  0.8538 -0.9724  0.3087
 4873TIP3   OH236253   6.237   4.169   1.848  0.2563 -0.0728 -0.5128
 4873TIP3    H136254   6.251   4.224   1.924 -0.3159  0.9876 -1.1537
 4873TIP3    H236255   6.191   4.092   1.882 -1.8864  1.3088 -0.0511
 4874TIP3   OH236256   2.620   5.840   0.709  0.1629 -0.3432  0.6560
 4874TIP3    H136257   2.689   5.824   0.644  0.3933 -0.8759  1.0221
 4874TIP3    H236258   2.654   5.801   0.790 -0.3852 -0.2296  0.9451
 4875TIP3   OH236259   4.412   0.755   8.495  0.0679  0.0624  0.1749
 4875TIP3    H136260   4.480   0.813   8.528  0.5089 -0.5581  0.3866
 4875TIP3    H236261   4.460   0.686   8.448 -0.5280  0.9540 -1.8629
 4876TIP3   OH236262   3.503   4.799   0.415  0.5348  0.4668 -0.1410
 4876TIP3    H136263   3.593   4.828   0.401  0.6711 -0.1619 -0.5764
 4876TIP3    H236264   3.503   4.706   0.392 -0.0400  0.2611  0.6533
 4877TIP3   OH236265   5.452   4.547   7.090 -0.2480 -0.2134 -0.7241
 4877TIP3    H136266   5.447   4.637   7.056  1.1059  0.8767  1.7125
 4877TIP3    H236267   5.412   4.552   7.176  0.2913 -1.8458 -0.3484
 4878TIP3   OH236268   5.698   5.157   0.815  0.1176  0.5655  0.4477
 4878TIP3    H136269   5.610   5.118   0.819  1.1361 -2.1413 -0.9662
 4878TIP3    H236270   5.690   5.239   0.863 -3.3645  0.7826 -0.2490
 4879TIP3   OH236271   4.370   3.641   6.991 -0.4356 -0.3930 -0.4441
 4879TIP3    H136272   4.448   3.589   6.973  1.1435  2.2119 -1.8517
 4879TIP3    H236273   4.349   3.681   6.906 -1.2147  1.6281  0.6465
 4880TIP3   OH236274   4.622   6.080   7.807  0.3351 -0.2229 -0.0228
 4880TIP3    H136275   4.528   6.071   7.790  0.0914 -0.1206  1.2126
 4880TIP3    H236276   4.628   6.142   7.879  1.5434  2.5502 -2.3258
 4881TIP3   OH236277   1.141   3.313   2.308  0.5022 -0.2111  0.4072
 4881TIP3    H136278   1.075   3.244   2.302  0.6085 -0.3333  0.6282
 4881TIP3    H236279   1.135   3.345   2.398  0.3858  0.1378  0.2780
 4882TIP3   OH236280   1.298   1.681   1.065  0.2088  0.0372  0.2143
 4882TIP3    H136281   1.240   1.748   1.102 -0.2139  0.6718 -1.5228
 4882TIP3    H236282   1.385   1.720   1.069  0.0935  0.3107  0.0688
 4883TIP3   OH236283   3.385   6.338   1.151 -0.0954  0.1394  0.1499
 4883TIP3    H136284   3.327   6.283   1.204 -1.5265  0.0925 -1.3954
 4883TIP3    H236285   3.465   6.287   1.143 -1.1544 -1.4643 -0.7000
 4884TIP3   OH236286   1.355   2.863   8.225  0.1992  0.1710  0.1197
 4884TIP3    H136287   1.364   2.776   8.188  1.4410  0.1683  0.4017
 4884TIP3    H236288   1.275   2.859   8.277  0.6919 -1.0545  0.8042
 4885TIP3   OH236289   5.020   5.215   6.562  0.0428 -0.5405  0.2891
 4885TIP3    H136290   5.087   5.258   6.616 -0.1350 -0.9207  0.8085
 4885TIP3    H236291   4.972   5.159   6.622  0.8865 -2.2319 -0.5527
 4886TIP3   OH236292   2.174   4.041   1.287 -0.2620  0.3964  0.8971
 4886TIP3    H136293   2.144   3.988   1.213 -1.6128 -0.3513  1.9263
 4886TIP3    H236294   2.259   4.003   1.312  0.3197  0.8115 -0.3870
 4887TIP3   OH236295   0.411   5.636   7.310 -0.0755 -0.1690 -0.1415
 4887TIP3    H136296   0.320   5.643   7.338  0.0348 -0.7752  0.3902
 4887TIP3    H236297   0.458   5.609   7.388  0.7157  1.0119 -0.1857
 4888TIP3   OH236298   4.928   0.249   0.411  0.1710  0.0808 -0.2842
 4888TIP3    H136299   4.914   0.309   0.485  1.9640  1.2369 -0.8306
 4888TIP3    H236300   4.980   0.178   0.447 -0.4799 -0.2878 -0.0455
 4889TIP3   OH236301   2.756   3.009   1.713 -0.2031  0.8951  0.1807
 4889TIP3    H136302   2.690   3.036   1.649  0.7691 -0.4071 -1.4590
 4889TIP3    H236303   2.720   3.035   1.797 -2.5724  0.6732 -0.6912
 4890TIP3   OH236304   3.251   2.994   2.540 -0.3297  0.5050 -0.2153
 4890TIP3    H136305   3.234   3.088   2.538  1.6653  1.0170  2.4117
 4890TIP3    H236306   3.332   2.985   2.589  0.0040 -2.5687 -1.1222
 4891TIP3   OH236307   6.166   0.839   2.433 -0.0447  0.4775  0.2188
 4891TIP3    H136308   6.112   0.760   2.444 -0.8686  0.9789 -0.1374
 4891TIP3    H236309   6.252   0.813   2.464 -0.1961 -0.7037 -0.2906
 4892TIP3   OH236310   1.601   3.090   6.973 -0.2651  0.4094 -0.2826
 4892TIP3    H136311   1.612   3.062   7.063  1.3640  1.2027 -0.1919
 4892TIP3    H236312   1.513   3.061   6.949 -0.0762 -1.3445  0.9779
 4893TIP3   OH236313   3.150   3.161   7.246 -0.0286 -0.3885 -0.0701
 4893TIP3    H136314   3.161   3.229   7.312  1.3092  1.4874 -2.0815
 4893TIP3    H236315   3.189   3.083   7.285  0.5768  0.6103  1.4131
 4894TIP3   OH236316   3.169   4.113   2.309 -0.2014  0.1888  0.4196
 4894TIP3    H136317   3.254   4.069   2.307 -0.2173 -0.0919 -4.2785
 4894TIP3    H236318   3.108   4.046   2.339  0.4790 -1.5652 -1.8556
 4895TIP3   OH236319   0.425   1.677   1.911 -0.5068  0.2735 -0.2016
 4895TIP3    H136320   0.371   1.693   1.988 -0.9103  2.9689 -0.9622
 4895TIP3    H236321   0.511   1.654   1.946 -0.4833  2.1697  1.0987
 4896TIP3   OH236322   0.231   0.035   2.302  0.0289 -0.5092  0.0498
 4896TIP3    H136323   0.195   0.007   2.386 -2.9925  0.3772 -0.8293
 4896TIP3    H236324   0.289   0.108   2.324  0.7792 -1.4798  1.4803
 4897TIP3   OH236325   3.161   1.475   0.346 -0.1827 -0.0948  0.5489
 4897TIP3    H136326   3.115   1.474   0.262  0.9265 -2.1023 -0.0946
 4897TIP3    H236327   3.234   1.534   0.333 -1.2722  1.3780  0.8712
 4898TIP3   OH236328   3.086   5.121   2.563  0.0615  0.5751 -0.1444
 4898TIP3    H136329   3.139   5.049   2.597  0.5476  2.0066  2.3878
 4898TIP3    H236330   3.005   5.119   2.615  0.4204  2.2752  0.5552
 4899TIP3   OH236331   2.380   1.931   7.208 -0.0517 -0.1194 -0.1020
 4899TIP3    H136332   2.429   2.013   7.208 -1.2593  0.6933  2.6662
 4899TIP3    H236333   2.311   1.944   7.143  1.6428 -0.2538 -2.0361
 4900TIP3   OH236334   6.142   3.731   0.273  0.4720  0.7490  0.2061
 4900TIP3    H136335   6.148   3.825   0.286  1.7588  0.6188  0.7774
 4900TIP3    H236336   6.217   3.710   0.217 -0.7733  0.2775 -1.3346
 4901TIP3   OH236337   5.672   6.570   1.124  0.4540  0.2339  0.2907
 4901TIP3    H136338   5.646   6.575   1.033  0.0416  0.4409  0.4191
 4901TIP3    H236339   5.705   6.657   1.146 -2.3165  1.1602  1.1884
 4902TIP3   OH236340   5.495   5.425   1.319 -0.0552  0.0172 -0.5625
 4902TIP3    H136341   5.492   5.359   1.389 -0.6727  0.0036 -0.5924
 4902TIP3    H236342   5.406   5.461   1.317 -0.2564 -0.5114 -1.8437
 4903TIP3   OH236343   3.330   2.098   7.959  0.1210 -0.0726 -0.0759
 4903TIP3    H136344   3.325   2.098   7.864  0.3911 -2.4819 -0.1499
 4903TIP3    H236345   3.243   2.071   7.988 -0.0941  1.0700  0.4170
 4904TIP3   OH236346   3.883   3.031   1.860 -0.1966  0.0722  0.1361
 4904TIP3    H136347   3.839   2.975   1.924 -0.4319 -1.2599 -1.1271
 4904TIP3    H236348   3.970   2.993   1.852  0.1449  0.8028  0.3416
 4905TIP3   OH236349   3.370   4.572   8.581 -0.5003 -0.1233  0.3427
 4905TIP3    H136350   3.378   4.518   8.503 -1.1700  0.1527  0.0731
 4905TIP3    H236351   3.429   4.532   8.645 -0.8999 -1.0987  0.1120
 4906TIP3   OH236352   0.801   1.064   7.376  0.4284  0.7289 -0.3752
 4906TIP3    H136353   0.822   1.061   7.469  0.5903 -0.6539 -0.4393
 4906TIP3    H236354   0.705   1.070   7.373  0.2478 -1.3041 -0.0910
 4907TIP3   OH236355   5.402   5.117   7.094  0.0385 -0.3472  0.3134
 4907TIP3    H136356   5.365   5.205   7.101 -0.4847 -0.4955 -0.4378
 4907TIP3    H236357   5.415   5.103   7.000  4.3014  0.6041  0.5383
 4908TIP3   OH236358   5.791   0.331   7.410  0.1678  0.1005 -0.4192
 4908TIP3    H136359   5.871   0.349   7.459  1.1796  1.5787 -2.4557
 4908TIP3    H236360   5.818   0.272   7.340 -0.7686 -0.2369 -0.5158
 4909TIP3   OH236361   6.286   5.359   7.120  0.1429 -0.3136  0.3798
 4909TIP3    H136362   6.374   5.350   7.082 -0.8561 -0.1334 -2.2351
 4909TIP3    H236363   6.299   5.413   7.198  2.2311  0.7330 -0.5959
 4910TIP3   OH236364   0.527   3.020   8.891  0.4293  0.1656  0.4460
 4910TIP3    H136365   0.445   2.974   8.873  0.4926  0.6592 -1.3341
 4910TIP3    H236366   0.555   3.052   8.805  2.2000  0.4880  1.1083
 4911TIP3   OH236367   5.220   1.035   7.775 -0.2638 -0.1173 -0.6081
 4911TIP3    H136368   5.218   1.016   7.869 -2.9323 -0.4177 -0.6417
 4911TIP3    H236369   5.239   0.951   7.734 -1.3755 -0.4963 -0.3835
 4912TIP3   OH236370   1.632   5.920   2.464  0.0804 -0.3803  0.1402
 4912TIP3    H136371   1.640   5.862   2.388  0.3120 -1.8299  1.2196
 4912TIP3    H236372   1.590   5.866   2.531 -0.9949  1.1643  0.7625
 4913TIP3   OH236373   6.433   5.056   8.411  0.6659 -0.4373  0.3686
 4913TIP3    H136374   6.380   5.135   8.399 -2.5054 -2.4249  0.1161
 4913TIP3    H236375   6.523   5.088   8.416 -0.5824  3.3993  2.6299
 4914TIP3   OH236376   4.351   5.319   2.541 -0.1203 -0.2149  0.6589
 4914TIP3    H136377   4.394   5.238   2.514 -1.6909 -1.0927  0.6614
 4914TIP3    H236378   4.264   5.314   2.503 -1.1283  0.2553  2.7750
 4915TIP3   OH236379   3.638   1.513   1.221  0.1512 -0.0299 -0.4205
 4915TIP3    H136380   3.640   1.418   1.211 -1.1838 -0.1125 -0.1551
 4915TIP3    H236381   3.691   1.546   1.149 -0.0527 -0.9504 -1.0131
 4916TIP3   OH236382   1.767   6.480   0.571 -0.7148 -0.0101  0.4772
 4916TIP3    H136383   1.742   6.389   0.583 -2.2907  0.2953 -0.1969
 4916TIP3    H236384   1.700   6.516   0.513  1.0307  1.0486 -1.0349
 4917TIP3   OH236385   4.390   1.675   8.129 -0.1646 -0.2925  0.2025
 4917TIP3    H136386   4.347   1.614   8.069  0.2685  0.1374 -0.5567
 4917TIP3    H236387   4.456   1.622   8.174 -0.3382 -0.5606  0.1465
 4918TIP3   OH236388   4.701   0.497   8.657 -0.4146  0.2075 -0.4434
 4918TIP3    H136389   4.778   0.522   8.606  0.6007  0.5249  1.1949
 4918TIP3    H236390   4.733   0.483   8.746 -2.0878 -0.6167  0.0830
 4919TIP3   OH236391   1.230   1.287   1.137 -0.2246 -0.3060  0.1304
 4919TIP3    H136392   1.175   1.210   1.149  0.0592 -0.3976  0.8619
 4919TIP3    H236393   1.226   1.333   1.220  0.8827 -0.3614  0.2338
 4920TIP3   OH236394   2.103   2.830   6.537  0.1118 -0.6091 -0.3336
 4920TIP3    H136395   2.080   2.774   6.464  1.2480 -1.7319  0.1265
 4920TIP3    H236396   2.153   2.902   6.498 -0.2503 -0.5909 -0.7712
 4921TIP3   OH236397   1.492   0.794   1.774 -0.7460  0.2489 -0.2787
 4921TIP3    H136398   1.496   0.709   1.816 -0.3608  0.1927 -0.4258
 4921TIP3    H236399   1.448   0.851   1.838 -0.8136 -0.0056 -0.0976
 4922TIP3   OH236400   0.489   6.177   7.153 -0.3307  0.4610 -0.1230
 4922TIP3    H136401   0.478   6.085   7.176  1.5110  0.9495  3.6018
 4922TIP3    H236402   0.500   6.177   7.058  1.3705 -3.4048 -0.1330
 4923TIP3   OH236403   0.751   4.225   8.972  0.1173 -0.4553 -1.0251
 4923TIP3    H136404   0.702   4.235   9.053  1.7503 -1.8410  0.2237
 4923TIP3    H236405   0.832   4.274   8.987  0.2426 -0.3422 -2.0066
 4924TIP3   OH236406   6.463   4.305   7.655  0.4298 -0.5689  0.3477
 4924TIP3    H136407   6.509   4.380   7.618  0.5338 -0.6317  0.3483
 4924TIP3    H236408   6.411   4.271   7.583  0.1806 -0.3382  0.4190
 4925TIP3   OH236409   3.384   6.433   2.226  0.9380 -0.5420 -0.2110
 4925TIP3    H136410   3.338   6.350   2.236 -0.0706  0.0999  0.7152
 4925TIP3    H236411   3.438   6.440   2.305 -0.8175  0.7534  0.9647
 4926TIP3   OH236412   1.316   1.419   1.923  0.4112  0.4539 -0.6928
 4926TIP3    H136413   1.385   1.480   1.947  0.2092  0.2849  0.3754
 4926TIP3    H236414   1.240   1.474   1.906  0.1744  0.5105  0.4615
 4927TIP3   OH236415   3.711   6.397   2.408  0.4752 -0.1468 -0.2473
 4927TIP3    H136416   3.769   6.371   2.337 -0.6041 -0.5581 -0.9961
 4927TIP3    H236417   3.734   6.489   2.425 -0.0083  0.3142 -1.9048
 4928TIP3   OH236418   1.501   2.445   8.552  0.0040  0.3087  0.3324
 4928TIP3    H136419   1.435   2.404   8.609 -0.4196 -2.5252 -1.9707
 4928TIP3    H236420   1.584   2.411   8.585 -0.1260 -0.1672  0.1845
 4929TIP3   OH236421   2.968   1.077   1.776 -0.4338  0.3929  0.6841
 4929TIP3    H136422   3.045   1.050   1.827 -2.4532 -3.2513  2.2521
 4929TIP3    H236423   2.976   1.028   1.694 -1.3558 -0.6439  1.1795
 4930TIP3   OH236424   0.790   0.727   8.323 -0.5028  0.3320 -0.3397
 4930TIP3    H136425   0.706   0.770   8.340 -0.4983  0.4433 -0.5958
 4930TIP3    H236426   0.819   0.697   8.409 -0.0667  1.6408  0.0024
 4931TIP3   OH236427   4.718   0.422   7.066  0.1514 -0.1748 -0.0197
 4931TIP3    H136428   4.724   0.377   7.150  0.2895  0.5056  0.3422
 4931TIP3    H236429   4.625   0.436   7.053  0.1510  0.0778  0.2253
 4932TIP3   OH236430   0.402   1.813   1.682  0.1940 -0.2411  0.0622
 4932TIP3    H136431   0.408   1.733   1.630 -3.4446 -0.2695 -0.5917
 4932TIP3    H236432   0.398   1.783   1.772  2.3152 -0.4687  0.1339
 4933TIP3   OH236433   5.151   5.028   8.175 -0.0448 -0.3963 -0.2838
 4933TIP3    H136434   5.195   4.948   8.145 -0.0978 -1.2276  1.6824
 4933TIP3    H236435   5.191   5.098   8.124  2.1738 -1.3447  0.0208
 4934TIP3   OH236436   2.229   2.791   0.852 -0.2553  0.5340 -0.0650
 4934TIP3    H136437   2.158   2.758   0.798 -0.9188  0.0532  1.0716
 4934TIP3    H236438   2.204   2.769   0.942  1.6162 -0.2268  0.3231
 4935TIP3   OH236439   0.351   1.010   2.173 -0.0970  0.2836  0.2192
 4935TIP3    H136440   0.336   0.997   2.267  0.0610 -0.9630  0.0905
 4935TIP3    H236441   0.263   1.007   2.135 -0.2083  1.3201  0.3772
 4936TIP3   OH236442   0.066   3.344   6.768 -0.3129  0.3418 -0.0083
 4936TIP3    H136443  -0.028   3.362   6.769 -0.2611  0.6011  0.2980
 4936TIP3    H236444   0.107   3.429   6.784 -0.0418  0.1175  0.5029
 4937TIP3   OH236445   5.117   5.593   7.202  0.0822  0.1525  0.1603
 4937TIP3    H136446   5.102   5.563   7.292 -0.8230 -0.2979 -0.1206
 4937TIP3    H236447   5.065   5.673   7.195  0.0143  0.0920 -0.0132
 4938TIP3   OH236448   1.623   6.155   2.132  0.0003  0.4708 -0.0875
 4938TIP3    H136449   1.546   6.210   2.121  0.2904  0.8707 -0.1325
 4938TIP3    H236450   1.667   6.190   2.209 -0.9263 -1.0250  1.1852
 4939TIP3   OH236451   5.471   3.244   1.989 -0.2003  0.2772  0.2490
 4939TIP3    H136452   5.513   3.212   2.069  0.0304 -2.2158 -0.7828
 4939TIP3    H236453   5.381   3.263   2.016 -0.1230 -0.4961  1.1181
 4940TIP3   OH236454   0.683   3.687   7.984 -0.1211 -0.5203 -0.5281
 4940TIP3    H136455   0.677   3.660   8.075 -0.3860  0.8431 -0.1127
 4940TIP3    H236456   0.762   3.740   7.979 -0.5883  0.1582 -0.8775
 4941TIP3   OH236457   2.800   3.255   8.893  0.1406  0.1481 -0.2321
 4941TIP3    H136458   2.762   3.171   8.866 -0.3925  1.1299 -2.8518
 4941TIP3    H236459   2.894   3.245   8.876 -0.0869  0.4692 -1.8012
 4942TIP3   OH236460   4.754   6.245   0.216 -0.6150  1.0936  0.1521
 4942TIP3    H136461   4.831   6.275   0.262 -0.4575  0.1867  0.5055
 4942TIP3    H236462   4.709   6.188   0.278 -0.6188  0.1860 -0.6432
 4943TIP3   OH236463   6.659   1.049   7.940  0.2432 -0.0565  0.1907
 4943TIP3    H136464   6.721   1.121   7.931 -0.0134  0.0855 -0.4952
 4943TIP3    H236465   6.584   1.087   7.985 -0.6067  0.5611 -1.6849
 4944TIP3   OH236466   0.542   1.059   0.476  0.0465 -0.3108  0.0461
 4944TIP3    H136467   0.529   0.971   0.512 -0.3110  0.1887  1.2004
 4944TIP3    H236468   0.577   1.045   0.388  1.6214 -1.5930  0.8335
 4945TIP3   OH236469   0.812   1.953   7.718  0.5947 -0.1066  0.3590
 4945TIP3    H136470   0.808   2.046   7.698 -0.5772 -0.1697  0.1985
 4945TIP3    H236471   0.735   1.916   7.675  1.1264 -1.1787  0.2880
 4946TIP3   OH236472   0.956   3.369   0.702  0.2034  0.1840 -0.2089
 4946TIP3    H136473   0.873   3.417   0.700  0.2851  0.3092 -0.6498
 4946TIP3    H236474   0.942   3.296   0.641  1.0531  1.2606 -1.7588
 4947TIP3   OH236475   4.027   0.117   7.916 -0.5100 -0.3942 -0.5050
 4947TIP3    H136476   3.956   0.089   7.973  0.2003  0.2760  0.7523
 4947TIP3    H236477   4.018   0.212   7.910 -0.7177 -0.4831 -1.7148
 4948TIP3   OH236478   5.939   6.324   7.213 -0.5984 -0.1138 -0.4378
 4948TIP3    H136479   5.993   6.397   7.182 -2.2239  0.4880 -2.0102
 4948TIP3    H236480   5.931   6.267   7.138 -0.1138 -1.4895  0.5200
 4949TIP3   OH236481   4.442   4.039   1.099 -0.2101  0.0949  0.0936
 4949TIP3    H136482   4.414   4.061   1.010 -0.1526  1.0676  0.3041
 4949TIP3    H236483   4.524   3.991   1.088 -0.2230  0.1801 -0.3731
 4950TIP3   OH236484   0.506   6.617   1.411  0.2180 -1.0697 -0.2421
 4950TIP3    H136485   0.450   6.540   1.402 -1.1992  0.0901 -2.0884
 4950TIP3    H236486   0.589   6.592   1.370 -0.0863 -1.7581 -0.4396
 4951TIP3   OH236487   5.649   0.577   7.776  0.0362  0.3907  0.7426
 4951TIP3    H136488   5.674   0.602   7.687 -2.6967  1.6427  0.2217
 4951TIP3    H236489   5.654   0.481   7.776  1.5930  0.4316 -0.2243
 4952TIP3   OH236490   3.759   4.935   0.567  0.2965 -0.5834 -0.1002
 4952TIP3    H136491   3.810   4.952   0.646 -0.5308 -0.8006  0.4958
 4952TIP3    H236492   3.783   4.846   0.541  0.0283 -0.7864  0.3367
 4953TIP3   OH236493   3.703   3.061   6.587  0.5660 -0.0667  0.0469
 4953TIP3    H136494   3.785   3.018   6.564  0.5091  0.3897 -1.1018
 4953TIP3    H236495   3.711   3.149   6.549  0.2920  0.6133  1.5221
 4954TIP3   OH236496   1.368   1.305   8.884 -0.7243  0.4320 -0.0072
 4954TIP3    H136497   1.314   1.339   8.813 -0.1492  0.3651 -0.4817
 4954TIP3    H236498   1.319   1.229   8.917 -1.6038  1.2049  0.5115
 4955TIP3   OH236499   3.142   2.336   8.447 -0.7655  0.2799 -0.1051
 4955TIP3    H136500   3.151   2.247   8.413  0.7698  1.5277 -3.4084
 4955TIP3    H236501   3.226   2.356   8.488  0.0014  1.0889 -1.9590
 4956TIP3   OH236502   6.063   2.856   7.068  0.0411 -0.2819 -0.5975
 4956TIP3    H136503   5.990   2.915   7.051  0.5094  0.4260 -0.2430
 4956TIP3    H236504   6.092   2.828   6.982  0.5377  0.9377 -0.8493
 4957TIP3   OH236505   2.887   0.829   8.107 -0.4176  0.1344 -0.0635
 4957TIP3    H136506   2.837   0.886   8.049 -0.7917 -0.4889 -0.3653
 4957TIP3    H236507   2.846   0.743   8.097 -0.2066 -0.0763  0.7905
 4958TIP3   OH236508   1.836   2.124   0.476  0.3804 -0.0186 -0.0154
 4958TIP3    H136509   1.842   2.200   0.419 -0.0264  0.9606  1.2097
 4958TIP3    H236510   1.890   2.057   0.433 -0.6476  0.3651 -1.9933
 4959TIP3   OH236511   4.848   4.091   1.886 -0.1906  0.1605  0.9179
 4959TIP3    H136512   4.923   4.144   1.912  0.6102 -0.5793  0.1506
 4959TIP3    H236513   4.802   4.073   1.968  0.4291  0.6766  1.3832
 4960TIP3   OH236514   4.114   2.873   1.738 -0.0315 -0.0072 -0.1241
 4960TIP3    H136515   4.151   2.859   1.825 -0.0343 -2.9893 -0.4897
 4960TIP3    H236516   4.144   2.797   1.687 -1.8345  0.5120 -2.1078
 4961TIP3   OH236517   2.289   6.441   8.969 -0.1573 -0.2409  0.4303
 4961TIP3    H136518   2.347   6.375   8.931 -0.7910 -0.1523 -0.7218
 4961TIP3    H236519   2.203   6.421   8.933 -0.7700 -0.0972  1.7775
 4962TIP3   OH236520   0.145   0.103   1.940 -1.1498  0.4183 -0.6537
 4962TIP3    H136521   0.139   0.197   1.924 -2.2932  0.2935 -1.1114
 4962TIP3    H236522   0.203   0.070   1.871  2.3364  1.2202  1.6628
 4963TIP3   OH236523   2.489   0.341   0.147 -0.6800  0.2846  0.1003
 4963TIP3    H136524   2.419   0.383   0.197 -1.3176 -2.5754  1.8010
 4963TIP3    H236525   2.544   0.299   0.212  0.0897 -1.2451 -1.4427
 4964TIP3   OH236526   2.301   3.169   6.818 -0.4936 -0.0949  0.1805
 4964TIP3    H136527   2.378   3.197   6.769 -0.1820 -1.2354 -0.0088
 4964TIP3    H236528   2.295   3.231   6.891 -0.4635  1.1038 -0.7995
 4965TIP3   OH236529   5.169   5.100   0.784  0.5694 -0.4777  0.5594
 4965TIP3    H136530   5.142   5.046   0.859  1.5785 -1.7068  0.0738
 4965TIP3    H236531   5.125   5.184   0.798  1.8524 -0.1506  3.3042
 4966TIP3   OH236532   1.180   2.132   1.197 -0.4716 -0.0082  0.4570
 4966TIP3    H136533   1.133   2.137   1.114 -1.7475 -2.4148  0.9356
 4966TIP3    H236534   1.223   2.217   1.206  1.5748 -0.3590 -3.6987
 4967TIP3   OH236535   2.519   4.153   8.540 -0.4809  0.1685 -0.0114
 4967TIP3    H136536   2.600   4.174   8.494  0.0068  0.4332  0.9656
 4967TIP3    H236537   2.484   4.238   8.567 -1.2404  0.0794 -0.6604
 4968TIP3   OH236538   2.127   1.674   8.610 -0.1071 -0.2437  0.7606
 4968TIP3    H136539   2.057   1.688   8.674 -0.5595 -2.5653  0.8753
 4968TIP3    H236540   2.120   1.748   8.551 -1.1749  0.7751  2.0835
 4969TIP3   OH236541   5.498   1.905   8.637 -0.3289 -0.0165  0.8048
 4969TIP3    H136542   5.541   1.982   8.600 -2.5275  0.4446 -0.9974
 4969TIP3    H236543   5.498   1.920   8.731  0.1683  1.6773  0.5569
 4970TIP3   OH236544   0.148   3.502   7.500 -0.6208 -0.9582 -0.4381
 4970TIP3    H136545   0.218   3.550   7.543  0.2087 -1.6384 -1.0140
 4970TIP3    H236546   0.067   3.542   7.534  0.0330 -0.2197  0.2759
 4971TIP3   OH236547   1.557   5.650   7.421 -0.5984 -0.0056 -0.1659
 4971TIP3    H136548   1.545   5.635   7.515  0.8895  1.6699  0.3559
 4971TIP3    H236549   1.509   5.731   7.403  0.0581  0.3038 -0.5783
 4972TIP3   OH236550   1.389   6.098   0.522  0.1984  0.5336  0.3218
 4972TIP3    H136551   1.402   6.021   0.466  1.7534 -0.2826  1.6943
 4972TIP3    H236552   1.314   6.075   0.576  2.1770 -1.3110  2.5513
 4973TIP3   OH236553   1.825   2.132   6.985  0.4952 -0.1752 -0.3173
 4973TIP3    H136554   1.813   2.224   6.960  0.6044 -0.2691 -0.7237
 4973TIP3    H236555   1.910   2.109   6.949 -0.6700 -1.2172 -2.6329
 4974TIP3   OH236556   1.205   6.705   2.005  0.5575 -0.0517  0.2302
 4974TIP3    H136557   1.296   6.723   2.028  0.2983  0.1577  1.1272
 4974TIP3    H236558   1.193   6.748   1.920  0.5698  2.2584  1.3112
 4975TIP3   OH236559   3.619   6.554   1.072  0.2311  0.2123 -0.6498
 4975TIP3    H136560   3.607   6.646   1.048 -0.9307  0.3473  0.3841
 4975TIP3    H236561   3.556   6.538   1.143  1.6074 -0.9311  0.3669
 4976TIP3   OH236562   0.917   2.059   1.311  0.3128  0.3882 -0.5031
 4976TIP3    H136563   1.004   2.083   1.280  0.3448  0.7019 -0.1761
 4976TIP3    H236564   0.858   2.120   1.268  0.2333  0.0746 -0.8477
 4977TIP3   OH236565   2.293   0.281   0.964  0.3595 -0.0205  0.6165
 4977TIP3    H136566   2.305   0.190   0.990  0.5192 -0.3390 -0.5429
 4977TIP3    H236567   2.212   0.281   0.912  0.1964  0.5576  0.8563
 4978TIP3   OH236568   0.732   1.628   7.667 -0.1743  0.5032 -0.4612
 4978TIP3    H136569   0.752   1.708   7.619  0.7622  0.8240  0.4337
 4978TIP3    H236570   0.817   1.585   7.677 -0.3249  0.5291  1.0510
 4979TIP3   OH236571   0.921   5.864   7.890 -0.4909 -0.1196  0.2034
 4979TIP3    H136572   1.015   5.869   7.905 -0.8998  0.3970  3.0809
 4979TIP3    H236573   0.893   5.955   7.880 -0.9295 -0.0966  1.4558
 4980TIP3   OH236574   1.579   3.975   1.734  0.2266  0.0260 -0.5852
 4980TIP3    H136575   1.661   3.943   1.771 -0.4821 -1.6945 -0.4155
 4980TIP3    H236576   1.576   4.068   1.758  0.4697 -0.6631  2.4454
 4981TIP3   OH236577   3.651   3.939   1.146 -0.2486 -0.0636  0.0976
 4981TIP3    H136578   3.684   3.879   1.079  1.2336 -0.9338  1.5275
 4981TIP3    H236579   3.623   3.882   1.218 -1.7892  0.8476  0.2716
 4982TIP3   OH236580   0.658   4.957   7.022  0.5112  0.1928 -0.0616
 4982TIP3    H136581   0.659   5.018   6.948 -2.2530  0.6847  0.2109
 4982TIP3    H236582   0.688   4.874   6.985 -1.8224  0.1472 -2.1010
 4983TIP3   OH236583   1.589   4.467   7.307 -1.1589 -0.6858 -0.2384
 4983TIP3    H136584   1.671   4.464   7.257 -1.0198  0.3656 -0.1001
 4983TIP3    H236585   1.586   4.383   7.353  0.9688  0.0761  1.4670
 4984TIP3   OH236586   4.341   4.563   7.353 -0.4997  0.3523 -0.3851
 4984TIP3    H136587   4.325   4.501   7.425 -0.5022  0.1594 -0.5518
 4984TIP3    H236588   4.430   4.595   7.368 -1.2588  1.9868  0.9778
 4985TIP3   OH236589   0.334   3.771   0.736  0.4538 -0.3808 -0.6312
 4985TIP3    H136590   0.354   3.755   0.828  1.0298 -0.4507 -0.7654
 4985TIP3    H236591   0.408   3.734   0.688  0.7500  0.7190 -1.0616
 4986TIP3   OH236592   0.208   3.930   1.623 -0.4321 -0.0985  0.6590
 4986TIP3    H136593   0.210   3.892   1.711 -0.7892  0.6087  0.9815
 4986TIP3    H236594   0.124   3.977   1.619 -1.2255 -1.5233 -0.6721
 4987TIP3   OH236595   4.373   1.706   7.767 -0.2491  0.7574 -0.1302
 4987TIP3    H136596   4.321   1.751   7.701  0.1662  1.4808  0.0241
 4987TIP3    H236597   4.361   1.758   7.847  0.5151  0.8004 -0.0365
 4988TIP3   OH236598   1.127   4.736   6.759 -0.8495  0.1407 -0.5612
 4988TIP3    H136599   1.170   4.764   6.840 -1.1097 -2.0311  0.4193
 4988TIP3    H236600   1.067   4.807   6.736 -0.0274  1.2384  0.5665
 4989TIP3   OH236601   6.574   6.534   7.982  0.1266 -0.0216  0.0283
 4989TIP3    H136602   6.625   6.460   7.949 -1.4965 -1.8196  1.2921
 4989TIP3    H236603   6.618   6.561   8.062  2.1825  2.1859 -1.6907
 4990TIP3   OH236604   6.121   0.379   1.293  0.1166  0.7241  0.0464
 4990TIP3    H136605   6.092   0.452   1.237 -0.1999  1.4722  1.1599
 4990TIP3    H236606   6.110   0.411   1.382 -1.5803 -1.2555  0.6236
 4991TIP3   OH236607   3.340   2.614   7.713 -0.0093  0.0494 -0.4215
 4991TIP3    H136608   3.344   2.620   7.617 -0.7129 -0.0622 -0.4583
 4991TIP3    H236609   3.332   2.520   7.731 -0.8903  0.1426 -0.2962
 4992TIP3   OH236610   5.878   5.733   8.567  0.3320  0.3674 -0.3416
 4992TIP3    H136611   5.797   5.685   8.584  0.6710 -0.0887  0.0264
 4992TIP3    H236612   5.855   5.825   8.580 -0.1363  0.2447 -0.2930
 4993TIP3   OH236613   5.865   1.760   1.488 -0.4311 -1.1712  0.3237
 4993TIP3    H136614   5.875   1.724   1.399 -0.6779  1.7250 -0.9944
 4993TIP3    H236615   5.780   1.804   1.486 -0.3907 -0.9725  1.9962
 4994TIP3   OH236616   3.405   5.348   7.173  0.9362 -0.0248  0.4806
 4994TIP3    H136617   3.373   5.264   7.141 -0.1567  1.3682 -2.4969
 4994TIP3    H236618   3.451   5.328   7.254 -1.8651 -3.0551  1.5071
 4995TIP3   OH236619   3.951   3.890   1.845 -0.1959 -0.1964  0.6943
 4995TIP3    H136620   3.866   3.847   1.833 -0.8220  1.3188 -0.6650
 4995TIP3    H236621   4.014   3.818   1.847 -1.0622 -1.2434 -2.7171
 4996TIP3   OH236622   2.773   0.055   1.333  0.0225  0.0507  0.3978
 4996TIP3    H136623   2.727   0.032   1.413  0.7300  0.1167  0.8333
 4996TIP3    H236624   2.860   0.082   1.362  0.9981 -1.8695 -0.5571
 4997TIP3   OH236625   4.257   2.300   1.801  0.1946  0.7879 -0.2317
 4997TIP3    H136626   4.214   2.351   1.870 -1.1803  0.6316 -0.9342
 4997TIP3    H236627   4.252   2.209   1.832  0.2553  0.7974 -0.1939
 4998TIP3   OH236628   6.739   3.660   7.062  0.6801  0.0715 -0.1353
 4998TIP3    H136629   6.692   3.590   7.017  1.2516 -1.0505  0.9387
 4998TIP3    H236630   6.705   3.658   7.152  3.5831 -1.6660  1.0689
 4999TIP3   OH236631   0.726   4.327   0.355 -0.2393  0.5594  0.7744
 4999TIP3    H136632   0.716   4.397   0.291  0.4550  0.0980  0.1582
 4999TIP3    H236633   0.817   4.333   0.384 -0.1718 -0.0947  0.7135
 5000TIP3   OH236634   2.667   0.389   2.157  0.2564  0.4439 -0.1058
 5000TIP3    H136635   2.754   0.372   2.121  0.5843  1.8141 -0.0265
 5000TIP3    H236636   2.626   0.448   2.094 -0.7831 -0.4759 -0.3353
 5001TIP3   OH236637   2.099   0.920   8.179  0.3830  0.1373  0.0728
 5001TIP3    H136638   2.186   0.895   8.211 -0.0445 -1.1844  0.2219
 5001TIP3    H236639   2.113   0.939   8.086  0.9857  0.8007  0.2848
 5002TIP3   OH236640   0.805   5.773   0.055  0.3829 -0.4117  0.1041
 5002TIP3    H136641   0.878   5.799  -0.002  0.3616 -0.5377  0.0174
 5002TIP3    H236642   0.843   5.768   0.142  0.6578 -1.1975 -0.0538
 5003TIP3   OH236643   4.152   2.526   0.575 -1.1071 -0.4150  0.2138
 5003TIP3    H136644   4.184   2.437   0.560  0.9950  0.0787  1.4694
 5003TIP3    H236645   4.132   2.559   0.488 -0.3177 -1.5490 -0.4259
 5004TIP3   OH236646   0.526   4.422   8.487 -0.0169  0.0536 -0.1942
 5004TIP3    H136647   0.432   4.435   8.495 -0.1327 -0.5041 -0.5406
 5004TIP3    H236648   0.543   4.339   8.532  0.3064  0.1442 -0.1466
 5005TIP3   OH236649   4.627   0.723   7.104  0.3482  0.2628  0.7042
 5005TIP3    H136650   4.723   0.717   7.107  0.3184 -2.6938 -0.4358
 5005TIP3    H236651   4.597   0.644   7.149 -1.5867  1.0833  0.9481
 5006TIP3   OH236652   1.210   1.375   8.661  0.1287  0.2346  0.3870
 5006TIP3    H136653   1.260   1.319   8.602 -1.0747  0.4577 -0.8885
 5006TIP3    H236654   1.186   1.451   8.607 -1.6202  0.1032  0.9299
 5007TIP3   OH236655   3.256   4.834   8.358 -0.2815  0.6927  0.1585
 5007TIP3    H136656   3.178   4.844   8.302 -0.1561 -3.0512 -0.9345
 5007TIP3    H236657   3.329   4.857   8.301 -0.3977  1.8701  0.4511
 5008TIP3   OH236658   2.326   2.321   7.318  0.5120 -0.2851 -0.6104
 5008TIP3    H136659   2.401   2.262   7.306  1.4993  0.7927  0.0092
 5008TIP3    H236660   2.254   2.263   7.343  1.8342 -1.1125  1.5704
 5009TIP3   OH236661   5.817   4.600   2.213 -0.3486 -0.0522  0.3182
 5009TIP3    H136662   5.905   4.578   2.242 -0.0327  0.9193  0.1491
 5009TIP3    H236663   5.822   4.694   2.192 -1.5826  0.1581  0.9054
 5010TIP3   OH236664   0.962   0.533   7.290  0.1442  0.1854  0.2066
 5010TIP3    H136665   0.915   0.581   7.223  2.4464  0.1031 -1.5953
 5010TIP3    H236666   1.031   0.593   7.319  0.4722 -0.5456  0.9992
 5011TIP3   OH236667   0.149   0.277   8.299  0.5230  0.1245 -0.0286
 5011TIP3    H136668   0.211   0.204   8.304  0.1114 -0.3542 -1.4081
 5011TIP3    H236669   0.095   0.257   8.223  0.4654  1.9283 -0.5065
 5012TIP3   OH236670   5.769   0.601   1.749  0.2306  0.6655  0.0919
 5012TIP3    H136671   5.688   0.651   1.750  0.1503  0.5547 -0.4703
 5012TIP3    H236672   5.742   0.514   1.720  0.4666  0.4703  0.4506
 5013TIP3   OH236673   5.342   0.628   8.797 -0.3545  0.2407  0.2733
 5013TIP3    H136674   5.297   0.688   8.739 -1.6788  1.2160  2.1808
 5013TIP3    H236675   5.272   0.591   8.851  0.9032  0.2408  1.9786
 5014TIP3   OH236676   4.153   0.838   8.725  0.2028  0.1668  0.2986
 5014TIP3    H136677   4.192   0.751   8.738 -0.3386  0.0097  0.9020
 5014TIP3    H236678   4.063   0.821   8.697  0.2388  0.5348 -0.0588
 5015TIP3   OH236679   5.407   4.324   2.371  0.2131  0.0489  0.1131
 5015TIP3    H136680   5.341   4.272   2.326  0.8058 -0.1488 -0.5476
 5015TIP3    H236681   5.443   4.265   2.438 -1.3592  0.6496  1.5821
 5016TIP3   OH236682   0.495   2.398   0.684  0.1034 -0.1226  0.1959
 5016TIP3    H136683   0.482   2.489   0.710  1.5024  0.6303 -1.5833
 5016TIP3    H236684   0.567   2.367   0.739 -0.2138 -0.0926  0.6325
 5017TIP3   OH236685   5.938   0.438   0.162  0.8127  0.3635  0.0854
 5017TIP3    H136686   5.858   0.490   0.151  0.7614 -0.3067 -3.9899
 5017TIP3    H236687   5.963   0.454   0.253 -2.7345  2.3004  0.9422
 5018TIP3   OH236688   2.852   4.923   2.229  0.6648  0.3203  0.4625
 5018TIP3    H136689   2.876   4.831   2.239  1.0699  0.6116  2.4148
 5018TIP3    H236690   2.935   4.970   2.230  0.4523  0.7509 -0.4125
 5019TIP3   OH236691   2.124   2.125   7.336  1.1707  0.5222 -0.3692
 5019TIP3    H136692   2.050   2.111   7.278  1.3086  1.5268 -0.8118
 5019TIP3    H236693   2.123   2.050   7.395  0.0448  0.3237 -0.6199
 5020TIP3   OH236694   5.307   6.187   0.975  0.0641  0.1125 -0.0143
 5020TIP3    H136695   5.399   6.214   0.982  0.1725 -0.5111  1.4219
 5020TIP3    H236696   5.258   6.259   1.014 -0.1393  0.7305 -1.3509
 5021TIP3   OH236697   3.024   5.808   8.306 -0.5623  0.5842  0.0028
 5021TIP3    H136698   2.994   5.840   8.220  0.3502  2.1888  0.2423
 5021TIP3    H236699   2.944   5.805   8.359 -1.1822 -0.6750 -0.9336
 5022TIP3   OH236700   2.299   1.585   7.703  0.5183 -0.1222 -0.3494
 5022TIP3    H136701   2.206   1.592   7.681 -0.3094  1.6185  3.0246
 5022TIP3    H236702   2.328   1.505   7.660 -2.4241 -0.5459 -1.8132
 5023TIP3   OH236703   6.142   3.388   1.288 -0.1038 -0.0944  0.1585
 5023TIP3    H136704   6.121   3.401   1.380 -0.7757 -1.6401  0.2598
 5023TIP3    H236705   6.085   3.316   1.261  0.1658  0.2556 -1.4352
 5024TIP3   OH236706   4.070   2.512   1.197  0.0694 -0.1257 -0.1717
 5024TIP3    H136707   4.165   2.518   1.185  0.0431  1.6809  0.3530
 5024TIP3    H236708   4.042   2.600   1.219 -1.5465 -0.9045  1.1392
 5025TIP3   OH236709   2.972   4.735   0.276  0.0212 -0.4882  0.7516
 5025TIP3    H136710   3.017   4.654   0.249  0.1243 -0.1201 -0.2137
 5025TIP3    H236711   2.997   4.799   0.210 -0.3419  0.2474  1.3206
 5026TIP3   OH236712   6.278   3.174   8.439 -0.3060  0.8096 -0.0203
 5026TIP3    H136713   6.365   3.205   8.415  0.1727  0.7418  1.5029
 5026TIP3    H236714   6.286   3.147   8.531 -1.8722  0.5850  0.0886
 5027TIP3   OH236715   5.346   6.069   8.040  0.4501  0.3274 -0.4378
 5027TIP3    H136716   5.281   6.098   8.104  0.1290  0.0373 -0.6314
 5027TIP3    H236717   5.428   6.109   8.070  0.5393 -0.7273  0.8281
 5028TIP3   OH236718   1.246   3.657   0.432 -0.4926 -0.0251 -0.0621
 5028TIP3    H136719   1.330   3.693   0.459 -0.3488 -0.2706 -0.1790
 5028TIP3    H236720   1.264   3.565   0.414 -0.7137 -0.0043 -0.4019
 5029TIP3   OH236721   3.825   1.954   8.374  0.0092  0.3015  0.2706
 5029TIP3    H136722   3.770   1.878   8.353 -0.4386  0.6232  0.2785
 5029TIP3    H236723   3.900   1.946   8.314  1.4193 -1.6930  2.1563
 5030TIP3   OH236724   3.467   6.015   0.672  0.4777  0.1634 -0.2985
 5030TIP3    H136725   3.523   5.944   0.642  0.3173 -0.3365  0.5701
 5030TIP3    H236726   3.432   6.053   0.591  0.3238 -0.9366 -0.7665
 5031TIP3   OH236727   0.152   2.854   1.814  0.3968  0.7663 -0.2344
 5031TIP3    H136728   0.183   2.770   1.778  0.8372  1.4918 -1.6174
 5031TIP3    H236729   0.172   2.848   1.908  1.6831 -0.1338 -0.5320
 5032TIP3   OH236730   1.353   6.642   0.234  0.0137 -0.6767 -0.6110
 5032TIP3    H136731   1.271   6.670   0.276  0.5211  1.5355 -0.9503
 5032TIP3    H236732   1.327   6.571   0.175 -1.8012  0.4120 -1.2165
 5033TIP3   OH236733   3.751   2.171   0.086 -0.3130  0.3915 -0.4202
 5033TIP3    H136734   3.700   2.115   0.145 -0.2879  1.4216  0.6129
 5033TIP3    H236735   3.719   2.149  -0.001  0.0699 -1.6126 -0.1022
 5034TIP3   OH236736   4.339   1.906   7.974  0.7240  0.3054 -0.2489
 5034TIP3    H136737   4.323   1.828   8.027 -0.6079  0.7438  0.0232
 5034TIP3    H236738   4.428   1.932   7.997  0.1317  0.5796  1.9565
 5035TIP3   OH236739   5.836   5.638   0.635 -0.4547 -0.0957  0.5855
 5035TIP3    H136740   5.744   5.616   0.619 -0.2059 -0.2668 -0.7569
 5035TIP3    H236741   5.835   5.731   0.658 -0.9459 -0.0007  0.2053
 5036TIP3   OH236742   6.397   3.688   8.041 -0.4837  0.2545 -0.3021
 5036TIP3    H136743   6.304   3.670   8.053 -0.5244 -0.2607 -1.2729
 5036TIP3    H236744   6.427   3.620   7.981  1.0143 -0.9259  1.6470
 5037TIP3   OH236745   5.996   1.086   8.852 -0.2123  0.1240  0.2104
 5037TIP3    H136746   6.019   1.020   8.917  1.2352  0.3278 -0.0603
 5037TIP3    H236747   5.944   1.039   8.787  0.0489 -0.5334  0.4745
 5038TIP3   OH236748   2.389   0.319   6.819  0.2842 -0.6797  0.1725
 5038TIP3    H136749   2.368   0.235   6.859  1.1206 -0.8630  0.2623
 5038TIP3    H236750   2.476   0.305   6.780 -0.0832 -0.2183 -0.8584
 5039TIP3   OH236751   6.600   1.935   7.942  0.3461  0.0528 -0.0281
 5039TIP3    H136752   6.518   1.896   7.911 -0.4376  0.5707  1.3302
 5039TIP3    H236753   6.604   2.020   7.898 -0.1614  0.2790  0.3449
 5040TIP3   OH236754   2.011   4.727   0.578  0.5704  0.5713 -0.5976
 5040TIP3    H136755   1.994   4.688   0.492 -0.2876 -1.4054  0.4046
 5040TIP3    H236756   1.976   4.663   0.641  3.0283  0.9465  1.3023
 5041TIP3   OH236757   5.555   1.946   7.584  0.0682  0.4182  0.7804
 5041TIP3    H136758   5.570   1.932   7.678  1.4457  0.7667  0.6249
 5041TIP3    H236759   5.542   2.040   7.576  0.5476  0.4623  0.5388
 5042TIP3   OH236760   5.727   4.521   7.024  0.0543  0.3684  0.6490
 5042TIP3    H136761   5.633   4.534   7.037 -0.2591  2.8906 -2.7004
 5042TIP3    H236762   5.732   4.450   6.961  0.4277 -0.0781  1.1833
 5043TIP3   OH236763   3.471   6.328   1.607 -0.2036  0.0270  0.2437
 5043TIP3    H136764   3.442   6.408   1.650 -0.1848  0.0819  0.1548
 5043TIP3    H236765   3.395   6.270   1.609  0.2223 -0.5220  1.6603
 5044TIP3   OH236766   3.527   4.950   7.316  0.1570  0.1078  0.0410
 5044TIP3    H136767   3.530   4.885   7.387  1.3125 -0.0393 -0.1157
 5044TIP3    H236768   3.561   4.904   7.240  3.1105  1.4211  0.4182
 5045TIP3   OH236769   2.355   4.500   7.764 -0.3293  0.4923 -0.3035
 5045TIP3    H136770   2.268   4.523   7.731 -1.4234 -1.7579  0.8238
 5045TIP3    H236771   2.410   4.574   7.738 -2.2218  1.2943 -2.4050
 5046TIP3   OH236772   0.504   4.006   6.883 -0.5396 -0.2819  0.0107
 5046TIP3    H136773   0.587   4.043   6.852 -0.6965  1.1592  1.1623
 5046TIP3    H236774   0.523   3.974   6.971 -1.2087  0.1981  0.3473
 5047TIP3   OH236775   0.744   6.411   8.404  0.1334 -0.0915 -0.1392
 5047TIP3    H136776   0.715   6.348   8.338  1.3410 -0.5054 -0.2949
 5047TIP3    H236777   0.837   6.392   8.417  0.1628  0.6662  0.9248
 5048TIP3   OH236778   3.035   5.484   2.580 -0.0450 -0.0576 -0.2265
 5048TIP3    H136779   3.015   5.531   2.661 -0.0663  1.0700 -0.8581
 5048TIP3    H236780   3.123   5.449   2.592 -0.1941 -0.2110  0.4218
 5049TIP3   OH236781   2.711   5.685   1.814 -0.3047  0.5660  0.2820
 5049TIP3    H136782   2.676   5.649   1.896  0.3378 -1.3593 -0.2278
 5049TIP3    H236783   2.644   5.746   1.784 -2.1342 -1.1994  0.5613
 5050TIP3   OH236784   5.528   5.412   6.934  0.2125  0.4767  0.0227
 5050TIP3    H136785   5.598   5.453   6.883  0.4595 -0.9316 -0.8222
 5050TIP3    H236786   5.565   5.405   7.022 -0.2680  3.0533  0.5047
 5051TIP3   OH236787   2.489   6.142   8.222 -0.4031  0.0241 -0.0863
 5051TIP3    H136788   2.440   6.093   8.288 -0.1006 -0.0953  0.0478
 5051TIP3    H236789   2.510   6.078   8.155  1.2032 -0.3672  0.7427
 5052TIP3   OH236790   0.187   1.647   1.159  0.6760  0.0691 -0.1620
 5052TIP3    H136791   0.165   1.583   1.227 -1.7820 -1.9187 -2.5656
 5052TIP3    H236792   0.252   1.603   1.104  0.3744  0.3892 -0.7893
 5053TIP3   OH236793   5.267   0.744   7.458 -0.6542  0.2061  0.1140
 5053TIP3    H136794   5.264   0.659   7.413  1.5401 -0.2055  0.6231
 5053TIP3    H236795   5.207   0.733   7.532 -0.7272 -0.7586 -0.0720
 5054TIP3   OH236796   2.151   0.190   7.061 -0.1543  0.1423 -0.3210
 5054TIP3    H136797   2.097   0.215   7.136  3.4595  3.0292  1.6562
 5054TIP3    H236798   2.173   0.098   7.077  2.1823  1.1457  3.6158
 5055TIP3   OH236799   5.712   6.213   7.440 -0.8322  0.6326 -0.0924
 5055TIP3    H136800   5.640   6.189   7.381 -2.7602  2.5414  1.3152
 5055TIP3    H236801   5.762   6.278   7.390 -0.2385 -0.4499 -0.9527
 5056TIP3   OH236802   6.155   4.717   1.170 -0.2571 -0.5078  0.0748
 5056TIP3    H136803   6.167   4.788   1.108  0.8994 -0.4922  0.2795
 5056TIP3    H236804   6.244   4.696   1.199 -0.8235  0.1924  2.5186
 5057TIP3   OH236805   4.894   6.437   2.626  0.7850 -0.6190  0.9485
 5057TIP3    H136806   4.869   6.357   2.671  0.4650 -1.4444 -0.6167
 5057TIP3    H236807   4.978   6.416   2.584  1.2215  0.2130  1.3893
 5058TIP3   OH236808   1.250   1.903   7.191  0.3440 -0.1604  0.4559
 5058TIP3    H136809   1.181   1.941   7.135  1.9555  0.0212 -1.5453
 5058TIP3    H236810   1.222   1.814   7.207 -0.8119  0.1930  0.4765
 5059TIP3   OH236811   0.409   6.479   7.868  0.1407 -0.6896  0.0696
 5059TIP3    H136812   0.325   6.443   7.838 -0.2858 -0.2396  0.7019
 5059TIP3    H236813   0.452   6.508   7.788 -0.1519 -1.2396 -0.2984
 5060TIP3   OH236814   2.664   6.500   0.532  0.5751 -0.2736  0.7473
 5060TIP3    H136815   2.600   6.438   0.567 -0.7118  1.1260  0.9363
 5060TIP3    H236816   2.669   6.569   0.598  1.0329  0.4737 -0.0487
 5061TIP3   OH236817   4.078   5.470   7.337  0.3595 -0.4587  0.6600
 5061TIP3    H136818   4.057   5.384   7.300 -0.2833  0.0562 -0.2150
 5061TIP3    H236819   4.161   5.457   7.383  2.2658 -0.7504 -2.5653
 5062TIP3   OH236820   5.141   5.754   0.821 -0.6114  0.0281 -0.8553
 5062TIP3    H136821   5.165   5.664   0.844  0.5252  0.4121 -0.4338
 5062TIP3    H236822   5.186   5.808   0.886 -2.9921  0.8413  0.2432
 5063TIP3   OH236823   4.299   3.493   7.658  0.0306 -0.1507  0.9225
 5063TIP3    H136824   4.360   3.540   7.716  0.3777 -0.5504  0.8836
 5063TIP3    H236825   4.340   3.408   7.644 -0.3668 -0.2917  0.6039
 5064TIP3   OH236826   1.470   6.525   7.245  0.2978  0.0160  0.0713
 5064TIP3    H136827   1.488   6.443   7.199 -1.3164  0.0356 -0.6566
 5064TIP3    H236828   1.398   6.504   7.304  0.9686  0.5131  1.0754
 5065TIP3   OH236829   4.380   5.653   8.743  0.3169  0.0421  0.1664
 5065TIP3    H136830   4.364   5.703   8.663  1.1459  0.4733  0.2598
 5065TIP3    H236831   4.475   5.641   8.745  0.5881  1.9245  2.1895
 5066TIP3   OH236832   5.824   0.221   1.358 -0.0331  0.2767 -0.3268
 5066TIP3    H136833   5.837   0.309   1.392  0.1546  0.0636  0.1788
 5066TIP3    H236834   5.792   0.171   1.434  1.0796 -0.3888 -0.2723
 5067TIP3   OH236835   2.906   1.725   1.048 -0.2209 -0.4765  0.2240
 5067TIP3    H136836   2.845   1.665   1.090 -2.1472  1.4012  0.2903
 5067TIP3    H236837   2.890   1.809   1.091 -0.8409  1.0896 -2.7702
 5068TIP3   OH236838   6.205   1.148   1.566 -0.5264  0.3897  0.0602
 5068TIP3    H136839   6.217   1.122   1.657  0.0008 -0.0187 -0.1193
 5068TIP3    H236840   6.289   1.187   1.541 -0.0696 -1.0434 -0.7501
 5069TIP3   OH236841   5.302   5.879   1.021 -0.2394 -0.1878 -0.1523
 5069TIP3    H136842   5.325   5.971   1.034 -0.2516 -0.1487 -0.3921
 5069TIP3    H236843   5.375   5.831   1.059 -0.0728 -0.0726 -0.3186
 5070TIP3   OH236844   1.621   0.703   8.544  0.0186 -0.0391 -0.0099
 5070TIP3    H136845   1.623   0.616   8.505 -3.2030  0.2216 -1.0640
 5070TIP3    H236846   1.641   0.689   8.637 -0.2035 -1.8574 -0.2057
 5071TIP3   OH236847   2.921   2.263   7.645 -0.5963  0.0798  0.3949
 5071TIP3    H136848   2.876   2.194   7.694 -2.1516  0.8635  0.1333
 5071TIP3    H236849   2.985   2.217   7.591 -1.0721 -1.0810  0.7926
 5072TIP3   OH236850   5.445   4.916   0.084  0.6217 -0.0816 -0.6512
 5072TIP3    H136851   5.535   4.917   0.118  0.8236  1.0922 -1.1579
 5072TIP3    H236852   5.398   4.977   0.141  0.5180  0.4605 -1.3056
 5073TIP3   OH236853   4.046   4.890   1.971  0.1665  0.3537 -0.0065
 5073TIP3    H136854   4.060   4.838   1.891  0.2029 -0.9585  0.8291
 5073TIP3    H236855   4.123   4.947   1.976  0.2382  0.3401 -0.8292
 5074TIP3   OH236856   4.900   4.766   8.281 -0.2300  0.2549  0.0171
 5074TIP3    H136857   4.837   4.837   8.268  2.4492  2.4071 -3.0677
 5074TIP3    H236858   4.931   4.778   8.371 -2.3480  0.7120  0.7346
 5075TIP3   OH236859   0.575   4.734   7.210  0.4064  0.8525 -0.1200
 5075TIP3    H136860   0.556   4.782   7.291  0.7360  1.3094 -0.3071
 5075TIP3    H236861   0.589   4.803   7.144  2.2417  0.5628 -0.0947
 5076TIP3   OH236862   6.747   6.532   7.514 -0.0365 -0.3495 -0.4553
 5076TIP3    H136863   6.699   6.554   7.594  1.8947  1.2163  0.3596
 5076TIP3    H236864   6.752   6.437   7.514 -1.7678 -0.4789  0.2144
 5077TIP3   OH236865   5.637   0.723   6.906 -0.0635  0.4506  0.1490
 5077TIP3    H136866   5.586   0.774   6.843  0.2525  3.2228  2.0052
 5077TIP3    H236867   5.728   0.745   6.886  0.2374 -1.1032 -0.3528
 5078TIP3   OH236868   2.089   6.396   0.955  0.1589  0.1876  0.3175
 5078TIP3    H136869   2.042   6.387   0.872  1.3769 -1.3976 -0.2513
 5078TIP3    H236870   2.023   6.426   1.017 -0.9142  0.8530 -1.0877
 5079TIP3   OH236871   6.080   5.302   6.947  0.3513 -0.5412  0.0170
 5079TIP3    H136872   6.162   5.307   6.998  1.0416  0.0345 -1.1198
 5079TIP3    H236873   6.041   5.389   6.956  0.2179 -0.5956 -0.0351
 5080TIP3   OH236874   4.285   2.356   7.920 -0.6332 -0.0198 -0.3885
 5080TIP3    H136875   4.267   2.347   8.013 -1.6767 -1.6589 -0.7098
 5080TIP3    H236876   4.372   2.318   7.908 -1.4879 -2.1174 -0.4003
 5081TIP3   OH236877   2.410   5.064   1.349 -0.7175 -0.5551 -0.9313
 5081TIP3    H136878   2.329   5.021   1.377 -2.6655  2.2533 -1.8914
 5081TIP3    H236879   2.392   5.157   1.355  2.1103  0.1854 -2.2329
 5082TIP3   OH236880   2.685   3.278   6.392 -0.0447 -0.1699 -0.0900
 5082TIP3    H136881   2.698   3.204   6.451  1.1749 -1.9010 -2.3780
 5082TIP3    H236882   2.744   3.262   6.319  0.5551  3.2924 -0.5697
 5083TIP3   OH236883   5.256   4.947   7.945 -0.2637 -0.5093  0.0535
 5083TIP3    H136884   5.290   4.859   7.962  0.1256 -0.5721 -1.0024
 5083TIP3    H236885   5.321   4.988   7.888 -1.4768 -0.2937 -1.2271
 5084TIP3   OH236886   3.120   3.946   7.713 -0.0575 -0.5503  0.5270
 5084TIP3    H136887   3.199   3.952   7.658  0.0508  2.2896  0.8465
 5084TIP3    H236888   3.150   3.900   7.792  0.8046 -1.1420 -0.1226
 5085TIP3   OH236889   5.349   3.116   2.723 -0.0404 -0.2307 -0.4039
 5085TIP3    H136890   5.281   3.074   2.670 -0.1852 -1.8353  0.9875
 5085TIP3    H236891   5.307   3.194   2.759 -0.4908 -0.1086 -1.1698
 5086TIP3   OH236892   3.811   3.639   1.735 -0.0910  0.1837 -0.2557
 5086TIP3    H136893   3.780   3.626   1.825  0.2841 -1.8850 -0.3681
 5086TIP3    H236894   3.894   3.590   1.732  0.6547  1.4521 -1.3365
 5087TIP3   OH236895   5.936   2.609   1.424  0.5082 -0.5781  0.3260
 5087TIP3    H136896   6.024   2.569   1.423  0.8013  0.0633  0.1669
 5087TIP3    H236897   5.904   2.594   1.513  2.3362  2.4917  1.6779
 5088TIP3   OH236898   5.321   5.254   8.150 -0.1940  0.3667 -0.1077
 5088TIP3    H136899   5.381   5.309   8.201  1.1216  0.8597 -2.0719
 5088TIP3    H236900   5.378   5.202   8.093 -1.5136 -1.6265  0.2759
 5089TIP3   OH236901   0.159   5.099   1.725  0.0935 -0.0013 -0.1775
 5089TIP3    H136902   0.078   5.121   1.771  0.7450  1.9516  0.1195
 5089TIP3    H236903   0.178   5.009   1.753 -0.7075  0.3326  1.6207
 5090TIP3   OH236904   0.908   1.673   0.010  0.0164  0.2198  0.3519
 5090TIP3    H136905   0.841   1.731  -0.027  1.0718  1.1758 -0.1196
 5090TIP3    H236906   0.962   1.731   0.064  0.5732 -0.4957  0.5779
 5091TIP3   OH236907   1.667   0.470   8.409 -0.2129  0.2550  0.1287
 5091TIP3    H136908   1.742   0.436   8.360 -0.0921  0.7786 -0.0552
 5091TIP3    H236909   1.613   0.393   8.427  0.0460 -0.0279 -0.2973
 5092TIP3   OH236910   6.442   2.017   0.272 -0.2430 -0.0053  0.0710
 5092TIP3    H136911   6.452   2.112   0.265 -1.0161  0.2504  1.9172
 5092TIP3    H236912   6.468   1.984   0.186  1.2501  1.7679 -0.2249
 5093TIP3   OH236913   5.731   5.655   8.275  0.4357  0.1607  0.4756
 5093TIP3    H136914   5.810   5.709   8.269 -0.0059  0.5998 -2.5939
 5093TIP3    H236915   5.672   5.707   8.331  2.1923 -0.1783  2.8253
 5094TIP3   OH236916   6.122   1.930   7.341  0.0275 -0.1162  0.1406
 5094TIP3    H136917   6.045   1.896   7.296  0.5877 -0.5145 -0.5367
 5094TIP3    H236918   6.173   1.853   7.366  1.2444  0.1683 -1.2968
 5095TIP3   OH236919   1.162   1.476   0.961 -0.2490 -0.4482 -0.1782
 5095TIP3    H136920   1.202   1.404   1.010 -1.7204  0.5422  2.7139
 5095TIP3    H236921   1.226   1.547   0.967 -0.5836 -0.2051  0.7498
 5096TIP3   OH236922   1.484   0.678   6.971  0.4638  0.3068 -0.1740
 5096TIP3    H136923   1.572   0.676   6.932 -0.2856  1.0746 -2.0394
 5096TIP3    H236924   1.427   0.705   6.899 -1.5404 -1.6426  0.5746
 5097TIP3   OH236925   0.163   2.911   2.072  0.6472  0.1674  0.4123
 5097TIP3    H136926   0.233   2.926   2.136  0.8331 -1.1071  0.5438
 5097TIP3    H236927   0.084   2.904   2.125  0.4939  1.0288  0.3144
 5098TIP3   OH236928   0.566   5.442   0.821  0.1784  0.1093  0.4271
 5098TIP3    H136929   0.658   5.416   0.819  0.0583 -0.2930 -1.2089
 5098TIP3    H236930   0.558   5.508   0.751 -0.7550  0.2058  0.6067
 5099TIP3   OH236931   3.967   4.076   8.844 -0.1163 -0.2654 -0.0731
 5099TIP3    H136932   3.997   4.159   8.807  2.6017 -0.9018  0.5218
 5099TIP3    H236933   3.918   4.101   8.922  1.1852  0.7841  0.4419
 5100TIP3   OH236934   0.479   3.644   6.768  0.4403 -0.1390  0.8604
 5100TIP3    H136935   0.480   3.734   6.733 -1.3649  0.1798  1.5389
 5100TIP3    H236936   0.410   3.600   6.718 -0.1474 -0.5205  1.9866
 5101TIP3   OH236937   0.892   2.204   6.632 -0.2756  0.5573 -0.0479
 5101TIP3    H136938   0.952   2.155   6.689 -1.4813 -0.3626  0.4853
 5101TIP3    H236939   0.947   2.272   6.593  1.0054  0.0552  0.7801
 5102TIP3   OH236940   3.979   2.222   8.280 -0.1455  0.7290  0.5280
 5102TIP3    H136941   3.992   2.139   8.234 -0.0798  0.0746  1.6697
 5102TIP3    H236942   3.981   2.198   8.373  0.5231  2.1147  0.8942
 5103TIP3   OH236943   2.510   4.698   8.162 -0.4412  0.6320  0.2136
 5103TIP3    H136944   2.468   4.702   8.248  0.2468  0.6669  0.5538
 5103TIP3    H236945   2.567   4.621   8.166 -1.0649  0.1145 -0.5197
 5104TIP3   OH236946   1.716   1.751   0.342 -0.0840 -0.4254 -0.0797
 5104TIP3    H136947   1.799   1.795   0.324  0.5327 -1.1854  0.7984
 5104TIP3    H236948   1.697   1.704   0.261 -0.3296  0.7698 -0.7356
 5105TIP3   OH236949   3.795   2.746   0.650 -0.3159  0.2934  0.6812
 5105TIP3    H136950   3.838   2.830   0.667 -0.9442  0.5651  0.9811
 5105TIP3    H236951   3.771   2.750   0.557  0.2668  0.1501  0.5182
 5106TIP3   OH236952   2.654   2.763   0.611  0.5444 -0.1715  0.0136
 5106TIP3    H136953   2.697   2.704   0.673  0.0957 -1.1944 -0.6179
 5106TIP3    H236954   2.569   2.781   0.650  1.2048  1.2365  0.8917
 5107TIP3   OH236955   5.025   2.190   1.305 -0.0959  0.1177  0.0481
 5107TIP3    H136956   4.972   2.264   1.274  0.6028  0.0382 -1.4311
 5107TIP3    H236957   4.995   2.116   1.252  0.3244 -0.2957  0.3864
 5108TIP3   OH236958   4.778   4.001   0.702  0.4485  0.4341  0.1593
 5108TIP3    H136959   4.787   4.034   0.613 -1.1045  0.8932  0.1271
 5108TIP3    H236960   4.773   3.906   0.692 -0.2365  0.5059 -0.3306
 5109TIP3   OH236961   3.435   1.337   7.954 -0.0363  0.2240  0.1542
 5109TIP3    H136962   3.418   1.431   7.948 -0.4109  0.0731 -1.4362
 5109TIP3    H236963   3.515   1.323   7.904 -0.8294 -0.5134 -0.9433
 5110TIP3   OH236964   5.752   1.259   1.546 -0.0885 -0.0676  0.3248
 5110TIP3    H136965   5.664   1.223   1.561 -0.5874  0.1450 -1.7097
 5110TIP3    H236966   5.749   1.290   1.455  2.0699  0.0405  0.2511
 5111TIP3   OH236967   5.753   0.446   1.504  0.3884 -0.3424 -0.6270
 5111TIP3    H136968   5.723   0.395   1.579  0.2353 -2.2896 -1.9472
 5111TIP3    H236969   5.679   0.503   1.482  0.4075  0.1812  0.6285
 5112TIP3   OH236970   2.750   0.549   8.961  0.2852  0.0133  0.6652
 5112TIP3    H136971   2.793   0.624   8.920 -1.0755  0.0070 -0.8435
 5112TIP3    H236972   2.703   0.587   9.036  0.0376  0.5711  0.2340
 5113TIP3   OH236973   4.105   3.068   8.712  0.1817 -0.0054  0.2632
 5113TIP3    H136974   4.199   3.070   8.694  0.3063 -2.4077  0.3905
 5113TIP3    H236975   4.064   3.076   8.626  0.5894 -1.4360 -0.0949
 5114TIP3   OH236976   5.775   2.892   0.978  0.1050  0.2753  0.4742
 5114TIP3    H136977   5.689   2.880   0.938  0.3866  0.6398 -0.2636
 5114TIP3    H236978   5.756   2.917   1.069 -0.6134  1.5706 -0.0016
 5115TIP3   OH236979   3.749   1.821   1.160  0.5162 -0.1430  0.3126
 5115TIP3    H136980   3.796   1.819   1.243  0.2955 -0.4863  0.4338
 5115TIP3    H236981   3.757   1.911   1.130  2.7164 -0.5698 -0.5239
 5116TIP3   OH236982   5.006   3.819   7.035  0.4489  0.4174 -0.0519
 5116TIP3    H136983   5.080   3.819   7.095  0.7090 -0.5892 -0.3523
 5116TIP3    H236984   5.040   3.777   6.956 -0.1085  1.0237 -0.6308
 5117TIP3   OH236985   5.684   4.181   7.927  0.2953  0.0461 -0.0044
 5117TIP3    H136986   5.658   4.178   7.835  1.0996 -3.5347 -0.2669
 5117TIP3    H236987   5.700   4.089   7.950  1.0916  0.9193  3.4462
 5118TIP3   OH236988   4.937   5.409   1.862 -0.0259 -0.0684  0.2644
 5118TIP3    H136989   4.860   5.363   1.830  0.2612  0.1077 -0.7378
 5118TIP3    H236990   4.962   5.363   1.942 -1.1813 -0.1034  0.6209
 5119TIP3   OH236991   0.495   6.670   8.765 -0.0435 -0.1690  0.1292
 5119TIP3    H136992   0.545   6.634   8.691  0.6837 -2.0788  1.4402
 5119TIP3    H236993   0.409   6.629   8.757  0.0191 -0.3349  0.2867
 5120TIP3   OH236994   5.883   0.206   8.162  0.3061 -0.5771  0.0525
 5120TIP3    H136995   5.939   0.138   8.123  2.1529  0.3655  0.9217
 5120TIP3    H236996   5.826   0.158   8.222  2.4479 -1.2868  1.6212
 5121TIP3   OH236997   2.845   3.387   0.372 -0.2292  0.1233  0.0596
 5121TIP3    H136998   2.820   3.300   0.403 -0.5346 -0.6015 -2.0825
 5121TIP3    H236999   2.806   3.394   0.285  0.1941  2.2326 -0.0210
 5122TIP3   OH237000   2.408   6.433   1.232  0.2200  0.0243 -0.4896
 5122TIP3    H137001   2.402   6.405   1.140  2.1318  1.2018 -1.0332
 5122TIP3    H237002   2.459   6.364   1.274  0.3676  0.0616 -0.6043
 5123TIP3   OH237003   5.753   0.582   7.511 -0.1610  0.3494  0.5946
 5123TIP3    H137004   5.837   0.536   7.513 -0.6654 -0.6834 -0.8878
 5123TIP3    H237005   5.691   0.520   7.474 -1.2781  1.5886  0.2752
 5124TIP3   OH237006   5.093   2.128   0.163 -0.5676  0.1961  0.8270
 5124TIP3    H137007   5.100   2.159   0.072 -0.6750  0.8550  1.0411
 5124TIP3    H237008   5.181   2.139   0.198 -0.0182 -1.8782  0.2455
 5125TIP3   OH237009   6.527   3.059   1.520  0.2558  0.3649  0.1500
 5125TIP3    H137010   6.466   3.125   1.487 -0.0601  0.2160  0.4265
 5125TIP3    H237011   6.473   2.980   1.531  0.6992 -0.0563 -0.5407
 5126TIP3   OH237012   5.520   6.415   7.417  0.6589 -0.2537  0.3672
 5126TIP3    H137013   5.426   6.433   7.409  0.9475  1.4050  0.2849
 5126TIP3    H237014   5.528   6.364   7.497 -0.3742 -1.0256  0.0020
 5127TIP3   OH237015   3.667   2.869   6.844 -0.1434 -0.1646 -0.3121
 5127TIP3    H137016   3.678   2.961   6.818  0.9270 -0.5002 -1.0956
 5127TIP3    H237017   3.735   2.822   6.796  1.9273 -0.8669  2.9775
 5128TIP3   OH237018   4.081   0.695   7.685  0.4238  0.2059 -0.0475
 5128TIP3    H137019   4.048   0.734   7.766 -2.4694 -1.7703 -0.1096
 5128TIP3    H237020   4.127   0.616   7.713  1.5415  0.7833 -0.2221
 5129TIP3   OH237021   0.279   4.871   1.839  0.1309 -0.4601  0.2044
 5129TIP3    H137022   0.369   4.901   1.833  0.2241 -0.7574  0.1020
 5129TIP3    H237023   0.284   4.776   1.833 -0.4407 -0.4090 -3.7560
 5130TIP3   OH237024   3.094   4.258   7.197 -0.1951 -0.1230  0.5037
 5130TIP3    H137025   3.089   4.223   7.286 -0.4874  2.6827  1.6985
 5130TIP3    H237026   3.034   4.333   7.198  1.9142  1.6979 -1.1784
 5131TIP3   OH237027   0.523   5.100   1.052 -0.0931 -0.0646 -0.4151
 5131TIP3    H137028   0.503   5.185   1.093  1.4922  0.4968 -0.7241
 5131TIP3    H237029   0.438   5.068   1.021 -0.8323  1.0723  0.3373
 5132TIP3   OH237030   4.523   3.948   1.663  0.5498  0.2788 -0.1173
 5132TIP3    H137031   4.490   3.935   1.574  0.4658  1.3243 -0.2457
 5132TIP3    H237032   4.617   3.934   1.656  0.4822 -0.1406 -0.2581
 5133TIP3   OH237033   2.523   6.021   2.043  0.2274 -0.5334  0.1055
 5133TIP3    H137034   2.535   5.978   1.958  2.0551  0.5994 -0.2718
 5133TIP3    H237035   2.574   6.102   2.035  1.0777 -0.7667  2.5473
 5134TIP3   OH237036   6.373   4.776   7.353 -0.1143 -0.2312  0.0625
 5134TIP3    H137037   6.315   4.783   7.278 -1.8933 -0.4281  1.3414
 5134TIP3    H237038   6.337   4.703   7.404  0.7923  0.1500  1.2978
 5135TIP3   OH237039   1.824   3.685   7.960 -0.2455 -0.1799 -0.4644
 5135TIP3    H137040   1.872   3.640   8.029 -2.9731 -0.2662  1.4970
 5135TIP3    H237041   1.828   3.777   7.984 -0.1871 -0.0679 -0.8895
 5136TIP3   OH237042   0.387   5.022   0.761 -0.4595  0.5137 -0.3852
 5136TIP3    H137043   0.447   4.955   0.728 -0.1732 -1.3251  3.3104
 5136TIP3    H237044   0.423   5.105   0.729  2.6704 -0.6996 -0.3739
 5137TIP3   OH237045   4.232   0.897   0.417  0.7010 -0.5309 -0.6786
 5137TIP3    H137046   4.136   0.904   0.423  0.7511 -0.6097  0.7213
 5137TIP3    H237047   4.247   0.842   0.340 -0.3907 -0.5922 -0.8730
 5138TIP3   OH237048   4.471   6.755   1.651  0.0567 -0.1266  0.1820
 5138TIP3    H137049   4.395   6.735   1.706 -1.5624  0.5568 -1.6600
 5138TIP3    H237050   4.509   6.834   1.690 -0.1731 -0.4735  1.1303
 5139TIP3   OH237051   0.159   2.495   7.938 -0.5034  0.4915 -0.3158
 5139TIP3    H137052   0.166   2.520   8.030 -0.7811 -0.2132 -0.0965
 5139TIP3    H237053   0.233   2.435   7.924 -0.4814  0.5706 -0.5505
 5140TIP3   OH237054   1.538   6.492   1.429 -0.2423 -0.4290  0.2061
 5140TIP3    H137055   1.463   6.548   1.407  0.5613  0.3692 -0.5787
 5140TIP3    H237056   1.501   6.404   1.436 -0.8908 -0.4769 -2.6087
 5141TIP3   OH237057   4.776   5.387   7.267  0.7855  0.3827 -0.4328
 5141TIP3    H137058   4.822   5.335   7.201 -0.4698  0.5717 -1.5037
 5141TIP3    H237059   4.769   5.474   7.227  0.7208  0.7155  0.2940
 5142TIP3   OH237060   0.381   4.638   0.545  0.1220  0.3966 -0.3978
 5142TIP3    H137061   0.333   4.628   0.463  0.7109  0.8171 -0.7985
 5142TIP3    H237062   0.348   4.567   0.601 -0.0890 -0.0544 -1.0820
 5143TIP3   OH237063   2.550   2.972   7.137  0.3499  0.5795  0.2685
 5143TIP3    H137064   2.605   2.974   7.215  0.0825  2.3074  0.4440
 5143TIP3    H237065   2.462   2.956   7.171  0.4919 -0.6693  0.1143
 5144TIP3   OH237066   0.051   3.528   1.819 -0.6088 -0.8628 -0.1141
 5144TIP3    H137067   0.070   3.497   1.907 -0.3858 -1.3077 -0.3183
 5144TIP3    H237068  -0.029   3.579   1.828 -0.1158 -0.1754  0.5003
 5145TIP3   OH237069   0.687   5.610   8.752  0.5964  0.1594 -0.0460
 5145TIP3    H137070   0.643   5.582   8.832  1.7238  0.9925  0.9060
 5145TIP3    H237071   0.716   5.529   8.710 -0.8807 -0.3401 -0.1488
 5146TIP3   OH237072   3.967   5.252   0.257  0.4192  0.5829  0.0288
 5146TIP3    H137073   3.899   5.238   0.191  0.4806  0.8896 -0.1020
 5146TIP3    H237074   3.919   5.261   0.340  0.3315  0.3518  0.0029
 5147TIP3   OH237075   1.769   2.715   2.128  0.2831  0.4700  0.0613
 5147TIP3    H137076   1.863   2.699   2.132  0.1637 -0.2455  0.2434
 5147TIP3    H237077   1.738   2.657   2.058 -0.3720 -1.2631  1.7002
 5148TIP3   OH237078   1.894   6.502   1.091  0.6092 -0.3740  0.1193
 5148TIP3    H137079   1.847   6.562   1.149 -2.6181 -0.4361 -2.1678
 5148TIP3    H237080   1.857   6.416   1.111  0.7058 -0.6394 -0.8037
 5149TIP3   OH237081   4.290   2.073   7.770 -0.3202  0.5101  0.1649
 5149TIP3    H137082   4.303   2.011   7.842 -0.3151 -2.6127 -2.3098
 5149TIP3    H237083   4.197   2.095   7.774 -0.8626 -1.5148 -0.1847
 5150TIP3   OH237084   1.858   6.088   0.928 -0.3121  0.2523 -0.2300
 5150TIP3    H137085   1.822   6.001   0.944 -1.6208  0.7953 -0.1353
 5150TIP3    H237086   1.927   6.098   0.994  0.0597 -0.8335 -0.4513
 5151TIP3   OH237087   0.950   5.634   1.465  0.0434  0.3676 -0.0446
 5151TIP3    H137088   0.951   5.540   1.449  0.4310  0.4226 -0.3391
 5151TIP3    H237089   0.866   5.663   1.430  0.5606  0.3710 -1.3347
 5152TIP3   OH237090   0.151   6.418   7.769 -0.3444 -0.2596 -0.6468
 5152TIP3    H137091   0.164   6.375   7.685  0.3721  0.6278 -1.0124
 5152TIP3    H237092   0.073   6.377   7.806  0.0199 -1.4799 -1.2052
 5153TIP3   OH237093   3.566   1.855   8.335  0.3741  0.3294 -0.1375
 5153TIP3    H137094   3.501   1.905   8.286 -0.3110 -0.4619 -0.0554
 5153TIP3    H237095   3.602   1.793   8.272 -0.4153 -0.6021  0.3106
 5154TIP3   OH237096   2.257   6.543   0.702  0.2182 -0.0801 -0.6104
 5154TIP3    H137097   2.195   6.473   0.724 -1.1614  0.8259 -1.5399
 5154TIP3    H237098   2.272   6.533   0.608 -0.1690  0.9967 -0.7996
 5155TIP3   OH237099   2.903   2.824   7.833 -0.6593  0.5608  0.5894
 5155TIP3    H137100   2.822   2.856   7.794 -0.6849 -0.6834 -0.4419
 5155TIP3    H237101   2.957   2.798   7.759  0.3233  0.5222  1.3007
 5156TIP3   OH237102   6.194   5.750   2.709 -0.3238 -0.1640 -0.0267
 5156TIP3    H137103   6.107   5.770   2.745 -0.4518  0.8913 -0.8665
 5156TIP3    H237104   6.252   5.814   2.749  0.1006 -0.9251  0.6032
 5157TIP3   OH237105   0.830   0.898   8.672 -0.0322  0.3008  0.4018
 5157TIP3    H137106   0.838   0.817   8.621  1.9574 -0.4413  1.7970
 5157TIP3    H237107   0.898   0.956   8.637 -1.1142  1.2451 -0.2449
 5158TIP3   OH237108   1.790   2.876   0.160 -0.2887 -0.0668  0.2616
 5158TIP3    H137109   1.695   2.882   0.159 -0.2704  0.2695  0.1946
 5158TIP3    H237110   1.809   2.782   0.163 -0.5848 -0.5415 -4.8553
 5159TIP3   OH237111   5.937   4.272   7.411  0.3084 -0.4653  0.4350
 5159TIP3    H137112   5.862   4.330   7.425 -0.4936 -1.7032  1.3926
 5159TIP3    H237113   5.983   4.311   7.336 -1.0928  0.5001  0.0326
 5160TIP3   OH237114   3.769   5.396   0.855 -0.1325 -0.2102  0.0949
 5160TIP3    H137115   3.833   5.458   0.822  0.3587  1.0200  3.0499
 5160TIP3    H237116   3.693   5.407   0.797  0.8857  1.2319 -1.0332
 5161TIP3   OH237117   5.607   4.159   0.827  0.3340  0.0046 -0.3598
 5161TIP3    H137118   5.643   4.248   0.826  1.6226 -0.4226  1.5276
 5161TIP3    H237119   5.617   4.128   0.737  2.3412  0.8743 -0.4881
 5162TIP3   OH237120   3.640   0.624   0.597 -0.1048 -0.2503 -0.3085
 5162TIP3    H137121   3.732   0.629   0.571 -0.1225  0.0441 -0.3138
 5162TIP3    H237122   3.632   0.538   0.639  0.4590  0.2269  0.8276
 5163TIP3   OH237123   4.371   3.104   8.683 -0.3937  0.4044  0.0050
 5163TIP3    H137124   4.442   3.128   8.743  1.1290 -1.9283 -0.7396
 5163TIP3    H237125   4.394   3.147   8.600 -0.3569  0.3936  0.0095
 5164TIP3   OH237126   3.415   4.635   0.089  0.2687 -0.0972 -0.1934
 5164TIP3    H137127   3.418   4.726   0.117 -0.6874  0.0120 -0.4186
 5164TIP3    H237128   3.401   4.585   0.170 -2.9205  0.2470 -0.4040
 5165TIP3   OH237129   5.344   6.145   2.563 -0.1294  0.6244  0.1079
 5165TIP3    H137130   5.420   6.109   2.518 -0.8684  0.0975 -0.7349
 5165TIP3    H237131   5.271   6.090   2.536 -0.6988  0.6628  1.4905
 5166TIP3   OH237132   4.037   0.785   8.995 -0.0086 -0.8558  0.0148
 5166TIP3    H137133   4.047   0.691   8.977 -0.4421 -0.9203  0.1003
 5166TIP3    H237134   3.943   0.800   8.987  0.2622  0.0637 -2.5246
 5167TIP3   OH237135   2.127   5.067   0.332  0.2699 -0.4670 -0.0440
 5167TIP3    H137136   2.076   5.043   0.255  3.2145 -0.2883 -2.2155
 5167TIP3    H237137   2.179   4.990   0.351 -0.6055 -0.6105  2.0459
 5168TIP3   OH237138   5.285   6.539   2.026 -0.0466 -0.2280 -0.4774
 5168TIP3    H137139   5.331   6.602   2.083  0.7223  1.8443 -3.1667
 5168TIP3    H237140   5.302   6.454   2.066  3.1364  0.7858  0.6611
 5169TIP3   OH237141   2.920   6.638   0.410  0.3698  0.1265 -0.2620
 5169TIP3    H137142   2.937   6.544   0.418  1.2525  0.2042 -1.0092
 5169TIP3    H237143   2.858   6.658   0.480 -0.6939 -1.2158 -0.7912
 5170TIP3   OH237144   0.429   0.862   7.340 -0.7692 -0.0571  0.4793
 5170TIP3    H137145   0.484   0.790   7.310 -1.0310 -0.2637  0.4959
 5170TIP3    H237146   0.453   0.873   7.432  1.6941  2.0603 -0.2854
 5171TIP3   OH237147   2.663   0.234   2.536 -0.2174 -0.1041  0.2445
 5171TIP3    H137148   2.736   0.284   2.573  0.2743 -2.3071  2.5253
 5171TIP3    H237149   2.605   0.217   2.610 -2.1346  0.0166 -1.1624
 5172TIP3   OH237150   6.646   1.804   8.816  0.2371  0.3574  0.0628
 5172TIP3    H137151   6.697   1.870   8.863 -1.2337  1.3539  0.3203
 5172TIP3    H237152   6.703   1.726   8.815  1.4319  1.1780  0.9959
 5173TIP3   OH237153   1.550   2.804   7.567  0.3992 -0.6943  0.1491
 5173TIP3    H137154   1.524   2.746   7.638 -1.1212 -0.7112 -0.3695
 5173TIP3    H237155   1.535   2.752   7.488  1.6394 -0.5232 -0.2064
 5174TIP3   OH237156   6.406   0.018   0.975 -0.7264 -0.0013 -0.3056
 5174TIP3    H137157   6.395   0.107   0.940  0.2606  0.7990  1.3076
 5174TIP3    H237158   6.463   0.029   1.051  2.7623 -2.4726 -2.2776
 5175TIP3   OH237159   5.486   2.816   8.458  0.0482  0.6813  0.1522
 5175TIP3    H137160   5.492   2.724   8.484 -0.0966 -0.5236 -3.4984
 5175TIP3    H237161   5.392   2.835   8.459  0.0588  0.7278  0.6471
 5176TIP3   OH237162   1.807   0.242   0.706  0.4017  0.1947 -0.3057
 5176TIP3    H137163   1.741   0.174   0.688  0.3322  0.2103 -0.1158
 5176TIP3    H237164   1.765   0.324   0.680  0.5914  0.1363 -0.8029
 5177TIP3   OH237165   2.705   3.583   7.955  0.0517  0.1777 -0.0081
 5177TIP3    H137166   2.791   3.619   7.975  0.4742 -0.5971 -0.3969
 5177TIP3    H237167   2.661   3.653   7.906  0.7956  0.2462 -0.6072
 5178TIP3   OH237168   5.262   3.775   0.879  0.0247  0.4988 -0.0443
 5178TIP3    H137169   5.277   3.835   0.806 -1.7351  0.3244 -0.6185
 5178TIP3    H237170   5.204   3.824   0.938  1.8794  0.8481  1.5627
 5179TIP3   OH237171   4.092   0.519   8.961  0.5281  0.3292 -0.0002
 5179TIP3    H137172   4.039   0.443   8.935 -0.9493  0.7716  1.5062
 5179TIP3    H237173   4.170   0.514   8.906  0.0115 -1.7123 -0.6401
 5180TIP3   OH237174   3.484   2.785   7.282 -0.3603  0.0899 -0.0138
 5180TIP3    H137175   3.410   2.729   7.309  0.5867 -0.3898  1.7327
 5180TIP3    H237176   3.468   2.869   7.326 -0.6523  0.4963 -0.8821
 5181TIP3   OH237177   6.562   5.136   1.399  0.2734 -0.2770  0.3936
 5181TIP3    H137178   6.648   5.178   1.400  0.5227 -0.7875  0.6950
 5181TIP3    H237179   6.575   5.052   1.444  0.2005 -1.5054 -1.7184
 5182TIP3   OH237180   3.046   2.777   6.786 -0.4756  0.3854  0.2249
 5182TIP3    H137181   3.043   2.683   6.769  0.8376  0.6308 -1.5716
 5182TIP3    H237182   3.100   2.813   6.716  0.8711  2.2201  2.0728
 5183TIP3   OH237183   5.363   4.856   2.290 -0.4523 -0.2824  0.4543
 5183TIP3    H137184   5.273   4.838   2.263  0.0183 -0.0992 -1.3477
 5183TIP3    H237185   5.382   4.787   2.354 -2.0101 -0.0373  1.2382
 5184TIP3   OH237186   2.968   2.068   7.423  0.5187 -0.4972  0.5344
 5184TIP3    H137187   2.931   2.031   7.503 -1.0891 -3.1176 -1.2353
 5184TIP3    H237188   2.896   2.064   7.360  2.2122 -0.3142 -1.5345
 5185TIP3   OH237189   0.441   2.507   1.150  0.3277 -0.0798  0.3961
 5185TIP3    H137190   0.353   2.540   1.165  0.4112  0.6062 -0.5338
 5185TIP3    H237191   0.436   2.415   1.175 -1.0256 -0.4021 -0.9150
 5186TIP3   OH237192   2.743   4.801   7.539  0.1824 -0.1721  0.1210
 5186TIP3    H137193   2.679   4.796   7.468 -2.1378  0.0355  2.0691
 5186TIP3    H237194   2.718   4.879   7.589  0.1381 -1.6219  2.5465
 5187TIP3   OH237195   3.043   3.890   2.399 -0.0178  0.2968  0.0217
 5187TIP3    H137196   2.973   3.882   2.334 -2.3145  2.9240  1.9248
 5187TIP3    H237197   3.031   3.815   2.457  0.7954 -0.9662 -1.3695
 5188TIP3   OH237198   5.565   3.211   7.534  0.2950  0.7262 -0.3118
 5188TIP3    H137199   5.471   3.203   7.550  0.4654 -0.2046  0.2989
 5188TIP3    H237200   5.595   3.273   7.601  0.3477 -0.1032  0.4510
 5189TIP3   OH237201   6.727   4.956   7.748 -0.6651 -0.2510 -0.1311
 5189TIP3    H137202   6.806   4.999   7.716 -0.7697  0.0405 -0.0031
 5189TIP3    H237203   6.693   4.908   7.673  0.5303 -1.7315  0.2241
 5190TIP3   OH237204   1.635   2.203   7.527 -0.5474 -0.1277 -0.3634
 5190TIP3    H137205   1.685   2.128   7.493 -2.2729 -1.1849 -0.7053
 5190TIP3    H237206   1.661   2.209   7.618 -0.7185 -1.4778 -0.1982
 5191TIP3   OH237207   4.761   3.694   8.440 -0.7937 -0.0349 -0.4685
 5191TIP3    H137208   4.804   3.644   8.370  0.5483  1.5101 -0.8003
 5191TIP3    H237209   4.694   3.635   8.474  0.9590 -2.1989 -0.5740
 5192TIP3   OH237210   2.195   5.095   8.117 -0.1734 -0.0099 -0.0076
 5192TIP3    H137211   2.130   5.145   8.067 -0.4793 -0.3299  0.0650
 5192TIP3    H237212   2.143   5.032   8.167 -0.0073  1.3151  1.9092
 5193TIP3   OH237213   0.078   3.777   7.720 -0.6854 -0.6861  0.2401
 5193TIP3    H137214  -0.012   3.759   7.694 -0.1882 -0.8032 -1.4881
 5193TIP3    H237215   0.073   3.860   7.767 -1.8993 -1.4627  1.5727
 5194TIP3   OH237216   3.608   6.774   7.955  0.3673  0.1874 -0.1947
 5194TIP3    H137217   3.662   6.842   7.915  0.9500  0.2517  0.6596
 5194TIP3    H237218   3.669   6.725   8.011 -0.0553 -1.0127 -0.7494
 5195TIP3   OH237219   5.952   1.861   1.790 -0.4124  0.2799 -0.5931
 5195TIP3    H137220   5.992   1.915   1.722  1.5418  0.8753  0.9603
 5195TIP3    H237221   5.991   1.775   1.779  0.0075  0.4114 -0.1551
 5196TIP3   OH237222   0.462   0.641   8.670  0.2960  0.3084  0.2724
 5196TIP3    H137223   0.438   0.561   8.716  1.6698 -0.2849 -0.0112
 5196TIP3    H237224   0.379   0.675   8.636 -0.2756 -1.0955  0.2115
 5197TIP3   OH237225   5.528   0.200   7.698 -0.0278  0.0550 -0.0572
 5197TIP3    H137226   5.476   0.130   7.737 -0.1668  0.9586  1.4337
 5197TIP3    H237227   5.463   0.261   7.662 -0.0275  0.9580  1.4089
 5198TIP3   OH237228   3.758   0.827   0.293  0.1850 -0.1956  0.5372
 5198TIP3    H137229   3.822   0.836   0.222 -1.0189  0.0629 -0.5469
 5198TIP3    H237230   3.772   0.904   0.348  0.4525  0.1252  0.0200
 5199TIP3   OH237231   5.846   1.640   7.953 -0.1049  0.5130 -0.0954
 5199TIP3    H137232   5.883   1.708   8.010 -0.2523  0.5877 -0.0868
 5199TIP3    H237233   5.921   1.593   7.919 -0.0309 -0.2383  1.0259
 5200TIP3   OH237234   3.382   2.789   1.493 -0.2000 -0.1393  0.3435
 5200TIP3    H137235   3.345   2.701   1.488  0.6405 -0.4395 -1.5538
 5200TIP3    H237236   3.454   2.781   1.556 -1.3843 -0.2767  1.7265
 5201TIP3   OH237237   3.009   6.167   8.314  0.6371  0.2234  0.6525
 5201TIP3    H137238   3.076   6.145   8.378  0.8332 -1.8455 -0.1950
 5201TIP3    H237239   3.038   6.124   8.233 -1.1723  0.1655 -0.0107
 5202TIP3   OH237240   2.613   0.993   7.308  0.6976  0.2803 -0.5794
 5202TIP3    H137241   2.538   0.946   7.270  0.9087 -0.4627 -0.0980
 5202TIP3    H237242   2.581   1.082   7.323  0.3633  0.3799 -1.7454
 5203TIP3   OH237243   6.184   2.188   8.075 -0.6388 -0.2167 -0.0620
 5203TIP3    H137244   6.178   2.107   8.125 -0.3652  0.1247  0.5498
 5203TIP3    H237245   6.154   2.256   8.137  1.5360  0.4683  0.3358
 5204TIP3   OH237246   4.094   5.502   1.163  0.3981  0.2775 -0.3857
 5204TIP3    H137247   4.006   5.467   1.155  0.6379 -0.5881  0.6068
 5204TIP3    H237248   4.088   5.569   1.230  0.5194  0.1279 -0.2246
 5205TIP3   OH237249   1.372   6.063   8.373  0.2741 -0.3591  0.1642
 5205TIP3    H137250   1.298   6.020   8.331 -0.6938  0.1945  1.2120
 5205TIP3    H237251   1.442   5.998   8.374 -0.1782 -0.8721 -0.9073
 5206TIP3   OH237252   2.769   4.592   1.125 -0.2148 -0.0583  0.7279
 5206TIP3    H137253   2.787   4.499   1.142 -1.6354 -0.6532 -0.8018
 5206TIP3    H237254   2.739   4.626   1.209  1.6100 -0.6109  1.6642
 5207TIP3   OH237255   1.827   3.173   6.351  0.0554 -0.2508 -0.0838
 5207TIP3    H137256   1.829   3.255   6.302  0.4685  0.2191  0.7064
 5207TIP3    H237257   1.736   3.163   6.377 -0.1439 -0.4409 -0.8272
 5208TIP3   OH237258   3.693   3.137   2.787  0.2774  0.2441  0.2051
 5208TIP3    H137259   3.782   3.103   2.801  0.5322  0.6694 -0.3233
 5208TIP3    H237260   3.682   3.204   2.855  1.3242  1.9632 -1.2423
 5209TIP3   OH237261   6.283   3.663   0.687 -0.5587 -0.1885 -0.6078
 5209TIP3    H137262   6.269   3.607   0.610  0.1587 -0.5745 -0.4595
 5209TIP3    H237263   6.238   3.617   0.758  1.8272 -1.7554  0.0083
 5210TIP3   OH237264   6.594   4.973   0.023 -0.2338  0.4818  0.1463
 5210TIP3    H137265   6.602   5.061  -0.015  1.5015  1.0058  1.5872
 5210TIP3    H237266   6.549   4.987   0.107  1.1101  0.2225  0.9468
 5211TIP3   OH237267   0.391   5.737   8.338 -0.4667  0.8389 -0.5576
 5211TIP3    H137268   0.316   5.794   8.356 -1.7394 -0.6880 -0.8329
 5211TIP3    H237269   0.423   5.710   8.424 -1.5158 -0.0862 -0.4389
 5212TIP3   OH237270   6.544   0.275   8.390  0.1435  0.3144  0.6633
 5212TIP3    H137271   6.555   0.293   8.297  0.7628  0.6481  0.7989
 5212TIP3    H237272   6.451   0.293   8.407 -0.1917 -0.6616 -0.0839
 5213TIP3   OH237273   0.490   5.583   8.560 -0.1271  1.3754  0.6487
 5213TIP3    H137274   0.443   5.547   8.635  1.0179 -0.4911  0.5350
 5213TIP3    H237275   0.579   5.597   8.592 -0.3096  3.3695  0.4247
 5214TIP3   OH237276   3.888   2.408   0.924  0.1282 -0.4136  0.2942
 5214TIP3    H137277   3.914   2.412   0.832 -0.1692  1.5855  0.2614
 5214TIP3    H237278   3.847   2.492   0.942 -1.9776 -1.6328  1.6525
 5215TIP3   OH237279   1.878   6.340   8.571 -0.3405 -0.3396  0.1381
 5215TIP3    H137280   1.839   6.424   8.596 -0.5021 -0.1183 -0.8213
 5215TIP3    H237281   1.972   6.352   8.585 -0.3790 -0.0606  0.1662
 5216TIP3   OH237282   1.472   0.689   1.127  0.6562 -0.1744  0.4678
 5216TIP3    H137283   1.512   0.746   1.193  0.0148  0.6540  0.1537
 5216TIP3    H237284   1.378   0.697   1.141  0.5370 -0.6810  0.0189
 5217TIP3   OH237285   4.452   6.377   0.947  0.7446 -0.1943 -0.0672
 5217TIP3    H137286   4.398   6.301   0.924 -0.0992  0.1120  0.8565
 5217TIP3    H237287   4.536   6.360   0.903 -0.1299 -0.5896 -1.6955
 5218TIP3   OH237288   2.593   5.781   8.180  0.1809  0.2625  0.0520
 5218TIP3    H137289   2.662   5.804   8.242 -0.0610 -3.3639  2.0006
 5218TIP3    H237290   2.633   5.714   8.124 -1.0778 -0.2266 -0.2924
 5219TIP3   OH237291   6.155   2.207   7.347 -0.1559 -0.0483  0.1494
 5219TIP3    H137292   6.089   2.215   7.416  0.4280 -1.8802  0.9787
 5219TIP3    H237293   6.159   2.114   7.329  0.8093  0.2506 -1.3137
 5220TIP3   OH237294   1.798   3.869   1.299  0.1293 -0.0151  0.0331
 5220TIP3    H137295   1.826   3.913   1.219 -1.3622  1.4656  0.2653
 5220TIP3    H237296   1.755   3.938   1.350 -3.1302 -1.8409  0.0288
 5221TIP3   OH237297   5.457   3.862   7.064 -0.4449 -0.7933 -0.0152
 5221TIP3    H137298   5.478   3.837   6.974  0.9325  1.2183 -0.3221
 5221TIP3    H237299   5.520   3.815   7.118 -1.2142 -1.9317 -0.0786
 5222TIP3   OH237300   4.122   0.930   0.945  0.3188  0.0891  0.1124
 5222TIP3    H137301   4.074   0.898   0.868 -1.4830  1.4701  0.5981
 5222TIP3    H237302   4.151   1.018   0.920  0.0334  0.4040  0.8674
 5223TIP3   OH237303   3.448   2.642   6.596  0.3800 -0.1483 -0.4254
 5223TIP3    H137304   3.453   2.726   6.550 -0.1926 -1.1542 -2.4680
 5223TIP3    H237305   3.489   2.659   6.681  1.7311  1.7909 -1.3622
 5224TIP3   OH237306   0.421   5.320   6.628 -0.1765 -0.6534  0.2273
 5224TIP3    H137307   0.364   5.247   6.603  0.2811 -0.9991  0.1897
 5224TIP3    H237308   0.373   5.398   6.599 -0.2186 -0.9840 -0.6366
 5225TIP3   OH237309   6.729   5.470   0.947  0.3887 -0.0711  0.2976
 5225TIP3    H137310   6.727   5.476   1.043 -1.9087  0.2025  0.2855
 5225TIP3    H237311   6.709   5.559   0.918  1.4210 -0.0763 -0.4615
 5226TIP3   OH237312   3.289   5.253   0.008  0.0791  0.2511  0.0095
 5226TIP3    H137313   3.305   5.312  -0.065 -1.9375  1.1111  0.2056
 5226TIP3    H237314   3.201   5.273   0.037  0.2157 -1.2177  1.6451
 5227TIP3   OH237315   3.850   0.155   1.160 -0.0830 -0.3230 -0.3889
 5227TIP3    H137316   3.903   0.234   1.164 -2.0659  1.0385  0.2635
 5227TIP3    H237317   3.850   0.121   1.249  0.8537 -1.1669 -0.6875
 5228TIP3   OH237318   4.321   6.512   0.532 -0.2726  0.1050 -0.5735
 5228TIP3    H137319   4.402   6.463   0.515 -0.2796  0.1611 -0.7827
 5228TIP3    H237320   4.282   6.522   0.445 -0.9982 -0.7661 -0.3623
 5229TIP3   OH237321   5.109   5.840   0.333  0.1233 -0.0448 -0.4652
 5229TIP3    H137322   5.129   5.855   0.426 -0.0011 -0.2157 -0.4114
 5229TIP3    H237323   5.038   5.901   0.313 -1.3949 -1.5349  0.1290
 5230TIP3   OH237324   3.866   6.580   1.365  0.0936 -0.2235  0.3366
 5230TIP3    H137325   3.892   6.567   1.274  1.0613  0.7049  0.4612
 5230TIP3    H237326   3.874   6.674   1.379 -0.8980 -0.2396  1.1404
 5231TIP3   OH237327   0.589   0.290   1.732 -0.4626 -0.2438  0.5085
 5231TIP3    H137328   0.672   0.278   1.778  0.3705 -0.4092 -0.9803
 5231TIP3    H237329   0.565   0.381   1.750  1.2268  0.5315 -0.8800
 5232TIP3   OH237330   0.077   4.577   0.559 -0.4335  0.0064 -0.1580
 5232TIP3    H137331   0.133   4.533   0.495 -1.0679  0.4645 -1.0479
 5232TIP3    H237332   0.132   4.648   0.593 -0.0040 -0.4007  0.0210
 5233TIP3   OH237333   0.943   1.750   2.010 -0.4097 -0.1675 -0.5937
 5233TIP3    H137334   0.874   1.686   2.028 -0.2326 -0.1931  0.0229
 5233TIP3    H237335   0.907   1.806   1.941 -2.1767  1.5288  1.5607
 5234TIP3   OH237336   5.379   0.387   7.203  0.4398 -0.2627 -0.1505
 5234TIP3    H137337   5.331   0.316   7.246  0.5830 -0.5441 -0.4534
 5234TIP3    H237338   5.321   0.415   7.131  0.5034 -0.2594 -0.2007
 5235TIP3   OH237339   5.730   4.040   7.324 -0.1418  0.2244 -0.9161
 5235TIP3    H137340   5.819   4.040   7.288 -0.6825  0.1589 -2.3205
 5235TIP3    H237341   5.705   4.132   7.324 -0.0251  0.2600 -0.3639
 5236TIP3   OH237342   6.363   3.911   2.274  0.4953 -0.2823  0.2148
 5236TIP3    H137343   6.423   3.891   2.346  1.7771 -0.6409 -0.9047
 5236TIP3    H237344   6.420   3.942   2.204 -0.7893  0.6539 -0.4461
 5237TIP3   OH237345   4.408   1.535   8.607  0.3536 -0.3298 -0.4005
 5237TIP3    H137346   4.392   1.501   8.520 -0.4089  0.9529 -0.7935
 5237TIP3    H237347   4.411   1.630   8.596 -1.2383 -0.0361  1.1666
 5238TIP3   OH237348   2.563   1.847   0.639 -0.3333  0.1867  0.1575
 5238TIP3    H137349   2.557   1.781   0.570 -0.7408  0.3769  0.0096
 5238TIP3    H237350   2.601   1.801   0.713  2.4079  0.5201 -0.9238
 5239TIP3   OH237351   6.166   1.622   0.220 -0.1933  0.1984  0.1939
 5239TIP3    H137352   6.224   1.586   0.152 -2.1827 -3.2181  0.1090
 5239TIP3    H237353   6.226   1.661   0.284  2.0707 -1.4138 -0.8168
 5240TIP3   OH237354   5.708   3.652   1.804  0.5100  0.3098 -0.5053
 5240TIP3    H137355   5.635   3.714   1.801  0.8795  0.9063  1.4817
 5240TIP3    H237356   5.673   3.573   1.762 -1.3308  0.5688  0.4126
 5241TIP3   OH237357   1.833   0.159   1.007 -0.3230 -0.5338 -0.2941
 5241TIP3    H137358   1.902   0.099   0.978  0.6493  0.6712 -0.5838
 5241TIP3    H237359   1.797   0.195   0.925  1.1745  1.4938 -0.1540
 5242TIP3   OH237360   3.153   5.670   1.871  0.0844 -0.1030  0.3733
 5242TIP3    H137361   3.164   5.736   1.940 -0.1004  0.1413  0.1703
 5242TIP3    H237362   3.238   5.667   1.827 -0.0419  0.3276  0.0947
 5243TIP3   OH237363   3.304   6.729   6.735 -0.0341  0.4775 -0.2276
 5243TIP3    H137364   3.298   6.781   6.655 -1.2153 -0.6535 -0.9367
 5243TIP3    H237365   3.216   6.734   6.774  0.1836  0.0385  0.3453
 5244TIP3   OH237366   4.552   2.972   0.430 -0.1613 -0.1613 -0.3729
 5244TIP3    H137367   4.624   3.028   0.458 -1.1686  0.5598  0.9038
 5244TIP3    H237368   4.473   3.017   0.461 -1.0074 -2.5354  1.2842
 5245TIP3   OH237369   5.781   4.010   7.018 -0.0202 -0.3798  0.4475
 5245TIP3    H137370   5.790   3.930   7.069 -1.3095 -1.3243 -0.7073
 5245TIP3    H237371   5.842   3.999   6.945  1.1160  0.5312  1.2271
 5246TIP3   OH237372   5.767   4.571   8.291  0.2393  0.1505 -0.0703
 5246TIP3    H137373   5.736   4.657   8.261 -0.4880 -0.3107 -0.6910
 5246TIP3    H237374   5.690   4.531   8.331  0.1192 -0.8448 -1.2318
 5247TIP3   OH237375   3.961   1.267   0.445  0.0831 -0.2483 -0.2380
 5247TIP3    H137376   3.870   1.275   0.474  0.3453  0.3217  0.4527
 5247TIP3    H237377   3.968   1.327   0.371 -0.7228 -2.0772 -1.8957
 5248TIP3   OH237378   5.419   5.317   1.952 -0.0261  0.4311 -0.6542
 5248TIP3    H137379   5.483   5.341   1.885  1.5058 -2.8802 -0.5322
 5248TIP3    H237380   5.454   5.353   2.033  0.5499  0.4668 -0.9160
 5249TIP3   OH237381   2.145   0.763   8.449  0.0803  0.3375  0.4190
 5249TIP3    H137382   2.078   0.743   8.384 -0.4007  0.5872  0.8286
 5249TIP3    H237383   2.222   0.715   8.420 -0.2952 -0.0053 -0.0236
 5250TIP3   OH237384   1.984   3.399   0.837 -0.3040 -0.1263 -0.3993
 5250TIP3    H137385   2.057   3.433   0.889  0.1544  0.0766 -1.1521
 5250TIP3    H237386   1.906   3.422   0.887  0.1378 -0.1235  0.2961
 5251TIP3   OH237387   6.661   2.132   8.865  0.2100  0.1707  0.3395
 5251TIP3    H137388   6.745   2.113   8.906 -0.3838  1.5845  2.3343
 5251TIP3    H237389   6.681   2.140   8.772  2.2305  0.2555  0.7393
 5252TIP3   OH237390   2.359   6.421   0.970 -0.2407 -0.3160  0.3732
 5252TIP3    H137391   2.269   6.451   0.955  0.0157  0.0616 -0.4830
 5252TIP3    H237392   2.367   6.343   0.914  0.3794  0.4436 -0.6318
 5253TIP3   OH237393   2.568   3.795   7.860  0.0056 -0.8534  0.2093
 5253TIP3    H137394   2.490   3.841   7.889 -0.6565 -1.8421  0.0216
 5253TIP3    H237395   2.614   3.859   7.804 -1.4283 -0.7665 -0.9283
 5254TIP3   OH237396   5.866   2.996   6.960 -0.1228 -0.6406  0.8028
 5254TIP3    H137397   5.938   3.019   6.902 -0.9280 -0.3277 -0.0977
 5254TIP3    H237398   5.801   2.953   6.903 -1.8545  1.5478  0.9743
 5255TIP3   OH237399   4.724   6.413   8.349  0.4544  0.6156  0.0641
 5255TIP3    H137400   4.736   6.391   8.441  1.6774 -0.5153 -0.3316
 5255TIP3    H237401   4.639   6.457   8.345 -0.7531 -1.4365  1.3917
 5256TIP3   OH237402   2.697   0.249   7.190 -0.2308  0.0993 -0.3223
 5256TIP3    H137403   2.673   0.197   7.113  0.3511  0.2060 -0.5771
 5256TIP3    H237404   2.772   0.204   7.227 -2.0716 -1.5122  1.7606
 5257TIP3   OH237405   0.233   0.284   0.992  0.3269  0.5275 -0.2317
 5257TIP3    H137406   0.212   0.360   1.047 -0.7983  0.0864 -0.0229
 5257TIP3    H237407   0.209   0.313   0.903  3.1496  1.6261 -0.7229
 5258TIP3   OH237408   3.491   5.206   2.380 -0.0633 -0.0297  1.0743
 5258TIP3    H137409   3.486   5.207   2.476 -1.2191  1.3564  1.0378
 5258TIP3    H237410   3.581   5.180   2.361 -0.1780 -1.6666  2.4897
 5259TIP3   OH237411   6.773   0.362   8.534  0.4402 -0.0944 -0.4849
 5259TIP3    H137412   6.690   0.317   8.520 -1.1922  2.7785 -0.8811
 5259TIP3    H237413   6.748   0.446   8.572  3.0009  1.6024 -2.2411
 5260TIP3   OH237414   1.860   0.784   8.047  0.1573  0.5145 -0.3160
 5260TIP3    H137415   1.826   0.872   8.034  0.7459  0.7750 -0.1176
 5260TIP3    H237416   1.955   0.795   8.049  0.2918 -0.2894 -1.5132
 5261TIP3   OH237417   2.057   0.939   0.115 -0.2116  0.1293 -0.0437
 5261TIP3    H137418   2.016   0.877   0.176 -3.7164  1.9047 -0.3472
 5261TIP3    H237419   2.039   0.903   0.028 -1.5064  1.0500 -0.1876
 5262TIP3   OH237420   1.852   4.496   7.161 -0.5338 -0.0445  0.4076
 5262TIP3    H137421   1.895   4.441   7.096 -0.5236 -2.1881  2.1242
 5262TIP3    H237422   1.923   4.538   7.209 -0.3496 -1.6147  1.5912
 5263TIP3   OH237423   2.637   4.334   8.809  0.4511  0.0111 -0.1301
 5263TIP3    H137424   2.551   4.344   8.848  0.1373 -1.1137 -0.4924
 5263TIP3    H237425   2.697   4.323   8.883 -0.2556 -3.0133  0.1010
 5264TIP3   OH237426   5.011   4.823   8.516  0.8856  0.1440 -0.2823
 5264TIP3    H137427   5.016   4.907   8.470  0.1059 -0.2395 -1.1092
 5264TIP3    H237428   5.097   4.813   8.557  0.8560  1.5394  0.2029
 5265TIP3   OH237429   2.661   0.779   0.951  0.7709 -0.0141 -0.0249
 5265TIP3    H137430   2.734   0.771   0.891  3.2115  1.0811  2.5755
 5265TIP3    H237431   2.673   0.707   1.014  0.1702  0.7259  0.9819
 5266TIP3   OH237432   4.699   3.146   2.072 -0.0322 -0.2403  0.0788
 5266TIP3    H137433   4.756   3.073   2.096  0.1077  0.1322  0.9249
 5266TIP3    H237434   4.753   3.224   2.085 -0.0230  0.0081 -1.2788
 5267TIP3   OH237435   4.486   0.658   2.075 -0.0228  0.1834  0.4560
 5267TIP3    H137436   4.410   0.664   2.016 -1.6479  0.5483  2.4637
 5267TIP3    H237437   4.508   0.565   2.075 -1.7809 -0.2853  1.3175
 5268TIP3   OH237438   1.536   1.016   8.808 -0.1730  0.2586 -0.5715
 5268TIP3    H137439   1.583   1.004   8.725 -1.0371  1.8743 -1.3365
 5268TIP3    H237440   1.589   1.080   8.856  1.1882 -1.8195  0.8842
 5269TIP3   OH237441   2.630   3.689   7.247 -0.6973  0.5010  0.0246
 5269TIP3    H137442   2.716   3.719   7.218 -0.0143 -2.4645 -1.3402
 5269TIP3    H237443   2.569   3.732   7.187 -0.0972  1.5939  0.1644
 5270TIP3   OH237444   1.017   5.117   0.409  0.3988  0.1319 -0.0112
 5270TIP3    H137445   1.045   5.044   0.354 -2.0957 -0.3091 -0.8352
 5270TIP3    H237446   0.922   5.118   0.400  0.1438  1.7911  2.1628
 5271TIP3   OH237447   3.270   4.242   8.168 -0.2306  0.4836  0.4586
 5271TIP3    H137448   3.329   4.289   8.108  1.4408 -0.3116  1.3919
 5271TIP3    H237449   3.196   4.302   8.181  0.9020  2.0363  0.1104
 5272TIP3   OH237450   1.168   3.250   0.828 -0.4715 -0.2454 -0.0120
 5272TIP3    H137451   1.240   3.314   0.833 -1.3922  0.7432  2.0049
 5272TIP3    H237452   1.090   3.303   0.810 -1.1621 -0.8567  1.0610
 5273TIP3   OH237453   3.652   6.306   0.365  0.1148 -0.6190 -0.3715
 5273TIP3    H137454   3.677   6.399   0.360  1.7714 -1.0514 -0.7712
 5273TIP3    H237455   3.625   6.283   0.276 -1.3761 -0.2682 -0.0363
 5274TIP3   OH237456   4.960   0.195   2.751 -0.4023  0.0666 -0.2808
 5274TIP3    H137457   4.972   0.271   2.693 -1.7352  0.6916  0.2298
 5274TIP3    H237458   4.938   0.123   2.691  0.6482  0.1093 -0.7476
 5275TIP3   OH237459   0.971   4.273   8.352  0.1848  0.5552 -0.2449
 5275TIP3    H137460   1.011   4.274   8.265  0.1389 -0.9389 -0.3097
 5275TIP3    H237461   0.882   4.239   8.337  0.0102  0.7464  0.3270
 5276TIP3   OH237462   1.474   1.085   6.456 -0.3245  0.0293  0.2860
 5276TIP3    H137463   1.417   1.119   6.525  1.5128 -1.5306  2.6935
 5276TIP3    H237464   1.427   1.008   6.422 -0.9620  0.4640  0.1587
 5277TIP3   OH237465   0.680   5.551   6.582  0.1663 -0.8556  0.3241
 5277TIP3    H137466   0.751   5.496   6.615  0.1790 -2.0252 -1.5365
 5277TIP3    H237467   0.711   5.641   6.596  1.9139 -1.3383 -0.2081
 5278TIP3   OH237468   1.816   0.483   2.589 -0.1198 -0.1971 -0.3156
 5278TIP3    H137469   1.854   0.442   2.666 -1.4005 -0.7782  0.0251
 5278TIP3    H237470   1.814   0.413   2.523  1.9426  0.5533 -1.2805
 5279TIP3   OH237471   0.386   2.274   2.509 -0.5750 -0.1267 -0.1917
 5279TIP3    H137472   0.438   2.197   2.533  0.8695  0.8328 -0.1724
 5279TIP3    H237473   0.299   2.238   2.488  0.4564 -1.9205 -1.6013
 5280TIP3   OH237474   1.814   1.344   8.793 -0.3564  0.1097 -0.4630
 5280TIP3    H137475   1.904   1.318   8.774  0.9181  3.5526  0.0929
 5280TIP3    H237476   1.786   1.286   8.864  0.9626 -1.7263 -1.3585
 5281TIP3   OH237477   5.758   3.701   7.469 -0.3486  1.0750  0.1094
 5281TIP3    H137478   5.843   3.745   7.464 -0.5699  1.9013  2.5205
 5281TIP3    H237479   5.725   3.721   7.557 -2.8350  0.3690 -0.5764
 5282TIP3   OH237480   0.566   2.162   1.449  0.1214 -0.3217  0.3720
 5282TIP3    H137481   0.505   2.176   1.377  0.6025 -1.4053 -0.2665
 5282TIP3    H237482   0.628   2.235   1.442 -0.2317 -0.0409  0.1150
 5283TIP3   OH237483   3.252   0.252   1.556  0.6512  0.2790 -0.2163
 5283TIP3    H137484   3.220   0.204   1.633 -0.6234 -0.6136 -1.2630
 5283TIP3    H237485   3.345   0.267   1.575  0.8773 -1.7607  0.6160
 5284TIP3   OH237486   6.051   2.954   7.741 -0.0293 -0.1102  0.3593
 5284TIP3    H137487   6.103   3.022   7.783 -0.3271  0.8169 -0.7122
 5284TIP3    H237488   5.963   2.990   7.736 -0.7646 -1.5742  1.9487
 5285TIP3   OH237489   4.499   2.819   0.655 -0.3075  0.5730  0.1487
 5285TIP3    H137490   4.490   2.833   0.561 -2.1670 -0.7099  0.0852
 5285TIP3    H237491   4.447   2.741   0.673  1.2237 -0.0985  2.0206
 5286TIP3   OH237492   3.148   3.222   1.796  0.0608 -0.1411 -0.6728
 5286TIP3    H137493   3.210   3.290   1.820  2.1736 -1.5152 -1.9529
 5286TIP3    H237494   3.149   3.162   1.871 -1.9329  1.1850  0.5338
 5287TIP3   OH237495   3.034   5.739   1.344  0.4683 -1.1772 -0.1508
 5287TIP3    H137496   3.110   5.708   1.296 -0.2689 -0.5047 -1.8515
 5287TIP3    H237497   3.060   5.736   1.436  2.0290 -2.2896 -0.5871
 5288TIP3   OH237498   2.639   1.084   0.898  0.8785  0.2442  0.3520
 5288TIP3    H137499   2.678   1.006   0.859 -1.1793 -0.5972 -0.1568
 5288TIP3    H237500   2.545   1.074   0.883  0.5047  2.6150  0.6613
 5289TIP3   OH237501   3.111   0.570   8.714 -0.1598 -0.5630  0.2154
 5289TIP3    H137502   3.182   0.509   8.695 -0.4683  0.0632 -3.9675
 5289TIP3    H237503   3.031   0.519   8.696 -0.4857  0.3806 -1.1505
 5290TIP3   OH237504   1.080   2.283   7.183 -0.4177 -0.5160 -0.0151
 5290TIP3    H137505   1.173   2.296   7.202  0.1314  0.4918 -2.8621
 5290TIP3    H237506   1.065   2.331   7.102 -3.0639 -2.0448 -0.5555
 5291TIP3   OH237507   3.546   1.730   1.748  0.0142 -0.2351  0.4448
 5291TIP3    H137508   3.459   1.757   1.719 -0.1712 -4.0358 -3.5245
 5291TIP3    H237509   3.530   1.669   1.820 -0.6987 -1.3033 -0.5936
 5292TIP3   OH237510   3.500   0.049   6.481  0.3408 -0.2570  0.8295
 5292TIP3    H137511   3.411   0.084   6.480  1.0488  1.9384 -2.3940
 5292TIP3    H237512   3.495  -0.031   6.429 -0.2614 -2.1906  3.6346
 5293TIP3   OH237513   6.233   4.464   0.439 -0.1261  0.3471  0.2633
 5293TIP3    H137514   6.296   4.536   0.442 -0.2810  0.5107 -0.3616
 5293TIP3    H237515   6.287   4.385   0.439  0.0712  0.4803  0.0916
 5294TIP3   OH237516   1.490   3.558   1.577  0.7480  0.3716  0.4685
 5294TIP3    H137517   1.484   3.550   1.482  0.2528  0.7962  0.4565
 5294TIP3    H237518   1.560   3.498   1.603  0.8538  0.2251 -0.1588
 5295TIP3   OH237519   1.230   1.694   8.984  0.2168 -0.5970 -0.4130
 5295TIP3    H137520   1.241   1.663   8.895 -0.8132 -0.2223 -0.6868
 5295TIP3    H237521   1.186   1.778   8.975 -0.2570 -0.7355  0.4521
 5296TIP3   OH237522   2.242   3.325   7.015  0.5969  0.1446  0.0862
 5296TIP3    H137523   2.220   3.394   7.078 -0.0549  0.5090 -0.5157
 5296TIP3    H237524   2.325   3.289   7.045  0.3603  0.4051  1.0688
 5297TIP3   OH237525   6.343   1.765   1.770  0.3779  0.1176 -0.4601
 5297TIP3    H137526   6.410   1.772   1.702  0.7002  0.0211 -0.1546
 5297TIP3    H237527   6.339   1.672   1.789  0.1609  0.1253 -0.4702
 5298TIP3   OH237528   3.511   0.320   1.583 -0.3047 -0.4651  0.2794
 5298TIP3    H137529   3.586   0.286   1.632  0.8834  1.5423 -0.0430
 5298TIP3    H237530   3.542   0.328   1.493 -1.0815 -0.1073  0.0315
 5299TIP3   OH237531   2.490   1.089   8.721 -0.5437 -0.2035 -0.4300
 5299TIP3    H137532   2.569   1.134   8.748  0.2861 -2.7585  1.8050
 5299TIP3    H237533   2.434   1.089   8.798 -1.4573 -1.0374 -1.0565
 5300TIP3   OH237534   4.226   4.442   0.875  0.2207  0.6349  0.5060
 5300TIP3    H137535   4.202   4.364   0.924 -0.1441  1.0257  0.9591
 5300TIP3    H237536   4.213   4.418   0.783 -1.7891  0.7794  0.7046
 5301TIP3   OH237537   1.003   6.512   2.067 -0.8289 -0.0839  0.1180
 5301TIP3    H137538   1.066   6.580   2.044 -3.9330  2.4272 -1.7702
 5301TIP3    H237539   1.055   6.431   2.070  2.3580  1.6833 -1.7363
 5302TIP3   OH237540   2.156   0.273   7.367  0.9406 -0.6879  0.2397
 5302TIP3    H137541   2.126   0.352   7.323 -0.4801 -0.2516  1.8878
 5302TIP3    H237542   2.081   0.215   7.367  1.6771 -1.6610 -0.0807
 5303TIP3   OH237543   3.416   5.708   1.838  0.7950 -0.3078 -0.1672
 5303TIP3    H137544   3.488   5.655   1.872  0.0620 -1.0998  0.1718
 5303TIP3    H237545   3.431   5.795   1.875  0.2147 -1.0610  1.9382
 5304TIP3   OH237546   2.888   3.775   2.205  0.5849 -0.1178 -0.3481
 5304TIP3    H137547   2.835   3.713   2.255  0.6118 -0.1035 -0.3010
 5304TIP3    H237548   2.942   3.721   2.148  0.2716 -0.1199 -0.6459
 5305TIP3   OH237549   2.933   3.758   7.126  0.0080  0.4082 -0.5312
 5305TIP3    H137550   2.982   3.677   7.144 -1.1746 -0.1808  0.1455
 5305TIP3    H237551   2.938   3.767   7.031  1.5446  0.4554 -0.4751
 5306TIP3   OH237552   0.868   6.043   0.083  0.1733 -0.4492 -0.0338
 5306TIP3    H137553   0.947   6.095   0.067  0.8131 -0.4236  2.6761
 5306TIP3    H237554   0.899   5.964   0.126 -1.1657 -1.0462 -0.1045
 5307TIP3   OH237555   2.640   0.423   7.525  0.1536 -0.2941 -0.1901
 5307TIP3    H137556   2.662   0.483   7.454  1.0116  0.0844  0.3870
 5307TIP3    H237557   2.593   0.478   7.589  0.4549 -0.3522  0.0848
 5308TIP3   OH237558   6.032   5.054   8.719  0.0951  0.5916  0.2079
 5308TIP3    H137559   6.040   5.059   8.623  0.4432  0.4991  0.2294
 5308TIP3    H237560   5.955   5.106   8.739  0.8693  1.8585  0.0095
 5309TIP3   OH237561   4.987   5.049   2.664  0.2648 -0.1618 -0.0628
 5309TIP3    H137562   4.974   5.064   2.758  2.1526 -2.2649  0.6344
 5309TIP3    H237563   5.040   5.124   2.635 -0.0494  0.3425  0.6254
 5310TIP3   OH237564   0.848   5.597   1.887 -0.7119  0.4579  0.0194
 5310TIP3    H137565   0.814   5.600   1.977 -0.5605 -2.8777  0.3178
 5310TIP3    H237566   0.803   5.524   1.847  0.1444  1.1024 -2.2732
 5311TIP3   OH237567   5.148   5.745   1.642 -0.1502  0.2112  0.0102
 5311TIP3    H137568   5.174   5.795   1.564 -0.9169  1.4329  0.5050
 5311TIP3    H237569   5.124   5.812   1.706 -0.6071 -0.7974  0.9207
 5312TIP3   OH237570   2.697   4.697   0.459  0.1311  0.9880 -0.1226
 5312TIP3    H137571   2.646   4.701   0.379 -0.1142  1.5543  0.0579
 5312TIP3    H237572   2.785   4.672   0.430 -0.3469 -0.4390 -0.3791
 5313TIP3   OH237573   4.486   0.893   8.088 -0.0963 -0.6115 -0.2174
 5313TIP3    H137574   4.528   0.919   8.169  0.1147 -1.0388 -0.1865
 5313TIP3    H237575   4.502   0.799   8.081  0.3444 -0.4904 -1.0145
 5314TIP3   OH237576   3.376   3.872   0.075  0.0136  0.7075 -0.0957
 5314TIP3    H137577   3.281   3.874   0.090  0.2388  0.9653  1.5591
 5314TIP3    H237578   3.388   3.814   0.001 -1.5080  1.3705 -0.9072
 5315TIP3   OH237579   1.597   3.969   2.199 -0.0359  0.4432  0.7206
 5315TIP3    H137580   1.512   3.988   2.238 -0.8565 -2.8916  0.8922
 5315TIP3    H237581   1.660   3.996   2.266 -1.1418  0.3089  1.8538
 5316TIP3   OH237582   3.007   4.738   1.102 -0.0907  0.6554  0.3921
 5316TIP3    H137583   2.926   4.694   1.127  0.7214 -0.5504  1.0181
 5316TIP3    H237584   2.991   4.769   1.013 -0.9633 -0.2522  0.2184
 5317TIP3   OH237585   2.369   2.005   7.896  0.1256 -0.1420  0.9188
 5317TIP3    H137586   2.439   1.950   7.861  0.8508  1.1641  0.2581
 5317TIP3    H237587   2.294   1.987   7.840  0.8584  0.8072 -0.4349
 5318TIP3   OH237588   0.300   1.490   2.131 -0.2402  0.8135 -0.1767
 5318TIP3    H137589   0.270   1.499   2.221 -0.4257  0.9788 -0.2549
 5318TIP3    H237590   0.396   1.489   2.138 -0.2629 -0.0511  0.1046
 5319TIP3   OH237591   2.491   3.719   8.629 -0.2732  0.4637  0.1676
 5319TIP3    H137592   2.413   3.707   8.682  0.4438  2.2962  1.7608
 5319TIP3    H237593   2.537   3.792   8.670  1.2382  0.8073 -1.9542
 5320TIP3   OH237594   4.984   1.050   2.697  0.3336  0.5512  0.0740
 5320TIP3    H137595   5.018   1.106   2.627  0.1878  0.3874 -0.1303
 5320TIP3    H237596   4.996   0.961   2.663  0.7606  0.4462  0.4830
 5321TIP3   OH237597   0.797   6.564   1.436  0.4086  0.2443 -0.2663
 5321TIP3    H137598   0.787   6.640   1.494 -1.0050  0.2980 -0.5606
 5321TIP3    H237599   0.819   6.602   1.351 -1.1789  0.4199 -0.6333
 5322TIP3   OH237600   2.019   2.786   7.590  0.3329  0.1099 -0.2357
 5322TIP3    H137601   2.111   2.806   7.574  0.2562  1.4010  0.7784
 5322TIP3    H237602   2.014   2.767   7.683  0.0110 -2.7237 -0.7596
 5323TIP3   OH237603   0.946   3.876   7.252 -0.0550  0.3016  0.5936
 5323TIP3    H137604   0.909   3.933   7.185  1.8895  0.9949  0.0340
 5323TIP3    H237605   1.019   3.926   7.288  1.4784 -1.6506  0.3647
 5324TIP3   OH237606   2.743   1.814   7.897 -0.8828  0.0992 -0.3360
 5324TIP3    H137607   2.693   1.832   7.976 -0.1125  0.3650  0.1072
 5324TIP3    H237608   2.678   1.807   7.827 -1.4702  1.2863  0.0765
 5325TIP3   OH237609   3.543   0.417   0.393 -0.4720  0.1990  0.2175
 5325TIP3    H137610   3.617   0.379   0.441  0.5061 -0.3811 -1.6718
 5325TIP3    H237611   3.551   0.383   0.304 -1.5587  2.1135 -0.6899
 5326TIP3   OH237612   5.350   3.156   0.692  0.0303 -0.0805 -0.0643
 5326TIP3    H137613   5.315   3.235   0.734  1.1127  0.6839 -0.5567
 5326TIP3    H237614   5.430   3.136   0.740 -0.5462 -1.2579  0.4416
 5327TIP3   OH237615   1.440   0.119   8.267 -0.5409  0.5741  0.3769
 5327TIP3    H137616   1.362   0.069   8.244 -2.5993  2.3840  2.7671
 5327TIP3    H237617   1.458   0.173   8.190  0.2560 -1.9463 -1.3187
 5328TIP3   OH237618   5.441   1.536   8.927  0.2835 -0.2852  0.2259
 5328TIP3    H137619   5.506   1.560   8.993  1.7214  1.5919 -1.7768
 5328TIP3    H237620   5.373   1.603   8.934  0.4735 -0.0455 -0.2818
 5329TIP3   OH237621   1.094   2.889   8.323 -0.0240 -0.1817 -0.0385
 5329TIP3    H137622   1.126   2.811   8.368  0.6209  0.2804  0.3191
 5329TIP3    H237623   1.040   2.934   8.388  1.2635  0.7130  0.4458
 5330TIP3   OH237624   6.374   5.771   0.120 -0.7874  0.5282  0.1539
 5330TIP3    H137625   6.338   5.836   0.061 -0.9114  0.3740  0.0567
 5330TIP3    H237626   6.335   5.688   0.091 -0.4341  0.3729  0.1124
 5331TIP3   OH237627   2.213   5.299   7.783  0.5693  0.1036 -0.2809
 5331TIP3    H137628   2.250   5.286   7.695 -1.7171  1.7171 -1.5964
 5331TIP3    H237629   2.129   5.254   7.781  0.5628  0.0002  1.1661
 5332TIP3   OH237630   1.383   5.613   8.945 -0.1279  0.0493  0.6417
 5332TIP3    H137631   1.460   5.670   8.947 -0.6618  0.8291 -0.3569
 5332TIP3    H237632   1.366   5.599   8.852 -1.2155 -0.0796  0.8476
 5333TIP3   OH237633   1.758   5.908   6.676  0.0886  0.0196 -0.4063
 5333TIP3    H137634   1.795   5.985   6.720 -0.5435 -0.1165  0.3990
 5333TIP3    H237635   1.821   5.886   6.608  0.6623  0.7781 -0.1348
 5334TIP3   OH237636   4.412   4.618   1.447 -0.0897 -0.4788  0.0282
 5334TIP3    H137637   4.424   4.657   1.534  1.1289 -0.1207 -0.2821
 5334TIP3    H237638   4.319   4.593   1.445 -0.5291  0.9715  0.8275
 5335TIP3   OH237639   2.122   0.706   1.762 -0.1559  0.0856  0.6025
 5335TIP3    H137640   2.206   0.697   1.808  0.2917  0.9043 -0.0453
 5335TIP3    H237641   2.059   0.725   1.832  0.7093  2.5012  0.8078
 5336TIP3   OH237642   1.825   0.374   8.897  0.2742 -0.5148 -0.7228
 5336TIP3    H137643   1.873   0.426   8.961 -0.9986 -0.1887  0.0093
 5336TIP3    H237644   1.857   0.285   8.910  2.5222  0.0084 -2.0296
 5337TIP3   OH237645   1.474   3.591   8.234  0.1114  0.5754  0.1107
 5337TIP3    H137646   1.400   3.535   8.213  0.5249  0.5134 -1.3089
 5337TIP3    H237647   1.468   3.605   8.328 -0.5842 -1.0190  0.3319
 5338TIP3   OH237648   2.962   5.416   0.429 -0.4535 -0.8518 -0.2509
 5338TIP3    H137649   2.868   5.425   0.440 -0.5263  1.6995 -2.1308
 5338TIP3    H237650   2.998   5.502   0.451  1.1699 -1.0617 -1.8003
 5339TIP3   OH237651   0.176   2.802   1.425  0.0201 -0.1143 -0.0429
 5339TIP3    H137652   0.178   2.896   1.442  1.2610 -0.3268  1.1424
 5339TIP3    H237653   0.234   2.764   1.491 -0.5161 -1.7269 -0.4491
 5340TIP3   OH237654   4.831   1.659   1.238  0.2215  0.0148  0.3496
 5340TIP3    H137655   4.821   1.709   1.319  0.3456  0.0098  0.3686
 5340TIP3    H237656   4.784   1.710   1.172  1.8253  1.0994 -0.0281
 5341TIP3   OH237657   1.870   2.624   7.445  0.4593 -0.2131  0.1384
 5341TIP3    H137658   1.924   2.688   7.492 -0.6232 -0.0297  1.1914
 5341TIP3    H237659   1.933   2.562   7.409  1.4367  0.5804  0.4177
 5342TIP3   OH237660   5.906   0.746   6.819 -0.4260  0.2106  0.3379
 5342TIP3    H137661   5.919   0.681   6.750  0.4530 -1.1246  1.7172
 5342TIP3    H237662   5.991   0.753   6.862 -1.6644 -1.3705  3.2811
 5343TIP3   OH237663   1.255   1.626   1.344 -0.2777  0.0355  0.1834
 5343TIP3    H137664   1.259   1.589   1.256  2.9242 -1.1427  0.6919
 5343TIP3    H237665   1.297   1.711   1.337 -0.1884  0.0231  0.5205
 5344TIP3   OH237666   2.616   1.951   8.588 -0.4695 -0.1617  0.7128
 5344TIP3    H137667   2.534   1.901   8.592 -0.3515 -0.4703 -0.3481
 5344TIP3    H237668   2.612   1.996   8.503  0.6470 -0.5146  0.4562
 5345TIP3   OH237669   1.413   0.801   7.529 -0.2624  0.3050 -0.2161
 5345TIP3    H137670   1.472   0.795   7.604 -1.2219 -0.0774  0.5274
 5345TIP3    H237671   1.409   0.712   7.494 -0.3481  0.3445 -0.3091
 5346TIP3   OH237672   3.293   1.223   1.180  0.2867  0.5348  0.8521
 5346TIP3    H137673   3.283   1.268   1.264 -0.2090  1.3616  0.3595
 5346TIP3    H237674   3.256   1.283   1.116 -2.0207 -1.2545  0.3628
 5347TIP3   OH237675   5.485   1.950   1.810  0.3372 -0.1229  0.2526
 5347TIP3    H137676   5.427   1.874   1.807 -1.8467  1.3496  2.0936
 5347TIP3    H237677   5.531   1.943   1.893  1.8419 -0.5316 -0.5652
 5348TIP3   OH237678   2.600   6.124   7.308 -0.0759  0.1927 -0.1179
 5348TIP3    H137679   2.581   6.218   7.312 -0.1451  0.2043 -0.6240
 5348TIP3    H237680   2.696   6.119   7.307 -0.0731  0.2623 -0.1836
 5349TIP3   OH237681   0.153   3.811   7.164 -0.1673 -0.4922 -0.7774
 5349TIP3    H137682   0.234   3.765   7.186 -0.4913 -0.6923  0.0295
 5349TIP3    H237683   0.090   3.741   7.144 -0.8713 -0.4824  1.1756
 5350TIP3   OH237684   1.496   5.917   7.458  0.3217 -0.5953  0.2694
 5350TIP3    H137685   1.510   5.986   7.394 -0.6640  1.2276  1.8902
 5350TIP3    H237686   1.513   5.959   7.542  2.2387 -3.0733  1.2291
 5351TIP3   OH237687   1.234   4.909   8.312 -0.6864 -0.1042  0.3004
 5351TIP3    H137688   1.182   4.861   8.376 -2.3597  1.7632  0.4477
 5351TIP3    H237689   1.325   4.894   8.338 -1.0874 -3.1293  0.2843
 5352TIP3   OH237690   4.844   1.607   8.885  0.3818  0.6379  0.0903
 5352TIP3    H137691   4.786   1.665   8.933  0.1588 -0.0424  0.6620
 5352TIP3    H237692   4.923   1.602   8.940  0.2429  0.0943  0.2457
 5353TIP3   OH237693   5.180   1.259   7.606 -0.0266 -0.4142 -0.0918
 5353TIP3    H137694   5.155   1.207   7.683 -1.1408 -0.0127 -0.1641
 5353TIP3    H237695   5.111   1.243   7.542  0.1921  0.2983 -0.5235
 5354TIP3   OH237696   5.037   0.038   1.128  0.5923  0.5431 -0.0178
 5354TIP3    H137697   4.962  -0.010   1.163  0.8354 -1.1335 -1.6038
 5354TIP3    H237698   5.025   0.128   1.158 -1.6535  0.1641  0.3801
 5355TIP3   OH237699   5.730   3.129   7.925 -1.0231  0.4405  0.6988
 5355TIP3    H137700   5.703   3.046   7.963  0.7642  0.2810  1.7012
 5355TIP3    H237701   5.737   3.112   7.831 -2.2643 -0.0597  0.6752
 5356TIP3   OH237702   3.197   2.125   0.991 -0.9385  0.2680  0.0962
 5356TIP3    H137703   3.153   2.085   1.065  1.3573 -1.0659  0.8188
 5356TIP3    H237704   3.221   2.212   1.022  0.6040 -0.5179  1.2251
 5357TIP3   OH237705   4.142   6.531   7.074 -0.7092 -0.3498  0.1133
 5357TIP3    H137706   4.113   6.503   7.160 -2.5697 -1.4037 -0.7938
 5357TIP3    H237707   4.129   6.455   7.018  0.9097  0.1544 -1.0397
 5358TIP3   OH237708   6.485   1.943   2.527 -0.0461  0.5119  0.2269
 5358TIP3    H137709   6.484   1.973   2.619  3.3651 -2.1972  1.3817
 5358TIP3    H237710   6.407   1.889   2.518 -0.9766  1.6492  1.1775
 5359TIP3   OH237711   1.088   6.320   0.577  0.2806 -0.8435 -0.1554
 5359TIP3    H137712   1.018   6.352   0.519 -0.0249 -0.8673  0.1989
 5359TIP3    H237713   1.063   6.352   0.664  1.9554  1.2801 -0.3591
 5360TIP3   OH237714   6.398   4.677   0.391 -0.1461  0.8459 -0.5632
 5360TIP3    H137715   6.378   4.748   0.452 -1.4571 -0.2454  0.3442
 5360TIP3    H237716   6.494   4.671   0.392 -0.1178  0.0005  2.5153
 5361TIP3   OH237717   0.911   4.430   1.191 -0.3957 -0.3785 -0.1821
 5361TIP3    H137718   0.870   4.503   1.144  3.2962  2.1316  0.1051
 5361TIP3    H237719   0.954   4.379   1.123 -0.9799 -0.9396 -0.1426
 5362TIP3   OH237720   6.641   0.008   2.395  0.5005  0.2848 -0.1839
 5362TIP3    H137721   6.662   0.043   2.482 -1.0270  0.7216  0.0393
 5362TIP3    H237722   6.562  -0.044   2.408 -0.6105  1.5207 -1.5221
 5363TIP3   OH237723   3.302   1.494   7.433 -0.1116 -0.0531  0.1654
 5363TIP3    H137724   3.383   1.447   7.457 -0.3239 -0.3913  0.2270
 5363TIP3    H237725   3.233   1.448   7.481 -0.1908  1.0472  1.1507
 5364TIP3   OH237726   1.055   4.049   1.634  0.1026  0.1785 -0.3784
 5364TIP3    H137727   1.007   4.096   1.702 -0.0045 -0.6630  0.1383
 5364TIP3    H237728   1.020   3.960   1.635  2.1162 -0.6702  0.5064
 5365TIP3   OH237729   3.460   3.043   7.383  0.5550 -0.1090 -0.1291
 5365TIP3    H137730   3.478   3.120   7.328 -0.6534  0.2625 -0.0346
 5365TIP3    H237731   3.384   3.069   7.435  0.4931 -1.1697  0.3159
 5366TIP3   OH237732   1.455   3.862   7.799  0.2611  0.6247 -0.2027
 5366TIP3    H137733   1.487   3.790   7.854 -0.3697  0.7799  0.3814
 5366TIP3    H237734   1.364   3.839   7.782  0.3775  0.7156 -0.9756
 5367TIP3   OH237735   0.921   2.276   1.751  0.0644  0.8169  0.1203
 5367TIP3    H137736   1.003   2.322   1.733 -1.2974  2.9505 -0.9837
 5367TIP3    H237737   0.928   2.194   1.703  2.0442  0.3564  1.0943
 5368TIP3   OH237738   0.490   5.746   0.018 -0.3432 -0.4957 -0.3799
 5368TIP3    H137739   0.574   5.732   0.062 -0.6530 -0.4257  0.2474
 5368TIP3    H237740   0.479   5.669  -0.039  1.4211  0.7591 -2.5797
 5369TIP3   OH237741   0.770   5.073   8.583 -0.3537  0.0747 -0.2289
 5369TIP3    H137742   0.829   5.042   8.651  0.7243  1.8498 -0.3028
 5369TIP3    H237743   0.814   5.050   8.500 -0.3149  0.3846 -0.2950
 5370TIP3   OH237744   0.409   4.526   7.827  0.5440 -0.1032  0.0900
 5370TIP3    H137745   0.433   4.516   7.919 -0.6103 -1.4541  0.2723
 5370TIP3    H237746   0.364   4.445   7.804  1.6504 -0.2101 -1.9579
 5371TIP3   OH237747   3.392   0.255   1.004 -0.2129  0.3029  0.5707
 5371TIP3    H137748   3.330   0.219   1.068 -0.1476  1.6149  1.3972
 5371TIP3    H237749   3.466   0.195   1.007 -1.1274 -0.8920  0.0892
 5372TIP3   OH237750   5.036   5.522   8.699  0.1613 -0.7793 -0.3176
 5372TIP3    H137751   5.066   5.611   8.684 -2.1620  0.3973  1.2988
 5372TIP3    H237752   4.989   5.499   8.619 -0.0504 -0.1639 -0.3761
 5373TIP3   OH237753   6.281   0.820   7.353  0.1701  0.1634 -0.6969
 5373TIP3    H137754   6.243   0.765   7.285  0.7559  0.0945 -0.9743
 5373TIP3    H237755   6.260   0.909   7.327 -0.0307  0.1154 -0.7025
 5374TIP3   OH237756   4.867   2.842   1.190 -0.2241  0.5777 -0.0985
 5374TIP3    H137757   4.876   2.926   1.146  1.5674  0.4448 -0.0778
 5374TIP3    H237758   4.897   2.858   1.279 -2.1804  0.4459  0.6251
 5375TIP3   OH237759   5.383   2.815   7.516 -0.1467  0.6345 -0.3115
 5375TIP3    H137760   5.474   2.814   7.547 -0.0047 -0.5237 -0.7011
 5375TIP3    H237761   5.378   2.890   7.457  0.4809  0.8825 -0.0528
 5376TIP3   OH237762   6.626   2.968   8.281 -0.2536  0.1879  0.3718
 5376TIP3    H137763   6.547   2.918   8.303  0.4736 -0.8617  0.7117
 5376TIP3    H237764   6.599   3.026   8.210 -1.3308 -0.1383  0.4954
 5377TIP3   OH237765   1.090   2.506   0.073 -0.0057 -0.2844 -0.3974
 5377TIP3    H137766   1.155   2.575   0.057  0.5085 -0.3031  1.3319
 5377TIP3    H237767   1.009   2.540   0.034  0.8182  0.1463 -1.7917
 5378TIP3   OH237768   4.548   2.231   7.970 -0.3831  0.4559  0.5210
 5378TIP3    H137769   4.562   2.177   8.047  1.1238  1.4339  0.9986
 5378TIP3    H237770   4.622   2.210   7.912  0.8689  2.6633  1.1731
 5379TIP3   OH237771   0.190   2.536   0.564 -0.0769  0.0950 -0.9734
 5379TIP3    H137772   0.101   2.528   0.529 -0.9486  2.6175  0.3638
 5379TIP3    H237773   0.238   2.582   0.496 -0.3239  0.3620 -0.9716
 5380TIP3   OH237774   3.310   1.727   1.630  0.1165  0.2407 -0.5025
 5380TIP3    H137775   3.323   1.789   1.558  1.3476  0.6378  0.0405
 5380TIP3    H237776   3.218   1.700   1.622 -0.1423  1.3136 -1.3854
 5381TIP3   OH237777   4.540   2.116   8.218  0.0266  0.1463  0.0538
 5381TIP3    H137778   4.479   2.126   8.291 -0.6006 -1.1357 -0.2795
 5381TIP3    H237779   4.627   2.124   8.258 -0.3001 -0.9409  1.0099
 5382TIP3   OH237780   1.696   6.624   0.903  0.6052 -0.0361  0.1676
 5382TIP3    H137781   1.779   6.629   0.950  0.9429 -1.2856 -0.2581
 5382TIP3    H237782   1.674   6.531   0.903 -0.9948  0.3084  0.6004
 5383TIP3   OH237783   0.259   5.150   8.586  0.4845  0.1373  1.0406
 5383TIP3    H137784   0.347   5.112   8.581  0.4656  0.1143  0.8885
 5383TIP3    H237785   0.219   5.107   8.662 -0.0967 -1.3271 -0.0478
 5384TIP3   OH237786   4.780   2.823   7.189 -0.4755 -0.1678  0.1839
 5384TIP3    H137787   4.809   2.733   7.173  3.0717  1.0131 -0.9033
 5384TIP3    H237788   4.736   2.849   7.108  0.6007 -0.2130 -0.4312
 5385TIP3   OH237789   4.604   4.421   8.947 -0.8829  0.6902  0.1337
 5385TIP3    H137790   4.648   4.363   8.886 -0.2988  2.6777 -1.4513
 5385TIP3    H237791   4.672   4.447   9.009 -1.6002 -1.7662  2.1341
 5386TIP3   OH237792   2.537   1.330   0.675  0.2400 -0.1229 -0.0281
 5386TIP3    H137793   2.542   1.259   0.611 -0.2169 -0.8218  0.6996
 5386TIP3    H237794   2.507   1.288   0.756 -0.4401  0.9708  0.3077
 5387TIP3   OH237795   0.920   4.818   7.317  0.4933 -0.4838 -0.0948
 5387TIP3    H137796   0.855   4.759   7.355 -1.2438  1.4167  0.0921
 5387TIP3    H237797   0.942   4.779   7.233 -1.6514 -0.7492 -0.6022
 5388TIP3   OH237798   5.572   2.776   7.749 -0.0586  0.1057  0.3107
 5388TIP3    H137799   5.667   2.788   7.742 -0.1303 -0.0179 -1.4622
 5388TIP3    H237800   5.549   2.811   7.835  1.6496 -0.2657  0.9480
 5389TIP3   OH237801   4.401   1.218   7.183  0.1939 -0.1675 -0.3462
 5389TIP3    H137802   4.446   1.262   7.256 -0.4893 -0.1909  0.0924
 5389TIP3    H237803   4.453   1.140   7.167  1.2269  0.6037 -0.8982
 5390TIP3   OH237804   0.461   3.152   1.509 -0.3125 -0.0515 -0.4180
 5390TIP3    H137805   0.417   3.227   1.549 -0.2967 -0.6526  0.7731
 5390TIP3    H237806   0.397   3.116   1.448 -0.8925  0.0209  0.1367
 5391TIP3   OH237807   1.190   5.963   7.845 -0.7145 -0.2434 -0.4599
 5391TIP3    H137808   1.181   5.944   7.751  1.3011  1.8314 -1.1747
 5391TIP3    H237809   1.242   6.044   7.848  0.5868 -1.0555  2.4764
 5392TIP3   OH237810   4.855   1.144   6.546  0.5991  0.2998 -0.0487
 5392TIP3    H137811   4.775   1.099   6.575  1.4156 -2.3367 -1.5238
 5392TIP3    H237812   4.824   1.214   6.489 -0.7259 -0.7965 -0.7534
 5393TIP3   OH237813   3.176   4.297   8.495  0.4405 -0.0163 -0.0132
 5393TIP3    H137814   3.251   4.329   8.445  0.9900 -1.2026  0.0399
 5393TIP3    H237815   3.214   4.253   8.571 -0.3686  2.4072  1.9464
 5394TIP3   OH237816   5.053   1.373   8.288 -0.0542  0.6055 -0.6164
 5394TIP3    H137817   5.059   1.395   8.381 -0.1483  1.0618 -0.7134
 5394TIP3    H237818   5.003   1.446   8.250 -1.1319 -0.2149 -0.8020
 5395TIP3   OH237819   5.992   0.483   7.560 -0.7988 -0.2165 -0.5618
 5395TIP3    H137820   6.065   0.488   7.498 -0.2811 -2.1988 -0.1958
 5395TIP3    H237821   6.034   0.483   7.646 -1.0967 -2.1478 -0.3617
 5396TIP3   OH237822   3.389   1.282   6.708 -0.9679  0.0886 -0.4415
 5396TIP3    H137823   3.447   1.240   6.645 -1.0537 -1.9776  0.7800
 5396TIP3    H237824   3.371   1.215   6.774 -2.9993  1.3381  0.3915
 5397TIP3   OH237825   6.570   1.377   1.906 -0.6003  0.1044 -0.5678
 5397TIP3    H137826   6.625   1.371   1.984 -0.6200  0.6084 -0.5186
 5397TIP3    H237827   6.608   1.312   1.846  0.8273  1.2895 -1.0086
 5398TIP3   OH237828   1.816   5.453   1.483  0.0373  0.2900 -0.2314
 5398TIP3    H137829   1.800   5.470   1.390 -1.6107 -1.3203 -0.3047
 5398TIP3    H237830   1.833   5.358   1.487 -1.3939  0.0445  1.2422
 5399TIP3   OH237831   5.134   1.051   0.322 -0.4863 -0.1503  0.2400
 5399TIP3    H137832   5.087   1.095   0.393  0.3796  0.4813  0.4399
 5399TIP3    H237833   5.189   1.120   0.284 -0.4530 -0.6435 -0.6196
 5400TIP3   OH237834   1.083   3.379   8.695  0.1886 -0.2776 -0.0893
 5400TIP3    H137835   1.043   3.421   8.772  0.5339  1.0215 -0.5966
 5400TIP3    H237836   1.009   3.338   8.650 -0.2828  0.4253  0.0219
 5401TIP3   OH237837   3.587   1.300   1.021 -0.5716 -0.9168  0.4506
 5401TIP3    H137838   3.593   1.364   0.950  1.2080 -0.4713  0.9438
 5401TIP3    H237839   3.493   1.286   1.033 -0.9756  0.7360 -0.4540
 5402TIP3   OH237840   0.052   1.275   7.919  0.1861 -0.3793  0.4493
 5402TIP3    H137841   0.147   1.266   7.927  0.6016  1.4753 -1.4324
 5402TIP3    H237842   0.039   1.314   7.832 -2.3145 -0.7729  0.5862
 5403TIP3   OH237843   3.070   3.368   8.209  0.7064  0.2303  0.2799
 5403TIP3    H137844   2.978   3.349   8.193  0.4038  1.7340  0.1047
 5403TIP3    H237845   3.081   3.356   8.303  0.3081  0.1608  0.3193
 5404TIP3   OH237846   1.300   5.477   1.097  0.1014 -0.0316 -0.4064
 5404TIP3    H137847   1.388   5.438   1.102 -0.4978 -1.2934  1.4004
 5404TIP3    H237848   1.309   5.562   1.139  0.4574 -0.2141 -0.0995
 5405TIP3   OH237849   4.157   4.824   0.922  0.1575  0.6334  0.4988
 5405TIP3    H137850   4.196   4.901   0.881 -0.2386 -0.6001 -2.4186
 5405TIP3    H237851   4.082   4.803   0.867  0.1842 -1.7473  1.2595
 5406TIP3   OH237852   4.762   3.218   1.219 -0.1786 -0.2841 -0.1170
 5406TIP3    H137853   4.824   3.199   1.149 -1.0101 -0.3941 -0.8325
 5406TIP3    H237854   4.812   3.272   1.281  0.1103  1.2037 -1.5773
 5407TIP3   OH237855   2.445   2.561   7.462 -0.2279 -0.0360 -0.3087
 5407TIP3    H137856   2.427   2.477   7.420  0.2708 -0.6848  0.7402
 5407TIP3    H237857   2.469   2.620   7.390 -2.7961 -0.1359 -1.3297
 5408TIP3   OH237858   6.218   1.726   8.895 -0.1016 -0.2490 -0.2530
 5408TIP3    H137859   6.182   1.647   8.936 -0.1513 -0.1878 -0.1807
 5408TIP3    H237860   6.222   1.703   8.802  3.1331 -1.6458  0.0969
 5409TIP3   OH237861   5.781   1.622   7.038  0.3549 -0.2390  0.0525
 5409TIP3    H137862   5.828   1.546   7.071  1.1533 -0.2874 -1.1254
 5409TIP3    H237863   5.697   1.621   7.085  0.5528 -1.5448  0.4143
 5410TIP3   OH237864   4.213   2.726   8.650 -0.3580 -0.0681  0.1821
 5410TIP3    H137865   4.175   2.770   8.573  0.9027 -0.4308 -0.6800
 5410TIP3    H237866   4.147   2.737   8.719 -0.5865  2.1423 -0.3281
 5411TIP3   OH237867   3.080   5.024   1.893 -0.3424  0.0286 -0.7309
 5411TIP3    H137868   3.055   5.116   1.889 -1.3788 -0.0289  2.0972
 5411TIP3    H237869   3.000   4.976   1.870 -0.0633 -0.1940 -1.2731
 5412TIP3   OH237870   6.279   1.170   1.016 -0.0244 -0.0195 -0.1648
 5412TIP3    H137871   6.218   1.242   1.023 -1.0926 -1.0336  1.5886
 5412TIP3    H237872   6.225   1.091   1.022  1.2395 -0.9650 -0.6188
 5413TIP3   OH237873   5.560   2.625   8.155 -0.1464  0.0200  0.1948
 5413TIP3    H137874   5.508   2.612   8.076  0.3824  0.5057 -0.2355
 5413TIP3    H237875   5.576   2.536   8.187 -0.7660 -0.1586  0.0279
 5414TIP3   OH237876   3.596   4.371   8.117  0.0929 -0.1754  0.7502
 5414TIP3    H137877   3.650   4.292   8.129 -0.9365 -1.4804 -2.1350
 5414TIP3    H237878   3.659   4.442   8.112  1.5736 -1.5155 -1.4523
 5415TIP3   OH237879   1.766   3.718   8.298 -0.1070 -0.2806  0.3603
 5415TIP3    H137880   1.683   3.746   8.336  0.7927 -1.1721  3.2243
 5415TIP3    H237881   1.763   3.623   8.299  1.4553 -0.3752  1.9504
 5416TIP3   OH237882   4.384   2.529   2.679 -0.0643 -0.0871 -0.0175
 5416TIP3    H137883   4.462   2.512   2.627  0.1349  0.3640  0.1324
 5416TIP3    H237884   4.331   2.587   2.624 -0.7200 -1.1179 -0.5085
 5417TIP3   OH237885   0.184   4.136   8.152  0.5069 -0.4890  0.4382
 5417TIP3    H137886   0.122   4.073   8.189  1.5504 -2.1760 -0.5350
 5417TIP3    H237887   0.193   4.203   8.219 -2.1835 -0.2864  0.7012
 5418TIP3   OH237888   5.045   3.832   7.442  0.0176  0.1691  0.8076
 5418TIP3    H137889   5.031   3.911   7.495 -1.7371  0.8799 -0.6161
 5418TIP3    H237890   5.126   3.850   7.394  0.2136  0.6316  1.2996
 5419TIP3   OH237891   3.093   2.942   0.808 -0.1094  0.0173  0.2056
 5419TIP3    H137892   3.150   2.981   0.874  1.0677  0.3289 -0.9456
 5419TIP3    H237893   3.057   3.017   0.760 -0.3871 -0.2269  0.0250
 5420TIP3   OH237894   2.224   4.990   7.364 -0.0385  0.0532  0.7064
 5420TIP3    H137895   2.150   4.931   7.376  0.3333 -0.2937  1.3103
 5420TIP3    H237896   2.207   5.032   7.280 -0.7957 -0.2024  0.7238
 5421TIP3   OH237897   3.310   6.775   7.238  0.1053 -0.3029  0.3954
 5421TIP3    H137898   3.346   6.687   7.252 -0.9327 -0.7954  0.0847
 5421TIP3    H237899   3.239   6.783   7.302 -0.6775 -0.2201 -0.4618
 5422TIP3   OH237900   1.490   4.855   8.141  0.1930  0.0367  0.6461
 5422TIP3    H137901   1.477   4.790   8.211  0.7881 -0.3554  0.3994
 5422TIP3    H237902   1.411   4.848   8.087  0.8683 -1.5353 -0.2061
 5423TIP3   OH237903   4.653   2.220   0.980 -0.4008 -0.4793  0.0240
 5423TIP3    H137904   4.674   2.293   1.037  0.6914 -0.6361 -0.1581
 5423TIP3    H237905   4.715   2.226   0.907 -0.9613 -0.9970 -0.5195
 5424TIP3   OH237906   5.752   5.467   0.378 -0.1645  0.0663 -0.3331
 5424TIP3    H137907   5.774   5.553   0.344  3.6380 -0.0057  1.4501
 5424TIP3    H237908   5.739   5.481   0.472 -0.4333 -1.1549 -0.1712
 5425TIP3   OH237909   6.289   0.217   7.452  0.1532 -0.4343 -0.7114
 5425TIP3    H137910   6.290   0.297   7.399  4.7448  3.0292  3.6741
 5425TIP3    H237911   6.361   0.164   7.417  0.3740 -0.2283 -0.5692
 5426TIP3   OH237912   4.741   1.260   7.118 -0.6327 -0.4114 -0.1656
 5426TIP3    H137913   4.717   1.174   7.081 -1.3566 -0.1315 -0.3677
 5426TIP3    H237914   4.717   1.253   7.210  0.5277 -0.8713  0.1096
 5427TIP3   OH237915   2.568   5.131   8.771  0.1674 -0.7539  0.4340
 5427TIP3    H137916   2.578   5.196   8.841 -0.5231  0.1461 -0.2840
 5427TIP3    H237917   2.655   5.125   8.731 -0.3750  2.0239 -1.4417
 5428TIP3   OH237918   4.094   0.554   1.633 -0.1152 -0.5200 -0.1592
 5428TIP3    H137919   4.011   0.508   1.648  0.6404 -1.4797  1.4730
 5428TIP3    H237920   4.090   0.582   1.542 -2.6364  0.3340  0.1232
 5429TIP3   OH237921   3.642   2.867   0.406 -0.2936 -0.8196 -0.1932
 5429TIP3    H137922   3.567   2.888   0.462 -1.0651  1.3601 -1.8612
 5429TIP3    H237923   3.703   2.939   0.420  0.2985 -1.1926 -0.7932
 5430TIP3   OH237924   0.273   5.901   0.136 -0.0474  0.3303  0.0192
 5430TIP3    H137925   0.329   5.880   0.061 -0.2239  1.7604 -0.5416
 5430TIP3    H237926   0.193   5.850   0.121  0.6915 -0.9657  0.3225
 5431TIP3   OH237927   4.587   3.032   1.012 -0.4562 -0.4384 -0.4047
 5431TIP3    H137928   4.638   3.032   1.093 -1.2042  1.0275  0.1072
 5431TIP3    H237929   4.508   3.083   1.034 -0.7100 -0.0992 -2.0189
 5432TIP3   OH237930   6.055   3.562   7.184  0.2475 -0.0752  0.0847
 5432TIP3    H137931   6.122   3.592   7.244  0.1343 -1.2527  0.8310
 5432TIP3    H237932   5.980   3.540   7.240  0.3668 -1.8162 -0.3916
 5433TIP3   OH237933   3.819   1.104   7.371  0.7224  0.4175 -0.1583
 5433TIP3    H137934   3.724   1.096   7.377  0.7782 -0.2863 -0.1668
 5433TIP3    H237935   3.849   1.018   7.342  1.2446  1.0626 -1.6404
 5434TIP3   OH237936   1.379   4.250   8.929  0.2292  0.4137 -0.8953
 5434TIP3    H137937   1.414   4.339   8.922 -1.1799  1.1353  0.6131
 5434TIP3    H237938   1.358   4.241   9.022 -1.2018 -0.8907 -1.3318
 5435TIP3   OH237939   2.780   3.673   7.584  0.1108  0.2607  0.3532
 5435TIP3    H137940   2.832   3.686   7.663  1.2919  0.8088 -0.4992
 5435TIP3    H237941   2.844   3.652   7.516 -0.8533  0.1476 -0.5430
 5436TIP3   OH237942   0.500   1.435   7.073 -0.3283  0.1613 -0.4947
 5436TIP3    H137943   0.570   1.401   7.018  1.3196  2.1039  0.2769
 5436TIP3    H237944   0.450   1.493   7.015  0.2400  0.7162 -0.4356
 5437TIP3   OH237945   2.908   3.568   8.631 -0.1807  0.2549 -0.1458
 5437TIP3    H137946   2.971   3.535   8.567 -0.2980 -1.1955  0.4418
 5437TIP3    H237947   2.833   3.596   8.578 -1.7655 -4.1519 -0.6366
 5438TIP3   OH237948   5.167   4.989   7.252  0.3675 -0.3458  0.2019
 5438TIP3    H137949   5.260   4.986   7.229  0.2593 -1.5310 -0.1587
 5438TIP3    H237950   5.159   4.929   7.326 -0.0098  0.2378  0.6397
 5439TIP3   OH237951   4.582   2.022   0.305 -0.5154 -0.3816  0.1919
 5439TIP3    H137952   4.521   1.955   0.337 -0.5162  0.6387  2.5233
 5439TIP3    H237953   4.545   2.049   0.221 -0.5580 -3.1690 -0.8048
 5440TIP3   OH237954   5.951   5.909   0.960 -0.5215  0.2808 -0.2833
 5440TIP3    H137955   5.993   5.908   1.046  0.8615 -0.3229 -0.9302
 5440TIP3    H237956   6.014   5.952   0.902 -1.3115  0.4405 -1.0617
 5441TIP3   OH237957   3.226   3.293   7.006  0.0094  0.0711  0.2572
 5441TIP3    H137958   3.209   3.252   7.091  1.1925  0.6129  0.7876
 5441TIP3    H237959   3.312   3.335   7.017  0.1824  0.1485 -1.2105
 5442TIP3   OH237960   3.177   4.783   1.706 -0.3440  0.4755 -0.2014
 5442TIP3    H137961   3.242   4.832   1.656  1.1150 -0.7349  0.4326
 5442TIP3    H237962   3.116   4.850   1.738  0.2065  1.5629 -1.3589
 5443TIP3   OH237963   6.294   6.272   7.685 -0.1427 -0.5520  0.2077
 5443TIP3    H137964   6.246   6.355   7.685 -1.5783 -1.3321  1.2209
 5443TIP3    H237965   6.373   6.289   7.634 -0.7956  1.2078 -0.2705
 5444TIP3   OH237966   5.943   1.799   0.123  0.0688 -0.0996 -0.0032
 5444TIP3    H137967   5.997   1.732   0.164 -0.6761 -0.5491  0.2731
 5444TIP3    H237968   6.005   1.864   0.090  0.8486 -1.2633 -0.8926
 5445TIP3   OH237969   5.902   0.456   0.438  0.1821  0.0558  0.5734
 5445TIP3    H137970   5.836   0.520   0.466 -1.0442 -1.0911  0.3644
 5445TIP3    H237971   5.982   0.486   0.481 -0.3937  1.6286  0.6268
 5446TIP3   OH237972   0.193   0.286   0.469  0.1651 -0.1775 -0.1851
 5446TIP3    H137973   0.129   0.215   0.470  0.4538 -0.4437  1.0213
 5446TIP3    H237974   0.166   0.342   0.396 -1.5844 -0.1541  0.4351
 5447TIP3   OH237975   4.468   1.863   1.244  0.9288 -0.5672 -0.2806
 5447TIP3    H137976   4.544   1.921   1.243  0.0197  0.6588 -1.9278
 5447TIP3    H237977   4.393   1.921   1.258  0.1541 -1.5658 -0.1369
 5448TIP3   OH237978   2.889   6.091   7.188  0.3205 -0.3672  0.4140
 5448TIP3    H137979   2.876   6.047   7.104 -3.5020 -0.5792  0.9299
 5448TIP3    H237980   2.894   6.184   7.166 -0.8106 -0.4080 -0.0958
 5449TIP3   OH237981   5.480   2.767   1.569  0.1688 -0.5317 -0.1385
 5449TIP3    H137982   5.415   2.831   1.540  0.1384 -1.2424 -1.7388
 5449TIP3    H237983   5.430   2.687   1.584  0.5662 -0.8762 -0.6414
 5450TIP3   OH237984   0.426   5.786   8.081 -0.0262 -0.5174  0.6029
 5450TIP3    H137985   0.399   5.773   8.172 -0.2584 -1.6922  0.3822
 5450TIP3    H237986   0.514   5.823   8.087 -0.8704  1.5578  1.3121
 5451TIP3   OH237987   3.002   1.487   7.425  0.3369 -0.1547  0.0182
 5451TIP3    H137988   3.009   1.462   7.517  0.6305 -1.0175 -0.2260
 5451TIP3    H237989   2.909   1.477   7.404 -0.2653  2.7051  0.9189
 5452TIP3   OH237990   3.300   3.120   8.972 -0.5820  0.6354  0.0795
 5452TIP3    H137991   3.333   3.071   9.048 -2.4395 -2.7717 -1.0709
 5452TIP3    H237992   3.374   3.174   8.944  1.5270 -1.1364  1.8291
 5453TIP3   OH237993   1.469   6.244   1.517 -0.7411  0.3028  0.1990
 5453TIP3    H137994   1.447   6.151   1.526 -2.2231  0.6080 -0.0245
 5453TIP3    H237995   1.459   6.280   1.604 -0.2045  0.2714  0.2774
 5454TIP3   OH237996   1.154   4.412   1.352  0.2211 -0.1450  0.4394
 5454TIP3    H137997   1.066   4.414   1.314 -0.8001  1.5610  2.6696
 5454TIP3    H237998   1.204   4.475   1.300 -0.9418  1.6331  1.3912
 5455TIP3   OH237999   1.216   1.765   8.621 -0.2965 -0.3890  0.1698
 5455TIP3    H138000   1.300   1.732   8.653 -0.3332 -1.3060 -0.6013
 5455TIP3    H238001   1.176   1.808   8.696  0.4023 -0.8718  0.8319
 5456TIP3   OH238002   0.958   3.152   0.515 -0.3716 -0.0261 -0.0138
 5456TIP3    H138003   1.011   3.210   0.461 -0.9804 -0.0060 -0.6141
 5456TIP3    H238004   0.966   3.066   0.472 -0.8023 -0.0250 -0.1038
 5457TIP3   OH238005   4.744   2.386   8.076 -0.5768 -0.6650  0.7882
 5457TIP3    H138006   4.792   2.337   8.009 -2.1375 -0.4025 -0.5896
 5457TIP3    H238007   4.653   2.361   8.063 -1.1584  0.9644  1.4681
 5458TIP3   OH238008   6.387   3.048   1.931 -0.2477 -0.0313 -0.0258
 5458TIP3    H138009   6.364   3.106   2.003  0.3568  0.8415 -0.5135
 5458TIP3    H238010   6.479   3.026   1.946 -0.4918 -0.9364  0.1969
 5459TIP3   OH238011   6.518   0.727   0.916 -0.2821 -0.1976  0.2789
 5459TIP3    H138012   6.471   0.809   0.932  0.4359  0.3700 -0.4136
 5459TIP3    H238013   6.573   0.716   0.994 -0.1204  0.1803  0.2239
 5460TIP3   OH238014   4.347   3.829   0.388 -0.2275  0.0902 -0.0384
 5460TIP3    H138015   4.356   3.893   0.317  2.2437 -1.2655 -1.0790
 5460TIP3    H238016   4.290   3.761   0.352 -1.0040  0.5806  0.2354
 5461TIP3   OH238017   0.116   6.132   8.392 -0.0863 -0.2745  0.3438
 5461TIP3    H138018   0.114   6.194   8.465 -0.8800 -0.3360  0.3809
 5461TIP3    H238019   0.185   6.166   8.335 -0.2054  0.3951  0.5799
 5462TIP3   OH238020   1.717   2.048   0.720  0.2513  0.4970 -0.1001
 5462TIP3    H138021   1.668   1.974   0.683 -3.0510  2.7353 -0.6098
 5462TIP3    H238022   1.778   2.073   0.650 -0.8456  0.1956 -1.2166
 5463TIP3   OH238023   2.122   1.371   0.039  0.0706 -0.3786 -0.3709
 5463TIP3    H138024   2.113   1.338  -0.051 -1.2061 -1.7063  0.2069
 5463TIP3    H238025   2.129   1.292   0.093  1.3542  0.4021  0.6716
 5464TIP3   OH238026   1.519   5.804   6.579 -0.0374 -0.8574  0.4581
 5464TIP3    H138027   1.605   5.836   6.605 -0.3194 -0.5486  1.0240
 5464TIP3    H238028   1.513   5.717   6.618 -0.4401 -0.4148  1.4098
 5465TIP3   OH238029   4.639   3.949   7.927  0.0168 -0.3006  0.0269
 5465TIP3    H138030   4.635   3.860   7.890 -0.6677 -1.1481  2.0001
 5465TIP3    H238031   4.700   3.942   8.000  0.6677  1.1116 -0.3460
 5466TIP3   OH238032   1.219   2.388   1.269  0.6112  0.3092  0.4171
 5466TIP3    H138033   1.164   2.438   1.209  0.8777 -0.9064 -0.9037
 5466TIP3    H238034   1.223   2.441   1.349 -0.8172  1.3647 -0.1699
 5467TIP3   OH238035   5.381   5.624   2.266 -0.2302  0.0078  0.0138
 5467TIP3    H138036   5.449   5.582   2.319 -0.2940  0.5043  0.4957
 5467TIP3    H238037   5.402   5.718   2.271 -0.3552  0.0755 -0.6740
 5468TIP3   OH238038   6.002   4.648   0.490 -0.7616  0.1896  0.0743
 5468TIP3    H138039   6.047   4.732   0.500 -0.2587  0.3857 -2.8193
 5468TIP3    H238040   6.073   4.584   0.478 -1.1301  0.0551 -1.7313
 5469TIP3   OH238041   4.317   1.025   7.620  0.1093 -0.3101  0.1389
 5469TIP3    H138042   4.354   1.113   7.624 -2.3347  0.7443  2.3237
 5469TIP3    H238043   4.344   0.983   7.701  0.4486 -1.2326 -0.4390
 5470TIP3   OH238044   0.432   2.753   0.651  0.0280 -0.1889 -0.0272
 5470TIP3    H138045   0.410   2.730   0.561  0.7911  0.2793 -0.3310
 5470TIP3    H238046   0.524   2.730   0.661  0.4163  1.3399  0.1160
 5471TIP3   OH238047   1.585   6.130   7.278 -0.0084  0.1503  0.1332
 5471TIP3    H138048   1.566   6.196   7.212  1.3327 -0.7422 -1.2093
 5471TIP3    H238049   1.655   6.168   7.331  1.8264 -0.6932 -1.5627
 5472TIP3   OH238050   2.564   3.894   0.990  0.1853  0.8636  0.2633
 5472TIP3    H138051   2.606   3.980   0.999  0.1910  0.7446  1.7562
 5472TIP3    H238052   2.632   3.832   1.014 -0.6780  0.6552  2.4862
 5473TIP3   OH238053   2.244   0.095   1.319  0.0014  0.1399  0.0943
 5473TIP3    H138054   2.244   0.003   1.292 -0.5167 -0.1283  0.9741
 5473TIP3    H238055   2.178   0.136   1.263  1.6141  0.4344 -1.6961
 5474TIP3   OH238056   3.481   0.100   2.449 -0.3420 -0.1185 -0.6505
 5474TIP3    H138057   3.555   0.148   2.485 -0.9788  0.1153  0.3641
 5474TIP3    H238058   3.477   0.019   2.501 -2.2284  0.9275  0.9345
 5475TIP3   OH238059   2.450   0.441   7.161  0.2610  0.1252  0.1367
 5475TIP3    H138060   2.420   0.502   7.228  0.3160 -1.5594  1.7756
 5475TIP3    H238061   2.522   0.394   7.203  0.8435 -0.4249 -1.4129
 5476TIP3   OH238062   2.893   4.864   1.365  0.2963 -0.1709 -0.4638
 5476TIP3    H138063   2.810   4.867   1.317 -0.5986 -0.4300  1.0144
 5476TIP3    H238064   2.951   4.923   1.316 -0.8198  0.1884 -1.4034
 5477TIP3   OH238065   1.347   6.755   0.524 -0.0845  0.8608 -0.1862
 5477TIP3    H138066   1.264   6.742   0.477  0.0540 -0.6669 -0.0646
 5477TIP3    H238067   1.354   6.850   0.535 -1.3780  1.0731 -0.9831
 5478TIP3   OH238068   4.472   2.194   6.810  0.4710  0.6279 -0.8401
 5478TIP3    H138069   4.399   2.132   6.805 -0.6432  1.8197 -0.0427
 5478TIP3    H238070   4.461   2.250   6.733  0.4979  0.8587 -0.6773
 5479TIP3   OH238071   2.973   3.020   6.545 -0.2355  0.6317  0.0179
 5479TIP3    H138072   3.054   2.976   6.570 -0.8011 -0.2303  0.3945
 5479TIP3    H238073   2.958   2.994   6.454  0.5880  1.8628 -0.4914
 5480TIP3   OH238074   6.407   2.964   6.973 -1.1402  0.2138  0.0365
 5480TIP3    H138075   6.468   3.001   6.909 -0.5472 -0.4466  0.2142
 5480TIP3    H238076   6.379   2.881   6.934  1.4101 -1.6282  1.8183
 5481TIP3   OH238077   2.226   2.938   7.003  0.2680 -0.3761  0.0283
 5481TIP3    H138078   2.149   2.901   6.960 -2.5768  2.6420  1.9930
 5481TIP3    H238079   2.251   3.013   6.949  1.8072 -1.2275 -0.4966
 5482TIP3   OH238080   2.006   3.656   1.273 -0.1611 -0.3003 -0.4241
 5482TIP3    H138081   2.014   3.602   1.351 -0.9599 -0.9988 -0.8151
 5482TIP3    H238082   1.929   3.711   1.290 -1.5732 -1.8473 -1.5099
 5483TIP3   OH238083   4.320   0.941   2.269  0.7652  0.3800 -0.3865
 5483TIP3    H138084   4.364   1.007   2.322  2.1642  0.0713 -1.1154
 5483TIP3    H238085   4.374   0.932   2.190 -0.1161 -0.6771 -0.9182
 5484TIP3   OH238086   1.467   6.544   8.277  0.3058 -1.4954  1.0099
 5484TIP3    H138087   1.434   6.582   8.195  0.6643  0.5384  1.7531
 5484TIP3    H238088   1.507   6.461   8.250  0.9842 -0.5929 -0.9922
 5485TIP3   OH238089   0.205   5.342   0.907  0.2788 -0.1753  0.1132
 5485TIP3    H138090   0.265   5.399   0.957  0.2982 -0.7961  0.8151
 5485TIP3    H238091   0.118   5.378   0.926  0.2321 -0.7545  1.0962
 5486TIP3   OH238092   0.346   1.954   0.187 -0.3444  0.3212 -0.0784
 5486TIP3    H138093   0.397   1.874   0.195 -0.5572  0.2174  0.2889
 5486TIP3    H238094   0.261   1.932   0.225 -0.3853  0.7397  0.0791
 5487TIP3   OH238095   1.409   0.082   2.148  0.7636 -0.3088  0.5608
 5487TIP3    H138096   1.384   0.173   2.132  0.1626 -0.4311  0.7944
 5487TIP3    H238097   1.486   0.088   2.204 -0.0676  0.0412  1.6910
 5488TIP3   OH238098   0.858   0.747   1.124 -0.4668  0.4233 -0.0751
 5488TIP3    H138099   0.893   0.751   1.035  0.1213  1.4397  0.1861
 5488TIP3    H238100   0.869   0.835   1.159 -0.3508 -0.0390  1.1302
 5489TIP3   OH238101   0.554   0.381   7.494  0.2183  0.3736  0.4542
 5489TIP3    H138102   0.536   0.377   7.588 -0.5598 -0.8369  0.2792
 5489TIP3    H238103   0.649   0.375   7.488  0.2022 -1.0358  1.1409
 5490TIP3   OH238104   2.718   0.626   8.020 -0.1259 -0.6035 -0.9428
 5490TIP3    H138105   2.631   0.632   8.058  0.4314 -1.8404  0.6347
 5490TIP3    H238106   2.704   0.641   7.926 -2.3060 -2.4697 -1.0182
 5491TIP3   OH238107   2.320   3.455   8.070  0.5412 -0.2181  0.0148
 5491TIP3    H138108   2.280   3.508   8.001  2.0097  1.4056  0.3453
 5491TIP3    H238109   2.363   3.384   8.023 -0.2000 -0.3110 -0.5531
 5492TIP3   OH238110   6.651   4.442   8.151  0.0632  0.0855  0.2953
 5492TIP3    H138111   6.731   4.464   8.103 -1.0024  0.0277 -1.6028
 5492TIP3    H238112   6.581   4.481   8.100 -1.2736 -1.3236  0.9610
 5493TIP3   OH238113   4.935   5.914   8.300  0.1550  0.2620 -0.2600
 5493TIP3    H138114   4.942   5.824   8.334  0.3236  0.4177  0.1232
 5493TIP3    H238115   4.972   5.909   8.212  0.8962  0.1131  0.0498
 5494TIP3   OH238116   5.280   4.121   0.295  0.3525  0.4758  0.0867
 5494TIP3    H138117   5.299   4.200   0.244  0.8847 -0.0752 -0.5944
 5494TIP3    H238118   5.301   4.145   0.385  1.6432  0.7670 -0.2685
 5495TIP3   OH238119   3.657   6.483   7.341  0.2477  0.3175 -0.2617
 5495TIP3    H138120   3.657   6.436   7.258  1.9823 -0.6697  0.2567
 5495TIP3    H238121   3.565   6.484   7.368 -0.0041 -1.6975 -0.8989
 5496TIP3   OH238122   1.122   0.519   1.261  0.4738  0.4546 -0.3169
 5496TIP3    H138123   1.042   0.552   1.302  0.2109 -1.1826  0.6066
 5496TIP3    H238124   1.190   0.580   1.289  0.0909  0.0374  1.6945
 5497TIP3   OH238125   1.427   0.547   7.434  0.8429 -0.0899 -0.6419
 5497TIP3    H138126   1.436   0.466   7.484  0.4011  0.4540  0.3443
 5497TIP3    H238127   1.413   0.518   7.344 -1.4067 -1.2004 -0.0191
 5498TIP3   OH238128   4.328   0.997   0.669  0.2087  1.2556  0.0413
 5498TIP3    H138129   4.261   1.062   0.690  0.2413  1.3495 -0.1396
 5498TIP3    H238130   4.312   0.975   0.577 -0.0145  0.7529  0.1971
 5499TIP3   OH238131   3.582   2.418   7.939  0.4880 -0.6332  0.0795
 5499TIP3    H138132   3.515   2.403   7.872  1.1988 -0.5270 -0.6743
 5499TIP3    H238133   3.533   2.439   8.018 -0.3816 -1.1259 -0.3120
 5500TIP3   OH238134   6.588   4.370   1.576  0.2240  0.6244  0.1961
 5500TIP3    H138135   6.598   4.427   1.501  0.6181  1.7587  1.0841
 5500TIP3    H238136   6.646   4.406   1.643  1.0457 -1.2352  0.5662
 5501TIP3   OH238137   4.531   4.860   8.771  0.2661 -0.5780 -0.3299
 5501TIP3    H138138   4.565   4.844   8.683  0.0502  1.2695 -0.7946
 5501TIP3    H238139   4.599   4.910   8.815 -0.5822  0.5922 -0.2840
 5502TIP3   OH238140   3.438   3.086   2.897  0.0591  0.1404 -0.6011
 5502TIP3    H138141   3.461   3.166   2.849  0.4341  0.3998  0.0042
 5502TIP3    H238142   3.454   3.015   2.834 -1.1005  0.5930 -1.4342
 5503TIP3   OH238143   0.955   0.072   0.052  0.1698  0.2421  0.1113
 5503TIP3    H138144   1.020   0.093  -0.016  0.5865 -1.0710  0.0764
 5503TIP3    H238145   0.958  -0.023   0.059 -1.4510  0.1981  0.4357
 5504TIP3   OH238146   5.487   0.731   0.664  0.3214 -0.0205  0.5813
 5504TIP3    H138147   5.570   0.704   0.625 -0.3309  1.6387 -2.2623
 5504TIP3    H238148   5.428   0.657   0.648 -0.0103  0.6964 -2.1772
 5505TIP3   OH238149   2.753   5.793   8.400  0.0067  0.2032 -0.3443
 5505TIP3    H138150   2.731   5.845   8.477 -0.1961  1.0374 -0.9515
 5505TIP3    H238151   2.745   5.702   8.429 -0.1839  0.5064  0.5793
 5506TIP3   OH238152   2.412   2.102   8.127 -0.1170 -0.1332  0.4981
 5506TIP3    H138153   2.319   2.119   8.135  0.0618  1.1049  0.1652
 5506TIP3    H238154   2.424   2.071   8.037 -0.5061 -2.6055  1.2385
 5507TIP3   OH238155   1.233   6.419   8.328  0.4066  0.1903 -0.6695
 5507TIP3    H138156   1.215   6.383   8.415  0.6382  0.5531 -0.4697
 5507TIP3    H238157   1.318   6.461   8.337 -0.2570  1.5725 -0.6604
 5508TIP3   OH238158   3.283   5.157   7.520  0.0279 -0.0569  0.2270
 5508TIP3    H138159   3.317   5.174   7.608  1.9363  0.6022 -0.5713
 5508TIP3    H238160   3.202   5.208   7.514 -0.0213  0.0359  1.5229
 5509TIP3   OH238161   5.780   4.783   1.359 -0.0463  0.0773  0.5183
 5509TIP3    H138162   5.788   4.775   1.454 -0.6507  2.3329  0.8246
 5509TIP3    H238163   5.820   4.703   1.324  0.8373 -0.4648  2.6342
 5510TIP3   OH238164   3.612   2.425   6.823 -0.2376 -0.5855  0.4378
 5510TIP3    H138165   3.687   2.463   6.777 -0.0267  0.2913  1.4803
 5510TIP3    H238166   3.566   2.499   6.861 -0.6389 -1.2596  1.3020
 5511TIP3   OH238167   3.337   0.068   8.679 -0.0540 -0.8241  0.3516
 5511TIP3    H138168   3.294  -0.017   8.690 -0.1690 -0.8551 -0.2671
 5511TIP3    H238169   3.410   0.066   8.741 -1.0813 -0.6641  1.5936
 5512TIP3   OH238170   4.515   0.342   6.459  0.0594 -0.0001  0.2014
 5512TIP3    H138171   4.540   0.250   6.468  0.8894 -0.0291 -1.8703
 5512TIP3    H238172   4.420   0.341   6.452  0.1408 -0.8782 -1.1326
 5513TIP3   OH238173   0.428   0.680   7.008  0.4497  0.1842 -0.3886
 5513TIP3    H138174   0.387   0.766   7.002 -1.6298 -0.4996  1.9722
 5513TIP3    H238175   0.500   0.691   7.070  1.6412  0.6347 -1.8027
 5514TIP3   OH238176   2.025   1.220   8.243  0.5158  0.2100  0.7947
 5514TIP3    H138177   2.043   1.127   8.261 -0.3733 -0.3812 -1.1052
 5514TIP3    H238178   2.022   1.226   8.148 -1.5426  1.7505  0.8823
 5515TIP3   OH238179   2.575   6.553   0.806 -0.5636 -0.4652  0.1160
 5515TIP3    H138180   2.580   6.647   0.822  0.1152 -0.2611 -1.1982
 5515TIP3    H238181   2.519   6.520   0.877  0.2356  0.7184  1.3453
 5516TIP3   OH238182   0.514   4.195   0.216 -0.0234 -0.1005 -0.0903
 5516TIP3    H138183   0.564   4.243   0.281 -1.5772 -1.1169  1.9919
 5516TIP3    H238184   0.528   4.103   0.238  2.9672 -0.8228 -4.0221
 5517TIP3   OH238185   3.549   1.727   1.391  0.0795 -0.4036 -0.0117
 5517TIP3    H138186   3.591   1.650   1.353  0.3383  0.8875 -2.5729
 5517TIP3    H238187   3.523   1.780   1.316 -0.7575  1.6821  1.6280
 5518TIP3   OH238188   5.033   0.559   8.065  0.0990 -0.2187 -0.1658
 5518TIP3    H138189   5.066   0.493   8.004  0.5505 -0.5020  0.3750
 5518TIP3    H238190   5.023   0.511   8.148 -0.7456  0.0936 -0.0752
 5519TIP3   OH238191   6.441   3.207   7.340 -0.3513 -0.2290  0.0171
 5519TIP3    H138192   6.362   3.259   7.329 -0.4214 -0.4924 -0.7625
 5519TIP3    H238193   6.502   3.242   7.275 -0.6812 -1.6403 -1.0995
 5520TIP3   OH238194   2.843   1.289   0.160 -0.1311  0.0203 -0.0462
 5520TIP3    H138195   2.898   1.241   0.223 -1.2362  0.5802  1.4128
 5520TIP3    H238196   2.767   1.232   0.147 -0.1001  0.0964 -0.5471
 5521TIP3   OH238197   4.260   2.167   7.495  0.3744  0.7555  0.3497
 5521TIP3    H138198   4.220   2.242   7.542 -1.5708  0.0854 -0.1336
 5521TIP3    H238199   4.261   2.097   7.560 -1.3546  0.1308 -0.2477
 5522TIP3   OH238200   5.100   0.054   7.781 -0.2132 -0.9789 -0.5053
 5522TIP3    H138201   5.078   0.005   7.702  0.5465  0.2951 -1.5624
 5522TIP3    H238202   5.016   0.081   7.817 -0.5505 -0.6801 -1.4844
 5523TIP3   OH238203   5.849   5.793   1.604  0.4030  0.2106  0.3302
 5523TIP3    H138204   5.873   5.884   1.585 -0.3877  0.3924  0.1666
 5523TIP3    H238205   5.799   5.765   1.527  1.1191 -0.5545  0.1243
 5524TIP3   OH238206   3.985   5.484   7.710  0.1744  0.4889 -0.0041
 5524TIP3    H138207   3.995   5.388   7.707  1.2722  0.6035 -1.2149
 5524TIP3    H238208   3.923   5.503   7.640  1.5860  0.7854 -1.2459
 5525TIP3   OH238209   4.661   5.031   0.224 -0.4079  0.2065  0.0428
 5525TIP3    H138210   4.728   5.089   0.261 -0.8099  1.3657 -0.9595
 5525TIP3    H238211   4.641   4.969   0.293  1.7525 -0.2204  0.3494
 5526TIP3   OH238212   4.800   6.510   0.452 -0.3481 -0.6065  0.1671
 5526TIP3    H138213   4.766   6.583   0.505  0.2754 -0.4186  0.3175
 5526TIP3    H238214   4.738   6.503   0.379  0.1413  0.7496 -0.4029
 5527TIP3   OH238215   6.160   4.357   1.674 -0.9886  0.4887  0.0805
 5527TIP3    H138216   6.212   4.293   1.723  0.0151  0.0457 -1.5054
 5527TIP3    H238217   6.069   4.330   1.688 -0.6492 -0.4476  0.5615
 5528TIP3   OH238218   6.138   6.643   8.636 -0.6751  0.1771 -0.5795
 5528TIP3    H138219   6.101   6.726   8.604  0.5368  1.1802  0.4802
 5528TIP3    H238220   6.118   6.644   8.730  0.3407 -0.1784 -0.3512
 5529TIP3   OH238221   0.145   4.675   1.663  0.1425  0.4368 -0.0424
 5529TIP3    H138222   0.160   4.587   1.697  0.6095  0.0835 -1.1339
 5529TIP3    H238223   0.232   4.717   1.665 -0.1993  1.1400  1.1598
 5530TIP3   OH238224   2.974   5.317   1.157  0.4209 -0.2738 -0.3935
 5530TIP3    H138225   2.910   5.360   1.214 -1.5365  0.0480 -2.6650
 5530TIP3    H238226   2.977   5.226   1.188  2.6408  0.7526  2.8025
 5531TIP3   OH238227   1.092   1.416   1.559 -0.3247 -0.3790  0.1761
 5531TIP3    H138228   1.074   1.486   1.495 -0.0090  0.7326  1.2570
 5531TIP3    H238229   1.185   1.398   1.549  0.0778  0.8844  1.3256
 5532TIP3   OH238230   6.605   1.387   8.398  0.1737  0.2283  0.0713
 5532TIP3    H138231   6.645   1.356   8.318 -1.2778 -1.0635 -0.1933
 5532TIP3    H238232   6.514   1.403   8.375 -0.6245 -1.5010  1.7506
 5533TIP3   OH238233   1.171   6.723   7.414  0.4225  0.3617 -0.2844
 5533TIP3    H138234   1.128   6.704   7.497 -1.5636 -1.6615 -1.6320
 5533TIP3    H238235   1.200   6.637   7.382  0.4463  0.9683 -2.0020
 5534TIP3   OH238236   1.114   2.786   8.015 -0.6365  0.1277 -0.1352
 5534TIP3    H138237   1.064   2.773   7.935 -1.3885 -0.7306  0.4668
 5534TIP3    H238238   1.152   2.874   8.005  0.8208 -0.6700 -2.2411
 5535TIP3   OH238239   2.438   5.754   0.366  0.1985 -0.3198  0.0455
 5535TIP3    H138240   2.378   5.679   0.357 -0.6047  0.2986  0.1264
 5535TIP3    H238241   2.480   5.740   0.451  0.0693 -0.6965  0.0504
 5536TIP3   OH238242   2.606   3.497   1.584  0.2323  0.1009 -0.3325
 5536TIP3    H138243   2.636   3.443   1.657 -0.3441 -0.6055 -0.5967
 5536TIP3    H238244   2.577   3.433   1.518  1.1558  0.7130 -1.3616
 5537TIP3   OH238245   6.674   1.532   8.010  0.0599  0.3324  0.3342
 5537TIP3    H138246   6.708   1.476   8.081  1.4547  0.5470 -0.1215
 5537TIP3    H238247   6.740   1.601   8.001 -0.0022  0.2143 -1.2774
 5538TIP3   OH238248   1.515   5.810   8.315 -0.2803 -0.5499  0.3315
 5538TIP3    H138249   1.608   5.787   8.321 -0.2710 -0.6828 -0.2824
 5538TIP3    H238250   1.478   5.785   8.400  0.0360 -1.4338  0.2142
 5539TIP3   OH238251   2.596   1.693   8.396 -0.2312  0.1893  0.5029
 5539TIP3    H138252   2.551   1.706   8.479 -2.8459  1.2664 -0.9290
 5539TIP3    H238253   2.525   1.692   8.331  1.6577 -0.8841 -1.6914
 5540TIP3   OH238254   3.620   2.361   0.563 -0.0712  0.4598  0.2149
 5540TIP3    H138255   3.700   2.406   0.591 -0.2798  1.3567 -0.5999
 5540TIP3    H238256   3.586   2.414   0.491 -0.9595 -0.3691  0.0029
 5541TIP3   OH238257   5.089   0.299   1.196  0.1395  0.6457 -0.0994
 5541TIP3    H138258   5.145   0.317   1.121  0.1099 -0.3477 -0.3754
 5541TIP3    H238259   5.148   0.304   1.272  0.8370 -1.2673 -0.4593
 5542TIP3   OH238260   6.699   2.858   7.541 -0.0024  0.0331 -0.2648
 5542TIP3    H138261   6.681   2.793   7.609  0.9593 -0.3710 -0.3866
 5542TIP3    H238262   6.786   2.892   7.563 -0.2692  0.9018 -0.5075
 5543TIP3   OH238263   6.763   0.834   0.143  0.0368 -0.4536 -0.6776
 5543TIP3    H138264   6.767   0.814   0.050  1.8870  0.4149 -0.8472
 5543TIP3    H238265   6.789   0.926   0.149  0.4638 -0.6357  0.7258
 5544TIP3   OH238266   5.385   5.324   1.044  0.4713 -0.1499  0.3006
 5544TIP3    H138267   5.479   5.318   1.026  0.9007 -1.3806  2.5516
 5544TIP3    H238268   5.380   5.357   1.134 -1.1962 -1.5247  0.7608
 5545TIP3   OH238269   3.004   4.186   1.700  0.2302 -0.6809 -0.2876
 5545TIP3    H138270   2.956   4.227   1.628 -1.1125 -1.8226 -0.0927
 5545TIP3    H238271   2.994   4.246   1.773  0.4925 -0.1400 -0.6870
 5546TIP3   OH238272   4.548   6.193   1.870 -0.6018 -0.3788 -0.4491
 5546TIP3    H138273   4.463   6.238   1.875 -0.2582  0.2704 -0.3666
 5546TIP3    H238274   4.576   6.203   1.779  0.0287  0.6217 -0.1578
 5547TIP3   OH238275   4.185   2.899   1.989 -0.4713  0.5795 -0.2103
 5547TIP3    H138276   4.173   2.994   1.987 -1.2828  0.5086  0.9057
 5547TIP3    H238277   4.174   2.874   2.081 -0.1121 -0.5862 -0.4574
 5548TIP3   OH238278   5.174   3.676   7.972 -0.6075  0.2543 -0.2324
 5548TIP3    H138279   5.160   3.771   7.978  0.2287  0.3500  0.2243
 5548TIP3    H238280   5.199   3.662   7.880  0.8814  0.7064  0.0801
 5549TIP3   OH238281   0.961   3.825   0.986 -0.2049  0.5398  0.6025
 5549TIP3    H138282   0.956   3.911   1.028 -3.2957  0.1326  1.3617
 5549TIP3    H238283   0.916   3.766   1.047  1.6715 -1.6168  0.0199
 5550TIP3   OH238284   1.126   6.391   6.511 -0.1433  0.7591 -0.5341
 5550TIP3    H138285   1.200   6.330   6.506  0.1924  0.9833  1.0671
 5550TIP3    H238286   1.053   6.336   6.539 -0.3555  0.7160 -1.1647
 5551TIP3   OH238287   3.466   2.584   0.719  0.6586  0.4980 -0.4631
 5551TIP3    H138288   3.550   2.571   0.763 -0.5588 -0.5417  1.7325
 5551TIP3    H238289   3.454   2.504   0.667 -0.6414 -1.3133  2.3384
 5552TIP3   OH238290   1.646   3.697   7.543  0.3232 -0.1147 -0.1002
 5552TIP3    H138291   1.695   3.669   7.465  1.3274  1.5465 -0.1139
 5552TIP3    H238292   1.557   3.668   7.526  0.8339 -1.1688 -1.1448
 5553TIP3   OH238293   3.898   0.215   8.174 -0.0831 -0.4883  0.6740
 5553TIP3    H138294   3.864   0.210   8.264  1.0601 -0.9360  1.1030
 5553TIP3    H238295   3.870   0.301   8.143 -1.2355 -0.6677  1.1375
 5554TIP3   OH238296   0.192   2.384   7.064 -0.1283 -0.0807 -0.1701
 5554TIP3    H138297   0.249   2.407   6.990 -1.6185 -0.2067 -1.4183
 5554TIP3    H238298   0.112   2.352   7.023 -1.5099  1.0648  1.5033
 5555TIP3   OH238299   3.901   1.257   1.553 -0.1516  0.0529 -0.3668
 5555TIP3    H138300   3.842   1.272   1.627 -0.6079 -1.0512 -0.4821
 5555TIP3    H238301   3.844   1.255   1.477  0.1454 -0.1254 -0.5862
 5556TIP3   OH238302   2.530   0.000   7.164  0.6705 -0.0475 -0.1711
 5556TIP3    H138303   2.535   0.081   7.113  2.5001 -0.1532 -0.2422
 5556TIP3    H238304   2.447  -0.039   7.139 -0.7189  2.2523  0.5653
 5557TIP3   OH238305   1.270   0.867   0.744  0.1919 -0.2502 -0.3958
 5557TIP3    H138306   1.213   0.857   0.820  0.7736 -2.4759 -0.1913
 5557TIP3    H238307   1.316   0.784   0.737  0.5022  0.0517 -2.9332
 5558TIP3   OH238308   1.014   1.948   8.117 -0.1297 -0.1630 -0.3507
 5558TIP3    H138309   0.963   2.029   8.113  0.3632  0.3144  1.9226
 5558TIP3    H238310   0.997   1.913   8.204  1.3973 -1.3477 -0.4936
 5559TIP3   OH238311   0.022   6.338   0.107 -0.4476  0.1617 -0.2701
 5559TIP3    H138312   0.068   6.273   0.054 -0.4443 -0.5483  0.5690
 5559TIP3    H238313   0.011   6.296   0.192 -3.1472  0.0890 -0.5702
 5560TIP3   OH238314   0.063   0.751   2.092 -0.4508  0.2014  0.0310
 5560TIP3    H138315   0.124   0.751   2.166  0.5582  1.2161 -0.7671
 5560TIP3    H238316   0.054   0.843   2.069  1.4116 -0.1929 -2.8089
 5561TIP3   OH238317   1.208   1.338   0.567  0.3790 -0.0731  0.7229
 5561TIP3    H138318   1.123   1.326   0.609  1.4456 -2.8234  2.3365
 5561TIP3    H238319   1.198   1.301   0.480  0.2918 -1.9106  1.4722
 5562TIP3   OH238320   4.994   2.680   8.301 -0.0377  0.1569  0.5363
 5562TIP3    H138321   4.930   2.608   8.307  1.2345 -1.0695 -0.0476
 5562TIP3    H238322   5.046   2.672   8.381  0.0853  0.4461  0.4842
 5563TIP3   OH238323   2.400   2.648   1.179  0.2094 -0.4982 -0.1437
 5563TIP3    H138324   2.425   2.620   1.091 -1.0587  1.1562 -1.0814
 5563TIP3    H238325   2.311   2.680   1.169  0.0057 -0.3604  1.7858
 5564TIP3   OH238326   5.059   0.384   1.756  0.1646  0.6698 -0.2427
 5564TIP3    H138327   5.062   0.451   1.824 -1.4703 -0.6891  1.2736
 5564TIP3    H238328   4.966   0.377   1.733  0.4923 -0.0750 -1.4024
 5565TIP3   OH238329   5.462   5.497   7.905 -0.4279 -0.3849  0.1467
 5565TIP3    H138330   5.535   5.498   7.843  0.4299  0.8964  1.1404
 5565TIP3    H238331   5.413   5.418   7.882 -0.0940 -0.0056 -2.1043
 5566TIP3   OH238332   3.446   5.841   8.552 -0.2956  0.3018 -0.1594
 5566TIP3    H138333   3.394   5.906   8.504 -1.0843 -0.2314 -0.0535
 5566TIP3    H238334   3.438   5.761   8.501  1.2688  0.4425 -0.6757
 5567TIP3   OH238335   4.304   2.479   8.486  0.3431 -0.3586 -0.3004
 5567TIP3    H138336   4.292   2.541   8.414 -0.0044 -0.9399 -0.7604
 5567TIP3    H238337   4.292   2.531   8.565  2.1747  0.5928 -0.6114
 5568TIP3   OH238338   6.705   5.110   8.467  0.4081 -0.0067  0.3476
 5568TIP3    H138339   6.722   5.181   8.530  1.4456 -0.4563  0.5987
 5568TIP3    H238340   6.722   5.030   8.517  0.4515 -0.3938 -0.2845
 5569TIP3   OH238341   4.794   6.010   2.598 -0.2509 -0.8446 -0.0520
 5569TIP3    H138342   4.761   5.963   2.675  1.4443  0.0574  1.2809
 5569TIP3    H238343   4.762   5.959   2.524 -1.4491 -2.0753  1.2501
 5570TIP3   OH238344   0.668   1.905   8.210  0.2762  0.7831  0.2559
 5570TIP3    H138345   0.614   1.827   8.221 -0.1543  0.9971 -0.2993
 5570TIP3    H238346   0.757   1.877   8.231  0.6119 -0.5462 -2.5416
 5571TIP3   OH238347   4.468   0.707   7.499  0.4998 -0.6033  0.0582
 5571TIP3    H138348   4.534   0.650   7.460  0.0955 -0.6806 -0.5251
 5571TIP3    H238349   4.385   0.673   7.467  0.2622  0.4801 -0.5413
 5572TIP3   OH238350   3.194   4.520   0.526  0.8210  0.2621 -0.5911
 5572TIP3    H138351   3.134   4.455   0.489  0.5458 -1.2071  2.1660
 5572TIP3    H238352   3.138   4.595   0.544  0.1945 -0.3560  0.1216
 5573TIP3   OH238353   6.587   0.500   7.211 -0.6054 -0.2628 -0.1625
 5573TIP3    H138354   6.619   0.542   7.131  0.9313 -2.9549 -1.0961
 5573TIP3    H238355   6.592   0.568   7.277 -0.6574  1.6980 -2.0497
 5574TIP3   OH238356   1.604   4.514   7.732  0.3758  0.3316 -0.0780
 5574TIP3    H138357   1.609   4.471   7.647  0.0149  1.3476 -0.6270
 5574TIP3    H238358   1.523   4.564   7.729 -0.9884 -1.5918  1.8352
 5575TIP3   OH238359   0.191   4.233   1.491  0.1455 -0.1683  0.4303
 5575TIP3    H138360   0.116   4.181   1.520  0.3062  0.0923  1.3395
 5575TIP3    H238361   0.266   4.174   1.503  0.0866 -0.4520 -0.5392
 5576TIP3   OH238362   4.622   4.169   8.200 -0.1527 -0.0886  0.1893
 5576TIP3    H138363   4.633   4.074   8.203  0.3170 -0.0187  0.9321
 5576TIP3    H238364   4.558   4.183   8.130  1.4499 -0.7841 -1.4938
 5577TIP3   OH238365   0.548   1.041   7.758 -0.1492  0.3184 -0.6597
 5577TIP3    H138366   0.592   1.028   7.674  0.3838  0.6795 -0.4417
 5577TIP3    H238367   0.474   0.980   7.756  0.1147  0.0068 -1.2054
 5578TIP3   OH238368   5.840   2.133   8.326  0.0515 -0.5606 -0.0695
 5578TIP3    H138369   5.824   2.146   8.419 -0.5679  1.3993 -0.3843
 5578TIP3    H238370   5.895   2.207   8.300  2.1847 -2.3133 -0.8495
 5579TIP3   OH238371   6.182   1.719   6.682  0.4180 -0.3860 -0.2160
 5579TIP3    H138372   6.203   1.810   6.663 -1.0064  0.3264  1.3514
 5579TIP3    H238373   6.102   1.724   6.735 -1.0696 -2.6590 -2.0675
 5580TIP3   OH238374   4.743   5.626   1.847 -0.1071  0.2628  0.5638
 5580TIP3    H138375   4.817   5.568   1.860 -0.2365 -0.8276 -2.6129
 5580TIP3    H238376   4.776   5.713   1.867  1.3268 -0.4366  1.3760
 5581TIP3   OH238377   4.535   2.525   8.918  0.3924 -0.1123  0.1653
 5581TIP3    H138378   4.531   2.586   8.844  3.2434 -0.9859 -0.8622
 5581TIP3    H238379   4.554   2.580   8.994  1.7297  0.4498 -0.5371
 5582TIP3   OH238380   0.878   5.987   1.474 -0.0874  0.0433  0.1773
 5582TIP3    H138381   0.846   6.072   1.505  0.7415  1.6187 -2.8914
 5582TIP3    H238382   0.801   5.931   1.473 -1.2281  1.5566 -0.1419
 5583TIP3   OH238383   3.321   4.668   7.698  0.0602  0.0197  0.0424
 5583TIP3    H138384   3.381   4.603   7.662  0.0279 -1.3927  2.3528
 5583TIP3    H238385   3.371   4.750   7.697  0.7088 -0.3571 -1.3290
 5584TIP3   OH238386   5.072   3.727   8.900 -0.0324 -0.5146 -0.4282
 5584TIP3    H138387   5.091   3.812   8.940 -0.2953  0.7394 -2.7916
 5584TIP3    H238388   5.148   3.673   8.921  1.8987  1.4718 -1.8984
 5585TIP3   OH238389   2.029   4.126   8.309 -0.1332 -0.2136 -0.0263
 5585TIP3    H138390   1.935   4.115   8.294 -0.1843 -0.4454  0.4652
 5585TIP3    H238391   2.066   4.039   8.295  0.1212  0.0334 -0.9899
 5586TIP3   OH238392   0.569   0.814   8.457  0.1479 -0.0410  0.3209
 5586TIP3    H138393   0.518   0.887   8.492  0.9535  1.0832 -0.7690
 5586TIP3    H238394   0.565   0.747   8.525 -1.7923  0.4463  0.7615
 5587TIP3   OH238395   2.587   1.403   0.165  0.4042  0.2246  0.5061
 5587TIP3    H138396   2.549   1.469   0.222 -0.3635 -0.4419  0.7941
 5587TIP3    H238397   2.681   1.405   0.184  0.2487  0.5047  1.2789
 5588TIP3   OH238398   5.867   5.068   7.611 -0.0434 -0.1945  0.1359
 5588TIP3    H138399   5.842   5.160   7.624 -0.2623  0.1946 -2.4946
 5588TIP3    H238400   5.850   5.052   7.518  0.9858 -2.6148  0.3073
 5589TIP3   OH238401   1.299   2.759   7.732 -0.4392 -0.0983 -0.3335
 5589TIP3    H138402   1.337   2.671   7.732 -0.9407 -0.3186 -0.5019
 5589TIP3    H238403   1.357   2.810   7.788 -1.1503 -0.9751  1.2659
 5590TIP3   OH238404   6.189   6.042   8.666  0.3583  0.1406 -0.2531
 5590TIP3    H138405   6.210   5.983   8.739  1.9926 -0.1766 -0.9454
 5590TIP3    H238406   6.217   6.128   8.696 -0.6451  0.3262  0.1792
 5591TIP3   OH238407   4.596   6.471   0.266 -0.4477  0.3771  0.1408
 5591TIP3    H138408   4.573   6.389   0.221 -1.2090 -0.5154  2.0333
 5591TIP3    H238409   4.519   6.527   0.255 -0.1486  0.6483 -0.6704
 5592TIP3   OH238410   3.878   0.156   0.112 -0.7377 -0.6536 -0.2831
 5592TIP3    H138411   3.844   0.075   0.073 -0.5267 -0.3607 -1.0717
 5592TIP3    H238412   3.931   0.196   0.044  0.4679 -0.6429  0.6328
 5593TIP3   OH238413   1.516   1.590   2.007 -0.4464  0.0988 -0.5323
 5593TIP3    H138414   1.552   1.664   2.055 -1.1112  0.5298 -0.6767
 5593TIP3    H238415   1.590   1.551   1.962  0.4455 -1.0513  1.7543
 5594TIP3   OH238416   1.965   4.358   0.491  0.5596 -0.6718  0.8538
 5594TIP3    H138417   1.873   4.335   0.478 -0.1241  1.2443  1.8971
 5594TIP3    H238418   1.980   4.345   0.585  1.1598 -0.3059  0.8161
 5595TIP3   OH238419   1.607   4.066   7.884 -0.5683  0.4642 -0.6640
 5595TIP3    H138420   1.528   4.011   7.885 -0.6292  0.5234 -1.6475
 5595TIP3    H238421   1.575   4.153   7.906 -0.3379 -0.0156  1.8581
 5596TIP3   OH238422   4.866   3.527   7.190 -0.1759 -0.3874 -0.1285
 5596TIP3    H138423   4.801   3.592   7.215 -1.0760 -0.4354 -2.1326
 5596TIP3    H238424   4.870   3.533   7.095  2.8505 -0.3420 -0.0748
 5597TIP3   OH238425   5.729   4.798   8.105  0.2331  0.3582 -0.5333
 5597TIP3    H138426   5.641   4.820   8.075  1.2670  0.7394 -3.6109
 5597TIP3    H238427   5.770   4.883   8.122 -0.2390  0.1672  2.0590
 5598TIP3   OH238428   0.458   6.640   6.619  0.4764 -0.0977  0.3492
 5598TIP3    H138429   0.409   6.587   6.682 -1.2227 -0.9103 -1.5279
 5598TIP3    H238430   0.522   6.579   6.582  0.8195  0.1106  0.5974
 5599TIP3   OH238431   0.484   1.531   6.712 -0.0625  0.1444  0.5250
 5599TIP3    H138432   0.437   1.537   6.628 -0.8960  0.0572  0.9768
 5599TIP3    H238433   0.552   1.467   6.696  0.1629  0.5598 -0.2637
 5600TIP3   OH238434   6.259   3.942   7.825 -0.0767 -0.0064  0.1405
 5600TIP3    H138435   6.269   3.889   7.746  0.6509  0.8686 -0.3819
 5600TIP3    H238436   6.337   3.923   7.877 -1.2283 -1.6825  1.3785
 5601TIP3   OH238437   3.815   0.081   1.445 -0.4467  0.0414  0.3275
 5601TIP3    H138438   3.852   0.165   1.472 -0.5887 -0.5982  2.7738
 5601TIP3    H238439   3.720   0.095   1.447 -0.4617 -0.0137  0.0728
 5602TIP3   OH238440   1.552   3.008   8.356  0.1824 -0.2035  0.3088
 5602TIP3    H138441   1.507   2.931   8.320 -0.1002  0.0715  0.0655
 5602TIP3    H238442   1.548   3.072   8.286 -0.8453  0.5299  1.0148
 5603TIP3   OH238443   5.910   1.357   1.291 -0.1514 -0.5720  0.0977
 5603TIP3    H138444   6.002   1.379   1.308 -0.4088  1.1906 -0.5955
 5603TIP3    H238445   5.871   1.439   1.263 -1.9716 -1.2944  0.4123
 5604TIP3   OH238446   4.057   1.964   7.147  0.1928  0.0141  0.4605
 5604TIP3    H138447   3.974   1.961   7.098  0.4981 -0.0374 -0.0556
 5604TIP3    H238448   4.036   2.016   7.225  0.1488  1.6071 -0.5681
 5605TIP3   OH238449   4.732   1.307   1.421  0.1180  0.4453  0.5168
 5605TIP3    H138450   4.827   1.308   1.424  0.1222 -0.4659  1.2391
 5605TIP3    H238451   4.706   1.393   1.454  0.6771  0.3291  1.2843
 5606TIP3   OH238452   1.822   4.498   0.120 -0.2444  0.0058 -0.3244
 5606TIP3    H138453   1.793   4.409   0.104  0.8275 -0.5268  0.5848
 5606TIP3    H238454   1.744   4.542   0.156 -0.6071 -0.7346 -0.1801
 5607TIP3   OH238455   2.047   2.954   8.789 -0.1837 -0.8326  0.1024
 5607TIP3    H138456   2.119   2.913   8.837  0.4185  0.0645 -0.0131
 5607TIP3    H238457   1.995   2.997   8.856 -0.9286 -1.9074  0.2474
 5608TIP3   OH238458   6.471   2.881   7.809 -0.5432 -0.1739 -0.2627
 5608TIP3    H138459   6.502   2.793   7.787 -0.3618  0.0815 -1.0602
 5608TIP3    H238460   6.375   2.872   7.809 -0.7270  0.3891 -3.9530
 5609TIP3   OH238461   0.063   6.629   0.189  0.5185 -0.0883 -0.2695
 5609TIP3    H138462   0.055   6.534   0.190 -0.4669 -0.0211 -0.3349
 5609TIP3    H238463   0.030   6.656   0.275  2.6055  0.0911  0.5234
 5610TIP3   OH238464   1.814   3.942   8.053  0.6937 -0.1113 -0.4232
 5610TIP3    H138465   1.757   3.999   8.002 -2.3814 -1.9370  0.7342
 5610TIP3    H238466   1.809   3.977   8.142  2.2649  0.2840 -0.4615
 5611TIP3   OH238467   5.283   0.184   7.354 -0.0390 -0.1847 -0.6037
 5611TIP3    H138468   5.289   0.098   7.397  0.1937  0.3066  0.3694
 5611TIP3    H238469   5.192   0.210   7.367  0.4053  0.6601  0.9942
 5612TIP3   OH238470   3.232   2.106   8.329  0.3646 -0.6268 -0.3545
 5612TIP3    H138471   3.272   2.041   8.386  1.1158 -0.2233 -0.4059
 5612TIP3    H238472   3.305   2.141   8.277  0.6675  2.5825  1.9196
 5613TIP3   OH238473   1.471   2.644   0.271  0.5754 -0.3148 -0.2591
 5613TIP3    H138474   1.496   2.700   0.198  0.9252  0.3133  0.3210
 5613TIP3    H238475   1.553   2.623   0.315  0.2948  0.1625  0.5355
 5614TIP3   OH238476   4.065   1.762   0.795 -0.1388  0.3868  0.3490
 5614TIP3    H138477   3.995   1.818   0.762 -2.0872 -1.5287  1.0388
 5614TIP3    H238478   4.020   1.691   0.841  2.3128  0.1635  2.6267
 5615TIP3   OH238479   4.860   0.577   0.366 -0.4066  0.1219  0.0201
 5615TIP3    H138480   4.873   0.547   0.456 -0.0474  0.2827  0.0266
 5615TIP3    H238481   4.949   0.581   0.330 -0.2772  2.4875  0.4516
 5616TIP3   OH238482   0.441   3.305   0.711  0.5648 -0.5805  0.8119
 5616TIP3    H138483   0.456   3.211   0.699 -0.6177 -0.6863 -0.0718
 5616TIP3    H238484   0.347   3.312   0.727 -0.0337  0.7129 -2.5664
 5617TIP3   OH238485   6.601   5.405   2.151  0.0912 -0.6648 -0.0860
 5617TIP3    H138486   6.686   5.429   2.189  0.3216 -0.5053 -0.7012
 5617TIP3    H238487   6.563   5.344   2.215  0.5969 -0.6167  0.2670
 5618TIP3   OH238488   2.918   3.568   8.973 -0.3200 -0.0143 -0.0261
 5618TIP3    H138489   2.954   3.479   8.979  0.2774 -0.0019 -2.4390
 5618TIP3    H238490   2.872   3.570   8.889  0.5298  2.2284 -0.5211
 5619TIP3   OH238491   4.017   1.483   8.871 -0.2960  0.2342 -0.0383
 5619TIP3    H138492   4.092   1.437   8.832  0.4310  0.0705  1.4650
 5619TIP3    H238493   4.036   1.576   8.856  1.0100  0.2802  1.6190
 5620TIP3   OH238494   2.410   1.026   0.274 -0.2695  0.0300  0.9601
 5620TIP3    H138495   2.394   0.955   0.213 -3.4795 -0.0203  1.6643
 5620TIP3    H238496   2.401   0.987   0.361 -1.4537  1.0922  1.3631
 5621TIP3   OH238497   5.258   1.277   0.169  0.0546  0.2097  0.4863
 5621TIP3    H138498   5.351   1.299   0.174  0.4638 -1.3007 -0.1088
 5621TIP3    H238499   5.213   1.361   0.182  1.5361  1.6323 -2.5416
 5622TIP3   OH238500   1.403   5.479   2.335 -0.0360 -0.0894  0.1062
 5622TIP3    H138501   1.447   5.417   2.393  1.1751  2.0324  1.5852
 5622TIP3    H238502   1.331   5.515   2.387 -0.2762  0.2902 -0.4732
 5623TIP3   OH238503   2.804   1.350   7.148 -0.0388  0.2626 -0.7992
 5623TIP3    H138504   2.749   1.288   7.100 -0.2497 -0.1085 -0.1002
 5623TIP3    H238505   2.812   1.426   7.090  1.6807 -1.0806 -2.4448
 5624TIP3   OH238506   3.523   4.381   1.215  0.3988  0.1168 -0.5702
 5624TIP3    H138507   3.548   4.297   1.175  2.4758  0.3964 -0.0130
 5624TIP3    H238508   3.567   4.447   1.160 -1.3988  0.8881 -1.1433
 5625TIP3   OH238509   4.024   4.634   0.757  0.0942 -1.0361  0.7267
 5625TIP3    H138510   4.048   4.603   0.844 -0.5766 -1.7202  0.6800
 5625TIP3    H238511   4.039   4.559   0.700  1.3973 -0.3161  0.0903
 5626TIP3   OH238512   1.600   4.863   7.649  0.2892  0.1326  0.1558
 5626TIP3    H138513   1.686   4.826   7.669  0.3752 -0.5518 -1.4138
 5626TIP3    H238514   1.550   4.791   7.612 -1.0936  0.4484  1.2869
 5627TIP3   OH238515   6.145   0.771   7.626  0.2689  0.4769 -0.0056
 5627TIP3    H138516   6.059   0.764   7.583 -1.4733 -0.8317  3.3450
 5627TIP3    H238517   6.170   0.863   7.613 -1.6732  0.9300 -0.9842
 5628TIP3   OH238518   0.865   3.761   8.523 -0.1563  0.4501 -0.0790
 5628TIP3    H138519   0.825   3.829   8.578 -2.3881 -0.8091 -0.0295
 5628TIP3    H238520   0.832   3.679   8.559  0.5333 -0.5483 -1.6360
 5629TIP3   OH238521   0.559   0.377   6.464 -0.1736 -0.2707 -0.6298
 5629TIP3    H138522   0.465   0.394   6.464 -0.0750  0.3991  0.4760
 5629TIP3    H238523   0.568   0.287   6.496 -0.4445 -0.3383 -0.7445
 5630TIP3   OH238524   5.502   0.206   8.357 -0.2202  0.4863 -0.3358
 5630TIP3    H138525   5.485   0.164   8.273  0.2426  0.1750 -0.2783
 5630TIP3    H238526   5.424   0.188   8.409  1.2257 -3.2181  0.8552
 5631TIP3   OH238527   1.921   0.687   0.196 -0.0771  0.1788  0.1014
 5631TIP3    H138528   1.983   0.617   0.175 -0.2054 -0.4840  1.7866
 5631TIP3    H238529   1.844   0.667   0.143  1.1712  1.1541 -2.2186
 5632TIP3   OH238530   2.024   4.036   0.696  0.2737  0.3128 -0.2453
 5632TIP3    H138531   1.941   4.075   0.724  0.1519  0.4387 -0.7864
 5632TIP3    H238532   2.087   4.108   0.702  0.9637 -0.3772  2.7764
 5633TIP3   OH238533   6.234   2.313   1.254 -0.2049 -0.0672  0.0549
 5633TIP3    H138534   6.144   2.280   1.251  0.0119 -0.6127 -2.3189
 5633TIP3    H238535   6.249   2.350   1.167  2.1855 -0.8884  0.0533
 5634TIP3   OH238536   3.961   4.217   1.558  0.4447 -0.0759 -1.0270
 5634TIP3    H138537   3.882   4.168   1.581  0.2708  0.7248  0.1911
 5634TIP3    H238538   3.932   4.307   1.549  1.2924  0.3470  0.0983
 5635TIP3   OH238539   0.260   1.572   6.964 -0.3203 -0.7564 -0.2827
 5635TIP3    H138540   0.302   1.510   6.906  1.2312 -0.2409  0.2395
 5635TIP3    H238541   0.293   1.658   6.936 -1.5785 -0.2547 -0.2972
 5636TIP3   OH238542   1.960   1.862   1.275 -0.2192  0.3250 -0.2686
 5636TIP3    H138543   1.949   1.857   1.369 -1.2660 -0.5285 -0.4220
 5636TIP3    H238544   1.925   1.780   1.241  1.2107  0.0984 -1.3201
 5637TIP3   OH238545   2.695   3.620   6.857 -0.4240  0.0955  0.7099
 5637TIP3    H138546   2.744   3.559   6.802  1.4926  1.5112  0.7499
 5637TIP3    H238547   2.609   3.626   6.816  0.3741 -0.2561 -1.0909
 5638TIP3   OH238548   0.661   1.156   0.737 -0.6295 -0.4958  0.2195
 5638TIP3    H138549   0.696   1.238   0.702 -0.4355 -0.8977 -0.5376
 5638TIP3    H238550   0.650   1.100   0.661 -1.1984 -1.0195  0.6760
 5639TIP3   OH238551   5.547   6.299   0.954  0.4043 -0.4446  0.2126
 5639TIP3    H138552   5.568   6.378   0.904  1.5754 -1.6433 -1.3194
 5639TIP3    H238553   5.607   6.301   1.028 -1.0429  1.1363  1.4123
 5640TIP3   OH238554   5.594   1.275   7.935  0.1586  0.7355  0.0228
 5640TIP3    H138555   5.684   1.254   7.958  0.5002  0.8206 -1.1523
 5640TIP3    H238556   5.541   1.211   7.983  0.7002  1.7970  2.1067
 5641TIP3   OH238557   6.425   3.130   0.203 -0.2888  0.3569  0.4454
 5641TIP3    H138558   6.501   3.178   0.170 -0.5804  0.8901  0.5563
 5641TIP3    H238559   6.362   3.197   0.228 -0.5629 -0.0726  0.9295
 5642TIP3   OH238560   1.005   4.689   0.853  0.0942 -0.1339  0.0600
 5642TIP3    H138561   0.946   4.641   0.795  0.4837 -0.6333  0.0687
 5642TIP3    H238562   1.068   4.731   0.794 -0.5467  0.7902  0.0218
 5643TIP3   OH238563   4.428   2.791   7.968 -0.1459 -0.2950 -0.4826
 5643TIP3    H138564   4.351   2.815   8.019  1.1280 -2.1300  2.5855
 5643TIP3    H238565   4.397   2.722   7.909 -1.3949  1.0293 -1.4639
 5644TIP3   OH238566   1.648   5.080   8.147 -0.1202  0.0898  0.0605
 5644TIP3    H138567   1.617   4.998   8.185  1.8204 -1.0105 -0.5682
 5644TIP3    H238568   1.650   5.063   8.052  1.1727  0.5135 -0.0060
 5645TIP3   OH238569   1.793   4.156   7.657 -0.5093 -0.0637 -0.0170
 5645TIP3    H138570   1.719   4.147   7.718  1.0346 -0.0535  1.9748
 5645TIP3    H238571   1.842   4.231   7.690 -0.8693  1.5017 -2.7813
 5646TIP3   OH238572   1.857   5.174   7.297  0.9055 -0.3985  0.2052
 5646TIP3    H138573   1.800   5.133   7.362  0.0849 -0.4149 -0.5067
 5646TIP3    H238574   1.875   5.260   7.333  1.6243 -0.9149  1.1229
 5647TIP3   OH238575   4.675   5.011   8.937 -0.0612  0.1599 -0.7864
 5647TIP3    H138576   4.770   5.010   8.925 -0.0243 -3.7750 -1.5268
 5647TIP3    H238577   4.664   5.018   9.032  1.0624 -0.4851 -0.5837
 5648TIP3   OH238578   4.255   2.586   0.306 -0.6962 -0.9888  0.2934
 5648TIP3    H138579   4.327   2.536   0.345 -0.5269 -0.2769  0.9117
 5648TIP3    H238580   4.265   2.574   0.212 -0.7262 -2.2114  0.4308
 5649TIP3   OH238581   4.209   1.110   6.877 -0.0510  0.1457  0.2937
 5649TIP3    H138582   4.135   1.112   6.817  0.2667  3.4770 -0.2025
 5649TIP3    H238583   4.286   1.123   6.821  0.2671  3.2426  1.2734
 5650TIP3   OH238584   4.195   2.991   8.117  0.3810 -0.6165 -0.4334
 5650TIP3    H138585   4.259   3.038   8.063  0.9075 -1.0991 -0.2431
 5650TIP3    H238586   4.224   3.006   8.207 -1.5926  1.8160 -0.0946
 5651TIP3   OH238587   2.529   2.331   0.559  0.1687 -0.8875  0.3655
 5651TIP3    H138588   2.434   2.317   0.564  0.0325  0.1210  0.9817
 5651TIP3    H238589   2.567   2.247   0.584 -0.5725 -1.0883  0.8512
 5652TIP3   OH238590   1.836   4.758   7.695 -0.7160 -0.5425 -0.3071
 5652TIP3    H138591   1.878   4.688   7.645  0.4349 -0.1278  0.0481
 5652TIP3    H238592   1.852   4.736   7.786 -0.4026  0.1432 -0.1909
 5653TIP3   OH238593   3.390   2.426   2.193  0.1640  0.2415  0.5545
 5653TIP3    H138594   3.368   2.487   2.263 -0.3433  0.8787 -0.1438
 5653TIP3    H238595   3.337   2.454   2.119 -0.8406 -1.6539  0.4897
 5654TIP3   OH238596   1.999   5.879   1.339  0.5582  0.1873 -0.1548
 5654TIP3    H138597   2.025   5.939   1.409  0.2273  0.7534 -0.5176
 5654TIP3    H238598   2.027   5.793   1.371  3.1677  0.7741 -0.6536
 5655TIP3   OH238599   6.472   0.694   1.397 -0.0642 -0.1374  0.4810
 5655TIP3    H138600   6.530   0.631   1.439  0.8135 -0.5961 -1.3158
 5655TIP3    H238601   6.435   0.745   1.470  1.7272 -0.5614  1.7649
 5656TIP3   OH238602   2.650   5.251   8.442  0.0594  0.3603 -0.0546
 5656TIP3    H138603   2.700   5.194   8.499  0.2252 -0.4426 -0.9705
 5656TIP3    H238604   2.561   5.247   8.475  0.2046  0.1278  0.3074
 5657TIP3   OH238605   1.917   4.546   0.798  0.3837 -0.5066  0.7422
 5657TIP3    H138606   1.912   4.601   0.876 -0.1549 -0.2437  0.5316
 5657TIP3    H238607   1.829   4.552   0.759  1.2507  1.1715 -1.1224
 5658TIP3   OH238608   1.579   4.014   0.739  0.1754 -0.0628 -0.3114
 5658TIP3    H138609   1.497   4.063   0.728  0.8098  0.8041 -1.3839
 5658TIP3    H238610   1.551   3.924   0.756 -1.0308  0.6703  1.9496
 5659TIP3   OH238611   5.911   4.889   6.769  0.2111  0.2730  0.3872
 5659TIP3    H138612   5.904   4.809   6.716  0.4113 -0.2570  1.1356
 5659TIP3    H238613   5.982   4.870   6.831  0.6508  1.2573  0.2093
 5660TIP3   OH238614   3.132   6.057   1.821  0.1903  0.2618  0.1181
 5660TIP3    H138615   3.142   6.008   1.903 -1.4163  0.4983  0.4775
 5660TIP3    H238616   3.042   6.043   1.794  0.6701  0.2314 -1.6202
 5661TIP3   OH238617   1.736   2.331   7.244 -0.1840  0.2266  0.5227
 5661TIP3    H138618   1.650   2.341   7.204 -1.1346 -2.5924  1.6537
 5661TIP3    H238619   1.797   2.365   7.178 -2.0550  1.2915 -0.7472
 5662TIP3   OH238620   6.506   6.331   7.542 -0.1569  0.0159 -0.5135
 5662TIP3    H138621   6.598   6.304   7.548  0.0272  0.8632  1.0787
 5662TIP3    H238622   6.505   6.419   7.581 -1.4641  0.4747 -1.5209
 5663TIP3   OH238623   0.969   4.030   0.250 -0.1220  0.2122 -0.4911
 5663TIP3    H138624   1.045   4.006   0.196  2.2590  2.0306  1.7936
 5663TIP3    H238625   0.974   3.971   0.325 -1.0171  0.2947 -0.3650
 5664TIP3   OH238626   1.733   2.482   7.673  0.1570 -0.2426 -0.1025
 5664TIP3    H138627   1.785   2.503   7.595 -0.8272 -0.6847 -0.9013
 5664TIP3    H238628   1.747   2.388   7.686 -2.2247 -0.8891 -1.7290
 5665TIP3   OH238629   4.593   2.408   7.229 -0.2142  0.1094 -0.4709
 5665TIP3    H138630   4.527   2.374   7.168 -0.9905 -0.7628  0.7937
 5665TIP3    H238631   4.580   2.503   7.229  0.2861  0.2027 -2.1801
 5666TIP3   OH238632   1.125   2.097   6.780  0.2507  0.8784 -0.6599
 5666TIP3    H138633   1.154   2.040   6.851 -1.6923 -0.2434 -0.7035
 5666TIP3    H238634   1.200   2.100   6.719  1.0454 -0.1223  0.2391
 5667TIP3   OH238635   5.028   4.254   2.054  0.1238 -0.4061  0.3274
 5667TIP3    H138636   4.972   4.249   2.132  0.8804  1.5248  1.0521
 5667TIP3    H238637   5.117   4.247   2.088  0.4675  0.5542 -0.3194
 5668TIP3   OH238638   0.514   2.352   8.729  0.3211 -0.3018 -0.2743
 5668TIP3    H138639   0.480   2.264   8.745  0.5549 -0.1048  1.4836
 5668TIP3    H238640   0.437   2.405   8.712 -0.0600 -0.3863  1.0632
 5669TIP3   OH238641   6.141   4.622   0.805  0.4494  0.2668  0.2219
 5669TIP3    H138642   6.225   4.586   0.835 -0.6556 -2.0038  0.8315
 5669TIP3    H238643   6.164   4.705   0.764  2.9492 -0.1088  0.6831
 5670TIP3   OH238644   5.058   1.971   8.817  0.2207  0.5614  0.1346
 5670TIP3    H138645   5.115   1.895   8.828  0.5971  0.6415 -1.1148
 5670TIP3    H238646   5.116   2.046   8.826  0.0561  0.6774  0.2457
 5671TIP3   OH238647   6.732   2.329   2.059  0.5625  0.2144  0.0493
 5671TIP3    H138648   6.810   2.285   2.026  1.3207  0.6481  1.1957
 5671TIP3    H238649   6.765   2.391   2.125 -0.7464  0.3876  0.5844
 5672TIP3   OH238650   0.942   3.114   7.330 -0.6082  0.1379 -0.0279
 5672TIP3    H138651   0.908   3.085   7.415 -0.3142 -0.0630  0.0228
 5672TIP3    H238652   0.902   3.054   7.267 -0.0308 -0.3552  0.0731
 5673TIP3   OH238653   4.517   3.083   1.728  0.2950  0.0162  0.4358
 5673TIP3    H138654   4.484   3.121   1.810 -0.2079 -0.3325  0.3955
 5673TIP3    H238655   4.612   3.096   1.733  0.4255 -1.1582  1.6807
 5674TIP3   OH238656   6.754   3.976   8.296 -0.5567  0.0536 -0.1953
 5674TIP3    H138657   6.710   4.061   8.300 -1.6644 -0.5018  0.0979
 5674TIP3    H238658   6.784   3.960   8.385 -1.6326 -0.4769  0.0999
 5675TIP3   OH238659   5.214   4.478   1.406  0.0046  0.3527 -0.5600
 5675TIP3    H138660   5.213   4.511   1.316 -2.2412  2.0334  0.0111
 5675TIP3    H238661   5.303   4.444   1.418  0.6785  1.0629 -3.0443
 5676TIP3   OH238662   5.307   3.329   7.018 -0.4304 -0.3190  0.5418
 5676TIP3    H138663   5.310   3.425   7.021  0.3772 -0.2816 -0.7340
 5676TIP3    H238664   5.245   3.309   6.947 -0.1871 -0.7312  0.4442
 5677TIP3   OH238665   3.516   5.115   1.420  0.4964  0.1687  0.4541
 5677TIP3    H138666   3.553   5.064   1.347 -1.5938  1.5215 -1.6929
 5677TIP3    H238667   3.562   5.199   1.417  1.0679 -0.0894  1.3750
 5678TIP3   OH238668   4.622   0.972   6.317 -0.1666 -0.5274 -0.3864
 5678TIP3    H138669   4.570   0.997   6.240  0.1943 -0.5343 -0.6336
 5678TIP3    H238670   4.558   0.964   6.387 -0.3282  0.7599 -0.3740
 5679TIP3   OH238671   5.405   4.610   8.512 -0.6613 -0.1663 -0.1508
 5679TIP3    H138672   5.383   4.679   8.448 -1.5434  0.8878  1.2240
 5679TIP3    H238673   5.345   4.626   8.585 -0.3289 -1.9274  0.5545
 5680TIP3   OH238674   0.248   5.672   7.637  0.4674  0.1502 -0.0483
 5680TIP3    H138675   0.217   5.756   7.670 -2.2158 -0.6190 -0.3484
 5680TIP3    H238676   0.267   5.621   7.715  0.6584  0.5556  0.1694
 5681TIP3   OH238677   5.700   5.531   7.765  0.4618 -0.4029 -0.4646
 5681TIP3    H138678   5.739   5.597   7.822 -0.7416  1.3738 -1.5943
 5681TIP3    H238679   5.691   5.575   7.680 -1.9126 -1.4358 -0.8237
 5682TIP3   OH238680   0.284   5.282   0.067 -0.4356 -0.1625 -0.0645
 5682TIP3    H138681   0.259   5.203   0.115 -2.0218 -0.5679 -1.4678
 5682TIP3    H238682   0.243   5.353   0.116 -0.1741 -0.3322  0.4135
 5683TIP3   OH238683   0.665   1.813   8.913 -0.3913  0.0533 -0.3110
 5683TIP3    H138684   0.652   1.869   8.990  1.8653 -1.0063  0.9242
 5683TIP3    H238685   0.719   1.866   8.854  1.4183 -0.5804  0.6938
 5684TIP3   OH238686   2.890   4.492   0.060  0.1777  0.2674  0.3937
 5684TIP3    H138687   2.829   4.430   0.100 -2.0783  1.3244 -1.1984
 5684TIP3    H238688   2.835   4.549   0.007  2.4107  2.3020  0.0878
 5685TIP3   OH238689   1.075   5.929   7.161  0.3378 -0.3382 -0.6768
 5685TIP3    H138690   1.109   5.982   7.089 -0.2653  1.6882  0.4479
 5685TIP3    H238691   1.019   5.864   7.120 -0.3826  1.0809 -2.0228
 5686TIP3   OH238692   0.288   5.650   1.235 -0.0125 -0.0871  0.0581
 5686TIP3    H138693   0.344   5.635   1.312  0.0886  1.1115  0.2421
 5686TIP3    H238694   0.342   5.624   1.161  0.1686 -0.5374  0.3451
 5687TIP3   OH238695   2.984   0.737   1.728  0.4567 -0.4963 -0.4989
 5687TIP3    H138696   2.899   0.695   1.716  0.6336 -0.5044 -1.9479
 5687TIP3    H238697   2.993   0.794   1.651 -0.1483  2.8773  1.7289
 5688TIP3   OH238698   4.799   4.273   8.812 -0.2451  0.9912  0.0035
 5688TIP3    H138699   4.822   4.267   8.719 -1.0403 -0.5456 -0.1449
 5688TIP3    H238700   4.855   4.209   8.855  0.8685  2.4352  0.7896
 5689TIP3   OH238701   3.967   2.832   6.950  0.0438  0.1174  0.1359
 5689TIP3    H138702   4.045   2.884   6.929 -1.6631  1.9943 -2.1482
 5689TIP3    H238703   3.940   2.795   6.866 -2.0658  0.3543  0.6598
 5690TIP3   OH238704   5.690   1.240   7.293 -0.3830  0.5119  0.4512
 5690TIP3    H138705   5.709   1.292   7.216 -0.8512 -0.3182 -0.2439
 5690TIP3    H238706   5.611   1.279   7.330  0.6495  1.8274  1.3844
 5691TIP3   OH238707   0.008   1.965   6.734  0.5089  0.0609  0.1020
 5691TIP3    H138708  -0.069   2.005   6.776  0.4139  0.1778 -0.1825
 5691TIP3    H238709   0.082   2.018   6.764  0.3794  0.4886 -0.3100
 5692TIP3   OH238710   3.767   4.406   8.665  1.1326  0.4996 -0.5202
 5692TIP3    H138711   3.715   4.354   8.727  2.1871 -0.1468 -0.1441
 5692TIP3    H238712   3.738   4.377   8.579  1.6675 -0.6830 -0.3115
 5693TIP3   OH238713   0.687   6.337   1.132 -0.4561  0.1184 -0.0120
 5693TIP3    H138714   0.778   6.321   1.108 -0.5578  1.1008 -1.1076
 5693TIP3    H238715   0.636   6.283   1.071 -0.6176 -0.7280  0.8453
 5694TIP3   OH238716   4.597   5.384   7.955 -0.0953  0.1718 -0.2582
 5694TIP3    H138717   4.642   5.452   7.905  3.5301 -1.5828  0.2138
 5694TIP3    H238718   4.607   5.305   7.902 -0.0502 -0.8572  1.2134
 5695TIP3   OH238719   3.892   0.862   1.318  0.2523 -0.3781 -0.6079
 5695TIP3    H138720   3.913   0.953   1.302  0.2133 -0.4330 -0.9803
 5695TIP3    H238721   3.863   0.828   1.233 -1.1763 -0.3438 -0.1598
 5696TIP3   OH238722   2.423   1.442   1.797 -0.8529  0.4516 -0.1094
 5696TIP3    H138723   2.353   1.461   1.861 -0.4757  0.0536  0.4358
 5696TIP3    H238724   2.391   1.365   1.750 -1.8885  1.7055 -1.5754
 5697TIP3   OH238725   0.550   2.724   1.360  0.5172 -0.4697  0.3818
 5697TIP3    H138726   0.516   2.708   1.272 -0.7164 -0.0905  0.7829
 5697TIP3    H238727   0.570   2.818   1.361  1.8977 -0.7290  0.0618
 5698TIP3   OH238728   4.284   6.204   8.396  1.0804  0.0609  0.2696
 5698TIP3    H138729   4.338   6.125   8.405  1.1895  0.2767  1.6870
 5698TIP3    H238730   4.211   6.176   8.341  1.4361 -0.8652  0.2477
 5699TIP3   OH238731   3.497   5.920   0.158 -0.6699 -0.2352  0.0626
 5699TIP3    H138732   3.462   5.864   0.089  0.4374  0.6173 -1.2321
 5699TIP3    H238733   3.441   5.902   0.234 -2.6186 -0.3729 -1.3393
 5700TIP3   OH238734   3.885   6.271   0.926 -0.4392  0.2671 -0.2361
 5700TIP3    H138735   3.832   6.216   0.869  1.6501 -1.8575 -0.3071
 5700TIP3    H238736   3.867   6.239   1.015 -0.0527  0.2049 -0.1751
 5701TIP3   OH238737   5.500   1.426   0.230  0.6357  0.2521 -0.2517
 5701TIP3    H138738   5.459   1.477   0.300  0.2449  0.4070 -0.5944
 5701TIP3    H238739   5.553   1.488   0.182 -1.8364  0.9499 -2.2660
 5702TIP3   OH238740   1.143   3.421   6.649 -0.1815 -0.1661  0.1256
 5702TIP3    H138741   1.114   3.506   6.616 -1.1063  0.5995  2.6598
 5702TIP3    H238742   1.161   3.370   6.571 -1.7840  1.6144 -1.5221
 5703TIP3   OH238743   0.832   2.430   1.985 -0.0112 -0.0551 -0.0377
 5703TIP3    H138744   0.866   2.519   1.982 -2.0462  0.8836  1.9046
 5703TIP3    H238745   0.885   2.382   1.922  0.5044  2.7312 -1.9112
 5704TIP3   OH238746   1.247   2.715   0.006  0.2150  0.3135 -0.2145
 5704TIP3    H138747   1.339   2.735   0.024 -0.1246  2.8934 -0.8542
 5704TIP3    H238748   1.198   2.778   0.059 -1.1159  0.2740 -1.3322
 5705TIP3   OH238749   1.643   3.538   8.924 -0.0747  0.5636 -0.4746
 5705TIP3    H138750   1.681   3.624   8.902 -0.9944  0.8454 -1.0057
 5705TIP3    H238751   1.555   3.541   8.888 -0.4134 -0.3012  0.2546
 5706TIP3   OH238752   6.506   6.231   0.585  0.2745 -0.0016 -0.6060
 5706TIP3    H138753   6.429   6.278   0.618  0.1158 -0.1940 -0.7011
 5706TIP3    H238754   6.503   6.243   0.490  1.0006  0.9680 -0.5215
 5707TIP3   OH238755   1.746   5.089   0.268  0.2879 -0.4999 -0.7435
 5707TIP3    H138756   1.783   5.177   0.273  0.3887 -0.5698 -0.2902
 5707TIP3    H238757   1.657   5.103   0.237 -0.0190 -0.1556  0.2551
 5708TIP3   OH238758   6.572   1.955   0.523  0.5890 -0.0523  0.2306
 5708TIP3    H138759   6.637   2.024   0.530  0.9373 -0.3910  0.3744
 5708TIP3    H238760   6.512   1.985   0.455  0.7017  0.4154  0.3340
 5709TIP3   OH238761   6.201   5.874   1.590 -0.1824 -0.1843  0.5052
 5709TIP3    H138762   6.213   5.830   1.506 -2.5833 -1.2112  0.6400
 5709TIP3    H238763   6.279   5.930   1.599  1.9239 -2.7213 -0.6870
 5710TIP3   OH238764   1.723   1.417   8.266  0.4351 -0.1028  0.0114
 5710TIP3    H138765   1.687   1.384   8.349 -0.7433 -0.6169 -0.6737
 5710TIP3    H238766   1.652   1.470   8.228  1.0327  0.2924 -0.5755
 5711TIP3   OH238767   2.850   4.023   2.564 -0.0685 -0.3277 -0.0242
 5711TIP3    H138768   2.855   3.928   2.558  0.8469 -0.3092  0.2786
 5711TIP3    H238769   2.898   4.055   2.488  1.4425 -0.1151  0.9927
 5712TIP3   OH238770   4.265   0.323   7.355 -0.3353  0.1105 -0.8939
 5712TIP3    H138771   4.238   0.412   7.333 -1.7196 -0.0483  0.0385
 5712TIP3    H238772   4.309   0.331   7.440 -3.4151 -0.4277  0.9153
 5713TIP3   OH238773   1.548   4.732   1.045  0.3365  0.3296  0.6884
 5713TIP3    H138774   1.474   4.783   1.075 -0.8032  0.7050 -2.4275
 5713TIP3    H238775   1.586   4.783   0.974  1.7492 -1.2294  0.2433
 5714TIP3   OH238776   6.408   2.891   8.777 -0.1136  0.0304 -0.0258
 5714TIP3    H138777   6.423   2.968   8.721 -0.3109  0.9407  1.1269
 5714TIP3    H238778   6.318   2.865   8.757  0.4361 -0.8572 -1.5140
 5715TIP3   OH238779   1.099   3.290   6.384  0.7725 -0.2839 -0.0966
 5715TIP3    H138780   1.179   3.242   6.362  0.0984 -1.1780 -0.6657
 5715TIP3    H238781   1.066   3.322   6.300  1.1105  1.0381  0.2579
 5716TIP3   OH238782   5.733   4.294   6.839 -0.4481  0.1603 -0.1273
 5716TIP3    H138783   5.673   4.366   6.816 -0.0523  0.0644 -1.5638
 5716TIP3    H238784   5.740   4.242   6.759  0.9242 -0.2850  0.2532
 5717TIP3   OH238785   2.217   3.863   0.011 -0.5221  0.0046  0.1897
 5717TIP3    H138786   2.269   3.787  -0.017  0.7325  0.4069  1.3607
 5717TIP3    H238787   2.197   3.846   0.103  0.1552  1.2928  0.5967
 5718TIP3   OH238788   0.777   4.999   0.315  0.5197 -0.3696  0.2293
 5718TIP3    H138789   0.805   4.917   0.274  1.8026  0.3533 -0.3900
 5718TIP3    H238790   0.753   5.056   0.241 -0.4648 -0.1969  0.6579
 5719TIP3   OH238791   2.691   0.604   8.529  0.1701 -0.6596 -0.2180
 5719TIP3    H138792   2.668   0.689   8.567  1.0989  0.2149 -1.5222
 5719TIP3    H238793   2.737   0.557   8.598 -0.0886  0.0140  0.4194
 5720TIP3   OH238794   5.420   2.836   7.161  0.2817  0.2661 -0.2006
 5720TIP3    H138795   5.490   2.900   7.177 -0.2244  1.2041 -1.5180
 5720TIP3    H238796   5.340   2.881   7.190 -0.2402  0.7697 -2.2726
 5721TIP3   OH238797   4.059   6.441   1.805  0.0656 -0.4095 -0.6724
 5721TIP3    H138798   4.059   6.489   1.888 -1.8121 -1.9718  0.3253
 5721TIP3    H238799   3.974   6.460   1.766  0.7359 -0.0858 -2.0292
 5722TIP3   OH238800   4.301   6.442   8.304 -0.0248 -0.5864 -0.4912
 5722TIP3    H138801   4.212   6.468   8.327  0.4959 -0.3745  1.4885
 5722TIP3    H238802   4.308   6.352   8.334  1.0577  0.0845  1.4484
 5723TIP3   OH238803   5.753   4.724   1.612  0.2533  0.2804 -0.3518
 5723TIP3    H138804   5.684   4.660   1.595 -0.9442  1.5594 -0.5169
 5723TIP3    H238805   5.762   4.726   1.707 -0.4257  0.5807 -0.2891
 5724TIP3   OH238806   2.407   0.302   1.429 -0.1825 -0.3636 -0.1921
 5724TIP3    H138807   2.377   0.229   1.375 -0.0451 -1.0478  0.6299
 5724TIP3    H238808   2.479   0.341   1.380 -0.5818 -0.4593 -0.8716
 5725TIP3   OH238809   2.046   1.732   7.223  0.3656 -0.1079 -0.1039
 5725TIP3    H138810   1.970   1.702   7.273  0.9218 -0.1035  0.7819
 5725TIP3    H238811   2.009   1.788   7.154 -0.3804  0.6463  0.8694
 5726TIP3   OH238812   1.881   5.307   6.239  0.5809 -0.5225  0.6509
 5726TIP3    H138813   1.882   5.218   6.203 -1.3492 -0.1287 -0.5481
 5726TIP3    H238814   1.842   5.297   6.326  1.0122 -0.9263  0.8012
 5727TIP3   OH238815   5.800   3.461   2.197  0.0353  0.5437  0.0588
 5727TIP3    H138816   5.772   3.472   2.287  1.4342 -0.0740  0.5909
 5727TIP3    H238817   5.749   3.387   2.164  0.5252 -0.1386  0.8014
 5728TIP3   OH238818   4.743   4.538   1.331  0.6066  0.2648 -0.3054
 5728TIP3    H138819   4.691   4.468   1.371  1.5330 -0.6368 -0.6368
 5728TIP3    H238820   4.833   4.516   1.354  0.8195  2.3794  1.1754
 5729TIP3   OH238821   6.010   3.725   6.565  0.2354  0.2391  0.0393
 5729TIP3    H138822   6.070   3.799   6.564 -0.5680  0.9245  0.8503
 5729TIP3    H238823   6.065   3.649   6.585  0.9610  0.7111 -0.1284
 5730TIP3   OH238824   4.189   2.408   1.564 -0.6868  0.0139  0.3568
 5730TIP3    H138825   4.197   2.339   1.630 -1.1609 -1.4329 -1.0403
 5730TIP3    H238826   4.206   2.489   1.612  1.0675 -1.1453  1.8226
 5731TIP3   OH238827   0.407   1.851   8.489  0.3456 -0.6553 -0.3295
 5731TIP3    H138828   0.443   1.763   8.498  2.2129 -0.2596 -2.7806
 5731TIP3    H238829   0.349   1.846   8.413 -1.4983 -0.2627  0.9804
 5732TIP3   OH238830   3.844   1.134   7.658  0.3385  0.3554 -0.2440
 5732TIP3    H138831   3.855   1.114   7.565 -0.0816 -0.7650 -0.0747
 5732TIP3    H238832   3.904   1.074   7.702  1.8794  2.1131  0.1495
 5733TIP3   OH238833   5.233   5.767   8.697 -0.1861 -0.4466 -0.3441
 5733TIP3    H138834   5.149   5.788   8.657  0.6804 -0.6392 -2.3883
 5733TIP3    H238835   5.298   5.811   8.642  1.1272 -1.3924  0.3827
 5734TIP3   OH238836   3.384   3.365   8.049 -0.5806  0.3541  0.2244
 5734TIP3    H138837   3.444   3.393   8.119 -0.1376 -2.6429  1.2062
 5734TIP3    H238838   3.297   3.385   8.083 -0.2799  1.1751  0.5360
 5735TIP3   OH238839   4.792   5.947   7.060 -0.5705  0.3096  0.3949
 5735TIP3    H138840   4.711   5.906   7.092  1.0816 -2.4474  1.3943
 5735TIP3    H238841   4.769   5.982   6.974 -3.2479  1.2696  1.3844
 5736TIP3   OH238842   4.928   6.141   8.833  0.0802  0.4078  0.2687
 5736TIP3    H138843   5.008   6.123   8.782  0.1304 -1.8166  1.0248
 5736TIP3    H238844   4.931   6.078   8.905 -1.7921  1.0729  0.9817
 5737TIP3   OH238845   2.632   0.981   1.144  0.1683 -0.4984 -0.4041
 5737TIP3    H138846   2.648   0.895   1.107  0.1985 -1.2321  1.2237
 5737TIP3    H238847   2.650   1.042   1.072 -0.8639 -1.8710 -1.8940
 5738TIP3   OH238848   2.640   2.296   6.755  0.2408  0.7652  0.2993
 5738TIP3    H138849   2.733   2.320   6.751  0.4206 -0.0461 -0.7541
 5738TIP3    H238850   2.614   2.319   6.844  1.8015 -0.2218  1.0740
 5739TIP3   OH238851   5.649   0.883   8.125  1.1055 -0.4263  0.4081
 5739TIP3    H138852   5.598   0.823   8.071  0.8345 -1.2006  1.4974
 5739TIP3    H238853   5.697   0.938   8.062 -0.9268  0.2246 -0.6435
 5740TIP3   OH238854   3.360   5.249   0.577  0.0560 -0.4279 -0.3246
 5740TIP3    H138855   3.454   5.236   0.586  0.2148 -1.0441 -2.3203
 5740TIP3    H238856   3.347   5.264   0.483 -1.6452  1.3880  0.1225
 5741TIP3   OH238857   2.363   0.672   0.634  0.4138  0.3347  0.5271
 5741TIP3    H138858   2.386   0.715   0.716 -1.7655  0.5097  1.1273
 5741TIP3    H238859   2.292   0.612   0.659  0.6713 -0.6404 -0.9940
 5742TIP3   OH238860   0.622   3.378   0.422 -0.0500  0.4216  0.1445
 5742TIP3    H138861   0.669   3.297   0.404  1.0208  1.1682 -0.5957
 5742TIP3    H238862   0.676   3.446   0.382 -2.2360  1.2511 -1.6741
 5743TIP3   OH238863   5.908   1.125   7.431 -0.3587  0.2673 -0.1127
 5743TIP3    H138864   5.925   1.031   7.426  1.6253  0.5141  0.8977
 5743TIP3    H238865   5.883   1.149   7.342 -0.6561 -1.1657 -0.4414
 5744TIP3   OH238866   6.098   2.845   8.161  0.7752 -0.4387 -0.1255
 5744TIP3    H138867   6.148   2.789   8.102 -0.7611 -1.0840 -0.8625
 5744TIP3    H238868   6.150   2.926   8.167  1.9808 -1.1463 -0.6911
 5745TIP3   OH238869   4.834   3.366   1.803  0.2708  0.0431  0.0365
 5745TIP3    H138870   4.797   3.368   1.891  1.5797  0.1402  0.6058
 5745TIP3    H238871   4.825   3.275   1.775 -0.7827  0.1544 -0.0262
 5746TIP3   OH238872   4.382   3.813   8.459  0.6690  0.0316  0.3726
 5746TIP3    H138873   4.335   3.820   8.376 -0.6531 -2.3968  0.8221
 5746TIP3    H238874   4.343   3.882   8.514 -1.1191 -0.7187  0.1247
 5747TIP3   OH238875   2.417   6.594   7.383 -0.0564  0.5223 -0.3944
 5747TIP3    H138876   2.335   6.623   7.424  0.2982  0.2290  0.5382
 5747TIP3    H238877   2.454   6.675   7.346 -0.2539  0.8366  0.0853
 5748TIP3   OH238878   0.339   5.403   2.313  0.5419 -0.0113  0.0028
 5748TIP3    H138879   0.360   5.375   2.402  1.1355  1.3659  0.3150
 5748TIP3    H238880   0.347   5.323   2.260  0.4686 -0.7783  1.1308
 5749TIP3   OH238881   5.202   1.869   7.741  0.7890  0.0659  0.1301
 5749TIP3    H138882   5.216   1.960   7.715 -0.2668 -0.1239 -1.2344
 5749TIP3    H238883   5.281   1.846   7.791  1.3955  1.5019 -0.1057
 5750TIP3   OH238884   3.433   1.532   6.485  0.4725  0.0009  0.2045
 5750TIP3    H138885   3.346   1.556   6.454  1.4039  2.8452 -0.5473
 5750TIP3    H238886   3.439   1.571   6.572  1.4186  1.0178 -0.2901
 5751TIP3   OH238887   6.125   3.561   0.897  0.2712 -0.2525 -0.7902
 5751TIP3    H138888   6.046   3.507   0.887  0.4503 -0.6975  0.1043
 5751TIP3    H238889   6.092   3.651   0.898 -0.0221 -0.3138 -2.3534
 5752TIP3   OH238890   3.609   3.453   1.391  0.0549 -0.2609 -0.0830
 5752TIP3    H138891   3.680   3.398   1.427  0.6603  0.7370  0.2948
 5752TIP3    H238892   3.530   3.419   1.433  0.4938 -0.4641  0.6163
 5753TIP3   OH238893   0.512   1.056   1.709 -0.1496  0.4693  0.3081
 5753TIP3    H138894   0.489   1.075   1.800  0.6474 -0.9929  0.8465
 5753TIP3    H238895   0.431   1.022   1.671 -0.4394  0.9092  0.5212
 5754TIP3   OH238896   2.473   5.652   8.416 -0.6284  0.2640  0.3695
 5754TIP3    H138897   2.381   5.650   8.391 -0.2593 -0.9939 -1.0312
 5754TIP3    H238898   2.519   5.677   8.336  0.4670 -2.1990  0.1460
 5755TIP3   OH238899   3.724   6.251   0.640  0.1459  0.3701 -0.0181
 5755TIP3    H138900   3.665   6.314   0.680 -1.1407 -0.1065 -1.1059
 5755TIP3    H238901   3.718   6.267   0.546  0.3118 -0.9077 -0.2713
 5756TIP3   OH238902   2.363   3.311   7.507 -0.1945  0.1075 -0.1347
 5756TIP3    H138903   2.392   3.222   7.529  0.1857  0.2668  0.0045
 5756TIP3    H238904   2.441   3.354   7.473 -0.0192  0.8451  1.1462
 5757TIP3   OH238905   6.746   2.171   7.684  0.4729 -0.2326  0.7473
 5757TIP3    H138906   6.655   2.147   7.703  0.2378  0.3076  0.3095
 5757TIP3    H238907   6.764   2.132   7.598  0.6766 -0.3795  0.8528
 5758TIP3   OH238908   3.398   5.636   2.129  0.0873 -0.1323  0.2041
 5758TIP3    H138909   3.485   5.629   2.169  0.8126  0.3063 -1.2404
 5758TIP3    H238910   3.354   5.705   2.179  1.5867  1.6257 -0.8041
 5759TIP3   OH238911   2.961   0.429   2.265 -0.1599  0.1218  0.0913
 5759TIP3    H138912   2.941   0.434   2.171  3.1983  2.1616 -0.6836
 5759TIP3    H238913   2.944   0.518   2.297 -0.7856 -0.4331  1.3475
 5760TIP3   OH238914   2.623   5.109   0.739  0.0110 -0.5046 -0.3882
 5760TIP3    H138915   2.655   5.025   0.706 -1.5553 -1.1163 -0.4356
 5760TIP3    H238916   2.678   5.175   0.695  0.7967 -1.4645 -0.8832
 5761TIP3   OH238917   1.550   1.723   0.824 -0.6555  0.8358 -0.5839
 5761TIP3    H138918   1.465   1.680   0.817 -0.0928 -0.0731 -2.3372
 5761TIP3    H238919   1.562   1.767   0.740  0.5657  1.0436 -0.3161
 5762TIP3   OH238920   1.111   5.512   8.895  0.5400  0.5613  0.1524
 5762TIP3    H138921   1.109   5.591   8.841  1.6639  0.2915 -0.3199
 5762TIP3    H238922   1.198   5.475   8.879 -0.1151 -0.9885  0.0515
 5763TIP3   OH238923   5.178   2.856   1.205 -0.2598  0.4952 -0.0307
 5763TIP3    H138924   5.265   2.888   1.229 -0.4444 -0.6448  2.5193
 5763TIP3    H238925   5.190   2.762   1.192 -1.1538  0.2447  0.8061
 5764TIP3   OH238926   0.730   0.397   8.789  0.7847  0.3770 -0.0712
 5764TIP3    H138927   0.802   0.438   8.837  0.3917  1.7371 -0.6146
 5764TIP3    H238928   0.711   0.317   8.839  1.0627  1.2271  1.4539
 5765TIP3   OH238929   5.815   2.016   1.960 -0.2489 -0.1189 -0.6085
 5765TIP3    H138930   5.770   2.092   1.924  0.7024  0.6155 -0.3043
 5765TIP3    H238931   5.846   1.967   1.883  0.4464  0.6219 -0.8138
 5766TIP3   OH238932   2.875   1.754   7.552 -0.1325  0.5052 -0.5067
 5766TIP3    H138933   2.862   1.676   7.499 -0.9740 -0.0049  0.4242
 5766TIP3    H238934   2.801   1.810   7.532  0.2546  0.8967 -0.8667
 5767TIP3   OH238935   2.892   1.432   8.032  0.2841 -0.1844  0.3975
 5767TIP3    H138936   2.925   1.428   8.122  2.4596 -0.6874 -0.3581
 5767TIP3    H238937   2.898   1.342   8.000  0.7966  0.1984 -0.6384
 5768TIP3   OH238938   5.811   1.003   0.915  0.3992  0.2514  0.4584
 5768TIP3    H138939   5.847   1.050   0.991 -0.6180  1.9157 -0.0437
 5768TIP3    H238940   5.716   1.004   0.929  0.2109  0.4573 -0.7421
 5769TIP3   OH238941   3.215   2.001   0.036  0.2369  0.1707 -0.2970
 5769TIP3    H138942   3.165   2.067  -0.012 -1.3761 -0.4865  0.4059
 5769TIP3    H238943   3.243   2.045   0.115 -0.3833  0.1783 -0.0774
 5770TIP3   OH238944   0.420   4.489   8.096  0.4304  0.5698 -0.7730
 5770TIP3    H138945   0.413   4.407   8.144 -1.7178 -0.2101 -2.2480
 5770TIP3    H238946   0.470   4.547   8.153  1.0681 -1.4043  0.7744
 5771TIP3   OH238947   2.745   4.822   7.095 -0.0485 -0.1526  0.1351
 5771TIP3    H138948   2.665   4.769   7.094 -0.8832  0.9168  2.6297
 5771TIP3    H238949   2.788   4.799   7.177  0.0529  2.2798  0.8350
 5772TIP3   OH238950   4.619   3.672   7.811  0.5902  0.3086 -0.2933
 5772TIP3    H138951   4.650   3.648   7.724 -1.2620 -1.6218 -0.5092
 5772TIP3    H238952   4.530   3.636   7.815  0.9748 -0.5441  2.7314
 5773TIP3   OH238953   4.573   6.745   0.165  0.0601 -0.1769 -0.2536
 5773TIP3    H138954   4.557   6.787   0.081  0.9185 -1.4329 -1.0898
 5773TIP3    H238955   4.643   6.797   0.205  0.2451 -0.0660 -0.7090
 5774TIP3   OH238956   5.328   4.298   0.081  0.1425 -0.3446  0.3482
 5774TIP3    H138957   5.360   4.377   0.036  2.0639  0.0026  2.1693
 5774TIP3    H238958   5.383   4.228   0.047  0.8303 -0.2730  1.2906
 5775TIP3   OH238959   0.763   5.885   8.711 -0.2188 -0.1298 -0.1302
 5775TIP3    H138960   0.755   5.802   8.757 -0.8254  0.0291  0.0689
 5775TIP3    H238961   0.802   5.863   8.627  0.7171 -0.4515  0.3793
 5776TIP3   OH238962   5.431   3.260   1.592 -0.4657 -0.1261 -0.1464
 5776TIP3    H138963   5.432   3.354   1.571  0.6775 -0.1863 -0.4137
 5776TIP3    H238964   5.487   3.252   1.668  1.1311 -0.8412 -1.3425
 5777TIP3   OH238965   2.646   3.573   2.154  0.3174  0.7582 -0.4758
 5777TIP3    H138966   2.705   3.534   2.090  0.9705 -0.6531  0.9161
 5777TIP3    H238967   2.560   3.573   2.111  0.6069 -0.7637 -1.1179
 5778TIP3   OH238968   5.192   5.523   1.925 -0.6890  0.0389 -0.0424
 5778TIP3    H138969   5.109   5.501   1.882 -0.7858  1.0697 -0.4091
 5778TIP3    H238970   5.245   5.443   1.918 -1.4256 -0.4269 -0.3473
 5779TIP3   OH238971   2.291   3.401   1.400 -0.3104 -0.0709 -0.0144
 5779TIP3    H138972   2.280   3.331   1.336 -1.4388  0.9789 -1.0187
 5779TIP3    H238973   2.286   3.481   1.349 -0.1394  0.7699  1.2515
 5780TIP3   OH238974   0.161   6.338   0.900 -0.1910  0.3602  0.0712
 5780TIP3    H138975   0.116   6.260   0.934 -1.6028  1.2335  0.2798
 5780TIP3    H238976   0.168   6.396   0.976 -0.4929  1.0447 -0.4213
 5781TIP3   OH238977   5.003   4.714   0.609  0.2122 -0.1275  0.0317
 5781TIP3    H138978   5.037   4.793   0.567  1.1475 -1.4959 -1.9212
 5781TIP3    H238979   5.016   4.729   0.702 -0.9518  2.5912 -0.1426
 5782TIP3   OH238980   5.058   4.536   8.379  0.1629 -0.1880  0.9465
 5782TIP3    H138981   4.965   4.523   8.397  0.3628 -3.0417  0.4672
 5782TIP3    H238982   5.101   4.516   8.462  0.4024 -0.5619  0.7369
 5783TIP3   OH238983   0.873   5.429   0.347  0.3821  0.6469 -0.3908
 5783TIP3    H138984   0.916   5.406   0.264  3.2967  1.4826  0.7575
 5783TIP3    H238985   0.903   5.517   0.367 -2.0450  1.3470  0.5249
 5784TIP3   OH238986   0.510   5.958   1.586  0.2034  0.4356 -0.0102
 5784TIP3    H138987   0.585   5.898   1.583 -0.5570 -0.5570  0.1571
 5784TIP3    H238988   0.483   5.967   1.495 -2.7789 -3.5997  0.1997
 5785TIP3   OH238989   0.742   6.771   7.113  0.1755  0.2227  0.1008
 5785TIP3    H138990   0.815   6.806   7.062 -0.7110 -0.0560 -1.4064
 5785TIP3    H238991   0.673   6.755   7.049 -0.8239 -0.5774  1.3284
 5786TIP3   OH238992   0.249   2.784   8.798 -0.3298 -0.4140 -0.4313
 5786TIP3    H138993   0.208   2.701   8.823 -0.1478 -0.5550 -0.5937
 5786TIP3    H238994   0.246   2.838   8.877 -0.1901 -0.6805 -0.2444
 5787TIP3   OH238995   4.718   5.647   7.214  0.4177 -0.5152  0.3919
 5787TIP3    H138996   4.730   5.711   7.284  2.2838  0.8711 -1.0718
 5787TIP3    H238997   4.626   5.656   7.189  0.4398  1.0638  0.7484
 5788TIP3   OH238998   0.809   1.949   6.328  0.0213  0.2888  0.2356
 5788TIP3    H138999   0.733   1.924   6.276 -1.0459 -1.5435  2.4999
 5788TIP3    H239000   0.779   2.024   6.380  1.5553  3.1515 -2.6474
 5789TIP3   OH239001   2.774   0.179   7.984 -0.2411 -0.3202  0.0086
 5789TIP3    H139002   2.741   0.120   8.053  0.4103 -0.3538  0.2956
 5789TIP3    H239003   2.766   0.266   8.021  0.6358 -0.3767  0.3608
 5790TIP3   OH239004   5.134   2.073   1.005 -0.3352  0.3321  0.8083
 5790TIP3    H139005   5.090   2.150   0.969  2.2752  1.0020 -1.2723
 5790TIP3    H239006   5.086   1.999   0.967  0.5283  1.0278 -1.9062
 5791TIP3   OH239007   4.525   3.964   2.576 -0.1894  0.0605  0.0286
 5791TIP3    H139008   4.465   3.891   2.588 -0.2620 -0.2303 -1.8473
 5791TIP3    H239009   4.469   4.038   2.551  0.0558  0.2556  0.0432
 5792TIP3   OH239010   2.644   2.627   7.660 -0.6300  0.0067  0.2625
 5792TIP3    H139011   2.615   2.603   7.748 -3.7228  1.3552 -0.2234
 5792TIP3    H239012   2.568   2.607   7.605  0.8408  0.2142 -1.9289
 5793TIP3   OH239013   6.505   1.027   0.927 -0.3716  0.2043 -0.2864
 5793TIP3    H139014   6.569   1.057   0.992 -1.0759 -0.8309  0.9370
 5793TIP3    H239015   6.429   1.083   0.941  0.9478  3.0725 -3.3455
 5794TIP3   OH239016   1.880   0.234   0.292  0.5653  0.2339  0.1679
 5794TIP3    H139017   1.939   0.183   0.349 -0.2126  1.3686  2.0742
 5794TIP3    H239018   1.937   0.301   0.253  1.0910 -0.5108 -0.3902
 5795TIP3   OH239019   4.339   1.619   7.380 -0.4192  0.0704 -0.0138
 5795TIP3    H139020   4.414   1.663   7.419 -0.9078 -0.2383  1.3201
 5795TIP3    H239021   4.351   1.630   7.286  1.1632  0.2265  0.1844
 5796TIP3   OH239022   3.833   5.710   1.286 -0.9854  0.0961  0.0288
 5796TIP3    H139023   3.772   5.754   1.228 -0.9933  0.5653  0.3869
 5796TIP3    H239024   3.811   5.617   1.278 -0.8048  0.1260 -0.9152
 5797TIP3   OH239025   6.619   2.157   2.419  0.7228  0.4878 -0.4245
 5797TIP3    H139026   6.646   2.136   2.330 -2.5929  0.4848 -1.5747
 5797TIP3    H239027   6.571   2.080   2.449  0.6646  0.9985  0.8623
 5798TIP3   OH239028   4.553   5.435   0.647  0.0636  0.0816  0.5980
 5798TIP3    H139029   4.515   5.476   0.570 -2.6716 -0.6086  1.4755
 5798TIP3    H239030   4.533   5.342   0.637  1.5116 -0.3176  1.1715
 5799TIP3   OH239031   0.435   5.134   1.613  0.0982  0.1881  0.0286
 5799TIP3    H139032   0.493   5.083   1.669 -0.6196  0.9260  1.4989
 5799TIP3    H239033   0.347   5.110   1.640 -0.2660  2.4259  1.0544
 5800TIP3   OH239034   5.472   1.272   0.788 -0.2750  0.0224  0.1838
 5800TIP3    H139035   5.486   1.207   0.720 -0.6288 -1.7645  1.7368
 5800TIP3    H239036   5.559   1.307   0.806 -0.1347  0.2831 -0.9355
 5801TIP3   OH239037   2.115   2.424   0.305 -0.2636  0.2283 -0.1522
 5801TIP3    H139038   2.070   2.438   0.388 -0.4260  1.8342 -0.4790
 5801TIP3    H239039   2.060   2.465   0.239  0.1508 -0.5132 -1.0009
 5802TIP3   OH239040   0.675   0.300   8.538 -0.3046  0.5305 -0.1934
 5802TIP3    H139041   0.754   0.294   8.485 -1.0838  3.7402 -1.9624
 5802TIP3    H239042   0.704   0.336   8.622  0.2369  0.4288 -0.3364
 5803TIP3   OH239043   3.368   0.867   0.346 -0.3883 -0.1498  0.1057
 5803TIP3    H139044   3.395   0.790   0.294  2.4420  1.0637 -0.4027
 5803TIP3    H239045   3.387   0.842   0.436 -1.9712 -0.9569  0.2517
 5804TIP3   OH239046   3.212   4.106   1.008  0.0431 -0.2692  0.5316
 5804TIP3    H139047   3.231   4.049   1.083 -0.2253 -0.9970  0.0553
 5804TIP3    H239048   3.153   4.055   0.953  0.9403 -0.0957 -0.6292
 5805TIP3   OH239049   2.983   0.160   8.807  0.5162  0.1159  0.1511
 5805TIP3    H139050   3.013   0.177   8.718  3.8400 -1.0922  0.9102
 5805TIP3    H239051   2.966   0.247   8.843  3.3751  0.9946 -0.3834
 5806TIP3   OH239052   3.716   2.052   8.834 -0.1386 -0.7798  0.1952
 5806TIP3    H139053   3.647   1.993   8.804 -0.3804 -0.7448  0.6657
 5806TIP3    H239054   3.778   1.994   8.879  1.9031 -1.3627 -3.0284
 5807TIP3   OH239055   4.723   0.593   1.816  0.4175 -0.6476  0.0872
 5807TIP3    H139056   4.722   0.526   1.884 -2.2173 -3.1949 -2.1849
 5807TIP3    H239057   4.632   0.602   1.789  1.1539  1.2453 -2.1993
 5808TIP3   OH239058   4.755   2.399   1.628  0.2591  0.3503  0.0686
 5808TIP3    H139059   4.735   2.308   1.654 -0.0704  0.5010  0.3621
 5808TIP3    H239060   4.824   2.426   1.689 -0.1879  0.5494  0.4972
 5809TIP3   OH239061   0.229   5.046   0.196 -0.6772 -0.4989  0.4216
 5809TIP3    H139062   0.234   5.018   0.288 -1.1619  0.1504  0.6537
 5809TIP3    H239063   0.172   4.982   0.154 -1.9604  0.2138  0.9998
 5810TIP3   OH239064   2.524   5.487   8.640  0.3362 -0.6914  0.2916
 5810TIP3    H139065   2.433   5.458   8.643  0.3876 -1.1837 -1.5252
 5810TIP3    H239066   2.531   5.537   8.559  2.4654 -3.7607 -1.6309
 5811TIP3   OH239067   5.568   2.602   0.417 -0.3990  0.1307  0.2678
 5811TIP3    H139068   5.486   2.650   0.433 -0.6346 -0.7187  1.7778
 5811TIP3    H239069   5.568   2.532   0.482  0.8179 -0.8195 -0.6998
 5812TIP3   OH239070   0.637   3.206   7.624 -0.1440  0.1221  0.5349
 5812TIP3    H139071   0.724   3.246   7.627  0.3248 -0.8909  0.9902
 5812TIP3    H239072   0.592   3.252   7.553  0.2974  1.5670  1.1503
 5813TIP3   OH239073   5.120   4.394   0.562 -1.0597  0.1589 -0.0949
 5813TIP3    H139074   5.029   4.409   0.537 -0.8249 -0.2360 -1.2452
 5813TIP3    H239075   5.166   4.473   0.536 -1.0495  0.3117  0.3805
 5814TIP3   OH239076   4.227   3.364   0.828  0.0246  0.0345  0.5490
 5814TIP3    H139077   4.212   3.452   0.864 -0.0609  0.1635  0.1984
 5814TIP3    H239078   4.297   3.375   0.764 -1.0867  0.1601 -0.6948
 5815TIP3   OH239079   4.221   0.573   8.642 -0.6452 -0.0410  0.0503
 5815TIP3    H139080   4.307   0.613   8.653 -0.1481 -1.3073  0.8898
 5815TIP3    H239081   4.239   0.480   8.629 -1.9260 -0.4609  1.0982
 5816TIP3   OH239082   4.674   2.796   6.256  0.4168 -0.6722  0.5596
 5816TIP3    H139083   4.673   2.883   6.217  0.8925 -0.4742  0.9752
 5816TIP3    H239084   4.629   2.740   6.193  0.2564 -0.1580  0.2151
 5817TIP3   OH239085   0.581   2.850   8.039  0.4749 -0.1369  0.2345
 5817TIP3    H139086   0.540   2.929   8.007  0.6579  0.0467  0.4468
 5817TIP3    H239087   0.671   2.876   8.058  0.1272  0.0035  1.7992
 5818TIP3   OH239088   4.205   6.712   2.237 -0.7206  0.0918 -0.7042
 5818TIP3    H139089   4.253   6.676   2.311 -0.3444 -0.9884 -1.4490
 5818TIP3    H239090   4.249   6.794   2.217 -0.4993  0.1334 -0.0604
 5819TIP3   OH239091   6.153   5.092   7.770 -0.5434 -0.2972  0.1902
 5819TIP3    H139092   6.232   5.088   7.824  0.8455  0.4490 -1.6587
 5819TIP3    H239093   6.137   5.186   7.759 -0.3066 -0.4054 -1.2973
 5820TIP3   OH239094   4.358   5.962   6.934 -0.0020  1.1775  0.1763
 5820TIP3    H139095   4.326   6.048   6.960  0.6539  1.9716 -1.4883
 5820TIP3    H239096   4.334   5.954   6.842  0.6226 -0.1031  0.0924
 5821TIP3   OH239097   2.352   5.558   1.295  0.8086 -0.2007  0.4125
 5821TIP3    H139098   2.326   5.622   1.229 -0.5477  0.4905  1.5573
 5821TIP3    H239099   2.425   5.511   1.256  0.7624  0.9374 -1.1197
 5822TIP3   OH239100   3.219   3.279   2.499 -0.8369 -0.1908 -0.3395
 5822TIP3    H139101   3.279   3.353   2.507  1.4419 -2.0613  1.5063
 5822TIP3    H239102   3.150   3.297   2.563 -0.9243  0.8433 -0.7065
 5823TIP3   OH239103   3.167   3.094   1.003 -0.1234  0.3799 -0.0421
 5823TIP3    H139104   3.203   3.060   1.086  0.0258 -1.1036 -0.6827
 5823TIP3    H239105   3.090   3.145   1.030 -1.5608 -2.0909  0.9086
 5824TIP3   OH239106   4.280   2.691   0.766  0.3658 -0.4270 -0.3549
 5824TIP3    H139107   4.247   2.771   0.726 -1.4499 -0.0940  1.6421
 5824TIP3    H239108   4.234   2.621   0.719 -0.2867 -0.1325 -0.1754
 5825TIP3   OH239109   0.918   4.227   7.466  0.2239  0.4834 -0.5535
 5825TIP3    H139110   0.974   4.258   7.538 -0.6455  1.7616 -0.3948
 5825TIP3    H239111   0.980   4.194   7.400  1.5475  4.7938 -1.8148
 5826TIP3   OH239112   4.817   6.518   0.090 -0.8824  0.2747 -0.0528
 5826TIP3    H139113   4.765   6.556   0.161 -0.5127 -0.0190  0.3871
 5826TIP3    H239114   4.791   6.426   0.087 -1.2044  0.3824 -0.5847
 5827TIP3   OH239115   0.436   1.048   0.829  0.1378 -0.1402  0.9022
 5827TIP3    H139116   0.527   1.064   0.804 -0.4745 -0.5608 -1.8434
 5827TIP3    H239117   0.441   0.972   0.888  1.4598 -1.1678 -0.4674
 5828TIP3   OH239118   4.232   0.642   7.404  0.1220  0.5535 -0.0464
 5828TIP3    H139119   4.255   0.735   7.401  0.0330  0.5651 -0.3993
 5828TIP3    H239120   4.143   0.640   7.440  0.2746  0.5759  0.3409
 5829TIP3   OH239121   2.155   1.586   1.667 -0.2591  0.3920 -0.1001
 5829TIP3    H139122   2.160   1.679   1.685  0.7213  0.4347 -0.5323
 5829TIP3    H239123   2.099   1.551   1.737  0.1100  1.1563  0.5924
 5830TIP3   OH239124   5.750   4.947   1.139 -0.6291  0.2996  0.1099
 5830TIP3    H139125   5.764   4.884   1.210  1.4838 -0.9665 -1.3014
 5830TIP3    H239126   5.679   4.910   1.087 -0.2764 -0.2484  0.0138
 5831TIP3   OH239127   6.750   6.487   0.457  0.5934  0.1828  0.3127
 5831TIP3    H139128   6.728   6.471   0.548  2.4092 -0.3651  0.7093
 5831TIP3    H239129   6.751   6.400   0.417 -0.9798  0.4920 -0.4503
 5832TIP3   OH239130   4.807   3.145   0.435 -0.3996  1.2747  0.1269
 5832TIP3    H139131   4.899   3.137   0.410 -0.5168  0.3260 -0.0177
 5832TIP3    H239132   4.806   3.132   0.530 -0.4954  0.2649 -0.0032
 5833TIP3   OH239133   4.129   2.366   7.686  0.0827 -0.2671  0.4600
 5833TIP3    H139134   4.040   2.397   7.707 -0.6781 -2.7968  1.3789
 5833TIP3    H239135   4.174   2.365   7.771  0.1632 -1.2788  0.4239
 5834TIP3   OH239136   2.355   3.795   0.553  0.3301 -0.0773 -0.5026
 5834TIP3    H139137   2.376   3.706   0.522  1.2867  0.0075 -0.1485
 5834TIP3    H239138   2.308   3.781   0.635  0.7998 -0.2661 -0.2568
 5835TIP3   OH239139   3.472   2.324   0.977 -0.2743  0.2986  0.0495
 5835TIP3    H139140   3.453   2.309   0.885 -3.2564 -0.7651  0.7242
 5835TIP3    H239141   3.508   2.241   1.008  0.8885  0.7096 -0.1577
 5836TIP3   OH239142   1.369   4.798   0.365 -0.0536  0.3709  0.5019
 5836TIP3    H139143   1.391   4.828   0.453  0.4078  0.1822  0.4541
 5836TIP3    H239144   1.303   4.860   0.334  0.5205  1.0301  0.5907
 5837TIP3   OH239145   2.159   3.634   2.096 -0.0030 -0.0764  0.1302
 5837TIP3    H139146   2.093   3.598   2.155  0.1909 -0.0928  0.3380
 5837TIP3    H239147   2.109   3.662   2.019 -0.1091 -1.1750 -0.2205
 5838TIP3   OH239148   5.165   4.420   7.715  0.3350  0.1206 -0.1196
 5838TIP3    H139149   5.090   4.372   7.680 -0.4740  1.3022 -0.0684
 5838TIP3    H239150   5.138   4.512   7.711  2.7383  0.8678 -2.5332
 5839TIP3   OH239151   6.739   0.202   0.933 -0.3906  0.1802 -0.2636
 5839TIP3    H139152   6.713   0.142   1.002 -0.6858 -0.1265 -0.6384
 5839TIP3    H239153   6.827   0.231   0.957 -0.3244 -0.2558  0.0111
 5840TIP3   OH239154   5.738   2.957   0.303  0.2900 -0.2979  0.1615
 5840TIP3    H139155   5.762   2.866   0.322 -0.8175 -0.7553 -0.4960
 5840TIP3    H239156   5.770   3.007   0.378  0.5857 -1.2858  0.7082
 5841TIP3   OH239157   5.942   3.386   7.687 -0.6143  0.1007 -0.6900
 5841TIP3    H139158   6.019   3.428   7.648  0.3383  0.7900  1.7784
 5841TIP3    H239159   5.929   3.431   7.770 -2.3162 -1.5356 -0.0030
 5842TIP3   OH239160   5.626   2.447   1.341  0.2279  0.3067  0.8431
 5842TIP3    H139161   5.714   2.468   1.311  0.7415 -2.5827  0.0777
 5842TIP3    H239162   5.635   2.436   1.436 -0.1224  3.3241  1.3406
 5843TIP3   OH239163   2.921   1.984   7.686  0.3051 -0.1234 -0.4588
 5843TIP3    H139164   2.956   1.971   7.774  0.6369  1.4506 -0.3280
 5843TIP3    H239165   2.926   1.897   7.645  0.7052 -0.7490  0.8533
 5844TIP3   OH239166   1.874   3.275   0.505  0.3304 -0.5491 -0.3122
 5844TIP3    H139167   1.968   3.270   0.520  0.6282 -0.4514 -1.9419
 5844TIP3    H239168   1.852   3.192   0.462 -0.2769 -0.4422 -0.2265
 5845TIP3   OH239169   0.427   0.427   1.378 -0.2116 -0.5012 -0.0433
 5845TIP3    H139170   0.375   0.460   1.305 -2.1048  2.1416  2.3241
 5845TIP3    H239171   0.383   0.346   1.403  0.2697 -1.2728 -1.5292
 5846TIP3   OH239172   1.518   3.111   0.973 -0.2849 -0.1003  0.4491
 5846TIP3    H139173   1.435   3.157   0.991 -0.8179 -1.3377  1.2613
 5846TIP3    H239174   1.584   3.167   1.013 -0.6862  0.9973 -0.3555
 5847TIP3   OH239175   5.130   1.690   8.681  0.0415 -0.0509 -0.1591
 5847TIP3    H139176   5.199   1.750   8.657 -3.3930  4.0090 -1.0037
 5847TIP3    H239177   5.129   1.691   8.777 -1.3588  3.4030 -0.0722
 5848TIP3   OH239178   4.321   4.112   2.440 -0.2139  0.0045 -0.0259
 5848TIP3    H139179   4.252   4.153   2.388 -0.8961 -1.6621 -0.4967
 5848TIP3    H239180   4.302   4.139   2.530 -0.3896  1.0341 -0.3574
 5849TIP3   OH239181   0.156   3.312   1.651 -0.0759 -0.3439 -0.3703
 5849TIP3    H139182   0.162   3.218   1.672 -1.6203 -0.9236 -2.2998
 5849TIP3    H239183   0.110   3.350   1.726 -0.7563 -1.3792 -0.2441
 5850TIP3   OH239184   0.977   4.244   6.793  0.0362  0.5888 -0.7054
 5850TIP3    H139185   1.041   4.262   6.724  1.4259  2.7245  1.0049
 5850TIP3    H239186   1.029   4.209   6.865 -0.8828  1.2317  0.3008
 5851TIP3   OH239187   0.769   6.197   7.415 -0.1270 -0.1436 -0.2528
 5851TIP3    H139188   0.715   6.123   7.444  0.0926 -0.6035 -0.9998
 5851TIP3    H239189   0.857   6.160   7.404  0.0688  0.3170 -0.2680
 5852TIP3   OH239190   4.961   6.207   1.421 -0.4100  0.5210 -0.0564
 5852TIP3    H139191   4.910   6.251   1.489  1.7793  2.4925  0.4448
 5852TIP3    H239192   4.912   6.223   1.340 -2.8039 -1.4635  0.8825
 5853TIP3   OH239193   0.913   0.307   0.514  0.0611  0.2245  0.3885
 5853TIP3    H139194   0.977   0.331   0.447  0.6736 -2.7486 -0.2315
 5853TIP3    H239195   0.837   0.277   0.464  0.3197 -1.5014  0.9700
 5854TIP3   OH239196   2.056   1.463   0.782  0.0426  0.5499  0.2200
 5854TIP3    H139197   2.084   1.383   0.825  3.3765  1.0387 -0.7100
 5854TIP3    H239198   2.087   1.533   0.839  0.1776  1.1723 -0.5906
 5855TIP3   OH239199   4.315   1.417   1.527  0.0220 -0.8672  0.2307
 5855TIP3    H139200   4.328   1.506   1.493  3.0630 -1.8940 -1.7189
 5855TIP3    H239201   4.253   1.377   1.467 -1.1999 -0.1955  0.9966
 5856TIP3   OH239202   3.788   5.449   7.483 -0.0088  0.3999  0.5483
 5856TIP3    H139203   3.777   5.420   7.393  0.0876  1.9099  0.0222
 5856TIP3    H239204   3.706   5.425   7.526 -0.9671  1.6149 -0.5171
 5857TIP3   OH239205   5.943   0.816   1.705 -0.0605  0.5220  0.0237
 5857TIP3    H139206   5.900   0.893   1.744 -0.1325 -0.3578  1.7588
 5857TIP3    H239207   5.879   0.746   1.714  0.8132 -0.2368  0.3919
 5858TIP3   OH239208   2.801   4.920   0.603 -0.3996 -0.0262 -0.0758
 5858TIP3    H139209   2.732   4.854   0.613  1.1687 -1.4929  2.1609
 5858TIP3    H239210   2.870   4.875   0.555  0.4126  0.1555  0.8741
 5859TIP3   OH239211   2.032   3.179   7.111 -0.2024  0.2707 -0.0006
 5859TIP3    H139212   1.971   3.182   7.038 -0.3056  1.4898  0.1117
 5859TIP3    H239213   2.117   3.200   7.072  0.2388 -1.7204 -0.2095
 5860TIP3   OH239214   2.151   3.696   7.334  0.4901  0.1637  0.2382
 5860TIP3    H139215   2.164   3.649   7.416  0.5303 -1.5764 -0.7226
 5860TIP3    H239216   2.183   3.637   7.267  0.5139  1.5748 -1.0542
 5861TIP3   OH239217   3.171   0.503   1.470 -0.1195 -0.2182 -0.2218
 5861TIP3    H139218   3.080   0.522   1.490 -0.4853  1.3366 -2.8669
 5861TIP3    H239219   3.180   0.409   1.484 -1.9898 -0.3199  0.5185
 5862TIP3   OH239220   5.146   6.175   0.113 -0.0119 -0.5431  0.1856
 5862TIP3    H139221   5.104   6.173   0.199 -2.6724  3.8117 -0.7033
 5862TIP3    H239222   5.093   6.116   0.059 -2.7047  1.7126  0.1241
 5863TIP3   OH239223   3.889   5.821   0.626  0.4034  0.3222 -0.4979
 5863TIP3    H139224   3.913   5.798   0.536  1.1817  0.6535 -0.3807
 5863TIP3    H239225   3.922   5.910   0.638  0.1454  0.3474  0.0605
 5864TIP3   OH239226   4.597   1.358   7.909 -0.4721  0.2025  0.5362
 5864TIP3    H139227   4.531   1.346   7.977  0.6647 -1.8060  1.3811
 5864TIP3    H239228   4.679   1.334   7.951  0.6307  1.3177 -0.8701
 5865TIP3   OH239229   4.653   5.658   0.051  0.5133 -0.3933  0.2511
 5865TIP3    H139230   4.594   5.585   0.035  1.5917 -0.9854 -1.2384
 5865TIP3    H239231   4.733   5.636   0.003  0.5136  2.2302 -1.1264
 5866TIP3   OH239232   4.667   3.298   6.180 -0.3724 -0.3483  0.3256
 5866TIP3    H139233   4.756   3.280   6.212  0.4777  0.1981 -1.5633
 5866TIP3    H239234   4.636   3.369   6.235  0.3049 -0.6302  1.1000
 5867TIP3   OH239235   2.378   2.151   7.632  0.0945 -0.0198  0.0616
 5867TIP3    H139236   2.312   2.204   7.678 -0.1481  0.4551 -0.8085
 5867TIP3    H239237   2.462   2.191   7.656 -0.0519  0.4312 -0.1685
 5868TIP3   OH239238   0.870   5.145   0.657  1.0760  0.1289 -0.5702
 5868TIP3    H139239   0.853   5.136   0.751  2.2003  0.0186 -0.3637
 5868TIP3    H239240   0.949   5.093   0.642  1.6952  1.2478 -1.3185
 5869TIP3   OH239241   0.895   4.723   8.223  0.0930  0.5232 -0.2154
 5869TIP3    H139242   0.850   4.640   8.234  1.6528 -0.2598  0.6632
 5869TIP3    H239243   0.970   4.718   8.283 -0.5620  3.1521  0.9892
 5870TIP3   OH239244   0.108   3.954   6.906  0.1410 -0.3207  0.3596
 5870TIP3    H139245   0.114   3.902   6.986 -1.1030 -1.8029 -0.4491
 5870TIP3    H239246   0.038   4.017   6.923  1.8857  1.4413  1.4701
 5871TIP3   OH239247   4.729   4.031   7.539 -0.0890  0.4118  0.1980
 5871TIP3    H139248   4.762   4.020   7.449 -0.6939  1.6814 -0.1944
 5871TIP3    H239249   4.656   4.092   7.530 -0.3307  0.3355  1.5362
 5872TIP3   OH239250   0.709   0.063   1.303  0.0160  0.5353 -0.1684
 5872TIP3    H139251   0.623   0.055   1.261  0.4448 -1.5200 -0.7659
 5872TIP3    H239252   0.691   0.048   1.396 -0.2472 -0.2348 -0.3335
 5873TIP3   OH239253   0.057   1.748   7.952 -0.1123 -0.5514  0.1183
 5873TIP3    H139254  -0.017   1.804   7.927  0.2185 -0.0632  0.2142
 5873TIP3    H239255   0.112   1.805   8.007 -0.3911 -1.3394  1.2327
 5874TIP3   OH239256   3.801   4.942   2.105 -0.0231  0.1440 -0.0393
 5874TIP3    H139257   3.818   5.008   2.172  1.5358 -1.2540  0.9941
 5874TIP3    H239258   3.860   4.965   2.034 -0.9628  1.0289 -0.5781
 5875TIP3   OH239259   4.105   5.065   1.392  0.1555 -0.3869 -0.0097
 5875TIP3    H139260   4.133   5.156   1.399 -1.0848 -0.0230  0.3699
 5875TIP3    H239261   4.083   5.054   1.299  0.0741 -0.2324 -0.0087
 5876TIP3   OH239262   2.349   4.344   8.912  0.4192 -0.1656 -0.3417
 5876TIP3    H139263   2.352   4.269   8.972  0.5865  1.0627  1.2550
 5876TIP3    H239264   2.319   4.417   8.967 -0.1007  0.8698 -1.9338
 5877TIP3   OH239265   4.406   5.669   0.516  0.1038  0.4544 -0.2700
 5877TIP3    H139266   4.482   5.656   0.460  0.5226  0.0525  0.3670
 5877TIP3    H239267   4.405   5.763   0.535 -0.2763  0.6575 -1.2610
 5878TIP3   OH239268   5.886   5.394   1.502  0.1750 -0.0823  0.0311
 5878TIP3    H139269   5.865   5.359   1.415  1.3089  1.2583 -0.8221
 5878TIP3    H239270   5.855   5.485   1.499 -1.5914 -0.5602  1.7647
 5879TIP3   OH239271   6.011   4.424   8.849  0.2285  0.6306 -0.4808
 5879TIP3    H139272   5.936   4.400   8.904 -0.0868  1.7429 -0.4002
 5879TIP3    H239273   6.086   4.425   8.909  0.7042 -2.2153 -0.8775
 5880TIP3   OH239274   1.922   3.569   2.292 -0.7517  0.7544  0.8321
 5880TIP3    H139275   1.840   3.591   2.336 -1.2920 -0.3399  0.4148
 5880TIP3    H239276   1.939   3.478   2.317  0.6346  1.1349  1.3597
 5881TIP3   OH239277   4.879   5.835   1.377  0.1555 -0.1088  0.0589
 5881TIP3    H139278   4.909   5.886   1.453 -0.5409 -1.0326  0.9816
 5881TIP3    H239279   4.784   5.841   1.381  0.0617 -1.4353  0.1603
 5882TIP3   OH239280   2.450   1.236   7.950 -0.2441  0.1679 -0.2368
 5882TIP3    H139281   2.523   1.287   7.985 -0.7788  0.6839  0.1426
 5882TIP3    H239282   2.371   1.280   7.982 -0.7264 -0.5608 -0.3777
 5883TIP3   OH239283   1.402   0.605   0.660 -0.5344 -1.2991 -0.3627
 5883TIP3    H139284   1.481   0.556   0.636  0.5828  0.4342 -0.3558
 5883TIP3    H239285   1.370   0.640   0.577  0.2190  0.1455 -0.0820
 5884TIP3   OH239286   6.633   4.554   7.674  0.5119  0.1003 -0.1488
 5884TIP3    H139287   6.598   4.631   7.718  2.7566  1.9595 -1.3497
 5884TIP3    H239288   6.697   4.590   7.612  1.1222 -2.7103 -1.2829
 5885TIP3   OH239289   1.401   3.995   1.405 -0.0715 -0.3595 -0.0257
 5885TIP3    H139290   1.328   3.955   1.358  1.3530 -1.4674 -1.4235
 5885TIP3    H239291   1.363   4.071   1.448 -2.0422 -0.9066 -0.6782
 5886TIP3   OH239292   3.503   2.652   6.909  0.2248  0.7474  0.6307
 5886TIP3    H139293   3.541   2.734   6.877 -0.0650  1.4955  2.1007
 5886TIP3    H239294   3.410   2.671   6.921 -0.0408 -0.1232 -0.0004
 5887TIP3   OH239295   2.439   4.198   0.763  0.1067 -0.7769 -0.3505
 5887TIP3    H139296   2.381   4.186   0.688 -0.7682  3.0898 -0.4960
 5887TIP3    H239297   2.509   4.255   0.730  0.8738 -0.7584  1.2217
 5888TIP3   OH239298   0.344   0.985   6.783 -0.3962 -0.2522 -0.0540
 5888TIP3    H139299   0.321   1.078   6.781  0.0003 -0.1445  0.2992
 5888TIP3    H239300   0.414   0.979   6.847 -1.7933 -1.0981  1.4722
 5889TIP3   OH239301   4.953   2.870   0.829 -0.4921 -0.0198 -0.5688
 5889TIP3    H139302   5.023   2.866   0.765 -0.1417  0.4173 -0.2137
 5889TIP3    H239303   4.942   2.779   0.858  0.3122 -0.0116 -0.2140
 5890TIP3   OH239304   0.142   4.965   6.927  0.8130 -0.4512  0.0335
 5890TIP3    H139305   0.170   5.035   6.868  0.9121 -2.1166 -2.0066
 5890TIP3    H239306   0.090   5.009   6.994  0.8274  1.5654 -1.2039
 5891TIP3   OH239307   3.211   4.478   1.265 -0.3436  0.7810 -0.0474
 5891TIP3    H139308   3.306   4.473   1.252 -0.4697  0.6595 -0.9866
 5891TIP3    H239309   3.177   4.400   1.221 -0.8816  0.8136  0.3042
 5892TIP3   OH239310   4.012   4.332   8.754  0.8913  0.2691  0.4027
 5892TIP3    H139311   4.039   4.409   8.804 -0.1117  1.1309 -0.3509
 5892TIP3    H239312   3.930   4.357   8.712 -0.1870 -1.6599  1.2069
 5893TIP3   OH239313   5.807   3.226   0.151  0.1306 -0.1306  0.1248
 5893TIP3    H139314   5.802   3.320   0.134  0.0888 -0.2737 -0.6513
 5893TIP3    H239315   5.731   3.208   0.206  0.2868  0.3338  0.5016
 5894TIP3   OH239316   3.474   4.802   1.038 -0.1257  0.3981 -0.4252
 5894TIP3    H139317   3.397   4.779   1.091 -1.5843  1.8953 -1.7765
 5894TIP3    H239318   3.543   4.819   1.102 -1.2909  0.3078  0.9048
 5895TIP3   OH239319   1.991   2.998   6.211 -0.0193 -0.1368 -0.0459
 5895TIP3    H139320   1.942   2.917   6.202 -1.3368  0.6999 -0.8649
 5895TIP3    H239321   1.934   3.055   6.264  0.9660  0.1895  0.6865
 5896TIP3   OH239322   5.359   0.890   1.430  0.1413 -0.6959 -0.0365
 5896TIP3    H139323   5.270   0.864   1.454 -0.5168 -0.4346 -2.0536
 5896TIP3    H239324   5.363   0.879   1.335  1.8452  0.5693 -0.1548
 5897TIP3   OH239325   6.680   2.791   1.362  0.2812  0.1667 -0.0128
 5897TIP3    H139326   6.625   2.774   1.438 -0.6464  2.5849 -0.0429
 5897TIP3    H239327   6.764   2.818   1.399  0.5512 -0.8179  0.0986
 5898TIP3   OH239328   3.282   6.119   1.589  0.2045 -0.4532 -0.5291
 5898TIP3    H139329   3.215   6.121   1.657 -0.7987 -0.3899 -1.4887
 5898TIP3    H239330   3.308   6.027   1.583 -0.9143 -0.7541 -1.1774
 5899TIP3   OH239331   6.227   2.774   1.200  0.2820 -0.5312  1.0593
 5899TIP3    H139332   6.273   2.854   1.176 -0.6752 -0.6735 -1.6073
 5899TIP3    H239333   6.286   2.704   1.172 -0.3225 -0.7141  0.1983
 5900TIP3   OH239334   4.730   1.807   0.087 -0.1190  0.2352 -0.2892
 5900TIP3    H139335   4.640   1.833   0.110 -0.2700 -0.8779  0.4503
 5900TIP3    H239336   4.762   1.880   0.033 -1.1643  1.0459  0.1296
 5901TIP3   OH239337   4.816   0.159   8.616  0.0126  0.2073 -0.6543
 5901TIP3    H139338   4.846   0.073   8.586 -0.9273 -0.3380 -0.0729
 5901TIP3    H239339   4.804   0.148   8.710 -0.6119  0.8191 -0.6567
 5902TIP3   OH239340   5.066   6.507   2.379 -0.3719 -0.3565 -1.1710
 5902TIP3    H139341   5.084   6.414   2.387 -1.8833 -0.8353 -2.7528
 5902TIP3    H239342   5.098   6.545   2.461  0.7230 -2.1640 -0.7095
 5903TIP3   OH239343   4.869   3.452   0.253 -0.0666  0.2126 -0.1650
 5903TIP3    H139344   4.820   3.373   0.275 -0.9880  1.1262  1.1890
 5903TIP3    H239345   4.935   3.422   0.191 -1.6801 -1.2384 -1.2726
 5904TIP3   OH239346   3.742   5.127   2.319 -0.3014 -0.4354  0.3471
 5904TIP3    H139347   3.770   5.063   2.385 -0.2825 -1.3221 -0.4930
 5904TIP3    H239348   3.822   5.172   2.293 -0.4545  0.6320  1.6378
 5905TIP3   OH239349   3.198   4.236   7.643 -0.5283 -0.3804  0.2503
 5905TIP3    H139350   3.196   4.192   7.728  0.3207 -0.0962  0.4288
 5905TIP3    H239351   3.174   4.327   7.663  0.4582 -0.1305  0.3113
 5906TIP3   OH239352   0.131   6.693   7.695 -0.0550  0.2750  0.4963
 5906TIP3    H139353   0.072   6.708   7.769  0.3813  0.4282  0.8179
 5906TIP3    H239354   0.160   6.603   7.704  0.4513  0.4740  0.8396
 5907TIP3   OH239355   6.312   1.086   7.270  0.0634 -0.5562 -0.0389
 5907TIP3    H139356   6.396   1.106   7.228 -0.4615 -1.8536 -1.8095
 5907TIP3    H239357   6.256   1.160   7.247  0.0414 -0.8299 -0.9042
 5908TIP3   OH239358   5.324   3.538   0.115  0.0719  0.1807 -0.5170
 5908TIP3    H139359   5.228   3.543   0.107  0.1476  0.6176 -1.3390
 5908TIP3    H239360   5.344   3.585   0.196 -0.3373  1.0682 -0.9088
 5909TIP3   OH239361   0.764   4.289   7.746 -0.3438 -0.7519 -0.1783
 5909TIP3    H139362   0.776   4.265   7.654 -1.1167 -1.0348 -0.2202
 5909TIP3    H239363   0.783   4.382   7.749  1.8452 -1.1579 -0.1900
 5910TIP3   OH239364   6.752   4.346   7.333 -0.2354  0.0212 -0.3097
 5910TIP3    H139365   6.776   4.257   7.306  0.1654  0.4758 -1.5174
 5910TIP3    H239366   6.676   4.334   7.389 -1.8025 -0.9351 -2.4941
 5911TIP3   OH239367   3.540   5.859   7.472 -0.2611 -0.3287 -0.6400
 5911TIP3    H139368   3.539   5.871   7.567  0.9682 -1.5987 -0.4418
 5911TIP3    H239369   3.632   5.852   7.449 -0.5523 -0.2463 -1.9034
 5912TIP3   OH239370   0.805   3.969   8.959  0.3669 -0.4383 -0.0148
 5912TIP3    H139371   0.897   3.960   8.933  0.9655 -0.4730  1.9143
 5912TIP3    H239372   0.781   4.057   8.932  0.5940 -0.8153 -1.5394
 5913TIP3   OH239373   1.068   3.531   1.574 -0.6985 -0.2753 -0.4132
 5913TIP3    H139374   1.060   3.569   1.487 -0.8590 -1.1989 -0.8090
 5913TIP3    H239375   1.004   3.460   1.576  0.2914 -1.1860 -0.0454
 5914TIP3   OH239376   0.293   1.443   0.581  0.4915 -0.5144 -0.0706
 5914TIP3    H139377   0.291   1.377   0.650  1.7078  1.7015  2.2750
 5914TIP3    H239378   0.382   1.438   0.546  1.3495  1.1922  1.6543
 5915TIP3   OH239379   2.663   1.758   0.882  0.8722  0.2302  0.3064
 5915TIP3    H139380   2.606   1.689   0.915  1.6266 -0.4119  0.3055
 5915TIP3    H239381   2.744   1.748   0.932  0.6874  1.7052  0.9660
 5916TIP3   OH239382   2.945   6.599   7.708  0.0707  0.3499  0.2844
 5916TIP3    H139383   2.908   6.559   7.629  2.0433  0.9602 -1.0136
 5916TIP3    H239384   2.869   6.613   7.765 -1.0333 -2.9794 -0.1447
 5917TIP3   OH239385   0.088   2.073   0.700  0.2697  0.3598 -0.3589
 5917TIP3    H139386   0.023   2.075   0.770  0.4958 -0.4955 -0.1057
 5917TIP3    H239387   0.166   2.113   0.738  0.5458 -0.5465  0.0573
 5918TIP3   OH239388   3.957   5.202   7.499 -0.1539  0.4311 -0.4453
 5918TIP3    H139389   3.922   5.289   7.482  0.2410  0.7929  0.5333
 5918TIP3    H239390   4.003   5.179   7.418 -0.0401  1.2357 -0.6208
 5919TIP3   OH239391   1.760   3.707   6.874 -0.3815 -0.3672  0.1886
 5919TIP3    H139392   1.754   3.769   6.947 -0.1912  0.3847 -0.4197
 5919TIP3    H239393   1.692   3.642   6.893 -0.1139 -0.3731  1.2024
 5920TIP3   OH239394   5.018   3.778   1.041  0.0755 -0.1028  0.6225
 5920TIP3    H139395   5.008   3.780   1.136  0.6445  2.3341  0.6848
 5920TIP3    H239396   4.996   3.866   1.012  0.2853 -0.6897 -1.4792
 5921TIP3   OH239397   5.957   3.192   1.722 -0.5174 -0.2307  0.0051
 5921TIP3    H139398   5.962   3.096   1.721 -0.5913 -0.2669  1.4037
 5921TIP3    H239399   5.879   3.211   1.775 -0.6723  0.6093 -0.5039
 5922TIP3   OH239400   1.205   3.288   8.333 -0.3597  0.4149  0.5223
 5922TIP3    H139401   1.208   3.235   8.412  1.8866 -0.1801  0.1025
 5922TIP3    H239402   1.241   3.232   8.265 -0.9579  1.3971 -0.6402
 5923TIP3   OH239403   3.787   2.068   0.883 -0.2367  0.3652  0.0792
 5923TIP3    H139404   3.740   2.077   0.966  0.0107  0.2938  0.2260
 5923TIP3    H239405   3.870   2.113   0.897 -0.1535  0.2681 -0.1010
 5924TIP3   OH239406   0.390   1.252   7.549  0.2013 -0.8969 -0.3079
 5924TIP3    H139407   0.367   1.269   7.640 -0.6623 -2.7132 -0.1350
 5924TIP3    H239408   0.475   1.294   7.537  0.0234 -0.0574  1.1351
 5925TIP3   OH239409   3.015   6.762   8.131  0.1763  0.0212  0.0993
 5925TIP3    H139410   2.985   6.703   8.061  0.8706 -0.1291 -0.0777
 5925TIP3    H239411   3.095   6.801   8.097 -0.0337  0.7351  0.4026
 5926TIP3   OH239412   2.934   1.182   7.944 -0.0445 -0.1942 -0.0912
 5926TIP3    H139413   2.917   1.088   7.944 -1.4692  0.0384  0.6897
 5926TIP3    H239414   3.025   1.190   7.914  0.1589 -1.8239  0.0096
 5927TIP3   OH239415   0.884   2.680   8.127  0.9291  0.5029 -0.2982
 5927TIP3    H139416   0.959   2.730   8.095 -0.3486  0.7018 -3.2973
 5927TIP3    H239417   0.920   2.594   8.148  2.1831  0.9152 -0.6596
 5928TIP3   OH239418   1.790   6.451   2.186 -0.5215  0.0461  0.1106
 5928TIP3    H139419   1.802   6.445   2.092  2.0316  2.1408  0.1678
 5928TIP3    H239420   1.731   6.526   2.198 -1.0752 -0.3973  0.1866
 5929TIP3   OH239421   0.951   6.589   8.933 -0.0491  0.5656  0.1202
 5929TIP3    H139422   0.874   6.630   8.893 -0.7572 -0.6083  0.2403
 5929TIP3    H239423   0.925   6.498   8.947  0.7676  0.5464  1.7277
 5930TIP3   OH239424   5.630   5.594   1.913 -0.2236  0.5230  0.6627
 5930TIP3    H139425   5.683   5.645   1.974  0.2618  1.9385 -0.8834
 5930TIP3    H239426   5.546   5.639   1.911 -0.3467  0.2896  0.5351
 5931TIP3   OH239427   5.897   4.434   7.810 -0.1069  0.3013  0.0484
 5931TIP3    H139428   5.808   4.399   7.815 -0.8657  2.0423 -0.5122
 5931TIP3    H239429   5.953   4.356   7.816 -1.6536 -0.8765  0.0723
 5932TIP3   OH239430   6.171   6.702   1.866  0.5734  0.1831 -0.1617
 5932TIP3    H139431   6.160   6.707   1.961 -2.1908 -1.9855 -0.2472
 5932TIP3    H239432   6.090   6.739   1.831  0.6527 -0.9346 -1.5932
 5933TIP3   OH239433   0.440   6.199   7.580  0.4398 -0.3979 -0.5899
 5933TIP3    H139434   0.348   6.213   7.557  0.6270 -1.6471 -2.2280
 5933TIP3    H239435   0.450   6.242   7.665 -1.4872  0.3188 -0.6815
 5934TIP3   OH239436   4.984   4.619   8.813 -0.5653  0.3491 -0.3412
 5934TIP3    H139437   4.892   4.595   8.802 -1.3840  3.0379 -0.1659
 5934TIP3    H239438   4.986   4.669   8.894  1.3415 -0.8140  0.3768
 5935TIP3   OH239439   3.734   6.513   1.886 -0.2401 -0.3992 -0.5570
 5935TIP3    H139440   3.768   6.521   1.975  0.7544 -2.9151 -0.6232
 5935TIP3    H239441   3.660   6.453   1.894 -0.2271 -0.5388 -1.4042
 5936TIP3   OH239442   1.712   4.258   0.412 -0.4408 -0.8748  0.5597
 5936TIP3    H139443   1.634   4.270   0.466 -0.5958  1.1032 -0.0187
 5936TIP3    H239444   1.678   4.246   0.324 -0.1166 -0.7604  0.4179
 5937TIP3   OH239445   1.105   3.459   2.555  0.0133 -0.2456 -0.4448
 5937TIP3    H139446   1.018   3.474   2.591 -0.3210  0.1089 -1.3963
 5937TIP3    H239447   1.136   3.546   2.530  0.1857 -0.5056 -1.1441
 5938TIP3   OH239448   2.037   5.842   8.841  0.0946 -0.2365  0.3262
 5938TIP3    H139449   2.054   5.882   8.926 -0.1079  0.6262 -0.0350
 5938TIP3    H239450   2.123   5.812   8.811  0.3467  0.4429  0.3462
 5939TIP3   OH239451   3.427   5.839   8.262  0.1714  0.1075 -0.7690
 5939TIP3    H139452   3.496   5.775   8.245 -1.0099 -1.3089 -0.3887
 5939TIP3    H239453   3.349   5.787   8.281 -0.8605  1.6610 -0.5256
 5940TIP3   OH239454   5.311   5.732   7.590 -0.2695  0.0770  0.0009
 5940TIP3    H139455   5.359   5.813   7.607  0.6622  0.1189 -2.3876
 5940TIP3    H239456   5.231   5.760   7.547 -0.8189 -0.1856  0.8409
 5941TIP3   OH239457   0.626   2.639   1.020 -0.3205  0.6077 -0.2205
 5941TIP3    H139458   0.580   2.561   1.048  0.6490 -0.0473 -0.3938
 5941TIP3    H239459   0.707   2.640   1.071  0.3204  0.7349 -1.1999
 5942TIP3   OH239460   2.228   5.911   1.762  0.0148  0.4744  0.5799
 5942TIP3    H139461   2.141   5.872   1.757  0.5508 -0.7883  0.6581
 5942TIP3    H239462   2.233   5.946   1.851 -0.4727  0.7110  0.5187
 5943TIP3   OH239463   5.799   4.376   0.019  0.1152 -0.4561  0.3020
 5943TIP3    H139464   5.833   4.463   0.039 -0.3248 -0.2759  0.2780
 5943TIP3    H239465   5.720   4.368   0.072 -0.3455 -0.4867 -0.3770
 5944TIP3   OH239466   6.039   4.954   1.431 -0.3082  0.0650 -0.0796
 5944TIP3    H139467   6.090   4.893   1.485 -0.5179 -0.4560 -0.4620
 5944TIP3    H239468   5.976   4.899   1.386 -0.6118  0.5940 -0.3069
 5945TIP3   OH239469   2.206   1.481   1.963  0.1992 -0.5698 -0.3566
 5945TIP3    H139470   2.175   1.441   2.044  0.1824 -0.6307 -0.3929
 5945TIP3    H239471   2.126   1.508   1.918  0.1180 -1.8983 -1.0549
 5946TIP3   OH239472   1.845   3.459   7.088  1.1498 -0.2202 -0.1250
 5946TIP3    H139473   1.921   3.507   7.057  1.9927 -0.2565  1.7654
 5946TIP3    H239474   1.878   3.404   7.159 -0.3008 -1.5983 -0.4573
 5947TIP3   OH239475   1.560   5.408   1.101  0.1240 -0.2520  0.2686
 5947TIP3    H139476   1.598   5.484   1.146 -0.6123  0.2871 -0.0028
 5947TIP3    H239477   1.599   5.333   1.146 -1.3242  0.2328  2.5372
 5948TIP3   OH239478   5.360   1.727   8.449  0.2125 -0.2621  0.0132
 5948TIP3    H139479   5.393   1.795   8.508 -1.1002  0.5275 -0.1127
 5948TIP3    H239480   5.372   1.645   8.496 -0.5314  0.3197  1.2679
 5949TIP3   OH239481   3.990   0.155   0.885 -0.1238 -0.2613 -0.5404
 5949TIP3    H139482   3.969   0.124   0.973  0.9497 -0.2625 -0.2684
 5949TIP3    H239483   3.940   0.098   0.827 -0.1882 -0.8197  0.0496
 5950TIP3   OH239484   5.811   0.556   8.807 -0.2022  0.3218 -0.2845
 5950TIP3    H139485   5.879   0.549   8.740 -1.1484  0.3697 -1.2722
 5950TIP3    H239486   5.733   0.587   8.761 -0.4793  1.8732  1.1226
 5951TIP3   OH239487   3.884   3.778   8.450  0.1250 -0.0682  0.5191
 5951TIP3    H139488   3.969   3.762   8.491  1.4116  1.0829 -1.5263
 5951TIP3    H239489   3.901   3.771   8.356 -2.1837 -0.3556  0.0490
 5952TIP3   OH239490   5.540   0.386   8.700  0.0457  0.8088 -0.7903
 5952TIP3    H139491   5.481   0.395   8.625 -2.9953  0.9241  1.3786
 5952TIP3    H239492   5.533   0.470   8.746  1.1118  0.4295  0.1101
 5953TIP3   OH239493   0.124   4.441   0.969 -0.1533  0.1947 -0.3684
 5953TIP3    H139494   0.194   4.498   1.001  1.1448  0.3945 -3.3047
 5953TIP3    H239495   0.058   4.443   1.039  1.3601  2.5037  1.1315
 5954TIP3   OH239496   6.130   2.655   0.872 -0.5315  0.2421  0.4011
 5954TIP3    H139497   6.173   2.570   0.876  2.0013  1.3871 -0.5014
 5954TIP3    H239498   6.167   2.705   0.944 -0.6565  1.1461 -0.1408
 5955TIP3   OH239499   2.046   3.685   7.056 -0.5173  0.3108  0.1837
 5955TIP3    H139500   2.053   3.771   7.016  0.5054  0.2741  0.2472
 5955TIP3    H239501   2.057   3.702   7.150 -0.3417  0.1207  0.1982
 5956TIP3   OH239502   0.957   6.319   1.093  0.1093  0.1415 -0.0078
 5956TIP3    H139503   0.965   6.413   1.108 -0.2676  0.1108  0.4119
 5956TIP3    H239504   1.021   6.280   1.152 -0.4752  0.0882  0.6141
 5957TIP3   OH239505   4.879   5.772   2.067 -0.4852  0.1970 -0.2815
 5957TIP3    H139506   4.804   5.721   2.099 -1.0601  1.6263  0.7326
 5957TIP3    H239507   4.955   5.725   2.101 -0.8497 -1.4676 -1.6034
 5958TIP3   OH239508   1.683   0.599   0.074 -0.0009  0.3631  0.4658
 5958TIP3    H139509   1.603   0.646   0.096 -0.2315 -0.1782  0.8257
 5958TIP3    H239510   1.658   0.506   0.078  0.6053  0.1929  0.4470
 5959TIP3   OH239511   1.558   4.886   8.710  0.0926  0.2209 -0.0179
 5959TIP3    H139512   1.600   4.860   8.628 -3.0468  3.2401 -2.9218
 5959TIP3    H239513   1.620   4.946   8.751  0.9864  0.0791 -1.1115
 5960TIP3   OH239514   0.557   1.363   0.494  0.3595  0.1483 -0.1352
 5960TIP3    H139515   0.640   1.398   0.525  0.5881  0.4668 -1.0828
 5960TIP3    H239516   0.560   1.270   0.516  0.1853  0.4930  1.4658
 5961TIP3   OH239517   0.606   1.593   7.925  0.1245  0.4596  0.3018
 5961TIP3    H139518   0.691   1.585   7.967 -0.7641  1.3814  2.4243
 5961TIP3    H239519   0.626   1.609   7.832  2.1631 -1.4863  0.3426
 5962TIP3   OH239520   2.296   5.320   2.211 -0.2850  0.0465 -0.6244
 5962TIP3    H139521   2.326   5.230   2.220 -1.1654 -0.1630  0.5483
 5962TIP3    H239522   2.294   5.354   2.301 -3.5851 -0.0069 -0.5322
 5963TIP3   OH239523   2.946   1.908   1.459  0.0265 -0.0611 -0.2297
 5963TIP3    H139524   2.855   1.885   1.439  0.3590 -1.3648 -0.3448
 5963TIP3    H239525   2.980   1.832   1.507  0.1784  1.7026  2.6365
 5964TIP3   OH239526   3.303   2.651   8.646  0.2255 -0.4807  0.1081
 5964TIP3    H139527   3.331   2.680   8.733  0.8681 -1.3968  0.2256
 5964TIP3    H239528   3.290   2.731   8.597  1.3922  0.0325  0.5911
 5965TIP3   OH239529   6.034   1.623   2.039 -0.7334  0.6736  0.3325
 5965TIP3    H139530   6.055   1.629   1.946 -2.5260  0.9600 -0.1015
 5965TIP3    H239531   6.046   1.530   2.061  2.7342  1.0924  0.6664
 5966TIP3   OH239532   4.949   2.067   7.236 -0.2381  0.2563  0.2450
 5966TIP3    H139533   5.034   2.107   7.252  1.1816 -2.4770  0.2282
 5966TIP3    H239534   4.920   2.104   7.152  1.0276  1.1056  0.1571
 5967TIP3   OH239535   4.840   6.759   1.928 -0.1092  0.1287  0.6973
 5967TIP3    H139536   4.882   6.758   1.842 -0.6475 -0.5070  0.4312
 5967TIP3    H239537   4.812   6.668   1.942  1.2048 -0.0870  2.1559
 5968TIP3   OH239538   5.653   6.186   8.293  0.2250 -0.2909 -0.0375
 5968TIP3    H139539   5.586   6.224   8.237  0.1486  2.2984  1.6381
 5968TIP3    H239540   5.736   6.216   8.256  0.2463  0.1149  0.3353
 5969TIP3   OH239541   5.797   4.689   7.691 -0.1516  0.8574  0.1958
 5969TIP3    H139542   5.787   4.594   7.705  1.6420  0.6004 -0.0405
 5969TIP3    H239543   5.865   4.696   7.624 -0.1464  2.3267  0.3393
 5970TIP3   OH239544   2.919   0.930   8.439 -0.4098 -0.0948 -0.6463
 5970TIP3    H139545   2.834   0.926   8.394 -1.7842 -1.6389  1.8494
 5970TIP3    H239546   2.896   0.948   8.531  1.8496 -1.7326  0.3274
 5971TIP3   OH239547   2.480   2.543   0.426 -0.2395  0.0373 -0.8463
 5971TIP3    H139548   2.525   2.480   0.483 -0.6311 -0.2767 -0.8789
 5971TIP3    H239549   2.451   2.613   0.486 -1.0781 -0.5289 -0.5679
 5972TIP3   OH239550   4.250   4.903   8.027  0.4956 -0.1324  0.1791
 5972TIP3    H139551   4.215   4.886   8.114  0.4347  0.5960  0.2987
 5972TIP3    H239552   4.339   4.868   8.030  0.4855 -0.1287  0.5258
 5973TIP3   OH239553   5.763   6.564   2.076  0.4739  0.0568  0.2134
 5973TIP3    H139554   5.752   6.658   2.057  2.4124  0.4599  0.9262
 5973TIP3    H239555   5.801   6.528   1.996  2.0962  0.4048  0.7910
 5974TIP3   OH239556   0.066   0.582   8.291 -0.3851  0.1235  0.2338
 5974TIP3    H139557   0.063   0.666   8.245  2.4292  0.1970  0.0002
 5974TIP3    H239558   0.011   0.524   8.237 -0.7969  1.3105 -0.6841
 5975TIP3   OH239559   0.485   3.250   8.322 -0.2081 -0.1765 -0.4668
 5975TIP3    H139560   0.569   3.205   8.323  0.3010  0.7370  0.7429
 5975TIP3    H239561   0.420   3.181   8.332  0.5157 -0.7285  0.6095
 5976TIP3   OH239562   5.265   2.157   8.000 -0.6521 -0.4846 -0.5907
 5976TIP3    H139563   5.223   2.100   8.063  1.2794 -0.6533  0.6420
 5976TIP3    H239564   5.266   2.243   8.042 -1.6375  0.0003 -1.5202
 5977TIP3   OH239565   5.496   5.859   8.326  0.4434 -0.5316 -0.1081
 5977TIP3    H139566   5.513   5.853   8.232 -0.5821  0.4919 -0.3825
 5977TIP3    H239567   5.573   5.903   8.361 -0.2633  1.4035 -0.8785
 5978TIP3   OH239568   0.244   5.075   1.012 -0.0818  0.3698 -0.0780
 5978TIP3    H139569   0.250   5.142   0.944 -0.4906 -0.3884 -0.8749
 5978TIP3    H239570   0.150   5.066   1.030 -0.1170 -0.7310 -0.7398
 5979TIP3   OH239571   1.875   3.641   0.256 -0.2197  0.6434 -0.1622
 5979TIP3    H139572   1.882   3.710   0.190  0.0532  0.8630  0.0931
 5979TIP3    H239573   1.950   3.583   0.238  0.1028  0.9365  0.2183
 5980TIP3   OH239574   1.623   0.738   8.833  0.1869 -0.3492 -0.2917
 5980TIP3    H139575   1.558   0.809   8.834  0.8104  0.2309 -0.1325
 5980TIP3    H239576   1.647   0.727   8.925  1.2455  0.3287 -0.4659
 5981TIP3   OH239577   4.102   1.309   1.384 -0.0498 -0.5712 -0.2052
 5981TIP3    H139578   4.080   1.380   1.323 -2.6544 -1.8126 -0.8618
 5981TIP3    H239579   4.024   1.302   1.440 -0.4287 -3.6662 -0.9661
 5982TIP3   OH239580   3.616   1.802   0.146 -0.0892 -0.1035 -0.3847
 5982TIP3    H139581   3.591   1.850   0.067  1.3188  1.3102 -0.0386
 5982TIP3    H239582   3.661   1.724   0.113  0.6845  0.5818 -1.0071
 5983TIP3   OH239583   4.556   1.179   0.198 -0.1041 -0.0395 -0.4347
 5983TIP3    H139584   4.486   1.220   0.248 -2.0518 -2.6449 -0.8349
 5983TIP3    H239585   4.512   1.123   0.135  2.3390 -1.0328 -1.4079
 5984TIP3   OH239586   3.323   5.926   0.897  0.2507 -0.0796 -0.0171
 5984TIP3    H139587   3.355   5.963   0.814 -0.2133 -0.0200 -0.1716
 5984TIP3    H239588   3.330   5.831   0.885  1.2517 -0.0599  0.3049
 5985TIP3   OH239589   5.763   6.338   7.932 -0.0066 -0.5656  0.2826
 5985TIP3    H139590   5.820   6.373   8.001 -2.5880  2.8646  0.9173
 5985TIP3    H239591   5.796   6.377   7.851  0.0484 -0.6590  0.2584
 5986TIP3   OH239592   4.511   3.239   8.429 -0.1167  0.2069 -0.2845
 5986TIP3    H139593   4.575   3.221   8.498 -0.9545 -2.1758 -0.0582
 5986TIP3    H239594   4.564   3.277   8.358  1.1400  0.4935  0.7516
 5987TIP3   OH239595   5.985   4.027   8.561  0.5720 -0.1544 -0.2601
 5987TIP3    H139596   6.031   4.082   8.624  0.4707 -0.6358  0.2374
 5987TIP3    H239597   5.954   4.089   8.494  0.6929  0.3578  0.1472
 5988TIP3   OH239598   3.521   1.496   1.588  0.7944 -0.2912  0.3420
 5988TIP3    H139599   3.544   1.586   1.613  0.7464 -0.2018  0.0665
 5988TIP3    H239600   3.590   1.442   1.627  1.0152 -0.1014  0.2128
 5989TIP3   OH239601   1.296   2.825   0.372  0.5188 -0.0928  0.0617
 5989TIP3    H139602   1.344   2.754   0.332 -0.5279 -0.2430 -0.9703
 5989TIP3    H239603   1.344   2.904   0.347  1.0722 -0.3456  0.3107
 5990TIP3   OH239604   5.149   6.260   2.293  0.2355 -0.2795  0.2736
 5990TIP3    H139605   5.160   6.204   2.216 -1.4291 -0.9907  0.5185
 5990TIP3    H239606   5.122   6.200   2.363  0.4497  0.5401  1.0847
 5991TIP3   OH239607   6.050   5.095   8.444 -0.6246  0.1237  0.1613
 5991TIP3    H139608   6.096   5.095   8.360 -0.7660 -1.1253  0.0735
 5991TIP3    H239609   6.056   5.186   8.474 -0.2219  0.4997 -0.9997
 5992TIP3   OH239610   1.743   5.719   7.673  0.6126  0.1432 -0.0834
 5992TIP3    H139611   1.764   5.761   7.590  0.9938 -0.3400 -0.2337
 5992TIP3    H239612   1.815   5.658   7.688 -0.3408 -1.0542 -0.2819
 5993TIP3   OH239613   5.599   0.460   8.282 -0.1873  0.0788  0.7372
 5993TIP3    H139614   5.559   0.379   8.313  1.0274 -0.4261  1.0577
 5993TIP3    H239615   5.692   0.449   8.300  0.0549  1.3743  0.3832
 5994TIP3   OH239616   2.757   2.627   1.197  0.5474  0.5329 -0.1929
 5994TIP3    H139617   2.807   2.702   1.165  1.5795 -1.0588 -2.5725
 5994TIP3    H239618   2.806   2.596   1.273  0.7345  1.5345  0.1120
 5995TIP3   OH239619   1.915   0.224   2.483 -0.4485  0.3062  0.6485
 5995TIP3    H139620   1.908   0.139   2.525  2.1257  1.0984  3.0079
 5995TIP3    H239621   1.988   0.215   2.422  0.2710  0.9010  1.3777
 5996TIP3   OH239622   5.812   4.828   1.896  0.3169 -0.2602  0.3686
 5996TIP3    H139623   5.808   4.915   1.856 -2.7121 -1.1376 -1.6382
 5996TIP3    H239624   5.787   4.842   1.987 -1.8509  0.8790 -0.3267
 5997TIP3   OH239625   0.055   4.848   0.118  0.1460  0.9889 -0.0606
 5997TIP3    H139626   0.016   4.776   0.167  1.9109 -0.0329 -0.0896
 5997TIP3    H239627  -0.019   4.898   0.085 -1.1108 -0.7097  0.1037
 5998TIP3   OH239628   5.121   0.171   2.285  0.4343  0.2697 -0.2648
 5998TIP3    H139629   5.169   0.103   2.331 -0.4953 -0.7132 -0.7008
 5998TIP3    H239630   5.085   0.127   2.208 -1.3164  0.8886  0.1434
 5999TIP3   OH239631   4.787   5.853   0.206  0.3191 -0.3370  0.7795
 5999TIP3    H139632   4.728   5.800   0.152 -2.3126  0.8050  2.3753
 5999TIP3    H239633   4.808   5.797   0.280  0.4620 -0.4076  0.6861
 6000TIP3   OH239634   1.457   4.775   8.400  0.2292  0.6897 -0.3346
 6000TIP3    H139635   1.445   4.682   8.418  0.8351  0.2756 -1.9039
 6000TIP3    H239636   1.540   4.797   8.443 -0.9125  1.0684  1.8267
 6001TIP3   OH239637   2.462   0.944   7.950 -0.5240  0.0342  0.2361
 6001TIP3    H139638   2.416   0.898   8.020 -0.4219  1.0508  0.9871
 6001TIP3    H239639   2.429   1.033   7.954 -0.1714  0.2126 -0.7142
 6002TIP3   OH239640   4.165   4.757   1.180  0.4694  0.1112  0.2393
 6002TIP3    H139641   4.151   4.662   1.181  0.0749  0.1713  0.6192
 6002TIP3    H239642   4.187   4.777   1.089  1.1366 -0.4282  0.2756
 6003TIP3   OH239643   1.939   4.803   6.577  0.4084 -0.5684 -0.3649
 6003TIP3    H139644   1.908   4.887   6.543  1.5525  0.3910  0.8571
 6003TIP3    H239645   1.891   4.737   6.527 -0.5001  0.8115 -1.3617
 6004TIP3   OH239646   6.493   1.572   8.594 -0.5268 -0.8120 -0.1618
 6004TIP3    H139647   6.423   1.511   8.618 -1.0303  0.5832  2.2097
 6004TIP3    H239648   6.569   1.542   8.643 -0.5696 -0.0226  0.4038
 6005TIP3   OH239649   0.368   3.553   2.140 -0.3324  0.7136 -0.3841
 6005TIP3    H139650   0.417   3.627   2.177  1.3329  0.8403 -2.6044
 6005TIP3    H239651   0.422   3.477   2.161 -0.4171  0.5359 -0.8201
 6006TIP3   OH239652   6.455   2.915   7.281  0.4446 -0.1119  0.1471
 6006TIP3    H139653   6.433   2.913   7.188 -0.1085 -1.3863  0.2916
 6006TIP3    H239654   6.430   3.003   7.309 -0.7754 -0.1966 -0.5962
 6007TIP3   OH239655   3.539   3.350   7.642  0.2375  0.5053  0.4077
 6007TIP3    H139656   3.592   3.276   7.671  0.9248  0.3923 -1.0404
 6007TIP3    H239657   3.464   3.350   7.700  0.2044 -1.3609  0.4172
 6008TIP3   OH239658   3.031   3.987   8.246  0.2979 -0.4603 -0.2090
 6008TIP3    H139659   3.016   3.951   8.333  2.3312  1.8222  1.1735
 6008TIP3    H239660   3.018   4.081   8.256  0.7024 -0.1294 -2.3719
 6009TIP3   OH239661   5.872   0.767   2.655 -0.6346  0.1997 -0.4179
 6009TIP3    H139662   5.917   0.715   2.589  0.9925  1.8340 -0.6834
 6009TIP3    H239663   5.795   0.715   2.678 -0.7833 -0.8352 -2.9227
 6010TIP3   OH239664   6.491   2.168   8.191 -0.4548 -0.3655  0.2473
 6010TIP3    H139665   6.456   2.114   8.121  1.0600  0.4665 -1.2460
 6010TIP3    H239666   6.585   2.175   8.171 -0.3504  1.6126  1.1653
 6011TIP3   OH239667   5.555   5.591   0.573  0.3843  0.2631 -0.2765
 6011TIP3    H139668   5.555   5.502   0.538 -0.3266  0.1187  0.0806
 6011TIP3    H239669   5.516   5.583   0.660  1.6540  0.6897  0.3727
 6012TIP3   OH239670   4.081   0.159   7.189 -0.3697  0.1270  0.3650
 6012TIP3    H139671   4.003   0.202   7.154  0.0786  0.9267  0.3413
 6012TIP3    H239672   4.108   0.213   7.264 -0.6895 -0.9627  1.3100
 6013TIP3   OH239673   4.616   5.625   1.037  0.0695 -0.2852  0.3348
 6013TIP3    H139674   4.670   5.642   1.114 -2.5253  1.7385  1.8683
 6013TIP3    H239675   4.542   5.574   1.070 -0.9123  0.2986 -0.8677
 6014TIP3   OH239676   2.616   4.652   6.076 -0.2857  0.4648 -0.5991
 6014TIP3    H139677   2.697   4.681   6.034  0.1818  1.6580  1.0128
 6014TIP3    H239678   2.633   4.562   6.101  0.6829  0.8030  0.0029
 6015TIP3   OH239679   3.122   4.395   7.882 -0.1468  0.2080 -0.3011
 6015TIP3    H139680   3.117   4.490   7.888 -0.9928  0.1185  0.6759
 6015TIP3    H239681   3.214   4.375   7.900 -0.4153  0.7126  1.8896
 6016TIP3   OH239682   2.959   4.418   0.405  0.1133 -0.2197 -0.4212
 6016TIP3    H139683   2.975   4.341   0.350  0.8555 -1.1470  1.0304
 6016TIP3    H239684   2.869   4.405   0.437  0.3989 -0.7423  0.1897
 6017TIP3   OH239685   1.197   4.636   7.451  0.1214  0.3006 -0.1919
 6017TIP3    H139686   1.138   4.591   7.390 -0.5877  2.3772 -1.1506
 6017TIP3    H239687   1.149   4.714   7.477  0.6801 -0.1696  2.5924
 6018TIP3   OH239688   4.737   4.054   7.260  0.2867  0.3106 -0.3127
 6018TIP3    H139689   4.654   4.102   7.259  0.1121  0.0045 -1.4684
 6018TIP3    H239690   4.734   3.999   7.182  0.9626 -0.7769  0.4028
 6019TIP3   OH239691   4.604   1.335   2.137 -0.2125 -0.0985 -0.0547
 6019TIP3    H139692   4.511   1.356   2.132 -0.3888 -0.1651  2.0134
 6019TIP3    H239693   4.645   1.416   2.168  0.4710 -0.0088 -1.1303
 6020TIP3   OH239694   2.944   3.899   6.885 -0.4296 -0.5231  0.3049
 6020TIP3    H139695   2.970   3.819   6.841  0.7303  0.9074 -1.7728
 6020TIP3    H239696   3.022   3.926   6.935 -0.5429 -0.2695  0.3501
 6021TIP3   OH239697   0.908   0.768   7.137  0.0408  0.2268 -0.3613
 6021TIP3    H139698   0.890   0.860   7.122 -2.3560 -0.1590 -0.1690
 6021TIP3    H239699   0.991   0.768   7.185 -1.1921  2.4862  2.0592
 6022TIP3   OH239700   3.045   5.032   1.596  0.3567 -0.1359  0.1138
 6022TIP3    H139701   3.136   5.058   1.580  0.1953  0.7606  0.5678
 6022TIP3    H239702   2.999   5.115   1.611 -0.3739 -0.6290  0.6661
 6023TIP3   OH239703   6.299   4.318   6.668  0.4326 -0.0638  0.7923
 6023TIP3    H139704   6.386   4.288   6.696  1.0337 -1.5082 -2.1966
 6023TIP3    H239705   6.239   4.267   6.722  1.4206  0.2940  2.2925
 6024TIP3   OH239706   6.287   1.232   0.155  0.1461 -0.0004 -0.3166
 6024TIP3    H139707   6.294   1.181   0.074  1.1548 -0.4581  0.0389
 6024TIP3    H239708   6.374   1.224   0.195 -0.7661 -1.0405  1.5720
 6025TIP3   OH239709   2.016   6.374   6.902  0.1772 -0.1644 -0.3971
 6025TIP3    H139710   2.039   6.282   6.911 -1.1379 -0.5275 -0.6192
 6025TIP3    H239711   2.087   6.411   6.849  0.8992 -0.9541 -0.0187
 6026TIP3   OH239712   4.234   2.531   7.467  0.5420  0.7672 -0.3272
 6026TIP3    H139713   4.325   2.500   7.471 -0.2393 -2.3381 -2.7519
 6026TIP3    H239714   4.189   2.480   7.535 -0.2875 -2.0127 -2.7537
 6027TIP3   OH239715   5.899   3.129   8.511  0.1147 -0.7028 -0.1609
 6027TIP3    H139716   5.924   3.040   8.487 -0.4192 -0.3163 -2.3533
 6027TIP3    H239717   5.808   3.122   8.540 -0.0907 -0.8038 -0.8262
 6028TIP3   OH239718   2.766   2.465   1.485 -0.3966 -0.1946 -0.1267
 6028TIP3    H139719   2.688   2.441   1.435 -0.9972  1.5182 -0.0832
 6028TIP3    H239720   2.748   2.554   1.515  0.2823 -0.8839  2.5261
 6029TIP3   OH239721   3.652   5.644   8.580  0.3417  0.0766  0.0256
 6029TIP3    H139722   3.734   5.651   8.532 -0.8143  1.2811 -1.9225
 6029TIP3    H239723   3.652   5.718   8.640  1.0801 -0.4999  0.7611
 6030TIP3   OH239724   4.678   5.223   1.889  0.0128  0.3016 -0.2697
 6030TIP3    H139725   4.607   5.165   1.918 -0.3239  0.7743 -0.1446
 6030TIP3    H239726   4.734   5.166   1.836  0.6843 -0.6169  1.3231
 6031TIP3   OH239727   3.634   2.687   7.803 -0.0954  0.5621 -0.4413
 6031TIP3    H139728   3.541   2.708   7.801 -0.2146  0.0639 -0.2416
 6031TIP3    H239729   3.646   2.635   7.883  0.8050  2.6652  0.8749
 6032TIP3   OH239730   6.659   2.050   0.923  0.4185  0.0976 -0.2186
 6032TIP3    H139731   6.589   2.094   0.970  1.2818  0.1932  1.0301
 6032TIP3    H239732   6.626   1.963   0.904 -0.1743  0.2694  0.0240
 6033TIP3   OH239733   6.066   4.430   1.026  0.0910 -0.1531  0.1833
 6033TIP3    H139734   6.032   4.509   1.067 -1.7111 -0.4699 -0.6043
 6033TIP3    H239735   6.127   4.462   0.960 -1.2565  0.6698 -0.7196
 6034TIP3   OH239736   3.274   4.619   6.953  0.3507  0.0794 -0.0884
 6034TIP3    H139737   3.359   4.643   6.991 -0.1022 -0.2332  1.1686
 6034TIP3    H239738   3.296   4.586   6.866  1.5457 -0.1093  0.2553
 6035TIP3   OH239739   1.720   4.216   7.398  0.1808 -0.2150 -0.4917
 6035TIP3    H139740   1.750   4.178   7.481 -0.0503 -2.2224 -1.2719
 6035TIP3    H239741   1.625   4.218   7.406  0.2232  2.6777  0.5129
 6036TIP3   OH239742   3.210   2.550   6.927  0.1138  0.3810 -0.2468
 6036TIP3    H139743   3.153   2.571   7.000 -0.5722 -0.1022 -0.6326
 6036TIP3    H239744   3.153   2.553   6.850  0.6402  0.0419 -0.6568
 6037TIP3   OH239745   6.082   2.526   6.741 -0.4759  0.6561 -0.4206
 6037TIP3    H139746   6.001   2.569   6.769 -0.2105  0.2024  1.0970
 6037TIP3    H239747   6.052   2.448   6.694 -0.9411  0.2342  0.5503
 6038TIP3   OH239748   0.601   6.022   0.091 -0.4677 -0.1377 -0.0743
 6038TIP3    H139749   0.585   5.936   0.052 -0.3167  0.9356 -2.6751
 6038TIP3    H239750   0.694   6.037   0.079  0.0292 -0.5645  2.6062
 6039TIP3   OH239751   0.393   0.986   1.149  0.0990 -0.4750  0.5923
 6039TIP3    H139752   0.473   1.039   1.146  0.3359 -0.8324  0.5209
 6039TIP3    H239753   0.340   1.018   1.077  0.7234 -1.0881 -0.1501
 6040TIP3   OH239754   2.771   5.323   0.635  0.1030  0.1332  0.4613
 6040TIP3    H139755   2.710   5.333   0.561  0.7015 -0.0364 -0.0592
 6040TIP3    H239756   2.749   5.395   0.694  0.7218  1.2783 -0.6662
 6041TIP3   OH239757   5.606   1.491   8.108 -0.3750  0.7098 -0.5712
 6041TIP3    H139758   5.599   1.414   8.052  1.9203 -0.3033  0.4001
 6041TIP3    H239759   5.669   1.548   8.063 -0.4243  1.0323 -0.2374
 6042TIP3   OH239760   1.261   5.351   7.998  0.1260  0.0351  0.1065
 6042TIP3    H139761   1.213   5.351   7.916  0.4833 -0.5450 -0.1059
 6042TIP3    H239762   1.324   5.280   7.989  0.8196  0.5924  0.5002
 6043TIP3   OH239763   1.679   3.865   7.085  0.2466  0.6816 -0.2187
 6043TIP3    H139764   1.593   3.824   7.072 -0.0712  1.0085  0.7752
 6043TIP3    H239765   1.666   3.956   7.056 -0.5580  1.5069  2.4483
 6044TIP3   OH239766   6.054   4.004   0.277  0.4392 -0.0902 -0.6737
 6044TIP3    H139767   6.088   4.093   0.278 -0.0865  0.1574  2.0822
 6044TIP3    H239768   5.979   4.007   0.218  0.8607  1.1129 -1.1621
 6045TIP3   OH239769   2.300   3.509   7.221 -0.2669  0.2613  0.0619
 6045TIP3    H139770   2.311   3.452   7.297 -2.1425 -0.9834 -0.5307
 6045TIP3    H239771   2.389   3.528   7.191  0.4355 -1.2306  1.1077
 6046TIP3   OH239772   3.270   4.789   8.830  0.4899  0.3780 -0.1375
 6046TIP3    H139773   3.221   4.736   8.892 -3.3064  1.7006 -1.6667
 6046TIP3    H239774   3.327   4.843   8.884  0.4184 -1.4099  1.8198
 6047TIP3   OH239775   1.538   5.318   8.618 -0.9579  0.5324 -0.1449
 6047TIP3    H139776   1.601   5.380   8.582 -1.1870  0.2064 -1.1454
 6047TIP3    H239777   1.524   5.255   8.547 -1.9948  0.2972  0.2595
 6048TIP3   OH239778   5.484   0.373   0.357  0.1720 -0.5233 -0.0763
 6048TIP3    H139779   5.568   0.419   0.354  1.7526 -3.2335 -0.4534
 6048TIP3    H239780   5.433   0.411   0.285  1.4138  0.5430 -0.4355
 6049TIP3   OH239781   0.582   0.891   2.088 -0.4268 -0.6046  0.0674
 6049TIP3    H139782   0.505   0.932   2.128  0.4019  1.9775 -0.8104
 6049TIP3    H239783   0.628   0.963   2.045  1.2695 -2.4731 -1.4121
 6050TIP3   OH239784   4.698   5.828   7.680 -0.0933 -0.1254 -0.8837
 6050TIP3    H139785   4.636   5.757   7.698 -0.8633  0.6196 -0.4745
 6050TIP3    H239786   4.643   5.907   7.678  1.0094  0.7662  0.9392
 6051TIP3   OH239787   2.813   2.005   2.257 -0.3014 -0.3194  0.2391
 6051TIP3    H139788   2.721   2.006   2.230  0.1603 -1.2635 -1.5122
 6051TIP3    H239789   2.814   2.053   2.340 -2.3488 -0.2004  0.2492
 6052TIP3   OH239790   3.995   3.134   8.472  0.5044 -0.0097  0.1401
 6052TIP3    H139791   4.085   3.131   8.440  0.2877  0.6940 -0.5553
 6052TIP3    H239792   3.950   3.064   8.425  0.6982 -0.4227  0.5573
 6053TIP3   OH239793   0.198   1.601   7.766 -0.4113 -0.2197 -0.4024
 6053TIP3    H139794   0.162   1.639   7.846  1.0671  0.8526 -0.1974
 6053TIP3    H239795   0.127   1.547   7.731 -1.7843  0.8737  0.5649
 6054TIP3   OH239796   6.723   6.652   8.171  0.1565  0.0067 -0.8372
 6054TIP3    H139797   6.734   6.730   8.226  1.5897 -0.0988 -0.9490
 6054TIP3    H239798   6.712   6.580   8.233  1.3967 -0.0597 -0.6786
 6055TIP3   OH239799   6.500   1.180   7.606  0.6493 -0.0987 -0.4859
 6055TIP3    H139800   6.450   1.256   7.636  1.3853 -0.3008  1.3867
 6055TIP3    H239801   6.517   1.197   7.513  1.9080  2.6867  0.1504
 6056TIP3   OH239802   3.103   1.602   0.844  0.1082  0.4831 -0.8731
 6056TIP3    H139803   3.185   1.606   0.892  0.7941  1.3759 -2.0673
 6056TIP3    H239804   3.053   1.678   0.875 -0.0646  0.2428 -0.5443
 6057TIP3   OH239805   0.599   0.594   1.166 -0.0329 -0.2016  0.1444
 6057TIP3    H139806   0.626   0.556   1.250  0.7905  1.1175  0.5117
 6057TIP3    H239807   0.677   0.639   1.134 -0.8952  0.9796 -0.3757
 6058TIP3   OH239808   1.010   4.834   8.759 -0.1204  0.1915  0.2769
 6058TIP3    H139809   0.985   4.746   8.789  0.7326  0.3939  1.6904
 6058TIP3    H239810   0.964   4.893   8.819 -2.7926  0.8729 -2.2409
 6059TIP3   OH239811   0.987   1.507   7.716 -0.2166  0.4029 -0.7655
 6059TIP3    H139812   1.032   1.581   7.756 -0.2845  0.1491 -0.2152
 6059TIP3    H239813   1.057   1.446   7.693 -0.1887  0.4871 -0.9032
 6060TIP3   OH239814   4.967   4.220   6.976 -0.1611 -0.6062 -0.0550
 6060TIP3    H139815   4.946   4.260   7.061 -2.3973  0.8462 -1.1974
 6060TIP3    H239816   5.024   4.284   6.933  0.3669 -0.9989  0.0548
 6061TIP3   OH239817   2.291   6.570   8.041 -0.3378 -0.2464 -0.3530
 6061TIP3    H139818   2.377   6.605   8.063 -1.1068  1.0172  0.7465
 6061TIP3    H239819   2.244   6.643   8.000 -1.8611  0.0153  1.6958
 6062TIP3   OH239820   6.710   1.289   8.647  0.3218  0.2794  0.1095
 6062TIP3    H139821   6.666   1.206   8.666  1.3786 -0.0292  1.3367
 6062TIP3    H239822   6.676   1.315   8.561 -0.9196 -0.8106  0.2423
 6063TIP3   OH239823   5.706   3.694   7.745  0.1190  0.4539 -1.0363
 6063TIP3    H139824   5.689   3.777   7.789 -0.2390  0.9615 -2.1115
 6063TIP3    H239825   5.746   3.639   7.813 -0.2931  1.2556 -0.1233
 6064TIP3   OH239826   0.424   0.814   6.567 -0.0224 -0.1036 -0.1294
 6064TIP3    H139827   0.428   0.734   6.620 -0.4650 -0.4291 -0.5850
 6064TIP3    H239828   0.400   0.882   6.629  2.4945  0.1130  0.7250
 6065TIP3   OH239829   3.702   3.926   8.839 -0.3193 -0.5515  0.3656
 6065TIP3    H139830   3.794   3.900   8.836 -0.0865  0.0284  1.9571
 6065TIP3    H239831   3.659   3.868   8.776  1.3849  0.3148 -1.7241
 6066TIP3   OH239832   1.098   1.585   1.854  0.2408 -0.3994 -0.2703
 6066TIP3    H139833   1.034   1.584   1.924  0.3457 -1.4813 -0.1779
 6066TIP3    H239834   1.047   1.571   1.774  0.4837 -2.7096 -0.0660
 6067TIP3   OH239835   4.258   6.278   6.903 -0.7294 -0.0551  0.3055
 6067TIP3    H139836   4.171   6.305   6.874 -0.2442  1.0384 -0.1859
 6067TIP3    H239837   4.244   6.247   6.993 -1.3406  2.0489  1.0193
 6068TIP3   OH239838   5.657   4.434   0.790  0.0127 -0.1242  0.4491
 6068TIP3    H139839   5.721   4.505   0.796  0.4603 -0.6128  1.9002
 6068TIP3    H239840   5.577   4.469   0.827 -0.0031 -0.1204  0.4118
 6069TIP3   OH239841   4.340   3.252   0.224  0.0376  0.2436 -0.2462
 6069TIP3    H139842   4.388   3.324   0.265  0.4771  0.2953 -0.8431
 6069TIP3    H239843   4.274   3.296   0.170  0.4849  0.2131 -0.8285
 6070TIP3   OH239844   5.711   4.464   1.491 -0.0367  0.5424 -0.2644
 6070TIP3    H139845   5.637   4.406   1.511 -0.1277  0.0906 -1.8279
 6070TIP3    H239846   5.749   4.428   1.412  0.9517  1.6586 -0.3206
 6071TIP3   OH239847   5.221   5.447   1.286 -0.0768  0.2332  0.0823
 6071TIP3    H139848   5.134   5.485   1.279 -1.1487 -2.1275 -0.4056
 6071TIP3    H239849   5.241   5.449   1.380 -1.1513 -0.1551  0.3339
 6072TIP3   OH239850   4.732   0.576   7.324  0.4051 -0.0652 -0.8489
 6072TIP3    H139851   4.726   0.659   7.371 -0.1768 -0.2356 -0.6051
 6072TIP3    H239852   4.820   0.544   7.342  0.2927  0.0240 -0.1298
 6073TIP3   OH239853   3.242   3.147   8.656  0.1199 -0.2250  0.1591
 6073TIP3    H139854   3.151   3.129   8.634  0.1892  0.5531 -0.7924
 6073TIP3    H239855   3.238   3.192   8.740 -0.3325 -0.6539  0.3703
 6074TIP3   OH239856   5.241   6.053   2.129 -0.1525 -0.0683 -0.1774
 6074TIP3    H139857   5.220   5.973   2.178  1.0481 -0.4297 -0.2203
 6074TIP3    H239858   5.325   6.033   2.086  1.0313  1.8030  1.1517
 6075TIP3   OH239859   5.927   3.583   0.301  0.2398 -0.3250  0.4307
 6075TIP3    H139860   5.859   3.600   0.365 -2.0426  0.6150 -2.0331
 6075TIP3    H239861   5.976   3.665   0.294  0.5017 -0.4360  0.9705
 6076TIP3   OH239862   4.792   3.177   0.150 -0.1747  0.5949  0.1401
 6076TIP3    H139863   4.797   3.154   0.243 -0.4307  1.0293  0.2626
 6076TIP3    H239864   4.868   3.134   0.111  1.3437  2.3848  0.9764
 6077TIP3   OH239865   5.453   4.517   8.921  0.1561 -0.0166 -0.1430
 6077TIP3    H139866   5.546   4.538   8.912  0.1447 -0.3510 -1.1345
 6077TIP3    H239867   5.412   4.601   8.945  0.8403 -0.0977  1.4687
 6078TIP3   OH239868   1.117   4.254   8.110  0.7835  0.5020 -0.1598
 6078TIP3    H139869   1.133   4.345   8.086  2.2497  0.5395  0.8151
 6078TIP3    H239870   1.040   4.229   8.059  0.1112  2.3868 -0.1617
 6079TIP3   OH239871   4.422   4.472   1.722 -0.0485  0.0912 -0.6507
 6079TIP3    H139872   4.481   4.397   1.732  0.8068  0.8372 -0.0007
 6079TIP3    H239873   4.372   4.452   1.643  1.8436 -0.0493 -1.8670
 6080TIP3   OH239874   6.651   4.193   0.099 -0.4092 -0.3428 -0.3804
 6080TIP3    H139875   6.631   4.263   0.161 -1.0011 -0.6503 -0.2111
 6080TIP3    H239876   6.710   4.135   0.147 -1.4671 -0.9804  0.1796
 6081TIP3   OH239877   5.604   1.709   0.875 -0.0460  0.1732 -0.0392
 6081TIP3    H139878   5.542   1.781   0.861 -2.1977 -1.5908 -0.1302
 6081TIP3    H239879   5.598   1.690   0.969 -1.2347 -1.3012 -0.3769
 6082TIP3   OH239880   3.380   0.372   7.408  0.6264  0.1536 -0.7674
 6082TIP3    H139881   3.447   0.432   7.440 -0.5026  1.4139 -0.6314
 6082TIP3    H239882   3.422   0.323   7.338  2.3624 -0.7975  0.8763
 6083TIP3   OH239883   2.903   5.374   6.298  0.5821  0.5503  0.2770
 6083TIP3    H139884   2.932   5.453   6.253 -0.2410 -0.4101 -2.0553
 6083TIP3    H239885   2.985   5.331   6.325  1.0413  1.9495  1.1914
 6084TIP3   OH239886   4.304   6.111   1.042 -0.2919  0.1968  0.1756
 6084TIP3    H139887   4.392   6.078   1.061  0.4517  1.7309 -0.4066
 6084TIP3    H239888   4.271   6.053   0.973  1.1001  0.8111 -1.0592
 6085TIP3   OH239889   0.150   2.286   8.750 -0.0520 -0.1523  0.2140
 6085TIP3    H139890   0.120   2.242   8.670  1.4855 -0.3755 -0.2646
 6085TIP3    H239891   0.083   2.353   8.767  0.3103  0.8616 -2.0644
 6086TIP3   OH239892   2.745   6.195   6.453 -0.1512  0.5475  0.0231
 6086TIP3    H139893   2.662   6.236   6.478 -0.0078 -0.2922  2.1059
 6086TIP3    H239894   2.720   6.111   6.415 -0.2751  0.6275 -0.0753
 6087TIP3   OH239895   0.018   6.223   0.373 -0.0157 -0.0548 -0.5211
 6087TIP3    H139896   0.112   6.211   0.372  0.1405  0.8627 -2.3878
 6087TIP3    H239897  -0.018   6.139   0.401  1.3375 -0.5102 -0.1057
 6088TIP3   OH239898   4.746   0.189   8.190 -0.2673  0.2982  0.0070
 6088TIP3    H139899   4.711   0.238   8.265 -1.6317 -1.2198  0.4261
 6088TIP3    H239900   4.766   0.103   8.226 -0.2069 -0.2103 -1.2049
 6089TIP3   OH239901   4.177   4.849   0.511  0.0294  0.2198  0.4764
 6089TIP3    H139902   4.198   4.868   0.419 -0.3373 -0.6593  0.2013
 6089TIP3    H239903   4.250   4.796   0.542 -0.5206 -0.6796  0.2671
 6090TIP3   OH239904   0.624   6.275   8.629 -0.0167 -0.5380  0.2189
 6090TIP3    H139905   0.621   6.287   8.534  0.5262 -2.6771 -0.1125
 6090TIP3    H239906   0.538   6.240   8.651  0.0376 -0.5244  0.4544
 6091TIP3   OH239907   2.584   4.119   0.305  0.2567  0.8974 -0.2777
 6091TIP3    H139908   2.601   4.077   0.390  0.5564  1.0486 -0.2622
 6091TIP3    H239909   2.521   4.061   0.262 -1.2550  1.7101  0.7504
 6092TIP3   OH239910   0.070   0.655   7.470  0.4054  0.2296 -0.2950
 6092TIP3    H139911   0.044   0.743   7.495 -2.7905 -0.1333 -1.8759
 6092TIP3    H239912   0.115   0.665   7.386 -1.2663  0.3095 -1.2232
 6093TIP3   OH239913   6.771   1.635   2.738  0.3858 -0.5759 -0.3299
 6093TIP3    H139914   6.762   1.728   2.719 -1.2413 -0.5712  0.3238
 6093TIP3    H239915   6.698   1.594   2.692  1.3736 -1.6111 -1.0253
 6094TIP3   OH239916   4.350   2.077   6.514  0.1690 -0.7654  0.1181
 6094TIP3    H139917   4.276   2.136   6.503 -0.0106 -0.6479  1.7432
 6094TIP3    H239918   4.335   2.036   6.599  2.0371 -0.6357  0.5433
 6095TIP3   OH239919   0.929   1.046   0.196  0.0621  0.1414  0.1925
 6095TIP3    H139920   0.986   1.056   0.120 -2.6249 -0.9297 -2.1549
 6095TIP3    H239921   0.910   0.953   0.201  0.7674  0.0470  2.7746
 6096TIP3   OH239922   0.035   3.186   8.399 -0.2727 -0.4921  0.0613
 6096TIP3    H139923   0.103   3.133   8.357 -0.5089 -0.6153 -0.1706
 6096TIP3    H239924  -0.047   3.153   8.362 -0.3478  0.9893 -1.1779
 6097TIP3   OH239925   0.228   0.443   2.113 -0.3927  0.2148  0.2051
 6097TIP3    H139926   0.276   0.520   2.084 -1.1373  0.3213 -0.7916
 6097TIP3    H239927   0.222   0.454   2.208  1.0548  0.4652  0.2818
 6098TIP3   OH239928   3.540   1.974   1.526  0.0561  0.0336  0.4527
 6098TIP3    H139929   3.565   2.063   1.504  0.1890 -0.0690  0.1857
 6098TIP3    H239930   3.446   1.970   1.506 -0.1078  0.3161  1.1310
 6099TIP3   OH239931   1.177   0.145   8.427  0.0599 -0.0883 -0.0966
 6099TIP3    H139932   1.262   0.187   8.442  0.5714 -1.1795  0.2038
 6099TIP3    H239933   1.165   0.148   8.333 -0.2257  1.2738 -0.0467
 6100TIP3   OH239934   1.621   0.842   1.294 -0.2738 -0.2522  0.3781
 6100TIP3    H139935   1.672   0.892   1.358  0.4303 -2.9771  2.0762
 6100TIP3    H239936   1.679   0.771   1.268 -1.3291 -0.4068 -1.7690
 6101TIP3   OH239937   0.574   6.430   0.030  0.2189  0.1389  0.2827
 6101TIP3    H139938   0.651   6.429  -0.027  0.8676  0.3149  1.1335
 6101TIP3    H239939   0.559   6.522   0.049  0.5021  0.0422  1.0318
 6102TIP3   OH239940   5.307   6.731   8.780  0.2815  0.0726 -0.4943
 6102TIP3    H139941   5.388   6.680   8.794  0.4221  0.6054  0.7686
 6102TIP3    H239942   5.238   6.665   8.778  0.6936 -0.3500 -1.0875
 6103TIP3   OH239943   3.629   5.816   0.545 -0.2304 -0.0497  0.2469
 6103TIP3    H139944   3.583   5.741   0.509  0.2876  0.7181 -2.2144
 6103TIP3    H239945   3.714   5.782   0.573 -0.1515 -0.4582 -0.4800
 6104TIP3   OH239946   2.927   5.967   6.955  0.0794  0.3134  0.2356
 6104TIP3    H139947   2.928   5.875   6.930 -1.2328  0.6344 -1.1091
 6104TIP3    H239948   2.919   6.015   6.873  2.2889  1.7344  0.7771
 6105TIP3   OH239949   0.496   6.016   6.366 -0.2580  0.1928  0.6427
 6105TIP3    H139950   0.494   6.098   6.316 -0.0152  0.7524  1.5414
 6105TIP3    H239951   0.502   6.043   6.457 -0.7528 -0.8242  0.9930
 6106TIP3   OH239952   3.278   3.161   2.220  0.2039  0.2059  0.0301
 6106TIP3    H139953   3.275   3.203   2.307  1.5087 -1.5154  0.9627
 6106TIP3    H239954   3.306   3.071   2.238  1.3344  0.0323 -2.2669
 6107TIP3   OH239955   4.299   2.638   1.893 -0.6099 -0.2602  0.3846
 6107TIP3    H139956   4.322   2.724   1.928  0.5980 -1.1816  2.0133
 6107TIP3    H239957   4.348   2.632   1.811 -2.1517  1.2768 -0.7246
 6108TIP3   OH239958   5.342   2.673   0.904  0.0162 -0.4329  0.5574
 6108TIP3    H139959   5.320   2.649   0.994 -2.6661 -1.3408 -0.2614
 6108TIP3    H239960   5.312   2.600   0.851 -0.8431  1.1805 -1.3191
 6109TIP3   OH239961   4.745   3.313   7.803  0.0184 -1.2474  0.0472
 6109TIP3    H139962   4.800   3.307   7.881 -0.8790 -0.3422  0.7708
 6109TIP3    H239963   4.785   3.383   7.751 -1.3605  0.6264  1.3784
 6110TIP3   OH239964   0.248   1.132   8.174 -0.0401 -0.1515 -0.0226
 6110TIP3    H139965   0.337   1.096   8.168 -0.4979 -1.3279 -0.1059
 6110TIP3    H239966   0.258   1.215   8.220  1.2943  0.4663 -1.3440
 6111TIP3   OH239967   4.913   0.835   8.503 -0.6458  0.8637  0.1424
 6111TIP3    H139968   4.943   0.889   8.430 -1.3427 -0.2647 -1.0264
 6111TIP3    H239969   4.865   0.764   8.462  1.1498 -1.2949  1.4951
 6112TIP3   OH239970   4.527   0.299   8.767 -0.4684  1.1277 -0.4907
 6112TIP3    H139971   4.599   0.252   8.808 -1.5045  0.3933  0.5351
 6112TIP3    H239972   4.569   0.355   8.702  0.8018 -1.2207 -1.7977
 6113TIP3   OH239973   2.687   1.066   0.178 -0.7176 -0.2542  0.0450
 6113TIP3    H139974   2.731   0.982   0.181  0.7128  0.4786  0.2136
 6113TIP3    H239975   2.596   1.046   0.202  0.0144 -1.4503  2.0923
 6114TIP3   OH239976   1.754   0.692   6.911  0.0810  0.2831  0.2206
 6114TIP3    H139977   1.804   0.757   6.861 -0.5746 -0.3742 -1.3220
 6114TIP3    H239978   1.811   0.615   6.915 -0.1030  0.1353 -0.0133
 6115TIP3   OH239979   4.216   2.328   8.192 -0.2206  0.1621  0.7154
 6115TIP3    H139980   4.272   2.280   8.254  0.2037  0.5468  0.6433
 6115TIP3    H239981   4.128   2.298   8.211 -0.0121 -0.3017  0.9835
 6116TIP3   OH239982   5.041   0.408   7.791  0.4299 -0.3432 -0.6183
 6116TIP3    H139983   5.054   0.352   7.715  0.2469 -0.2762 -0.6999
 6116TIP3    H239984   4.963   0.373   7.834  0.9459 -0.8282 -0.0556
 6117TIP3   OH239985   2.657   0.628   7.750 -0.3281 -0.2635 -0.5432
 6117TIP3    H139986   2.739   0.674   7.737  0.0694 -1.3370 -2.0590
 6117TIP3    H239987   2.590   0.690   7.722  0.0874 -0.0547 -1.0808
 6118TIP3   OH239988   5.551   0.790   1.734  0.0870 -0.1626  0.4348
 6118TIP3    H139989   5.550   0.850   1.808 -0.3156 -1.6343  1.6741
 6118TIP3    H239990   5.462   0.755   1.730 -0.1439  0.4987 -1.3060
 6119TIP3   OH239991   5.177   2.375   8.144  0.2166  0.4612 -0.1675
 6119TIP3    H139992   5.203   2.453   8.192 -1.9969  1.6940 -0.8108
 6119TIP3    H239993   5.118   2.329   8.205 -0.8331  0.8836 -0.8276
 6120TIP3   OH239994   3.736   2.646   0.905 -0.0059  0.4831  0.5112
 6120TIP3    H139995   3.778   2.695   0.833  0.2496  0.6827  0.7927
 6120TIP3    H239996   3.661   2.700   0.929 -0.3581  0.1831  0.0832
 6121TIP3   OH239997   4.858   2.217   7.843 -0.3266 -0.1775  0.5240
 6121TIP3    H139998   4.945   2.243   7.815 -0.6180 -0.9609 -1.2327
 6121TIP3    H239999   4.866   2.125   7.866 -0.3732  0.1423  1.9609
 6122TIP3   OH240000   6.411   2.869   8.430  0.0192 -0.0858  0.3223
 6122TIP3    H140001   6.338   2.808   8.419  0.4093 -1.0494  2.5290
 6122TIP3    H240002   6.372   2.955   8.421 -1.7586 -0.5168  2.8120
 6123TIP3   OH240003   3.292   3.998   1.240 -0.2561 -0.1621  0.1414
 6123TIP3    H140004   3.232   4.053   1.290  1.2944  2.0624 -0.3460
 6123TIP3    H240005   3.374   4.001   1.289  0.3801 -0.5301 -0.8729
 6124TIP3   OH240006   1.844   5.407   0.663  0.0719  0.3993  0.2623
 6124TIP3    H140007   1.818   5.421   0.572 -0.6221 -1.6766  0.0958
 6124TIP3    H240008   1.838   5.313   0.676  3.3009  0.2215  1.5472
 6125TIP3   OH240009   3.321   3.746   0.452  0.0678  0.7978  0.1331
 6125TIP3    H140010   3.313   3.777   0.542 -1.9670 -0.3862  0.4198
 6125TIP3    H240011   3.234   3.760   0.414 -0.0857 -1.7175 -0.6123
 6126TIP3   OH240012   1.945   5.216   8.044 -0.5819 -0.0561  0.1038
 6126TIP3    H140013   1.963   5.305   8.073  0.7527  0.2750 -1.5824
 6126TIP3    H240014   1.850   5.209   8.042 -0.6964  1.1730  0.6621
 6127TIP3   OH240015   4.634   2.594   1.160 -0.1397  0.4030  0.1155
 6127TIP3    H140016   4.712   2.636   1.197 -0.8115  1.0569  0.8443
 6127TIP3    H240017   4.647   2.597   1.066  1.3393 -0.7311  0.2389
 6128TIP3   OH240018   4.703   3.671   1.272 -0.1514 -0.1303  0.0475
 6128TIP3    H140019   4.777   3.727   1.295 -0.3334  0.0788  0.1255
 6128TIP3    H240020   4.702   3.671   1.177 -0.8951  0.9850  0.0497
 6129TIP3   OH240021   5.821   6.513   7.722  0.2820  0.0854  0.9581
 6129TIP3    H140022   5.822   6.484   7.631 -1.6998  0.7511  0.6664
 6129TIP3    H240023   5.894   6.574   7.730 -0.4478  1.2173 -0.6404
 6130TIP3   OH240024   1.438   2.121   7.941 -0.7079 -0.2825 -0.0828
 6130TIP3    H140025   1.454   2.139   7.848 -1.6882  0.5764 -0.1042
 6130TIP3    H240026   1.373   2.052   7.941 -2.1652  1.0330 -0.0875
 6131TIP3   OH240027   5.320   6.319   8.836 -0.1774  0.0356 -0.4245
 6131TIP3    H140028   5.410   6.347   8.855  0.2352 -0.2083 -1.8432
 6131TIP3    H240029   5.309   6.238   8.886  0.2822  0.2502  0.0305
 6132TIP3   OH240030   5.436   1.024   8.563  0.3699 -0.0404 -0.5981
 6132TIP3    H140031   5.397   1.073   8.491  1.2465  0.1519 -0.9549
 6132TIP3    H240032   5.530   1.019   8.542  1.2200  2.5681  1.9449
 6133TIP3   OH240033   6.025   2.142   7.833  0.3120 -0.3827  0.2497
 6133TIP3    H140034   6.096   2.194   7.795  1.7416 -0.2953  2.8095
 6133TIP3    H240035   6.045   2.138   7.926 -1.6925 -2.5661  0.6929
 6134TIP3   OH240036   2.502   1.636   7.933 -0.4148 -0.1085  0.1681
 6134TIP3    H140037   2.450   1.687   7.994  0.2292 -0.1706  0.7786
 6134TIP3    H240038   2.448   1.631   7.854 -0.6909  1.1014  0.2570
 6135TIP3   OH240039   6.318   2.653   0.134 -0.0055  0.0088  0.0628
 6135TIP3    H140040   6.246   2.709   0.163 -0.8520 -0.8181 -0.3969
 6135TIP3    H240041   6.392   2.713   0.122 -0.8736  1.0177 -0.3919
 6136TIP3   OH240042   6.138   3.064   0.773  0.3133  0.1631 -0.3935
 6136TIP3    H140043   6.067   3.065   0.708 -0.8141  0.3040  0.7905
 6136TIP3    H240044   6.187   3.144   0.756 -0.1722  0.3680 -0.8680
 6137TIP3   OH240045   3.624   4.926   2.569 -0.0903 -0.1753  0.1675
 6137TIP3    H140046   3.657   4.849   2.615  0.0518 -0.2156 -0.0028
 6137TIP3    H240047   3.703   4.971   2.538 -0.1721  0.0284  0.2485
 6138TIP3   OH240048   3.461   5.523   0.001 -0.3847  0.4246  0.5270
 6138TIP3    H140049   3.530   5.460   0.023 -0.8781 -0.5701 -0.6652
 6138TIP3    H240050   3.443   5.569   0.083 -1.0964 -2.0475  1.8492
 6139TIP3   OH240051   4.677   0.299   8.439 -0.1131 -0.6172  0.3317
 6139TIP3    H140052   4.733   0.240   8.489  0.1509 -1.0668 -0.4767
 6139TIP3    H240053   4.644   0.361   8.504 -1.4501 -2.4087  1.4591
 6140TIP3   OH240054   4.966   0.198   6.373  0.4934 -0.0163 -0.0691
 6140TIP3    H140055   4.994   0.179   6.462 -1.5113  0.4199  0.6872
 6140TIP3    H240056   4.946   0.112   6.335 -1.1348 -0.0334  0.7814
 6141TIP3   OH240057   2.105   6.243   0.477  0.0912 -0.3752  0.1768
 6141TIP3    H140058   2.133   6.177   0.540 -0.2188 -0.9876 -0.3255
 6141TIP3    H240059   2.067   6.194   0.405 -0.1494  0.3511 -0.2033
 6142TIP3   OH240060   3.556   1.252   7.148 -0.2055  0.2508  0.2665
 6142TIP3    H140061   3.475   1.241   7.197  0.2794 -0.8228  0.8571
 6142TIP3    H240062   3.584   1.163   7.128  0.7389  0.6176 -0.0797
 6143TIP3   OH240063   4.643   1.657   7.873  0.1806  0.2529 -0.4473
 6143TIP3    H140064   4.654   1.562   7.865 -0.5129  0.1713 -0.4754
 6143TIP3    H240065   4.557   1.674   7.834  1.3415  1.2123 -2.7814
 6144TIP3   OH240066   5.484   4.954   1.328  0.7889  0.9838  0.1450
 6144TIP3    H140067   5.550   5.007   1.284  2.1737 -0.2766  0.6439
 6144TIP3    H240068   5.524   4.929   1.411 -0.3618  0.2776  0.5146
 6145TIP3   OH240069   5.705   1.209   7.602 -0.3009  0.5448  0.0911
 6145TIP3    H140070   5.759   1.172   7.532  1.6194  0.7324  1.3943
 6145TIP3    H240071   5.616   1.181   7.581  0.3632 -0.3282 -1.8057
 6146TIP3   OH240072   1.528   0.284   7.460 -0.2962 -0.1294  0.0618
 6146TIP3    H140073   1.444   0.249   7.430  0.3456 -1.2446 -0.5260
 6146TIP3    H240074   1.579   0.294   7.379  0.1677  0.4547  0.4214
 6147TIP3   OH240075   0.789   4.612   7.465 -0.5796 -0.1706  0.1201
 6147TIP3    H140076   0.716   4.558   7.434 -0.1108 -0.6256 -0.2077
 6147TIP3    H240077   0.797   4.591   7.558  0.5344 -1.8041 -0.2944
 6148TIP3   OH240078   2.838   5.890   2.703  0.1759 -0.3569  0.2182
 6148TIP3    H140079   2.896   5.952   2.658 -0.3613  0.4560  0.6236
 6148TIP3    H240080   2.761   5.884   2.647 -0.3119  0.3276  0.8056
 6149TIP3   OH240081   4.402   6.083   0.160 -0.5519 -0.0051 -0.1145
 6149TIP3    H140082   4.395   6.006   0.217  1.1380 -0.7184 -0.7992
 6149TIP3    H240083   4.403   6.047   0.072  0.5905  0.7407 -0.4342
 6150TIP3   OH240084   0.911   3.145   0.184  0.7305  0.1610 -0.1261
 6150TIP3    H140085   0.938   3.105   0.102  0.5049 -0.4003  0.0692
 6150TIP3    H240086   0.818   3.164   0.172  0.2995 -1.3630  0.5474
 6151TIP3   OH240087   4.805   0.889   1.722 -0.2028 -0.4349 -0.0068
 6151TIP3    H140088   4.831   0.976   1.753  0.2689 -0.2925 -0.7780
 6151TIP3    H240089   4.723   0.904   1.675 -1.1803 -0.7248  1.5289
 6152TIP3   OH240090   1.837   4.654   2.179  0.6432  0.2405 -0.9500
 6152TIP3    H140091   1.834   4.715   2.106 -0.2659  1.0961 -0.2341
 6152TIP3    H240092   1.761   4.598   2.167  1.0514 -0.2731 -1.1906
 6153TIP3   OH240093   3.011   0.430   1.161  0.1834 -0.0938 -0.5466
 6153TIP3    H140094   3.022   0.338   1.139  1.3141  0.4766 -2.6707
 6153TIP3    H240095   2.982   0.430   1.252  0.6857 -2.5109 -0.3276
 6154TIP3   OH240096   3.720   5.907   1.800 -0.1080 -0.1762  1.0494
 6154TIP3    H140097   3.740   5.989   1.844  0.6852 -0.1554  0.6709
 6154TIP3    H240098   3.663   5.931   1.727  1.3335  0.2680  0.0253
 6155TIP3   OH240099   5.191   0.672   7.169 -0.3085  0.2351 -0.6216
 6155TIP3    H140100   5.199   0.610   7.097 -1.6963  0.0160 -0.6043
 6155TIP3    H240101   5.223   0.755   7.134  1.2764 -0.3868 -0.7370
 6156TIP3   OH240102   0.226   3.226   2.289 -0.1825  0.0386  0.3074
 6156TIP3    H140103   0.302   3.194   2.337 -1.2364 -2.6870  0.3377
 6156TIP3    H240104   0.252   3.221   2.197  0.3422  1.0305  0.3989
 6157TIP3   OH240105   4.670   6.043   0.362 -0.3604 -0.2201 -0.1325
 6157TIP3    H140106   4.645   5.980   0.429  0.0322 -1.2607 -0.9333
 6157TIP3    H240107   4.710   5.990   0.293  0.5007  0.9775 -0.5795
 6158TIP3   OH240108   4.605   0.305   0.647 -0.2913 -0.1972 -0.0655
 6158TIP3    H140109   4.562   0.313   0.562 -2.0645 -2.4196  0.5258
 6158TIP3    H240110   4.675   0.242   0.633  0.2058  0.3536 -0.1143
 6159TIP3   OH240111   1.880   0.285   1.386 -0.2169  0.4967  0.3472
 6159TIP3    H140112   1.871   0.214   1.449  1.7609  1.6544  2.0544
 6159TIP3    H240113   1.801   0.338   1.399 -0.4339  0.0402  0.9393
 6160TIP3   OH240114   5.943   1.187   1.088 -0.0581  0.0148 -0.2297
 6160TIP3    H140115   5.924   1.223   1.175  1.5426 -0.5230  0.3722
 6160TIP3    H240116   5.998   1.253   1.047  0.1681 -0.2686 -0.3805
 6161TIP3   OH240117   3.979   3.740   7.014  0.2440  0.7864  0.2579
 6161TIP3    H140118   4.032   3.797   6.958  0.6041  0.5929  0.4037
 6161TIP3    H240119   3.897   3.789   7.027 -0.2227  0.4240 -1.2030
 6162TIP3   OH240120   5.913   0.562   8.303  0.5574 -0.0308 -0.1929
 6162TIP3    H140121   5.901   0.536   8.212 -0.0903 -1.2780  0.2217
 6162TIP3    H240122   5.952   0.649   8.298  1.4828 -0.4816 -1.6650
 6163TIP3   OH240123   2.862   4.863   8.419  0.1243  0.4448 -0.2188
 6163TIP3    H140124   2.895   4.851   8.330  1.2615  2.1199 -0.0652
 6163TIP3    H240125   2.935   4.837   8.476 -0.1672  0.5290  0.2019
 6164TIP3   OH240126   5.098   5.401   6.987  0.0592  0.4129  0.1249
 6164TIP3    H140127   5.029   5.376   6.925  0.3903  0.1616 -0.1473
 6164TIP3    H240128   5.073   5.490   7.015  0.3107  0.8464 -0.9639
 6165TIP3   OH240129   6.145   4.835   7.705 -0.1742 -0.1444 -0.2091
 6165TIP3    H140130   6.052   4.812   7.699 -0.1431 -0.5658  0.7433
 6165TIP3    H240131   6.146   4.927   7.730 -0.4135 -0.7535  2.3890
 6166TIP3   OH240132   3.973   2.121   7.855  0.2038 -0.7361  0.0324
 6166TIP3    H140133   4.018   2.046   7.894  2.4383  0.3854 -0.2318
 6166TIP3    H240134   3.965   2.098   7.762  0.6011 -0.7700  0.0064
 6167TIP3   OH240135   0.712   2.834   7.727 -0.2532 -0.6484 -0.0508
 6167TIP3    H140136   0.704   2.892   7.652 -2.2493  2.0372  2.0638
 6167TIP3    H240137   0.798   2.854   7.764  0.0711 -0.8440 -0.6859
 6168TIP3   OH240138   0.303   3.746   1.418 -0.0253  0.5355  0.2172
 6168TIP3    H140139   0.258   3.666   1.445  1.6783 -0.2245  0.9921
 6168TIP3    H240140   0.261   3.815   1.468 -1.0414  0.0382  0.0907
 6169TIP3   OH240141   5.702   3.951   7.592  0.1565  0.5447 -0.1748
 6169TIP3    H140142   5.672   4.002   7.516  0.4264 -1.4286 -1.7048
 6169TIP3    H240143   5.790   3.922   7.568  0.0152 -0.6128  0.6306
 6170TIP3   OH240144   4.983   5.410   0.381 -0.5594 -0.2455  0.2761
 6170TIP3    H140145   5.072   5.396   0.415 -0.1461 -0.1624 -0.7402
 6170TIP3    H240146   4.927   5.398   0.457  0.1667 -2.1551  0.5575
 6171TIP3   OH240147   1.399   1.196   6.727 -0.0944 -0.2016  0.2029
 6171TIP3    H140148   1.355   1.276   6.700 -0.3320  0.5272  2.4995
 6171TIP3    H240149   1.353   1.169   6.807  0.8618 -1.8589  0.2418
 6172TIP3   OH240150   2.676   1.608   6.342  0.1841 -0.3007  0.5173
 6172TIP3    H140151   2.645   1.525   6.378 -0.9695 -0.3091 -0.4505
 6172TIP3    H240152   2.747   1.584   6.282  1.0193 -0.4170  1.5143
 6173TIP3   OH240153   5.434   6.726   7.143  0.2252  0.0803 -0.0119
 6173TIP3    H140154   5.442   6.820   7.129 -0.9803  0.0554 -1.0125
 6173TIP3    H240155   5.364   6.717   7.208 -0.4205 -0.1609 -0.7334
 6174TIP3   OH240156   5.068   5.418   8.029  0.0472  0.4062  0.3360
 6174TIP3    H140157   5.123   5.414   7.950 -0.0427  1.0202  0.2394
 6174TIP3    H240158   5.017   5.337   8.026  1.1212 -0.3082  0.5593
 6175TIP3   OH240159   1.503   2.368   7.094  0.2940  0.2698 -0.6118
 6175TIP3    H140160   1.502   2.289   7.040 -0.5802  0.6346 -1.1353
 6175TIP3    H240161   1.519   2.439   7.033  1.6479  0.4642 -0.0676
 6176TIP3   OH240162   4.021   6.311   8.590  0.1688 -0.2156 -0.0584
 6176TIP3    H140163   4.065   6.253   8.528  0.0945 -1.8980  1.4060
 6176TIP3    H240164   4.084   6.322   8.661 -1.4668 -2.2221  1.8144
 6177TIP3   OH240165   3.537   3.393   1.769  0.0366  0.2292  0.2476
 6177TIP3    H140166   3.520   3.359   1.681  3.0578  0.4705 -0.5399
 6177TIP3    H240167   3.629   3.374   1.785 -0.0882  1.3606  2.8561
 6178TIP3   OH240168   5.243   1.078   8.965 -0.1845  0.0273  0.3176
 6178TIP3    H140169   5.186   1.010   9.003 -0.1482  0.5503  1.3579
 6178TIP3    H240170   5.238   1.150   9.028  2.6940 -0.4054  1.2052
 6179TIP3   OH240171   2.892   0.435   2.002  0.4061  0.4699 -0.1175
 6179TIP3    H140172   2.936   0.389   1.930 -1.3352  0.2212 -1.0597
 6179TIP3    H240173   2.885   0.525   1.972 -0.7448  0.2695 -0.4937
 6180TIP3   OH240174   4.112   5.429   0.866 -0.0574 -0.0263  0.0571
 6180TIP3    H140175   4.048   5.486   0.824 -1.6083 -0.1590  2.0878
 6180TIP3    H240176   4.127   5.358   0.803 -2.0256 -0.0540 -0.4314
 6181TIP3   OH240177   2.723   0.660   1.662 -0.2536  0.6255  0.6247
 6181TIP3    H140178   2.641   0.630   1.622 -0.8492  1.8655  0.8613
 6181TIP3    H240179   2.697   0.690   1.749  0.3992  1.3590  0.5701
 6182TIP3   OH240180   4.621   0.979   7.503 -0.8436 -0.5505 -0.7502
 6182TIP3    H140181   4.567   0.921   7.557 -1.3752  0.0171 -0.6618
 6182TIP3    H240182   4.628   1.060   7.554  1.5922 -1.2144  0.0593
 6183TIP3   OH240183   3.130   3.066   0.352 -0.1022 -0.1624 -0.5629
 6183TIP3    H140184   3.106   3.151   0.315 -1.0877 -0.7826 -1.3964
 6183TIP3    H240185   3.196   3.031   0.292 -0.2466 -0.3075 -0.6383
 6184TIP3   OH240186   6.580   3.988   7.642 -0.0584 -0.1726 -0.1829
 6184TIP3    H140187   6.645   3.980   7.572 -0.6110 -2.0906 -0.5407
 6184TIP3    H240188   6.630   4.022   7.716  0.7508  0.9433 -1.1958
 6185TIP3   OH240189   4.399   3.855   8.077 -0.3785 -0.2105  0.2581
 6185TIP3    H140190   4.340   3.918   8.119 -0.7551  0.4033 -1.1590
 6185TIP3    H240191   4.483   3.901   8.073  0.1026 -0.8740  1.7532
 6186TIP3   OH240192   4.955   5.008   8.734 -0.0078 -0.4606  0.3890
 6186TIP3    H140193   4.988   4.947   8.669 -2.3429 -2.1780  0.7184
 6186TIP3    H240194   4.890   5.061   8.688 -0.5218 -0.6106  0.9222
 6187TIP3   OH240195   4.636   1.071   1.084 -0.8170  0.2495 -0.2305
 6187TIP3    H140196   4.579   0.994   1.075 -0.8879  0.4396 -1.5360
 6187TIP3    H240197   4.585   1.143   1.047  0.1242  0.4943 -1.0685
 6188TIP3   OH240198   3.321   2.059   7.687  0.1164  0.0981  0.2267
 6188TIP3    H140199   3.323   1.994   7.617  1.3708  0.7867 -0.4068
 6188TIP3    H240200   3.263   2.128   7.654  0.1693  0.1061  0.1504
 6189TIP3   OH240201   4.007   1.988   7.623 -0.0239 -0.4217 -0.0463
 6189TIP3    H140202   3.936   2.026   7.571 -0.9445 -0.6645  0.9810
 6189TIP3    H240203   4.026   1.904   7.580  1.3361  0.6959 -1.7452
 6190TIP3   OH240204   0.158   2.559   1.236 -0.1480 -0.1844 -0.2936
 6190TIP3    H140205   0.185   2.650   1.251  2.3150 -0.5146 -2.1599
 6190TIP3    H240206   0.088   2.565   1.171 -1.1141  0.4086  0.7530
 6191TIP3   OH240207   4.647   6.112   7.318  0.0156  0.0364  0.2822
 6191TIP3    H140208   4.604   6.092   7.235  1.9521  1.0296 -1.0404
 6191TIP3    H240209   4.696   6.032   7.339  0.6913  0.2767 -0.3316
 6192TIP3   OH240210   6.141   2.896   0.417 -0.0089  0.2578 -0.1146
 6192TIP3    H140211   6.133   2.931   0.328  0.5588 -0.7449 -0.5669
 6192TIP3    H240212   6.228   2.924   0.447 -1.3320  3.2973  1.3612
 6193TIP3   OH240213   2.478   5.477   0.663 -0.5783 -0.3176  0.2563
 6193TIP3    H140214   2.408   5.412   0.671 -2.5593  1.6571  0.0804
 6193TIP3    H240215   2.510   5.490   0.752 -1.7379  0.0428  0.6442
 6194TIP3   OH240216   2.987   6.439   8.208  0.0617 -0.4040  0.0995
 6194TIP3    H140217   2.915   6.432   8.145  0.5330 -2.3819 -0.3191
 6194TIP3    H240218   2.996   6.350   8.244  1.0890  0.2252  1.5096
 6195TIP3   OH240219   4.482   0.449   6.936  0.5216 -0.5403 -0.1763
 6195TIP3    H140220   4.391   0.436   6.964  0.2445 -0.2682 -0.9099
 6195TIP3    H240221   4.496   0.382   6.870 -0.0239  1.0439 -1.9854
 6196TIP3   OH240222   3.484   4.660   7.112  0.0741  0.6335 -0.2271
 6196TIP3    H140223   3.429   4.667   7.190 -1.0098 -2.5281 -0.5575
 6196TIP3    H240224   3.572   4.643   7.145 -0.3092 -0.3045  0.3419
 6197TIP3   OH240225   3.915   4.810   1.138 -0.1487  0.0078 -0.2934
 6197TIP3    H140226   4.004   4.781   1.157  0.0650 -1.2135 -2.7132
 6197TIP3    H240227   3.915   4.903   1.158  1.4392 -0.1316  0.4961
 6198TIP3   OH240228   3.921   1.086   8.905 -0.3507 -0.0639  0.1267
 6198TIP3    H140229   4.015   1.075   8.922 -0.4977 -0.8220  0.5147
 6198TIP3    H240230   3.881   1.084   8.992 -0.7485 -0.0263 -0.0558
 6199TIP3   OH240231   4.925   1.102   1.459  0.2744  0.3997 -0.5183
 6199TIP3    H140232   4.860   1.055   1.408 -0.1835  0.2140  0.2286
 6199TIP3    H240233   4.874   1.152   1.523  0.9062 -0.9761  1.1267
 6200TIP3   OH240234   2.041   4.548   2.332  0.5771 -0.8868  0.0701
 6200TIP3    H140235   1.972   4.605   2.300  0.3749 -0.0809  1.8481
 6200TIP3    H240236   2.061   4.490   2.258 -2.4188 -1.5777 -0.3217
 6201TIP3   OH240237   1.351   2.205   7.246 -0.4307 -0.1512 -0.0168
 6201TIP3    H140238   1.413   2.271   7.217 -0.8458 -0.4732 -1.7018
 6201TIP3    H240239   1.406   2.137   7.288  0.0247  1.0325  1.3912
 6202TIP3   OH240240   3.040   4.475   7.005  0.0153 -0.5260 -0.4224
 6202TIP3    H140241   3.118   4.527   6.985 -0.5603  1.1511  1.3291
 6202TIP3    H240242   2.994   4.526   7.072 -0.9960 -2.9672  0.8659
 6203TIP3   OH240243   5.532   1.161   1.671 -0.1578 -0.2902  0.2336
 6203TIP3    H140244   5.474   1.192   1.741  0.0541  0.4435  0.0962
 6203TIP3    H240245   5.568   1.079   1.705  0.7998  0.5930  1.4836
 6204TIP3   OH240246   1.976   6.637   8.500 -0.6860 -0.5053 -0.1774
 6204TIP3    H140247   2.029   6.566   8.464 -0.9148 -1.0402  0.5262
 6204TIP3    H240248   1.938   6.680   8.423 -0.4452 -1.0614 -0.6115
 6205TIP3   OH240249   4.379   4.978   1.232  0.0536  0.3647 -0.1624
 6205TIP3    H140250   4.305   4.918   1.242 -0.1861  0.0245 -3.1113
 6205TIP3    H240251   4.436   4.936   1.168  1.9481  1.4449  0.7238
 6206TIP3   OH240252   6.587   5.587   8.919 -0.5475 -0.5782  0.3026
 6206TIP3    H140253   6.524   5.583   8.991 -2.4320  0.7151 -1.1930
 6206TIP3    H240254   6.542   5.548   8.845 -0.5545  2.3757 -1.4149
 6207TIP3   OH240255   4.277   6.292   1.517  0.0007  0.3999  0.1703
 6207TIP3    H140256   4.260   6.372   1.466 -0.7113  1.0456  1.3864
 6207TIP3    H240257   4.308   6.229   1.452 -3.0326  0.4528 -1.5480
 6208TIP3   OH240258   0.203   0.631   0.130  0.3748  0.0926 -0.0253
 6208TIP3    H140259   0.197   0.725   0.147  0.6629  0.3401 -1.2151
 6208TIP3    H240260   0.159   0.619   0.046  1.0786 -0.7053 -0.2945
 6209TIP3   OH240261   2.378   3.777   1.319 -0.6793 -0.4036 -0.3918
 6209TIP3    H140262   2.451   3.722   1.346  0.4379  0.6667 -1.1636
 6209TIP3    H240263   2.416   3.865   1.310 -1.7699 -0.0748 -2.0845
 6210TIP3   OH240264   0.650   6.160   0.609 -0.1637 -0.6555  0.0298
 6210TIP3    H140265   0.659   6.112   0.527  1.6913  0.4342 -0.4579
 6210TIP3    H240266   0.700   6.109   0.672 -1.7097 -1.5697  0.5603
 6211TIP3   OH240267   5.128   3.417   8.335 -0.2332 -0.0836  0.2241
 6211TIP3    H140268   5.098   3.326   8.329  0.2770 -0.1778 -1.4504
 6211TIP3    H240269   5.198   3.423   8.270  0.1444  1.3609  0.7345
 6212TIP3   OH240270   1.685   4.334   2.121 -0.4695  0.3008  0.4702
 6212TIP3    H140271   1.773   4.298   2.111 -0.3308  0.4762  1.0727
 6212TIP3    H240272   1.668   4.377   2.037 -0.5102 -0.8664 -0.1565
 6213TIP3   OH240273   2.615   4.488   0.649 -0.1783 -0.1724  0.3013
 6213TIP3    H140274   2.652   4.556   0.592  0.5273  0.1721  1.1535
 6213TIP3    H240275   2.666   4.494   0.730 -0.1816 -1.6445  0.4330
 6214TIP3   OH240276   6.401   3.945   8.111  0.3086 -0.3027 -0.0970
 6214TIP3    H140277   6.389   3.860   8.070  0.2639 -0.5973  0.5201
 6214TIP3    H240278   6.462   3.991   8.054 -0.5008 -0.3450 -1.0117
 6215TIP3   OH240279   0.513   3.294   6.952 -0.6281  0.3241 -0.4732
 6215TIP3    H140280   0.481   3.205   6.962  0.7831 -0.0563  1.0602
 6215TIP3    H240281   0.570   3.291   6.876  1.0782 -0.6338  0.7824
 6216TIP3   OH240282   6.378   6.080   1.631  0.6814  0.9575  0.3068
 6216TIP3    H140283   6.407   6.108   1.718  0.0319  2.0914  0.1782
 6216TIP3    H240284   6.346   6.160   1.590 -3.1979 -0.2329  0.6387
 6217TIP3   OH240285   4.697   0.741   6.638 -0.4242 -0.8580 -0.3224
 6217TIP3    H140286   4.690   0.730   6.543  0.4950  1.9826 -0.8349
 6217TIP3    H240287   4.685   0.835   6.652  3.7426 -0.3690  1.8064
 6218TIP3   OH240288   5.746   4.634   8.878  0.6683  0.2598  0.5956
 6218TIP3    H140289   5.817   4.697   8.888 -1.6562  3.3115 -0.5691
 6218TIP3    H240290   5.731   4.630   8.784 -0.6778 -0.3472  0.8124
 6219TIP3   OH240291   3.488   3.682   7.981  0.8816  0.0066 -0.0956
 6219TIP3    H140292   3.554   3.725   8.035  1.4065 -0.0639 -0.6741
 6219TIP3    H240293   3.537   3.618   7.929  0.3955  0.1261 -0.7092
 6220TIP3   OH240294   5.695   2.779   1.241 -0.0915  0.1327  0.0077
 6220TIP3    H140295   5.694   2.694   1.285  0.8492  0.7732  1.3225
 6220TIP3    H240296   5.779   2.782   1.196  0.0062  0.4802  0.2100
 6221TIP3   OH240297   2.954   1.134   8.926  0.0348  0.6271  0.2746
 6221TIP3    H140298   3.012   1.194   8.879  0.3039 -0.1413 -0.3837
 6221TIP3    H240299   2.885   1.190   8.962  0.1776  1.3027 -0.4914
 6222TIP3   OH240300   5.174   5.245   7.361 -0.2833  0.0211  0.0139
 6222TIP3    H140301   5.161   5.157   7.324  1.5302 -0.3799  0.2303
 6222TIP3    H240302   5.201   5.299   7.287 -0.2969  0.1242  0.0835
 6223TIP3   OH240303   1.821   1.290   7.489  0.1266 -0.1880  0.4908
 6223TIP3    H140304   1.853   1.349   7.421  1.3071 -0.8963  0.4009
 6223TIP3    H240305   1.793   1.348   7.560 -2.0902  0.5985 -0.9589
 6224TIP3   OH240306   0.462   2.784   8.616 -0.5593 -0.3528 -0.7661
 6224TIP3    H140307   0.378   2.771   8.661 -0.7646  1.1595 -0.6604
 6224TIP3    H240308   0.473   2.879   8.612  2.3318 -0.4717  1.4093
 6225TIP3   OH240309   4.271   2.613   0.023  0.2384  0.1506  0.7542
 6225TIP3    H140310   4.335   2.568  -0.032  0.5015  1.1403  0.2194
 6225TIP3    H240311   4.298   2.705   0.021 -1.1024  0.5702  0.6233
 6226TIP3   OH240312   1.940   0.097   7.350  0.2802  0.2279  0.1933
 6226TIP3    H140313   1.907   0.019   7.395 -0.2681  0.5990  0.4434
 6226TIP3    H240314   1.862   0.147   7.329  0.5414  0.1306 -1.0675
 6227TIP3   OH240315   1.057   4.990   6.221  0.4513 -0.0048 -0.0836
 6227TIP3    H140316   1.079   4.905   6.259 -0.7163  0.5362  1.9839
 6227TIP3    H240317   1.141   5.029   6.198  1.2870 -0.4437  1.9631
 6228TIP3   OH240318   3.144   3.412   0.807  0.4792 -0.3456  0.0859
 6228TIP3    H140319   3.052   3.437   0.802 -0.0903 -1.6753  2.3659
 6228TIP3    H240320   3.180   3.434   0.720 -1.4710  1.9650 -0.2458
 6229TIP3   OH240321   4.945   2.852   1.446 -0.0181 -0.6885  0.0896
 6229TIP3    H140322   4.991   2.789   1.501 -1.5040 -0.5077  1.6085
 6229TIP3    H240323   4.974   2.938   1.477  0.7525 -0.5883 -0.8703
 6230TIP3   OH240324   6.271   6.062   0.095 -0.4458  0.4382  0.7812
 6230TIP3    H140325   6.363   6.087   0.098  0.2963 -2.0464  0.8050
 6230TIP3    H240326   6.251   6.034   0.184 -0.9500  0.0690  0.5519
 6231TIP3   OH240327   5.734   0.431   0.680 -0.1706  0.1271 -0.2163
 6231TIP3    H140328   5.797   0.500   0.660  0.1177  0.6485  2.2431
 6231TIP3    H240329   5.785   0.363   0.724 -0.7463 -0.9924 -1.2043
 6232TIP3   OH240330   1.932   5.369   1.245  0.1324  0.1527  0.1915
 6232TIP3    H140331   2.015   5.335   1.277 -0.1311 -1.8293 -1.0569
 6232TIP3    H240332   1.922   5.330   1.158 -1.7357  0.9598 -0.0027
 6233TIP3   OH240333   4.689   2.163   1.783  0.6463 -0.9001 -0.4687
 6233TIP3    H140334   4.647   2.195   1.862  0.8756 -1.2142 -0.2174
 6233TIP3    H240335   4.648   2.077   1.767 -1.1300  0.1411 -2.0280
 6234TIP3   OH240336   1.542   5.253   7.766  0.0428 -0.2049 -0.7503
 6234TIP3    H140337   1.516   5.343   7.744 -0.7028 -0.3318 -0.4107
 6234TIP3    H240338   1.460   5.205   7.774  0.2909 -0.3567  1.5123
 6235TIP3   OH240339   6.566   6.115   0.821  0.1030 -0.1125 -0.1125
 6235TIP3    H140340   6.529   6.140   0.736  0.0343  0.0905 -0.0232
 6235TIP3    H240341   6.574   6.198   0.869  0.9055 -0.1162 -0.2250
 6236TIP3   OH240342   2.158   2.505   7.417  0.4466 -0.2798 -0.2858
 6236TIP3    H140343   2.156   2.499   7.513  1.3217  1.4419 -0.1067
 6236TIP3    H240344   2.230   2.448   7.391  0.5752 -0.3222  0.1519
 6237TIP3   OH240345   3.484   1.103   1.812  0.0743  0.0449  0.4372
 6237TIP3    H140346   3.394   1.075   1.829 -0.0101  1.3959  2.6559
 6237TIP3    H240347   3.476   1.168   1.742 -0.6261 -0.1605  0.3232
 6238TIP3   OH240348   4.917   1.132   1.069 -0.7232  0.1438 -0.7027
 6238TIP3    H140349   4.884   1.153   0.981 -0.0850  0.0249 -0.9791
 6238TIP3    H240350   4.883   1.044   1.086  2.3586 -1.5951 -2.5396
 6239TIP3   OH240351   5.899   1.623   8.889  0.3919  0.0476 -0.4356
 6239TIP3    H140352   5.940   1.677   8.956  0.4130  0.9249 -1.1449
 6239TIP3    H240353   5.830   1.678   8.852 -1.7524 -1.4866  0.9802
 6240TIP3   OH240354   1.966   4.060   1.530  0.0426 -0.2772  0.3590
 6240TIP3    H140355   1.886   4.092   1.489  0.3454 -0.4882 -0.4016
 6240TIP3    H240356   2.026   4.042   1.458 -0.1296 -2.6716  0.7133
 6241TIP3   OH240357   4.028   1.998   0.142 -0.2383  0.7292  0.3824
 6241TIP3    H140358   4.115   2.026   0.170 -0.4710  1.0930  0.7551
 6241TIP3    H240359   3.993   2.072   0.092 -0.2038  0.4544 -0.0511
 6242TIP3   OH240360   5.217   5.898   0.576  0.3653  0.1377 -0.3512
 6242TIP3    H140361   5.270   5.969   0.614  1.8107 -1.0819 -0.0065
 6242TIP3    H240362   5.189   5.846   0.652  1.6490 -1.2170 -0.7718
 6243TIP3   OH240363   1.400   6.438   0.949 -0.0616  0.0174  0.3954
 6243TIP3    H140364   1.398   6.352   0.907  0.3976 -0.1240  0.6478
 6243TIP3    H240365   1.363   6.498   0.885  0.6428 -0.1902 -0.2087
 6244TIP3   OH240366   2.603   4.612   8.959 -0.7092 -0.4566  0.4479
 6244TIP3    H140367   2.646   4.587   8.878 -1.6359 -1.2232  0.1772
 6244TIP3    H240368   2.583   4.705   8.949  0.0649 -0.3060  0.2235
 6245TIP3   OH240369   3.335   5.694   0.220  0.9101  0.1587  0.1149
 6245TIP3    H140370   3.308   5.756   0.288  0.2016  0.1112 -0.1228
 6245TIP3    H240371   3.276   5.711   0.147  1.5773  0.1145 -0.4448
 6246TIP3   OH240372   1.442   6.738   8.903 -0.6593  0.3500 -0.0850
 6246TIP3    H140373   1.504   6.780   8.844  0.3612 -0.4713  0.3610
 6246TIP3    H240374   1.443   6.792   8.982 -1.5971  1.1302 -0.5942
 6247TIP3   OH240375   6.438   4.057   1.128  0.0769  0.1422  0.0920
 6247TIP3    H140376   6.416   3.973   1.167 -1.5650 -0.0898 -1.2585
 6247TIP3    H240377   6.361   4.112   1.144  0.2084  0.6716 -1.0058
 6248TIP3   OH240378   4.489   4.293   7.943  0.3387 -0.0058  0.1024
 6248TIP3    H140379   4.570   4.274   7.896  0.7496 -0.8798  1.1124
 6248TIP3    H240380   4.513   4.361   8.006 -0.1855  1.0964 -0.8653
 6249TIP3   OH240381   2.279   5.716   8.639 -0.3326  0.5025  0.0525
 6249TIP3    H140382   2.264   5.650   8.706  0.3608 -0.0780 -0.3494
 6249TIP3    H240383   2.265   5.670   8.556  0.7591  0.6802 -0.2501
 6250TIP3   OH240384   6.185   0.413   0.013  0.5063 -0.0426  0.9477
 6250TIP3    H140385   6.100   0.439   0.048  0.3404  1.4914 -0.4338
 6250TIP3    H240386   6.215   0.490  -0.036  2.0171 -1.0564  0.1879
 6251TIP3   OH240387   2.730   4.781   8.740  0.1804  0.4642 -0.2035
 6251TIP3    H140388   2.816   4.819   8.762  0.2917  1.0665 -1.6041
 6251TIP3    H240389   2.668   4.833   8.792  0.6348  0.0313  0.8116
 6252TIP3   OH240390   0.155   1.306   1.699  0.2820 -0.3606  0.1803
 6252TIP3    H140391   0.090   1.246   1.735 -1.4838  1.1397 -0.3375
 6252TIP3    H240392   0.110   1.347   1.625  1.8806  0.6439 -0.2712
 6253TIP3   OH240393   2.445   4.476   6.530 -0.5501  0.0952 -0.4712
 6253TIP3    H140394   2.368   4.423   6.555 -0.3256 -1.4699 -2.7304
 6253TIP3    H240395   2.517   4.413   6.527  0.4696  1.2077 -0.0882
 6254TIP3   OH240396   4.828   1.877   7.353  0.1740  0.5450  0.4259
 6254TIP3    H140397   4.839   1.789   7.317  0.1921 -1.0629  3.9175
 6254TIP3    H240398   4.895   1.929   7.311  1.6602 -1.7042 -0.1735
 6255TIP3   OH240399   5.130   1.727   0.882  0.1295 -0.1347 -0.0863
 6255TIP3    H140400   5.088   1.645   0.909 -0.3399  0.6589  1.6871
 6255TIP3    H240401   5.220   1.719   0.915 -0.1228  0.3519  0.7476
 6256TIP3   OH240402   3.791   1.926   1.991  0.2402  0.1756  0.5465
 6256TIP3    H140403   3.719   1.937   2.053  0.9779 -0.9742  1.6475
 6256TIP3    H240404   3.868   1.958   2.038  0.6274  0.3679 -0.2068
 6257TIP3   OH240405   0.091   1.911   8.523 -0.0087 -0.2134  0.0558
 6257TIP3    H140406   0.163   1.917   8.461  0.4631 -1.5142  0.4410
 6257TIP3    H240407   0.126   1.859   8.596 -0.7031  0.8406  1.1865
 6258TIP3   OH240408   0.061   5.614   2.077 -0.1665 -0.4001  0.1726
 6258TIP3    H140409   0.034   5.527   2.046 -3.0561  1.2026 -2.4933
 6258TIP3    H240410   0.016   5.625   2.160 -1.9523 -0.5677 -0.7222
 6259TIP3   OH240411   2.264   4.521   0.943  0.2474 -0.2916  0.2988
 6259TIP3    H140412   2.214   4.566   1.011  1.3574 -0.8134  1.5054
 6259TIP3    H240413   2.280   4.433   0.979  2.0855 -0.1127  0.0193
 6260TIP3   OH240414   5.544   5.811   2.330  0.2192  0.1581  0.1388
 6260TIP3    H140415   5.627   5.791   2.374 -0.0497  0.4858  0.8076
 6260TIP3    H240416   5.538   5.907   2.334 -0.1512  0.1398  0.0114
 6261TIP3   OH240417   0.975   5.425   7.156  0.0180 -0.9981  0.0381
 6261TIP3    H140418   0.997   5.386   7.240 -1.3721 -2.1142 -0.0830
 6261TIP3    H240419   1.059   5.429   7.109  0.8268 -0.2371  1.4940
 6262TIP3   OH240420   0.561   0.801   0.517 -0.1774 -0.3478 -0.7346
 6262TIP3    H140421   0.565   0.723   0.572 -1.0421 -0.0454 -0.2190
 6262TIP3    H240422   0.652   0.831   0.511 -0.2050  0.4418  1.7428
 6263TIP3   OH240423   3.735   3.842   7.036  0.7589 -0.5744 -0.1800
 6263TIP3    H140424   3.713   3.918   6.982 -1.6370 -0.5797  0.6778
 6263TIP3    H240425   3.700   3.767   6.987  2.9517 -1.1586 -0.9390
 6264TIP3   OH240426   2.845   5.125   8.869  0.4236 -0.0010 -0.5186
 6264TIP3    H140427   2.871   5.043   8.911 -0.1904 -1.7218 -3.2542
 6264TIP3    H240428   2.777   5.160   8.926 -0.4121 -2.2165 -0.0315
 6265TIP3   OH240429   2.517   1.592   0.325  0.1026 -0.1996 -0.1994
 6265TIP3    H140430   2.533   1.578   0.418  0.0885 -0.8321 -0.2897
 6265TIP3    H240431   2.428   1.629   0.322  0.2807  0.2644  0.0645
 6266TIP3   OH240432   3.735   6.172   1.900  0.2184 -0.4408  0.4527
 6266TIP3    H140433   3.829   6.179   1.912  0.4533  0.1332 -1.3212
 6266TIP3    H240434   3.699   6.252   1.939  0.7025  0.3245 -0.6058
 6267TIP3   OH240435   2.228   6.706   8.906  0.2907  0.4412  0.2187
 6267TIP3    H140436   2.252   6.627   8.955 -2.5583 -0.3203  0.6005
 6267TIP3    H240437   2.281   6.775   8.944  0.2625 -0.6636  2.4146
 6268TIP3   OH240438   5.017   3.670   0.321  0.2794  0.1331  0.4394
 6268TIP3    H140439   4.972   3.751   0.294 -1.0839 -0.0563  1.9736
 6268TIP3    H240440   4.949   3.603   0.316  1.4959 -1.0373 -1.1780
 6269TIP3   OH240441   1.255   3.880   8.025  0.5599  0.3375 -0.3271
 6269TIP3    H140442   1.341   3.842   8.040  1.3624  2.0107 -0.5497
 6269TIP3    H240443   1.272   3.969   7.994 -1.2410  0.6491 -0.5594
 6270TIP3   OH240444   4.704   4.356   7.333  0.1085  0.8479 -0.0526
 6270TIP3    H140445   4.686   4.429   7.392 -1.2604  1.4635 -1.1780
 6270TIP3    H240446   4.623   4.305   7.332  0.7242 -0.1579 -0.0433
 6271TIP3   OH240447   4.222   6.677   7.853  0.6189  0.1610 -0.5143
 6271TIP3    H140448   4.205   6.615   7.924  0.0279 -3.3024 -3.3467
 6271TIP3    H240449   4.155   6.744   7.863 -1.1372 -1.6498  0.7402
 6272TIP3   OH240450   6.315   3.504   8.460  0.0521  0.0903  0.0462
 6272TIP3    H140451   6.373   3.566   8.415  0.7038  0.3632  1.2092
 6272TIP3    H240452   6.344   3.418   8.431  0.2039  0.2778 -0.3545
 6273TIP3   OH240453   1.243   4.768   7.019 -0.2274  0.0158 -0.2129
 6273TIP3    H140454   1.312   4.721   7.067 -1.6975 -2.5986 -0.4846
 6273TIP3    H240455   1.163   4.751   7.069 -0.5949  4.6332  1.2517
 6274TIP3   OH240456   4.602   6.731   8.715  0.0989 -0.6348 -0.3053
 6274TIP3    H140457   4.548   6.669   8.764 -1.4609  0.2516 -0.8429
 6274TIP3    H240458   4.690   6.719   8.751 -0.0373 -3.4297 -0.6625
 6275TIP3   OH240459   1.846   4.391   7.842 -0.2011  0.1697  0.4417
 6275TIP3    H140460   1.902   4.466   7.858  0.8979 -0.6380  0.4980
 6275TIP3    H240461   1.761   4.429   7.819  0.3113  1.4142  0.5197
 6276TIP3   OH240462   0.659   2.006   0.940 -0.7890  0.0248  0.4452
 6276TIP3    H140463   0.653   1.940   1.009 -0.8010  1.1660  1.5724
 6276TIP3    H240464   0.569   2.031   0.922 -0.7890 -0.3282 -0.0312
 6277TIP3   OH240465   4.191   1.307   0.582  0.2856  0.8910 -0.8000
 6277TIP3    H140466   4.110   1.283   0.536  0.5663 -0.4068 -0.6597
 6277TIP3    H240467   4.256   1.317   0.512  1.3736 -3.5858 -0.7847
 6278TIP3   OH240468   6.070   1.973   0.591  0.3119  0.4359  0.2501
 6278TIP3    H140469   6.111   2.035   0.531  1.5245 -1.1919 -0.7059
 6278TIP3    H240470   6.001   1.932   0.539 -0.3412  0.8106  0.8073
 6279TIP3   OH240471   3.717   1.620   8.226  0.1572 -0.3964  0.2461
 6279TIP3    H140472   3.713   1.532   8.266 -2.8739 -2.2657 -3.4378
 6279TIP3    H240473   3.798   1.620   8.175 -0.3230 -1.6181 -0.5873
 6280TIP3   OH240474   1.885   3.118   0.843  0.4250  0.2447 -0.4312
 6280TIP3    H140475   1.957   3.181   0.838  1.1049 -0.6057 -3.6319
 6280TIP3    H240476   1.810   3.163   0.803  0.0693  0.0312 -0.0179
 6281TIP3   OH240477   4.947   1.914   0.875 -0.0741 -0.6831  0.7592
 6281TIP3    H140478   5.006   1.843   0.848 -0.5585 -0.3371 -1.4096
 6281TIP3    H240479   4.919   1.954   0.793 -1.0205  1.0584  1.8748
 6282TIP3   OH240480   6.649   2.738   8.935 -0.3314 -0.8815 -0.7338
 6282TIP3    H140481   6.611   2.825   8.922 -1.5110 -1.3751 -0.7734
 6282TIP3    H240482   6.692   2.742   9.021  0.6272  0.0621 -1.2392
 6283TIP3   OH240483   0.148   3.124   1.867  0.4760  0.0323 -0.7469
 6283TIP3    H140484   0.194   3.147   1.948  1.6837  1.4417 -1.7881
 6283TIP3    H240485   0.161   3.029   1.859  0.3853 -0.1253  0.6549
 6284TIP3   OH240486   1.236   1.909   6.094  0.0965  0.5196 -0.0443
 6284TIP3    H140487   1.170   1.979   6.097  0.9383  1.5956 -3.0681
 6284TIP3    H240488   1.190   1.836   6.052 -0.2121 -0.1093  1.3367
 6285TIP3   OH240489   5.580   3.704   0.088  0.0001 -0.5090 -0.0458
 6285TIP3    H140490   5.514   3.678   0.152  0.3572 -0.5404  0.3091
 6285TIP3    H240491   5.536   3.770   0.035  0.1894  0.6519  1.1943
 6286TIP3   OH240492   0.687   5.106   0.067 -0.0346 -0.3574  0.0473
 6286TIP3    H140493   0.717   5.144  -0.015 -1.4298  1.0889  0.1696
 6286TIP3    H240494   0.629   5.172   0.105 -1.4156 -2.0143  0.9695
 6287TIP3   OH240495   1.045   6.495   0.846  0.4673  0.1039 -0.8552
 6287TIP3    H140496   1.123   6.550   0.833  1.4507 -1.2557 -0.9265
 6287TIP3    H240497   1.040   6.483   0.940  0.6002 -0.1545 -0.8798
 6288TIP3   OH240498   4.423   3.294   0.649  0.1210  0.6304 -0.1546
 6288TIP3    H140499   4.465   3.217   0.688  0.4018  1.1569  0.6185
 6288TIP3    H240500   4.492   3.337   0.599  0.0968  0.6542 -0.1678
 6289TIP3   OH240501   2.266   2.525   8.267 -0.3850 -0.3084 -0.4776
 6289TIP3    H140502   2.258   2.575   8.186  0.7386  0.4127 -0.1592
 6289TIP3    H240503   2.264   2.590   8.337  0.3168 -0.7587 -0.0177
 6290TIP3   OH240504   0.423   0.563   0.634 -0.2850 -0.4888 -0.4980
 6290TIP3    H140505   0.458   0.484   0.675  0.9672 -1.3084 -2.9783
 6290TIP3    H240506   0.413   0.540   0.541 -1.4416  1.7698 -1.0120
 6291TIP3   OH240507   5.048   5.592   2.154 -0.1684 -0.6302  0.0721
 6291TIP3    H140508   5.070   5.578   2.246  3.0071  4.0486  0.3917
 6291TIP3    H240509   5.101   5.528   2.106 -1.7750 -3.0395  1.2976
 6292TIP3   OH240510   1.047   3.956   8.806 -0.0825 -0.1378 -0.4307
 6292TIP3    H140511   1.122   3.995   8.849  0.2927 -2.5118  1.2646
 6292TIP3    H240512   1.084   3.885   8.753 -0.9861 -0.4810 -0.6253
 6293TIP3   OH240513   6.040   4.045   7.246 -0.4046  0.1326 -0.0293
 6293TIP3    H140514   6.115   4.082   7.293  2.2463 -1.4538 -2.7146
 6293TIP3    H240515   6.033   4.096   7.166 -1.4944 -0.4914 -0.3658
 6294TIP3   OH240516   0.117   1.497   0.333 -0.0841  0.0451 -0.4917
 6294TIP3    H140517   0.202   1.463   0.361 -0.7769 -1.3399 -0.0037
 6294TIP3    H240518   0.110   1.583   0.374  1.8179  0.9818 -1.9526
 6295TIP3   OH240519   3.835   3.580   6.660  0.1282 -0.3673  0.2956
 6295TIP3    H140520   3.793   3.501   6.693 -0.5371  0.2313  0.9388
 6295TIP3    H240521   3.800   3.590   6.571 -1.8896  0.6190  1.1316
 6296TIP3   OH240522   4.392   3.279   7.502  0.1102  0.0508  0.2971
 6296TIP3    H140523   4.332   3.303   7.432 -1.1172  0.3591  1.3940
 6296TIP3    H240524   4.407   3.185   7.489 -1.3039 -0.2235  0.4592
 6297TIP3   OH240525   4.041   4.717   7.145  0.5901  0.8507 -0.4839
 6297TIP3    H140526   4.007   4.643   7.095  1.4530  0.4742 -0.5363
 6297TIP3    H240527   4.136   4.715   7.129  1.0492  0.1012  1.9255
 6298TIP3   OH240528   4.696   6.049   6.836 -0.1377  0.1747  0.3786
 6298TIP3    H140529   4.608   6.075   6.808  1.0323  0.8127 -3.2120
 6298TIP3    H240530   4.754   6.111   6.793  2.1340  0.1288  3.1047
 6299TIP3   OH240531   1.580   4.545   2.215  0.5540 -0.4398 -0.4677
 6299TIP3    H140532   1.496   4.540   2.261 -1.2399  1.5101 -3.2093
 6299TIP3    H240533   1.607   4.454   2.203 -2.1935 -1.2343 -1.1695
 6300TIP3   OH240534   2.279   4.722   0.723  0.5156 -0.5443  0.3451
 6300TIP3    H140535   2.187   4.733   0.743  0.6243  2.1454 -0.2257
 6300TIP3    H240536   2.321   4.703   0.807 -0.3878 -0.5486  0.7964
 6301TIP3   OH240537   4.888   2.408   1.178 -0.4565 -0.0488  0.0221
 6301TIP3    H140538   4.907   2.462   1.255  0.2158 -0.5199  0.1894
 6301TIP3    H240539   4.794   2.393   1.182 -0.9244  2.2645 -0.7807
 6302TIP3   OH240540   3.189   2.037   6.354  0.1864  0.7993 -0.0721
 6302TIP3    H140541   3.161   2.120   6.391 -1.2304  0.1995  0.2854
 6302TIP3    H240542   3.278   2.052   6.325 -0.4209  2.7768 -1.0797
 6303TIP3   OH240543   3.453   2.965   8.055  0.2649  0.0103  0.2887
 6303TIP3    H140544   3.417   2.886   8.015 -0.7059  0.0499  1.0365
 6303TIP3    H240545   3.491   2.935   8.138  0.4301  0.2391  0.2981
 6304TIP3   OH240546   5.874   5.445   1.848  0.1256  0.1131 -0.3028
 6304TIP3    H140547   5.936   5.500   1.800  1.6850  0.3189  1.7807
 6304TIP3    H240548   5.793   5.497   1.850  0.0864  0.2209 -2.3355
 6305TIP3   OH240549   5.676   2.369   8.327 -0.1361 -0.3945 -0.1348
 6305TIP3    H140550   5.734   2.294   8.340 -1.0390 -1.1257 -0.2548
 6305TIP3    H240551   5.633   2.353   8.244  0.7865  1.0420 -0.9310
 6306TIP3   OH240552   0.105   0.270   7.022 -0.0932  0.3414 -0.0427
 6306TIP3    H140553   0.186   0.220   7.031 -1.4345 -1.5960  2.0967
 6306TIP3    H240554   0.125   0.335   6.953  2.3798 -1.7684 -1.4925
 6307TIP3   OH240555   2.354   1.121   8.508  0.1584  0.3241  0.2744
 6307TIP3    H140556   2.394   1.094   8.590 -0.2623 -0.8306  0.1207
 6307TIP3    H240557   2.402   1.199   8.482  0.1687  0.8154  1.7031
 6308TIP3   OH240558   3.348   6.744   8.100 -0.4243  0.0687 -0.1075
 6308TIP3    H140559   3.438   6.738   8.067 -1.0980 -1.3226 -1.8465
 6308TIP3    H240560   3.293   6.735   8.022 -2.0786  0.1713  1.0030
 6309TIP3   OH240561   6.248   6.670   7.143  0.5314  0.7868 -0.2556
 6309TIP3    H140562   6.161   6.708   7.150  0.7890  1.0990  3.4094
 6309TIP3    H240563   6.301   6.737   7.101 -0.9429  0.4756 -2.8029
 6310TIP3   OH240564   4.554   2.222   7.517  0.0229  0.2379  0.3783
 6310TIP3    H140565   4.578   2.142   7.565  1.6362  0.2928 -0.2735
 6310TIP3    H240566   4.509   2.190   7.439 -0.5357  0.0437  0.7691
 6311TIP3   OH240567   1.539   3.676   8.485  0.3357 -0.2685 -0.1113
 6311TIP3    H140568   1.483   3.717   8.551  0.8829 -1.2676  1.0139
 6311TIP3    H240569   1.616   3.648   8.534  1.9693  1.2897 -1.6664
 6312TIP3   OH240570   6.302   5.254   8.170  0.9275 -0.2350  0.9569
 6312TIP3    H140571   6.294   5.304   8.089 -0.9244  0.2433  1.3972
 6312TIP3    H240572   6.247   5.177   8.157  0.7169 -0.2197  1.7150
 6313TIP3   OH240573   2.036   0.205   8.377  0.1429 -0.6334 -0.7494
 6313TIP3    H140574   2.010   0.128   8.327 -0.9501 -1.0870  0.4585
 6313TIP3    H240575   2.119   0.179   8.418  2.5309  0.6759 -4.2779
 6314TIP3   OH240576   0.790   6.536   7.837 -0.1057 -0.3167 -0.1592
 6314TIP3    H140577   0.766   6.494   7.754  0.1599 -0.5331 -0.1254
 6314TIP3    H240578   0.828   6.620   7.811  1.7906 -1.2008 -0.3664
 6315TIP3   OH240579   4.726   3.846   7.072 -0.5663 -0.1512  0.1859
 6315TIP3    H140580   4.697   3.773   7.017 -0.0307  1.1841 -1.9761
 6315TIP3    H240581   4.821   3.844   7.067 -0.4958 -0.1967  1.3621
 6316TIP3   OH240582   0.825   3.418   7.895 -0.3188  0.0524 -0.4808
 6316TIP3    H140583   0.826   3.372   7.811  1.0602  1.4009 -1.2665
 6316TIP3    H240584   0.736   3.409   7.927 -0.7518 -0.8724 -1.8730
 6317TIP3   OH240585   1.028   1.259   0.830 -0.5753  0.0877  0.1297
 6317TIP3    H140586   0.943   1.267   0.875 -0.6591  3.0363 -0.3359
 6317TIP3    H240587   1.088   1.310   0.884  0.8945 -1.6804  0.2631
 6318TIP3   OH240588   3.958   0.074   1.882 -0.3934  0.1399  0.0613
 6318TIP3    H140589   3.980   0.157   1.923  2.0160 -0.0810 -0.6240
 6318TIP3    H240590   3.863   0.079   1.867 -0.3999  2.5307  0.4755
 6319TIP3   OH240591   4.693   2.137   7.196 -0.3313  0.5169  0.0637
 6319TIP3    H140592   4.756   2.097   7.256 -0.3844  0.3747  0.0251
 6319TIP3    H240593   4.701   2.231   7.211 -0.1853  0.4924  0.1344
 6320TIP3   OH240594   1.162   5.138   0.003  0.3093 -0.3934  0.0155
 6320TIP3    H140595   1.181   5.226   0.033 -3.2817  0.0632  1.2847
 6320TIP3    H240596   1.202   5.134  -0.084  0.3568  2.5653 -0.1979
 6321TIP3   OH240597   4.074   1.569   2.269  0.3860 -0.8498 -0.5035
 6321TIP3    H140598   4.014   1.598   2.200 -0.2764  1.7156  0.9947
 6321TIP3    H240599   4.027   1.498   2.313  0.0730 -1.3445 -1.6112
 6322TIP3   OH240600   4.788   2.483   8.330 -0.1368  0.2094 -0.1098
 6322TIP3    H140601   4.851   2.422   8.369  0.0234  0.6707  0.3631
 6322TIP3    H240602   4.783   2.457   8.238  0.3216 -0.1870 -0.0269
 6323TIP3   OH240603   2.813   2.733   0.403 -0.0097  0.3626 -1.0643
 6323TIP3    H140604   2.868   2.672   0.452 -1.1650 -0.7606 -1.0959
 6323TIP3    H240605   2.748   2.763   0.467 -0.0562  0.7901 -1.3095
 6324TIP3   OH240606   4.257   5.712   0.008 -0.1123 -0.0064 -0.0999
 6324TIP3    H140607   4.165   5.737  -0.001  0.1965  1.3314  0.2376
 6324TIP3    H240608   4.283   5.682  -0.079 -1.3019 -2.0134  0.1946
 6325TIP3   OH240609   4.591   6.514   6.790 -0.2077  0.1674 -0.2732
 6325TIP3    H140610   4.608   6.607   6.803  0.2457 -0.0048  0.4691
 6325TIP3    H240611   4.670   6.471   6.822  0.2074 -0.4139 -1.9999
 6326TIP3   OH240612   0.615   6.666   0.299 -0.4288 -0.0552 -0.3052
 6326TIP3    H140613   0.533   6.679   0.346  0.3989  1.8485  0.7335
 6326TIP3    H240614   0.592   6.677   0.206 -1.4688 -0.3309 -0.0942
 6327TIP3   OH240615   3.637   4.707   2.407  0.2242 -0.3229 -0.2248
 6327TIP3    H140616   3.576   4.648   2.451  2.4357 -1.1147  1.9938
 6327TIP3    H240617   3.616   4.794   2.441  0.6959 -0.6767  1.0204
 6328TIP3   OH240618   5.970   6.395   7.474 -0.2082 -0.1940  0.5848
 6328TIP3    H140619   5.972   6.333   7.401 -3.0656  0.6809 -0.3852
 6328TIP3    H240620   5.935   6.475   7.435  1.1580  1.3280  2.3056
 6329TIP3   OH240621   4.269   6.496   1.314  0.3785  0.6572  0.3962
 6329TIP3    H140622   4.230   6.469   1.230 -0.2150 -0.6546  1.0655
 6329TIP3    H240623   4.359   6.520   1.292  0.5175 -0.5751 -0.4817
 6330TIP3   OH240624   2.835   6.003   1.050 -0.6879  0.0868 -0.0925
 6330TIP3    H140625   2.851   5.909   1.034  2.0142  0.4872 -0.1701
 6330TIP3    H240626   2.804   6.036   0.966 -0.0374 -0.4264 -0.5407
 6331TIP3   OH240627   6.448   1.592   0.575 -0.2753  0.4483 -1.0814
 6331TIP3    H140628   6.352   1.588   0.577 -0.2765  0.5416 -0.8859
 6331TIP3    H240629   6.472   1.618   0.664 -0.0723  0.5177 -1.1572
 6332TIP3   OH240630   5.197   2.553   1.141 -0.0100  0.1794  0.5113
 6332TIP3    H140631   5.277   2.501   1.132  0.7970  1.1756  1.7504
 6332TIP3    H240632   5.150   2.512   1.214 -1.3881 -1.2917 -1.0971
 6333TIP3   OH240633   4.609   5.622   8.293  0.3863 -0.9633  0.0832
 6333TIP3    H140634   4.666   5.561   8.339  2.5132 -0.0759 -1.1756
 6333TIP3    H240635   4.659   5.646   8.214 -1.0881  1.0653 -0.3194
 6334TIP3   OH240636   1.667   4.391   1.863  0.1503  0.5717 -0.0115
 6334TIP3    H140637   1.599   4.347   1.813 -0.3836  1.7792 -0.4004
 6334TIP3    H240638   1.748   4.375   1.815  0.2825 -1.3962  0.7861
 6335TIP3   OH240639   1.171   2.622   8.317  0.0216  0.2019 -0.2502
 6335TIP3    H140640   1.267   2.621   8.310 -0.0162  1.9717 -1.5940
 6335TIP3    H240641   1.141   2.570   8.242 -0.0767  0.1006 -0.1412
 6336TIP3   OH240642   3.993   2.014   0.503  0.1158 -0.6061 -0.4474
 6336TIP3    H140643   3.932   2.054   0.565  3.0449 -0.4146  2.5719
 6336TIP3    H240644   3.937   1.962   0.445 -3.0184  0.9776  0.8863
 6337TIP3   OH240645   4.568   3.676   8.746 -0.0026  0.0328  0.3895
 6337TIP3    H140646   4.591   3.674   8.653  2.9505  0.6016  1.0131
 6337TIP3    H240647   4.585   3.766   8.773  0.6604 -0.4734  1.7715
 6338TIP3   OH240648   6.334   5.840   1.913  0.1857 -0.1371 -0.4538
 6338TIP3    H140649   6.344   5.755   1.872 -0.8657 -1.3841  1.6945
 6338TIP3    H240650   6.243   5.866   1.894 -0.4573 -0.9284  1.2887
 6339TIP3   OH240651   6.209   5.481   1.649 -0.3092  0.0285  0.4916
 6339TIP3    H140652   6.156   5.404   1.628  0.0345 -0.1394  0.2331
 6339TIP3    H240653   6.145   5.550   1.666 -0.6341 -0.4494  1.2580
 6340TIP3   OH240654   2.964   6.358   8.659  0.0671  0.1750 -0.4331
 6340TIP3    H140655   3.031   6.411   8.615 -0.2408  1.6963  0.8263
 6340TIP3    H240656   3.013   6.286   8.700  0.8010  0.6586 -0.4388
 6341TIP3   OH240657   1.030   2.743   7.486  0.3428  0.2157  0.0037
 6341TIP3    H140658   0.944   2.765   7.450  1.1969  0.4444 -2.0799
 6341TIP3    H240659   1.025   2.768   7.578 -0.3821  4.7252 -1.0113
 6342TIP3   OH240660   3.930   1.131   7.012 -0.3511 -0.6574  0.1590
 6342TIP3    H140661   3.907   1.040   7.033  0.6710 -0.9422  0.0732
 6342TIP3    H240662   3.936   1.132   6.916  0.7794 -0.7858  0.2226
 6343TIP3   OH240663   1.375   5.073   1.064  0.0587 -0.5726  0.2739
 6343TIP3    H140664   1.302   5.130   1.040  1.8017  1.8509  0.3155
 6343TIP3    H240665   1.364   5.059   1.158 -1.8578 -2.6726 -0.1683
 6344TIP3   OH240666   6.425   4.011   0.568  1.3220  0.7388 -0.4386
 6344TIP3    H140667   6.336   4.008   0.533  1.7708 -1.1473 -1.5891
 6344TIP3    H240668   6.416   3.982   0.659  0.7683  0.2901 -0.6286
 6345TIP3   OH240669   3.921   5.964   8.436  0.1958 -0.0373 -0.3841
 6345TIP3    H140670   3.845   6.022   8.434 -0.3252 -0.6776  0.5569
 6345TIP3    H240671   3.898   5.895   8.498  1.8885  0.2337  0.6157
 6346TIP3   OH240672   5.303   5.391   7.169  0.4788  0.7199  0.2389
 6346TIP3    H140673   5.323   5.473   7.214 -0.1045  0.1103  1.6537
 6346TIP3    H240674   5.228   5.412   7.114  0.2184  1.1029  0.7309
 6347TIP3   OH240675   2.774   3.132   0.507 -0.2343 -0.1369 -0.2545
 6347TIP3    H140676   2.713   3.079   0.558  0.3581  0.5128  1.1914
 6347TIP3    H240677   2.761   3.104   0.416 -1.8521 -0.8043  0.1559
 6348TIP3   OH240678   5.536   0.780   8.345 -0.3039 -0.0462 -0.2439
 6348TIP3    H140679   5.566   0.696   8.310  0.0164 -0.2606  0.5224
 6348TIP3    H240680   5.580   0.846   8.292 -0.4758 -0.3609 -0.7850
 6349TIP3   OH240681   4.159   6.061   8.977 -0.1833 -0.3718 -0.2894
 6349TIP3    H140682   4.237   6.013   8.949  0.3733  1.2135 -1.6356
 6349TIP3    H240683   4.086   6.004   8.954  0.4467 -0.5854 -1.9106
 6350TIP3   OH240684   5.818   2.193   0.485  0.0853  0.9038 -0.2140
 6350TIP3    H140685   5.910   2.212   0.500  0.9282 -2.7443  0.0892
 6350TIP3    H240686   5.810   2.181   0.390  0.7765 -2.0451  0.0236
 6351TIP3   OH240687   4.865   0.432   2.076  0.4252  0.0042  0.2597
 6351TIP3    H140688   4.871   0.364   2.010  0.4541  1.1225 -0.9435
 6351TIP3    H240689   4.950   0.476   2.072  0.6535 -0.2997  1.4922
 6352TIP3   OH240690   4.124   1.051   1.314 -0.3300  0.4417 -0.5339
 6352TIP3    H140691   4.160   1.119   1.371 -0.2228 -1.5664  1.9928
 6352TIP3    H240692   4.124   1.090   1.227  1.5185  2.9480  0.4685
 6353TIP3   OH240693   5.024   0.747   1.849  0.8213  0.0781 -0.5600
 6353TIP3    H140694   4.968   0.753   1.772  1.8159 -0.6494 -1.3589
 6353TIP3    H240695   5.068   0.832   1.854  0.7954  0.1077 -0.8400
 6354TIP3   OH240696   1.228   3.059   7.728 -0.4331 -0.6387  0.2593
 6354TIP3    H140697   1.240   2.969   7.699  1.4167 -0.9403  1.7500
 6354TIP3    H240698   1.317   3.095   7.733 -0.9435  0.5282  1.8960
 6355TIP3   OH240699   6.206   1.747   8.613 -0.5022 -0.5626 -0.2241
 6355TIP3    H140700   6.201   1.842   8.604  0.1385 -0.4138  0.8588
 6355TIP3    H240701   6.289   1.723   8.573 -0.5418 -0.6428 -0.2593
 6356TIP3   OH240702   0.976   6.602   2.564 -0.1035 -0.4566  0.0161
 6356TIP3    H140703   0.978   6.592   2.469 -1.7827 -2.6859  0.1482
 6356TIP3    H240704   0.884   6.593   2.588  0.1925  0.6972  1.8463
 6357TIP3   OH240705   5.182   2.805   0.122 -0.4787 -0.8133  0.4536
 6357TIP3    H140706   5.244   2.754   0.069  1.1460  2.5950 -1.2715
 6357TIP3    H240707   5.228   2.821   0.204  0.5029  0.5920 -0.3171
 6358TIP3   OH240708   1.052   5.398   8.143 -0.4666 -0.6493  0.0811
 6358TIP3    H140709   1.138   5.383   8.103 -1.4374 -2.6372 -1.3937
 6358TIP3    H240710   1.046   5.332   8.211  1.0699  2.5353  3.7334
 6359TIP3   OH240711   1.803   0.968   1.086 -0.4806  0.1832  0.3410
 6359TIP3    H140712   1.837   1.031   1.149 -0.0592 -0.3688  0.6739
 6359TIP3    H240713   1.737   0.919   1.135 -0.4119 -0.0051  0.2436
 6360TIP3   OH240714   1.138   6.494   8.670 -0.4791 -0.1974 -0.3845
 6360TIP3    H140715   1.129   6.564   8.734 -0.3551  2.3243 -2.9279
 6360TIP3    H240716   1.232   6.488   8.654 -0.6368  0.6229 -1.7376
 6361TIP3   OH240717   3.951   4.737   8.782 -0.2599 -0.3580  0.5832
 6361TIP3    H140718   4.011   4.675   8.823 -1.7710 -1.1878  1.6570
 6361TIP3    H240719   3.980   4.743   8.691  0.7949 -1.5229  0.8208
 6362TIP3   OH240720   3.456   0.085   8.416  0.2162 -0.3734  0.6152
 6362TIP3    H140721   3.481   0.176   8.395 -2.0079 -0.1576 -1.5448
 6362TIP3    H240722   3.385   0.094   8.478 -0.7126 -0.5499 -0.3951
 6363TIP3   OH240723   4.406   6.628   8.858 -0.4773 -0.2398 -0.2473
 6363TIP3    H140724   4.386   6.618   8.951 -1.6635 -0.9667 -0.5559
 6363TIP3    H240725   4.411   6.538   8.825  2.1448 -0.0890 -0.4816
 6364TIP3   OH240726   1.146   5.645   2.293  0.5046 -0.1422 -0.1802
 6364TIP3    H140727   1.081   5.681   2.354  1.2447  0.1743  0.4366
 6364TIP3    H240728   1.097   5.582   2.241 -0.3173  0.1393  0.2289
 6365TIP3   OH240729   1.722   5.514   6.512 -0.5521 -0.0564 -0.4029
 6365TIP3    H140730   1.644   5.532   6.565 -0.8390 -0.5903 -0.6255
 6365TIP3    H240731   1.726   5.418   6.508  0.5498 -0.0554  0.2219
 6366TIP3   OH240732   5.888   5.459   2.433  0.1627  0.5652  0.6305
 6366TIP3    H140733   5.974   5.460   2.475  0.8970  3.1649 -0.7003
 6366TIP3    H240734   5.849   5.543   2.456 -0.5035  0.9353 -1.6346
 6367TIP3   OH240735   6.762   3.651   6.565 -1.2824  1.0880  0.2162
 6367TIP3    H140736   6.700   3.588   6.529 -2.2987  1.5314  1.1519
 6367TIP3    H240737   6.733   3.736   6.532 -0.7999  1.2359  0.1588
 6368TIP3   OH240738   1.312   5.689   8.491 -0.0497 -0.6114  0.0208
 6368TIP3    H140739   1.256   5.654   8.423 -1.9320 -2.8823  2.5371
 6368TIP3    H240740   1.368   5.616   8.518  1.3073  0.4805  0.3377
 6369TIP3   OH240741   4.623   1.602   6.789  0.3548 -0.7328  0.6418
 6369TIP3    H140742   4.585   1.673   6.841 -0.2921  0.4527 -1.3161
 6369TIP3    H240743   4.548   1.549   6.762  0.4238 -0.2370 -0.5941
 6370TIP3   OH240744   2.700   3.431   7.067 -0.2128  0.2758  0.2124
 6370TIP3    H140745   2.726   3.498   7.004 -0.5994  0.0643 -0.1749
 6370TIP3    H240746   2.761   3.442   7.140 -0.2285  1.0025  0.1229
 6371TIP3   OH240747   5.451   4.792   8.233 -0.0829 -0.0232 -0.6059
 6371TIP3    H140748   5.475   4.802   8.141 -0.1010 -0.6816 -0.6830
 6371TIP3    H240749   5.358   4.767   8.231  0.1709 -0.9903 -0.4497
 6372TIP3   OH240750   6.146   0.277   1.599 -0.0153 -0.5867  0.0660
 6372TIP3    H140751   6.092   0.218   1.653  0.0087 -1.0251 -0.3831
 6372TIP3    H240752   6.098   0.359   1.599  0.8275 -0.0318  2.1680
 6373TIP3   OH240753   5.749   1.564   8.639 -0.6439 -1.1126  0.5582
 6373TIP3    H140754   5.819   1.623   8.612 -1.6358  0.0937  0.5089
 6373TIP3    H240755   5.786   1.476   8.629  0.2814 -0.5744 -1.0947
 6374TIP3   OH240756   5.211   1.488   8.034 -0.5968  0.0441  0.4028
 6374TIP3    H140757   5.276   1.509   8.101 -0.0768  1.9337 -0.6276
 6374TIP3    H240758   5.263   1.472   7.955 -1.2808 -0.6015  0.0706
 6375TIP3   OH240759   4.384   3.513   1.545  0.9893 -0.8448 -0.1972
 6375TIP3    H140760   4.324   3.521   1.471  1.1235 -1.8566 -0.4291
 6375TIP3    H240761   4.399   3.418   1.554 -0.8808 -1.0120  2.5915
 6376TIP3   OH240762   5.571   0.115   1.897  0.5106  0.3583 -0.2477
 6376TIP3    H140763   5.617   0.101   1.980  0.0272  3.3344  0.6516
 6376TIP3    H240764   5.480   0.132   1.923 -0.1435 -0.8425 -1.6181
 6377TIP3   OH240765   6.395   3.007   0.472  0.1298 -0.0491  0.4592
 6377TIP3    H140766   6.386   3.037   0.381  2.8650 -1.0064 -0.2140
 6377TIP3    H240767   6.436   3.080   0.518 -0.6732  0.1991  0.7969
 6378TIP3   OH240768   2.707   1.552   8.831  0.0506 -0.7318 -0.0058
 6378TIP3    H140769   2.716   1.648   8.833  1.0515 -0.8188  0.1915
 6378TIP3    H240770   2.632   1.536   8.775  1.5467  0.0888 -2.3697
 6379TIP3   OH240771   1.728   4.778   8.018 -0.1687 -0.1650 -0.3390
 6379TIP3    H140772   1.788   4.852   8.014 -0.3890  0.1421  1.1551
 6379TIP3    H240773   1.648   4.814   8.056 -0.4085 -1.0828  0.0727
 6380TIP3   OH240774   4.544   4.355   1.399 -0.1093  0.5564 -0.2391
 6380TIP3    H140775   4.515   4.329   1.311 -0.5039 -0.8935  0.3030
 6380TIP3    H240776   4.495   4.435   1.418 -0.6889  0.3843 -0.9734
 6381TIP3   OH240777   2.270   6.572   7.752 -0.4494 -0.4689 -0.3523
 6381TIP3    H140778   2.231   6.536   7.832 -0.7415 -0.1229 -0.3331
 6381TIP3    H240779   2.208   6.640   7.725 -0.7503 -1.0936 -1.2978
 6382TIP3   OH240780   6.496   0.759   1.770  0.3318 -0.0624 -0.2157
 6382TIP3    H140781   6.449   0.742   1.851  1.6501 -1.9131  0.2294
 6382TIP3    H240782   6.582   0.718   1.783  1.3583  1.4643 -1.7363
 6383TIP3   OH240783   5.429   1.879   1.142 -0.2766 -0.1811  0.6236
 6383TIP3    H140784   5.371   1.854   1.214  0.5891 -1.1550  1.0163
 6383TIP3    H240785   5.386   1.847   1.063  0.1447 -1.7671  0.9965
 6384TIP3   OH240786   4.472   0.612   1.710  0.6749  0.1153 -0.0226
 6384TIP3    H140787   4.397   0.633   1.765  0.5015 -0.9640  0.1715
 6384TIP3    H240788   4.438   0.614   1.621  0.3329 -0.6959  0.0874
 6385TIP3   OH240789   4.039   5.909   7.402  0.6526  0.0720  0.5962
 6385TIP3    H140790   3.973   5.956   7.453  0.0384  3.0485 -2.5992
 6385TIP3    H240791   3.998   5.895   7.317  3.0687 -0.8961 -0.4845
 6386TIP3   OH240792   5.415   4.261   8.699  0.2911 -0.3261 -0.8556
 6386TIP3    H140793   5.503   4.252   8.662  1.4491 -1.2047  1.7969
 6386TIP3    H240794   5.394   4.354   8.691  0.8574 -0.3279 -2.7220
 6387TIP3   OH240795   1.067   5.649   0.318 -0.0768 -0.1335 -0.0992
 6387TIP3    H140796   1.143   5.646   0.376  0.3933  2.3558 -0.4744
 6387TIP3    H240797   1.104   5.658   0.230 -0.7791  0.5536 -0.3371
 6388TIP3   OH240798   6.091   5.448   8.738 -0.8175 -0.0716  0.4625
 6388TIP3    H140799   6.036   5.402   8.676 -0.8043 -0.7043  0.9101
 6388TIP3    H240800   6.077   5.541   8.719  0.8571 -0.2173 -1.9685
 6389TIP3   OH240801   6.531   4.968   1.637 -0.1369 -0.0894  0.6966
 6389TIP3    H140802   6.452   5.022   1.633 -0.0600  0.1136  1.7527
 6389TIP3    H240803   6.540   4.944   1.729  1.4824  0.5719  0.7559
 6390TIP3   OH240804   5.145   3.985   1.825  1.1082 -0.3494  0.1372
 6390TIP3    H140805   5.083   3.923   1.864  1.5866 -0.1698  1.2089
 6390TIP3    H240806   5.215   3.993   1.890  1.7002  0.3140 -0.5680
 6391TIP3   OH240807   4.055   6.296   0.089 -0.1865  1.0163 -0.3426
 6391TIP3    H140808   4.117   6.307   0.161  1.2077  1.6970 -1.5975
 6391TIP3    H240809   4.076   6.210   0.051 -0.7742  0.7513 -0.0850
 6392TIP3   OH240810   4.710   0.633   6.392 -0.7823 -0.9566 -0.4065
 6392TIP3    H140811   4.740   0.693   6.323  0.3497 -0.6506  0.3319
 6392TIP3    H240812   4.723   0.546   6.355  1.2044 -0.8386 -0.0540
 6393TIP3   OH240813   2.973   5.586   7.073  0.2581 -0.1905  0.0132
 6393TIP3    H140814   3.069   5.591   7.076  0.2323  0.9725 -0.3738
 6393TIP3    H240815   2.949   5.647   7.002 -0.9241  2.1472  2.2579
 6394TIP3   OH240816   6.661   6.410   1.636 -0.2755  0.5342  0.6338
 6394TIP3    H140817   6.724   6.382   1.569  0.0395  1.3433  0.5770
 6394TIP3    H240818   6.593   6.456   1.587 -0.2930  0.7079  0.8201
 6395TIP3   OH240819   1.776   5.728   8.347 -0.2394  0.1307  0.5495
 6395TIP3    H140820   1.847   5.762   8.401 -1.2792  1.4495  1.1513
 6395TIP3    H240821   1.795   5.760   8.259  0.7824 -0.9556  0.3455
 6396TIP3   OH240822   0.274   1.844   8.719  0.0532  0.4616  0.6801
 6396TIP3    H140823   0.330   1.886   8.654 -0.9462  0.5108 -0.1718
 6396TIP3    H240824   0.335   1.799   8.778  0.9007 -1.4663 -1.5642
 6397TIP3   OH240825   2.780   6.405   6.980 -0.2528 -0.2081 -0.6990
 6397TIP3    H140826   2.723   6.360   6.917 -1.2682  2.6024 -1.9550
 6397TIP3    H240827   2.722   6.425   7.054  0.5447 -2.0760  0.5113
 6398TIP3   OH240828   1.413   1.953   1.058  0.4721  0.1863  0.2850
 6398TIP3    H140829   1.498   1.994   1.042  1.1761 -1.3525 -0.0428
 6398TIP3    H240830   1.369   1.955   0.973  0.6518 -0.0532  0.1852
 6399TIP3   OH240831   3.284   6.120   1.301  0.1877  0.2678 -0.0472
 6399TIP3    H140832   3.319   6.041   1.261  0.0676  0.5721 -0.7684
 6399TIP3    H240833   3.277   6.099   1.394  0.3851 -0.4817 -0.1970
 6400TIP3   OH240834   6.333   4.210   6.976  0.2807  0.2515 -0.4413
 6400TIP3    H140835   6.255   4.170   6.938  0.5299 -1.8601  1.1429
 6400TIP3    H240836   6.394   4.218   6.902 -0.3429 -0.8829 -1.1004
 6401TIP3   OH240837   5.441   5.647   8.841  0.5864 -0.7614 -0.2818
 6401TIP3    H140838   5.396   5.608   8.917  0.8464 -0.4024  0.0580
 6401TIP3    H240839   5.370   5.678   8.785  0.4007 -0.1300  0.2884
 6402TIP3   OH240840   5.904   1.640   1.236 -0.1386 -1.0481 -0.4330
 6402TIP3    H140841   5.820   1.675   1.208  0.1676 -0.0411 -0.1238
 6402TIP3    H240842   5.969   1.693   1.189  0.3348 -1.0875  0.1556
 6403TIP3   OH240843   0.404   2.479   8.298  0.7180  0.1969 -1.1808
 6403TIP3    H140844   0.449   2.520   8.372 -1.4911  0.2548  0.2256
 6403TIP3    H240845   0.411   2.543   8.227  1.1283  1.0579 -0.3770
 6404TIP3   OH240846   1.201   5.604   1.561 -0.4466  0.2888 -0.3949
 6404TIP3    H140847   1.228   5.687   1.598 -1.1017  0.0779  0.6056
 6404TIP3    H240848   1.105   5.608   1.561 -0.4993 -0.6984  0.2427
 6405TIP3   OH240849   4.729   3.692   1.848  0.1006 -0.5001 -0.4443
 6405TIP3    H140850   4.735   3.784   1.821  1.6059 -0.7705 -1.1619
 6405TIP3    H240851   4.770   3.691   1.935  1.2356 -0.6622 -0.9581
 6406TIP3   OH240852   2.025   3.121   1.152 -0.2793  0.3694 -0.1565
 6406TIP3    H140853   2.117   3.094   1.147 -0.1626  0.9156 -1.2734
 6406TIP3    H240854   1.976   3.040   1.161  0.3292  0.0939  0.7134
 6407TIP3   OH240855   4.631   5.847   0.556 -0.3875 -0.1347  0.5708
 6407TIP3    H140856   4.691   5.795   0.503  1.0883  0.7360  1.3211
 6407TIP3    H240857   4.665   5.840   0.645 -1.3429  0.4679  1.0010
 6408TIP3   OH240858   6.380   0.868   8.163 -0.0643  0.6368 -0.2246
 6408TIP3    H140859   6.378   0.935   8.096  0.9042  1.0525  0.1386
 6408TIP3    H240860   6.386   0.916   8.246  3.0762  0.1968 -0.0420
 6409TIP3   OH240861   3.845   1.871   1.408 -0.3146  0.4538 -0.5825
 6409TIP3    H140862   3.843   1.966   1.406 -2.1667  0.4423 -0.5210
 6409TIP3    H240863   3.932   1.850   1.441  0.5277  2.0860 -1.6274
 6410TIP3   OH240864   4.681   2.723   8.012 -0.1648 -0.0286  0.2431
 6410TIP3    H140865   4.597   2.768   8.011  0.6795  1.5839 -0.1881
 6410TIP3    H240866   4.662   2.640   8.057 -1.6922  0.8697  1.3745
 6411TIP3   OH240867   5.707   4.837   6.525  0.5104  0.2497  0.1645
 6411TIP3    H140868   5.654   4.821   6.447 -1.1756 -1.9161  1.6156
 6411TIP3    H240869   5.796   4.820   6.497  0.1819  1.2969 -1.6933
 6412TIP3   OH240870   0.339   1.302   0.842  0.0919 -0.1029  0.5394
 6412TIP3    H140871   0.372   1.213   0.836 -0.4575 -0.3206  0.6756
 6412TIP3    H240872   0.342   1.322   0.936 -0.8753 -0.4039  0.6398
 6413TIP3   OH240873   1.765   1.867   8.382  0.2540 -0.4198  0.6494
 6413TIP3    H140874   1.671   1.850   8.383  0.2149 -0.2772 -0.1730
 6413TIP3    H240875   1.777   1.943   8.439 -0.4808  1.2543 -1.3007
 6414TIP3   OH240876   1.228   4.478   1.605  0.0030 -0.0279  0.7603
 6414TIP3    H140877   1.175   4.542   1.650 -1.9364 -1.4681  0.6625
 6414TIP3    H240878   1.178   4.457   1.526 -0.2439 -2.7096  1.5168
 6415TIP3   OH240879   5.704   4.019   8.871  0.1899  0.2427  1.0170
 6415TIP3    H140880   5.686   4.104   8.831  0.0568 -0.6145 -0.8693
 6415TIP3    H240881   5.794   3.998   8.842 -0.4595 -1.0753 -0.1955
 6416TIP3   OH240882   5.085   1.582   7.761 -0.4960 -0.4406  0.4324
 6416TIP3    H140883   5.106   1.665   7.805 -1.1738 -1.0045  1.9054
 6416TIP3    H240884   5.166   1.531   7.766 -0.0041  0.1964 -0.6928
 6417TIP3   OH240885   0.696   1.098   1.951 -0.0957  0.5988 -0.3053
 6417TIP3    H140886   0.640   1.175   1.956 -2.1961 -0.8531  0.3197
 6417TIP3    H240887   0.785   1.132   1.952 -0.9250  2.9517  0.9504
 6418TIP3   OH240888   6.652   4.127   7.210  0.5650 -0.0252  0.1939
 6418TIP3    H140889   6.664   4.128   7.115  1.0916 -0.1011  0.2537
 6418TIP3    H240890   6.561   4.152   7.224  1.0636  2.2172 -0.2415
 6419TIP3   OH240891   4.747   4.159   1.499  0.7942 -0.4043  0.2358
 6419TIP3    H140892   4.663   4.161   1.454  0.9250 -1.8311 -0.1249
 6419TIP3    H240893   4.812   4.156   1.428  1.1264  0.2210  0.5101
 6420TIP3   OH240894   1.246   6.434   7.419 -0.0733 -0.0984  0.6918
 6420TIP3    H140895   1.256   6.357   7.363 -0.6945 -0.1310  0.6204
 6420TIP3    H240896   1.155   6.431   7.447  0.6101 -0.9661  3.0048
 6421TIP3   OH240897   4.861   1.249   0.812 -0.2046 -0.0385 -0.0421
 6421TIP3    H140898   4.780   1.291   0.839 -0.5841 -1.4475  1.1469
 6421TIP3    H240899   4.837   1.194   0.737  0.2681  1.6943 -1.5218
 6422TIP3   OH240900   2.379   4.518   2.523 -0.0814 -0.4700  0.0292
 6422TIP3    H140901   2.425   4.441   2.490  0.2361 -1.2089  2.0478
 6422TIP3    H240902   2.448   4.580   2.547 -0.1269 -1.0456  1.7995
 6423TIP3   OH240903   0.245   5.424   0.302  0.1244 -0.1909 -0.3156
 6423TIP3    H140904   0.335   5.454   0.315 -0.2902  0.4611  1.2801
 6423TIP3    H240905   0.201   5.445   0.384 -1.1661 -1.7175 -0.5800
 6424TIP3   OH240906   5.538   3.789   6.824  0.0228 -0.0599  0.4589
 6424TIP3    H140907   5.612   3.786   6.763  0.2605 -2.2349  0.7942
 6424TIP3    H240908   5.469   3.739   6.780 -0.7890  0.7554  0.7726
 6425TIP3   OH240909   1.636   5.596   7.888  0.1532  0.2547  0.3107
 6425TIP3    H140910   1.591   5.561   7.810 -2.7703 -0.3964  2.1436
 6425TIP3    H240911   1.687   5.670   7.854 -0.2881 -0.5306 -2.3544
 6426TIP3   OH240912   4.122   1.258   1.735 -0.3989  0.0922 -0.0217
 6426TIP3    H140913   4.190   1.210   1.688 -0.8524 -1.8189  1.1499
 6426TIP3    H240914   4.063   1.288   1.667  0.1595 -0.6316 -0.8578
 6427TIP3   OH240915   3.266   4.876   7.493  0.2089  0.0707  0.4313
 6427TIP3    H140916   3.299   4.850   7.579 -1.0363 -0.0486  0.8972
 6427TIP3    H240917   3.249   4.970   7.501  0.3970  0.1251  0.2097
 6428TIP3   OH240918   2.185   0.774   2.132  0.3410  0.1455  0.2518
 6428TIP3    H140919   2.280   0.760   2.130  0.2592 -0.3920 -0.0210
 6428TIP3    H240920   2.152   0.726   2.056 -0.1016  0.7117  0.0786
 6429TIP3   OH240921   0.861   3.697   0.596 -0.2043  0.0983 -0.1345
 6429TIP3    H140922   0.821   3.639   0.531 -2.7058  1.4952  0.0158
 6429TIP3    H240923   0.800   3.696   0.670  0.9400  1.0224  0.8700
 6430TIP3   OH240924   6.101   0.909   1.449  0.1629  0.1932 -0.4732
 6430TIP3    H140925   6.061   0.869   1.526  0.1265 -0.1377 -0.6656
 6430TIP3    H240926   6.139   0.991   1.482  1.1750 -0.5045  0.1490
 6431TIP3   OH240927   0.670   4.940   7.925 -0.3332  0.2990  0.0390
 6431TIP3    H140928   0.593   4.902   7.967 -0.3317  0.4522  0.1814
 6431TIP3    H240929   0.650   5.034   7.920  0.1650  0.4556  0.7741
 6432TIP3   OH240930   0.252   5.812   1.497  0.3788 -0.9379 -0.0911
 6432TIP3    H140931   0.243   5.727   1.540 -0.4425 -0.8171  0.0063
 6432TIP3    H240932   0.168   5.825   1.453  0.1846  0.1848  0.5775
 6433TIP3   OH240933   1.039   5.413   0.137 -0.4597  0.0556 -0.2153
 6433TIP3    H140934   1.132   5.394   0.139 -0.1159  1.6957  1.5416
 6433TIP3    H240935   1.024   5.449   0.049  0.4891 -0.5242 -0.6254
 6434TIP3   OH240936   4.268   2.706   1.592 -0.2930  0.1431  0.6028
 6434TIP3    H140937   4.226   2.713   1.506  0.3230 -3.0789 -0.1088
 6434TIP3    H240938   4.333   2.775   1.593  1.1477 -0.9818 -2.4956
 6435TIP3   OH240939   6.506   4.996   1.111 -1.1374 -0.2646  1.1622
 6435TIP3    H140940   6.548   5.079   1.132  0.3039 -0.4264 -0.8566
 6435TIP3    H240941   6.459   4.972   1.191  0.3403  1.3177  2.5689
 6436TIP3   OH240942   5.217   3.133   1.808  0.0178 -0.3851  0.6141
 6436TIP3    H140943   5.243   3.224   1.792 -1.1716 -0.0146  0.6746
 6436TIP3    H240944   5.188   3.101   1.722  1.1499 -0.9594  0.4369
 6437TIP3   OH240945   2.528   6.339   1.585 -0.1545 -0.1612  0.3900
 6437TIP3    H140946   2.453   6.371   1.535 -0.1369  0.5321  0.7872
 6437TIP3    H240947   2.538   6.403   1.657 -0.9812 -1.7993  2.0407
 6438TIP3   OH240948   5.508   4.673   1.319 -0.0886  0.7128 -0.2011
 6438TIP3    H140949   5.467   4.759   1.316 -0.4225  0.5330 -0.7791
 6438TIP3    H240950   5.549   4.670   1.406 -1.2458  0.9137  0.3703
 6439TIP3   OH240951   5.461   2.920   1.262  0.0145 -0.0453  0.5031
 6439TIP3    H140952   5.543   2.874   1.281  0.4659  0.6377  0.2799
 6439TIP3    H240953   5.428   2.947   1.347 -0.0589 -0.4515  0.6055
 6440TIP3   OH240954   0.051   4.382   1.711 -0.6395  0.3907 -0.1285
 6440TIP3    H140955   0.072   4.349   1.798 -2.8657 -1.6447 -0.2625
 6440TIP3    H240956   0.135   4.383   1.665 -0.0335 -3.5001  0.5134
 6441TIP3   OH240957   1.037   2.517   1.095 -0.6754 -0.0920  0.3732
 6441TIP3    H140958   0.955   2.561   1.114 -0.3007  0.5275  0.6050
 6441TIP3    H240959   1.071   2.561   1.017 -2.2970 -2.7495 -1.9980
 6442TIP3   OH240960   4.970   4.949   7.850  0.3565 -0.2334 -0.4350
 6442TIP3    H140961   4.970   4.859   7.818  1.4590 -1.0650  1.7023
 6442TIP3    H240962   5.061   4.966   7.874  0.5765  2.2005 -2.5748
 6443TIP3   OH240963   3.419   5.636   7.901 -0.1421 -0.2768  0.0548
 6443TIP3    H140964   3.476   5.657   7.828  1.0888 -0.4765  0.9181
 6443TIP3    H240965   3.421   5.540   7.907 -2.3803 -0.4706 -1.2680
 6444TIP3   OH240966   5.447   4.634   7.356  0.1371 -0.5067 -0.2925
 6444TIP3    H140967   5.439   4.729   7.347 -2.2084 -0.6206  0.1348
 6444TIP3    H240968   5.542   4.619   7.360  0.6524  1.6354 -2.0026
 6445TIP3   OH240969   6.101   1.427   0.559  0.6243  0.6145  0.3743
 6445TIP3    H140970   6.162   1.375   0.507 -0.3975 -0.2522  0.0070
 6445TIP3    H240971   6.016   1.386   0.545 -0.1784  2.1948  0.3303
 6446TIP3   OH240972   1.110   0.750   8.552  0.4580  0.7368 -0.7442
 6446TIP3    H140973   1.077   0.661   8.539 -1.7303  0.7884  3.1922
 6446TIP3    H240974   1.203   0.743   8.533  0.5798 -2.6778  0.3939
 6447TIP3   OH240975   1.873   4.298   1.704  0.1367  0.1863  0.4626
 6447TIP3    H140976   1.840   4.308   1.615 -0.6689  0.6372  0.8013
 6447TIP3    H240977   1.891   4.204   1.713 -3.3394 -0.5621  1.0123
 6448TIP3   OH240978   2.907   4.325   1.478  0.0377 -0.1194  0.1039
 6448TIP3    H140979   2.838   4.298   1.417 -0.2012 -0.5921  0.5754
 6448TIP3    H240980   2.959   4.389   1.429 -0.6910  0.1849 -0.2792
 6449TIP3   OH240981   4.953   0.427   0.863 -0.4457  0.3499 -0.2266
 6449TIP3    H140982   4.990   0.347   0.827  2.5866  1.7636 -0.5589
 6449TIP3    H240983   4.983   0.428   0.954 -0.1631  1.2345 -0.3182
 6450TIP3   OH240984   2.907   3.979   1.860 -0.1985 -0.0414  0.1835
 6450TIP3    H140985   2.870   4.025   1.935 -0.2528 -0.6885  0.5687
 6450TIP3    H240986   2.901   4.041   1.788 -1.9054 -0.0633  0.2645
 6451TIP3   OH240987   6.509   5.624   2.340  0.2074 -0.4467 -0.8611
 6451TIP3    H140988   6.586   5.591   2.386  1.0216  1.7760 -0.4963
 6451TIP3    H240989   6.480   5.698   2.393  0.1085  1.1079 -2.9668
 6452TIP3   OH240990   2.387   0.874   7.222  0.2922  0.1786 -0.0324
 6452TIP3    H140991   2.308   0.925   7.206  0.5709  0.3918 -0.7851
 6452TIP3    H240992   2.408   0.835   7.137 -1.0298 -2.8419  0.8879
 6453TIP3   OH240993   1.946   0.462   6.885 -0.0286  0.0324  0.0373
 6453TIP3    H140994   1.950   0.448   6.980 -0.2416 -0.8426 -0.0768
 6453TIP3    H240995   1.996   0.389   6.848 -0.3505  0.1053 -0.5475
 6454TIP3   OH240996   0.518   3.602   0.098 -0.3678  0.1755 -0.0596
 6454TIP3    H140997   0.464   3.575   0.172  0.5192 -0.5604  0.3308
 6454TIP3    H240998   0.507   3.533   0.033  1.0455 -0.6500  0.5150
 6455TIP3   OH240999   4.554   5.596   7.712 -0.2548 -0.3003  0.1291
 6455TIP3    H141000   4.462   5.578   7.730 -0.4669 -0.2451 -0.8094
 6455TIP3    H241001   4.570   5.555   7.627  0.0895  1.1768 -0.5666
 6456TIP3   OH241002   0.229   4.764   7.306  0.4211  0.0275  0.1836
 6456TIP3    H141003   0.201   4.855   7.309 -1.2569 -0.4842  1.8091
 6456TIP3    H241004   0.267   4.753   7.218 -2.2619  1.4717 -1.2891
 6457TIP3   OH241005   1.456   3.286   2.305  0.0997 -0.5871  0.3161
 6457TIP3    H141006   1.443   3.380   2.296  0.9233 -0.4660  0.3931
 6457TIP3    H241007   1.367   3.251   2.315 -0.0826  0.4417  2.9999
 6458TIP3   OH241008   2.493   5.611   7.871 -0.2981  0.0563  0.4775
 6458TIP3    H141009   2.551   5.535   7.875  1.9665  1.3973 -2.7330
 6458TIP3    H241010   2.531   5.673   7.934  0.2117 -0.0390  0.2714
 6459TIP3   OH241011   4.481   6.351   8.794  0.1043  0.4718  0.3816
 6459TIP3    H141012   4.555   6.332   8.852  0.8872  0.4887 -0.5823
 6459TIP3    H241013   4.471   6.273   8.741  0.6470  1.1592 -0.7681
 6460TIP3   OH241014   1.226   3.137   8.895  0.0728 -0.4079  0.8708
 6460TIP3    H141015   1.216   3.231   8.909 -0.8170 -0.3237 -0.2010
 6460TIP3    H241016   1.311   3.116   8.934  0.1629  0.7815  1.3626
 6461TIP3   OH241017   4.892   6.245   7.879  0.2276  0.5755  0.3986
 6461TIP3    H141018   4.938   6.263   7.960  0.7271 -1.5530  0.6457
 6461TIP3    H241019   4.920   6.315   7.819  2.2417  0.4531  1.1368
 6462TIP3   OH241020   2.428   0.754   6.978 -0.2292  0.3666 -0.1657
 6462TIP3    H141021   2.364   0.684   6.985 -0.6149  0.5105 -1.9060
 6462TIP3    H241022   2.508   0.710   6.949  0.1183  0.3806  0.7252
 6463TIP3   OH241023   6.581   3.659   7.311  0.5661  0.4471  0.2085
 6463TIP3    H141024   6.493   3.696   7.310  1.7221  3.8371  2.9652
 6463TIP3    H241025   6.598   3.641   7.404  2.4153 -1.2456 -0.3878
 6464TIP3   OH241026   4.279   0.210   6.752  0.1319 -0.8004 -0.5381
 6464TIP3    H141027   4.262   0.276   6.684  1.9804  0.2958  0.0116
 6464TIP3    H241028   4.373   0.215   6.769 -0.3364 -0.5792  2.5745
 6465TIP3   OH241029   6.437   2.298   1.436  0.0217 -0.0615  0.4662
 6465TIP3    H141030   6.508   2.287   1.373  0.7960  0.6483  1.1909
 6465TIP3    H241031   6.358   2.303   1.382  0.6233  0.1538 -0.4208
 6466TIP3   OH241032   6.264   6.475   1.774  0.3766 -0.3697 -0.2962
 6466TIP3    H141033   6.203   6.404   1.793 -0.3828  0.1022 -0.8712
 6466TIP3    H241034   6.223   6.552   1.813  1.5257 -0.3522  0.9113
 6467TIP3   OH241035   0.800   6.013   0.803 -0.3878 -0.2742 -0.3602
 6467TIP3    H141036   0.881   6.053   0.837 -0.7738  0.9411 -0.8175
 6467TIP3    H241037   0.829   5.930   0.765  0.8289  0.5461 -1.3345
 6468TIP3   OH241038   2.863   1.667   0.131  0.1651  0.5686 -0.0753
 6468TIP3    H141039   2.896   1.614   0.057  0.3291 -0.3248  0.6133
 6468TIP3    H241040   2.876   1.611   0.207  2.1181  2.3243  0.9736
 6469TIP3   OH241041   3.089   3.317   0.279 -0.7036  0.6416  0.0154
 6469TIP3    H141042   3.050   3.344   0.362  0.3582  0.2139  0.6866
 6469TIP3    H241043   3.183   3.328   0.293 -0.4537 -0.3508 -0.7943
 6470TIP3   OH241044   3.755   3.864   8.052  0.8234 -0.4128  0.0425
 6470TIP3    H141045   3.841   3.896   8.026  1.1641 -0.5004  1.0208
 6470TIP3    H241046   3.758   3.770   8.032  0.0568 -0.0286 -2.2099
 6471TIP3   OH241047   2.588   1.763   2.030 -0.0701  0.2853 -0.1636
 6471TIP3    H141048   2.617   1.834   2.087  0.1387  0.5995 -0.6538
 6471TIP3    H241049   2.647   1.691   2.049  0.0308  0.4063 -0.0177
 6472TIP3   OH241050   4.211   0.433   6.976  0.2902  0.6320  0.3427
 6472TIP3    H141051   4.133   0.444   6.921 -0.7844  1.3984  1.9368
 6472TIP3    H241052   4.190   0.480   7.057  0.6112 -2.7912  2.6068
 6473TIP3   OH241053   1.619   5.770   8.920  1.0616  0.3312  0.6481
 6473TIP3    H141054   1.679   5.710   8.877  1.4622  1.3446 -0.2589
 6473TIP3    H241055   1.584   5.825   8.850 -3.0408 -1.8634  0.6753
 6474TIP3   OH241056   5.819   2.741   1.669  0.7976 -0.8331 -0.8064
 6474TIP3    H141057   5.769   2.699   1.738  0.7668  1.1286  0.4262
 6474TIP3    H241058   5.759   2.743   1.594  0.3877 -1.8480 -0.5217
 6475TIP3   OH241059   5.770   2.471   7.612  0.1957  0.2743  0.8099
 6475TIP3    H141060   5.692   2.521   7.636 -0.3153 -0.1629  0.0823
 6475TIP3    H241061   5.738   2.381   7.600  1.0326 -0.1689  1.7334
 6476TIP3   OH241062   5.157   2.906   8.795  0.7064 -0.3925  0.7636
 6476TIP3    H141063   5.157   3.000   8.815 -0.6951 -0.5583  1.6956
 6476TIP3    H241064   5.237   2.873   8.836  1.3898  0.4322  0.1404
 6477TIP3   OH241065   1.966   0.174   7.620 -0.2687  0.1334  0.2290
 6477TIP3    H141066   1.953   0.260   7.581  2.8261 -0.0811 -1.5702
 6477TIP3    H241067   1.932   0.112   7.555  0.3031 -0.0771  0.1252
 6478TIP3   OH241068   1.680   2.560   0.408  0.0526  0.2279 -0.0659
 6478TIP3    H141069   1.638   2.491   0.458  1.2914 -0.6189 -0.1629
 6478TIP3    H241070   1.731   2.514   0.341 -1.6791  1.3134 -2.2454
 6479TIP3   OH241071   1.455   4.181   7.222 -0.2908 -0.5912  0.5824
 6479TIP3    H141072   1.542   4.140   7.222 -0.2274 -0.4739 -0.1660
 6479TIP3    H241073   1.428   4.179   7.130 -0.1122  1.4106  0.4533
 6480TIP3   OH241074   5.866   4.421   1.889  0.1438  0.7494  0.1894
 6480TIP3    H141075   5.871   4.392   1.980 -1.3290  1.3481  0.4979
 6480TIP3    H241076   5.827   4.348   1.842  2.0636 -0.0521 -0.2451
 6481TIP3   OH241077   5.200   3.997   1.281  0.4793  0.3813 -0.5941
 6481TIP3    H141078   5.262   4.013   1.353 -0.3169 -0.6822  0.3598
 6481TIP3    H241079   5.254   3.959   1.212  0.9605 -0.3297  0.1432
 6482TIP3   OH241080   1.569   2.894   0.727  0.1234  0.7477  0.0778
 6482TIP3    H141081   1.557   2.863   0.817  1.3330  2.3458  0.8399
 6482TIP3    H241082   1.626   2.829   0.687 -2.5019 -1.4018 -0.4294
 6483TIP3   OH241083   3.610   2.604   1.385  0.4669 -0.2973  0.5212
 6483TIP3    H141084   3.601   2.580   1.292  3.0739 -0.5378  0.2557
 6483TIP3    H241085   3.540   2.556   1.429 -0.6057 -0.4592 -1.2570
 6484TIP3   OH241086   5.020   3.107   7.723 -0.0558  0.0115  0.4835
 6484TIP3    H141087   5.043   3.191   7.764 -0.0585 -0.2649  1.0557
 6484TIP3    H241088   4.946   3.075   7.774 -1.7417  0.8683 -1.3201
 6485TIP3   OH241089   2.201   3.033   0.485 -0.3194  0.2838 -0.2089
 6485TIP3    H141090   2.137   3.054   0.418 -0.6273  1.4276  0.4182
 6485TIP3    H241091   2.176   2.946   0.516  0.0775 -0.4369 -1.8354
 6486TIP3   OH241092   1.896   4.246   6.973  0.7800  0.2270  0.5479
 6486TIP3    H141093   1.958   4.315   6.951  0.8196 -0.2796 -1.0696
 6486TIP3    H241094   1.893   4.191   6.895  0.7962 -1.6454  1.7994
 6487TIP3   OH241095   2.405   3.955   7.461 -0.2050 -0.0618  0.5719
 6487TIP3    H141096   2.436   4.032   7.509 -0.2270 -0.4101  1.1434
 6487TIP3    H241097   2.312   3.973   7.445 -0.0763  0.2899  0.1935
 6488TIP3   OH241098   1.148   0.563   7.058 -0.2518 -0.7726 -0.4281
 6488TIP3    H141099   1.168   0.602   7.143  0.1327 -0.4565 -0.6613
 6488TIP3    H241100   1.131   0.637   7.001  2.1111 -0.7923 -1.3019
 6489TIP3   OH241101   4.615   1.079   0.684  0.0351  0.0353  0.6039
 6489TIP3    H141102   4.532   1.031   0.683 -0.7212  1.2532  1.6016
 6489TIP3    H241103   4.591   1.170   0.665  1.2139  0.3193  0.3573
 6490TIP3   OH241104   3.316   3.854   0.699 -0.6630  0.2831 -0.3009
 6490TIP3    H141105   3.336   3.836   0.790 -2.4941 -1.6559 -0.2053
 6490TIP3    H241106   3.220   3.860   0.697 -0.7743 -1.2144 -2.3012
 6491TIP3   OH241107   6.425   4.676   1.136 -0.1082 -0.3247  0.1930
 6491TIP3    H141108   6.403   4.591   1.099 -0.3078 -1.2050  2.2134
 6491TIP3    H241109   6.504   4.703   1.089 -1.1850 -0.6058 -1.9174
 6492TIP3   OH241110   3.250   5.626   1.234 -0.7652 -0.4343 -0.2790
 6492TIP3    H141111   3.330   5.649   1.281 -0.4099  0.3541 -1.2367
 6492TIP3    H241112   3.253   5.531   1.227  0.1300 -0.4125 -0.3597
 6493TIP3   OH241113   1.517   3.338   0.404  0.6348 -0.4616  0.0674
 6493TIP3    H141114   1.536   3.284   0.481  0.7956  1.1168  1.1597
 6493TIP3    H241115   1.602   3.349   0.361  0.5705 -1.2083 -0.2687
 6494TIP3   OH241116   2.577   0.317   0.952 -0.9085 -0.1679  0.6458
 6494TIP3    H141117   2.587   0.269   1.034 -0.5043 -0.7725  0.2525
 6494TIP3    H241118   2.484   0.311   0.933 -0.8443 -0.9522  0.5210
 6495TIP3   OH241119   5.483   0.980   6.964  0.5160  0.0173  0.7936
 6495TIP3    H141120   5.431   0.993   7.044 -0.8140 -1.4744  0.2125
 6495TIP3    H241121   5.419   0.971   6.894  1.6598  1.0152 -0.4418
 6496TIP3   OH241122   2.938   0.161   7.263  0.5391 -0.4432  0.0328
 6496TIP3    H141123   2.949   0.151   7.358  0.7231 -0.2275  0.0356
 6496TIP3    H241124   3.008   0.222   7.238  0.0957 -0.0002 -0.1405
 6497TIP3   OH241125   0.565   2.432   2.009 -0.6286 -0.1048  0.9461
 6497TIP3    H141126   0.660   2.430   2.006 -0.5738 -0.5876  2.3996
 6497TIP3    H241127   0.538   2.421   1.918  0.6925 -0.5108  0.5800
 6498TIP3   OH241128   0.344   0.687   1.197  0.5280 -0.1223  0.7242
 6498TIP3    H141129   0.435   0.657   1.204  0.2989 -0.5011  2.7323
 6498TIP3    H241130   0.349   0.781   1.210  0.5224 -0.3386  2.5866
 6499TIP3   OH241131   4.080   5.801   1.954 -0.5202 -0.3353  0.1230
 6499TIP3    H141132   4.123   5.861   2.016  0.2807 -0.1221 -0.6190
 6499TIP3    H241133   4.077   5.850   1.872  0.4298 -1.4151 -0.5783
 6500TIP3   OH241134   1.262   3.441   8.048 -1.1028  0.0270  0.5654
 6500TIP3    H141135   1.350   3.459   8.014 -1.5855  0.1885 -0.6607
 6500TIP3    H241136   1.268   3.351   8.081 -0.6704 -0.2399 -0.2088
 6501TIP3   OH241137   3.171   1.693   7.288  0.0910 -0.2260 -0.0763
 6501TIP3    H141138   3.096   1.657   7.336 -1.1079  0.7964 -1.0965
 6501TIP3    H241139   3.236   1.622   7.287 -1.8170 -2.0795 -1.2344
 6502TIP3   OH241140   2.376   3.101   1.720 -0.3074 -0.2801  0.6053
 6502TIP3    H141141   2.348   3.077   1.809 -1.3605  2.1234  0.9945
 6502TIP3    H241142   2.354   3.025   1.667  0.1743 -1.7066  2.3404
 6503TIP3   OH241143   0.537   3.536   8.655  0.4554  0.1992 -0.2501
 6503TIP3    H141144   0.559   3.622   8.691 -1.6898  1.0470 -0.7560
 6503TIP3    H241145   0.442   3.539   8.644  0.0145 -2.9250  1.4594
 6504TIP3   OH241146   2.549   0.144   1.158 -0.4208 -0.3078 -0.2165
 6504TIP3    H141147   2.620   0.120   1.218 -0.6885 -0.2429  0.1317
 6504TIP3    H241148   2.495   0.065   1.153  0.5126 -0.8804 -1.7070
 6505TIP3   OH241149   6.576   3.173   8.077  0.5819  0.4753 -0.0787
 6505TIP3    H141150   6.641   3.242   8.085 -0.8966  2.0735 -1.1708
 6505TIP3    H241151   6.585   3.141   7.987  0.0142  0.5603 -0.1709
 6506TIP3   OH241152   5.707   5.391   0.955  0.4205 -0.0176 -0.0069
 6506TIP3    H141153   5.761   5.443   1.014  0.4132 -0.7846  0.6944
 6506TIP3    H241154   5.667   5.455   0.896  0.9415  0.6971  0.4034
 6507TIP3   OH241155   5.689   2.250   1.934  0.4466  0.1556  0.8114
 6507TIP3    H141156   5.626   2.251   2.006 -0.1644  2.7644  0.3594
 6507TIP3    H241157   5.769   2.289   1.970  0.5436  0.3308  0.4235
 6508TIP3   OH241158   4.866   0.460   0.618  0.2859 -0.3181  0.4508
 6508TIP3    H141159   4.773   0.477   0.602  1.2242  3.0886 -2.5944
 6508TIP3    H241160   4.874   0.460   0.714 -2.3478  3.5113  0.8940
 6509TIP3   OH241161   1.311   5.659   0.743 -0.2800 -0.6009  0.5905
 6509TIP3    H141162   1.274   5.605   0.673 -1.3043  0.1356  0.5464
 6509TIP3    H241163   1.380   5.605   0.781 -0.0513 -1.2189 -0.6436
 6510TIP3   OH241164   4.762   5.492   2.221 -0.2185 -0.1326  0.5959
 6510TIP3    H141165   4.726   5.578   2.243  0.4836  0.0042  1.2623
 6510TIP3    H241166   4.854   5.509   2.201 -0.7368 -0.2619 -2.4210
 6511TIP3   OH241167   5.518   4.276   7.665 -0.3179  0.3189 -0.2956
 6511TIP3    H141168   5.556   4.340   7.604 -1.5833  2.2395  0.7909
 6511TIP3    H241169   5.453   4.229   7.613 -1.4394  1.9826 -0.4677
 6512TIP3   OH241170   1.043   2.434   8.138 -0.0730 -0.7501 -0.4730
 6512TIP3    H141171   0.991   2.354   8.133 -2.0858  0.4975 -0.3410
 6512TIP3    H241172   1.095   2.434   8.057  0.3213 -2.3858 -0.2600
 6513TIP3   OH241173   4.673   5.354   0.013 -0.1805  0.1805 -0.1146
 6513TIP3    H141174   4.721   5.309   0.083  0.8967  0.9430 -0.3394
 6513TIP3    H241175   4.740   5.405  -0.033 -1.1290  0.8677 -0.7675
 6514TIP3   OH241176   0.537   4.672   8.239  0.3413 -0.1507  0.2700
 6514TIP3    H141177   0.499   4.726   8.309 -0.4103  0.6999 -0.7635
 6514TIP3    H241178   0.616   4.635   8.278  0.3825  0.9664  1.3160
 6515TIP3   OH241179   4.701   5.636   0.784 -0.0096 -0.0477  0.3094
 6515TIP3    H141180   4.664   5.628   0.872 -0.2769 -4.1841  0.0152
 6515TIP3    H241181   4.648   5.578   0.730  3.1320 -1.5586 -1.4624
 6516TIP3   OH241182   1.878   0.449   8.620 -0.2928  0.1574 -0.3509
 6516TIP3    H141183   1.785   0.469   8.611 -0.5175 -0.9047 -0.5952
 6516TIP3    H241184   1.883   0.355   8.604  0.8478  0.2339 -0.5017
 6517TIP3   OH241185   3.788   6.587   0.666 -0.3626 -0.0447 -0.1520
 6517TIP3    H141186   3.726   6.552   0.730  1.8549 -0.0424  2.1893
 6517TIP3    H241187   3.860   6.524   0.667  0.3327  0.6958 -1.6449
 6518TIP3   OH241188   0.463   0.601   6.735 -0.4106  0.3711  0.0109
 6518TIP3    H141189   0.457   0.612   6.830  0.8447  1.7205 -0.0328
 6518TIP3    H241190   0.540   0.545   6.723 -0.6983  0.0185 -0.2160
 6519TIP3   OH241191   1.891   5.183   7.774  0.3131  0.4570  0.3989
 6519TIP3    H141192   1.903   5.194   7.868  1.1205 -1.2906  0.5289
 6519TIP3    H241193   1.851   5.097   7.764  1.2243  0.1486 -0.8996
 6520TIP3   OH241194   3.535   0.678   0.252 -0.5351  0.3118  0.0060
 6520TIP3    H141195   3.545   0.598   0.304  0.6002 -0.7121 -1.6670
 6520TIP3    H241196   3.596   0.740   0.291  0.8220 -0.6740 -0.4745
 6521TIP3   OH241197   6.181   5.643   1.054 -0.1458  0.0026 -0.1817
 6521TIP3    H141198   6.209   5.718   1.106 -0.6838  0.1743 -0.1399
 6521TIP3    H241199   6.240   5.572   1.081  0.7375  0.5416 -0.6320
 6522TIP3   OH241200   3.933   4.149   0.520  0.5134 -0.3297 -0.2507
 6522TIP3    H141201   3.840   4.123   0.523  0.3646  0.1557 -0.5645
 6522TIP3    H241202   3.981   4.066   0.528  0.0669 -0.4711  1.2110
 6523TIP3   OH241203   4.819   3.124   0.711 -0.3289  0.0102 -0.1027
 6523TIP3    H141204   4.726   3.111   0.733 -0.2690  2.5454  2.1344
 6523TIP3    H241205   4.861   3.043   0.738 -1.6086 -0.3983  0.7665
 6524TIP3   OH241206   2.171   5.802   0.141  0.0757 -0.2522  0.0198
 6524TIP3    H141207   2.111   5.728   0.149 -0.7515  0.2271 -1.4249
 6524TIP3    H241208   2.166   5.845   0.227 -0.1139 -1.3333  0.5817
 6525TIP3   OH241209   0.883   2.465   0.723 -0.0337 -0.1496  0.0450
 6525TIP3    H141210   0.969   2.495   0.754  0.0726  0.3874 -0.7224
 6525TIP3    H241211   0.887   2.370   0.730 -0.7087 -0.0639  3.4492
 6526TIP3   OH241212   3.475   4.097   1.469  0.3229 -0.1414  0.5091
 6526TIP3    H141213   3.558   4.113   1.514  1.0500 -1.6953 -0.2200
 6526TIP3    H241214   3.435   4.025   1.518 -0.7709  0.8118  1.0541
 6527TIP3   OH241215   1.100   3.751   0.762  0.4564 -0.0579 -0.5346
 6527TIP3    H141216   1.039   3.776   0.831  0.3675  0.8201 -0.9129
 6527TIP3    H241217   1.046   3.707   0.696  0.6171 -1.3197  0.1488
 6528TIP3   OH241218   6.176   4.744   2.768  0.2783 -0.1387 -0.2249
 6528TIP3    H141219   6.123   4.823   2.764  0.3140  0.0064  1.4552
 6528TIP3    H241220   6.200   4.726   2.677 -2.4601 -0.0976 -1.0364
 6529TIP3   OH241221   6.544   0.097   8.659 -0.3959 -0.3505 -0.6348
 6529TIP3    H141222   6.570   0.023   8.716  0.4485  0.5694  0.2170
 6529TIP3    H241223   6.506   0.161   8.719 -0.1418  0.3488 -1.2072
 6530TIP3   OH241224   1.252   4.357   7.081  0.0251  0.0922  0.2943
 6530TIP3    H141225   1.175   4.300   7.087 -0.9989  1.4473  0.5086
 6530TIP3    H241226   1.235   4.412   7.005  1.1498 -0.0915 -0.0990
 6531TIP3   OH241227   3.495   0.873   0.621  0.4126 -0.1636  0.2364
 6531TIP3    H141228   3.506   0.780   0.640 -1.3652 -0.5548 -0.5333
 6531TIP3    H241229   3.438   0.905   0.690  0.1695  0.1220 -0.0975
 6532TIP3   OH241230   6.319   6.758   0.646 -0.4021  0.2617 -0.0343
 6532TIP3    H141231   6.359   6.677   0.614 -1.2019  0.1232 -0.7187
 6532TIP3    H241232   6.381   6.791   0.711  0.6209 -0.1621 -0.7543
 6533TIP3   OH241233   6.458   5.950   0.483  0.3138  0.0688 -0.5315
 6533TIP3    H141234   6.480   6.004   0.559 -0.0209  1.7884 -1.6089
 6533TIP3    H241235   6.541   5.935   0.439  0.1494  1.5459 -1.3850
 6534TIP3   OH241236   3.069   2.122   8.009 -0.0630 -0.3699 -0.0416
 6534TIP3    H141237   3.016   2.202   8.014  0.7707  0.1942  0.0164
 6534TIP3    H241238   3.029   2.063   8.072 -1.1656 -0.2939 -0.6458
 6535TIP3   OH241239   0.628   1.294   8.967 -0.0580 -0.1283  0.1708
 6535TIP3    H141240   0.684   1.316   9.042  0.1168  1.3103 -0.3416
 6535TIP3    H241241   0.575   1.372   8.953 -1.7691 -1.2225  0.2264
 6536TIP3   OH241242   4.498   4.770   8.056  0.7434  0.4545 -0.1031
 6536TIP3    H141243   4.560   4.842   8.067  1.6743 -0.3739  0.2099
 6536TIP3    H241244   4.515   4.736   7.968  1.3520 -0.3278  0.3070
 6537TIP3   OH241245   1.461   4.892   6.620 -0.2921 -0.0804 -0.2637
 6537TIP3    H141246   1.536   4.948   6.600  0.1131 -0.4554  0.1734
 6537TIP3    H241247   1.406   4.896   6.541 -0.0836  0.6227 -0.3803
 6538TIP3   OH241248   1.290   4.487   0.414  0.0880 -0.0515 -0.1930
 6538TIP3    H141249   1.351   4.555   0.387  1.4983  0.0337  2.7888
 6538TIP3    H241250   1.227   4.532   0.470  0.2088 -0.9286  0.6732
 6539TIP3   OH241251   0.108   0.660   0.686  0.1816  0.4201 -1.1399
 6539TIP3    H141252   0.141   0.677   0.598  0.2501  0.0640 -1.1870
 6539TIP3    H241253   0.156   0.720   0.743 -1.1634  1.9518 -1.5711
 6540TIP3   OH241254   4.480   6.684   1.373  0.2088 -0.1521  0.5145
 6540TIP3    H141255   4.424   6.758   1.397  1.3315  0.7596  0.3903
 6540TIP3    H241256   4.545   6.680   1.443  0.0766 -1.1162  0.5879
 6541TIP3   OH241257   1.039   6.104   7.381  0.5061 -0.0532  0.4068
 6541TIP3    H141258   1.029   6.048   7.458 -1.7671  0.2361  0.3903
 6541TIP3    H241259   1.041   6.044   7.307  1.4309 -0.2556  0.5779
 6542TIP3   OH241260   0.388   6.573   2.182 -0.2472  0.2619 -0.3001
 6542TIP3    H141261   0.302   6.588   2.221  0.3123  2.9342  0.1301
 6542TIP3    H241262   0.416   6.488   2.216 -1.6057  0.5536  1.6721
 6543TIP3   OH241263   1.400   3.491   7.529 -0.3584 -0.0365 -0.2811
 6543TIP3    H141264   1.348   3.420   7.491 -0.3755  0.7591 -1.8384
 6543TIP3    H241265   1.463   3.447   7.586 -0.6029 -1.2748 -0.9321
 6544TIP3   OH241266   0.279   3.811   0.183 -0.6514  0.0721 -0.2353
 6544TIP3    H141267   0.221   3.776   0.250 -0.0914  2.1595  1.4446
 6544TIP3    H241268   0.367   3.800   0.217 -0.2396 -0.1649 -1.3166
 6545TIP3   OH241269   3.719   4.453   7.429 -0.5023  0.5410 -0.0335
 6545TIP3    H141270   3.780   4.379   7.428 -0.5527  0.3809  2.3541
 6545TIP3    H241271   3.638   4.417   7.464 -1.2480  1.2809 -0.9422
 6546TIP3   OH241272   2.684   6.153   1.704  0.0400  0.1230  0.1228
 6546TIP3    H141273   2.632   6.199   1.638  1.0160 -0.9095 -1.4534
 6546TIP3    H241274   2.774   6.184   1.688  0.2098  0.3294  1.4077
 6547TIP3   OH241275   5.263   0.114   0.933  0.3878  0.2836  0.0337
 6547TIP3    H141276   5.310   0.111   1.016 -0.6680 -0.7201  0.6299
 6547TIP3    H241277   5.183   0.064   0.949 -0.6755  1.5551 -1.0807
 6548TIP3   OH241278   1.357   2.593   6.866  0.1248  1.0997  0.0254
 6548TIP3    H141279   1.367   2.534   6.791 -0.8108  0.8864  0.0597
 6548TIP3    H241280   1.281   2.646   6.845 -0.1039  1.0882  0.7954
 6549TIP3   OH241281   1.263   1.337   7.302  0.3989  0.0944 -0.6127
 6549TIP3    H141282   1.290   1.399   7.234  0.8727  1.2790  0.6150
 6549TIP3    H241283   1.305   1.369   7.382 -1.0087 -0.6378  0.4661
 6550TIP3   OH241284   5.410   1.155   1.913  0.1995  0.4319  0.4157
 6550TIP3    H141285   5.347   1.093   1.951 -0.7365  0.6877 -0.6276
 6550TIP3    H241286   5.447   1.201   1.987 -1.0766  0.4663  1.0622
 6551TIP3   OH241287   2.326   4.160   8.081 -0.3726 -0.2133 -0.2589
 6551TIP3    H141288   2.347   4.144   8.173 -0.3786  0.4354 -0.1363
 6551TIP3    H241289   2.250   4.218   8.084  0.5390  1.0474 -0.6429
 6552TIP3   OH241290   0.594   3.631   1.141  0.3225 -0.1200  0.6278
 6552TIP3    H141291   0.516   3.603   1.093  2.0811 -0.7776 -2.0875
 6552TIP3    H241292   0.586   3.726   1.147  0.1785  0.0368 -1.3770
 6553TIP3   OH241293   4.407   6.557   7.247  0.4471 -0.1812  0.4077
 6553TIP3    H141294   4.364   6.555   7.332  0.8214 -1.4226  0.5756
 6553TIP3    H241295   4.434   6.467   7.231 -2.0277 -0.5995 -2.2515
 6554TIP3   OH241296   3.023   4.925   7.783  0.1840  0.0732 -0.3129
 6554TIP3    H141297   3.076   5.003   7.796  0.9415 -0.5586  0.4773
 6554TIP3    H241298   2.937   4.959   7.757  0.5332  1.1534 -0.1062
 6555TIP3   OH241299   1.380   6.484   8.827 -0.3746  0.1685  0.4760
 6555TIP3    H141300   1.425   6.557   8.869 -1.2500 -0.7048  3.1503
 6555TIP3    H241301   1.301   6.471   8.880 -0.8161 -1.9954 -0.5923
 6556TIP3   OH241302   4.219   0.060   8.800  0.0477  0.0511 -0.1661
 6556TIP3    H141303   4.169   0.015   8.732  0.7808 -1.1320  0.0536
 6556TIP3    H241304   4.297   0.007   8.813  0.7325  1.1508  0.4392
 6557TIP3   OH241305   3.510   3.430   0.471 -0.2112  0.8691  0.1440
 6557TIP3    H141306   3.533   3.347   0.512 -0.4138  0.5237 -0.4381
 6557TIP3    H241307   3.553   3.496   0.525  1.9504  0.2763 -0.7359
 6558TIP3   OH241308   4.354   5.790   1.395 -0.6179  0.4754 -0.8895
 6558TIP3    H141309   4.262   5.782   1.418 -0.3488 -0.3003 -0.0072
 6558TIP3    H241310   4.399   5.731   1.455  0.4586  0.8497 -1.2972
 6559TIP3   OH241311   6.220   1.716   1.387 -0.5388 -0.3164  0.3444
 6559TIP3    H141312   6.198   1.625   1.365  0.9265 -0.4948 -0.4893
 6559TIP3    H241313   6.308   1.711   1.426 -0.8663  0.6427  1.2740
 6560TIP3   OH241314   2.889   3.402   1.499  0.0522  0.8477  0.3214
 6560TIP3    H141315   2.888   3.307   1.502  2.1766  0.6867 -1.0800
 6560TIP3    H241316   2.858   3.424   1.411  3.8779  1.0500 -1.2024
 6561TIP3   OH241317   2.685   1.138   7.009 -0.0755  0.0447  0.5642
 6561TIP3    H141318   2.590   1.125   7.002 -0.2717  1.8546 -1.3725
 6561TIP3    H241319   2.715   1.142   6.918  1.1951  3.3992  0.9933
 6562TIP3   OH241320   6.218   1.230   8.466 -0.5637  0.5216 -0.3824
 6562TIP3    H141321   6.135   1.236   8.514  0.8533 -0.7650  2.4709
 6562TIP3    H241322   6.251   1.320   8.464 -0.6806  0.6109  1.0636
 6563TIP3   OH241323   1.883   5.429   8.335 -0.1984  0.5506 -0.0790
 6563TIP3    H141324   1.935   5.442   8.415  0.0568 -0.2245 -0.1101
 6563TIP3    H241325   1.944   5.451   8.264  0.6692 -1.8834 -0.1971
 6564TIP3   OH241326   3.824   4.560   6.953  0.2814  0.5463  0.0574
 6564TIP3    H141327   3.752   4.561   6.890  0.0134 -1.3230  0.2697
 6564TIP3    H241328   3.790   4.607   7.030 -0.7282 -0.3170  0.1586
 6565TIP3   OH241329   3.889   5.337   8.523  0.4275 -0.7754 -0.0369
 6565TIP3    H141330   3.949   5.327   8.597 -0.8718 -2.1421  0.8904
 6565TIP3    H241331   3.805   5.305   8.555 -0.8978  1.2629 -1.2320
 6566TIP3   OH241332   4.532   0.974   7.208  0.1835  0.2539 -0.3125
 6566TIP3    H141333   4.582   0.940   7.283  1.1778  0.6126 -0.8046
 6566TIP3    H241334   4.532   0.902   7.145  1.2262  0.7057 -0.8478
 6567TIP3   OH241335   1.252   2.102   1.489  0.0976  0.2696  0.2911
 6567TIP3    H141336   1.288   2.154   1.561 -1.8350  0.1707  1.3814
 6567TIP3    H241337   1.204   2.165   1.435  1.0015  0.2341 -0.5912
 6568TIP3   OH241338   2.164   1.300   0.405  0.5725 -0.3793 -0.4127
 6568TIP3    H141339   2.161   1.264   0.316  0.6593  0.9858 -0.9832
 6568TIP3    H241340   2.188   1.391   0.393 -0.8692  0.2114  0.9132
 6569TIP3   OH241341   6.140   1.953   0.011  0.4623 -0.0088  0.6221
 6569TIP3    H141342   6.158   1.867  -0.028  0.3974  0.7562 -1.2019
 6569TIP3    H241343   6.224   1.999   0.007 -0.4464  1.8005 -3.3383
 6570TIP3   OH241344   4.787   1.011   8.968  0.0015 -0.4915  0.0048
 6570TIP3    H141345   4.744   1.096   8.970  2.2496  0.8008 -2.0844
 6570TIP3    H241346   4.817   1.000   8.878 -0.1016 -3.4828  0.2170
 6571TIP3   OH241347   5.631   0.771   7.187 -0.1464 -0.2605  0.4072
 6571TIP3    H141348   5.661   0.695   7.237  2.4643  0.0377 -0.5894
 6571TIP3    H241349   5.616   0.738   7.099  2.1363  0.5211 -0.3338
 6572TIP3   OH241350   1.254   6.734   7.151  0.3144  0.4149 -0.2808
 6572TIP3    H141351   1.322   6.666   7.145  2.1569  2.2603 -1.3932
 6572TIP3    H241352   1.243   6.748   7.245  0.3384 -0.9439 -0.0464
 6573TIP3   OH241353   1.937   1.792   1.543 -0.0034  0.0378 -0.0446
 6573TIP3    H141354   1.873   1.736   1.586  1.9854 -1.5117  1.0915
 6573TIP3    H241355   2.001   1.812   1.611  0.8540  1.3068 -1.1800
 6574TIP3   OH241356   3.123   1.811   6.184  0.3965  0.2701 -0.6509
 6574TIP3    H141357   3.030   1.820   6.162  0.3677  1.7490  0.0099
 6574TIP3    H241358   3.147   1.893   6.226  1.9097 -0.2533 -0.4060
 6575TIP3   OH241359   3.090   1.759   7.031  0.2123 -0.3209  0.4841
 6575TIP3    H141360   3.179   1.751   6.998  1.0116  1.1571  2.1017
 6575TIP3    H241361   3.091   1.714   7.115 -0.2811  0.5017  0.9538
 6576TIP3   OH241362   3.021   2.356   1.308  0.0761  0.9010  0.0481
 6576TIP3    H141363   3.018   2.447   1.339  1.1464  0.8996  0.1913
 6576TIP3    H241364   3.082   2.359   1.233  1.1123  0.0915  0.8302
 6577TIP3   OH241365   6.755   5.105   1.952 -0.1262  0.8444 -0.3845
 6577TIP3    H141366   6.667   5.114   1.987 -0.0055  0.5719 -0.0021
 6577TIP3    H241367   6.797   5.041   2.009 -0.0343  0.1208 -1.2336
 6578TIP3   OH241368   4.056   0.912   1.803  0.7391  0.3596  0.3540
 6578TIP3    H141369   4.114   0.981   1.834  1.3096 -0.2725  0.7159
 6578TIP3    H241370   4.024   0.944   1.719 -0.6416  2.0002  1.4252
 6579TIP3   OH241371   1.953   4.105   7.204 -0.0112 -1.4779 -0.4584
 6579TIP3    H141372   1.879   4.076   7.257 -0.1388  0.2181  0.3803
 6579TIP3    H241373   1.913   4.161   7.136  0.2682 -2.6682 -1.6410
 6580TIP3   OH241374   4.584   0.712   0.587  0.2391  0.2573  0.1571
 6580TIP3    H141375   4.496   0.678   0.603  0.9434 -1.5974  0.3729
 6580TIP3    H241376   4.628   0.707   0.671  2.0293 -3.6343 -0.7915
 6581TIP3   OH241377   4.760   6.678   0.915  0.1305 -0.0112  0.3387
 6581TIP3    H141378   4.691   6.682   0.982  0.2976  0.1550  0.5000
 6581TIP3    H241379   4.791   6.588   0.918 -1.5458 -0.6920 -1.2054
 6582TIP3   OH241380   4.086   5.497   6.623  0.1543 -0.0402 -0.1993
 6582TIP3    H141381   4.047   5.572   6.578 -0.0908 -1.0364 -1.7217
 6582TIP3    H241382   4.180   5.511   6.617  0.1124  0.0564 -0.6620
 6583TIP3   OH241383   4.452   6.662   0.733  0.4519  0.0679  0.0615
 6583TIP3    H141384   4.418   6.625   0.651  0.9370  1.1586 -0.6647
 6583TIP3    H241385   4.532   6.707   0.707 -0.2838  1.9167  0.7912
 6584TIP3   OH241386   1.534   0.354   0.130 -0.1488 -0.8838 -0.1877
 6584TIP3    H141387   1.540   0.339   0.224 -0.1557 -0.7446 -0.1661
 6584TIP3    H241388   1.603   0.298   0.093  0.6007 -0.0946 -0.0166
 6585TIP3   OH241389   4.577   5.562   0.347 -0.5081  0.0403  0.2273
 6585TIP3    H141390   4.530   5.514   0.279 -0.3924 -1.0071  0.8654
 6585TIP3    H241391   4.669   5.552   0.325 -0.5209  1.1174 -0.3775
 6586TIP3   OH241392   3.580   1.773   7.105  0.0197 -0.1457 -0.0913
 6586TIP3    H141393   3.574   1.811   7.017  1.9261  0.1174 -0.1549
 6586TIP3    H241394   3.545   1.685   7.095 -1.0867  0.3558 -0.7843
 6587TIP3   OH241395   6.182   6.587   0.857 -0.1048 -0.6379 -0.2176
 6587TIP3    H141396   6.227   6.625   0.781 -0.7140 -0.7408 -0.6350
 6587TIP3    H241397   6.091   6.580   0.829 -0.7097  1.0096  1.1504
 6588TIP3   OH241398   1.400   3.826   0.787 -0.6404  0.9822 -0.6171
 6588TIP3    H141399   1.402   3.816   0.882  1.4029  0.3116 -0.6782
 6588TIP3    H241400   1.310   3.807   0.762 -1.1728  1.0461  1.1698
 6589TIP3   OH241401   4.124   4.404   0.126 -0.3418 -0.2350  0.2686
 6589TIP3    H141402   4.147   4.481   0.178  3.0100 -2.2969  2.2874
 6589TIP3    H241403   4.053   4.363   0.175 -0.1985  0.1201  0.7841
 6590TIP3   OH241404   4.073   6.098   1.644 -0.1341  0.1297  0.1240
 6590TIP3    H141405   4.084   6.138   1.731 -0.6850 -0.9479  0.7113
 6590TIP3    H241406   4.125   6.153   1.586 -0.5088  1.4382  0.9709
 6591TIP3   OH241407   3.921   1.804   7.939  0.3653 -0.0490 -0.0433
 6591TIP3    H141408   3.926   1.712   7.965 -0.3333  0.2080  1.0770
 6591TIP3    H241409   3.961   1.807   7.852 -0.1711 -1.5171 -0.3691
 6592TIP3   OH241410   0.340   1.807   6.859  1.0646  0.7520 -0.0564
 6592TIP3    H141411   0.395   1.841   6.788 -0.5940 -0.1822 -1.8834
 6592TIP3    H241412   0.282   1.879   6.881  0.5402  0.5677 -0.7865
 6593TIP3   OH241413   1.608   4.488   8.241  0.9479  0.6496 -0.6801
 6593TIP3    H141414   1.577   4.524   8.157  1.8070  2.2663 -0.3425
 6593TIP3    H241415   1.669   4.553   8.274 -0.2359  0.6369  1.7895
 6594TIP3   OH241416   4.092   3.612   7.221 -0.3148 -0.0017  0.1875
 6594TIP3    H141417   4.030   3.665   7.171 -0.5132 -0.5608 -0.1688
 6594TIP3    H241418   4.177   3.656   7.209 -0.3922 -0.0279 -0.4912
 6595TIP3   OH241419   0.074   0.402   1.582  0.1101 -0.0084 -0.0659
 6595TIP3    H141420   0.086   0.338   1.512 -0.2124  0.0692 -0.1953
 6595TIP3    H241421   0.076   0.351   1.663 -3.3315 -0.7080 -0.2662
 6596TIP3   OH241422   2.045   4.537   8.981  0.0484  0.2460  0.8352
 6596TIP3    H141423   1.964   4.519   9.030 -0.4919  1.7249  0.5302
 6596TIP3    H241424   2.095   4.596   9.038 -0.0625  1.0425  0.1368
 6597TIP3   OH241425   5.005   5.816   2.805  0.4845  1.2662 -0.3106
 6597TIP3    H141426   4.929   5.758   2.814 -0.5114  2.6558  0.4190
 6597TIP3    H241427   5.052   5.780   2.730  0.6110 -1.2630  0.8856
 6598TIP3   OH241428   0.912   3.706   7.465  0.4941  0.1104  0.1276
 6598TIP3    H141429   1.007   3.709   7.475  0.6459 -0.2086 -1.0474
 6598TIP3    H241430   0.891   3.779   7.407  0.3122 -1.1801 -1.4916
 6599TIP3   OH241431   0.884   2.198   7.612 -0.3764  0.3786  0.6309
 6599TIP3    H141432   0.950   2.129   7.612 -1.1242 -0.3739 -0.7921
 6599TIP3    H241433   0.930   2.275   7.577 -0.1765 -0.0713 -0.1129
 6600TIP3   OH241434   2.926   2.472   7.447 -0.5501 -0.1198 -0.0773
 6600TIP3    H141435   3.002   2.525   7.471 -0.8924  1.3430 -2.0010
 6600TIP3    H241436   2.902   2.426   7.528  1.9089 -0.0630  0.7536
 6601TIP3   OH241437   3.415   4.115   7.869 -0.5700 -0.0328  0.3630
 6601TIP3    H141438   3.399   4.209   7.878  0.9468  0.4309 -1.1318
 6601TIP3    H241439   3.420   4.083   7.959  0.4641  1.6432  0.9661
 6602TIP3   OH241440   5.345   1.218   1.467  0.0781 -0.5525 -0.4857
 6602TIP3    H141441   5.371   1.135   1.509  0.5984  0.2771  0.9099
 6602TIP3    H241442   5.255   1.203   1.437  0.4770 -1.9111 -1.0871
 6603TIP3   OH241443   4.283   0.105   0.794  0.4955  0.2013  0.1264
 6603TIP3    H141444   4.212   0.052   0.759 -0.9928  3.1902 -1.8375
 6603TIP3    H241445   4.363   0.065   0.758 -0.4530 -1.1955 -0.5296
 6604TIP3   OH241446   4.120   6.718   0.638  0.4915 -0.1495  0.4394
 6604TIP3    H141447   4.160   6.632   0.619 -2.7087 -1.8237  0.6044
 6604TIP3    H241448   4.107   6.758   0.552  0.1758 -0.7531  0.1985
 6605TIP3   OH241449   1.451   4.255   8.015 -0.0308  0.0896 -0.3701
 6605TIP3    H141450   1.496   4.219   8.091 -1.4422  0.6520  0.7708
 6605TIP3    H241451   1.459   4.350   8.025 -0.6586  0.1758 -0.6501
 6606TIP3   OH241452   4.034   2.609   2.271 -0.5109  0.1958  0.1260
 6606TIP3    H141453   4.007   2.672   2.204 -0.1319  1.6991  1.3182
 6606TIP3    H241454   3.980   2.631   2.347  2.5326  2.0538  1.9857
 6607TIP3   OH241455   5.475   5.066   7.784  0.1529 -0.8457  0.0092
 6607TIP3    H141456   5.559   5.030   7.811  1.1086  0.3510 -1.1985
 6607TIP3    H241457   5.468   5.043   7.691 -0.1129  0.3409 -0.2887
 6608TIP3   OH241458   2.624   5.024   6.965  0.3727  0.0245 -0.9394
 6608TIP3    H141459   2.558   4.973   6.917  0.1118 -0.4069 -0.1450
 6608TIP3    H241460   2.664   4.961   7.025 -2.2924  1.3039  2.5354
 6609TIP3   OH241461   1.828   3.943   6.001 -0.4326 -0.2683 -0.0071
 6609TIP3    H141462   1.824   3.902   6.088  0.6368 -0.8249 -0.2040
 6609TIP3    H241463   1.911   3.991   6.001 -1.4815  1.6212  0.0698
 6610TIP3   OH241464   1.429   2.139   6.965 -0.3473 -0.3298  0.0051
 6610TIP3    H141465   1.365   2.178   7.025 -0.7163  0.3525 -0.8037
 6610TIP3    H241466   1.388   2.057   6.937  0.4441 -1.3745  1.7334
 6611TIP3   OH241467   4.503   1.419   8.831 -0.1355 -0.4213 -0.0382
 6611TIP3    H141468   4.453   1.462   8.901 -0.5635  0.5268 -0.9133
 6611TIP3    H241469   4.471   1.459   8.750  0.4223 -1.4386 -0.7814
 6612TIP3   OH241470   0.543   5.455   6.363  0.8631  0.1872 -0.5836
 6612TIP3    H141471   0.594   5.477   6.441  0.0927  0.2898 -0.1029
 6612TIP3    H241472   0.541   5.537   6.312 -1.4270  1.1182  0.8786
 6613TIP3   OH241473   0.513   3.707   7.042 -0.5697  0.0725  0.2957
 6613TIP3    H141474   0.584   3.765   7.014 -0.6310 -0.5104 -1.1194
 6613TIP3    H241475   0.482   3.665   6.962 -2.3237  0.0756  0.9292
 6614TIP3   OH241476   4.802   2.944   7.935  0.0414 -0.2405  0.5614
 6614TIP3    H141477   4.827   2.882   7.866  0.9818 -2.3477  2.6670
 6614TIP3    H241478   4.766   2.889   8.004 -4.8820  2.1272  0.2469
 6615TIP3   OH241479   0.517   0.144   6.632 -0.2791  0.5607  0.0182
 6615TIP3    H141480   0.477   0.154   6.718 -0.3962 -0.3434  0.0767
 6615TIP3    H241481   0.523   0.050   6.619 -2.5097  0.5901 -1.9648
 6616TIP3   OH241482   6.274   1.782   2.572 -0.1640  0.1882  0.7394
 6616TIP3    H141483   6.221   1.789   2.493 -1.5814  1.1679  1.7092
 6616TIP3    H241484   6.326   1.703   2.560 -0.8698 -0.0750 -0.8504
 6617TIP3   OH241485   5.987   4.894   0.155  0.5458  0.0391 -0.1048
 6617TIP3    H141486   5.997   4.972   0.210 -1.2449  1.6614 -1.8737
 6617TIP3    H241487   6.074   4.881   0.116  0.9053  1.1117  0.2947
 6618TIP3   OH241488   2.880   6.101   6.707  0.5951 -0.3083  0.0993
 6618TIP3    H141489   2.816   6.152   6.756  0.2331  0.4389 -1.1307
 6618TIP3    H241490   2.859   6.117   6.615  1.8403 -0.9426 -0.3149
 6619TIP3   OH241491   4.597   2.990   8.302 -0.5034 -0.0039  0.4869
 6619TIP3    H141492   4.693   2.986   8.302 -0.4321  0.1379  2.8673
 6619TIP3    H241493   4.576   3.067   8.354 -1.9510  0.5861 -0.8800
 6620TIP3   OH241494   5.487   6.181   1.270 -0.4607 -0.5160  0.5335
 6620TIP3    H141495   5.484   6.276   1.281 -1.4722 -0.2433 -1.5414
 6620TIP3    H241496   5.578   6.158   1.284  0.0995  1.0069 -0.3449
 6621TIP3   OH241497   5.214   0.748   0.895  0.0459 -0.1132  0.1647
 6621TIP3    H141498   5.272   0.819   0.870  0.5899 -1.0518 -1.3547
 6621TIP3    H241499   5.133   0.763   0.846  0.2782 -0.7017 -0.4116
 6622TIP3   OH241500   3.621   0.555   7.533  0.7177  0.6857  0.0883
 6622TIP3    H141501   3.662   0.508   7.460 -0.1329 -0.5599  0.3980
 6622TIP3    H241502   3.613   0.645   7.501  1.0691  0.3287 -1.0544
 6623TIP3   OH241503   4.551   6.710   1.098  0.3091  0.2608 -0.2422
 6623TIP3    H141504   4.488   6.654   1.052  0.7951 -0.6514  0.1620
 6623TIP3    H241505   4.520   6.710   1.189  0.7918 -0.0718 -0.0700
 6624TIP3   OH241506   2.918   4.819   6.859 -0.0306 -0.0093 -0.0086
 6624TIP3    H141507   2.852   4.819   6.928 -0.0899 -0.3954 -0.0653
 6624TIP3    H241508   2.885   4.883   6.795 -0.3376 -0.1873 -0.0270
 6625TIP3   OH241509   5.051   0.345   8.563  0.2535  0.0306  0.6367
 6625TIP3    H141510   5.045   0.439   8.583 -1.3424  0.2925 -0.8915
 6625TIP3    H241511   4.964   0.311   8.582  1.0016 -1.3285  1.8360
 6626TIP3   OH241512   4.604   6.736   2.736 -0.1226 -0.3042 -0.3415
 6626TIP3    H141513   4.636   6.812   2.785 -0.5969  0.1421 -0.7062
 6626TIP3    H241514   4.590   6.668   2.802 -1.5950  0.5716  0.2982
 6627TIP3   OH241515   1.916   4.882   2.013 -0.0643  0.1422 -1.0101
 6627TIP3    H141516   1.905   4.907   2.105 -2.7053 -2.9484 -0.3317
 6627TIP3    H241517   2.010   4.893   1.997  0.8504 -0.9033  2.6271
 6628TIP3   OH241518   5.280   3.242   1.193 -0.1208  0.2330  0.0399
 6628TIP3    H141519   5.295   3.336   1.182 -1.7425  0.3466 -1.7628
 6628TIP3    H241520   5.353   3.212   1.247 -0.5469  2.8245  2.3165
 6629TIP3   OH241521   0.779   0.017   8.755  0.6166 -0.2872 -0.1590
 6629TIP3    H141522   0.852   0.048   8.701 -0.9797  0.1587 -2.1988
 6629TIP3    H241523   0.735  -0.048   8.700 -0.1558 -1.0352  1.2866
 6630TIP3   OH241524   6.511   1.372   7.106 -0.1916  0.1184  0.0802
 6630TIP3    H141525   6.550   1.288   7.080 -0.3824  0.4557 -1.3750
 6630TIP3    H241526   6.582   1.435   7.097 -0.9137  0.6701 -2.2117
 6631TIP3   OH241527   3.327   1.309   0.072  0.7412  0.5827  0.3171
 6631TIP3    H141528   3.281   1.385   0.109  0.3352  0.2133  0.5795
 6631TIP3    H241529   3.322   1.242   0.140  2.0250  0.6629  0.5102
 6632TIP3   OH241530   4.005   3.689   8.170  0.2411 -0.3649 -0.3286
 6632TIP3    H141531   3.932   3.644   8.128  0.1380  0.8912 -1.5927
 6632TIP3    H241532   4.056   3.725   8.097  0.6138  1.0676  0.5897
 6633TIP3   OH241533   3.605   1.386   0.002  0.1105  0.5930  0.0088
 6633TIP3    H141534   3.552   1.317   0.043  0.4106  1.2104  1.5166
 6633TIP3    H241535   3.547   1.423  -0.065 -0.4859 -0.3362 -0.0071
 6634TIP3   OH241536   4.090   1.529   1.191 -0.1074 -0.3647  0.4128
 6634TIP3    H141537   4.165   1.563   1.142 -1.2690 -0.6395 -1.6496
 6634TIP3    H241538   4.014   1.576   1.155 -0.8694  1.1191  3.5413
 6635TIP3   OH241539   5.380   2.121   0.259  0.0550  0.3618 -0.2682
 6635TIP3    H141540   5.458   2.102   0.312  1.3041 -0.1239 -2.1712
 6635TIP3    H241541   5.401   2.084   0.173 -1.7720  1.3703 -1.1881
 6636TIP3   OH241542   3.337   0.434   8.606 -0.6592  0.6543  0.0490
 6636TIP3    H141543   3.304   0.491   8.536 -0.7711  0.1793 -0.2894
 6636TIP3    H241544   3.408   0.385   8.565 -1.9179 -0.9632 -0.2759
 6637TIP3   OH241545   2.343   4.490   0.600  0.3010 -0.1894  0.5276
 6637TIP3    H141546   2.321   4.571   0.645 -0.3781 -1.1962  2.1278
 6637TIP3    H241547   2.439   4.484   0.606  0.3045  0.2196  0.9234
 6638TIP3   OH241548   0.400   2.701   1.983 -0.9493 -0.1571 -0.5460
 6638TIP3    H141549   0.439   2.623   1.943 -0.3855  0.2923 -0.8795
 6638TIP3    H241550   0.307   2.680   1.989 -0.7413 -1.0476 -0.1905
 6639TIP3   OH241551   1.470   0.002   0.838 -0.3968 -0.4059  0.3159
 6639TIP3    H141552   1.553  -0.041   0.858  0.1765  0.4276 -0.2062
 6639TIP3    H241553   1.481   0.092   0.870 -1.3715 -0.4705  0.8946
 6640TIP3   OH241554   1.575   0.462   8.785 -0.7438  0.5445  0.0769
 6640TIP3    H141555   1.665   0.436   8.804 -0.5603  1.7719  1.0383
 6640TIP3    H241556   1.574   0.557   8.799 -1.2746  1.2211 -3.5850
 6641TIP3   OH241557   1.753   5.027   1.183 -0.2381 -0.0175 -0.4604
 6641TIP3    H141558   1.692   5.083   1.232 -0.1385  0.0037 -0.3610
 6641TIP3    H241559   1.742   5.054   1.092 -0.9418 -0.5349 -0.5430
 6642TIP3   OH241560   2.526   1.984   0.348  0.2076 -0.0330  0.4390
 6642TIP3    H141561   2.581   2.058   0.322  0.4745 -0.0014  1.0731
 6642TIP3    H241562   2.549   1.915   0.287 -1.3198  0.9192 -1.3087
 6643TIP3   OH241563   2.747   3.643   6.307 -0.0830  0.1604 -0.1915
 6643TIP3    H141564   2.684   3.633   6.236  1.1556 -2.7481 -1.0613
 6643TIP3    H241565   2.696   3.673   6.382 -1.3657  3.8360 -2.3228
 6644TIP3   OH241566   3.965   0.625   7.456  0.3907  0.0263  0.0035
 6644TIP3    H141567   3.928   0.537   7.455  1.9184 -0.6308  0.2488
 6644TIP3    H241568   3.987   0.641   7.548  0.2480  0.6167 -0.0600
 6645TIP3   OH241569   1.982   4.790   8.518 -0.2344  0.3807 -0.2639
 6645TIP3    H141570   2.031   4.724   8.567  0.1038  0.3708 -0.6108
 6645TIP3    H241571   2.017   4.874   8.548  1.9602  0.3518 -2.4543
 6646TIP3   OH241572   3.536   5.163   7.690  0.4827  0.2928  0.7570
 6646TIP3    H141573   3.600   5.163   7.761 -0.0229 -2.7627  1.3086
 6646TIP3    H241574   3.587   5.189   7.613  2.4583 -1.9058  1.2035
 6647TIP3   OH241575   2.702   3.976   2.124 -0.1109 -0.1385 -0.0071
 6647TIP3    H141576   2.751   3.894   2.137  1.2698  0.6197 -0.2864
 6647TIP3    H241577   2.768   4.045   2.129 -1.1722  0.9348 -0.3073
 6648TIP3   OH241578   5.408   4.466   7.824 -0.4256  0.0502  1.0063
 6648TIP3    H141579   5.465   4.392   7.803 -0.0589  0.4590  0.5467
 6648TIP3    H241580   5.334   4.457   7.764  0.4621  1.0319 -0.2685
 6649TIP3   OH241581   6.321   2.422   8.160  0.0282 -0.2060 -0.0626
 6649TIP3    H141582   6.350   2.331   8.150 -1.8690 -0.8429 -0.2171
 6649TIP3    H241583   6.345   2.445   8.249 -0.0465 -1.0837  0.1921
 6650TIP3   OH241584   1.310   6.318   0.395  0.0191  0.9465  0.5761
 6650TIP3    H141585   1.363   6.253   0.442 -0.5605 -1.1101 -1.4367
 6650TIP3    H241586   1.226   6.317   0.440 -0.3558 -0.6008 -0.0854
 6651TIP3   OH241587   6.533   3.233   0.582 -0.2350  0.4265 -0.6098
 6651TIP3    H141588   6.474   3.276   0.644 -1.7387 -1.0235 -0.9479
 6651TIP3    H241589   6.532   3.290   0.505  0.2399  1.3258  0.0318
 6652TIP3   OH241590   4.535   5.971   1.106 -0.4003 -0.1562 -0.7001
 6652TIP3    H141591   4.512   5.887   1.067  0.7670 -0.6542 -0.3780
 6652TIP3    H241592   4.624   5.958   1.138  0.0139  1.3724 -1.1391
 6653TIP3   OH241593   3.828   6.712   8.157  0.8935  0.0758  0.0528
 6653TIP3    H141594   3.831   6.644   8.224  0.3241 -0.9755 -0.9423
 6653TIP3    H241595   3.823   6.794   8.206 -2.4000 -0.7406  1.3713
 6654TIP3   OH241596   3.055   5.205   7.216 -0.0855 -0.5338  0.3467
 6654TIP3    H141597   3.067   5.262   7.291 -0.4425 -0.4981  0.3798
 6654TIP3    H241598   3.138   5.158   7.207  1.0060  1.5013 -0.9777
 6655TIP3   OH241599   1.989   5.327   8.989 -0.2567 -0.2170 -0.5696
 6655TIP3    H141600   2.070   5.376   9.000 -0.3645 -0.1805  0.1443
 6655TIP3    H241601   1.921   5.387   9.021 -0.4423 -0.6375 -0.1640
 6656TIP3   OH241602   1.803   6.022   8.160 -0.7064  0.0905 -0.0962
 6656TIP3    H141603   1.768   6.100   8.117  0.0005  0.6662  0.3549
 6656TIP3    H241604   1.867   6.055   8.223 -2.2828 -0.6502  2.0150
 6657TIP3   OH241605   0.155   3.704   8.373  0.0359  0.2567 -0.2959
 6657TIP3    H141606   0.085   3.643   8.351  0.2996  0.1109 -0.7206
 6657TIP3    H241607   0.206   3.713   8.293  1.5025 -0.9275  0.4754
 6658TIP3   OH241608   1.286   5.107   2.314  0.3023 -0.2094 -0.1364
 6658TIP3    H141609   1.191   5.095   2.305  0.3109 -0.5374  0.1914
 6658TIP3    H241610   1.304   5.189   2.268 -0.0719 -0.3874 -0.6054
 6659TIP3   OH241611   4.675   2.750   1.548 -0.0651 -0.2193 -0.1012
 6659TIP3    H141612   4.723   2.823   1.508 -2.1340  1.2737 -0.0074
 6659TIP3    H241613   4.685   2.764   1.642 -1.4680  0.7108 -0.0618
 6660TIP3   OH241614   1.381   0.465   1.540 -0.4446  0.0197 -0.1016
 6660TIP3    H141615   1.322   0.495   1.610  0.5833  0.4138  0.6131
 6660TIP3    H241616   1.410   0.545   1.497  0.2402 -0.1099  0.1078
 6661TIP3   OH241617   3.114   5.731   1.594 -0.5967 -0.8672  0.0735
 6661TIP3    H141618   3.081   5.739   1.684  0.7829 -0.7990  0.6027
 6661TIP3    H241619   3.209   5.739   1.603 -0.4538 -0.6704 -1.4290
 6662TIP3   OH241620   4.834   1.498   8.147 -0.4320 -0.5688 -0.0368
 6662TIP3    H141621   4.744   1.532   8.143  0.1578  1.2131  0.5592
 6662TIP3    H241622   4.830   1.414   8.102 -2.2833 -0.2854 -0.5003
 6663TIP3   OH241623   6.120   4.372   7.597 -0.3719  0.6438 -0.6017
 6663TIP3    H141624   6.042   4.356   7.544  0.1453  0.9607 -1.4960
 6663TIP3    H241625   6.160   4.286   7.608 -0.3608  0.6058 -0.9300
 6664TIP3   OH241626   2.859   5.631   0.246  0.1739 -0.2568 -0.4629
 6664TIP3    H141627   2.821   5.548   0.273  0.2925  0.3209  1.6819
 6664TIP3    H241628   2.785   5.685   0.221 -0.5075  0.6071  2.9560
 6665TIP3   OH241629   2.435   3.862   7.128 -0.3686 -0.0432 -0.3204
 6665TIP3    H141630   2.360   3.890   7.182  0.7201  2.7411 -0.0641
 6665TIP3    H241631   2.396   3.832   7.046 -1.8132  0.4006  0.1766
 6666TIP3   OH241632   3.209   5.957   7.634  0.3814  1.0027  0.3269
 6666TIP3    H141633   3.198   6.039   7.585  0.9675  1.5322  1.0603
 6666TIP3    H241634   3.174   5.890   7.576 -1.1874  1.9054  0.1736
 6667TIP3   OH241635   4.001   2.176   1.087 -0.4330 -0.6968  0.0200
 6667TIP3    H141636   3.981   2.265   1.057 -1.9978 -1.3175 -0.9080
 6667TIP3    H241637   4.064   2.143   1.023 -1.6856 -1.0565 -1.0898
 6668TIP3   OH241638   0.158   1.820   0.963 -0.2456 -0.0877  0.4112
 6668TIP3    H141639   0.133   1.774   0.883  0.1665  0.4899 -0.0674
 6668TIP3    H241640   0.173   1.751   1.028 -1.6083 -0.5102  0.3009
 6669TIP3   OH241641   1.756   3.765   8.839 -0.0560  0.0104  0.1448
 6669TIP3    H141642   1.735   3.728   8.754 -0.2158 -0.7209  0.4992
 6669TIP3    H241643   1.717   3.852   8.837  0.8651  0.4320 -0.9307
 6670TIP3   OH241644   1.235   5.676   1.297 -0.4617  0.4738  0.6762
 6670TIP3    H141645   1.208   5.651   1.385  0.1158 -0.5932  0.5684
 6670TIP3    H241646   1.287   5.755   1.309  0.3938 -0.1850  1.4083
 6671TIP3   OH241647   0.040   4.042   7.809 -0.3892  0.6143  0.1424
 6671TIP3    H141648   0.112   4.045   7.872  0.3097  2.8611 -0.6788
 6671TIP3    H241649   0.009   4.132   7.803 -0.0355  0.6506 -3.1039
 6672TIP3   OH241650   6.323   1.599   0.838  0.0864  0.3470  0.0599
 6672TIP3    H141651   6.391   1.665   0.830 -0.5660  0.8857 -1.5800
 6672TIP3    H241652   6.246   1.639   0.796 -0.5160 -1.1649 -0.3534
 6673TIP3   OH241653   6.414   5.508   1.047 -0.6353 -0.7194  0.5168
 6673TIP3    H141654   6.387   5.471   0.963  0.5463 -2.0299  0.6722
 6673TIP3    H241655   6.413   5.433   1.107  1.0191 -0.3596  1.0421
 6674TIP3   OH241656   3.249   5.474   8.817 -0.1681  0.3288  0.4522
 6674TIP3    H141657   3.280   5.481   8.727 -0.6755 -0.8480  0.1682
 6674TIP3    H241658   3.328   5.474   8.870  0.3132 -1.5481 -0.1900
 6675TIP3   OH241659   1.007   5.902   2.015 -0.0593 -0.2365 -0.4992
 6675TIP3    H141660   1.022   5.996   2.024  1.4216 -0.4195 -0.7146
 6675TIP3    H241661   0.966   5.876   2.097 -0.3665  0.5721 -0.3849
 6676TIP3   OH241662   5.665   5.180   8.995  0.0330  0.4363 -0.5315
 6676TIP3    H141663   5.577   5.200   8.965 -0.3965 -0.6911 -0.0759
 6676TIP3    H241664   5.721   5.199   8.920 -0.1558  4.1827  0.1242
 6677TIP3   OH241665   2.880   5.530   8.945  0.3899  0.1211 -0.3015
 6677TIP3    H141666   2.811   5.594   8.961  0.5364 -0.0220  1.0252
 6677TIP3    H241667   2.872   5.507   8.852  1.3333  3.2667 -1.2968
 6678TIP3   OH241668   2.906   2.257   0.508  0.0612  0.0895 -0.6826
 6678TIP3    H141669   2.848   2.326   0.478  2.4041  1.0944 -3.3894
 6678TIP3    H241670   2.864   2.175   0.480 -0.1037  0.7918 -2.6724
 6679TIP3   OH241671   5.286   0.964   6.715  0.0135  0.4547 -0.4137
 6679TIP3    H141672   5.307   1.053   6.745 -0.2762  1.1663 -2.2166
 6679TIP3    H241673   5.214   0.976   6.654 -0.2507 -1.0829 -0.4354
 6680TIP3   OH241674   3.073   5.325   7.540 -0.0882 -0.1155 -0.2188
 6680TIP3    H141675   3.014   5.387   7.497  1.1816  0.3234 -1.4340
 6680TIP3    H241676   3.017   5.254   7.571 -1.1501 -0.2195 -2.2380
 6681TIP3   OH241677   1.793   2.893   8.624  0.3523 -0.3372 -0.6538
 6681TIP3    H141678   1.817   2.864   8.711  0.0212 -0.8559 -0.7334
 6681TIP3    H241679   1.859   2.958   8.601  0.4548 -0.2203 -0.0310
 6682TIP3   OH241680   3.372   3.266   0.286  0.2522  0.1400 -0.1129
 6682TIP3    H141681   3.428   3.314   0.347  0.6820 -0.6365  0.1199
 6682TIP3    H241682   3.396   3.174   0.299  0.0213 -0.0723 -1.1291
 6683TIP3   OH241683   4.985   5.860   7.750  0.3189  0.2764 -0.2246
 6683TIP3    H141684   5.031   5.851   7.666  0.5666 -0.5317 -0.0122
 6683TIP3    H241685   4.927   5.784   7.754  2.1108 -1.1238  1.4183
 6684TIP3   OH241686   0.125   0.363   1.831  0.0711  0.2709 -0.5083
 6684TIP3    H141687   0.170   0.388   1.911  1.9641  0.2603 -1.4985
 6684TIP3    H241688   0.107   0.446   1.786 -0.6607  0.2580 -0.2479
 6685TIP3   OH241689   6.327   1.497   1.864 -0.3359 -0.5253  0.0451
 6685TIP3    H141690   6.286   1.459   1.942 -1.2301  0.5632  0.1417
 6685TIP3    H241691   6.413   1.457   1.860  0.4224  0.6259  2.5831
 6686TIP3   OH241692   4.773   6.411   7.122  0.0787  0.5675  0.2487
 6686TIP3    H141693   4.812   6.452   7.045  0.7264 -0.1371  0.1949
 6686TIP3    H241694   4.729   6.333   7.088 -0.8699  1.0268  0.3957
 6687TIP3   OH241695   3.499   6.047   7.782  0.0441 -0.1274  0.9791
 6687TIP3    H141696   3.423   6.016   7.831 -0.5934 -0.5944 -0.2528
 6687TIP3    H241697   3.465   6.068   7.695  1.3060 -0.2831  0.4170
 6688TIP3   OH241698   2.275   0.040   0.795 -0.6120  0.1688  0.6485
 6688TIP3    H141699   2.182   0.064   0.796 -0.2201  1.8227  0.8016
 6688TIP3    H241700   2.278  -0.043   0.748 -1.9888  0.9428 -0.9012
 6689TIP3   OH241701   6.562   1.628   7.785  0.7839  0.0649 -0.3548
 6689TIP3    H141702   6.627   1.649   7.718  0.7091 -1.8841 -1.1040
 6689TIP3    H241703   6.611   1.578   7.851  0.0756 -1.4396 -0.9346
 6690TIP3   OH241704   2.475   5.199   7.954  0.1229 -0.2425 -0.3326
 6690TIP3    H141705   2.405   5.167   7.897  0.5215 -2.1460  0.1955
 6690TIP3    H241706   2.429   5.227   8.034 -0.1017 -1.1134 -0.1444
 6691TIP3   OH241707   1.796   2.109   8.112  0.2648 -0.2111 -0.1431
 6691TIP3    H141708   1.866   2.045   8.128 -0.2778 -1.1575 -1.3659
 6691TIP3    H241709   1.841   2.184   8.074  0.6266 -0.8290 -0.9700
 6692TIP3   OH241710   3.002   0.179   1.008  1.0909 -0.3860  0.2163
 6692TIP3    H141711   3.065   0.192   0.937  0.1941  1.4404 -0.2945
 6692TIP3    H241712   2.975   0.087   0.999  1.6620 -0.4406 -1.2245
 6693TIP3   OH241713   2.599   4.201   1.020 -0.1233 -0.0485 -0.7831
 6693TIP3    H141714   2.674   4.143   1.029 -0.7369 -0.5953  1.0547
 6693TIP3    H241715   2.579   4.199   0.926  1.5783 -0.5857 -1.1733
 6694TIP3   OH241716   4.473   1.198   1.447  0.2185 -0.0735  0.3197
 6694TIP3    H141717   4.565   1.209   1.467 -0.1460  0.1124  1.9858
 6694TIP3    H241718   4.428   1.268   1.495 -0.7705  0.0130 -0.6766
 6695TIP3   OH241719   6.330   6.775   8.294  0.1057  0.0992 -0.2355
 6695TIP3    H141720   6.316   6.816   8.379 -0.1871 -1.1574  0.3482
 6695TIP3    H241721   6.425   6.771   8.285  0.2466 -2.2486  1.3523
 6696TIP3   OH241722   0.430   1.864   7.842  0.1190 -0.3780  0.1643
 6696TIP3    H141723   0.364   1.804   7.809 -0.0446 -0.1561  0.0866
 6696TIP3    H241724   0.461   1.910   7.764 -0.1803  0.0621  0.3002
 6697TIP3   OH241725   0.224   0.500   7.795  0.3854  0.1197 -0.4076
 6697TIP3    H141726   0.164   0.472   7.725  1.4187 -0.3344 -1.1352
 6697TIP3    H241727   0.244   0.419   7.842 -0.7964  0.5144  0.8431
 6698TIP3   OH241728   4.044   0.712   7.970 -0.1909 -0.0921  0.5603
 6698TIP3    H141729   4.019   0.650   8.038  0.2275  0.1982  0.9853
 6698TIP3    H241730   4.034   0.798   8.011  1.6635  0.0385  0.8424
 6699TIP3   OH241731   0.235   1.878   7.583  0.2105 -0.4734  0.0216
 6699TIP3    H141732   0.209   1.788   7.604 -0.0824 -0.5758 -0.7249
 6699TIP3    H241733   0.162   1.911   7.530  0.1744  0.3118  0.5458
 6700TIP3   OH241734   5.027   5.501   7.444  0.4169  0.1592  1.0111
 6700TIP3    H141735   5.035   5.417   7.400 -0.1609  0.9566 -0.6862
 6700TIP3    H241736   5.023   5.479   7.537  2.9134 -1.4859  0.8028
 6701TIP3   OH241737   6.583   5.857   8.647 -0.1947  0.3467 -0.0851
 6701TIP3    H141738   6.634   5.810   8.581  1.1993 -0.5870  1.5685
 6701TIP3    H241739   6.492   5.842   8.622  0.1925 -2.7626 -0.0184
 6702TIP3   OH241740   3.053   6.392   7.185 -0.1927  0.4337 -0.2619
 6702TIP3    H141741   3.017   6.481   7.184 -0.3971  0.3518 -0.4631
 6702TIP3    H241742   3.117   6.392   7.115 -1.1834  0.0294 -1.1926
 6703TIP3   OH241743   0.935   1.206   1.378  0.2960  0.2053  0.2756
 6703TIP3    H141744   0.964   1.284   1.425  0.2614  0.2531  0.2186
 6703TIP3    H241745   0.996   1.137   1.404 -0.9241 -0.3109  2.0509
 6704TIP3   OH241746   4.096   2.780   7.675 -0.3551 -0.4126  0.1133
 6704TIP3    H141747   4.005   2.811   7.676 -0.7640 -1.5634  0.5288
 6704TIP3    H241748   4.124   2.789   7.584 -0.8776 -0.0414 -0.0159
 6705TIP3   OH241749   4.530   1.967   1.524 -0.1651 -0.2032  0.3222
 6705TIP3    H141750   4.437   1.980   1.542 -0.5167  0.3092 -1.6493
 6705TIP3    H241751   4.564   1.926   1.603 -1.7102  1.1334  1.7546
 6706TIP3   OH241752   2.460   1.381   7.570  0.5340  0.1783  0.5871
 6706TIP3    H141753   2.525   1.329   7.617  0.7001 -0.1948 -0.0447
 6706TIP3    H241754   2.398   1.317   7.536  0.4159  0.4422  0.2966
 6707TIP3   OH241755   1.446   1.208   8.365 -0.2810 -0.3334 -0.0800
 6707TIP3    H141756   1.511   1.275   8.386 -2.0454  1.1084  1.1100
 6707TIP3    H241757   1.456   1.142   8.434 -1.1697  0.7290  1.0993
 6708TIP3   OH241758   1.422   2.872   6.072 -0.3396  0.5014 -0.6376
 6708TIP3    H141759   1.430   2.831   5.986 -0.5268 -1.2103  0.1265
 6708TIP3    H241760   1.458   2.808   6.133 -1.1276  1.2597  0.6777
 6709TIP3   OH241761   4.420   1.345   6.461 -0.1127  0.0371 -0.0221
 6709TIP3    H141762   4.364   1.422   6.462 -1.1684 -0.6975 -0.5278
 6709TIP3    H241763   4.404   1.303   6.546  1.9055  1.3300  1.0851
 6710TIP3   OH241764   3.672   4.069   0.448 -0.4335 -0.0101  0.3331
 6710TIP3    H141765   3.620   4.147   0.426  2.3168  1.6894 -0.5560
 6710TIP3    H241766   3.638   4.001   0.390 -1.4541  1.0965 -0.4328
 6711TIP3   OH241767   6.003   1.666   7.296  0.1614  0.5272 -0.5933
 6711TIP3    H141768   5.990   1.587   7.245 -1.0126  0.6318 -0.4824
 6711TIP3    H241769   6.075   1.645   7.356 -1.9991 -1.5641  1.5259
 6712TIP3   OH241770   6.196   5.319   1.134  0.1290  0.6486  0.0505
 6712TIP3    H141771   6.194   5.395   1.193 -1.4897 -0.2433  1.1998
 6712TIP3    H241772   6.238   5.250   1.185  0.3546  0.3746 -0.5024
 6713TIP3   OH241773   5.676   6.090   1.778 -0.0072 -0.2391 -1.3967
 6713TIP3    H141774   5.754   6.052   1.817  0.3599  1.1856 -0.6827
 6713TIP3    H241775   5.709   6.149   1.710 -0.3925  0.9912 -0.5493
 6714TIP3   OH241776   2.189   6.176   2.514 -0.3566 -0.4494 -0.1828
 6714TIP3    H141777   2.116   6.192   2.454 -0.6077 -0.6496  0.0682
 6714TIP3    H241778   2.223   6.263   2.534 -1.1109 -0.2793  0.4214
 6715TIP3   OH241779   2.388   1.102   8.970 -0.2522 -0.3310 -0.0423
 6715TIP3    H141780   2.318   1.047   8.935  1.3134 -2.8663  0.5775
 6715TIP3    H241781   2.343   1.167   9.024 -2.2310 -0.4034 -1.4884
 6716TIP3   OH241782   4.195   0.069   1.078  0.1380 -0.5799  0.3951
 6716TIP3    H141783   4.207  -0.026   1.069  2.4495 -0.2753 -0.4246
 6716TIP3    H241784   4.230   0.105   0.996  1.1563  1.0929  1.5189
 6717TIP3   OH241785   2.930   3.701   2.539 -0.2546 -0.2979  0.2079
 6717TIP3    H141786   2.988   3.642   2.587 -0.3022 -1.8109 -1.4613
 6717TIP3    H241787   2.846   3.655   2.538 -0.8756  0.8025  0.6547
 6718TIP3   OH241788   5.592   6.421   1.345  0.0400  0.3643 -0.2995
 6718TIP3    H141789   5.601   6.493   1.283 -0.4951  1.8703  1.2864
 6718TIP3    H241790   5.517   6.444   1.399  0.1540 -1.1521  0.5817
 6719TIP3   OH241791   4.186   3.350   0.474 -0.4086  0.3067  0.2389
 6719TIP3    H141792   4.244   3.320   0.545  1.3262  3.2469  0.2540
 6719TIP3    H241793   4.226   3.315   0.394  0.6019  1.0700  0.3795
 6720TIP3   OH241794   2.273   2.486   8.596  0.2592 -0.1528  0.0085
 6720TIP3    H141795   2.323   2.448   8.668  1.3418 -0.3794 -0.8454
 6720TIP3    H241796   2.335   2.543   8.551 -0.9451  1.5678  0.4180
 6721TIP3   OH241797   4.833   6.243   6.715  0.0455 -0.2473  0.0144
 6721TIP3    H141798   4.845   6.334   6.744  0.9304  0.0027 -1.0521
 6721TIP3    H241799   4.866   6.243   6.625  1.1184 -1.8889  0.3739
 6722TIP3   OH241800   2.216   3.262   8.639  0.0021 -0.1139 -0.0299
 6722TIP3    H141801   2.261   3.219   8.712  0.4090 -0.0573 -0.2472
 6722TIP3    H241802   2.285   3.306   8.590 -0.0038 -1.6527 -1.5011
 6723TIP3   OH241803   5.965   4.812   8.858 -0.7862 -0.2762  0.0287
 6723TIP3    H141804   5.980   4.902   8.829 -0.2335 -0.6046 -0.7136
 6723TIP3    H241805   5.973   4.817   8.954  0.3320  0.2758 -0.0718
 6724TIP3   OH241806   1.528   0.957   0.287 -0.0498 -0.4247  0.1367
 6724TIP3    H141807   1.492   1.046   0.278 -0.9316 -0.8400 -0.5324
 6724TIP3    H241808   1.579   0.961   0.368 -0.2315  0.6433  0.2185
 6725TIP3   OH241809   1.088   6.200   0.084 -0.3336  0.3316 -0.4008
 6725TIP3    H141810   1.142   6.202   0.005 -1.5351  2.1905 -1.2391
 6725TIP3    H241811   1.140   6.150   0.148  0.8296 -0.8811 -2.2152
 6726TIP3   OH241812   3.051   0.483   7.533  0.4700 -0.2113 -0.2517
 6726TIP3    H141813   3.092   0.472   7.447  1.2234 -0.6875  0.1526
 6726TIP3    H241814   2.987   0.411   7.538  0.9497 -0.6345 -0.1220
 6727TIP3   OH241815   3.486   2.185   0.217 -0.0894  0.3194  0.2375
 6727TIP3    H141816   3.399   2.172   0.253  0.1151 -0.2232  0.5503
 6727TIP3    H241817   3.473   2.244   0.143 -0.7814 -0.0932  0.0225
 6728TIP3   OH241818   2.606   4.947   8.316 -0.7002  0.2534  0.3998
 6728TIP3    H141819   2.677   4.895   8.352  0.1752  1.8876  1.1265
 6728TIP3    H241820   2.630   4.960   8.224 -0.8807 -0.5195  0.2362
 6729TIP3   OH241821   2.062   5.897   8.295  0.3297  0.7875 -0.7823
 6729TIP3    H141822   2.074   5.989   8.319  0.7649  0.9358 -1.5269
 6729TIP3    H241823   2.029   5.855   8.375  1.1849  1.3738 -0.1040
 6730TIP3   OH241824   5.281   3.194   0.177  0.1751 -0.0342 -0.3761
 6730TIP3    H141825   5.292   3.270   0.120  0.6241 -0.2011 -0.5105
 6730TIP3    H241826   5.297   3.228   0.265  0.8520 -0.0748 -0.4801
 6731TIP3   OH241827   0.130   2.836   0.805  0.0396 -0.1866 -0.0251
 6731TIP3    H141828   0.216   2.822   0.846  0.4615 -1.2909 -1.1818
 6731TIP3    H241829   0.126   2.930   0.789 -0.5080  0.4544  3.1989
 6732TIP3   OH241830   1.664   4.024   1.460  0.4107 -0.5868  0.4239
 6732TIP3    H141831   1.598   4.069   1.407  1.2386 -0.0671 -0.1820
 6732TIP3    H241832   1.617   3.998   1.540 -0.9993 -1.8163 -0.7310
 6733TIP3   OH241833   5.795   1.315   0.553  0.2076 -0.4277  0.5911
 6733TIP3    H141834   5.734   1.286   0.485 -0.8346 -0.7433  1.6459
 6733TIP3    H241835   5.756   1.396   0.586  1.5279  0.5907 -0.2426
 6734TIP3   OH241836   5.173   4.400   8.019  0.5862 -0.2751  0.4949
 6734TIP3    H141837   5.175   4.348   7.938 -1.6432  0.4738 -0.1101
 6734TIP3    H241838   5.127   4.480   7.995 -1.7434 -0.7557  2.8858
 6735TIP3   OH241839   2.727   5.069   7.825 -0.3898 -0.0774 -0.2724
 6735TIP3    H141840   2.661   5.125   7.864 -1.0691 -0.8023 -0.3744
 6735TIP3    H241841   2.696   4.980   7.840  1.0986 -0.4776  0.6398
 6736TIP3   OH241842   3.900   6.262   8.088  0.3337 -0.2010  0.2930
 6736TIP3    H141843   3.884   6.351   8.058  0.0868 -0.3269  0.0415
 6736TIP3    H241844   3.855   6.207   8.024  0.0653 -0.4847  0.7226
 6737TIP3   OH241845   2.485   4.561   0.198 -0.3510  0.1868 -0.2270
 6737TIP3    H141846   2.549   4.496   0.226 -0.7681 -0.1770 -0.1125
 6737TIP3    H241847   2.508   4.579   0.106 -0.1837 -0.0589 -0.2336
 6738TIP3   OH241848   0.927   4.223   1.807 -0.4428  0.6488  0.4064
 6738TIP3    H141849   0.867   4.259   1.872 -2.3347  0.3771 -1.0858
 6738TIP3    H241850   0.894   4.256   1.723  1.5486  0.5012 -0.5057
 6739TIP3   OH241851   6.167   5.356   7.749  0.4035  0.7915 -0.2699
 6739TIP3    H141852   6.184   5.406   7.829  0.3490  0.6229 -0.1542
 6739TIP3    H241853   6.101   5.407   7.702 -1.0950 -0.1414  0.7462
 6740TIP3   OH241854   2.073   1.210   1.579 -0.0614  0.1143  0.7238
 6740TIP3    H141855   2.055   1.303   1.562 -2.0780  0.1256  2.4179
 6740TIP3    H241856   2.014   1.164   1.519 -1.6274  0.0396  2.2534
 6741TIP3   OH241857   2.373   0.750   1.599 -0.1243 -0.1017  0.1837
 6741TIP3    H141858   2.370   0.656   1.620 -0.3702 -0.1948 -0.2337
 6741TIP3    H241859   2.343   0.754   1.508 -1.0306  0.4762  0.4898
 6742TIP3   OH241860   0.296   6.533   8.178 -0.1762  0.2665 -0.6960
 6742TIP3    H141861   0.311   6.598   8.247 -1.7057  1.4201 -1.3842
 6742TIP3    H241862   0.301   6.582   8.096  0.1064 -0.7797 -1.3321
 6743TIP3   OH241863   5.166   1.493   7.471  0.1224  0.0390  0.1237
 6743TIP3    H141864   5.192   1.415   7.520 -1.5435  0.5399  1.9018
 6743TIP3    H241865   5.217   1.564   7.510  1.4379 -0.0653 -1.3135
 6744TIP3   OH241866   2.258   1.420   8.021 -0.0443 -0.0726 -0.3868
 6744TIP3    H141867   2.175   1.377   7.999  0.7304 -1.6533 -0.3591
 6744TIP3    H241868   2.262   1.495   7.961 -0.9854 -0.6039 -1.1561
 6745TIP3   OH241869   5.399   6.257   1.731  0.1730  0.4873 -0.2941
 6745TIP3    H141870   5.336   6.216   1.791 -1.2941  0.5201 -1.7410
 6745TIP3    H241871   5.470   6.194   1.725  0.6992  0.7763  1.9744
 6746TIP3   OH241872   5.843   0.841   8.305  0.1931  0.2860 -0.3373
 6746TIP3    H141873   5.915   0.897   8.278  0.0505  0.3894 -0.5000
 6746TIP3    H241874   5.776   0.853   8.238 -0.1833  0.5878  0.0907
 6747TIP3   OH241875   1.718   6.176   2.396 -0.2013 -0.2446 -0.7855
 6747TIP3    H141876   1.687   6.215   2.478 -2.1878  0.5207 -1.8349
 6747TIP3    H241877   1.680   6.088   2.396  0.8377 -0.7113 -0.3417
 6748TIP3   OH241878   1.067   3.866   7.805  0.3397 -0.1539  0.0614
 6748TIP3    H141879   1.083   3.886   7.897  0.4954 -3.4851  0.8484
 6748TIP3    H241880   0.978   3.831   7.803  0.3135 -0.0749 -1.1053
 6749TIP3   OH241881   4.025   4.835   7.556  0.1357  0.1017  0.0159
 6749TIP3    H141882   3.999   4.877   7.474  1.0075 -0.2933 -0.4790
 6749TIP3    H241883   4.093   4.892   7.592 -0.7074  0.6323  0.8258
 6750TIP3   OH241884   2.590   3.954   8.735 -0.9364  0.1616  0.4873
 6750TIP3    H141885   2.666   3.988   8.783 -0.3278 -1.1799  0.5213
 6750TIP3    H241886   2.559   4.027   8.682  0.1256  0.8410  0.7926
 6751TIP3   OH241887   2.408   4.310   7.380  0.3324 -0.5895 -0.5149
 6751TIP3    H141888   2.439   4.241   7.439  2.0509 -1.7106 -2.5754
 6751TIP3    H241889   2.378   4.263   7.302 -3.2703  0.7342 -0.1051
 6752TIP3   OH241890   3.827   6.268   1.187 -0.0523 -0.0830  0.3994
 6752TIP3    H141891   3.852   6.353   1.152  2.0670 -0.1109  1.6488
 6752TIP3    H241892   3.754   6.287   1.246  0.0135  0.7778  0.2197
 6753TIP3   OH241893   5.912   6.676   8.850 -0.7375  0.0325 -0.2843
 6753TIP3    H141894   5.908   6.741   8.921  2.2177  0.7926 -0.6593
 6753TIP3    H241895   5.924   6.592   8.896  0.0916  0.3790  0.1548
 6754TIP3   OH241896   6.168   1.710   0.621 -0.0821 -0.1650 -0.2551
 6754TIP3    H141897   6.145   1.802   0.634  2.8711  0.6389 -0.1839
 6754TIP3    H241898   6.101   1.677   0.561 -0.4235  2.4161 -1.4061
 6755TIP3   OH241899   0.676   4.750   8.736  0.5555 -0.5769 -1.6113
 6755TIP3    H141900   0.679   4.832   8.786  0.7650 -1.5699  0.0926
 6755TIP3    H241901   0.691   4.776   8.645  1.5972  1.1570 -0.9765
 6756TIP3   OH241902   2.099   2.846   8.423 -0.0175 -0.0935  0.4101
 6756TIP3    H141903   2.081   2.927   8.471 -1.5146  0.5257 -1.0884
 6756TIP3    H241904   2.154   2.875   8.349 -1.8776 -0.0959 -1.0418
 6757TIP3   OH241905   3.211   1.810   6.581  0.1630 -0.2903  0.0199
 6757TIP3    H141906   3.187   1.892   6.537  2.8508  0.9077  0.6097
 6757TIP3    H241907   3.286   1.833   6.635  1.8790 -3.4154 -0.8010
 6758TIP3   OH241908   3.886   3.597   0.706  0.1108  0.5104 -0.1621
 6758TIP3    H141909   3.934   3.674   0.735 -0.8268  1.4633 -1.0643
 6758TIP3    H241910   3.937   3.564   0.632  0.6256  0.1229  0.3556
 6759TIP3   OH241911   1.426   0.552   8.115  0.1681  0.4104 -0.3168
 6759TIP3    H141912   1.404   0.584   8.027 -1.2247 -1.3953 -0.6878
 6759TIP3    H241913   1.492   0.614   8.147 -1.4878  2.8862 -1.3968
 6760TIP3   OH241914   2.066   0.824   7.641  0.1560 -0.6533 -0.1774
 6760TIP3    H141915   2.002   0.890   7.613  0.4493 -0.3090 -0.0493
 6760TIP3    H241916   2.082   0.771   7.564 -1.8897 -2.0970  0.3122
 6761TIP3   OH241917   4.949   3.598   2.396  0.4686  0.1958 -0.0249
 6761TIP3    H141918   4.899   3.665   2.349  2.2819  0.6937 -1.3600
 6761TIP3    H241919   4.972   3.638   2.479  2.0365  1.5560 -1.0337
 6762TIP3   OH241920   3.296   4.065   0.280 -0.0207 -0.2367 -0.0650
 6762TIP3    H141921   3.299   4.086   0.373  3.0432  0.4349 -0.2281
 6762TIP3    H241922   3.279   3.971   0.277  0.3141 -0.3582  1.1744
 6763TIP3   OH241923   2.888   4.025   7.812  0.2468 -0.2282  0.0528
 6763TIP3    H141924   2.961   3.993   7.759  0.6350 -2.1691  1.6706
 6763TIP3    H241925   2.928   4.092   7.869  0.7070 -0.9803  0.6347
 6764TIP3   OH241926   2.140   2.567   1.580  0.0431  0.3025 -0.0703
 6764TIP3    H141927   2.196   2.527   1.647 -0.5782 -0.9684 -0.2815
 6764TIP3    H241928   2.102   2.643   1.623  1.8921  1.1946  0.0852
 6765TIP3   OH241929   0.104   1.605   8.913 -0.1216 -0.1763  0.6320
 6765TIP3    H141930   0.095   1.533   8.976  0.2262  0.0006  0.8823
 6765TIP3    H241931   0.151   1.673   8.960 -1.4176  0.6690  0.7555
 6766TIP3   OH241932   3.159   3.987   7.047 -0.4666 -0.2450 -0.1562
 6766TIP3    H141933   3.242   3.941   7.061  0.4355  1.3848 -0.0025
 6766TIP3    H241934   3.150   4.044   7.123 -1.3526  0.1548 -0.5502
 6767TIP3   OH241935   6.165   4.322   2.055  0.6650 -0.3163 -0.1426
 6767TIP3    H141936   6.166   4.418   2.045  1.0484 -0.4635 -1.8142
 6767TIP3    H241937   6.248   4.301   2.096  1.2865 -0.0405 -1.2195
 6768TIP3   OH241938   6.424   4.294   0.462  0.4878  0.2354  0.4134
 6768TIP3    H141939   6.435   4.200   0.475 -0.5404  0.1432  0.6903
 6768TIP3    H241940   6.501   4.333   0.504  0.8463 -0.4700  0.4227
 6769TIP3   OH241941   5.655   3.956   1.442  0.2010  0.4068  0.4005
 6769TIP3    H141942   5.735   3.940   1.491  0.2274  0.8372  0.4996
 6769TIP3    H241943   5.679   3.939   1.351  0.1725 -0.3174  0.5201
 6770TIP3   OH241944   4.199   3.846   2.140  0.4220  0.0490 -0.4953
 6770TIP3    H141945   4.167   3.757   2.154  0.5567 -0.0635 -0.8825
 6770TIP3    H241946   4.123   3.902   2.155  0.8387  0.0718  2.0266
 6771TIP3   OH241947   5.083   5.081   8.441  0.0587 -0.3754 -0.1357
 6771TIP3    H141948   5.036   5.163   8.455 -0.4490 -0.7993  0.7026
 6771TIP3    H241949   5.105   5.082   8.348 -0.1608  0.5920 -0.1922
 6772TIP3   OH241950   1.321   2.032   6.578 -0.0340 -0.1554  0.2428
 6772TIP3    H141951   1.330   1.939   6.601 -0.0058 -0.0240  0.7701
 6772TIP3    H241952   1.257   2.033   6.506 -1.7998 -0.3883  1.7399
 6773TIP3   OH241953   0.176   6.768   1.217 -0.3608  0.4461  0.1618
 6773TIP3    H141954   0.183   6.771   1.313  1.2214  1.5579  0.0468
 6773TIP3    H241955   0.088   6.801   1.199 -0.9554 -0.4688  1.2533
 6774TIP3   OH241956   5.277   5.144   2.210 -0.3141  0.1993  0.4600
 6774TIP3    H141957   5.298   5.061   2.252  1.0149 -0.5071 -1.4557
 6774TIP3    H241958   5.351   5.201   2.230 -1.1737  0.9465  1.6837
 6775TIP3   OH241959   3.944   6.082   0.689 -0.4806 -0.0131 -0.7084
 6775TIP3    H141960   3.855   6.118   0.687 -0.6131 -0.2972 -0.2856
 6775TIP3    H241961   3.997   6.152   0.727 -0.5536  0.0953 -0.8041
 6776TIP3   OH241962   1.629   6.345   8.124 -0.4948  0.6703  0.4704
 6776TIP3    H141963   1.573   6.267   8.115  1.8580 -1.0450 -0.3646
 6776TIP3    H241964   1.634   6.381   8.035  1.9928 -0.9877 -0.1792
 6777TIP3   OH241965   5.052   5.372   8.299  0.5198 -0.9689 -0.0447
 6777TIP3    H141966   5.065   5.393   8.206  0.4875  2.9936  0.6565
 6777TIP3    H241967   5.139   5.383   8.338 -0.0057  0.6002  0.7949
 6778TIP3   OH241968   0.773   0.141   7.348 -0.0527  0.1230  0.1909
 6778TIP3    H141969   0.855   0.190   7.341  0.8315 -1.3511 -0.0865
 6778TIP3    H241970   0.754   0.113   7.259  0.2055 -1.2178  0.5461
 6779TIP3   OH241971   5.014   1.487   0.164  0.2783 -0.1878 -0.6765
 6779TIP3    H141972   4.941   1.435   0.196 -0.3716  0.4092 -1.1552
 6779TIP3    H241973   5.011   1.568   0.215 -0.7737  0.7780 -2.1866
 6780TIP3   OH241974   2.776   2.218   8.608  0.5897  0.6502 -0.6307
 6780TIP3    H141975   2.864   2.246   8.635  2.1952 -2.1081 -2.5448
 6780TIP3    H241976   2.791   2.143   8.551 -3.1103 -0.7421 -0.0444
 6781TIP3   OH241977   1.035   3.830   0.423  0.5635  0.8508  0.2488
 6781TIP3    H141978   0.987   3.781   0.489 -1.2166 -1.6142 -2.5946
 6781TIP3    H241979   1.118   3.782   0.414  0.2838  0.4177 -0.1027
 6782TIP3   OH241980   2.319   1.962   0.611 -0.0571 -0.0190 -0.2849
 6782TIP3    H141981   2.404   1.920   0.631  0.1604  0.8902  0.7967
 6782TIP3    H241982   2.295   1.927   0.525  0.9298 -1.0618 -0.1690
 6783TIP3   OH241983   4.973   4.789   0.051  0.7689  0.8794  0.4794
 6783TIP3    H141984   4.921   4.776   0.130 -0.3827 -0.2075 -0.4079
 6783TIP3    H241985   4.997   4.882   0.053 -2.0324  1.6895  0.4905
 6784TIP3   OH241986   3.173   1.606   8.775  0.5445  0.0432  0.7549
 6784TIP3    H141987   3.150   1.619   8.683  0.5405  1.6304  0.9507
 6784TIP3    H241988   3.152   1.690   8.817  1.1336 -0.4465  2.0799
 6785TIP3   OH241989   3.054   3.776   0.592  0.5314 -0.2415 -0.1336
 6785TIP3    H141990   3.037   3.682   0.585 -1.0012  0.1438 -3.3049
 6785TIP3    H241991   2.977   3.817   0.552  1.5663  2.3586  0.3425
 6786TIP3   OH241992   2.770   3.476   6.583  0.4711 -0.2741 -0.8447
 6786TIP3    H141993   2.834   3.408   6.602 -0.1370 -0.4498  0.7849
 6786TIP3    H241994   2.718   3.441   6.511  0.0664 -1.6371  0.0655
 6787TIP3   OH241995   2.058   4.598   7.555 -0.0089 -0.3956 -0.6359
 6787TIP3    H141996   2.075   4.614   7.462  0.9059 -0.3708 -0.4759
 6787TIP3    H241997   2.020   4.511   7.558  2.2173 -1.4386 -0.8465
 6788TIP3   OH241998   5.050   4.048   7.607  0.2134  0.0437  0.5204
 6788TIP3    H141999   5.030   4.141   7.596 -0.0394 -0.1469 -0.6667
 6788TIP3    H242000   5.141   4.047   7.638  0.1359  0.6907  0.7786
 6789TIP3   OH242001   5.710   2.876   8.000 -0.0026 -0.1826 -0.0060
 6789TIP3    H142002   5.789   2.844   7.956 -0.7479 -1.1965 -0.6503
 6789TIP3    H242003   5.680   2.803   8.054 -0.7013  0.0569 -0.0537
 6790TIP3   OH242004   2.388   6.544   0.202  0.1617  0.0534  0.0882
 6790TIP3    H142005   2.349   6.525   0.117  1.0122  2.3183 -0.8695
 6790TIP3    H242006   2.338   6.490   0.264 -0.9310 -1.1145 -1.7307
 6791TIP3   OH242007   0.060   5.651   0.424  0.2954 -0.4143 -0.2747
 6791TIP3    H142008   0.054   5.557   0.445 -1.0958 -0.3137 -0.0901
 6791TIP3    H242009  -0.032   5.680   0.421  0.7039  0.9033 -0.5233
 6792TIP3   OH242010   4.171   3.349   1.728 -0.0847  0.4689 -0.7389
 6792TIP3    H142011   4.194   3.258   1.711 -2.2182 -0.3762  0.4676
 6792TIP3    H242012   4.084   3.359   1.689 -1.4009  0.9064  2.0427
 6793TIP3   OH242013   1.739   3.242   1.099 -0.3595  0.5424 -0.0943
 6793TIP3    H142014   1.757   3.334   1.081  0.8340  0.1095 -1.2912
 6793TIP3    H242015   1.820   3.197   1.077 -1.0350 -0.8397  0.1264
 6794TIP3   OH242016   4.049   0.807   2.055  0.0283 -0.3638 -0.3179
 6794TIP3    H142017   4.028   0.726   2.010 -0.8865  0.1369 -0.8392
 6794TIP3    H242018   4.038   0.875   1.988  0.2679  0.2351  0.2372
 6795TIP3   OH242019   4.223   3.573   1.326  0.0153 -0.0263 -0.2518
 6795TIP3    H142020   4.217   3.619   1.242 -4.2690  4.9837  2.2469
 6795TIP3    H242021   4.147   3.515   1.327  0.5206 -0.6872 -0.1494
 6796TIP3   OH242022   0.122   4.250   1.940 -0.3339 -0.3454  0.4499
 6796TIP3    H142023   0.184   4.247   2.013  0.2192 -1.4979 -0.0400
 6796TIP3    H242024   0.039   4.222   1.978 -0.7907  1.9598  1.2905
 6797TIP3   OH242025   6.374   6.198   8.330  0.1698 -0.0475  0.0432
 6797TIP3    H142026   6.302   6.140   8.354 -1.5653  1.1249 -1.9482
 6797TIP3    H242027   6.453   6.152   8.358 -1.2772 -2.0190  1.0840
 6798TIP3   OH242028   2.769   1.830   7.067 -0.0794 -0.0656 -0.1735
 6798TIP3    H142029   2.702   1.778   7.110 -0.9763  2.0611  1.1772
 6798TIP3    H242030   2.823   1.766   7.020 -2.6375 -1.9166 -0.8238
 6799TIP3   OH242031   6.235   1.029   7.579  0.5790  0.0240  0.1725
 6799TIP3    H142032   6.301   1.041   7.511 -1.2477 -1.2005 -1.9454
 6799TIP3    H242033   6.170   1.097   7.561  0.9328  0.8909  1.9195
 6800TIP3   OH242034   4.635   6.686   7.547  0.1437 -0.1636 -0.6594
 6800TIP3    H142035   4.659   6.761   7.603  1.0939 -0.4384 -0.6727
 6800TIP3    H242036   4.539   6.687   7.545  0.1422  1.3317 -1.0415
 6801TIP3   OH242037   2.906   5.830   8.985 -0.4461 -0.5962 -0.4378
 6801TIP3    H142038   2.862   5.911   8.961 -0.4897 -0.6968 -0.6951
 6801TIP3    H242039   2.845   5.786   9.044 -0.0602 -0.0392  0.4082
 6802TIP3   OH242040   0.102   6.157   8.928  0.2483  0.0940 -0.3002
 6802TIP3    H142041   0.044   6.109   8.869  0.9518 -2.0305  0.6403
 6802TIP3    H242042   0.176   6.098   8.942  0.6499  1.0176  1.7914
 6803TIP3   OH242043   4.497   2.510   1.748 -0.1904  0.3595 -0.4977
 6803TIP3    H142044   4.443   2.463   1.684  0.0882 -2.6713  1.3137
 6803TIP3    H242045   4.587   2.492   1.721  0.0421  3.0344 -1.8556
 6804TIP3   OH242046   4.562   4.693   8.520  0.1409  0.4034 -0.4139
 6804TIP3    H142047   4.528   4.775   8.485 -0.7334  0.3326  0.2224
 6804TIP3    H242048   4.525   4.626   8.464 -1.8999  0.2345  1.0354
 6805TIP3   OH242049   2.513   6.469   8.503  0.2902 -0.1778  0.1551
 6805TIP3    H142050   2.582   6.432   8.558  0.5383 -0.6127 -0.4324
 6805TIP3    H242051   2.541   6.559   8.487  0.7382 -0.3588 -0.0968
 6806TIP3   OH242052   6.448   1.693   1.514 -0.2857 -0.6338 -0.1799
 6806TIP3    H142053   6.499   1.642   1.577 -0.9650 -0.0943  0.8286
 6806TIP3    H242054   6.506   1.704   1.439  1.0538 -0.1022  0.8995
 6807TIP3   OH242055   3.201   0.527   8.410 -0.3537 -0.3949 -0.0529
 6807TIP3    H142056   3.135   0.462   8.388 -1.2469  0.9592 -1.6413
 6807TIP3    H242057   3.163   0.610   8.381  1.0691  0.7398  1.1734
 6808TIP3   OH242058   3.451   3.633   8.428  0.3374  0.4100  0.1078
 6808TIP3    H142059   3.413   3.588   8.503  1.7789  0.3885  0.8638
 6808TIP3    H242060   3.381   3.635   8.363  0.3847 -3.7616 -0.3820
 6809TIP3   OH242061   5.717   4.493   7.323 -0.3054 -0.2474 -0.0827
 6809TIP3    H142062   5.662   4.416   7.307  0.9167 -1.4541  1.2310
 6809TIP3    H242063   5.766   4.505   7.241  0.9706 -2.1514  0.3458
 6810TIP3   OH242064   3.161   4.135   8.857 -0.3221  0.3743 -0.8429
 6810TIP3    H142065   3.245   4.128   8.812 -0.0051 -1.0171 -0.0870
 6810TIP3    H242066   3.176   4.197   8.928  0.0400  0.2274 -0.7879
 6811TIP3   OH242067   1.235   2.544   7.372  0.4603 -0.2206  0.3717
 6811TIP3    H142068   1.317   2.497   7.385  0.2552 -0.2260  1.8042
 6811TIP3    H242069   1.207   2.569   7.460  0.1503  1.8958 -0.2693
 6812TIP3   OH242070   2.528   6.389   7.197 -0.5465 -0.6300  0.2359
 6812TIP3    H142071   2.440   6.353   7.201 -0.5793 -0.7664 -1.3132
 6812TIP3    H242072   2.521   6.475   7.238 -1.2717 -0.8617  0.6123
 6813TIP3   OH242073   2.272   2.459   0.783 -0.2062  0.2693 -0.5949
 6813TIP3    H142074   2.254   2.425   0.695 -0.5050  1.4855 -1.0207
 6813TIP3    H242075   2.243   2.389   0.842  1.8848 -1.4387 -1.4535
 6814TIP3   OH242076   6.734   0.644   1.855 -0.5603  0.2675 -0.0939
 6814TIP3    H142077   6.759   0.650   1.947  0.1669 -3.8398  0.1837
 6814TIP3    H242078   6.812   0.670   1.807 -0.2737  0.4958  0.4872
 6815TIP3   OH242079   1.510   2.173   0.844  0.0728  0.2159 -0.1188
 6815TIP3    H142080   1.583   2.117   0.816  0.7561 -1.1385  3.7505
 6815TIP3    H242081   1.553   2.254   0.871 -0.3268  0.7464 -1.0403
 6816TIP3   OH242082   0.094   5.359   1.984 -0.1525  0.2061 -0.2283
 6816TIP3    H142083   0.094   5.265   1.999  2.5637  0.4324  2.2199
 6816TIP3    H242084   0.180   5.378   1.947 -0.2803  1.8056  0.1924
 6817TIP3   OH242085   3.797   0.284   0.524 -0.2266 -0.0478  0.0581
 6817TIP3    H142086   3.723   0.301   0.583 -0.2679 -1.1378  0.3367
 6817TIP3    H242087   3.874   0.302   0.578 -0.2692  0.8718 -0.1656
 6818TIP3   OH242088   5.321   3.727   0.313  0.1851 -0.1629 -0.3238
 6818TIP3    H142089   5.358   3.784   0.381  0.2164 -2.1909  1.4540
 6818TIP3    H242090   5.227   3.724   0.333  0.3745 -1.7792  0.4928
 6819TIP3   OH242091   2.084   0.218   6.795  0.1459  0.4095  0.2411
 6819TIP3    H142092   2.142   0.186   6.726 -0.3336  0.2889 -0.1081
 6819TIP3    H242093   2.129   0.195   6.876  1.2197  1.4839 -0.0278
 6820TIP3   OH242094   2.223   6.377   1.519 -0.4781 -0.3285 -0.5005
 6820TIP3    H142095   2.240   6.336   1.434 -0.3203 -0.4046 -0.4339
 6820TIP3    H242096   2.224   6.305   1.582 -2.1238 -0.4884 -0.6135
 6821TIP3   OH242097   3.595   4.349   6.497  0.1887  0.2540  0.0538
 6821TIP3    H142098   3.605   4.310   6.584  1.3824 -0.0913 -0.2224
 6821TIP3    H242099   3.524   4.413   6.507 -1.2715 -1.3760  0.7178
 6822TIP3   OH242100   2.836   1.642   8.254 -0.2206  0.0658  0.1149
 6822TIP3    H142101   2.778   1.667   8.326 -0.5517  1.0303 -0.4621
 6822TIP3    H242102   2.902   1.586   8.294 -0.4650  0.4970  1.1493
 6823TIP3   OH242103   3.496   0.629   0.006 -0.0318  0.6030  0.2625
 6823TIP3    H142104   3.498   0.657   0.097 -0.4969 -0.8690  0.7659
 6823TIP3    H242105   3.443   0.549   0.007  1.2369 -0.3149 -1.0349
 6824TIP3   OH242106   1.189   5.042   7.090  0.4194 -0.1357 -0.7638
 6824TIP3    H142107   1.226   4.954   7.103 -1.1812 -0.5344  1.9436
 6824TIP3    H242108   1.099   5.034   7.122  0.1532  2.4437 -0.6915
 6825TIP3   OH242109   6.143   6.435   0.271 -0.2548 -0.1505  0.0303
 6825TIP3    H142110   6.167   6.373   0.339  1.0824 -0.3450 -0.5782
 6825TIP3    H242111   6.207   6.419   0.201  0.0504  1.8031 -0.1936
 6826TIP3   OH242112   0.274   3.232   8.550  0.0315  0.5732  0.1653
 6826TIP3    H142113   0.287   3.326   8.550 -2.3938  1.0829  3.2717
 6826TIP3    H242114   0.226   3.214   8.470 -1.8870  2.5069  0.7867
 6827TIP3   OH242115   0.103   0.912   6.890 -0.6439  0.4061  0.2565
 6827TIP3    H142116   0.126   0.919   6.983  1.0292  0.9089 -0.1590
 6827TIP3    H242117   0.186   0.922   6.844 -0.9572 -2.5147 -1.2236
 6828TIP3   OH242118   0.967   3.636   1.282 -0.4484  0.0551  0.2137
 6828TIP3    H142119   0.921   3.590   1.211 -0.0110  0.9531 -0.6748
 6828TIP3    H242120   0.905   3.702   1.311 -0.5677 -0.2118  0.5740
 6829TIP3   OH242121   2.305   4.178   6.398 -0.1322  0.0867  0.0185
 6829TIP3    H142122   2.394   4.148   6.413 -0.0201  0.3003 -0.2039
 6829TIP3    H242123   2.296   4.179   6.303 -0.0987  0.8393  0.0148
 6830TIP3   OH242124   2.796   4.471   2.400  0.2042  0.5641 -0.7508
 6830TIP3    H142125   2.878   4.519   2.391  0.0621  0.9466 -0.0306
 6830TIP3    H242126   2.741   4.526   2.455  0.2045 -0.6250  0.4891
 6831TIP3   OH242127   2.837   5.026   0.129 -0.7539  0.0852 -0.2453
 6831TIP3    H142128   2.795   5.028   0.215  1.0802 -0.5169  0.7239
 6831TIP3    H242129   2.923   5.065   0.143 -1.2321  2.1070 -2.3502
 6832TIP3   OH242130   5.496   1.023   8.829 -0.1886 -0.2136  0.2171
 6832TIP3    H142131   5.419   1.024   8.887  0.7864  0.1531  1.5767
 6832TIP3    H242132   5.463   0.991   8.745 -1.4598 -1.8508  1.2746
 6833TIP3   OH242133   1.709   0.122   0.092 -0.1005  0.2633 -0.0568
 6833TIP3    H142134   1.746   0.153   0.174 -0.8202  1.7592 -0.2661
 6833TIP3    H242135   1.783   0.116   0.032  0.1330  1.1325  0.1348
 6834TIP3   OH242136   4.543   1.393   0.779  0.4086 -0.2454  0.2992
 6834TIP3    H142137   4.502   1.479   0.789 -1.7916 -1.3024  0.9205
 6834TIP3    H242138   4.582   1.396   0.691 -1.9057  0.5301 -0.7848
 6835TIP3   OH242139   0.955   3.143   2.203  0.1698 -0.8051 -0.0503
 6835TIP3    H142140   0.862   3.165   2.194  0.1999 -0.8730 -0.5640
 6835TIP3    H242141   0.965   3.061   2.155  0.4108 -1.0261  0.3716
 6836TIP3   OH242142   5.252   0.661   2.501  0.2551  0.1787 -0.1663
 6836TIP3    H142143   5.335   0.627   2.534 -0.3794  1.2600  2.9144
 6836TIP3    H242144   5.210   0.586   2.459  2.2325 -0.6725 -0.7528
 6837TIP3   OH242145   2.525   1.865   7.720 -0.8017 -0.0677  0.0693
 6837TIP3    H142146   2.511   1.782   7.675 -2.7282  0.7222 -0.9369
 6837TIP3    H242147   2.505   1.932   7.654  0.6215  1.2168  0.8656
 6838TIP3   OH242148   6.204   2.558   1.440 -0.1373  0.3958  0.3666
 6838TIP3    H142149   6.219   2.653   1.448  0.1816  0.2081  2.9470
 6838TIP3    H242150   6.230   2.537   1.351  0.6350  2.5957  0.0092
 6839TIP3   OH242151   4.685   3.599   7.540 -0.1719 -0.0576 -0.5427
 6839TIP3    H142152   4.645   3.594   7.454 -1.1721  3.6389 -0.4747
 6839TIP3    H242153   4.757   3.661   7.530 -1.3032  1.7578  1.4930
 6840TIP3   OH242154   0.940   0.498   8.197  0.6108 -0.1149  0.0911
 6840TIP3    H142155   0.924   0.515   8.104 -1.5486 -0.9251  0.2715
 6840TIP3    H242156   0.869   0.541   8.243  0.0996 -1.9791  1.1575
 6841TIP3   OH242157   5.878   5.196   7.099 -0.2129 -0.2787  0.7600
 6841TIP3    H142158   5.815   5.141   7.053 -0.5925 -0.0686  1.0227
 6841TIP3    H242159   5.933   5.232   7.030 -0.9462  0.2500  0.4326
 6842TIP3   OH242160   0.693   6.433   7.593  0.5494  0.9104  0.1462
 6842TIP3    H142161   0.624   6.497   7.572  1.3287  1.4904 -0.7733
 6842TIP3    H242162   0.691   6.372   7.520  0.5023  0.4824  0.5050
 6843TIP3   OH242163   2.190   0.104   7.779 -0.1910 -0.4020  0.4473
 6843TIP3    H142164   2.253   0.154   7.727 -0.5002 -0.6406 -0.1610
 6843TIP3    H242165   2.106   0.147   7.763 -0.2133 -0.1660  1.1546
 6844TIP3   OH242166   1.073   0.260   7.620 -0.3388  0.0898  0.3737
 6844TIP3    H142167   1.126   0.258   7.540 -0.5899  1.9658  0.1204
 6844TIP3    H242168   1.128   0.216   7.686 -1.4845 -4.7716 -1.4645
 6845TIP3   OH242169   1.039   0.117   6.564 -0.0031 -0.1052 -0.0387
 6845TIP3    H142170   1.010   0.026   6.570  0.7022 -0.2539  1.9606
 6845TIP3    H242171   1.118   0.113   6.510 -1.0923 -0.3443 -1.6843
 6846TIP3   OH242172   1.188   1.918   8.397  0.1662  0.3314  0.5466
 6846TIP3    H142173   1.221   1.881   8.479 -0.9162 -0.4891  0.6240
 6846TIP3    H242174   1.099   1.886   8.389  0.8544 -1.3209 -1.9694
 6847TIP3   OH242175   4.374   4.508   2.457 -0.0011 -0.5247  0.7851
 6847TIP3    H142176   4.361   4.581   2.517 -0.4797  0.3027 -0.2994
 6847TIP3    H242177   4.291   4.501   2.409  0.8251 -0.2349 -0.7642
 6848TIP3   OH242178   4.192   6.771   0.366  0.1100  0.2267 -0.1050
 6848TIP3    H142179   4.189   6.770   0.270  0.6550 -0.8136 -0.1159
 6848TIP3    H242180   4.112   6.817   0.391 -1.3091 -1.5997 -1.0256
 6849TIP3   OH242181   5.993   4.230   7.004  0.4347 -0.3173  0.6724
 6849TIP3    H142182   6.035   4.200   6.923 -0.0048  0.4859  0.1429
 6849TIP3    H242183   5.904   4.196   6.998  0.8589 -1.7113  1.6291
 6850TIP3   OH242184   1.158   5.240   8.649 -0.3042  0.5346  0.2113
 6850TIP3    H142185   1.193   5.158   8.684 -0.8365 -0.4746 -1.5086
 6850TIP3    H242186   1.076   5.253   8.697  0.1224  0.4367  0.9756
 6851TIP3   OH242187   4.682   3.117   8.594 -0.8375 -0.0446  0.8390
 6851TIP3    H142188   4.642   3.108   8.680  0.2702 -0.3636  1.3482
 6851TIP3    H242189   4.770   3.079   8.604  0.2402  2.1107  0.2524
 6852TIP3   OH242190   5.889   0.045   0.586  0.6701  0.3620  0.0615
 6852TIP3    H142191   5.970   0.057   0.536  0.3003 -0.1264 -0.6615
 6852TIP3    H242192   5.820   0.047   0.520  0.2925 -2.0249  0.3186
 6853TIP3   OH242193   3.385   3.863   7.391 -0.3233 -0.2072 -0.3057
 6853TIP3    H142194   3.341   3.823   7.316 -0.5324 -0.9241  0.1850
 6853TIP3    H242195   3.473   3.884   7.359 -0.6471  0.1819 -0.9603
 6854TIP3   OH242196   3.916   3.841   2.381  0.3781 -0.6172  0.1059
 6854TIP3    H142197   3.926   3.756   2.338 -0.5506 -0.9086  0.4220
 6854TIP3    H242198   3.914   3.904   2.310 -0.6718 -1.0452 -0.2635
 6855TIP3   OH242199   4.683   1.663   0.412  0.1754 -0.3193 -0.1745
 6855TIP3    H142200   4.652   1.687   0.324  0.0786  3.0999  0.6581
 6855TIP3    H242201   4.770   1.703   0.418 -0.4713  0.9476  1.7639
 6856TIP3   OH242202   0.128   1.662   7.378  0.1714 -0.4622 -0.0373
 6856TIP3    H142203   0.172   1.580   7.357 -0.1566 -0.2172 -1.8879
 6856TIP3    H242204   0.186   1.730   7.345  1.8418  0.3247  3.9995
 6857TIP3   OH242205   6.365   2.213   2.073 -0.6147 -0.1838 -0.3359
 6857TIP3    H142206   6.393   2.175   1.990  0.2620  1.7215 -0.9741
 6857TIP3    H242207   6.330   2.139   2.123  2.4799 -2.1836 -0.8223
 6858TIP3   OH242208   2.434   3.592   0.792  0.4013  0.5404 -0.4409
 6858TIP3    H142209   2.380   3.651   0.845  0.0184  0.4890 -0.7686
 6858TIP3    H242210   2.398   3.505   0.809  1.2924  0.3259  0.4417
 6859TIP3   OH242211   4.317   0.215   0.211 -0.4562  0.1660 -0.1985
 6859TIP3    H142212   4.237   0.266   0.197  0.5337  1.6802 -0.5249
 6859TIP3    H242213   4.385   0.262   0.163  0.6788 -1.0105  0.1816
 6860TIP3   OH242214   5.327   5.378   2.683 -0.2157  0.7099 -0.3469
 6860TIP3    H142215   5.253   5.349   2.629  0.8750 -0.9164 -1.0258
 6860TIP3    H242216   5.339   5.309   2.747 -0.8867  2.1785  1.4621
 6861TIP3   OH242217   3.857   0.694   6.402 -0.4923 -0.2698 -0.1639
 6861TIP3    H142218   3.867   0.788   6.416  0.6682 -0.4445  0.2856
 6861TIP3    H242219   3.928   0.655   6.452  0.2719 -1.2843 -1.9592
 6862TIP3   OH242220   3.624   5.198   1.038  0.1564 -0.2203  0.5891
 6862TIP3    H142221   3.582   5.154   0.964  1.9661 -0.7841 -0.1618
 6862TIP3    H242222   3.663   5.277   0.999 -1.4196  1.0858  1.5552
 6863TIP3   OH242223   4.827   1.592   7.639 -0.1009 -0.2208 -0.2223
 6863TIP3    H142224   4.806   1.656   7.706  0.9634  0.9754 -0.9870
 6863TIP3    H242225   4.917   1.565   7.658 -0.6370 -1.7967  0.2981
 6864TIP3   OH242226   6.422   2.320   2.316 -0.6145  0.1215  0.0566
 6864TIP3    H142227   6.502   2.293   2.361  0.6944  2.7427 -0.4718
 6864TIP3    H242228   6.428   2.278   2.230 -0.5922 -0.8985  0.5393
 6865TIP3   OH242229   1.865   3.559   6.255 -0.3511 -0.6596 -0.1077
 6865TIP3    H142230   1.869   3.484   6.195 -1.9903 -0.4209 -0.5571
 6865TIP3    H242231   1.947   3.607   6.238  0.3213 -1.8770 -0.4234
 6866TIP3   OH242232   3.447   5.314   8.251  0.2182  0.7521 -0.0821
 6866TIP3    H142233   3.445   5.235   8.305 -0.9046 -0.4114 -1.7376
 6866TIP3    H242234   3.383   5.372   8.292  0.3675  0.4359  0.6166
 6867TIP3   OH242235   0.492   0.494   7.782 -0.6579 -0.2887  0.2523
 6867TIP3    H142236   0.505   0.414   7.833 -1.0798  0.5061  1.6761
 6867TIP3    H242237   0.397   0.503   7.774 -0.7181  1.0596  1.8490
 6868TIP3   OH242238   1.347   2.238   8.693  0.0477  0.2302 -0.2059
 6868TIP3    H142239   1.316   2.319   8.734  2.0057  1.3182 -0.7843
 6868TIP3    H242240   1.266   2.189   8.675 -1.1721  1.8822  0.4625
 6869TIP3   OH242241   3.004   4.832   8.193 -0.0127  0.2124 -0.1489
 6869TIP3    H142242   3.050   4.803   8.114 -1.1129  1.6101 -1.3658
 6869TIP3    H242243   2.930   4.883   8.160 -1.2557 -0.2375  1.7675
 6870TIP3   OH242244   6.126   0.422   7.904  0.3190  0.0552 -0.6840
 6870TIP3    H142245   6.051   0.439   7.960  0.1635  0.3326 -0.9688
 6870TIP3    H242246   6.167   0.509   7.892  0.2933  0.0154 -1.0748
 6871TIP3   OH242247   0.225   2.262   1.963 -0.0513 -0.0052  0.3747
 6871TIP3    H142248   0.257   2.189   2.016  0.9389  0.0266 -0.1377
 6871TIP3    H242249   0.272   2.252   1.880  0.5307  1.5206  0.4883
 6872TIP3   OH242250   3.526   1.272   6.451 -0.2194  0.3878  0.2055
 6872TIP3    H142251   3.463   1.237   6.387  0.2549  1.3007 -0.7872
 6872TIP3    H242252   3.495   1.360   6.469  1.5330  1.3946 -1.4065
 6873TIP3   OH242253   6.005   3.646   2.118  0.0753  0.3799  0.1491
 6873TIP3    H142254   5.930   3.597   2.154  0.1325  2.2431  3.1213
 6873TIP3    H242255   6.069   3.647   2.189  1.1264  2.5523 -0.7433
 6874TIP3   OH242256   4.549   5.911   7.140 -0.7580  0.3485  0.6634
 6874TIP3    H142257   4.498   5.831   7.152 -1.3340  0.6896  0.5267
 6874TIP3    H242258   4.528   5.940   7.051  0.5043 -0.0754  0.2023
 6875TIP3   OH242259   2.594   5.945   2.554 -0.2747 -0.2892 -0.0236
 6875TIP3    H142260   2.611   5.961   2.461 -1.2516 -0.1206 -0.1844
 6875TIP3    H242261   2.590   6.032   2.594 -0.0777 -0.3540  0.1433
 6876TIP3   OH242262   1.469   2.438   7.461 -0.6816  0.5938  0.5352
 6876TIP3    H142263   1.534   2.481   7.406 -1.4247 -1.0521 -1.8000
 6876TIP3    H242264   1.507   2.353   7.482 -1.8598 -0.2147 -0.4895
 6877TIP3   OH242265   2.611   5.210   1.019  0.2028 -0.0918  0.0406
 6877TIP3    H142266   2.596   5.193   0.926 -1.6602 -4.1882  0.8625
 6877TIP3    H242267   2.692   5.164   1.040 -1.0875 -2.0658  0.9699
 6878TIP3   OH242268   4.436   3.416   1.817 -0.0472 -0.3228 -0.2781
 6878TIP3    H142269   4.346   3.402   1.788  0.4183 -1.8063 -1.0716
 6878TIP3    H242270   4.461   3.335   1.860  0.6270  0.4049  0.7650
 6879TIP3   OH242271   5.692   0.557   0.270 -0.5123 -0.7051  0.0109
 6879TIP3    H142272   5.648   0.562   0.185  2.1223  0.9941 -1.3922
 6879TIP3    H242273   5.696   0.648   0.299 -1.5336 -1.2764  2.1183
 6880TIP3   OH242274   1.994   6.199   1.379  0.9727  0.1569  0.2667
 6880TIP3    H142275   1.937   6.271   1.408  1.9416  0.6826  0.9465
 6880TIP3    H242276   1.952   6.166   1.300  0.0678  0.9442  0.3897
 6881TIP3   OH242277   3.484   0.409   7.028  0.9989 -0.8237  0.6141
 6881TIP3    H142278   3.502   0.336   7.087  0.4334 -1.5619 -0.0956
 6881TIP3    H242279   3.431   0.370   6.958  1.5125  0.0583 -0.2890
 6882TIP3   OH242280   2.005   3.082   8.543  0.3847 -0.3543  0.3069
 6882TIP3    H142281   2.074   3.148   8.554  0.5084 -0.7343  2.0960
 6882TIP3    H242282   2.003   3.035   8.626 -1.7475 -0.6554  0.1368
 6883TIP3   OH242283   0.267   6.239   6.927  0.6028  0.6002  0.3834
 6883TIP3    H142284   0.218   6.162   6.955 -1.1070  1.6877  0.5398
 6883TIP3    H242285   0.231   6.311   6.978  1.0877  1.7665 -0.8456
 6884TIP3   OH242286   0.974   3.453   8.953  0.0237 -0.1831 -0.2384
 6884TIP3    H142287   0.972   3.517   9.024  0.6285  1.0248 -1.2809
 6884TIP3    H242288   1.055   3.404   8.967  0.3594  0.3379 -0.3177
 6885TIP3   OH242289   3.811   4.530   6.490  0.1455  0.1644  0.4843
 6885TIP3    H142290   3.760   4.450   6.481  0.0634  0.3177 -0.5825
 6885TIP3    H242291   3.749   4.595   6.522  0.3581 -0.3238  1.9979
 6886TIP3   OH242292   0.665   1.855   7.404 -0.4005  0.9276 -0.1783
 6886TIP3    H142293   0.760   1.848   7.404 -0.4623 -0.0924  0.3928
 6886TIP3    H242294   0.641   1.861   7.312  0.1810  0.5410 -0.3615
 6887TIP3   OH242295   1.802   1.978   7.543 -0.3570  0.5753  0.0099
 6887TIP3    H142296   1.825   1.909   7.604 -1.9756  1.3805  1.6337
 6887TIP3    H242297   1.875   1.981   7.481  1.8717  0.3731  2.4615
 6888TIP3   OH242298   4.309   3.574   8.300 -0.1369  0.0404 -0.3058
 6888TIP3    H142299   4.251   3.628   8.247  2.8082  2.5211 -1.3038
 6888TIP3    H242300   4.331   3.499   8.245  2.2150  2.1538 -2.4579
 6889TIP3   OH242301   3.951   2.559   7.429 -0.1522 -0.0114  0.3080
 6889TIP3    H142302   4.044   2.538   7.417 -0.1112  0.7059 -0.7228
 6889TIP3    H242303   3.923   2.502   7.501  0.9131 -0.7377  0.1750
 6890TIP3   OH242304   5.290   0.692   1.755 -0.6376  0.3794  0.5537
 6890TIP3    H142305   5.222   0.722   1.816 -1.5190 -1.5195  0.5664
 6890TIP3    H242306   5.243   0.671   1.675  0.0288 -0.3270  0.3403
 6891TIP3   OH242307   5.833   2.668   6.830 -0.3030 -1.0547 -0.1153
 6891TIP3    H142308   5.781   2.747   6.842  0.3046 -0.7407  0.5423
 6891TIP3    H242309   5.770   2.597   6.834 -0.7969 -0.6323 -0.2648
 6892TIP3   OH242310   6.145   2.756   8.697  0.0957  0.3548 -0.3928
 6892TIP3    H142311   6.170   2.751   8.604 -2.4418  0.6580 -1.1735
 6892TIP3    H242312   6.092   2.678   8.711  0.3815  0.3608  0.8027
 6893TIP3   OH242313   1.391   4.725   2.366 -0.4038 -0.3855  0.7765
 6893TIP3    H142314   1.404   4.740   2.460 -0.2040 -0.5008  0.7672
 6893TIP3    H242315   1.321   4.659   2.362 -0.4066 -0.3872  0.8446
 6894TIP3   OH242316   3.191   3.468   0.480 -0.3166  0.5812  0.2405
 6894TIP3    H142317   3.147   3.535   0.428  0.2287 -0.5907 -1.8608
 6894TIP3    H242318   3.284   3.482   0.463 -0.2100 -0.9904 -0.6815
 6895TIP3   OH242319   0.824   5.487   7.592 -0.2050 -0.4443  0.5344
 6895TIP3    H142320   0.908   5.442   7.585 -0.0651 -0.3473  1.4813
 6895TIP3    H242321   0.829   5.535   7.675 -0.7094  0.5729 -0.0023
 6896TIP3   OH242322   1.609   1.402   0.852  0.5217  0.1295  0.4872
 6896TIP3    H142323   1.578   1.491   0.839  2.2343  0.5688 -0.9239
 6896TIP3    H242324   1.588   1.356   0.771  2.1983  0.0685  0.0504
 6897TIP3   OH242325   6.138   5.707   7.766 -0.3221 -0.3640  0.3019
 6897TIP3    H142326   6.120   5.753   7.848 -0.3533 -0.8545  0.5727
 6897TIP3    H242327   6.230   5.727   7.747 -0.1769 -0.6359  0.7077
 6898TIP3   OH242328   5.831   6.655   7.388 -0.5988  0.1237  0.1340
 6898TIP3    H142329   5.899   6.711   7.350 -0.0610 -0.9784 -0.5713
 6898TIP3    H242330   5.773   6.716   7.434  1.1761  1.0391  1.2676
 6899TIP3   OH242331   2.300   4.500   7.159 -0.0362 -0.1432  0.0562
 6899TIP3    H142332   2.318   4.495   7.253 -2.5599 -0.1448  0.6038
 6899TIP3    H242333   2.337   4.418   7.124 -0.5851 -0.9792  1.3440
 6900TIP3   OH242334   1.826   6.251   6.655 -0.2585 -0.0806  0.0654
 6900TIP3    H142335   1.870   6.174   6.690  0.4157  1.2634  2.3966
 6900TIP3    H242336   1.878   6.275   6.578  0.1828 -1.2586 -0.0303
 6901TIP3   OH242337   3.714   3.773   1.964 -0.4144  0.0219 -0.1811
 6901TIP3    H142338   3.707   3.800   2.055 -2.7255 -0.6546 -0.0958
 6901TIP3    H242339   3.651   3.702   1.955 -0.6745  0.4612 -2.4574
 6902TIP3   OH242340   3.183   6.666   7.838 -0.2062  0.2064  0.0724
 6902TIP3    H142341   3.114   6.627   7.785 -0.0255 -0.8163  0.5678
 6902TIP3    H242342   3.155   6.757   7.852 -1.5905 -0.2671  0.5037
 6903TIP3   OH242343   3.746   5.299   1.409  0.6052  0.0405 -0.3651
 6903TIP3    H142344   3.744   5.317   1.503  0.4972 -1.6621 -0.0030
 6903TIP3    H242345   3.700   5.373   1.369 -0.0282  0.4164  0.9956
 6904TIP3   OH242346   3.908   2.359   7.978  0.3705  0.0964 -0.1447
 6904TIP3    H142347   3.899   2.429   7.914  1.3705  0.0708 -0.3144
 6904TIP3    H242348   3.943   2.285   7.929 -0.0158 -0.3086  0.1819
 6905TIP3   OH242349   3.478   1.816   1.139 -0.4573  0.2624  0.5136
 6905TIP3    H142350   3.453   1.899   1.099 -0.3504 -0.1679 -0.4784
 6905TIP3    H242351   3.573   1.812   1.130 -0.3192  0.5815  1.6771
 6906TIP3   OH242352   4.916   2.266   8.770  0.1207  0.6662 -0.3718
 6906TIP3    H142353   4.898   2.299   8.682  3.1941  1.4716 -0.8037
 6906TIP3    H242354   4.837   2.286   8.820 -0.9989  1.8380 -2.4972
 6907TIP3   OH242355   4.845   1.303   0.292  0.3535  0.9567  0.1797
 6907TIP3    H142356   4.777   1.296   0.225 -0.8645  0.3267  1.4360
 6907TIP3    H242357   4.870   1.212   0.310  0.6420  1.1195  0.6098
 6908TIP3   OH242358   0.898   6.133   8.014 -0.0700  0.5552 -0.1867
 6908TIP3    H142359   0.961   6.182   8.067  2.0277 -2.1880  0.0527
 6908TIP3    H242360   0.814   6.148   8.058  1.2727 -0.0228  2.8587
 6909TIP3   OH242361   3.038   5.541   7.763 -0.1498 -0.0354 -0.1246
 6909TIP3    H142362   3.064   5.632   7.780 -0.0422 -0.5931  3.7560
 6909TIP3    H242363   2.983   5.546   7.686  2.1674  2.8589 -1.8227
 6910TIP3   OH242364   0.324   6.576   0.364  0.4911  0.5296 -0.3856
 6910TIP3    H142365   0.373   6.497   0.388 -0.4269 -0.2969 -1.1724
 6910TIP3    H242366   0.248   6.544   0.316  0.4575  1.9417 -1.3359
 6911TIP3   OH242367   3.866   2.498   1.920  0.7319  0.3047 -0.0710
 6911TIP3    H142368   3.797   2.445   1.881 -3.1579  3.4791  1.7224
 6911TIP3    H242369   3.898   2.553   1.848  1.0841 -0.8281 -0.8027
 6912TIP3   OH242370   4.629   1.904   8.019  0.5178 -0.2562 -0.0555
 6912TIP3    H142371   4.612   1.935   8.108  1.3669  0.2893 -0.0733
 6912TIP3    H242372   4.719   1.872   8.021  0.5657 -0.1860 -0.7297
 6913TIP3   OH242373   4.645   1.430   1.800  0.3878 -0.3679  0.2914
 6913TIP3    H142374   4.604   1.471   1.724 -0.8342  2.8835  2.4843
 6913TIP3    H242375   4.713   1.492   1.827  0.0876 -0.8985  2.4356
 6914TIP3   OH242376   5.509   4.409   1.129 -0.4654  0.0185 -0.1270
 6914TIP3    H142377   5.489   4.452   1.212 -0.8571 -0.4195  0.0111
 6914TIP3    H242378   5.604   4.419   1.120 -0.5382  0.8489 -0.0717
 6915TIP3   OH242379   0.676   5.625   8.322  0.0868  0.2625 -0.3084
 6915TIP3    H142380   0.713   5.701   8.367  1.6502 -0.6488  0.0211
 6915TIP3    H242381   0.727   5.550   8.354 -1.6810 -1.0108 -0.2909
 6916TIP3   OH242382   3.861   5.568   8.881  0.2972  0.4678  0.0272
 6916TIP3    H142383   3.832   5.508   8.949  0.6626  0.4092  0.1328
 6916TIP3    H242384   3.787   5.627   8.867 -0.1753 -0.1946 -0.2967
 6917TIP3   OH242385   3.573   0.443   1.095  0.2838 -0.2685 -0.8902
 6917TIP3    H142386   3.510   0.511   1.120 -0.1817 -1.5044  1.5468
 6917TIP3    H242387   3.518   0.367   1.074  0.8906 -0.7219 -0.8552
 6918TIP3   OH242388   2.807   1.318   0.848  0.7293  0.2324  0.3818
 6918TIP3    H142389   2.752   1.371   0.905 -1.9071  0.2180 -1.8943
 6918TIP3    H242390   2.797   1.228   0.880 -0.5321  0.2550  0.1139
 6919TIP3   OH242391   0.769   5.858   8.457  0.3444 -0.4127 -0.2957
 6919TIP3    H142392   0.825   5.936   8.455 -0.2832  0.3442  3.6389
 6919TIP3    H242393   0.680   5.892   8.445  0.1426 -0.5858  0.6345
 6920TIP3   OH242394   0.415   1.457   8.853  0.0223  1.2526  0.2890
 6920TIP3    H142395   0.325   1.434   8.831  0.3284  0.7457 -0.4911
 6920TIP3    H242396   0.468   1.414   8.786  0.8545  1.4814  0.7793
 6921TIP3   OH242397   4.247   3.856   1.194 -0.5914  0.4878 -0.0431
 6921TIP3    H142398   4.254   3.872   1.288 -0.2428 -2.8237  0.6086
 6921TIP3    H242399   4.315   3.912   1.155  0.2157  0.8713  1.8088
 6922TIP3   OH242400   6.229   2.740   2.077 -0.0189  0.1340  0.0817
 6922TIP3    H142401   6.152   2.685   2.064  0.1840 -0.0989 -0.1577
 6922TIP3    H242402   6.196   2.819   2.119 -0.4709  0.2627 -0.5085
 6923TIP3   OH242403   4.119   5.030   8.259  0.0021  0.4744  0.2403
 6923TIP3    H142404   4.053   5.099   8.266 -0.7910 -0.2702  0.2973
 6923TIP3    H242405   4.187   5.055   8.321  0.3503  1.8694 -0.6632
 6924TIP3   OH242406   0.356   2.686   0.367  1.0658  0.5427 -0.0405
 6924TIP3    H142407   0.448   2.708   0.353  0.2195  2.3926 -4.9595
 6924TIP3    H242408   0.342   2.607   0.316  0.1088 -0.4354  1.6637
 6925TIP3   OH242409   6.735   6.640   2.904  0.1011 -0.4458  0.0683
 6925TIP3    H142410   6.667   6.650   2.837  1.1764 -0.4569 -1.0694
 6925TIP3    H242411   6.687   6.624   2.985 -1.2685  0.3252 -0.5524
 6926TIP3   OH242412   5.376   1.537   0.472  0.2236 -0.1802  0.3580
 6926TIP3    H142413   5.357   1.465   0.532  1.4883 -0.4807  0.4210
 6926TIP3    H242414   5.390   1.612   0.528 -0.3410 -0.0562  0.3351
 6927TIP3   OH242415   5.904   3.284   8.051 -0.0940  0.1718  0.5158
 6927TIP3    H142416   5.882   3.256   8.140  0.9336 -1.9811  0.1639
 6927TIP3    H242417   5.833   3.249   7.997  1.5347 -2.6475 -0.0159
 6928TIP3   OH242418   1.839   5.538   1.023  0.4595  0.1056  0.1572
 6928TIP3    H142419   1.827   5.565   1.113  0.3459  1.3198 -0.2052
 6928TIP3    H242420   1.863   5.445   1.028 -0.4235 -0.0715  1.3634
 6929TIP3   OH242421   6.268   1.546   7.807 -0.1344  0.2123  0.4565
 6929TIP3    H142422   6.188   1.583   7.771  0.2486  0.4015 -0.2004
 6929TIP3    H242423   6.328   1.619   7.814  1.0561 -0.4311 -2.0200
 6930TIP3   OH242424   4.934   2.160   6.914 -0.1281 -0.2822  0.7171
 6930TIP3    H142425   4.932   2.187   6.822  0.3494  1.2617  1.1264
 6930TIP3    H242426   4.979   2.076   6.914  2.4028  0.9794 -0.2125
 6931TIP3   OH242427   2.606   3.001   1.469 -0.0583 -0.1768  0.4195
 6931TIP3    H142428   2.613   2.953   1.387  0.2502 -0.2410  0.4804
 6931TIP3    H242429   2.552   2.946   1.525 -0.2543 -0.1405  0.2659
 6932TIP3   OH242430   3.411   6.584   1.266  0.0300 -0.2650  0.1899
 6932TIP3    H142431   3.382   6.501   1.229 -2.7781  0.8530 -0.4204
 6932TIP3    H242432   3.353   6.598   1.341 -0.2612  1.5723 -0.3203
 6933TIP3   OH242433   0.991   1.373   7.358 -0.0719 -0.2317  0.3188
 6933TIP3    H142434   0.936   1.357   7.280  0.3830 -1.5363  0.2310
 6933TIP3    H242435   1.080   1.371   7.325  0.1199 -0.6737  0.8417
 6934TIP3   OH242436   6.128   3.845   8.430 -0.6071 -0.2068 -0.3012
 6934TIP3    H142437   6.085   3.760   8.422  0.1746 -0.4785 -1.9480
 6934TIP3    H242438   6.059   3.903   8.463 -2.2067 -0.7278 -2.4643
 6935TIP3   OH242439   0.927   5.751   6.528 -0.1267 -0.4405  0.0167
 6935TIP3    H142440   1.020   5.771   6.534 -0.0031 -1.2971  1.0947
 6935TIP3    H242441   0.922   5.673   6.473 -0.2027 -0.4733  0.0693
 6936TIP3   OH242442   1.355   4.710   1.261  0.7727 -0.2379  0.7140
 6936TIP3    H142443   1.266   4.718   1.229  1.4038  0.9878 -0.8316
 6936TIP3    H242444   1.354   4.755   1.346  0.0566  0.2576  0.4472
 6937TIP3   OH242445   5.525   1.017   0.655  0.1206  0.4441  0.5191
 6937TIP3    H142446   5.479   0.933   0.653 -0.7936  0.9387 -0.0308
 6937TIP3    H242447   5.575   1.019   0.573  0.0467  0.4892  0.4754
 6938TIP3   OH242448   6.580   3.677   0.520 -0.1601  0.5285  0.4296
 6938TIP3    H142449   6.511   3.723   0.471 -0.4493  1.0929  1.3489
 6938TIP3    H242450   6.584   3.723   0.604  1.7074  0.8374  0.2050
 6939TIP3   OH242451   0.757   1.482   0.144  0.0384 -0.1135  0.6009
 6939TIP3    H142452   0.817   1.467   0.218  0.4620 -1.0479  0.0959
 6939TIP3    H242453   0.795   1.556   0.097  2.4809 -2.3813 -1.2996
 6940TIP3   OH242454   2.665   2.069   8.858 -0.5885 -0.4396 -0.6051
 6940TIP3    H142455   2.658   2.064   8.762 -1.8891 -0.3115 -0.5414
 6940TIP3    H242456   2.646   2.161   8.878  0.2383 -0.3408 -0.2535
 6941TIP3   OH242457   5.995   3.805   7.420 -0.4967  0.6585 -0.8036
 6941TIP3    H142458   6.006   3.886   7.469  1.0748 -0.0512  0.1142
 6941TIP3    H242459   6.081   3.789   7.380 -0.5527 -0.8785 -0.4038
 6942TIP3   OH242460   2.227   2.413   7.942 -0.1888 -0.1808 -0.0667
 6942TIP3    H142461   2.218   2.400   7.847  0.4541 -0.6004 -0.0786
 6942TIP3    H242462   2.142   2.388   7.977 -0.2818 -0.4848 -0.4936
 6943TIP3   OH242463   5.721   0.943   1.921 -0.0005 -0.1942 -0.4981
 6943TIP3    H142464   5.750   1.000   1.992 -0.0014  0.8981 -1.3483
 6943TIP3    H242465   5.782   0.868   1.924 -0.4838 -0.5619  1.1212
 6944TIP3   OH242466   5.907   1.492   8.228  0.0167 -0.2886 -0.0075
 6944TIP3    H142467   5.902   1.425   8.297  0.2271 -1.4343 -1.0734
 6944TIP3    H242468   5.821   1.533   8.228 -0.6539 -1.6523 -0.3917
 6945TIP3   OH242469   3.269   5.375   8.446  0.4186 -0.1238  0.3703
 6945TIP3    H142470   3.197   5.384   8.508  0.2816 -1.5307  0.4353
 6945TIP3    H242471   3.348   5.375   8.501  0.3969  0.2119  0.4025
 6946TIP3   OH242472   0.350   6.642   0.875 -0.4380  0.6915  0.0006
 6946TIP3    H142473   0.397   6.596   0.944 -1.2565 -0.0462  0.0846
 6946TIP3    H242474   0.338   6.576   0.806  0.7142  1.5236 -1.0235
 6947TIP3   OH242475   6.308   1.848   1.066 -0.0814 -0.1055  0.1882
 6947TIP3    H142476   6.322   1.919   1.003 -0.8902 -0.2585 -0.1697
 6947TIP3    H242477   6.351   1.878   1.146  1.4429 -0.1388 -0.5794
 6948TIP3   OH242478   6.147   4.049   1.581  0.5029 -0.2719  0.1517
 6948TIP3    H142479   6.235   4.063   1.546  0.3977  0.3018  0.1067
 6948TIP3    H242480   6.155   4.068   1.674  0.5667 -0.8537  0.2691
 6949TIP3   OH242481   0.457   3.064   0.293 -0.2940  0.2158  0.1397
 6949TIP3    H142482   0.388   3.009   0.329 -1.3052 -0.0279 -2.0064
 6949TIP3    H242483   0.535   3.007   0.293 -0.9517 -0.7237 -0.6143
 6950TIP3   OH242484   1.098   5.896   8.893 -0.0708  0.2083 -0.1986
 6950TIP3    H142485   1.119   5.986   8.867 -0.1180 -0.0745 -1.2816
 6950TIP3    H242486   1.097   5.847   8.810 -0.2801 -0.7407  0.3503
 6951TIP3   OH242487   1.659   5.729   2.278  0.5808  0.2790  0.0591
 6951TIP3    H142488   1.679   5.705   2.188 -0.0351  1.2585 -0.3490
 6951TIP3    H242489   1.595   5.664   2.307  0.4236  0.2449 -0.3610
 6952TIP3   OH242490   1.256   0.440   8.510  0.2876  0.4334  0.1046
 6952TIP3    H142491   1.337   0.407   8.472  0.0130 -0.3443  0.1808
 6952TIP3    H242492   1.267   0.428   8.604  0.7616  1.8922  0.2629
 6953TIP3   OH242493   4.040   0.084   7.635  0.0540 -0.3921 -0.3165
 6953TIP3    H142494   4.078   0.088   7.722 -1.9437  1.2154  0.5803
 6953TIP3    H242495   3.956   0.040   7.647 -1.8107  2.7133 -0.6385
 6954TIP3   OH242496   3.117   5.701   0.801  0.7754 -0.2528  0.0026
 6954TIP3    H142497   3.115   5.790   0.765  1.2223  0.0881  0.7854
 6954TIP3    H242498   3.200   5.665   0.772 -0.1418 -1.0619 -1.7571
 6955TIP3   OH242499   1.654   6.675   2.065 -0.4065 -0.2754 -0.3667
 6955TIP3    H142500   1.706   6.715   1.995 -1.1057  0.2001 -0.6284
 6955TIP3    H242501   1.577   6.731   2.071 -0.6312 -0.6652  0.3801
 6956TIP3   OH242502   0.206   4.791   8.593  0.1934 -0.1972 -0.7667
 6956TIP3    H142503   0.265   4.754   8.660  2.0349  2.8910 -0.4652
 6956TIP3    H242504   0.124   4.806   8.640  0.6391 -0.4175  0.1206
 6957TIP3   OH242505   3.504   1.115   7.473  0.0537 -0.1219  0.5072
 6957TIP3    H142506   3.431   1.113   7.411  0.3751 -0.5626  0.1346
 6957TIP3    H242507   3.500   1.202   7.512 -0.4187  0.0054  0.1866
 6958TIP3   OH242508   2.321   4.260   1.029  0.2419  0.6973 -0.6050
 6958TIP3    H142509   2.346   4.265   0.937  1.0644  0.8176 -0.3829
 6958TIP3    H242510   2.396   4.220   1.072 -1.3349 -2.4835 -0.4633
 6959TIP3   OH242511   0.270   5.032   1.272  0.5575  0.2416  0.0343
 6959TIP3    H142512   0.236   4.943   1.285 -0.5109  0.2958 -1.9785
 6959TIP3    H242513   0.279   5.040   1.177  4.3787  0.9650  0.2812
 6960TIP3   OH242514   1.197   6.103   0.711 -0.0411 -0.2553 -0.8317
 6960TIP3    H142515   1.150   6.180   0.678 -0.5144 -0.0863  0.1831
 6960TIP3    H242516   1.163   6.091   0.800  1.5752 -0.3573 -0.1916
 6961TIP3   OH242517   3.374   4.955   0.586  0.2432  0.2628 -0.2355
 6961TIP3    H142518   3.399   4.893   0.518  0.2951 -1.7722  1.5220
 6961TIP3    H242519   3.425   5.034   0.567  3.1588 -1.5121 -0.4511
 6962TIP3   OH242520   0.427   5.493   8.048  0.1862 -0.4923  0.0941
 6962TIP3    H142521   0.405   5.457   7.962 -1.2247  0.2785  0.0914
 6962TIP3    H242522   0.462   5.580   8.029 -1.8071  0.4226  0.3264
 6963TIP3   OH242523   2.696   4.512   2.858  0.1049  0.4415 -0.3804
 6963TIP3    H142524   2.765   4.481   2.800  1.0357  3.7266 -1.2095
 6963TIP3    H242525   2.707   4.460   2.938  2.6482 -0.0615 -0.9695
 6964TIP3   OH242526   0.741   3.769   0.171  0.0291  0.2242 -0.2373
 6964TIP3    H142527   0.652   3.734   0.167 -0.8354  2.1579  0.7482
 6964TIP3    H242528   0.742   3.840   0.107  1.3116 -0.6255 -1.2125
 6965TIP3   OH242529   4.338   1.975   6.770 -0.4018  0.0633 -0.5855
 6965TIP3    H142530   4.361   1.943   6.857 -1.6857  1.1835  0.1940
 6965TIP3    H242531   4.289   1.903   6.730 -1.7248  0.3313  0.4809
 6966TIP3   OH242532   4.672   4.179   7.775 -0.1135  0.2158  0.5440
 6966TIP3    H142533   4.680   4.086   7.799  2.1623  0.0577 -0.5818
 6966TIP3    H242534   4.611   4.178   7.701 -0.1260 -0.3912  0.5507
 6967TIP3   OH242535   1.166   1.749   0.593  0.1909  0.2544  0.3593
 6967TIP3    H142536   1.199   1.690   0.526  0.1420  2.4865 -1.7995
 6967TIP3    H242537   1.101   1.803   0.547  0.0068  1.7589  2.2467
 6968TIP3   OH242538   6.173   2.681   7.277  0.2160 -0.1071 -0.0277
 6968TIP3    H142539   6.165   2.738   7.353  2.6317  0.3048 -0.0165
 6968TIP3    H242540   6.122   2.725   7.209  0.2440  0.9315  0.6064
 6969TIP3   OH242541   3.760   4.520   0.366 -0.3682 -0.0539 -0.2936
 6969TIP3    H142542   3.669   4.547   0.380 -0.5446 -0.7929  0.0643
 6969TIP3    H242543   3.812   4.586   0.411 -0.7452  0.1508 -0.1495
 6970TIP3   OH242544   6.300   3.448   7.278  0.3161 -0.8895 -0.0765
 6970TIP3    H142545   6.330   3.455   7.188 -1.4067  0.2252 -0.6065
 6970TIP3    H242546   6.291   3.539   7.308 -1.1770 -1.1905  0.4748
 6971TIP3   OH242547   5.464   3.976   7.364  0.6436 -0.0708 -0.1888
 6971TIP3    H142548   5.542   3.989   7.309 -0.7751 -0.8190 -2.4941
 6971TIP3    H242549   5.466   3.883   7.387 -0.2325 -0.3951 -1.3648
 6972TIP3   OH242550   1.739   6.280   0.274 -0.0985 -0.2120 -0.0318
 6972TIP3    H142551   1.662   6.293   0.219 -1.1740 -0.1480  1.4337
 6972TIP3    H242552   1.774   6.368   0.288  0.0124 -0.2010 -0.3619
 6973TIP3   OH242553   4.238   2.506   6.846  0.1578  0.2446  0.0505
 6973TIP3    H142554   4.310   2.496   6.784  0.7891  2.9803  0.2404
 6973TIP3    H242555   4.162   2.528   6.792  0.1938  0.4582  0.0876
 6974TIP3   OH242556   0.590   1.260   7.898  0.5598 -0.5078 -0.4182
 6974TIP3    H142557   0.669   1.287   7.852 -0.8330  0.3856 -2.4638
 6974TIP3    H242558   0.553   1.191   7.844  1.4527 -3.2155  2.1475
 6975TIP3   OH242559   4.849   3.121   6.554 -0.3672 -0.5302  0.4669
 6975TIP3    H142560   4.797   3.198   6.528 -3.3901 -2.0182  1.6653
 6975TIP3    H242561   4.875   3.140   6.644  0.9925  0.0444 -0.0090
 6976TIP3   OH242562   5.062   4.368   1.795 -0.1362 -0.1034 -0.0770
 6976TIP3    H142563   5.048   4.296   1.735  2.0700 -1.8954  1.3821
 6976TIP3    H242564   5.055   4.328   1.882  1.2834  1.3795  0.7751
 6977TIP3   OH242565   2.324   2.948   1.183  0.0531 -0.1578  0.6226
 6977TIP3    H142566   2.239   2.906   1.191 -0.5542  0.1350 -2.7118
 6977TIP3    H242567   2.388   2.877   1.190 -0.4509 -0.4571  2.5428
 6978TIP3   OH242568   0.489   0.190   0.129 -0.4753 -0.5660  0.0928
 6978TIP3    H142569   0.554   0.224   0.067 -2.1626  0.2704 -1.2934
 6978TIP3    H242570   0.427   0.262   0.141 -0.6179 -0.9681  2.2306
 6979TIP3   OH242571   6.013   3.292   7.281  0.2976  0.0574 -0.3601
 6979TIP3    H142572   6.026   3.225   7.348  1.5367 -0.4357 -1.0655
 6979TIP3    H242573   5.944   3.348   7.316  2.3017  1.0717  2.3016
 6980TIP3   OH242574   2.007   6.188   7.119  0.2833  0.4753 -0.0701
 6980TIP3    H142575   1.935   6.251   7.128  0.5423  0.5144  2.4382
 6980TIP3    H242576   1.969   6.104   7.144  0.5551  0.0713 -0.9846
 6981TIP3   OH242577   6.258   6.767   7.796 -0.0421  0.0609 -0.0761
 6981TIP3    H142578   6.257   6.862   7.790 -3.2427  0.1255  0.0936
 6981TIP3    H242579   6.319   6.749   7.868  0.4068  1.9775  0.0836
 6982TIP3   OH242580   6.719   4.269   0.815  0.1091 -0.1596 -0.2508
 6982TIP3    H142581   6.794   4.312   0.857 -1.2292 -0.1841  2.3965
 6982TIP3    H242582   6.706   4.189   0.867 -2.9634  0.8738  0.7690
 6983TIP3   OH242583   2.164   3.202   6.582  0.1672 -0.3792 -0.6257
 6983TIP3    H142584   2.197   3.133   6.524  0.4757 -0.0901 -0.7955
 6983TIP3    H242585   2.225   3.204   6.655  0.7348  0.3923 -1.1092
 6984TIP3   OH242586   6.257   4.940   1.030 -0.0227  0.3012 -0.6553
 6984TIP3    H142587   6.352   4.947   1.043 -0.1417  1.8006 -0.3321
 6984TIP3    H242588   6.233   5.022   0.986 -1.4688  1.0269  1.3009
 6985TIP3   OH242589   3.136   3.706   8.432  0.4113 -0.2782  0.8235
 6985TIP3    H142590   3.184   3.725   8.351  0.1316 -0.1702  0.6836
 6985TIP3    H242591   3.052   3.750   8.421 -0.2711 -1.6219  0.4666
 6986TIP3   OH242592   3.770   6.636   2.118  0.0764 -0.2561 -0.4275
 6986TIP3    H142593   3.686   6.681   2.132  0.5790  0.9988 -1.2227
 6986TIP3    H242594   3.804   6.621   2.206 -1.0122 -0.8717 -0.0891
 6987TIP3   OH242595   4.781   2.024   1.214  0.2176 -0.1407  0.7470
 6987TIP3    H142596   4.766   1.965   1.140  1.5035  0.1053  0.2629
 6987TIP3    H242597   4.775   2.112   1.176  1.0654 -0.0168  0.8818
 6988TIP3   OH242598   5.317   2.998   1.515  0.3143 -0.9367  0.3556
 6988TIP3    H142599   5.353   3.086   1.531  0.3236 -0.2335 -2.7745
 6988TIP3    H242600   5.226   3.013   1.490  0.0619 -1.9156  0.6513
 6989TIP3   OH242601   1.955   4.684   1.256 -0.1057  0.5349 -0.2753
 6989TIP3    H142602   2.048   4.663   1.259 -0.7101 -2.7052  0.1949
 6989TIP3    H242603   1.928   4.686   1.348 -1.1241 -2.5880 -0.3886
 6990TIP3   OH242604   3.450   1.928   8.941  0.3680  0.3135  0.3770
 6990TIP3    H142605   3.479   2.004   8.890  1.5032  0.9470  1.8691
 6990TIP3    H242606   3.369   1.957   8.983  0.6597  0.6418  0.7349
 6991TIP3   OH242607   4.196   1.232   0.877  0.1348  0.5085  0.0226
 6991TIP3    H142608   4.265   1.280   0.922 -1.6711  4.3838 -0.9186
 6991TIP3    H242609   4.184   1.279   0.795 -2.8446 -0.7227 -0.3618
 6992TIP3   OH242610   3.491   3.486   2.218  0.4034  0.0602  0.5224
 6992TIP3    H142611   3.553   3.551   2.250  0.2324 -0.1654  1.3469
 6992TIP3    H242612   3.539   3.403   2.222  0.9905  0.2464 -1.5614
 6993TIP3   OH242613   1.983   4.344   7.430  0.1070  0.7130  0.3973
 6993TIP3    H142614   1.899   4.300   7.420  0.5638 -0.4415  1.5222
 6993TIP3    H242615   2.009   4.367   7.340 -0.1054 -1.3931 -0.2392
 6994TIP3   OH242616   4.986   0.084   1.608  0.6042 -0.1996  0.0428
 6994TIP3    H142617   4.909   0.140   1.621  1.3807  0.9639 -0.2373
 6994TIP3    H242618   4.954   0.013   1.553 -0.8395 -1.0339  1.8586
 6995TIP3   OH242619   5.793   1.166   0.073  0.5822 -0.1127 -0.6408
 6995TIP3    H142620   5.759   1.251   0.044  1.0353  0.2829 -0.0412
 6995TIP3    H242621   5.855   1.140   0.005 -0.7685 -0.7658 -1.6679
 6996TIP3   OH242622   2.872   0.693   1.961  0.6349  0.0534  0.5739
 6996TIP3    H142623   2.830   0.766   2.008 -1.8410 -1.5973  1.1047
 6996TIP3    H242624   2.930   0.736   1.899 -1.7838  2.6022 -0.1595
 6997TIP3   OH242625   2.057   5.866   0.382  0.1279  0.3818  0.0032
 6997TIP3    H142626   2.089   5.831   0.466 -0.3595  0.3710  0.1867
 6997TIP3    H242627   2.006   5.944   0.406 -0.5609  0.0099 -0.2226
 6998TIP3   OH242628   2.014   4.893   7.535 -0.4809 -0.1759  0.4190
 6998TIP3    H142629   2.038   4.820   7.593  0.3182 -0.8173 -0.6923
 6998TIP3    H242630   1.919   4.887   7.527 -0.5820 -0.2372  1.4294
 6999TIP3   OH242631   2.444   3.554   6.693 -0.4264  0.1692  0.5164
 6999TIP3    H142632   2.486   3.468   6.690  1.6286  1.0907 -1.9871
 6999TIP3    H242633   2.389   3.556   6.614  0.2802  1.4062  0.0190
 7000TIP3   OH242634   2.182   4.779   7.840 -0.6031  0.1183  0.7548
 7000TIP3    H142635   2.236   4.793   7.917  1.3107 -1.3572 -0.2193
 7000TIP3    H242636   2.243   4.787   7.766 -2.1109  0.2856 -0.5355
 7001TIP3   OH242637   4.970   5.975   0.029 -0.2405  0.9610 -0.2754
 7001TIP3    H142638   5.018   5.895   0.008  0.4068  0.6347  2.1725
 7001TIP3    H242639   4.895   5.946   0.081 -0.5465  1.8519 -0.1960
 7002TIP3   OH242640   3.728   3.234   1.502 -0.1573 -0.3675  0.2798
 7002TIP3    H142641   3.738   3.157   1.446 -2.3441 -0.5433  0.0401
 7002TIP3    H242642   3.705   3.198   1.588  0.3506 -0.0203  0.5638
 7003TIP3   OH242643   3.730   0.650   7.772  0.3169  0.1892  0.0484
 7003TIP3    H142644   3.723   0.736   7.732  0.6371 -0.0561 -0.5503
 7003TIP3    H242645   3.715   0.588   7.700 -1.5220 -0.2644  0.7845
 7004TIP3   OH242646   2.586   3.569   0.024  0.8313 -0.0223  0.3608
 7004TIP3    H142647   2.577   3.485   0.070 -1.2776 -0.6381 -1.0361
 7004TIP3    H242648   2.610   3.544  -0.065 -0.4536  0.7877 -0.2371
 7005TIP3   OH242649   0.919   5.045   8.897  0.2990  0.2754  0.0265
 7005TIP3    H142650   0.994   5.007   8.944 -1.4161  0.4092  3.1582
 7005TIP3    H242651   0.952   5.126   8.860  1.6960  0.4011  1.4409
 7006TIP3   OH242652   2.823   2.751   7.490 -0.1504  0.1686  0.6560
 7006TIP3    H142653   2.794   2.676   7.542  0.7610  0.4005  1.5220
 7006TIP3    H242654   2.914   2.764   7.515 -0.2402  1.4570  0.3865
 7007TIP3   OH242655   0.904   1.531   0.368  0.2882  0.3051  0.3408
 7007TIP3    H142656   0.963   1.604   0.347  1.5923 -0.7904  0.0348
 7007TIP3    H242657   0.847   1.565   0.436  1.9680  1.1221  1.4056
 7008TIP3   OH242658   4.004   2.731   1.365 -0.0127  0.0976  0.3716
 7008TIP3    H142659   4.094   2.761   1.365  0.3410 -0.8084 -1.6375
 7008TIP3    H242660   3.951   2.811   1.370  0.8997  0.7969 -0.8272
 7009TIP3   OH242661   6.651   1.329   1.491  0.0493  0.3575  0.1403
 7009TIP3    H142662   6.680   1.388   1.422 -1.7365  0.5921 -0.4650
 7009TIP3    H242663   6.562   1.304   1.466  0.0978 -1.1686  1.3193
 7010TIP3   OH242664   5.922   0.845   7.458 -0.6779 -0.2420 -0.3016
 7010TIP3    H142665   5.947   0.795   7.381 -0.9984  0.9703 -1.2235
 7010TIP3    H242666   5.849   0.795   7.496 -1.2715 -0.2734 -1.4341
 7011TIP3   OH242667   4.916   5.153   1.734  0.4316  0.4588 -0.5187
 7011TIP3    H142668   4.943   5.064   1.714  0.9919  0.8266 -1.4864
 7011TIP3    H242669   4.997   5.205   1.726 -0.0563  1.1822 -0.8820
 7012TIP3   OH242670   2.076   0.455   0.107  0.7609 -0.6134  0.3899
 7012TIP3    H142671   2.093   0.361   0.109  1.1164 -0.6464 -1.7381
 7012TIP3    H242672   2.109   0.483   0.021 -0.2896  1.2567  0.5543
 7013TIP3   OH242673   5.976   3.229   8.777 -0.6366 -0.0198 -0.5851
 7013TIP3    H142674   5.956   3.189   8.693  0.9160  2.3649 -2.2113
 7013TIP3    H242675   5.897   3.278   8.799 -1.7906 -2.1772  0.4369
 7014TIP3   OH242676   5.530   4.121   7.097  0.3579 -0.1959 -0.1911
 7014TIP3    H142677   5.495   4.033   7.085  0.7111 -0.4112  0.3431
 7014TIP3    H242678   5.618   4.118   7.058  0.7357 -0.3458  0.6543
 7015TIP3   OH242679   5.577   0.270   0.017  0.3064  0.4959  0.1932
 7015TIP3    H142680   5.584   0.365   0.011  1.7523  0.4584  0.7375
 7015TIP3    H242681   5.571   0.240  -0.073  0.8293  1.0629 -0.0382
 7016TIP3   OH242682   4.129   5.338   7.015 -0.1822 -0.2088 -0.1585
 7016TIP3    H142683   4.213   5.376   7.041 -0.7642  0.9069  0.1501
 7016TIP3    H242684   4.124   5.254   7.062  0.7764 -0.3155 -0.2414
 7017TIP3   OH242685   1.700   5.615   8.583  0.0455  0.0062 -0.7171
 7017TIP3    H142686   1.720   5.709   8.590  0.2215  0.2159 -3.1926
 7017TIP3    H242687   1.702   5.597   8.489  1.2791 -2.7779 -0.2648
 7018TIP3   OH242688   6.035   4.146   7.868  0.4864  0.0265 -0.1024
 7018TIP3    H142689   6.093   4.070   7.861 -0.0037 -0.4511  0.8804
 7018TIP3    H242690   6.082   4.207   7.924 -0.5004 -0.9211  1.8353
 7019TIP3   OH242691   1.346   1.054   8.994 -0.2714  0.4512  0.1371
 7019TIP3    H142692   1.412   1.007   8.943  0.1121  0.0113  1.0188
 7019TIP3    H242693   1.289   0.985   9.029 -0.7966  0.7813 -0.0616
 7020TIP3   OH242694   4.499   2.918   2.206  0.6019 -0.1100 -0.0291
 7020TIP3    H142695   4.422   2.974   2.220 -0.4525 -1.1769 -1.3750
 7020TIP3    H242696   4.482   2.841   2.260  0.5411 -0.5086 -0.6127
 7021TIP3   OH242697   1.580   0.456   0.994 -0.2849  0.1464 -0.0692
 7021TIP3    H142698   1.604   0.395   1.065  0.8865  0.7925  0.1177
 7021TIP3    H242699   1.537   0.528   1.039  1.1183  0.9095  0.1154
 7022TIP3   OH242700   2.087   6.470   8.234  0.2250  0.3127 -0.8949
 7022TIP3    H142701   2.158   6.457   8.297 -1.9334  1.5667  1.9899
 7022TIP3    H242702   2.129   6.511   8.159  2.6903  0.1555  0.3100
 7023TIP3   OH242703   5.052   2.218   7.608  0.1290  0.5353 -0.3441
 7023TIP3    H142704   5.045   2.297   7.662  1.0051  0.2940  0.1451
 7023TIP3    H242705   4.967   2.175   7.616  0.2340  0.5252  0.8380
 7024TIP3   OH242706   5.296   3.238   8.039  1.0665  0.0450 -0.2946
 7024TIP3    H142707   5.224   3.246   7.977 -0.0660  1.7307  1.1309
 7024TIP3    H242708   5.312   3.327   8.070 -0.1692 -0.8750  3.6670
 7025TIP3   OH242709   6.596   0.235   1.801  0.2424 -0.2790 -0.1534
 7025TIP3    H142710   6.690   0.224   1.817  0.4315  1.0074 -0.2337
 7025TIP3    H242711   6.566   0.290   1.874 -0.2231  0.1810 -0.6824
 7026TIP3   OH242712   0.257   3.863   2.156  0.0493 -0.5564  0.3398
 7026TIP3    H142713   0.227   3.823   2.074 -0.0980  1.7112 -0.7818
 7026TIP3    H242714   0.205   3.821   2.224 -0.3018 -2.0190 -0.7739
 7027TIP3   OH242715   6.562   0.818   7.300 -0.4742  0.5344 -0.2592
 7027TIP3    H142716   6.472   0.816   7.331 -0.1101  1.1442  0.8745
 7027TIP3    H242717   6.560   0.879   7.226 -1.0723  0.1631 -0.5594
 7028TIP3   OH242718   5.633   1.520   1.102 -0.6373 -0.1736 -0.4326
 7028TIP3    H142719   5.673   1.457   1.043 -1.0387 -0.1730 -0.7102
 7028TIP3    H242720   5.576   1.468   1.158 -0.6938 -0.1043 -0.4256
 7029TIP3   OH242721   1.237   3.119   1.760  0.3502 -0.4520 -0.1414
 7029TIP3    H142722   1.248   3.147   1.851  0.3449  1.2056 -0.6280
 7029TIP3    H242723   1.143   3.124   1.744  0.5123  0.9825 -0.7453
 7030TIP3   OH242724   0.055   5.519   2.354 -0.6271  0.5185 -0.0802
 7030TIP3    H142725   0.143   5.482   2.349 -1.1699 -0.7263 -2.0668
 7030TIP3    H242726   0.027   5.502   2.444  0.4924 -0.7400  0.0730
 7031TIP3   OH242727   0.705   4.221   8.310  0.2495 -0.5684 -0.1684
 7031TIP3    H142728   0.659   4.144   8.277  0.0003  0.1787 -1.5991
 7031TIP3    H242729   0.654   4.249   8.386  0.2738 -1.7273  0.2932
 7032TIP3   OH242730   0.090   3.370   0.218 -0.5363  0.0483 -0.3183
 7032TIP3    H142731   0.120   3.437   0.156 -0.4449  1.3491  1.0941
 7032TIP3    H242732   0.142   3.385   0.297 -1.6201 -0.6873  0.5614
 7033TIP3   OH242733   5.321   5.308   7.760 -0.2794  0.8150 -0.1221
 7033TIP3    H142734   5.362   5.221   7.759 -0.3606  0.6987  2.1539
 7033TIP3    H242735   5.250   5.301   7.696 -1.5797 -1.5029  1.4123
 7034TIP3   OH242736   5.066   3.092   1.476  0.8093  0.2866 -0.1887
 7034TIP3    H142737   5.049   3.180   1.510 -0.7919  0.1058 -0.4296
 7034TIP3    H242738   5.048   3.098   1.383 -0.4854 -0.5519 -0.0190
 7035TIP3   OH242739   2.532   0.361   7.793 -0.0335  0.4652  0.3230
 7035TIP3    H142740   2.592   0.416   7.844 -0.6140  2.6363 -1.1905
 7035TIP3    H242741   2.445   0.397   7.810 -0.3921  0.3097 -1.0142
 7036TIP3   OH242742   2.041   5.572   0.803  0.1327  0.0036 -0.0168
 7036TIP3    H142743   1.984   5.508   0.762 -0.2677  0.1829  0.2577
 7036TIP3    H242744   2.089   5.523   0.869  0.8092 -0.2964 -0.7138
 7037TIP3   OH242745   2.405   4.290   1.594  0.4159  0.2195  0.0636
 7037TIP3    H142746   2.328   4.332   1.632  1.8946  3.2644  0.0650
 7037TIP3    H242747   2.379   4.268   1.504 -0.5975  0.7249  0.2229
 7038TIP3   OH242748   3.043   2.133   1.618  0.1252 -0.3080 -0.0760
 7038TIP3    H142749   2.966   2.089   1.583  0.9773 -2.2502  0.3561
 7038TIP3    H242750   3.020   2.155   1.708  0.0900 -1.0151  0.0969
 7039TIP3   OH242751   1.113   4.082   1.202 -0.1032  0.1757  0.1212
 7039TIP3    H142752   1.051   4.098   1.131 -1.0329 -1.4234  0.5271
 7039TIP3    H242753   1.062   4.093   1.282 -0.5005 -3.1209  0.4473
 7040TIP3   OH242754   0.150   1.062   1.013 -0.1762  0.1558  0.4076
 7040TIP3    H142755   0.058   1.065   1.039 -0.4241 -2.0311  0.0023
 7040TIP3    H242756   0.148   1.030   0.923  0.9581  0.9285  0.0937
 7041TIP3   OH242757   3.220   0.095   1.788  0.0213 -0.2454  0.1539
 7041TIP3    H142758   3.189   0.065   1.873 -2.0785 -2.2887 -1.2104
 7041TIP3    H242759   3.309   0.061   1.782  0.0753 -0.3605  1.4025
 7042TIP3   OH242760   2.773   3.052   0.245 -0.2743 -0.0881 -0.6619
 7042TIP3    H142761   2.862   3.025   0.219 -0.2639 -1.5935  0.7824
 7042TIP3    H242762   2.716   2.989   0.202 -0.5682  0.1851 -0.6718
 7043TIP3   OH242763   6.288   3.538   8.728 -0.2637  0.0620  0.4533
 7043TIP3    H142764   6.294   3.446   8.752  0.0537  0.0845  0.4620
 7043TIP3    H242765   6.305   3.539   8.634  0.3814  0.1806  0.5669
 7044TIP3   OH242766   4.831   2.660   7.469  0.0150  0.7029 -0.6834
 7044TIP3    H142767   4.847   2.568   7.485 -2.9265  0.2827  0.3448
 7044TIP3    H242768   4.770   2.662   7.395 -0.7233  1.7503 -0.0788
 7045TIP3   OH242769   5.094   2.495   0.285  0.6392  0.5059  0.4567
 7045TIP3    H142770   5.188   2.484   0.265  0.3419 -0.3181 -0.6357
 7045TIP3    H242771   5.051   2.485   0.200 -0.4590  0.7559  0.9676
 7046TIP3   OH242772   2.738   1.243   7.577 -0.1271 -0.2766  0.6601
 7046TIP3    H142773   2.744   1.153   7.609  0.0355 -0.3492  0.4336
 7046TIP3    H242774   2.828   1.276   7.583 -0.4111  0.3340  2.0400
 7047TIP3   OH242775   1.039   5.055   0.926  0.2574 -0.0144 -0.4713
 7047TIP3    H142776   0.945   5.037   0.924 -0.2436  0.9850  3.9128
 7047TIP3    H242777   1.044   5.150   0.935  1.6631 -0.0898 -0.2891
 7048TIP3   OH242778   0.059   0.783   1.412 -0.2367 -0.9165  1.0317
 7048TIP3    H142779   0.108   0.706   1.439 -0.4333 -0.9963  1.1654
 7048TIP3    H242780   0.026   0.762   1.325 -0.4160 -1.0422  1.1301
 7049TIP3   OH242781   1.597   1.548   1.647 -0.1870 -0.1151 -0.1816
 7049TIP3    H142782   1.680   1.548   1.599 -0.8739 -0.7219 -1.3913
 7049TIP3    H242783   1.622   1.526   1.737  0.8464 -1.4866 -0.7613
 7050TIP3   OH242784   5.119   0.994   7.369  0.0776 -0.1361  0.4702
 7050TIP3    H142785   5.187   0.933   7.397  0.5991  1.1805  2.2855
 7050TIP3    H242786   5.168   1.067   7.329 -0.0938  1.2572  2.6210
 7051TIP3   OH242787   4.250   6.043   2.414 -0.3822 -0.1061 -0.1462
 7051TIP3    H142788   4.274   6.095   2.491  0.7557  0.4522 -0.8608
 7051TIP3    H242789   4.174   5.993   2.443  1.2432 -1.5113  2.0624
 7052TIP3   OH242790   2.965   2.745   0.944  0.4457 -0.5924  0.2303
 7052TIP3    H142791   3.002   2.673   0.995  1.6941  0.0121  0.2223
 7052TIP3    H242792   3.039   2.778   0.894 -0.1728  0.5223  0.0364
 7053TIP3   OH242793   2.807   2.498   8.032 -0.2993 -0.3983 -0.4285
 7053TIP3    H142794   2.850   2.485   8.117 -0.5970 -1.1057 -0.3801
 7053TIP3    H242795   2.721   2.458   8.043 -1.1134  1.2913 -0.4147
 7054TIP3   OH242796   6.280   0.619   0.313  0.4865 -0.0057  0.3675
 7054TIP3    H142797   6.189   0.640   0.331  0.4257 -0.3154  0.4302
 7054TIP3    H242798   6.320   0.702   0.287  0.5420  0.4189  1.7602
 7055TIP3   OH242799   6.130   5.534   2.527  0.2091 -0.6132  0.1013
 7055TIP3    H142800   6.166   5.603   2.583 -0.2226 -0.7651  0.5756
 7055TIP3    H242801   6.206   5.488   2.494  0.4574 -0.9679  1.1381
 7056TIP3   OH242802   2.504   5.992   1.447  0.9467 -0.1126 -0.9151
 7056TIP3    H142803   2.571   6.047   1.407  0.9057  2.0890  1.7384
 7056TIP3    H242804   2.421   6.033   1.422  0.8717  0.5093  0.3033
 7057TIP3   OH242805   5.160   2.218   8.861  0.9703 -0.2510  0.1619
 7057TIP3    H142806   5.193   2.307   8.860  0.5770 -0.0874  0.9151
 7057TIP3    H242807   5.065   2.227   8.848  0.8148 -0.4900  1.0347
 7058TIP3   OH242808   0.150   0.160   0.118  0.6186  0.2437  0.3775
 7058TIP3    H142809   0.152   0.124   0.029  1.6108 -1.9383  1.2135
 7058TIP3    H242810   0.113   0.089   0.171 -0.1793  1.5957  1.6817
 7059TIP3   OH242811   4.040   3.000   7.278  0.0398  0.9150  0.1305
 7059TIP3    H142812   4.065   3.008   7.186 -2.6915  0.1535 -0.7752
 7059TIP3    H242813   4.100   2.934   7.314  0.0165 -0.0963 -1.5826
 7060TIP3   OH242814   6.415   2.177   7.264  0.4945  0.0356 -0.5805
 7060TIP3    H142815   6.406   2.237   7.190 -1.0960  0.4076 -0.1079
 7060TIP3    H242816   6.383   2.227   7.339  1.9751 -0.3800  0.3635
 7061TIP3   OH242817   6.098   0.970   1.022 -0.7381  0.9901 -0.3212
 7061TIP3    H142818   6.069   0.907   0.956 -0.6833 -0.0628  0.6332
 7061TIP3    H242819   6.020   1.023   1.040 -0.6824  1.4804 -1.4082
 7062TIP3   OH242820   4.314   0.098   7.033  0.5087  0.2277  0.9207
 7062TIP3    H142821   4.353   0.125   6.950 -0.0096  0.0779  0.6208
 7062TIP3    H242822   4.259   0.172   7.059  0.9150  0.4019  1.2929
 7063TIP3   OH242823   2.700   5.353   0.358 -0.0863  0.4040 -0.0642
 7063TIP3    H142824   2.745   5.269   0.364  0.8649  0.9064 -0.0606
 7063TIP3    H242825   2.634   5.341   0.289  1.0237  0.0968 -1.0929
 7064TIP3   OH242826   2.534   1.269   8.242 -0.1125  0.1565 -1.0438
 7064TIP3    H142827   2.583   1.347   8.216  0.3662  1.0369  2.0187
 7064TIP3    H242828   2.444   1.299   8.249  0.0279  0.4203 -0.1485
 7065TIP3   OH242829   5.565   6.390   2.060 -0.1264  0.0415  0.1042
 7065TIP3    H142830   5.631   6.454   2.084  1.1893 -1.2085 -0.0260
 7065TIP3    H242831   5.526   6.363   2.143  0.4002 -0.1100  0.3041
 7066TIP3   OH242832   5.704   4.873   0.180  0.2757 -0.0243 -0.0649
 7066TIP3    H142833   5.797   4.883   0.159  0.6416  0.7062  1.7411
 7066TIP3    H242834   5.703   4.808   0.251 -0.6446 -0.4414 -0.4522
 7067TIP3   OH242835   2.207   4.964   8.771 -0.1394  0.9021 -0.8588
 7067TIP3    H142836   2.213   4.978   8.676  0.4309 -0.4362 -1.0415
 7067TIP3    H242837   2.171   4.875   8.780  0.2596  0.8347  0.1791
 7068TIP3   OH242838   5.374   4.775   6.975 -0.0546  0.7678  0.2072
 7068TIP3    H142839   5.308   4.733   6.919  0.8913  0.3723 -0.6455
 7068TIP3    H242840   5.424   4.830   6.916  1.0237  0.2827  0.6289
 7069TIP3   OH242841   1.613   0.054   1.137 -0.1045 -0.4690  0.9444
 7069TIP3    H142842   1.692   0.084   1.092  0.2934  0.8846  2.4214
 7069TIP3    H242843   1.579   0.133   1.180 -1.5142 -1.3075  1.4254
 7070TIP3   OH242844   1.330   4.729   8.721  0.1245 -0.1328  0.3732
 7070TIP3    H142845   1.421   4.759   8.725  0.6227 -1.5204 -0.2618
 7070TIP3    H242846   1.328   4.664   8.652 -1.4103 -0.0028  0.2478
 7071TIP3   OH242847   5.465   4.884   7.251  0.1923  0.0524  0.5075
 7071TIP3    H142848   5.531   4.849   7.191  2.4414  1.9771  1.6901
 7071TIP3    H242849   5.426   4.958   7.204 -1.3789 -1.2157 -0.2766
 7072TIP3   OH242850   1.800   0.943   1.519 -0.3111  0.3378 -0.1438
 7072TIP3    H142851   1.777   1.023   1.472 -0.6492  0.6014  0.4603
 7072TIP3    H242852   1.890   0.956   1.547  0.1178 -0.0941 -1.2737
 7073TIP3   OH242853   1.993   6.145   7.994 -0.1802 -0.4557 -0.5125
 7073TIP3    H142854   2.062   6.206   8.023 -2.5499  2.7437 -0.9885
 7073TIP3    H242855   2.003   6.068   8.050  3.4861 -0.0239 -0.3523
 7074TIP3   OH242856   2.962   0.406   8.404  0.3410  0.4198 -0.1012
 7074TIP3    H142857   2.889   0.448   8.451 -0.3859  0.4684 -1.2313
 7074TIP3    H242858   3.004   0.350   8.469 -1.8903 -1.1026  0.1373
 7075TIP3   OH242859   4.741   0.833   1.994 -0.3003  0.3831  0.7422
 7075TIP3    H142860   4.743   0.875   1.908 -3.3792  2.0221  1.3274
 7075TIP3    H242861   4.807   0.764   1.989  1.7345  2.3397 -1.8744
 7076TIP3   OH242862   0.368   5.550   0.992 -0.0542 -0.1995  0.1023
 7076TIP3    H142863   0.329   5.601   0.921 -1.2296 -1.0708  0.1004
 7076TIP3    H242864   0.451   5.518   0.956 -0.6526 -0.6567 -0.8800
 7077TIP3   OH242865   2.765   1.251   8.591  0.4330  0.2406  0.6504
 7077TIP3    H142866   2.716   1.333   8.601  1.5699  0.9733  0.4473
 7077TIP3    H242867   2.855   1.275   8.609  0.7593 -1.0349  0.8125
 7078TIP3   OH242868   5.696   1.027   8.454  0.5089 -0.8537  0.1678
 7078TIP3    H142869   5.709   1.122   8.456 -0.6223 -0.6022 -1.4860
 7078TIP3    H242870   5.763   0.995   8.394 -0.6913 -0.7190 -1.3096
 7079TIP3   OH242871   3.869   3.670   7.750 -0.0999 -0.6737 -0.2017
 7079TIP3    H142872   3.906   3.584   7.729  1.3940 -0.5713  1.7123
 7079TIP3    H242873   3.912   3.730   7.689  0.9938 -0.9153  0.3121
 7080TIP3   OH242874   5.495   3.722   0.556  0.0093 -0.1441 -0.1162
 7080TIP3    H142875   5.436   3.792   0.583 -0.2830 -0.0922 -0.8571
 7080TIP3    H242876   5.573   3.734   0.610 -0.8871 -0.6092  1.3351
 7081TIP3   OH242877   6.010   0.826   0.653  0.0389  0.3488  0.2125
 7081TIP3    H142878   6.100   0.810   0.684  0.3221  0.6213 -0.4463
 7081TIP3    H242879   6.000   0.921   0.657 -0.8680  0.2135  2.0192
 7082TIP3   OH242880   5.099   5.843   1.884  0.2269 -0.0876  0.5200
 7082TIP3    H142881   5.139   5.757   1.898  0.1508  0.1300  2.3215
 7082TIP3    H242882   5.021   5.842   1.939  1.0300  1.6361  1.7836
 7083TIP3   OH242883   2.978   3.363   2.286 -0.3880  0.0473 -0.1885
 7083TIP3    H142884   3.069   3.373   2.313 -0.5574 -0.4949  0.6445
 7083TIP3    H242885   2.976   3.389   2.194  0.6343 -0.0733 -0.2518
 7084TIP3   OH242886   0.760   5.603   2.140  0.5125 -0.5730  0.1837
 7084TIP3    H142887   0.734   5.633   2.227 -0.8359 -0.9406 -0.0653
 7084TIP3    H242888   0.829   5.538   2.157 -0.1367 -1.0645  1.0205
 7085TIP3   OH242889   2.585   2.619   8.285 -0.3025  0.2811 -0.1331
 7085TIP3    H142890   2.511   2.664   8.327  0.5084  0.3685  1.2598
 7085TIP3    H242891   2.615   2.556   8.351  0.7471  0.1135 -0.7544
 7086TIP3   OH242892   4.208   4.040   8.165 -0.0293  0.1439 -0.3290
 7086TIP3    H142893   4.226   4.088   8.085 -0.9595  0.0318 -0.6210
 7086TIP3    H242894   4.135   4.087   8.205  1.0425  0.7793  0.9637
 7087TIP3   OH242895   1.426   2.668   8.421 -0.6510 -0.1388 -0.5919
 7087TIP3    H142896   1.445   2.582   8.460 -1.5776 -0.7548 -1.4318
 7087TIP3    H242897   1.512   2.702   8.395 -0.1555 -0.2709  0.8056
 7088TIP3   OH242898   2.474   1.608   1.067  0.0136 -0.2997  0.4372
 7088TIP3    H142899   2.432   1.652   1.140 -0.2365 -0.1149  0.1803
 7088TIP3    H242900   2.488   1.518   1.098 -2.0164 -0.8194 -0.0360
 7089TIP3   OH242901   5.045   5.951   1.145  0.8574  0.3177  0.3100
 7089TIP3    H142902   5.037   5.920   1.235 -0.0349 -0.1891  0.0716
 7089TIP3    H242903   5.131   5.921   1.116 -0.0552 -2.2578 -0.0080
 7090TIP3   OH242904   1.351   4.095   1.082  0.3913 -0.0042  0.1644
 7090TIP3    H142905   1.372   4.188   1.078 -0.3213  0.2211  1.2677
 7090TIP3    H242906   1.272   4.090   1.136 -0.2209 -1.1572 -0.7723
 7091TIP3   OH242907   4.739   2.396   0.320 -0.3014  0.1403 -0.1263
 7091TIP3    H142908   4.775   2.449   0.249 -1.6530 -0.3694 -1.2326
 7091TIP3    H242909   4.747   2.306   0.290  0.8732 -0.2446  1.2226
 7092TIP3   OH242910   0.173   0.481   1.160 -0.5328 -0.3191  0.6728
 7092TIP3    H142911   0.086   0.520   1.158 -0.6224 -0.5237  0.6163
 7092TIP3    H242912   0.233   0.556   1.153 -0.7217 -0.2649 -0.7941
 7093TIP3   OH242913   3.434   6.686   1.747  0.3722 -0.6882  0.6496
 7093TIP3    H142914   3.433   6.648   1.834  0.6683 -1.7822  0.1915
 7093TIP3    H242915   3.524   6.717   1.735  0.4360 -0.8907  0.5938
 7094TIP3   OH242916   0.943   3.799   1.731 -0.4900  0.3069 -0.3886
 7094TIP3    H142917   0.930   3.705   1.720  0.1540 -0.0260  1.2821
 7094TIP3    H242918   0.955   3.810   1.826  0.7123  1.8884 -0.6807
 7095TIP3   OH242919   1.608   3.449   7.990 -0.2472 -0.1642 -0.3323
 7095TIP3    H142920   1.664   3.508   7.940  0.2844  0.5456  1.0541
 7095TIP3    H242921   1.614   3.480   8.081 -1.5796 -1.0919  0.1147
 7096TIP3   OH242922   0.672   5.347   8.346 -0.4575  0.0134 -0.7260
 7096TIP3    H142923   0.654   5.262   8.307 -0.2796  0.3436 -1.5734
 7096TIP3    H242924   0.757   5.337   8.388 -1.5996 -0.9572  1.4848
 7097TIP3   OH242925   2.245   2.788   1.768  0.3542 -0.2587 -0.4488
 7097TIP3    H142926   2.197   2.846   1.827 -0.1315 -0.3590 -0.7470
 7097TIP3    H242927   2.211   2.701   1.787  1.2202 -0.4891  0.1376
 7098TIP3   OH242928   4.283   6.311   0.271 -0.2689 -0.3506  0.7511
 7098TIP3    H142929   4.225   6.262   0.330 -0.9986 -1.3287 -0.6990
 7098TIP3    H242930   4.349   6.247   0.244 -0.2894 -0.0950  0.0798
 7099TIP3   OH242931   2.256   2.077   8.464 -0.5191 -0.1343  0.1045
 7099TIP3    H142932   2.298   2.076   8.378 -1.9830 -0.1436 -0.6531
 7099TIP3    H242933   2.286   2.158   8.505  0.7208 -0.4602 -0.1219
 7100TIP3   OH242934   5.894   5.460   8.026  0.7690  0.7897  0.2237
 7100TIP3    H142935   5.952   5.438   8.099 -0.2117 -0.6241  0.6154
 7100TIP3    H242936   5.826   5.515   8.066  1.1179  1.3660  0.0317
 7101TIP3   OH242937   1.596   2.619   6.971 -0.3500 -0.5014 -0.3299
 7101TIP3    H142938   1.520   2.645   6.919 -0.0328 -0.3481 -0.7191
 7101TIP3    H242939   1.663   2.684   6.950  0.1502 -1.1009 -0.6037
 7102TIP3   OH242940   3.742   3.553   2.744 -0.1488 -0.4226 -0.0160
 7102TIP3    H142941   3.740   3.637   2.697 -0.0320 -0.9370 -0.9518
 7102TIP3    H242942   3.835   3.533   2.753 -0.0636  0.5468  2.0834
 7103TIP3   OH242943   0.276   5.733   0.795  0.1698 -0.0361  1.0331
 7103TIP3    H142944   0.184   5.756   0.781  0.1184 -0.0446  1.3504
 7103TIP3    H242945   0.320   5.761   0.715 -0.2541 -0.8525  0.5084
 7104TIP3   OH242946   1.225   3.968   7.071 -0.2529 -0.6177 -0.4498
 7104TIP3    H142947   1.146   3.919   7.048  0.2638 -0.6723 -2.2429
 7104TIP3    H242948   1.286   3.949   7.000  0.5610  1.2647 -0.3067
 7105TIP3   OH242949   4.460   4.505   2.201 -0.0622 -0.1591 -0.5917
 7105TIP3    H142950   4.502   4.591   2.199  1.1272 -0.7161 -0.1915
 7105TIP3    H242951   4.439   4.492   2.294 -0.1887 -0.3258 -0.6442
 7106TIP3   OH242952   3.778   3.706   1.055 -0.1909 -0.1530  0.3467
 7106TIP3    H142953   3.741   3.701   0.966 -2.8331 -0.3320  1.3659
 7106TIP3    H242954   3.857   3.653   1.051  0.6595  1.0993 -2.2713
 7107TIP3   OH242955   2.584   2.025   2.119 -0.8040 -0.3726  0.8174
 7107TIP3    H142956   2.606   2.064   2.034 -0.3171 -1.8097  0.2494
 7107TIP3    H242957   2.490   2.040   2.130 -0.6350  0.9302  0.6335
 7108TIP3   OH242958   2.085   1.247   8.751 -0.3861 -0.5674 -0.3004
 7108TIP3    H142959   2.125   1.319   8.701 -0.1999 -0.0983  0.4997
 7108TIP3    H242960   2.036   1.197   8.686 -3.2300  2.0984 -0.4577
 7109TIP3   OH242961   0.121   4.826   7.950  0.2052  0.0349  0.1960
 7109TIP3    H142962   0.044   4.818   8.006  1.0894 -0.6234  1.3445
 7109TIP3    H242963   0.091   4.880   7.877 -0.9884  0.8790  1.2641
 7110TIP3   OH242964   3.763   5.042   8.425 -0.1378  0.1508  0.3888
 7110TIP3    H142965   3.767   5.015   8.333  0.2007 -1.8369  0.9304
 7110TIP3    H242966   3.669   5.044   8.445 -0.1886 -1.6366  0.5424
 7111TIP3   OH242967   2.738   5.512   8.395 -0.0304 -0.4443  0.6076
 7111TIP3    H142968   2.817   5.484   8.349 -1.7243 -1.3477 -1.9954
 7111TIP3    H242969   2.706   5.433   8.439  0.6189  0.0024  1.9599
 7112TIP3   OH242970   5.387   0.293   2.146  0.0288  0.0133 -0.4406
 7112TIP3    H142971   5.432   0.210   2.160  0.1893 -0.1633 -1.8279
 7112TIP3    H242972   5.296   0.268   2.127 -1.0556  0.4057  3.3376
 7113TIP3   OH242973   2.715   6.673   8.492  0.5679 -0.2129  0.2551
 7113TIP3    H142974   2.749   6.745   8.439 -1.9755  1.7982  1.1453
 7113TIP3    H242975   2.721   6.705   8.582  0.6939 -1.7172  0.8032
 7114TIP3   OH242976   5.743   5.947   8.388 -0.2307  0.0016  0.1693
 7114TIP3    H142977   5.721   6.028   8.341 -0.7550 -0.8677 -1.1313
 7114TIP3    H242978   5.810   5.974   8.451 -0.7707  1.5499  0.1254
 7115TIP3   OH242979   1.040   6.255   7.772 -0.0302  0.6125  0.0032
 7115TIP3    H142980   1.081   6.342   7.767  0.8464  0.2067 -0.0440
 7115TIP3    H242981   1.005   6.251   7.861  3.4691 -0.4791  1.5009
 7116TIP3   OH242982   2.358   0.050   6.888 -0.0462 -0.4918 -0.3020
 7116TIP3    H142983   2.301  -0.026   6.875 -0.4842 -0.2211  0.0099
 7116TIP3    H242984   2.445   0.019   6.863  0.1927 -1.8004  1.8844
 7117TIP3   OH242985   2.021   4.958   1.203  0.0762  0.3469  0.3682
 7117TIP3    H142986   2.016   4.863   1.212 -1.9963  0.5947  2.6971
 7117TIP3    H242987   1.930   4.987   1.201  0.6659  2.3378 -0.0187
 7118TIP3   OH242988   3.094   3.456   7.938 -0.0670  0.4082  0.7325
 7118TIP3    H142989   3.013   3.455   7.886  1.0529 -0.7300 -1.0942
 7118TIP3    H242990   3.070   3.413   8.020 -0.7987 -2.1779 -0.7301
 7119TIP3   OH242991   6.517   2.305   0.279 -0.7894 -0.2599 -0.0063
 7119TIP3    H142992   6.490   2.389   0.317  0.8891  0.8335 -1.1182
 7119TIP3    H242993   6.504   2.316   0.185  1.7474 -0.2710 -0.4310
 7120TIP3   OH242994   0.754   6.033   7.149  0.1329  0.1071 -0.5114
 7120TIP3    H142995   0.709   5.965   7.200  0.7573 -0.0728 -0.1965
 7120TIP3    H242996   0.684   6.075   7.099 -0.1828 -1.2078 -1.2357
 7121TIP3   OH242997   1.034   2.353   7.465  0.0397 -0.2749  0.5823
 7121TIP3    H142998   1.044   2.402   7.383  1.9563 -0.9189  0.3994
 7121TIP3    H242999   1.071   2.411   7.532 -1.5067  0.2430  1.0437
 7122TIP3   OH243000   6.660   2.450   8.657 -0.0802 -0.6875 -0.3330
 7122TIP3    H143001   6.698   2.483   8.738  0.1022 -1.2967 -0.1725
 7122TIP3    H243002   6.629   2.529   8.612  1.8647 -0.0828 -0.7351
 7123TIP3   OH243003   0.457   3.772   7.867 -0.3961  0.7659  0.1047
 7123TIP3    H143004   0.524   3.740   7.928 -1.7732 -0.6705  0.9449
 7123TIP3    H243005   0.454   3.867   7.882  1.6075  0.9078 -0.1593
 7124TIP3   OH243006   1.335   0.284   1.812  0.1111 -0.0288  0.1915
 7124TIP3    H143007   1.336   0.285   1.908  1.7947 -1.4790  0.2220
 7124TIP3    H243008   1.332   0.192   1.789  0.0107  0.2992 -1.1667
 7125TIP3   OH243009   0.512   3.066   8.608  0.5260 -0.2237 -0.0261
 7125TIP3    H143010   0.581   3.131   8.596 -0.5386  1.3850  2.0746
 7125TIP3    H243011   0.435   3.104   8.566 -0.1253 -0.0625  1.2812
 7126TIP3   OH243012   6.271   1.420   8.687 -1.1098  0.2751 -0.1509
 7126TIP3    H143013   6.183   1.448   8.712 -1.1682 -0.8568  1.0236
 7126TIP3    H243014   6.282   1.335   8.731  0.5561  0.3936 -0.2871
 7127TIP3   OH243015   6.750   4.924   8.696 -0.0106  0.2124  1.0023
 7127TIP3    H143016   6.777   4.981   8.769 -0.9571  0.4696  1.1609
 7127TIP3    H243017   6.672   4.879   8.728 -0.4907  0.3987  0.1140
 7128TIP3   OH243018   5.102   3.765   0.585 -0.1640 -0.2197  0.2054
 7128TIP3    H143019   5.099   3.860   0.576 -2.5112 -0.0463  1.8065
 7128TIP3    H243020   5.061   3.733   0.505 -0.1499  0.1752  0.0368
 7129TIP3   OH243021   4.453   3.207   1.500 -0.3811 -0.8375  0.0541
 7129TIP3    H143022   4.457   3.192   1.594 -0.6768 -0.5281  0.1191
 7129TIP3    H243023   4.536   3.174   1.467  0.8660  1.3904  0.7578
 7130TIP3   OH243024   2.862   2.788   8.673 -0.2437  0.1626 -0.1316
 7130TIP3    H143025   2.843   2.701   8.707  0.1710  0.0806 -0.1088
 7130TIP3    H243026   2.893   2.772   8.584 -0.9255  0.3462 -0.4090
 7131TIP3   OH243027   0.126   6.360   1.521 -0.2135 -0.5967 -0.1614
 7131TIP3    H143028   0.165   6.275   1.539 -0.6680 -0.9530 -0.8209
 7131TIP3    H243029   0.184   6.400   1.456 -0.8830 -1.0956 -1.0863
 7132TIP3   OH243030   2.209   2.053   0.842  0.3161 -0.6371  0.1001
 7132TIP3    H143031   2.221   2.039   0.749  0.2465  1.5401 -0.2917
 7132TIP3    H243032   2.293   2.028   0.882  0.8108 -0.3100 -0.7180
 7133TIP3   OH243033   3.188   0.156   7.869 -0.3452 -0.3868  0.1253
 7133TIP3    H143034   3.148   0.198   7.945 -2.0484 -0.2349 -0.8247
 7133TIP3    H243035   3.203   0.227   7.807  1.6705 -0.3979  0.5310
 7134TIP3   OH243036   0.172   3.795   1.878  0.1964  0.0875  0.1391
 7134TIP3    H143037   0.091   3.817   1.924  0.3733  0.1787  0.4071
 7134TIP3    H243038   0.157   3.706   1.845  0.6885 -0.6474  1.7933
 7135TIP3   OH243039   6.659   1.569   6.558  0.1611 -0.2947  0.2621
 7135TIP3    H143040   6.634   1.637   6.495 -0.7827 -0.8820 -0.0143
 7135TIP3    H243041   6.748   1.593   6.585 -0.6435  1.9047  1.2798
 7136TIP3   OH243042   6.017   0.354   7.224  0.6142 -0.4961  0.4100
 7136TIP3    H143043   6.107   0.379   7.243  0.4070  0.8898 -0.2644
 7136TIP3    H243044   6.008   0.365   7.129 -0.0757 -1.2596  0.3750
 7137TIP3   OH243045   1.909   0.490   6.336 -0.5005 -0.2406 -0.4266
 7137TIP3    H143046   1.904   0.585   6.327  0.3482 -0.3160 -2.1597
 7137TIP3    H243047   1.990   0.466   6.292 -0.2759 -1.7023  0.7096
 7138TIP3   OH243048   6.564   4.087   8.885 -0.2405 -0.1829  0.3653
 7138TIP3    H143049   6.620   4.010   8.870 -1.4424 -1.1807  0.8244
 7138TIP3    H243050   6.591   4.119   8.971 -0.6707 -0.9338  0.7877
 7139TIP3   OH243051   2.591   4.854   7.876  0.3330 -0.7888 -0.1967
 7139TIP3    H143052   2.507   4.872   7.918  0.1354  0.4035 -1.0360
 7139TIP3    H243053   2.580   4.770   7.833 -0.0857 -1.1219  0.5593
 7140TIP3   OH243054   6.540   2.445   1.922 -0.1898 -0.1945 -0.1607
 7140TIP3    H143055   6.606   2.417   1.986 -0.2731 -0.9735 -0.3969
 7140TIP3    H243056   6.541   2.375   1.856 -1.3113 -0.2603 -0.1226
 7141TIP3   OH243057   0.714   5.687   1.298  0.1647 -0.4285  0.1427
 7141TIP3    H143058   0.749   5.663   1.213 -1.6781  0.9573 -1.0739
 7141TIP3    H243059   0.640   5.627   1.311 -0.2854  0.1315  0.2070
 7142TIP3   OH243060   1.902   1.654   6.919 -0.1169  0.2977 -0.0982
 7142TIP3    H143061   1.938   1.739   6.947  0.7459 -0.6210  1.7180
 7142TIP3    H243062   1.964   1.623   6.853 -1.3656  1.8080 -2.1025
 7143TIP3   OH243063   6.563   1.471   1.267  0.0547 -0.1919  0.2373
 7143TIP3    H143064   6.617   1.446   1.191  0.6643  0.9668  0.2704
 7143TIP3    H243065   6.561   1.566   1.264  0.3567 -0.1145  1.8743
 7144TIP3   OH243066   1.283   1.907   7.922  0.2866  0.4873  0.4176
 7144TIP3    H143067   1.194   1.885   7.893  0.0386  0.9059  0.8583
 7144TIP3    H243068   1.340   1.860   7.861 -0.2050  1.9213 -1.2258
 7145TIP3   OH243069   5.055   2.262   0.498 -0.3328  0.3444 -0.2575
 7145TIP3    H143070   4.988   2.318   0.537 -2.4894 -2.0996 -0.1607
 7145TIP3    H243071   5.068   2.297   0.410 -0.4984  1.8279  0.2803
 7146TIP3   OH243072   5.334   6.176   2.843  0.1482  0.4028 -0.0229
 7146TIP3    H143073   5.256   6.132   2.877  0.5928  0.2098  0.7814
 7146TIP3    H243074   5.311   6.199   2.754 -1.9899  3.1200  1.0959
 7147TIP3   OH243075   2.804   2.976   6.339 -0.2378 -0.2126  0.1419
 7147TIP3    H143076   2.718   2.936   6.356  0.1796 -1.4948 -0.6470
 7147TIP3    H243077   2.847   2.916   6.279  0.2011  1.7492 -1.6169
 7148TIP3   OH243078   6.307   0.262   7.751 -0.4445 -0.3078  0.1741
 7148TIP3    H143079   6.236   0.318   7.785  0.4769  0.8710  0.2303
 7148TIP3    H243080   6.296   0.265   7.656 -0.4706 -0.1265  0.1825
 7149TIP3   OH243081   5.104   0.565   2.048 -0.7131  0.1412 -0.3459
 7149TIP3    H143082   5.184   0.605   2.080 -1.3045  0.0695  1.3534
 7149TIP3    H243083   5.074   0.623   1.978  0.4661  0.5093 -0.5673
 7150TIP3   OH243084   2.235   3.610   1.135 -0.6962 -0.5829  0.7299
 7150TIP3    H143085   2.268   3.680   1.191 -0.6474  0.7664 -0.9269
 7150TIP3    H243086   2.152   3.584   1.175 -1.1873  1.0873  0.8437
 7151TIP3   OH243087   4.005   3.068   7.756 -0.0126 -0.1891  0.5885
 7151TIP3    H143088   4.082   3.045   7.808  0.1075 -0.0500  0.4742
 7151TIP3    H243089   4.039   3.122   7.685 -0.3937  1.0898  1.3435
 7152TIP3   OH243090   5.795   1.009   7.904 -0.1051 -0.2139  0.2114
 7152TIP3    H143091   5.806   1.052   7.819 -2.9464 -0.0667 -0.1667
 7152TIP3    H243092   5.849   0.930   7.898  0.4917  0.2749 -1.3513
 7153TIP3   OH243093   5.134   6.243   7.447  0.2346 -0.4092 -0.0940
 7153TIP3    H143094   5.117   6.214   7.537 -1.5281 -1.8871 -0.8566
 7153TIP3    H243095   5.181   6.326   7.458 -0.5773 -0.1689  2.1908
 7154TIP3   OH243096   0.549   6.612   6.978 -0.1194  0.5210 -0.0196
 7154TIP3    H143097   0.477   6.587   7.036  1.2385  0.2640  1.6244
 7154TIP3    H243098   0.537   6.559   6.900 -1.0711 -0.3451  0.7022
 7155TIP3   OH243099   5.554   3.628   1.121 -0.0382  0.3770 -0.1805
 7155TIP3    H143100   5.639   3.622   1.079  0.3535  0.0283  0.6323
 7155TIP3    H243101   5.571   3.675   1.202 -0.3788 -0.7142  0.5560
 7156TIP3   OH243102   2.223   6.478   0.430 -0.4577 -0.6602  0.0221
 7156TIP3    H143103   2.156   6.536   0.393 -1.1079 -1.6853 -0.4814
 7156TIP3    H243104   2.177   6.394   0.442  0.2243 -0.8426  1.5141
 7157TIP3   OH243105   6.757   5.468   6.649  1.0680  0.3587 -0.1452
 7157TIP3    H143106   6.679   5.423   6.616  0.9661 -0.0245  0.5892
 7157TIP3    H243107   6.828   5.439   6.592  0.8142  0.0803 -0.3196
 7158TIP3   OH243108   2.262   2.953   8.209 -0.1926 -0.3678 -0.6602
 7158TIP3    H143109   2.314   2.984   8.283 -2.3305  0.5436  0.5369
 7158TIP3    H243110   2.297   3.001   8.134  0.0417  0.9840  0.2823
 7159TIP3   OH243111   2.937   3.055   8.723  0.7330  0.4892 -0.0970
 7159TIP3    H143112   2.925   3.082   8.632  2.4614  1.3180 -0.1106
 7159TIP3    H243113   2.915   2.961   8.723 -1.2324  0.8936 -0.9113
 7160TIP3   OH243114   1.135   5.640   8.261 -0.1016 -0.1125 -0.6025
 7160TIP3    H143115   1.076   5.573   8.227 -2.6723  1.8351 -0.2369
 7160TIP3    H243116   1.162   5.690   8.184 -1.4084  0.8475 -0.4588
 7161TIP3   OH243117   6.393   6.536   8.616  0.4182 -0.4350 -0.2041
 7161TIP3    H143118   6.406   6.480   8.539  0.0030 -1.4954  0.4845
 7161TIP3    H243119   6.308   6.578   8.600  0.3719 -0.5837 -0.3537
 7162TIP3   OH243120   5.814   3.611   1.010 -0.5096 -0.1471 -0.9667
 7162TIP3    H143121   5.858   3.527   1.008 -0.4949 -0.1621 -0.0851
 7162TIP3    H243122   5.877   3.672   0.971  1.4179  0.3405  2.5380
 7163TIP3   OH243123   2.579   3.975   0.542  0.5228 -0.1954  0.4587
 7163TIP3    H143124   2.628   3.948   0.620  1.9526  1.2731  0.1351
 7163TIP3    H243125   2.492   3.937   0.554  1.8869 -3.6651  0.6722
 7164TIP3   OH243126   0.100   0.878   8.844 -0.8165  0.1530  0.3007
 7164TIP3    H143127   0.157   0.802   8.846  0.2920  0.8818 -1.1206
 7164TIP3    H243128   0.064   0.878   8.755 -1.0569  1.1072  0.3873
 7165TIP3   OH243129   1.213   4.144   0.468 -0.1841 -0.4133  0.4111
 7165TIP3    H143130   1.218   4.120   0.561  1.3693  0.8357  0.6812
 7165TIP3    H243131   1.184   4.063   0.425  2.0962 -2.0032  1.6204
 7166TIP3   OH243132   6.188   2.446   2.403 -0.4205 -0.0673  0.0848
 7166TIP3    H143133   6.241   2.389   2.348 -0.7651  0.6086 -0.9682
 7166TIP3    H243134   6.113   2.469   2.349 -1.6230 -0.6909  1.4038
 7167TIP3   OH243135   1.642   4.431   1.290  0.4658  0.5485  0.4522
 7167TIP3    H143136   1.626   4.517   1.251  0.3918  2.1958  3.7740
 7167TIP3    H243137   1.575   4.422   1.358  0.6736 -2.0317  0.4237
 7168TIP3   OH243138   2.597   3.296   1.773  0.1644 -0.4394 -0.6625
 7168TIP3    H143139   2.639   3.247   1.844  1.2078  0.4836 -0.6218
 7168TIP3    H243140   2.519   3.244   1.751  0.0904 -0.9931  0.8096
 7169TIP3   OH243141   3.746   2.729   7.100  0.9414 -0.1912 -0.2643
 7169TIP3    H143142   3.832   2.763   7.077  1.1851 -1.1964 -0.9085
 7169TIP3    H243143   3.709   2.700   7.017 -0.2923  0.7880 -0.0955
 7170TIP3   OH243144   4.716   1.785   7.083 -0.0931 -0.4194  0.4184
 7170TIP3    H143145   4.639   1.733   7.107 -0.5116 -0.5418 -1.0684
 7170TIP3    H243146   4.680   1.860   7.035  0.5887  0.6811  1.5580
 7171TIP3   OH243147   4.120   3.170   1.983 -0.4035  0.3348  0.6606
 7171TIP3    H143148   4.089   3.221   2.057  1.1989  1.7243  0.4464
 7171TIP3    H243149   4.096   3.221   1.906  0.3610  0.3186  0.3938
 7172TIP3   OH243150   4.879   5.820   0.852 -0.0716 -0.3593 -0.6030
 7172TIP3    H143151   4.968   5.784   0.854  0.0913  0.0107 -0.8841
 7172TIP3    H243152   4.824   5.747   0.825  0.0963 -0.6898 -0.0550
 7173TIP3   OH243153   0.802   0.630   8.598 -0.0680 -0.1218 -0.6002
 7173TIP3    H143154   0.880   0.579   8.575  0.5541  0.9812 -0.9997
 7173TIP3    H243155   0.743   0.566   8.638  1.0871 -0.9612 -0.1684
 7174TIP3   OH243156   4.677   3.903   1.063  0.0249  0.4880 -0.3995
 7174TIP3    H143157   4.743   3.971   1.051 -1.4245  1.8712 -0.7736
 7174TIP3    H243158   4.698   3.838   0.995  0.7652  1.1018 -0.7718
 7175TIP3   OH243159   0.170   0.043   8.863  0.3936 -0.3323  0.2972
 7175TIP3    H143160   0.140  -0.047   8.873  0.8960 -0.4973  0.3309
 7175TIP3    H243161   0.151   0.065   8.772  0.2108 -0.4460  0.3071
 7176TIP3   OH243162   5.169   3.672   8.412  0.5852 -0.2899  0.5611
 7176TIP3    H143163   5.110   3.741   8.382  2.7412  1.4129 -0.0029
 7176TIP3    H243164   5.130   3.591   8.378  0.0025  1.0245 -2.1898
 7177TIP3   OH243165   4.170   5.484   8.670 -0.0688 -0.0364  0.0928
 7177TIP3    H143166   4.162   5.500   8.576  0.3758 -4.3900 -0.9016
 7177TIP3    H243167   4.238   5.545   8.700 -1.0432  2.2667 -2.0588
 7178TIP3   OH243168   1.850   4.005   1.041  0.2636 -0.2940  0.1836
 7178TIP3    H143169   1.849   4.100   1.045 -1.0794 -0.2418 -0.7310
 7178TIP3    H243170   1.943   3.982   1.036  0.5699  1.0992 -1.7848
 7179TIP3   OH243171   4.410   5.494   8.142  0.2122 -0.8457  0.1687
 7179TIP3    H143172   4.471   5.549   8.192 -0.6136  0.2323  0.0440
 7179TIP3    H243173   4.465   5.452   8.076  1.3855 -2.5340  2.0888
 7180TIP3   OH243174   5.026   3.023   0.083  0.2156 -0.5789  0.2673
 7180TIP3    H143175   5.063   3.093   0.029  0.2082  0.4159  1.5005
 7180TIP3    H243176   5.097   2.959   0.091  0.5945 -0.1997  0.0142
 7181TIP3   OH243177   4.892   3.393   8.812  0.6768  0.2717  0.0452
 7181TIP3    H143178   4.833   3.368   8.741  0.7170  0.7734 -0.1723
 7181TIP3    H243179   4.835   3.438   8.875  0.8636  0.9994 -0.2911
 7182TIP3   OH243180   3.455   2.186   8.776  0.4346 -0.4776 -0.4023
 7182TIP3    H143181   3.550   2.191   8.783  0.3113 -0.6213  2.5462
 7182TIP3    H243182   3.432   2.254   8.713  2.4737 -0.6999 -1.4783
 7183LIG      O43183   4.361   4.511   8.326 -0.4588 -0.2826  0.2875
 7183LIG     C143184   4.233   4.556   8.284 -0.4367  0.7255 -0.5080
 7183LIG     C243185   4.219   4.697   8.332 -0.6641  0.2380 -0.1632
 7183LIG     C343186   4.232   4.548   8.132  0.3707 -0.0401  0.0702
 7183LIG     H143187   4.151   4.491   8.323  0.6682 -0.9372 -0.8478
 7183LIG     H243188   4.279   4.772   8.277 -2.1302  1.9712  0.5144
 7183LIG     H343189   4.237   4.721   8.439 -0.6284  1.9742 -0.5338
 7183LIG     H443190   4.112   4.722   8.319 -1.4702 -2.0532  1.4239
 7183LIG     H543191   4.126   4.557   8.101  0.7286  1.8046 -0.7760
 7183LIG     H643192   4.288   4.460   8.095 -1.1397  0.1000 -2.8597
 7183LIG     H743193   4.288   4.635   8.092 -0.6432 -0.4078 -2.3195
 7183LIG     H843194   4.343   4.484   8.416  1.4325  0.4208  0.9281
   6.77542   6.77542   8.99661
